{
	 "smiles": "C1=CC=C(C=C1)C1=CN=CC(=N1)C1=CC=CC=C1", 
	 "Tm": 360.15, 
	 "num_atms": 30, 
	 "gaussian": { 
		 "optdone": 1, 
		 "sigma_profile": "yes", 
		 "theory": "DFT", 
		 "functional": "B3LYP", 
		 "basiset": "6-31G**", 
		 "properties": { 
			 "R2extent": 5994.5286, 
			 "electric_dipole_moment_norm": 1.09088502144, 
			 "electric_quadrupole_moment_norm": 15.9593064915, 
			 "total_energy": -726.441653972, 
			 "HOMO_LUMO_gap": 0.17101, 
			 "cosmo_polarized_energy": -8.65, 
			 "cosmo_cavitation_energy": 34.42, 
			 "cosmo_dispersion_energy": -25.12, 
			 "cosmo_repulsion_energy": 1.89, 
			 "cosmo_total_nonelectrostatic_energy": 11.19, 
			 "SMD_solvation_energy": 3.36 
		},
		"coords": [
			{
				"x": 0.0425164162,
				"y": -0.7620672472,
				"z": 4.2861671929,
				"element": "C" 
			},
			{
				"x": 0.7572059858,
				"y": -1.2527930828,
				"z": 3.190471896,
				"element": "C" 
			},
			{
				"x": 0.5147040545,
				"y": -0.7530039892,
				"z": 1.9134834782,
				"element": "C" 
			},
			{
				"x": -0.4529570637,
				"y": 0.244389187,
				"z": 1.7078018431,
				"element": "C" 
			},
			{
				"x": -1.1594425249,
				"y": 0.7374595096,
				"z": 2.8173844158,
				"element": "C" 
			},
			{
				"x": -0.9136671079,
				"y": 0.2368810781,
				"z": 4.0952055409,
				"element": "C" 
			},
			{
				"x": -0.7038786885,
				"y": 0.7549220726,
				"z": 0.3373693538,
				"element": "C" 
			},
			{
				"x": -1.9203368928,
				"y": 1.3577671349,
				"z": -0.032702784,
				"element": "C" 
			},
			{
				"x": -2.1238045394,
				"y": 1.8590580935,
				"z": -1.2523075069,
				"element": "N" 
			},
			{
				"x": -1.128672327,
				"y": 1.7304791378,
				"z": -2.1316803302,
				"element": "C" 
			},
			{
				"x": 0.0699357209,
				"y": 1.0641779478,
				"z": -1.816229084,
				"element": "C" 
			},
			{
				"x": 0.270373957,
				"y": 0.6008644985,
				"z": -0.57271468,
				"element": "N" 
			},
			{
				"x": 1.1579468794,
				"y": 0.8713992894,
				"z": -2.8065649655,
				"element": "C" 
			},
			{
				"x": 0.9055401317,
				"y": 0.8827822368,
				"z": -4.1884385293,
				"element": "C" 
			},
			{
				"x": 1.9447343378,
				"y": 0.7087090221,
				"z": -5.1014501171,
				"element": "C" 
			},
			{
				"x": 3.2518083706,
				"y": 0.5183360255,
				"z": -4.6498094029,
				"element": "C" 
			},
			{
				"x": 3.5120913909,
				"y": 0.4961107334,
				"z": -3.2772611144,
				"element": "C" 
			},
			{
				"x": 2.4754144726,
				"y": 0.6679475625,
				"z": -2.3634436844,
				"element": "C" 
			},
			{
				"x": 0.2327763106,
				"y": -1.1519188338,
				"z": 5.2819914771,
				"element": "H" 
			},
			{
				"x": 1.503996584,
				"y": -2.0289546841,
				"z": 3.3318262401,
				"element": "H" 
			},
			{
				"x": 1.0648622688,
				"y": -1.126438106,
				"z": 1.0569580708,
				"element": "H" 
			},
			{
				"x": -1.8857101387,
				"y": 1.5342642297,
				"z": 2.6908636334,
				"element": "H" 
			},
			{
				"x": -1.4638831495,
				"y": 0.6343156762,
				"z": 4.9431874597,
				"element": "H" 
			},
			{
				"x": -2.750394393,
				"y": 1.4258048005,
				"z": 0.6652107725,
				"element": "H" 
			},
			{
				"x": -1.2828637835,
				"y": 2.1797388635,
				"z": -3.1089703375,
				"element": "H" 
			},
			{
				"x": -0.108956672,
				"y": 1.0007617323,
				"z": -4.5562015701,
				"element": "H" 
			},
			{
				"x": 1.7309861311,
				"y": 0.713195678,
				"z": -6.1663711498,
				"element": "H" 
			},
			{
				"x": 4.0608604337,
				"y": 0.3835515223,
				"z": -5.3619311429,
				"element": "H" 
			},
			{
				"x": 4.5265460348,
				"y": 0.346761946,
				"z": -2.9185409958,
				"element": "H" 
			},
			{
				"x": 2.6669678005,
				"y": 0.6511979652,
				"z": -1.2963039792,
				"element": "H" 
			}
		],
		 "valence_orbital": [ 
			{
				"type": "occ",
				"energy": -0.25492,
				"method": "rhf"
			},
			{
				"type": "occ",
				"energy": -0.25439,
				"method": "rhf"
			},
			{
				"type": "occ",
				"energy": -0.2489,
				"method": "rhf"
			},
			{
				"type": "occ",
				"energy": -0.24537,
				"method": "rhf"
			},
			{
				"type": "occ",
				"energy": -0.22805,
				"method": "rhf"
			},
			{
				"type": "unocc",
				"energy": -0.05704,
				"method": "rhf"
			},
			{
				"type": "unocc",
				"energy": -0.04986,
				"method": "rhf"
			},
			{
				"type": "unocc",
				"energy": -0.00542,
				"method": "rhf"
			},
			{
				"type": "unocc",
				"energy": -0.00421,
				"method": "rhf"
			},
			{
				"type": "unocc",
				"energy": 0.00369,
				"method": "rhf"
			}
		],
		"cosmo_sigma_profile": { 
			"-0.025": 0.0,
			"-0.024": 0.0,
			"-0.023": 0.0,
			"-0.022": 0.0,
			"-0.021": 0.0,
			"-0.02": 0.0,
			"-0.019": 0.0,
			"-0.018": 0.0,
			"-0.017": 0.0,
			"-0.016": 0.0,
			"-0.015": 0.0,
			"-0.014": 0.0,
			"-0.013": 0.0,
			"-0.012": 0.0,
			"-0.011": 0.0,
			"-0.01": 0.0,
			"-0.009": 0.0496755194263,
			"-0.008": 3.57929971191,
			"-0.007": 6.12837880106,
			"-0.006": 15.3802830815,
			"-0.005": 19.2523105286,
			"-0.004": 25.1030838808,
			"-0.003": 19.7884148489,
			"-0.002": 18.1844216393,
			"-0.001": 22.7278881158,
			"0.0": 21.058022641,
			"0.001": 22.3979073943,
			"0.002": 19.572185254,
			"0.003": 20.4970181377,
			"0.004": 23.6123189397,
			"0.005": 24.1652503955,
			"0.006": 5.3897625789,
			"0.007": 3.55759390616,
			"0.008": 1.37101800784,
			"0.009": 0.775973387985,
			"0.01": 0.620198694659,
			"0.011": 1.46058502823,
			"0.012": 0.854934436698,
			"0.013": 0.848392472871,
			"0.014": 0.757100845562,
			"0.015": 0.683719618253,
			"0.016": 0.0790205641891,
			"0.017": 0.0,
			"0.018": 0.0,
			"0.019": 0.0,
			"0.02": 0.0,
			"0.021": 0.0,
			"0.022": 0.0,
			"0.023": 0.0,
			"0.024": 0.0,
			"0.025": 0.0
		}
	}
}
