{
	 "smiles": "O=C1OC(=O)[C@@]23CC4=CC=CC=C4C[C@@]12CC1=C(C3)C=CC=C1", 
	 "Tm": 541.15, 
	 "num_atms": 39, 
	 "gaussian": { 
		 "optdone": 1, 
		 "sigma_profile": "yes", 
		 "theory": "DFT", 
		 "functional": "B3LYP", 
		 "basiset": "6-31G**", 
		 "properties": { 
			 "R2extent": 6476.5315, 
			 "electric_dipole_moment_norm": 4.38685438213, 
			 "electric_quadrupole_moment_norm": 13.5873650963, 
			 "total_energy": -997.489498436, 
			 "HOMO_LUMO_gap": 0.219, 
			 "cosmo_polarized_energy": -14.53, 
			 "cosmo_cavitation_energy": 40.15, 
			 "cosmo_dispersion_energy": -27.69, 
			 "cosmo_repulsion_energy": 2.04, 
			 "cosmo_total_nonelectrostatic_energy": 14.49, 
			 "SMD_solvation_energy": 7.35 
		},
		"coords": [
			{
				"x": -2.5278521398,
				"y": -0.4106019887,
				"z": -1.878448621,
				"element": "O" 
			},
			{
				"x": -1.7192961362,
				"y": -0.2967375287,
				"z": -1.0007606124,
				"element": "C" 
			},
			{
				"x": -1.8782194063,
				"y": -0.9367651494,
				"z": 0.2154841179,
				"element": "O" 
			},
			{
				"x": -0.8236420213,
				"y": -0.6570046482,
				"z": 1.066194802,
				"element": "C" 
			},
			{
				"x": -0.7725980109,
				"y": -1.1165220945,
				"z": 2.1722264187,
				"element": "O" 
			},
			{
				"x": 0.1890241216,
				"y": 0.2744849185,
				"z": 0.392131323,
				"element": "C" 
			},
			{
				"x": 1.5592975184,
				"y": -0.4544963397,
				"z": 0.3474033614,
				"element": "C" 
			},
			{
				"x": 1.5568647376,
				"y": -1.6159568292,
				"z": -0.6164510443,
				"element": "C" 
			},
			{
				"x": 2.0628381972,
				"y": -2.876654309,
				"z": -0.2918585762,
				"element": "C" 
			},
			{
				"x": 2.0339568563,
				"y": -3.9105622892,
				"z": -1.230098547,
				"element": "C" 
			},
			{
				"x": 1.4859615296,
				"y": -3.6895936668,
				"z": -2.4944662282,
				"element": "C" 
			},
			{
				"x": 0.9669784166,
				"y": -2.4347691071,
				"z": -2.8203192842,
				"element": "C" 
			},
			{
				"x": 1.0047188676,
				"y": -1.3932852442,
				"z": -1.8904659214,
				"element": "C" 
			},
			{
				"x": 0.46509041,
				"y": -0.0131676705,
				"z": -2.177195576,
				"element": "C" 
			},
			{
				"x": -0.4239974316,
				"y": 0.5213551805,
				"z": -1.0219200916,
				"element": "C" 
			},
			{
				"x": -0.7959628917,
				"y": 2.0070136228,
				"z": -1.277662234,
				"element": "C" 
			},
			{
				"x": -1.5055674521,
				"y": 2.6287566972,
				"z": -0.0995169571,
				"element": "C" 
			},
			{
				"x": -0.9528653125,
				"y": 2.4064647705,
				"z": 1.1743511751,
				"element": "C" 
			},
			{
				"x": 0.2990071878,
				"y": 1.566303377,
				"z": 1.2463745107,
				"element": "C" 
			},
			{
				"x": -1.5724085065,
				"y": 2.9494374645,
				"z": 2.3022110389,
				"element": "C" 
			},
			{
				"x": -2.7287102881,
				"y": 3.7208993564,
				"z": 2.1683075778,
				"element": "C" 
			},
			{
				"x": -3.2772164097,
				"y": 3.9415094529,
				"z": 0.9040975953,
				"element": "C" 
			},
			{
				"x": -2.6693197931,
				"y": 3.3906112402,
				"z": -0.2259838665,
				"element": "C" 
			},
			{
				"x": 2.3167496574,
				"y": 0.2831640277,
				"z": 0.0459359943,
				"element": "H" 
			},
			{
				"x": 1.8155603366,
				"y": -0.781620829,
				"z": 1.3592915906,
				"element": "H" 
			},
			{
				"x": 2.4767506525,
				"y": -3.0503805002,
				"z": 0.6981233017,
				"element": "H" 
			},
			{
				"x": 2.4292260049,
				"y": -4.8881780175,
				"z": -0.9702147467,
				"element": "H" 
			},
			{
				"x": 1.4529007737,
				"y": -4.494510663,
				"z": -3.2228362351,
				"element": "H" 
			},
			{
				"x": 0.5273231299,
				"y": -2.2643516103,
				"z": -3.7997198445,
				"element": "H" 
			},
			{
				"x": 1.2952136651,
				"y": 0.695214628,
				"z": -2.3108381763,
				"element": "H" 
			},
			{
				"x": -0.1180814265,
				"y": -0.0015835242,
				"z": -3.102594206,
				"element": "H" 
			},
			{
				"x": 0.1369487085,
				"y": 2.5506915636,
				"z": -1.4846342423,
				"element": "H" 
			},
			{
				"x": -1.4078824242,
				"y": 2.0645411771,
				"z": -2.1825535628,
				"element": "H" 
			},
			{
				"x": 1.1588524517,
				"y": 2.1392303312,
				"z": 0.870613496,
				"element": "H" 
			},
			{
				"x": 0.5273842311,
				"y": 1.2856376301,
				"z": 2.2786750258,
				"element": "H" 
			},
			{
				"x": -1.1512546042,
				"y": 2.7649668525,
				"z": 3.287178838,
				"element": "H" 
			},
			{
				"x": -3.2048799808,
				"y": 4.1395868109,
				"z": 3.0500509553,
				"element": "H" 
			},
			{
				"x": -4.1820841271,
				"y": 4.532622,
				"z": 0.7977413551,
				"element": "H" 
			},
			{
				"x": -3.1025090916,
				"y": 3.5497509076,
				"z": -1.2101539039,
				"element": "H" 
			}
		],
		 "valence_orbital": [ 
			{
				"type": "occ",
				"energy": -0.27412,
				"method": "rhf"
			},
			{
				"type": "occ",
				"energy": -0.25475,
				"method": "rhf"
			},
			{
				"type": "occ",
				"energy": -0.25316,
				"method": "rhf"
			},
			{
				"type": "occ",
				"energy": -0.25212,
				"method": "rhf"
			},
			{
				"type": "occ",
				"energy": -0.243,
				"method": "rhf"
			},
			{
				"type": "unocc",
				"energy": -0.024,
				"method": "rhf"
			},
			{
				"type": "unocc",
				"energy": -0.01768,
				"method": "rhf"
			},
			{
				"type": "unocc",
				"energy": -0.01046,
				"method": "rhf"
			},
			{
				"type": "unocc",
				"energy": -0.01026,
				"method": "rhf"
			},
			{
				"type": "unocc",
				"energy": -0.00258,
				"method": "rhf"
			}
		],
		"cosmo_sigma_profile": { 
			"-0.025": 0.0,
			"-0.024": 0.0,
			"-0.023": 0.0,
			"-0.022": 0.0,
			"-0.021": 0.0,
			"-0.02": 0.0,
			"-0.019": 0.0,
			"-0.018": 0.0,
			"-0.017": 0.0,
			"-0.016": 0.0,
			"-0.015": 0.0,
			"-0.014": 0.0,
			"-0.013": 0.0,
			"-0.012": 0.0,
			"-0.011": 0.0,
			"-0.01": 0.0,
			"-0.009": 0.14941150953,
			"-0.008": 1.57348882538,
			"-0.007": 3.51520489301,
			"-0.006": 18.348065737,
			"-0.005": 34.8017824603,
			"-0.004": 32.6840860269,
			"-0.003": 30.4933849613,
			"-0.002": 24.1984917411,
			"-0.001": 21.7822755853,
			"0.0": 18.8115413182,
			"0.001": 18.7666044496,
			"0.002": 16.7143805075,
			"0.003": 17.2596337271,
			"0.004": 17.3229043686,
			"0.005": 19.1702603562,
			"0.006": 13.4674677162,
			"0.007": 5.80312699467,
			"0.008": 4.48565576224,
			"0.009": 5.65566445163,
			"0.01": 10.1858922703,
			"0.011": 3.18542888366,
			"0.012": 0.0223864573519,
			"0.013": 0.0,
			"0.014": 0.0,
			"0.015": 0.0,
			"0.016": 0.0,
			"0.017": 0.0,
			"0.018": 0.0,
			"0.019": 0.0,
			"0.02": 0.0,
			"0.021": 0.0,
			"0.022": 0.0,
			"0.023": 0.0,
			"0.024": 0.0,
			"0.025": 0.0
		}
	}
}
