{
	 "smiles": "CC1C2CC3=CC=C(O)C=C3C1(C)CCN2C", 
	 "Tm": 507.15, 
	 "num_atms": 38, 
	 "gaussian": { 
		 "optdone": 1, 
		 "sigma_profile": "yes", 
		 "theory": "DFT", 
		 "functional": "B3LYP", 
		 "basiset": "6-31G**", 
		 "properties": { 
			 "R2extent": 4351.8118, 
			 "electric_dipole_moment_norm": 1.5638131538, 
			 "electric_quadrupole_moment_norm": 8.02456720951, 
			 "total_energy": -714.234135762, 
			 "HOMO_LUMO_gap": 0.19955, 
			 "cosmo_polarized_energy": -8.98, 
			 "cosmo_cavitation_energy": 35.22, 
			 "cosmo_dispersion_energy": -25.51, 
			 "cosmo_repulsion_energy": 1.93, 
			 "cosmo_total_nonelectrostatic_energy": 11.65, 
			 "SMD_solvation_energy": 4.51 
		},
		"coords": [
			{
				"x": -2.7412822345,
				"y": -1.0698971994,
				"z": -1.851772774,
				"element": "C" 
			},
			{
				"x": -1.9580112212,
				"y": 0.0208323578,
				"z": -1.105798347,
				"element": "C" 
			},
			{
				"x": -0.5581595223,
				"y": 0.2165306264,
				"z": -1.721922567,
				"element": "C" 
			},
			{
				"x": 0.0353704242,
				"y": 1.5488148184,
				"z": -1.2119114888,
				"element": "C" 
			},
			{
				"x": -0.2251616637,
				"y": 1.8348614339,
				"z": 0.2557713773,
				"element": "C" 
			},
			{
				"x": 0.4106065428,
				"y": 2.9313790745,
				"z": 0.8506210905,
				"element": "C" 
			},
			{
				"x": 0.2089944491,
				"y": 3.2685196687,
				"z": 2.1854888442,
				"element": "C" 
			},
			{
				"x": -0.6536888399,
				"y": 2.4848155552,
				"z": 2.9548832248,
				"element": "C" 
			},
			{
				"x": -0.9091017915,
				"y": 2.7395248448,
				"z": 4.2765100572,
				"element": "O" 
			},
			{
				"x": -1.2966503811,
				"y": 1.3887475463,
				"z": 2.3785208894,
				"element": "C" 
			},
			{
				"x": -1.1034841581,
				"y": 1.0490581056,
				"z": 1.0326993621,
				"element": "C" 
			},
			{
				"x": -1.7848545706,
				"y": -0.1975747552,
				"z": 0.4321918098,
				"element": "C" 
			},
			{
				"x": -3.1454850923,
				"y": -0.4725929093,
				"z": 1.0983256107,
				"element": "C" 
			},
			{
				"x": -0.8553037648,
				"y": -1.4239725511,
				"z": 0.6587148955,
				"element": "C" 
			},
			{
				"x": 0.4759187458,
				"y": -1.3085521815,
				"z": -0.0874560298,
				"element": "C" 
			},
			{
				"x": 0.2556022171,
				"y": -0.9900845447,
				"z": -1.4973007263,
				"element": "N" 
			},
			{
				"x": 1.4829365579,
				"y": -1.028671142,
				"z": -2.2724111777,
				"element": "C" 
			},
			{
				"x": -3.76654987,
				"y": -1.1694143718,
				"z": -1.486030067,
				"element": "H" 
			},
			{
				"x": -2.2474490972,
				"y": -2.0420239719,
				"z": -1.7859348765,
				"element": "H" 
			},
			{
				"x": -2.8018042009,
				"y": -0.8103872599,
				"z": -2.9147376975,
				"element": "H" 
			},
			{
				"x": -2.5038083436,
				"y": 0.9666162779,
				"z": -1.2356219867,
				"element": "H" 
			},
			{
				"x": -0.6657618518,
				"y": 0.299306763,
				"z": -2.8111629157,
				"element": "H" 
			},
			{
				"x": 1.113440655,
				"y": 1.5867502527,
				"z": -1.412393148,
				"element": "H" 
			},
			{
				"x": -0.4012714793,
				"y": 2.3596971025,
				"z": -1.8127938438,
				"element": "H" 
			},
			{
				"x": 1.0849531669,
				"y": 3.5377152152,
				"z": 0.2496020862,
				"element": "H" 
			},
			{
				"x": 0.717158612,
				"y": 4.125752894,
				"z": 2.6226118845,
				"element": "H" 
			},
			{
				"x": -0.4073063902,
				"y": 3.5189938771,
				"z": 4.5471648898,
				"element": "H" 
			},
			{
				"x": -1.9539149607,
				"y": 0.81166963,
				"z": 3.0174466544,
				"element": "H" 
			},
			{
				"x": -3.8245898549,
				"y": 0.3796695376,
				"z": 0.9871001709,
				"element": "H" 
			},
			{
				"x": -3.0405272325,
				"y": -0.6826548961,
				"z": 2.166209416,
				"element": "H" 
			},
			{
				"x": -3.6222579701,
				"y": -1.349726073,
				"z": 0.6543089666,
				"element": "H" 
			},
			{
				"x": -0.6628569533,
				"y": -1.5405261452,
				"z": 1.7316281561,
				"element": "H" 
			},
			{
				"x": -1.3752749565,
				"y": -2.3294693144,
				"z": 0.324892201,
				"element": "H" 
			},
			{
				"x": 1.0046819937,
				"y": -2.2687624493,
				"z": -0.0375362862,
				"element": "H" 
			},
			{
				"x": 1.1280713313,
				"y": -0.5683314492,
				"z": 0.4127298449,
				"element": "H" 
			},
			{
				"x": 2.2514667412,
				"y": -0.2997639561,
				"z": -1.9510787368,
				"element": "H" 
			},
			{
				"x": 1.9304951584,
				"y": -2.0261883,
				"z": -2.1970224367,
				"element": "H" 
			},
			{
				"x": 1.2618598058,
				"y": -0.8383621115,
				"z": -3.3282363261,
				"element": "H" 
			}
		],
		 "valence_orbital": [ 
			{
				"type": "occ",
				"energy": -0.29645,
				"method": "rhf"
			},
			{
				"type": "occ",
				"energy": -0.28759,
				"method": "rhf"
			},
			{
				"type": "occ",
				"energy": -0.23765,
				"method": "rhf"
			},
			{
				"type": "occ",
				"energy": -0.20953,
				"method": "rhf"
			},
			{
				"type": "occ",
				"energy": -0.19674,
				"method": "rhf"
			},
			{
				"type": "unocc",
				"energy": 0.00281,
				"method": "rhf"
			},
			{
				"type": "unocc",
				"energy": 0.01983,
				"method": "rhf"
			},
			{
				"type": "unocc",
				"energy": 0.07566,
				"method": "rhf"
			},
			{
				"type": "unocc",
				"energy": 0.08095,
				"method": "rhf"
			},
			{
				"type": "unocc",
				"energy": 0.09855,
				"method": "rhf"
			}
		],
		"cosmo_sigma_profile": { 
			"-0.025": 0.0,
			"-0.024": 0.0,
			"-0.023": 0.0,
			"-0.022": 0.0,
			"-0.021": 0.0,
			"-0.02": 0.0,
			"-0.019": 0.0,
			"-0.018": 0.0,
			"-0.017": 1.13484164889,
			"-0.016": 0.753208643655,
			"-0.015": 1.00296546271,
			"-0.014": 1.17282208977,
			"-0.013": 0.930314720106,
			"-0.012": 1.25635900093,
			"-0.011": 0.738111827665,
			"-0.01": 0.387019039586,
			"-0.009": 1.31732749707,
			"-0.008": 1.36005012179,
			"-0.007": 1.1217260512,
			"-0.006": 2.27017283226,
			"-0.005": 4.824132586,
			"-0.004": 7.29107190491,
			"-0.003": 25.94302211,
			"-0.002": 41.6566534552,
			"-0.001": 40.2880239292,
			"0.0": 40.5993647074,
			"0.001": 27.9392085997,
			"0.002": 14.4700024663,
			"0.003": 9.63113862074,
			"0.004": 8.70752654564,
			"0.005": 9.8110048732,
			"0.006": 9.92159876575,
			"0.007": 5.95632221331,
			"0.008": 2.42407141067,
			"0.009": 1.94648475448,
			"0.01": 2.37765355391,
			"0.011": 2.5293719081,
			"0.012": 2.61778805973,
			"0.013": 0.557403624098,
			"0.014": 0.0,
			"0.015": 0.0,
			"0.016": 0.0,
			"0.017": 0.0,
			"0.018": 0.0,
			"0.019": 0.0,
			"0.02": 0.0,
			"0.021": 0.0,
			"0.022": 0.0,
			"0.023": 0.0,
			"0.024": 0.0,
			"0.025": 0.0
		}
	}
}
