{
	 "smiles": "CN1C=C(Br)C(CO)=N1", 
	 "Tm": 367.65, 
	 "num_atms": 16, 
	 "gaussian": { 
		 "optdone": 1, 
		 "sigma_profile": "yes", 
		 "theory": "DFT", 
		 "functional": "B3LYP", 
		 "basiset": "6-31G**", 
		 "properties": { 
			 "R2extent": 2383.7613, 
			 "electric_dipole_moment_norm": 4.53093973034, 
			 "electric_quadrupole_moment_norm": 8.57455042495, 
			 "total_energy": -2950.84386655, 
			 "HOMO_LUMO_gap": 0.23673, 
			 "cosmo_polarized_energy": -9.51, 
			 "cosmo_cavitation_energy": 22.23, 
			 "cosmo_dispersion_energy": -17.02, 
			 "cosmo_repulsion_energy": 1.42, 
			 "cosmo_total_nonelectrostatic_energy": 6.64, 
			 "SMD_solvation_energy": 2.45 
		},
		"coords": [
			{
				"x": 0.2588002882,
				"y": -1.0490191608,
				"z": 2.5756296667,
				"element": "C" 
			},
			{
				"x": 0.419917033,
				"y": -0.6310230131,
				"z": 1.1955298655,
				"element": "N" 
			},
			{
				"x": 1.5666139033,
				"y": -0.527671849,
				"z": 0.4766457711,
				"element": "C" 
			},
			{
				"x": 1.1944661748,
				"y": -0.0910155777,
				"z": -0.78064011,
				"element": "C" 
			},
			{
				"x": 2.3295763258,
				"y": 0.248864248,
				"z": -2.2452882781,
				"element": "Br" 
			},
			{
				"x": -0.2095901185,
				"y": 0.0465740245,
				"z": -0.7380544728,
				"element": "C" 
			},
			{
				"x": -1.1794100607,
				"y": 0.485749547,
				"z": -1.7997640702,
				"element": "C" 
			},
			{
				"x": -2.5140543237,
				"y": 0.4843143565,
				"z": -1.3397215616,
				"element": "O" 
			},
			{
				"x": -0.6653216976,
				"y": -0.2851508768,
				"z": 0.4693155504,
				"element": "N" 
			},
			{
				"x": -0.3786623203,
				"y": -1.9354734472,
				"z": 2.6280799944,
				"element": "H" 
			},
			{
				"x": -0.1970292457,
				"y": -0.2461653316,
				"z": 3.1609089656,
				"element": "H" 
			},
			{
				"x": 1.2404441562,
				"y": -1.2849339227,
				"z": 2.9889449028,
				"element": "H" 
			},
			{
				"x": 2.5360398633,
				"y": -0.7621704775,
				"z": 0.8893318402,
				"element": "H" 
			},
			{
				"x": -1.0807923277,
				"y": -0.1779990193,
				"z": -2.6729464448,
				"element": "H" 
			},
			{
				"x": -0.9009027191,
				"y": 1.4934044342,
				"z": -2.1458897712,
				"element": "H" 
			},
			{
				"x": -2.4930949313,
				"y": 0.1910160653,
				"z": -0.416481848,
				"element": "H" 
			}
		],
		 "valence_orbital": [ 
			{
				"type": "occ",
				"energy": -0.3151,
				"method": "rhf"
			},
			{
				"type": "occ",
				"energy": -0.28819,
				"method": "rhf"
			},
			{
				"type": "occ",
				"energy": -0.26999,
				"method": "rhf"
			},
			{
				"type": "occ",
				"energy": -0.25435,
				"method": "rhf"
			},
			{
				"type": "occ",
				"energy": -0.23503,
				"method": "rhf"
			},
			{
				"type": "unocc",
				"energy": 0.0017,
				"method": "rhf"
			},
			{
				"type": "unocc",
				"energy": 0.01277,
				"method": "rhf"
			},
			{
				"type": "unocc",
				"energy": 0.05118,
				"method": "rhf"
			},
			{
				"type": "unocc",
				"energy": 0.08488,
				"method": "rhf"
			},
			{
				"type": "unocc",
				"energy": 0.10578,
				"method": "rhf"
			}
		],
		"cosmo_sigma_profile": { 
			"-0.025": 0.0,
			"-0.024": 0.0,
			"-0.023": 0.0,
			"-0.022": 0.0,
			"-0.021": 0.0,
			"-0.02": 0.0,
			"-0.019": 0.0,
			"-0.018": 0.0,
			"-0.017": 0.0,
			"-0.016": 0.0,
			"-0.015": 0.0,
			"-0.014": 0.0,
			"-0.013": 0.0,
			"-0.012": 0.0,
			"-0.011": 0.0369011500098,
			"-0.01": 2.84135396165,
			"-0.009": 2.96629490889,
			"-0.008": 3.52233323692,
			"-0.007": 5.16543887564,
			"-0.006": 7.71047903174,
			"-0.005": 11.169692373,
			"-0.004": 15.8970874222,
			"-0.003": 16.2370699391,
			"-0.002": 11.9116208615,
			"-0.001": 9.94541913563,
			"0.0": 9.12453025,
			"0.001": 12.7277598218,
			"0.002": 14.0361337666,
			"0.003": 16.9072841326,
			"0.004": 14.1619851672,
			"0.005": 7.47770538095,
			"0.006": 1.70177775318,
			"0.007": 2.79101266868,
			"0.008": 2.98076244042,
			"0.009": 1.97168757205,
			"0.01": 1.59821254413,
			"0.011": 1.02831427809,
			"0.012": 1.20671819318,
			"0.013": 2.16979101688,
			"0.014": 2.27950408292,
			"0.015": 0.437628150009,
			"0.016": 0.0,
			"0.017": 0.0,
			"0.018": 0.0,
			"0.019": 0.0,
			"0.02": 0.0,
			"0.021": 0.0,
			"0.022": 0.0,
			"0.023": 0.0,
			"0.024": 0.0,
			"0.025": 0.0
		}
	}
}
