{
	 "smiles": "CC1=C(C)N=C2C=CC=CC2=N1", 
	 "Tm": 378.15, 
	 "num_atms": 22, 
	 "gaussian": { 
		 "optdone": 1, 
		 "sigma_profile": "yes", 
		 "theory": "DFT", 
		 "functional": "B3LYP", 
		 "basiset": "6-31G**", 
		 "properties": { 
			 "R2extent": 2610.2421, 
			 "electric_dipole_moment_norm": 0.607376349556, 
			 "electric_quadrupole_moment_norm": 11.6390447787, 
			 "total_energy": -496.612100538, 
			 "HOMO_LUMO_gap": 0.1784, 
			 "cosmo_polarized_energy": -7.29, 
			 "cosmo_cavitation_energy": 25.43, 
			 "cosmo_dispersion_energy": -18.99, 
			 "cosmo_repulsion_energy": 1.5, 
			 "cosmo_total_nonelectrostatic_energy": 7.93, 
			 "SMD_solvation_energy": 1.45 
		},
		"coords": [
			{
				"x": -1.1699405431,
				"y": -2.4437821904,
				"z": -1.0076869681,
				"element": "C" 
			},
			{
				"x": -1.1625377463,
				"y": -1.0402402852,
				"z": -0.4598662593,
				"element": "C" 
			},
			{
				"x": -1.1561232031,
				"y": -0.7995962063,
				"z": 0.9642988248,
				"element": "C" 
			},
			{
				"x": -1.156657412,
				"y": -1.9452814436,
				"z": 1.9428326309,
				"element": "C" 
			},
			{
				"x": -1.1496228829,
				"y": 0.4222461511,
				"z": 1.4563249428,
				"element": "N" 
			},
			{
				"x": -1.1491345887,
				"y": 1.4625471292,
				"z": 0.5722554972,
				"element": "C" 
			},
			{
				"x": -1.1422495806,
				"y": 2.7956167674,
				"z": 1.0547932241,
				"element": "C" 
			},
			{
				"x": -1.1417337889,
				"y": 3.848371391,
				"z": 0.1655253396,
				"element": "C" 
			},
			{
				"x": -1.148040612,
				"y": 3.6121058003,
				"z": -1.2326425188,
				"element": "C" 
			},
			{
				"x": -1.1547973662,
				"y": 2.3256312895,
				"z": -1.726619155,
				"element": "C" 
			},
			{
				"x": -1.1554731988,
				"y": 1.2251096613,
				"z": -0.8328532987,
				"element": "C" 
			},
			{
				"x": -1.1621653114,
				"y": -0.0478760197,
				"z": -1.3260351098,
				"element": "N" 
			},
			{
				"x": -2.0511084556,
				"y": -3.0021076261,
				"z": -0.6697289295,
				"element": "H" 
			},
			{
				"x": -1.1739909339,
				"y": -2.4036781057,
				"z": -2.0977103668,
				"element": "H" 
			},
			{
				"x": -0.2904276903,
				"y": -3.0087455509,
				"z": -0.6765170494,
				"element": "H" 
			},
			{
				"x": -1.1512795008,
				"y": -1.5493357119,
				"z": 2.9591848373,
				"element": "H" 
			},
			{
				"x": -0.2792167263,
				"y": -2.5889466417,
				"z": 1.8079554876,
				"element": "H" 
			},
			{
				"x": -2.0398961423,
				"y": -2.5823605496,
				"z": 1.8147042478,
				"element": "H" 
			},
			{
				"x": -1.1375173237,
				"y": 2.9482011115,
				"z": 2.1294093064,
				"element": "H" 
			},
			{
				"x": -1.1364676642,
				"y": 4.8703441675,
				"z": 0.5332996078,
				"element": "H" 
			},
			{
				"x": -1.1475113468,
				"y": 4.4564939062,
				"z": -1.9158141613,
				"element": "H" 
			},
			{
				"x": -1.1597079821,
				"y": 2.1166829562,
				"z": -2.7917101295,
				"element": "H" 
			}
		],
		 "valence_orbital": [ 
			{
				"type": "occ",
				"energy": -0.32677,
				"method": "rhf"
			},
			{
				"type": "occ",
				"energy": -0.29497,
				"method": "rhf"
			},
			{
				"type": "occ",
				"energy": -0.24492,
				"method": "rhf"
			},
			{
				"type": "occ",
				"energy": -0.23876,
				"method": "rhf"
			},
			{
				"type": "occ",
				"energy": -0.23755,
				"method": "rhf"
			},
			{
				"type": "unocc",
				"energy": -0.05915,
				"method": "rhf"
			},
			{
				"type": "unocc",
				"energy": -0.01726,
				"method": "rhf"
			},
			{
				"type": "unocc",
				"energy": 0.01643,
				"method": "rhf"
			},
			{
				"type": "unocc",
				"energy": 0.0809,
				"method": "rhf"
			},
			{
				"type": "unocc",
				"energy": 0.0903,
				"method": "rhf"
			}
		],
		"cosmo_sigma_profile": { 
			"-0.025": 0.0,
			"-0.024": 0.0,
			"-0.023": 0.0,
			"-0.022": 0.0,
			"-0.021": 0.0,
			"-0.02": 0.0,
			"-0.019": 0.0,
			"-0.018": 0.0,
			"-0.017": 0.0,
			"-0.016": 0.0,
			"-0.015": 0.0,
			"-0.014": 0.0,
			"-0.013": 0.0,
			"-0.012": 0.0,
			"-0.011": 0.0,
			"-0.01": 0.0,
			"-0.009": 0.0,
			"-0.008": 0.0,
			"-0.007": 0.646097530844,
			"-0.006": 9.72315226839,
			"-0.005": 19.1123160829,
			"-0.004": 17.6676112944,
			"-0.003": 17.6584721052,
			"-0.002": 19.1060289651,
			"-0.001": 22.2549497294,
			"0.0": 16.6351614455,
			"0.001": 12.5915095516,
			"0.002": 15.5182398287,
			"0.003": 15.3156596924,
			"0.004": 13.4650979805,
			"0.005": 4.76370367443,
			"0.006": 3.08073138681,
			"0.007": 2.61303218957,
			"0.008": 1.16983099938,
			"0.009": 3.08888701478,
			"0.01": 2.12399982171,
			"0.011": 1.41241187682,
			"0.012": 1.93729077639,
			"0.013": 0.874211229493,
			"0.014": 1.43806480545,
			"0.015": 0.622322312243,
			"0.016": 0.0,
			"0.017": 0.0,
			"0.018": 0.0,
			"0.019": 0.0,
			"0.02": 0.0,
			"0.021": 0.0,
			"0.022": 0.0,
			"0.023": 0.0,
			"0.024": 0.0,
			"0.025": 0.0
		}
	}
}
