{
	 "smiles": "CC(=O)NCCC(O)=O", 
	 "Tm": 350.15, 
	 "num_atms": 18, 
	 "gaussian": { 
		 "optdone": 1, 
		 "sigma_profile": "yes", 
		 "theory": "DFT", 
		 "functional": "B3LYP", 
		 "basiset": "6-31G**", 
		 "properties": { 
			 "R2extent": 2206.707, 
			 "electric_dipole_moment_norm": 4.78574421172, 
			 "electric_quadrupole_moment_norm": 13.9813693403, 
			 "total_energy": -476.407149447, 
			 "HOMO_LUMO_gap": 0.26266, 
			 "cosmo_polarized_energy": -21.04, 
			 "cosmo_cavitation_energy": 22.35, 
			 "cosmo_dispersion_energy": -16.26, 
			 "cosmo_repulsion_energy": 1.38, 
			 "cosmo_total_nonelectrostatic_energy": 7.48, 
			 "SMD_solvation_energy": 5.32 
		},
		"coords": [
			{
				"x": -0.4817672666,
				"y": 3.7184048777,
				"z": 1.0231128317,
				"element": "C" 
			},
			{
				"x": -0.7246569107,
				"y": 2.5670552687,
				"z": 0.0593965848,
				"element": "C" 
			},
			{
				"x": -1.367003238,
				"y": 2.7071743818,
				"z": -0.9764628181,
				"element": "O" 
			},
			{
				"x": -0.1793080555,
				"y": 1.3653953807,
				"z": 0.4154248884,
				"element": "N" 
			},
			{
				"x": -0.2553630985,
				"y": 0.2042273455,
				"z": -0.4619939602,
				"element": "C" 
			},
			{
				"x": -1.6738561751,
				"y": -0.3696344845,
				"z": -0.5606218693,
				"element": "C" 
			},
			{
				"x": -1.699236552,
				"y": -1.6732960472,
				"z": -1.3433635057,
				"element": "C" 
			},
			{
				"x": -2.9340671824,
				"y": -2.125978354,
				"z": -1.6880813052,
				"element": "O" 
			},
			{
				"x": -0.7176859631,
				"y": -2.3097604569,
				"z": -1.6388444296,
				"element": "O" 
			},
			{
				"x": 0.0175388961,
				"y": 3.4228017989,
				"z": 1.9501142063,
				"element": "H" 
			},
			{
				"x": -1.4409717613,
				"y": 4.182545048,
				"z": 1.2651715935,
				"element": "H" 
			},
			{
				"x": 0.127610889,
				"y": 4.4747751466,
				"z": 0.5198220371,
				"element": "H" 
			},
			{
				"x": 0.3670946312,
				"y": 1.3009835256,
				"z": 1.2597894991,
				"element": "H" 
			},
			{
				"x": 0.0833977065,
				"y": 0.4854411254,
				"z": -1.4638781317,
				"element": "H" 
			},
			{
				"x": 0.4268080093,
				"y": -0.5610647541,
				"z": -0.0877596677,
				"element": "H" 
			},
			{
				"x": -2.3269430186,
				"y": 0.3756453694,
				"z": -1.0274578677,
				"element": "H" 
			},
			{
				"x": -2.0748882307,
				"y": -0.5652456647,
				"z": 0.4434811796,
				"element": "H" 
			},
			{
				"x": -3.6097026795,
				"y": -1.4896695068,
				"z": -1.4134492653,
				"element": "H" 
			}
		],
		 "valence_orbital": [ 
			{
				"type": "occ",
				"energy": -0.35042,
				"method": "rhf"
			},
			{
				"type": "occ",
				"energy": -0.31614,
				"method": "rhf"
			},
			{
				"type": "occ",
				"energy": -0.27457,
				"method": "rhf"
			},
			{
				"type": "occ",
				"energy": -0.25967,
				"method": "rhf"
			},
			{
				"type": "occ",
				"energy": -0.25259,
				"method": "rhf"
			},
			{
				"type": "unocc",
				"energy": 0.01007,
				"method": "rhf"
			},
			{
				"type": "unocc",
				"energy": 0.02178,
				"method": "rhf"
			},
			{
				"type": "unocc",
				"energy": 0.05821,
				"method": "rhf"
			},
			{
				"type": "unocc",
				"energy": 0.06204,
				"method": "rhf"
			},
			{
				"type": "unocc",
				"energy": 0.11429,
				"method": "rhf"
			}
		],
		"cosmo_sigma_profile": { 
			"-0.025": 0.0,
			"-0.024": 0.0,
			"-0.023": 0.0,
			"-0.022": 0.0,
			"-0.021": 0.0,
			"-0.02": 0.0,
			"-0.019": 0.48161454616,
			"-0.018": 1.33358452254,
			"-0.017": 0.771588695915,
			"-0.016": 1.15916804408,
			"-0.015": 1.5589093663,
			"-0.014": 2.34779187061,
			"-0.013": 2.32053014582,
			"-0.012": 2.3140179493,
			"-0.011": 2.30098669711,
			"-0.01": 2.61266896066,
			"-0.009": 2.97791133746,
			"-0.008": 3.57990677245,
			"-0.007": 5.66004803642,
			"-0.006": 7.5001497392,
			"-0.005": 11.5981486105,
			"-0.004": 11.7647731929,
			"-0.003": 12.2425992655,
			"-0.002": 11.6366523424,
			"-0.001": 13.9513830843,
			"0.0": 7.96381715587,
			"0.001": 6.79946539567,
			"0.002": 5.16614768039,
			"0.003": 3.05952110194,
			"0.004": 3.58025605489,
			"0.005": 4.1930734583,
			"0.006": 3.49445571614,
			"0.007": 3.65378451816,
			"0.008": 4.35397606293,
			"0.009": 4.42298190444,
			"0.01": 6.09256076449,
			"0.011": 6.88392798483,
			"0.012": 6.81581734582,
			"0.013": 3.73324518898,
			"0.014": 4.31521156241,
			"0.015": 2.19950317436,
			"0.016": 0.273623236762,
			"0.017": 0.0,
			"0.018": 0.0,
			"0.019": 0.0,
			"0.02": 0.0,
			"0.021": 0.0,
			"0.022": 0.0,
			"0.023": 0.0,
			"0.024": 0.0,
			"0.025": 0.0
		}
	}
}
