{
	 "smiles": "CC(NC(=O)CCl)C1=CC=CO1", 
	 "Tm": 337.15, 
	 "num_atms": 22, 
	 "gaussian": { 
		 "optdone": 1, 
		 "sigma_profile": "yes", 
		 "theory": "DFT", 
		 "functional": "B3LYP", 
		 "basiset": "6-31G**", 
		 "properties": { 
			 "R2extent": 3269.6611, 
			 "electric_dipole_moment_norm": 5.78094483368, 
			 "electric_quadrupole_moment_norm": 24.583588078, 
			 "total_energy": -976.248090527, 
			 "HOMO_LUMO_gap": 0.22881, 
			 "cosmo_polarized_energy": -16.21, 
			 "cosmo_cavitation_energy": 27.48, 
			 "cosmo_dispersion_energy": -19.4, 
			 "cosmo_repulsion_energy": 1.58, 
			 "cosmo_total_nonelectrostatic_energy": 9.65, 
			 "SMD_solvation_energy": 5.72 
		},
		"coords": [
			{
				"x": -0.9715802313,
				"y": 0.6938462152,
				"z": -2.0958313071,
				"element": "C" 
			},
			{
				"x": 0.4449949929,
				"y": 0.1017409901,
				"z": -2.1261316298,
				"element": "C" 
			},
			{
				"x": 0.4755929475,
				"y": -1.3348929967,
				"z": -2.4592677636,
				"element": "N" 
			},
			{
				"x": 0.1141604345,
				"y": -2.4516924501,
				"z": -1.7372653164,
				"element": "C" 
			},
			{
				"x": 0.4057881106,
				"y": -3.5680675617,
				"z": -2.1261527906,
				"element": "O" 
			},
			{
				"x": -0.7244933975,
				"y": -2.1959834381,
				"z": -0.4789028784,
				"element": "C" 
			},
			{
				"x": -0.8304752173,
				"y": -3.640786727,
				"z": 0.575413263,
				"element": "Cl" 
			},
			{
				"x": 1.2276588509,
				"y": 0.4426011074,
				"z": -0.8873618693,
				"element": "C" 
			},
			{
				"x": 0.9503395121,
				"y": 1.1409639653,
				"z": 0.2539096735,
				"element": "C" 
			},
			{
				"x": 2.1545277581,
				"y": 1.144686882,
				"z": 1.0345607868,
				"element": "C" 
			},
			{
				"x": 3.0728847507,
				"y": 0.4504147909,
				"z": 0.3109238561,
				"element": "C" 
			},
			{
				"x": 2.5281070758,
				"y": 0.0187239503,
				"z": -0.8626112459,
				"element": "O" 
			},
			{
				"x": -0.9226898779,
				"y": 1.7847663424,
				"z": -2.0341085606,
				"element": "H" 
			},
			{
				"x": -1.5513044736,
				"y": 0.3364682577,
				"z": -1.2408855822,
				"element": "H" 
			},
			{
				"x": -1.5035889618,
				"y": 0.4202855315,
				"z": -3.009859337,
				"element": "H" 
			},
			{
				"x": 0.9660751253,
				"y": 0.5669841783,
				"z": -2.9721632126,
				"element": "H" 
			},
			{
				"x": 1.0435655616,
				"y": -1.5944701761,
				"z": -3.2550634743,
				"element": "H" 
			},
			{
				"x": -0.3123215423,
				"y": -1.3803756278,
				"z": 0.1161602203,
				"element": "H" 
			},
			{
				"x": -1.743537452,
				"y": -1.9358691204,
				"z": -0.7747359323,
				"element": "H" 
			},
			{
				"x": 0.0088948296,
				"y": 1.6040716309,
				"z": 0.5114629465,
				"element": "H" 
			},
			{
				"x": 2.3054856659,
				"y": 1.5998564368,
				"z": 2.0025624381,
				"element": "H" 
			},
			{
				"x": 4.1034155382,
				"y": 0.1783278193,
				"z": 0.4781477156,
				"element": "H" 
			}
		],
		 "valence_orbital": [ 
			{
				"type": "occ",
				"energy": -0.293,
				"method": "rhf"
			},
			{
				"type": "occ",
				"energy": -0.28765,
				"method": "rhf"
			},
			{
				"type": "occ",
				"energy": -0.26639,
				"method": "rhf"
			},
			{
				"type": "occ",
				"energy": -0.25523,
				"method": "rhf"
			},
			{
				"type": "occ",
				"energy": -0.23541,
				"method": "rhf"
			},
			{
				"type": "unocc",
				"energy": -0.0066,
				"method": "rhf"
			},
			{
				"type": "unocc",
				"energy": 0.01482,
				"method": "rhf"
			},
			{
				"type": "unocc",
				"energy": 0.03051,
				"method": "rhf"
			},
			{
				"type": "unocc",
				"energy": 0.05487,
				"method": "rhf"
			},
			{
				"type": "unocc",
				"energy": 0.08271,
				"method": "rhf"
			}
		],
		"cosmo_sigma_profile": { 
			"-0.025": 0.0,
			"-0.024": 0.0,
			"-0.023": 0.0,
			"-0.022": 0.0,
			"-0.021": 0.0,
			"-0.02": 0.0,
			"-0.019": 0.0,
			"-0.018": 0.0,
			"-0.017": 0.0,
			"-0.016": 0.0,
			"-0.015": 0.0,
			"-0.014": 0.964301692023,
			"-0.013": 1.33825356622,
			"-0.012": 1.04550773425,
			"-0.011": 1.28338539906,
			"-0.01": 1.01886506182,
			"-0.009": 3.52613992239,
			"-0.008": 6.46930757313,
			"-0.007": 10.3279400086,
			"-0.006": 10.0763345531,
			"-0.005": 13.3031856292,
			"-0.004": 18.5673166559,
			"-0.003": 16.5689300475,
			"-0.002": 13.2012590388,
			"-0.001": 14.9982079533,
			"0.0": 12.1971235085,
			"0.001": 10.3229549905,
			"0.002": 11.8553771926,
			"0.003": 13.255243322,
			"0.004": 11.6278397612,
			"0.005": 11.9389353444,
			"0.006": 10.9798007805,
			"0.007": 4.10370681894,
			"0.008": 2.77755701613,
			"0.009": 2.4677012213,
			"0.01": 1.91132744091,
			"0.011": 1.58393666902,
			"0.012": 3.33225496654,
			"0.013": 5.97738564153,
			"0.014": 2.70885257339,
			"0.015": 0.35163138725,
			"0.016": 0.0,
			"0.017": 0.0,
			"0.018": 0.0,
			"0.019": 0.0,
			"0.02": 0.0,
			"0.021": 0.0,
			"0.022": 0.0,
			"0.023": 0.0,
			"0.024": 0.0,
			"0.025": 0.0
		}
	}
}
