{
	 "smiles": "CC(C)OC(=O)CCCCC(=O)OC(C)C", 
	 "Tm": 272.05, 
	 "num_atms": 38, 
	 "gaussian": { 
		 "optdone": 1, 
		 "sigma_profile": "yes", 
		 "theory": "DFT", 
		 "functional": "B3LYP", 
		 "basiset": "6-31G**", 
		 "properties": { 
			 "R2extent": 7058.8585, 
			 "electric_dipole_moment_norm": 0.781223533952, 
			 "electric_quadrupole_moment_norm": 14.493568139, 
			 "total_energy": -771.493132581, 
			 "HOMO_LUMO_gap": 0.27625, 
			 "cosmo_polarized_energy": -10.55, 
			 "cosmo_cavitation_energy": 40.3, 
			 "cosmo_dispersion_energy": -27.22, 
			 "cosmo_repulsion_energy": 2.21, 
			 "cosmo_total_nonelectrostatic_energy": 15.29, 
			 "SMD_solvation_energy": 8.27 
		},
		"coords": [
			{
				"x": -4.5739266437,
				"y": -2.8655964845,
				"z": -2.4034183415,
				"element": "C" 
			},
			{
				"x": -4.425391456,
				"y": -2.2780439654,
				"z": -1.0069253187,
				"element": "C" 
			},
			{
				"x": -5.0701226052,
				"y": -3.1272704132,
				"z": 0.0840140166,
				"element": "C" 
			},
			{
				"x": -2.9910160183,
				"y": -2.1826743847,
				"z": -0.7633556391,
				"element": "O" 
			},
			{
				"x": -2.5697386179,
				"y": -1.2356040591,
				"z": 0.1033837515,
				"element": "C" 
			},
			{
				"x": -3.3128546367,
				"y": -0.4617424512,
				"z": 0.6748409298,
				"element": "O" 
			},
			{
				"x": -1.0635799921,
				"y": -1.2937107356,
				"z": 0.2728512714,
				"element": "C" 
			},
			{
				"x": -0.4761808811,
				"y": -0.1036463556,
				"z": 1.0399334801,
				"element": "C" 
			},
			{
				"x": -0.6360337785,
				"y": 1.2669441467,
				"z": 0.3592253829,
				"element": "C" 
			},
			{
				"x": -0.0671511663,
				"y": 1.3725325329,
				"z": -1.0759678794,
				"element": "C" 
			},
			{
				"x": 1.3980670344,
				"y": 0.9984929744,
				"z": -1.1427258237,
				"element": "C" 
			},
			{
				"x": 1.8153844714,
				"y": -0.1280166429,
				"z": -1.3332003565,
				"element": "O" 
			},
			{
				"x": 2.1911055225,
				"y": 2.0702950012,
				"z": -0.9237591739,
				"element": "O" 
			},
			{
				"x": 3.6327283815,
				"y": 1.8477914342,
				"z": -0.9177592028,
				"element": "C" 
			},
			{
				"x": 4.2611353582,
				"y": 3.1672158496,
				"z": -1.3438430116,
				"element": "C" 
			},
			{
				"x": 4.0684080898,
				"y": 1.3837761878,
				"z": 0.4683485847,
				"element": "C" 
			},
			{
				"x": -4.077945653,
				"y": -2.2344114124,
				"z": -3.1460645275,
				"element": "H" 
			},
			{
				"x": -4.1328028605,
				"y": -3.8662423561,
				"z": -2.4528479808,
				"element": "H" 
			},
			{
				"x": -5.6331473462,
				"y": -2.9429617176,
				"z": -2.6679752677,
				"element": "H" 
			},
			{
				"x": -4.8315379929,
				"y": -1.2629862011,
				"z": -0.967932833,
				"element": "H" 
			},
			{
				"x": -6.1446766346,
				"y": -3.2272055788,
				"z": -0.1011888767,
				"element": "H" 
			},
			{
				"x": -4.934834121,
				"y": -2.6607128038,
				"z": 1.0626066425,
				"element": "H" 
			},
			{
				"x": -4.629525652,
				"y": -4.1294706269,
				"z": 0.1026995352,
				"element": "H" 
			},
			{
				"x": -0.8444927989,
				"y": -2.2263292445,
				"z": 0.8095460484,
				"element": "H" 
			},
			{
				"x": -0.5931638543,
				"y": -1.4124079435,
				"z": -0.7080437962,
				"element": "H" 
			},
			{
				"x": -0.9505138122,
				"y": -0.0467257555,
				"z": 2.0255411832,
				"element": "H" 
			},
			{
				"x": 0.5861096627,
				"y": -0.3117967064,
				"z": 1.2095563602,
				"element": "H" 
			},
			{
				"x": -1.6987237381,
				"y": 1.5236320659,
				"z": 0.3199207261,
				"element": "H" 
			},
			{
				"x": -0.1490665998,
				"y": 2.0255046995,
				"z": 0.983307457,
				"element": "H" 
			},
			{
				"x": -0.6034556742,
				"y": 0.7004566315,
				"z": -1.7512930377,
				"element": "H" 
			},
			{
				"x": -0.1976428209,
				"y": 2.3967659568,
				"z": -1.4363797571,
				"element": "H" 
			},
			{
				"x": 3.8439103488,
				"y": 1.062833657,
				"z": -1.6497512202,
				"element": "H" 
			},
			{
				"x": 3.9014960815,
				"y": 3.4681851755,
				"z": -2.3317375505,
				"element": "H" 
			},
			{
				"x": 4.017410591,
				"y": 3.96201212,
				"z": -0.6315761893,
				"element": "H" 
			},
			{
				"x": 5.3501418625,
				"y": 3.0676015677,
				"z": -1.388603153,
				"element": "H" 
			},
			{
				"x": 3.8004058553,
				"y": 2.1275758883,
				"z": 1.2258410293,
				"element": "H" 
			},
			{
				"x": 3.5948392562,
				"y": 0.4319801021,
				"z": 0.7203119272,
				"element": "H" 
			},
			{
				"x": 5.1537828384,
				"y": 1.241859848,
				"z": 0.4945206107,
				"element": "H" 
			}
		],
		 "valence_orbital": [ 
			{
				"type": "occ",
				"energy": -0.3247,
				"method": "rhf"
			},
			{
				"type": "occ",
				"energy": -0.29322,
				"method": "rhf"
			},
			{
				"type": "occ",
				"energy": -0.29113,
				"method": "rhf"
			},
			{
				"type": "occ",
				"energy": -0.26418,
				"method": "rhf"
			},
			{
				"type": "occ",
				"energy": -0.26217,
				"method": "rhf"
			},
			{
				"type": "unocc",
				"energy": 0.01408,
				"method": "rhf"
			},
			{
				"type": "unocc",
				"energy": 0.01768,
				"method": "rhf"
			},
			{
				"type": "unocc",
				"energy": 0.08343,
				"method": "rhf"
			},
			{
				"type": "unocc",
				"energy": 0.09543,
				"method": "rhf"
			},
			{
				"type": "unocc",
				"energy": 0.10749,
				"method": "rhf"
			}
		],
		"cosmo_sigma_profile": { 
			"-0.025": 0.0,
			"-0.024": 0.0,
			"-0.023": 0.0,
			"-0.022": 0.0,
			"-0.021": 0.0,
			"-0.02": 0.0,
			"-0.019": 0.0,
			"-0.018": 0.0,
			"-0.017": 0.0,
			"-0.016": 0.0,
			"-0.015": 0.0,
			"-0.014": 0.0,
			"-0.013": 0.0,
			"-0.012": 0.0,
			"-0.011": 0.0,
			"-0.01": 0.0,
			"-0.009": 0.0,
			"-0.008": 0.0,
			"-0.007": 0.040548668044,
			"-0.006": 2.91000457228,
			"-0.005": 9.00494126104,
			"-0.004": 30.0585004852,
			"-0.003": 46.7249352144,
			"-0.002": 50.4682966658,
			"-0.001": 40.9814305167,
			"0.0": 41.9993716645,
			"0.001": 22.7814582521,
			"0.002": 9.27519552654,
			"0.003": 7.8894899082,
			"0.004": 6.58074528525,
			"0.005": 6.09174780278,
			"0.006": 6.29018937008,
			"0.007": 6.2637784516,
			"0.008": 3.82899401633,
			"0.009": 5.08899218895,
			"0.01": 3.55279420907,
			"0.011": 4.04548092977,
			"0.012": 6.93235607268,
			"0.013": 1.86609395955,
			"0.014": 0.0,
			"0.015": 0.0,
			"0.016": 0.0,
			"0.017": 0.0,
			"0.018": 0.0,
			"0.019": 0.0,
			"0.02": 0.0,
			"0.021": 0.0,
			"0.022": 0.0,
			"0.023": 0.0,
			"0.024": 0.0,
			"0.025": 0.0
		}
	}
}
