{
	 "smiles": "CC1=C(C2=CC=NN2)C(=NO1)C1=CC=CC=C1", 
	 "Tm": 399.15, 
	 "num_atms": 28, 
	 "gaussian": { 
		 "optdone": 1, 
		 "sigma_profile": "yes", 
		 "theory": "DFT", 
		 "functional": "B3LYP", 
		 "basiset": "6-31G**", 
		 "properties": { 
			 "R2extent": 4113.6661, 
			 "electric_dipole_moment_norm": 0.64545463822, 
			 "electric_quadrupole_moment_norm": 19.5402510647, 
			 "total_energy": -741.431878617, 
			 "HOMO_LUMO_gap": 0.1905, 
			 "cosmo_polarized_energy": -13.19, 
			 "cosmo_cavitation_energy": 32.49, 
			 "cosmo_dispersion_energy": -23.11, 
			 "cosmo_repulsion_energy": 1.78, 
			 "cosmo_total_nonelectrostatic_energy": 11.15, 
			 "SMD_solvation_energy": 4.67 
		},
		"coords": [
			{
				"x": -1.7897909219,
				"y": 3.2216277352,
				"z": 1.7414855458,
				"element": "C" 
			},
			{
				"x": -1.0231779002,
				"y": 2.421601164,
				"z": 0.7480520247,
				"element": "C" 
			},
			{
				"x": -0.9109741225,
				"y": 1.0753154269,
				"z": 0.5075861168,
				"element": "C" 
			},
			{
				"x": -1.5624996659,
				"y": 0.0029312091,
				"z": 1.252193418,
				"element": "C" 
			},
			{
				"x": -2.8421595362,
				"y": -0.1097335925,
				"z": 1.7854153616,
				"element": "C" 
			},
			{
				"x": -2.8609796293,
				"y": -1.3657277547,
				"z": 2.429238673,
				"element": "C" 
			},
			{
				"x": -1.6958888961,
				"y": -2.0023974026,
				"z": 2.3154900324,
				"element": "N" 
			},
			{
				"x": -0.9254876718,
				"y": -1.1532762607,
				"z": 1.6066044832,
				"element": "N" 
			},
			{
				"x": 0.0253029637,
				"y": 1.0062522858,
				"z": -0.5883477,
				"element": "C" 
			},
			{
				"x": 0.4218118983,
				"y": 2.2087602997,
				"z": -0.9533237061,
				"element": "N" 
			},
			{
				"x": -0.2410166243,
				"y": 3.102393198,
				"z": -0.1116996987,
				"element": "O" 
			},
			{
				"x": 0.5618099451,
				"y": -0.1731787443,
				"z": -1.3002683072,
				"element": "C" 
			},
			{
				"x": -0.2387677559,
				"y": -1.2995829052,
				"z": -1.5502885026,
				"element": "C" 
			},
			{
				"x": 0.2804661656,
				"y": -2.3916727875,
				"z": -2.2457032153,
				"element": "C" 
			},
			{
				"x": 1.5997320753,
				"y": -2.37219625,
				"z": -2.7018017604,
				"element": "C" 
			},
			{
				"x": 2.3992802396,
				"y": -1.2514998549,
				"z": -2.4641211334,
				"element": "C" 
			},
			{
				"x": 1.8865817363,
				"y": -0.1591472967,
				"z": -1.7678144236,
				"element": "C" 
			},
			{
				"x": -2.6801581694,
				"y": 3.671931887,
				"z": 1.287556071,
				"element": "H" 
			},
			{
				"x": -1.1710648527,
				"y": 4.0334467413,
				"z": 2.1343466526,
				"element": "H" 
			},
			{
				"x": -2.1121730503,
				"y": 2.5823479729,
				"z": 2.5660360148,
				"element": "H" 
			},
			{
				"x": -3.6470462208,
				"y": 0.603381838,
				"z": 1.6905425639,
				"element": "H" 
			},
			{
				"x": -3.6761533121,
				"y": -1.8339754686,
				"z": 2.9644956201,
				"element": "H" 
			},
			{
				"x": 0.0168608155,
				"y": -1.4226681738,
				"z": 1.368151842,
				"element": "H" 
			},
			{
				"x": -1.271074686,
				"y": -1.314301976,
				"z": -1.2166466521,
				"element": "H" 
			},
			{
				"x": -0.3498397314,
				"y": -3.2554324413,
				"z": -2.4354122847,
				"element": "H" 
			},
			{
				"x": 2.0023222359,
				"y": -3.2248802643,
				"z": -3.2407872858,
				"element": "H" 
			},
			{
				"x": 3.4257688158,
				"y": -1.229663086,
				"z": -2.8183581573,
				"element": "H" 
			},
			{
				"x": 2.5014158555,
				"y": 0.714444501,
				"z": -1.578921593,
				"element": "H" 
			}
		],
		 "valence_orbital": [ 
			{
				"type": "occ",
				"energy": -0.27927,
				"method": "rhf"
			},
			{
				"type": "occ",
				"energy": -0.26401,
				"method": "rhf"
			},
			{
				"type": "occ",
				"energy": -0.25685,
				"method": "rhf"
			},
			{
				"type": "occ",
				"energy": -0.24691,
				"method": "rhf"
			},
			{
				"type": "occ",
				"energy": -0.22877,
				"method": "rhf"
			},
			{
				"type": "unocc",
				"energy": -0.03827,
				"method": "rhf"
			},
			{
				"type": "unocc",
				"energy": -0.01672,
				"method": "rhf"
			},
			{
				"type": "unocc",
				"energy": -0.00933,
				"method": "rhf"
			},
			{
				"type": "unocc",
				"energy": 0.01992,
				"method": "rhf"
			},
			{
				"type": "unocc",
				"energy": 0.05687,
				"method": "rhf"
			}
		],
		"cosmo_sigma_profile": { 
			"-0.025": 0.0,
			"-0.024": 0.0,
			"-0.023": 0.0,
			"-0.022": 0.0,
			"-0.021": 0.0,
			"-0.02": 0.0,
			"-0.019": 0.0,
			"-0.018": 0.0,
			"-0.017": 0.0,
			"-0.016": 0.11466610266,
			"-0.015": 0.833598927084,
			"-0.014": 0.888627136873,
			"-0.013": 0.829694691633,
			"-0.012": 0.697754765277,
			"-0.011": 1.40328707632,
			"-0.01": 0.93881498174,
			"-0.009": 1.11969024934,
			"-0.008": 1.16898968745,
			"-0.007": 4.46672713207,
			"-0.006": 15.9953334515,
			"-0.005": 21.3948071506,
			"-0.004": 24.0199319019,
			"-0.003": 20.2500253596,
			"-0.002": 21.5338150623,
			"-0.001": 16.3213375107,
			"0.0": 19.7950472291,
			"0.001": 15.7163245167,
			"0.002": 14.3628053989,
			"0.003": 14.9809236639,
			"0.004": 18.2107364661,
			"0.005": 12.7422931748,
			"0.006": 4.24385667947,
			"0.007": 5.96786044316,
			"0.008": 6.06499151832,
			"0.009": 3.52493560573,
			"0.01": 2.44641229122,
			"0.011": 2.78783265473,
			"0.012": 2.41870672703,
			"0.013": 1.77590250036,
			"0.014": 2.10876363832,
			"0.015": 1.00644798687,
			"0.016": 0.769920541269,
			"0.017": 0.0,
			"0.018": 0.0,
			"0.019": 0.0,
			"0.02": 0.0,
			"0.021": 0.0,
			"0.022": 0.0,
			"0.023": 0.0,
			"0.024": 0.0,
			"0.025": 0.0
		}
	}
}
