{
	 "smiles": "OC(=O)CS(=O)(=O)C=CC1=CC=CC=C1", 
	 "Tm": 425.15, 
	 "num_atms": 25, 
	 "gaussian": { 
		 "optdone": 1, 
		 "sigma_profile": "yes", 
		 "theory": "DFT", 
		 "functional": "B3LYP", 
		 "basiset": "6-31G**", 
		 "properties": { 
			 "R2extent": 4648.6168, 
			 "electric_dipole_moment_norm": 2.65845750201, 
			 "electric_quadrupole_moment_norm": 18.826392446, 
			 "total_energy": -1086.09239651, 
			 "HOMO_LUMO_gap": 0.17822, 
			 "cosmo_polarized_energy": -18.66, 
			 "cosmo_cavitation_energy": 31.17, 
			 "cosmo_dispersion_energy": -22.9, 
			 "cosmo_repulsion_energy": 1.74, 
			 "cosmo_total_nonelectrostatic_energy": 10.01, 
			 "SMD_solvation_energy": 6.18 
		},
		"coords": [
			{
				"x": 3.6447685649,
				"y": 2.8198981471,
				"z": 1.500641291,
				"element": "O" 
			},
			{
				"x": 3.2997154929,
				"y": 1.9034964747,
				"z": 0.5806534203,
				"element": "C" 
			},
			{
				"x": 3.9480393749,
				"y": 0.9038223233,
				"z": 0.3529244122,
				"element": "O" 
			},
			{
				"x": 2.016615395,
				"y": 2.2742961466,
				"z": -0.127963575,
				"element": "C" 
			},
			{
				"x": 0.6202977503,
				"y": 1.1456746411,
				"z": 0.2707113028,
				"element": "S" 
			},
			{
				"x": 0.6028835703,
				"y": 0.9642144928,
				"z": 1.7301850487,
				"element": "O" 
			},
			{
				"x": -0.5426699174,
				"y": 1.7445971292,
				"z": -0.4067128361,
				"element": "O" 
			},
			{
				"x": 1.1459865302,
				"y": -0.3632787268,
				"z": -0.5162792889,
				"element": "C" 
			},
			{
				"x": 0.4314326155,
				"y": -1.4165891923,
				"z": -0.9574753443,
				"element": "C" 
			},
			{
				"x": -0.9883795361,
				"y": -1.7711813614,
				"z": -1.0423208428,
				"element": "C" 
			},
			{
				"x": -1.2752707336,
				"y": -3.0735684404,
				"z": -1.5022167199,
				"element": "C" 
			},
			{
				"x": -2.5849092224,
				"y": -3.5312282793,
				"z": -1.6095893388,
				"element": "C" 
			},
			{
				"x": -3.6432106699,
				"y": -2.690006222,
				"z": -1.2619534153,
				"element": "C" 
			},
			{
				"x": -3.3770574268,
				"y": -1.3944213115,
				"z": -0.8116330796,
				"element": "C" 
			},
			{
				"x": -2.0680638282,
				"y": -0.9328462524,
				"z": -0.6999181374,
				"element": "C" 
			},
			{
				"x": 4.4572216262,
				"y": 2.4973537169,
				"z": 1.9277816504,
				"element": "H" 
			},
			{
				"x": 2.1557711762,
				"y": 2.2393402476,
				"z": -1.210391678,
				"element": "H" 
			},
			{
				"x": 1.6519034604,
				"y": 3.2572792918,
				"z": 0.172968673,
				"element": "H" 
			},
			{
				"x": 2.2316561303,
				"y": -0.406571151,
				"z": -0.5281980665,
				"element": "H" 
			},
			{
				"x": 1.0753307034,
				"y": -2.2146654442,
				"z": -1.3292962862,
				"element": "H" 
			},
			{
				"x": -0.4540969888,
				"y": -3.7325875132,
				"z": -1.772652569,
				"element": "H" 
			},
			{
				"x": -2.7786829249,
				"y": -4.5394449577,
				"z": -1.9634815337,
				"element": "H" 
			},
			{
				"x": -4.6682757709,
				"y": -3.0399388178,
				"z": -1.3435578875,
				"element": "H" 
			},
			{
				"x": -4.1968566358,
				"y": -0.7336230579,
				"z": -0.5457411583,
				"element": "H" 
			},
			{
				"x": -1.8881487356,
				"y": 0.082078117,
				"z": -0.3705840414,
				"element": "H" 
			}
		],
		 "valence_orbital": [ 
			{
				"type": "occ",
				"energy": -0.30115,
				"method": "rhf"
			},
			{
				"type": "occ",
				"energy": -0.29653,
				"method": "rhf"
			},
			{
				"type": "occ",
				"energy": -0.29223,
				"method": "rhf"
			},
			{
				"type": "occ",
				"energy": -0.25791,
				"method": "rhf"
			},
			{
				"type": "occ",
				"energy": -0.24152,
				"method": "rhf"
			},
			{
				"type": "unocc",
				"energy": -0.0633,
				"method": "rhf"
			},
			{
				"type": "unocc",
				"energy": -0.03074,
				"method": "rhf"
			},
			{
				"type": "unocc",
				"energy": -0.00727,
				"method": "rhf"
			},
			{
				"type": "unocc",
				"energy": 0.03167,
				"method": "rhf"
			},
			{
				"type": "unocc",
				"energy": 0.04866,
				"method": "rhf"
			}
		],
		"cosmo_sigma_profile": { 
			"-0.025": 0.0,
			"-0.024": 0.0,
			"-0.023": 0.0,
			"-0.022": 0.0,
			"-0.021": 0.0,
			"-0.02": 0.0294406363269,
			"-0.019": 0.850433972268,
			"-0.018": 0.95420454404,
			"-0.017": 0.952898733851,
			"-0.016": 0.897552165022,
			"-0.015": 1.15560609435,
			"-0.014": 0.336665745516,
			"-0.013": 0.633640881871,
			"-0.012": 0.974427281781,
			"-0.011": 1.78563247254,
			"-0.01": 4.00554987163,
			"-0.009": 5.66834170233,
			"-0.008": 8.43817903458,
			"-0.007": 9.1147408922,
			"-0.006": 14.6439431485,
			"-0.005": 14.0745973307,
			"-0.004": 14.8192866234,
			"-0.003": 11.3951974001,
			"-0.002": 12.1236450782,
			"-0.001": 12.2923079421,
			"0.0": 12.1838139943,
			"0.001": 15.6676866288,
			"0.002": 16.8762485033,
			"0.003": 16.8424019603,
			"0.004": 18.3658336257,
			"0.005": 8.75408751633,
			"0.006": 4.90799559525,
			"0.007": 5.94087958064,
			"0.008": 5.36673794807,
			"0.009": 6.63631717295,
			"0.01": 10.8110140251,
			"0.011": 10.4352493576,
			"0.012": 1.59675663142,
			"0.013": 0.0,
			"0.014": 0.0,
			"0.015": 0.0,
			"0.016": 0.0,
			"0.017": 0.0,
			"0.018": 0.0,
			"0.019": 0.0,
			"0.02": 0.0,
			"0.021": 0.0,
			"0.022": 0.0,
			"0.023": 0.0,
			"0.024": 0.0,
			"0.025": 0.0
		}
	}
}
