{
	 "smiles": "OC(=O)CC1OC(=O)C2=CC=CC=C12", 
	 "Tm": 424.15, 
	 "num_atms": 22, 
	 "gaussian": { 
		 "optdone": 1, 
		 "sigma_profile": "yes", 
		 "theory": "DFT", 
		 "functional": "B3LYP", 
		 "basiset": "6-31G**", 
		 "properties": { 
			 "R2extent": 3268.6777, 
			 "electric_dipole_moment_norm": 6.7437947574, 
			 "electric_quadrupole_moment_norm": 18.6793250384, 
			 "total_energy": -686.806082363, 
			 "HOMO_LUMO_gap": 0.19674, 
			 "cosmo_polarized_energy": -18.13, 
			 "cosmo_cavitation_energy": 26.85, 
			 "cosmo_dispersion_energy": -19.56, 
			 "cosmo_repulsion_energy": 1.54, 
			 "cosmo_total_nonelectrostatic_energy": 8.83, 
			 "SMD_solvation_energy": 6.53 
		},
		"coords": [
			{
				"x": 0.3524725959,
				"y": -0.7943506363,
				"z": 4.2780710908,
				"element": "O" 
			},
			{
				"x": -0.2726415483,
				"y": 0.3558967034,
				"z": 3.9578088483,
				"element": "C" 
			},
			{
				"x": -0.5651672893,
				"y": 1.1683534023,
				"z": 4.8006406953,
				"element": "O" 
			},
			{
				"x": -0.6192038522,
				"y": 0.5512321849,
				"z": 2.4767631792,
				"element": "C" 
			},
			{
				"x": 0.4964361512,
				"y": 0.1852093114,
				"z": 1.4899218024,
				"element": "C" 
			},
			{
				"x": 0.7938869687,
				"y": -1.232665127,
				"z": 1.6096005643,
				"element": "O" 
			},
			{
				"x": 0.6076263109,
				"y": -1.9020983147,
				"z": 0.4023250362,
				"element": "C" 
			},
			{
				"x": 0.7745452221,
				"y": -3.0872170003,
				"z": 0.2977423988,
				"element": "O" 
			},
			{
				"x": 0.199069791,
				"y": -0.8860998168,
				"z": -0.5872088536,
				"element": "C" 
			},
			{
				"x": -0.0929720616,
				"y": -1.054254578,
				"z": -1.9400241833,
				"element": "C" 
			},
			{
				"x": -0.4618001492,
				"y": 0.0772522517,
				"z": -2.6659593978,
				"element": "C" 
			},
			{
				"x": -0.5325074173,
				"y": 1.332841553,
				"z": -2.0425563872,
				"element": "C" 
			},
			{
				"x": -0.238554791,
				"y": 1.4895004505,
				"z": -0.6844757396,
				"element": "C" 
			},
			{
				"x": 0.1287891166,
				"y": 0.3564795361,
				"z": 0.0364966244,
				"element": "C" 
			},
			{
				"x": 0.5318445627,
				"y": -1.3235839617,
				"z": 3.4789584722,
				"element": "H" 
			},
			{
				"x": -1.5033979746,
				"y": -0.0544271588,
				"z": 2.2414025454,
				"element": "H" 
			},
			{
				"x": -0.8946749278,
				"y": 1.6004969121,
				"z": 2.3511934066,
				"element": "H" 
			},
			{
				"x": 1.4176431096,
				"y": 0.7251495922,
				"z": 1.7414786964,
				"element": "H" 
			},
			{
				"x": -0.0299272109,
				"y": -2.0360371423,
				"z": -2.3981355518,
				"element": "H" 
			},
			{
				"x": -0.6963793867,
				"y": -0.0089286622,
				"z": -3.7223049498,
				"element": "H" 
			},
			{
				"x": -0.8210776645,
				"y": 2.2010314926,
				"z": -2.6276710159,
				"element": "H" 
			},
			{
				"x": -0.2962095552,
				"y": 2.468219008,
				"z": -0.2172672813,
				"element": "H" 
			}
		],
		 "valence_orbital": [ 
			{
				"type": "occ",
				"energy": -0.31098,
				"method": "rhf"
			},
			{
				"type": "occ",
				"energy": -0.29468,
				"method": "rhf"
			},
			{
				"type": "occ",
				"energy": -0.28906,
				"method": "rhf"
			},
			{
				"type": "occ",
				"energy": -0.2871,
				"method": "rhf"
			},
			{
				"type": "occ",
				"energy": -0.26695,
				"method": "rhf"
			},
			{
				"type": "unocc",
				"energy": -0.07021,
				"method": "rhf"
			},
			{
				"type": "unocc",
				"energy": -0.04056,
				"method": "rhf"
			},
			{
				"type": "unocc",
				"energy": 0.00717,
				"method": "rhf"
			},
			{
				"type": "unocc",
				"energy": 0.03368,
				"method": "rhf"
			},
			{
				"type": "unocc",
				"energy": 0.07186,
				"method": "rhf"
			}
		],
		"cosmo_sigma_profile": { 
			"-0.025": 0.0,
			"-0.024": 0.0,
			"-0.023": 0.0,
			"-0.022": 0.0,
			"-0.021": 0.0,
			"-0.02": 0.0,
			"-0.019": 0.0,
			"-0.018": 0.0,
			"-0.017": 0.0,
			"-0.016": 0.0,
			"-0.015": 0.0,
			"-0.014": 0.0,
			"-0.013": 0.0,
			"-0.012": 0.0,
			"-0.011": 0.200422637798,
			"-0.01": 1.72170531166,
			"-0.009": 6.62201094554,
			"-0.008": 12.0860325582,
			"-0.007": 15.7300603685,
			"-0.006": 15.7099439877,
			"-0.005": 15.7428445134,
			"-0.004": 12.9406614898,
			"-0.003": 10.2927677796,
			"-0.002": 10.2844018039,
			"-0.001": 10.6511785401,
			"0.0": 11.8366272736,
			"0.001": 11.7358972078,
			"0.002": 12.8635731025,
			"0.003": 10.9925527221,
			"0.004": 4.87072054158,
			"0.005": 4.47613767317,
			"0.006": 3.28679380154,
			"0.007": 3.58835215332,
			"0.008": 4.4937503846,
			"0.009": 5.768816806,
			"0.01": 7.67450914699,
			"0.011": 11.5746821632,
			"0.012": 7.23895289277,
			"0.013": 2.47319047333,
			"0.014": 0.13114448941,
			"0.015": 0.0,
			"0.016": 0.0,
			"0.017": 0.0,
			"0.018": 0.0,
			"0.019": 0.0,
			"0.02": 0.0,
			"0.021": 0.0,
			"0.022": 0.0,
			"0.023": 0.0,
			"0.024": 0.0,
			"0.025": 0.0
		}
	}
}
