{
	 "smiles": "ClCC(=O)N1CCN(CC1)C1=CC=CC=C1", 
	 "Tm": 351.15, 
	 "num_atms": 31, 
	 "gaussian": { 
		 "optdone": 1, 
		 "sigma_profile": "yes", 
		 "theory": "DFT", 
		 "functional": "B3LYP", 
		 "basiset": "6-31G**", 
		 "properties": { 
			 "R2extent": 6286.2938, 
			 "electric_dipole_moment_norm": 2.33367414606, 
			 "electric_quadrupole_moment_norm": 17.0225824856, 
			 "total_energy": -1111.23521182, 
			 "HOMO_LUMO_gap": 0.17329, 
			 "cosmo_polarized_energy": -13.78, 
			 "cosmo_cavitation_energy": 34.26, 
			 "cosmo_dispersion_energy": -25.15, 
			 "cosmo_repulsion_energy": 1.95, 
			 "cosmo_total_nonelectrostatic_energy": 11.06, 
			 "SMD_solvation_energy": 4.23 
		},
		"coords": [
			{
				"x": -1.7944762931,
				"y": 5.0577393072,
				"z": 1.3045424966,
				"element": "Cl" 
			},
			{
				"x": -3.0001446496,
				"y": 4.0371489721,
				"z": 0.4044724309,
				"element": "C" 
			},
			{
				"x": -2.9787650573,
				"y": 2.5646430815,
				"z": 0.8193151202,
				"element": "C" 
			},
			{
				"x": -3.9716122075,
				"y": 2.0833537774,
				"z": 1.3568246197,
				"element": "O" 
			},
			{
				"x": -1.8629580409,
				"y": 1.8242320572,
				"z": 0.5529663178,
				"element": "N" 
			},
			{
				"x": -1.8621261928,
				"y": 0.4257668695,
				"z": 1.0016828398,
				"element": "C" 
			},
			{
				"x": -0.436766882,
				"y": -0.0909719006,
				"z": 1.1835157223,
				"element": "C" 
			},
			{
				"x": 0.3297765425,
				"y": 0.0444687398,
				"z": -0.0480831041,
				"element": "N" 
			},
			{
				"x": -0.0072830221,
				"y": 1.160403007,
				"z": -0.9207617855,
				"element": "C" 
			},
			{
				"x": -0.6561271129,
				"y": 2.2976146707,
				"z": -0.1276872003,
				"element": "C" 
			},
			{
				"x": 1.4078517311,
				"y": -0.7900043789,
				"z": -0.3296595847,
				"element": "C" 
			},
			{
				"x": 1.9697928491,
				"y": -0.8399461144,
				"z": -1.6246189583,
				"element": "C" 
			},
			{
				"x": 3.0486163925,
				"y": -1.6765133072,
				"z": -1.9013736732,
				"element": "C" 
			},
			{
				"x": 3.598145986,
				"y": -2.4946766445,
				"z": -0.913338433,
				"element": "C" 
			},
			{
				"x": 3.046214562,
				"y": -2.455817448,
				"z": 0.3677267466,
				"element": "C" 
			},
			{
				"x": 1.9736711924,
				"y": -1.6177812179,
				"z": 0.6648348984,
				"element": "C" 
			},
			{
				"x": -2.804206053,
				"y": 4.1801872249,
				"z": -0.6602999289,
				"element": "H" 
			},
			{
				"x": -3.9872237614,
				"y": 4.4185143112,
				"z": 0.6540403263,
				"element": "H" 
			},
			{
				"x": -2.3965866756,
				"y": -0.2016773855,
				"z": 0.2763428969,
				"element": "H" 
			},
			{
				"x": -2.4123531368,
				"y": 0.3681092752,
				"z": 1.9432795344,
				"element": "H" 
			},
			{
				"x": 0.0416935795,
				"y": 0.4262589849,
				"z": 2.0319728203,
				"element": "H" 
			},
			{
				"x": -0.5018384928,
				"y": -1.150385706,
				"z": 1.4505863101,
				"element": "H" 
			},
			{
				"x": 0.9072662035,
				"y": 1.5539486139,
				"z": -1.3776325566,
				"element": "H" 
			},
			{
				"x": -0.6772017599,
				"y": 0.8582205191,
				"z": -1.7426988148,
				"element": "H" 
			},
			{
				"x": 0.0651982137,
				"y": 2.7017407986,
				"z": 0.5935876138,
				"element": "H" 
			},
			{
				"x": -0.9078494305,
				"y": 3.1050809433,
				"z": -0.8182290685,
				"element": "H" 
			},
			{
				"x": 1.5462590641,
				"y": -0.2459029642,
				"z": -2.4266971091,
				"element": "H" 
			},
			{
				"x": 3.4540425495,
				"y": -1.6939014904,
				"z": -2.909587112,
				"element": "H" 
			},
			{
				"x": 4.4362882238,
				"y": -3.1470656442,
				"z": -1.1364745288,
				"element": "H" 
			},
			{
				"x": 3.4607736485,
				"y": -3.0767427408,
				"z": 1.1574893652,
				"element": "H" 
			},
			{
				"x": 1.5951280299,
				"y": -1.590044211,
				"z": 1.6801617987,
				"element": "H" 
			}
		],
		 "valence_orbital": [ 
			{
				"type": "occ",
				"energy": -0.28479,
				"method": "rhf"
			},
			{
				"type": "occ",
				"energy": -0.25964,
				"method": "rhf"
			},
			{
				"type": "occ",
				"energy": -0.25041,
				"method": "rhf"
			},
			{
				"type": "occ",
				"energy": -0.24582,
				"method": "rhf"
			},
			{
				"type": "occ",
				"energy": -0.19382,
				"method": "rhf"
			},
			{
				"type": "unocc",
				"energy": -0.02053,
				"method": "rhf"
			},
			{
				"type": "unocc",
				"energy": 0.0022,
				"method": "rhf"
			},
			{
				"type": "unocc",
				"energy": 0.01729,
				"method": "rhf"
			},
			{
				"type": "unocc",
				"energy": 0.04602,
				"method": "rhf"
			},
			{
				"type": "unocc",
				"energy": 0.06801,
				"method": "rhf"
			}
		],
		"cosmo_sigma_profile": { 
			"-0.025": 0.0,
			"-0.024": 0.0,
			"-0.023": 0.0,
			"-0.022": 0.0,
			"-0.021": 0.0,
			"-0.02": 0.0,
			"-0.019": 0.0,
			"-0.018": 0.0,
			"-0.017": 0.0,
			"-0.016": 0.0,
			"-0.015": 0.0,
			"-0.014": 0.0,
			"-0.013": 0.0,
			"-0.012": 0.0,
			"-0.011": 0.0646751440418,
			"-0.01": 2.19962921878,
			"-0.009": 2.83395017129,
			"-0.008": 3.56209062113,
			"-0.007": 4.73644638619,
			"-0.006": 8.55296856269,
			"-0.005": 28.1806674354,
			"-0.004": 35.9603225918,
			"-0.003": 26.415563305,
			"-0.002": 17.3628159966,
			"-0.001": 15.2391968499,
			"0.0": 14.0495463909,
			"0.001": 14.6888649029,
			"0.002": 12.8681865569,
			"0.003": 12.9705423536,
			"0.004": 15.11254243,
			"0.005": 15.8675965423,
			"0.006": 14.7277636993,
			"0.007": 9.2641761753,
			"0.008": 4.05430466259,
			"0.009": 0.910376102646,
			"0.01": 1.63987341998,
			"0.011": 1.65046099341,
			"0.012": 2.52103458643,
			"0.013": 4.72379483343,
			"0.014": 2.37742357688,
			"0.015": 0.044307113536,
			"0.016": 0.0,
			"0.017": 0.0,
			"0.018": 0.0,
			"0.019": 0.0,
			"0.02": 0.0,
			"0.021": 0.0,
			"0.022": 0.0,
			"0.023": 0.0,
			"0.024": 0.0,
			"0.025": 0.0
		}
	}
}
