{
	 "smiles": "OC(=O)C1=CC(OC2=NC=CS2)=CC=C1", 
	 "Tm": 376.15, 
	 "num_atms": 22, 
	 "gaussian": { 
		 "optdone": 1, 
		 "sigma_profile": "yes", 
		 "theory": "DFT", 
		 "functional": "B3LYP", 
		 "basiset": "6-31G**", 
		 "properties": { 
			 "R2extent": 4458.2624, 
			 "electric_dipole_moment_norm": 4.27052943322, 
			 "electric_quadrupole_moment_norm": 28.5719204309, 
			 "total_energy": -1063.87277552, 
			 "HOMO_LUMO_gap": 0.17806, 
			 "cosmo_polarized_energy": -16.03, 
			 "cosmo_cavitation_energy": 29.27, 
			 "cosmo_dispersion_energy": -22.16, 
			 "cosmo_repulsion_energy": 1.67, 
			 "cosmo_total_nonelectrostatic_energy": 8.78, 
			 "SMD_solvation_energy": 5.96 
		},
		"coords": [
			{
				"x": 2.2335488384,
				"y": 3.7525014578,
				"z": -2.3819788262,
				"element": "O" 
			},
			{
				"x": 2.0602977821,
				"y": 2.4332765006,
				"z": -2.0955473111,
				"element": "C" 
			},
			{
				"x": 2.2339898823,
				"y": 1.6005924618,
				"z": -2.9524787337,
				"element": "O" 
			},
			{
				"x": 1.6540862842,
				"y": 2.102686351,
				"z": -0.6874467384,
				"element": "C" 
			},
			{
				"x": 1.0247088695,
				"y": 0.865153384,
				"z": -0.4846966881,
				"element": "C" 
			},
			{
				"x": 0.6347634421,
				"y": 0.518314002,
				"z": 0.8064842806,
				"element": "C" 
			},
			{
				"x": -0.0034054128,
				"y": -0.6576175812,
				"z": 1.1753580752,
				"element": "O" 
			},
			{
				"x": -0.3922584246,
				"y": -1.6371491747,
				"z": 0.3391028716,
				"element": "C" 
			},
			{
				"x": -0.2915619551,
				"y": -1.6957881388,
				"z": -0.9495003093,
				"element": "N" 
			},
			{
				"x": -0.8247741653,
				"y": -2.8847004519,
				"z": -1.411657317,
				"element": "C" 
			},
			{
				"x": -1.330931563,
				"y": -3.7268451367,
				"z": -0.4713115845,
				"element": "C" 
			},
			{
				"x": -1.1483498442,
				"y": -3.0265517363,
				"z": 1.1159544224,
				"element": "S" 
			},
			{
				"x": 0.8797752216,
				"y": 1.3714956638,
				"z": 1.889979363,
				"element": "C" 
			},
			{
				"x": 1.5250277293,
				"y": 2.5842958066,
				"z": 1.6784819043,
				"element": "C" 
			},
			{
				"x": 1.9129810209,
				"y": 2.9578656551,
				"z": 0.3900272975,
				"element": "C" 
			},
			{
				"x": 1.8958784001,
				"y": 4.2961771432,
				"z": -1.6568148478,
				"element": "H" 
			},
			{
				"x": 0.8493769449,
				"y": 0.2069008899,
				"z": -1.3229263143,
				"element": "H" 
			},
			{
				"x": -0.8114870248,
				"y": -3.0801159551,
				"z": -2.4769811762,
				"element": "H" 
			},
			{
				"x": -1.7897481365,
				"y": -4.6954957324,
				"z": -0.6054796612,
				"element": "H" 
			},
			{
				"x": 0.5655003858,
				"y": 1.0621789295,
				"z": 2.8810310006,
				"element": "H" 
			},
			{
				"x": 1.7320205546,
				"y": 3.2369034251,
				"z": 2.5207604629,
				"element": "H" 
			},
			{
				"x": 2.4526611706,
				"y": 3.8902222368,
				"z": 0.2473398299,
				"element": "H" 
			}
		],
		 "valence_orbital": [ 
			{
				"type": "occ",
				"energy": -0.29027,
				"method": "rhf"
			},
			{
				"type": "occ",
				"energy": -0.279,
				"method": "rhf"
			},
			{
				"type": "occ",
				"energy": -0.27296,
				"method": "rhf"
			},
			{
				"type": "occ",
				"energy": -0.26633,
				"method": "rhf"
			},
			{
				"type": "occ",
				"energy": -0.23067,
				"method": "rhf"
			},
			{
				"type": "unocc",
				"energy": -0.05261,
				"method": "rhf"
			},
			{
				"type": "unocc",
				"energy": -0.03358,
				"method": "rhf"
			},
			{
				"type": "unocc",
				"energy": -0.00567,
				"method": "rhf"
			},
			{
				"type": "unocc",
				"energy": 0.00568,
				"method": "rhf"
			},
			{
				"type": "unocc",
				"energy": 0.04288,
				"method": "rhf"
			}
		],
		"cosmo_sigma_profile": { 
			"-0.025": 0.0,
			"-0.024": 0.0,
			"-0.023": 0.0,
			"-0.022": 0.0,
			"-0.021": 0.0,
			"-0.02": 0.0,
			"-0.019": 0.131542543142,
			"-0.018": 0.938634135514,
			"-0.017": 0.787567052111,
			"-0.016": 0.892939928166,
			"-0.015": 1.31265185419,
			"-0.014": 0.566726870213,
			"-0.013": 1.2659325351,
			"-0.012": 1.04741386926,
			"-0.011": 1.50113341599,
			"-0.01": 1.57189832954,
			"-0.009": 2.80943427126,
			"-0.008": 6.20379434165,
			"-0.007": 10.6972069136,
			"-0.006": 10.521406028,
			"-0.005": 9.40113335258,
			"-0.004": 8.06493924309,
			"-0.003": 10.3589368093,
			"-0.002": 12.4327858515,
			"-0.001": 18.1769183453,
			"0.0": 22.0612570068,
			"0.001": 25.2918882507,
			"0.002": 26.4237565393,
			"0.003": 20.8407872154,
			"0.004": 8.14440441082,
			"0.005": 4.64350653205,
			"0.006": 4.60342801383,
			"0.007": 4.62253221862,
			"0.008": 3.97670556887,
			"0.009": 3.73691256504,
			"0.01": 4.81396251897,
			"0.011": 5.36921126477,
			"0.012": 4.44318365857,
			"0.013": 1.21327680989,
			"0.014": 0.0,
			"0.015": 0.0,
			"0.016": 0.0,
			"0.017": 0.0,
			"0.018": 0.0,
			"0.019": 0.0,
			"0.02": 0.0,
			"0.021": 0.0,
			"0.022": 0.0,
			"0.023": 0.0,
			"0.024": 0.0,
			"0.025": 0.0
		}
	}
}
