{
	 "smiles": "OC(=O)C1=C(F)C=CC(=C1)[N+]([O-])=O", 
	 "Tm": 416.15, 
	 "num_atms": 17, 
	 "gaussian": { 
		 "optdone": 1, 
		 "sigma_profile": "yes", 
		 "theory": "DFT", 
		 "functional": "B3LYP", 
		 "basiset": "6-31G**", 
		 "properties": { 
			 "R2extent": 2840.7128, 
			 "electric_dipole_moment_norm": 2.95364972534, 
			 "electric_quadrupole_moment_norm": 23.1994189617, 
			 "total_energy": -724.533861858, 
			 "HOMO_LUMO_gap": 0.17991, 
			 "cosmo_polarized_energy": -17.78, 
			 "cosmo_cavitation_energy": 23.79, 
			 "cosmo_dispersion_energy": -17.25, 
			 "cosmo_repulsion_energy": 1.34, 
			 "cosmo_total_nonelectrostatic_energy": 7.88, 
			 "SMD_solvation_energy": 8.08 
		},
		"coords": [
			{
				"x": -1.3488588158,
				"y": 1.336785206,
				"z": -1.9843155609,
				"element": "O" 
			},
			{
				"x": -1.8715916017,
				"y": 1.5487135765,
				"z": -0.7485351354,
				"element": "C" 
			},
			{
				"x": -2.9086853007,
				"y": 2.1442157265,
				"z": -0.6113880973,
				"element": "O" 
			},
			{
				"x": -1.0908335915,
				"y": 0.9608352326,
				"z": 0.3953747414,
				"element": "C" 
			},
			{
				"x": -1.0692340123,
				"y": 1.5931446212,
				"z": 1.6501498138,
				"element": "C" 
			},
			{
				"x": -1.6759033726,
				"y": 2.7685692153,
				"z": 1.8090212378,
				"element": "F" 
			},
			{
				"x": -0.4023959765,
				"y": 1.0463115868,
				"z": 2.7445114218,
				"element": "C" 
			},
			{
				"x": 0.2517452578,
				"y": -0.1727568889,
				"z": 2.6084352831,
				"element": "C" 
			},
			{
				"x": 0.2282513545,
				"y": -0.8111610762,
				"z": 1.369420419,
				"element": "C" 
			},
			{
				"x": -0.4260563048,
				"y": -0.2628578676,
				"z": 0.2706713988,
				"element": "C" 
			},
			{
				"x": 0.9149557867,
				"y": -2.1018410141,
				"z": 1.2145718893,
				"element": "N" 
			},
			{
				"x": 1.4771167206,
				"y": -2.5670469224,
				"z": 2.2038162886,
				"element": "O" 
			},
			{
				"x": 0.8857007882,
				"y": -2.6301375906,
				"z": 0.1037353236,
				"element": "O" 
			},
			{
				"x": -0.4487831925,
				"y": 0.9869473234,
				"z": -1.9220364036,
				"element": "H" 
			},
			{
				"x": -0.4085471599,
				"y": 1.5855334819,
				"z": 3.6848714689,
				"element": "H" 
			},
			{
				"x": 0.7754624861,
				"y": -0.6334817432,
				"z": 3.4365507942,
				"element": "H" 
			},
			{
				"x": -0.4336430658,
				"y": -0.8204728672,
				"z": -0.6589548832,
				"element": "H" 
			}
		],
		 "valence_orbital": [ 
			{
				"type": "occ",
				"energy": -0.32773,
				"method": "rhf"
			},
			{
				"type": "occ",
				"energy": -0.31147,
				"method": "rhf"
			},
			{
				"type": "occ",
				"energy": -0.31031,
				"method": "rhf"
			},
			{
				"type": "occ",
				"energy": -0.29852,
				"method": "rhf"
			},
			{
				"type": "occ",
				"energy": -0.28872,
				"method": "rhf"
			},
			{
				"type": "unocc",
				"energy": -0.10881,
				"method": "rhf"
			},
			{
				"type": "unocc",
				"energy": -0.07749,
				"method": "rhf"
			},
			{
				"type": "unocc",
				"energy": -0.0276,
				"method": "rhf"
			},
			{
				"type": "unocc",
				"energy": 0.0189,
				"method": "rhf"
			},
			{
				"type": "unocc",
				"energy": 0.0477,
				"method": "rhf"
			}
		],
		"cosmo_sigma_profile": { 
			"-0.025": 0.0,
			"-0.024": 0.0,
			"-0.023": 0.0,
			"-0.022": 0.0,
			"-0.021": 0.0,
			"-0.02": 0.363902925687,
			"-0.019": 0.93176337782,
			"-0.018": 1.37937146497,
			"-0.017": 0.484751094423,
			"-0.016": 0.918328683927,
			"-0.015": 1.1936843775,
			"-0.014": 1.14722131096,
			"-0.013": 1.12179389497,
			"-0.012": 1.31847712678,
			"-0.011": 0.958129420697,
			"-0.01": 2.09432550896,
			"-0.009": 4.83129312507,
			"-0.008": 6.15484530994,
			"-0.007": 6.98323032919,
			"-0.006": 7.47185472539,
			"-0.005": 8.05903011711,
			"-0.004": 9.34788626137,
			"-0.003": 17.3216446242,
			"-0.002": 16.5641696031,
			"-0.001": 11.2686115266,
			"0.0": 7.26667297688,
			"0.001": 5.39921176467,
			"0.002": 8.26157314766,
			"0.003": 8.1955560871,
			"0.004": 5.97167095231,
			"0.005": 5.72779890302,
			"0.006": 7.64060615807,
			"0.007": 11.95384348,
			"0.008": 9.06385302168,
			"0.009": 8.86895160559,
			"0.01": 6.57373232682,
			"0.011": 5.29225205673,
			"0.012": 1.73475005613,
			"0.013": 0.0910943456855,
			"0.014": 0.0,
			"0.015": 0.0,
			"0.016": 0.0,
			"0.017": 0.0,
			"0.018": 0.0,
			"0.019": 0.0,
			"0.02": 0.0,
			"0.021": 0.0,
			"0.022": 0.0,
			"0.023": 0.0,
			"0.024": 0.0,
			"0.025": 0.0
		}
	}
}
