{
	 "smiles": "CCNC(C)=O", 
	 "Tm": 241.15, 
	 "num_atms": 15, 
	 "gaussian": { 
		 "optdone": 1, 
		 "sigma_profile": "yes", 
		 "theory": "DFT", 
		 "functional": "B3LYP", 
		 "basiset": "6-31G**", 
		 "properties": { 
			 "R2extent": 1918.7502, 
			 "electric_dipole_moment_norm": 3.55695868404, 
			 "electric_quadrupole_moment_norm": 14.4924714076, 
			 "total_energy": -287.849246345, 
			 "HOMO_LUMO_gap": 0.27634, 
			 "cosmo_polarized_energy": -10.94, 
			 "cosmo_cavitation_energy": 18.14, 
			 "cosmo_dispersion_energy": -13.33, 
			 "cosmo_repulsion_energy": 1.18, 
			 "cosmo_total_nonelectrostatic_energy": 6.0, 
			 "SMD_solvation_energy": 3.86 
		},
		"coords": [
			{
				"x": -1.6565774514,
				"y": 0.2041927889,
				"z": 1.3138226096,
				"element": "C" 
			},
			{
				"x": -2.6080255966,
				"y": -0.8195299619,
				"z": 0.6877320459,
				"element": "C" 
			},
			{
				"x": -1.9746321568,
				"y": -1.6407339392,
				"z": -0.3354083884,
				"element": "N" 
			},
			{
				"x": -1.5603004862,
				"y": -2.923543713,
				"z": -0.0940089017,
				"element": "C" 
			},
			{
				"x": -0.8515431807,
				"y": -3.6086909552,
				"z": -1.2543035258,
				"element": "C" 
			},
			{
				"x": -1.7472709679,
				"y": -3.493239143,
				"z": 0.9742667637,
				"element": "O" 
			},
			{
				"x": -0.8145647108,
				"y": -0.3001680991,
				"z": 1.796644859,
				"element": "H" 
			},
			{
				"x": -1.2570112261,
				"y": 0.8933257305,
				"z": 0.5610972169,
				"element": "H" 
			},
			{
				"x": -2.1789390454,
				"y": 0.8006564099,
				"z": 2.0694051147,
				"element": "H" 
			},
			{
				"x": -2.9723791668,
				"y": -1.5141423446,
				"z": 1.4476070625,
				"element": "H" 
			},
			{
				"x": -3.476681011,
				"y": -0.3146284547,
				"z": 0.247864688,
				"element": "H" 
			},
			{
				"x": -1.7328618427,
				"y": -1.2108763477,
				"z": -1.2153811195,
				"element": "H" 
			},
			{
				"x": -0.8136898681,
				"y": -3.0101898234,
				"z": -2.1691362449,
				"element": "H" 
			},
			{
				"x": 0.1696921306,
				"y": -3.852978743,
				"z": -0.9480386668,
				"element": "H" 
			},
			{
				"x": -1.3611154203,
				"y": -4.5520534046,
				"z": -1.4664635132,
				"element": "H" 
			}
		],
		 "valence_orbital": [ 
			{
				"type": "occ",
				"energy": -0.37014,
				"method": "rhf"
			},
			{
				"type": "occ",
				"energy": -0.34988,
				"method": "rhf"
			},
			{
				"type": "occ",
				"energy": -0.34407,
				"method": "rhf"
			},
			{
				"type": "occ",
				"energy": -0.24688,
				"method": "rhf"
			},
			{
				"type": "occ",
				"energy": -0.23994,
				"method": "rhf"
			},
			{
				"type": "unocc",
				"energy": 0.0364,
				"method": "rhf"
			},
			{
				"type": "unocc",
				"energy": 0.0736,
				"method": "rhf"
			},
			{
				"type": "unocc",
				"energy": 0.11333,
				"method": "rhf"
			},
			{
				"type": "unocc",
				"energy": 0.13176,
				"method": "rhf"
			},
			{
				"type": "unocc",
				"energy": 0.15095,
				"method": "rhf"
			}
		],
		"cosmo_sigma_profile": { 
			"-0.025": 0.0,
			"-0.024": 0.0,
			"-0.023": 0.0,
			"-0.022": 0.0,
			"-0.021": 0.0,
			"-0.02": 0.0,
			"-0.019": 0.0,
			"-0.018": 0.0,
			"-0.017": 0.0,
			"-0.016": 0.0,
			"-0.015": 0.0,
			"-0.014": 0.463148221632,
			"-0.013": 1.6111906609,
			"-0.012": 0.769718091822,
			"-0.011": 1.68076337486,
			"-0.01": 1.4823487799,
			"-0.009": 1.34122551721,
			"-0.008": 1.23299019585,
			"-0.007": 1.82858452026,
			"-0.006": 2.82167948428,
			"-0.005": 6.60326439271,
			"-0.004": 11.1358880467,
			"-0.003": 15.3196330913,
			"-0.002": 17.5772053773,
			"-0.001": 19.7603846524,
			"0.0": 14.125115446,
			"0.001": 10.4674183302,
			"0.002": 4.88905623953,
			"0.003": 2.62494469161,
			"0.004": 2.25122655829,
			"0.005": 1.87065891737,
			"0.006": 1.86527164731,
			"0.007": 1.40990037206,
			"0.008": 1.42870388079,
			"0.009": 1.42673120439,
			"0.01": 0.909002739903,
			"0.011": 1.90635946786,
			"0.012": 1.61178148016,
			"0.013": 1.73751512896,
			"0.014": 5.08249356685,
			"0.015": 3.73273075321,
			"0.016": 0.515366093449,
			"0.017": 0.0,
			"0.018": 0.0,
			"0.019": 0.0,
			"0.02": 0.0,
			"0.021": 0.0,
			"0.022": 0.0,
			"0.023": 0.0,
			"0.024": 0.0,
			"0.025": 0.0
		}
	}
}
