{
	 "smiles": "BrC1=CC(Br)=C(NN=C(/C#N)C2=NC3=C(N2)C=CC=C3)C(Br)=C1", 
	 "Tm": 543.15, 
	 "num_atms": 31, 
	 "gaussian": { 
		 "optdone": 1, 
		 "sigma_profile": "yes", 
		 "theory": "DFT", 
		 "functional": "B3LYP", 
		 "basiset": "6-31G**", 
		 "properties": { 
			 "R2extent": 20297.7052, 
			 "electric_dipole_moment_norm": 0.960722441707, 
			 "electric_quadrupole_moment_norm": 16.7726166426, 
			 "total_energy": -8564.32993127, 
			 "HOMO_LUMO_gap": 0.12645, 
			 "cosmo_polarized_energy": -18.87, 
			 "cosmo_cavitation_energy": 45.32, 
			 "cosmo_dispersion_energy": -32.6, 
			 "cosmo_repulsion_energy": 2.47, 
			 "cosmo_total_nonelectrostatic_energy": 15.19, 
			 "SMD_solvation_energy": 2.66 
		},
		"coords": [
			{
				"x": -3.572307387,
				"y": 6.3214203559,
				"z": 1.1016722272,
				"element": "Br" 
			},
			{
				"x": -3.2625249088,
				"y": 4.4914983997,
				"z": 0.6808033743,
				"element": "C" 
			},
			{
				"x": -1.9991822193,
				"y": 4.085388204,
				"z": 0.2641532022,
				"element": "C" 
			},
			{
				"x": -1.7661795407,
				"y": 2.7478925575,
				"z": -0.0538748669,
				"element": "C" 
			},
			{
				"x": -0.0433132196,
				"y": 2.3299156426,
				"z": -0.7381807833,
				"element": "Br" 
			},
			{
				"x": -2.7867817378,
				"y": 1.7817541363,
				"z": 0.0772677975,
				"element": "C" 
			},
			{
				"x": -2.6255284559,
				"y": 0.423547002,
				"z": -0.2216498845,
				"element": "N" 
			},
			{
				"x": -1.5115064238,
				"y": -0.2280989522,
				"z": 0.0796067233,
				"element": "N" 
			},
			{
				"x": -1.4339693605,
				"y": -1.5092734775,
				"z": -0.1511245287,
				"element": "C" 
			},
			{
				"x": -2.5332928215,
				"y": -2.2470798175,
				"z": -0.7157374266,
				"element": "C" 
			},
			{
				"x": -3.4474331512,
				"y": -2.8072318489,
				"z": -1.1720449463,
				"element": "N" 
			},
			{
				"x": -0.2085580813,
				"y": -2.242474007,
				"z": 0.1667791373,
				"element": "C" 
			},
			{
				"x": 0.8948543045,
				"y": -1.7338852012,
				"z": 0.6680524804,
				"element": "N" 
			},
			{
				"x": 1.7573453027,
				"y": -2.807147321,
				"z": 0.7881134015,
				"element": "C" 
			},
			{
				"x": 1.1369991541,
				"y": -4.0014664994,
				"z": 0.3379516103,
				"element": "C" 
			},
			{
				"x": -0.1268398306,
				"y": -3.6076255154,
				"z": -0.0553729201,
				"element": "N" 
			},
			{
				"x": 1.7866574564,
				"y": -5.23786893,
				"z": 0.3482960883,
				"element": "C" 
			},
			{
				"x": 3.0931804777,
				"y": -5.2507166509,
				"z": 0.8279496045,
				"element": "C" 
			},
			{
				"x": 3.7275426166,
				"y": -4.0735777711,
				"z": 1.2803096579,
				"element": "C" 
			},
			{
				"x": 3.0753532723,
				"y": -2.8468041023,
				"z": 1.2671346415,
				"element": "C" 
			},
			{
				"x": -4.0552929569,
				"y": 2.2436728403,
				"z": 0.4867030026,
				"element": "C" 
			},
			{
				"x": -5.5093408309,
				"y": 1.0114655118,
				"z": 0.6496770563,
				"element": "Br" 
			},
			{
				"x": -4.3075413284,
				"y": 3.5779233091,
				"z": 0.7803099613,
				"element": "C" 
			},
			{
				"x": -1.196238399,
				"y": 4.8034082037,
				"z": 0.1617213443,
				"element": "H" 
			},
			{
				"x": -3.4705272207,
				"y": -0.0931125971,
				"z": -0.4683380626,
				"element": "H" 
			},
			{
				"x": -0.8545416068,
				"y": -4.195455616,
				"z": -0.434450198,
				"element": "H" 
			},
			{
				"x": 1.3023895419,
				"y": -6.1454885306,
				"z": 0.0012370958,
				"element": "H" 
			},
			{
				"x": 3.6378648082,
				"y": -6.1897350766,
				"z": 0.8547627967,
				"element": "H" 
			},
			{
				"x": 4.7482540986,
				"y": -4.1335323652,
				"z": 1.6459066967,
				"element": "H" 
			},
			{
				"x": 3.556603965,
				"y": -1.9381686791,
				"z": 1.6133920711,
				"element": "H" 
			},
			{
				"x": -5.2949455174,
				"y": 3.8905567961,
				"z": 1.0930736458,
				"element": "H" 
			}
		],
		 "valence_orbital": [ 
			{
				"type": "occ",
				"energy": -0.27686,
				"method": "rhf"
			},
			{
				"type": "occ",
				"energy": -0.26337,
				"method": "rhf"
			},
			{
				"type": "occ",
				"energy": -0.25162,
				"method": "rhf"
			},
			{
				"type": "occ",
				"energy": -0.23254,
				"method": "rhf"
			},
			{
				"type": "occ",
				"energy": -0.21477,
				"method": "rhf"
			},
			{
				"type": "unocc",
				"energy": -0.08832,
				"method": "rhf"
			},
			{
				"type": "unocc",
				"energy": -0.04914,
				"method": "rhf"
			},
			{
				"type": "unocc",
				"energy": -0.04372,
				"method": "rhf"
			},
			{
				"type": "unocc",
				"energy": -0.03227,
				"method": "rhf"
			},
			{
				"type": "unocc",
				"energy": -0.01272,
				"method": "rhf"
			}
		],
		"cosmo_sigma_profile": { 
			"-0.025": 0.0,
			"-0.024": 0.0,
			"-0.023": 0.0,
			"-0.022": 0.0,
			"-0.021": 0.0,
			"-0.02": 0.0,
			"-0.019": 0.0,
			"-0.018": 0.0,
			"-0.017": 0.330822999797,
			"-0.016": 1.13926910758,
			"-0.015": 0.84928191695,
			"-0.014": 0.906349166441,
			"-0.013": 1.60105844233,
			"-0.012": 1.62014025755,
			"-0.011": 2.34527407728,
			"-0.01": 2.07031291345,
			"-0.009": 4.3953714104,
			"-0.008": 6.95008898389,
			"-0.007": 7.89437971249,
			"-0.006": 13.489338733,
			"-0.005": 20.8364397904,
			"-0.004": 23.6357729875,
			"-0.003": 21.9523474582,
			"-0.002": 25.0463023998,
			"-0.001": 34.2173561718,
			"0.0": 39.4729351524,
			"0.001": 28.1627531344,
			"0.002": 28.0520787113,
			"0.003": 35.0126290624,
			"0.004": 25.1173659646,
			"0.005": 13.9357126298,
			"0.006": 8.30897326573,
			"0.007": 4.93762237464,
			"0.008": 4.58973210344,
			"0.009": 4.93791424846,
			"0.01": 4.20894541445,
			"0.011": 3.93384448512,
			"0.012": 1.74057214083,
			"0.013": 1.93779060484,
			"0.014": 1.3015036969,
			"0.015": 1.27273079348,
			"0.016": 0.948252684928,
			"0.017": 0.168848092462,
			"0.018": 0.0,
			"0.019": 0.0,
			"0.02": 0.0,
			"0.021": 0.0,
			"0.022": 0.0,
			"0.023": 0.0,
			"0.024": 0.0,
			"0.025": 0.0
		}
	}
}
