{
	 "smiles": "CCNS(=O)(=O)C1=CC2=C(CCN2)C=C1", 
	 "Tm": 386.15, 
	 "num_atms": 29, 
	 "gaussian": { 
		 "optdone": 1, 
		 "sigma_profile": "yes", 
		 "theory": "DFT", 
		 "functional": "B3LYP", 
		 "basiset": "6-31G**", 
		 "properties": { 
			 "R2extent": 4839.8278, 
			 "electric_dipole_moment_norm": 6.07395019818, 
			 "electric_quadrupole_moment_norm": 18.1568281327, 
			 "total_energy": -1047.5767472, 
			 "HOMO_LUMO_gap": 0.17864, 
			 "cosmo_polarized_energy": -17.23, 
			 "cosmo_cavitation_energy": 33.09, 
			 "cosmo_dispersion_energy": -24.41, 
			 "cosmo_repulsion_energy": 1.91, 
			 "cosmo_total_nonelectrostatic_energy": 10.59, 
			 "SMD_solvation_energy": 2.72 
		},
		"coords": [
			{
				"x": -3.0983135018,
				"y": 3.5046075488,
				"z": -1.1304439882,
				"element": "C" 
			},
			{
				"x": -3.1283277766,
				"y": 2.1853821553,
				"z": -0.3634723487,
				"element": "C" 
			},
			{
				"x": -1.966594813,
				"y": 2.1102940317,
				"z": 0.5395568638,
				"element": "N" 
			},
			{
				"x": -1.7886527618,
				"y": 0.7000295645,
				"z": 1.4640443179,
				"element": "S" 
			},
			{
				"x": -3.0971089256,
				"y": 0.0873889289,
				"z": 1.7362390008,
				"element": "O" 
			},
			{
				"x": -0.8991483943,
				"y": 1.0926999128,
				"z": 2.5623848295,
				"element": "O" 
			},
			{
				"x": -0.9104603507,
				"y": -0.3839408983,
				"z": 0.3372415157,
				"element": "C" 
			},
			{
				"x": -1.5927650875,
				"y": -1.4861821811,
				"z": -0.1891656559,
				"element": "C" 
			},
			{
				"x": -0.8843950482,
				"y": -2.3188769235,
				"z": -1.0565898985,
				"element": "C" 
			},
			{
				"x": 0.4583976946,
				"y": -2.0509409084,
				"z": -1.3823250215,
				"element": "C" 
			},
			{
				"x": 0.9476475133,
				"y": -3.150155821,
				"z": -2.3021049293,
				"element": "C" 
			},
			{
				"x": -0.3771629095,
				"y": -3.8012017903,
				"z": -2.7725741973,
				"element": "C" 
			},
			{
				"x": -1.3158417092,
				"y": -3.4912339885,
				"z": -1.6781616822,
				"element": "N" 
			},
			{
				"x": 1.1136392141,
				"y": -0.9572014016,
				"z": -0.8339677563,
				"element": "C" 
			},
			{
				"x": 0.4243049981,
				"y": -0.1045140638,
				"z": 0.037147554,
				"element": "C" 
			},
			{
				"x": -3.1734814219,
				"y": 4.3605364067,
				"z": -0.4499630316,
				"element": "H" 
			},
			{
				"x": -2.1712588864,
				"y": 3.6040022798,
				"z": -1.7018736216,
				"element": "H" 
			},
			{
				"x": -3.9438420344,
				"y": 3.5582452835,
				"z": -1.8228916472,
				"element": "H" 
			},
			{
				"x": -3.0521778675,
				"y": 1.3455955707,
				"z": -1.0623408374,
				"element": "H" 
			},
			{
				"x": -4.0745125221,
				"y": 2.0699426202,
				"z": 0.180564744,
				"element": "H" 
			},
			{
				"x": -1.9109083078,
				"y": 2.8896041764,
				"z": 1.1938491363,
				"element": "H" 
			},
			{
				"x": -2.6233214113,
				"y": -1.6724127998,
				"z": 0.0914858928,
				"element": "H" 
			},
			{
				"x": 1.5554814002,
				"y": -2.7923216723,
				"z": -3.1378013319,
				"element": "H" 
			},
			{
				"x": 1.5535709058,
				"y": -3.8727521717,
				"z": -1.7395410209,
				"element": "H" 
			},
			{
				"x": -0.2915960203,
				"y": -4.8811379443,
				"z": -2.9204806665,
				"element": "H" 
			},
			{
				"x": -0.7048970285,
				"y": -3.3494139491,
				"z": -3.7219833092,
				"element": "H" 
			},
			{
				"x": -2.3025911432,
				"y": -3.5681445152,
				"z": -1.886994295,
				"element": "H" 
			},
			{
				"x": 2.1527820115,
				"y": -0.7554357178,
				"z": -1.0794459955,
				"element": "H" 
			},
			{
				"x": 0.9122341842,
				"y": 0.7556382672,
				"z": 0.4802073797,
				"element": "H" 
			}
		],
		 "valence_orbital": [ 
			{
				"type": "occ",
				"energy": -0.29816,
				"method": "rhf"
			},
			{
				"type": "occ",
				"energy": -0.28886,
				"method": "rhf"
			},
			{
				"type": "occ",
				"energy": -0.26833,
				"method": "rhf"
			},
			{
				"type": "occ",
				"energy": -0.2537,
				"method": "rhf"
			},
			{
				"type": "occ",
				"energy": -0.20587,
				"method": "rhf"
			},
			{
				"type": "unocc",
				"energy": -0.02723,
				"method": "rhf"
			},
			{
				"type": "unocc",
				"energy": 0.00025,
				"method": "rhf"
			},
			{
				"type": "unocc",
				"energy": 0.06737,
				"method": "rhf"
			},
			{
				"type": "unocc",
				"energy": 0.07866,
				"method": "rhf"
			},
			{
				"type": "unocc",
				"energy": 0.09261,
				"method": "rhf"
			}
		],
		"cosmo_sigma_profile": { 
			"-0.025": 0.0,
			"-0.024": 0.0,
			"-0.023": 0.0,
			"-0.022": 0.0,
			"-0.021": 0.0,
			"-0.02": 0.0,
			"-0.019": 0.0,
			"-0.018": 0.0,
			"-0.017": 0.0,
			"-0.016": 0.0,
			"-0.015": 0.0,
			"-0.014": 0.457003618221,
			"-0.013": 2.01116870527,
			"-0.012": 2.72623233367,
			"-0.011": 2.16982423416,
			"-0.01": 2.66616361689,
			"-0.009": 1.91680945444,
			"-0.008": 2.92496582078,
			"-0.007": 3.85404233516,
			"-0.006": 7.30130532674,
			"-0.005": 11.9684612709,
			"-0.004": 27.2618607149,
			"-0.003": 32.0945141104,
			"-0.002": 26.9214499888,
			"-0.001": 21.7629601788,
			"0.0": 16.2722429317,
			"0.001": 11.0725487902,
			"0.002": 10.6474605321,
			"0.003": 13.2441086187,
			"0.004": 13.300137075,
			"0.005": 7.34838130397,
			"0.006": 5.22658778071,
			"0.007": 4.65728721311,
			"0.008": 4.99771621863,
			"0.009": 3.52851400306,
			"0.01": 6.93608621778,
			"0.011": 9.98657942251,
			"0.012": 7.06477959406,
			"0.013": 0.52118241623,
			"0.014": 0.0,
			"0.015": 0.0,
			"0.016": 0.0,
			"0.017": 0.0,
			"0.018": 0.0,
			"0.019": 0.0,
			"0.02": 0.0,
			"0.021": 0.0,
			"0.022": 0.0,
			"0.023": 0.0,
			"0.024": 0.0,
			"0.025": 0.0
		}
	}
}
