{
	 "smiles": "CC1=CC=C(C=C1)C(=O)NN", 
	 "Tm": 390.15, 
	 "num_atms": 21, 
	 "gaussian": { 
		 "optdone": 1, 
		 "sigma_profile": "yes", 
		 "theory": "DFT", 
		 "functional": "B3LYP", 
		 "basiset": "6-31G**", 
		 "properties": { 
			 "R2extent": 2550.2007, 
			 "electric_dipole_moment_norm": 4.04585127136, 
			 "electric_quadrupole_moment_norm": 11.5107824148, 
			 "total_energy": -495.587513172, 
			 "HOMO_LUMO_gap": 0.20302, 
			 "cosmo_polarized_energy": -13.61, 
			 "cosmo_cavitation_energy": 24.87, 
			 "cosmo_dispersion_energy": -18.13, 
			 "cosmo_repulsion_energy": 1.47, 
			 "cosmo_total_nonelectrostatic_energy": 8.21, 
			 "SMD_solvation_energy": 5.43 
		},
		"coords": [
			{
				"x": 0.1834342964,
				"y": 4.6420219711,
				"z": 1.5122255252,
				"element": "C" 
			},
			{
				"x": 0.4085640289,
				"y": 3.3443293535,
				"z": 0.7741931232,
				"element": "C" 
			},
			{
				"x": -0.0818272373,
				"y": 3.1616263996,
				"z": -0.5274570817,
				"element": "C" 
			},
			{
				"x": 0.106836763,
				"y": 1.960641084,
				"z": -1.2038724566,
				"element": "C" 
			},
			{
				"x": 0.7711725909,
				"y": 0.8913228747,
				"z": -0.587108198,
				"element": "C" 
			},
			{
				"x": 1.2776859922,
				"y": 1.0715017653,
				"z": 0.7073614909,
				"element": "C" 
			},
			{
				"x": 1.1030648612,
				"y": 2.2842462276,
				"z": 1.3720920447,
				"element": "C" 
			},
			{
				"x": 0.9888182429,
				"y": -0.3502032445,
				"z": -1.401421399,
				"element": "C" 
			},
			{
				"x": 1.1859717261,
				"y": -0.2985018068,
				"z": -2.6102898211,
				"element": "O" 
			},
			{
				"x": 0.9802122875,
				"y": -1.5735111563,
				"z": -0.7533812174,
				"element": "N" 
			},
			{
				"x": 0.2593983189,
				"y": -1.8824943245,
				"z": 0.4230700211,
				"element": "N" 
			},
			{
				"x": 0.93949799,
				"y": 4.7993735426,
				"z": 2.2868042131,
				"element": "H" 
			},
			{
				"x": -0.7967740521,
				"y": 4.6499427457,
				"z": 2.0054430831,
				"element": "H" 
			},
			{
				"x": 0.2093045531,
				"y": 5.4985854123,
				"z": 0.8317651215,
				"element": "H" 
			},
			{
				"x": -0.6071167412,
				"y": 3.9766277874,
				"z": -1.0192543553,
				"element": "H" 
			},
			{
				"x": -0.2457839753,
				"y": 1.8340140235,
				"z": -2.2222385602,
				"element": "H" 
			},
			{
				"x": 1.8493093164,
				"y": 0.2816370803,
				"z": 1.1848667579,
				"element": "H" 
			},
			{
				"x": 1.5194770061,
				"y": 2.4126852369,
				"z": 2.3680708114,
				"element": "H" 
			},
			{
				"x": 1.0269254604,
				"y": -2.3481598551,
				"z": -1.4053825372,
				"element": "H" 
			},
			{
				"x": -0.5803323773,
				"y": -1.3109482108,
				"z": 0.4809651003,
				"element": "H" 
			},
			{
				"x": 0.8308609492,
				"y": -1.6770369064,
				"z": 1.2370483341,
				"element": "H" 
			}
		],
		 "valence_orbital": [ 
			{
				"type": "occ",
				"energy": -0.29493,
				"method": "rhf"
			},
			{
				"type": "occ",
				"energy": -0.26047,
				"method": "rhf"
			},
			{
				"type": "occ",
				"energy": -0.25839,
				"method": "rhf"
			},
			{
				"type": "occ",
				"energy": -0.2498,
				"method": "rhf"
			},
			{
				"type": "occ",
				"energy": -0.23853,
				"method": "rhf"
			},
			{
				"type": "unocc",
				"energy": -0.03551,
				"method": "rhf"
			},
			{
				"type": "unocc",
				"energy": -0.01026,
				"method": "rhf"
			},
			{
				"type": "unocc",
				"energy": 0.0466,
				"method": "rhf"
			},
			{
				"type": "unocc",
				"energy": 0.06841,
				"method": "rhf"
			},
			{
				"type": "unocc",
				"energy": 0.09881,
				"method": "rhf"
			}
		],
		"cosmo_sigma_profile": { 
			"-0.025": 0.0,
			"-0.024": 0.0,
			"-0.023": 0.0,
			"-0.022": 0.0,
			"-0.021": 0.0,
			"-0.02": 0.0,
			"-0.019": 0.0,
			"-0.018": 0.0,
			"-0.017": 0.0,
			"-0.016": 0.0,
			"-0.015": 0.0,
			"-0.014": 0.0,
			"-0.013": 0.556589469944,
			"-0.012": 1.81531355787,
			"-0.011": 3.82798292246,
			"-0.01": 4.18207790873,
			"-0.009": 3.58860337675,
			"-0.008": 3.7973097151,
			"-0.007": 3.51915154505,
			"-0.006": 6.06509815393,
			"-0.005": 12.7527750963,
			"-0.004": 17.2715794604,
			"-0.003": 14.5719490623,
			"-0.002": 14.082642157,
			"-0.001": 15.6249814145,
			"0.0": 16.5491261964,
			"0.001": 10.2325859142,
			"0.002": 9.18672211896,
			"0.003": 9.01017994196,
			"0.004": 12.5111084667,
			"0.005": 9.49488468156,
			"0.006": 3.083461234,
			"0.007": 2.08516104902,
			"0.008": 2.52011121928,
			"0.009": 2.54418777284,
			"0.01": 1.99959482088,
			"0.011": 1.44385572265,
			"0.012": 3.13387541862,
			"0.013": 5.67112949697,
			"0.014": 4.33730407538,
			"0.015": 0.580958187696,
			"0.016": 0.51777828559,
			"0.017": 0.0,
			"0.018": 0.0,
			"0.019": 0.0,
			"0.02": 0.0,
			"0.021": 0.0,
			"0.022": 0.0,
			"0.023": 0.0,
			"0.024": 0.0,
			"0.025": 0.0
		}
	}
}
