{
	 "smiles": "FC1=CC(=CC=C1)S(=O)(=O)NC1CCCNC1", 
	 "Tm": 411.15, 
	 "num_atms": 32, 
	 "gaussian": { 
		 "optdone": 1, 
		 "sigma_profile": "yes", 
		 "theory": "DFT", 
		 "functional": "B3LYP", 
		 "basiset": "6-31G**", 
		 "properties": { 
			 "R2extent": 5246.9139, 
			 "electric_dipole_moment_norm": 3.63700814819, 
			 "electric_quadrupole_moment_norm": 16.418051469, 
			 "total_energy": -1186.10260362, 
			 "HOMO_LUMO_gap": 0.1693, 
			 "cosmo_polarized_energy": -14.09, 
			 "cosmo_cavitation_energy": 34.66, 
			 "cosmo_dispersion_energy": -25.38, 
			 "cosmo_repulsion_energy": 1.89, 
			 "cosmo_total_nonelectrostatic_energy": 11.16, 
			 "SMD_solvation_energy": 1.94 
		},
		"coords": [
			{
				"x": -4.8035670433,
				"y": 0.584776044,
				"z": 1.1013869122,
				"element": "F" 
			},
			{
				"x": -3.7071088019,
				"y": 1.0736188996,
				"z": 0.4931284908,
				"element": "C" 
			},
			{
				"x": -2.6339719558,
				"y": 0.2191705699,
				"z": 0.2616701712,
				"element": "C" 
			},
			{
				"x": -1.5106346472,
				"y": 0.74968915,
				"z": -0.3709400431,
				"element": "C" 
			},
			{
				"x": -1.4550608383,
				"y": 2.0844982941,
				"z": -0.7790235529,
				"element": "C" 
			},
			{
				"x": -2.5504715973,
				"y": 2.9102367412,
				"z": -0.529236676,
				"element": "C" 
			},
			{
				"x": -3.6862163669,
				"y": 2.4106794585,
				"z": 0.1123359128,
				"element": "C" 
			},
			{
				"x": -0.1094940495,
				"y": -0.3286636784,
				"z": -0.7095812489,
				"element": "S" 
			},
			{
				"x": 0.4175601446,
				"y": 0.0424797296,
				"z": -2.0271616786,
				"element": "O" 
			},
			{
				"x": -0.5500103431,
				"y": -1.7005831104,
				"z": -0.4146984501,
				"element": "O" 
			},
			{
				"x": 1.0638753168,
				"y": 0.1634136999,
				"z": 0.3948909082,
				"element": "N" 
			},
			{
				"x": 1.453645726,
				"y": -0.6322312735,
				"z": 1.5891507467,
				"element": "C" 
			},
			{
				"x": 2.2263010774,
				"y": -1.9258432672,
				"z": 1.2570005431,
				"element": "C" 
			},
			{
				"x": 2.3515285103,
				"y": -2.7876631949,
				"z": 2.5208553786,
				"element": "C" 
			},
			{
				"x": 0.9416940592,
				"y": -3.2227698153,
				"z": 3.0163166492,
				"element": "C" 
			},
			{
				"x": -0.1492088777,
				"y": -2.3434270506,
				"z": 2.5728196301,
				"element": "N" 
			},
			{
				"x": 0.2519514094,
				"y": -0.944190217,
				"z": 2.5386639323,
				"element": "C" 
			},
			{
				"x": -2.6801965749,
				"y": -0.8232318091,
				"z": 0.5527167163,
				"element": "H" 
			},
			{
				"x": -0.5784738938,
				"y": 2.4610013145,
				"z": -1.2934559378,
				"element": "H" 
			},
			{
				"x": -2.5246994014,
				"y": 3.9498266897,
				"z": -0.8403948947,
				"element": "H" 
			},
			{
				"x": -4.5497281401,
				"y": 3.0352794522,
				"z": 0.3130527662,
				"element": "H" 
			},
			{
				"x": 1.860572604,
				"y": 0.475912957,
				"z": -0.1548887649,
				"element": "H" 
			},
			{
				"x": 2.1311541447,
				"y": 0.0476201607,
				"z": 2.1212570141,
				"element": "H" 
			},
			{
				"x": 1.6866215207,
				"y": -2.478956801,
				"z": 0.481934467,
				"element": "H" 
			},
			{
				"x": 3.2123464391,
				"y": -1.6761176814,
				"z": 0.8476118636,
				"element": "H" 
			},
			{
				"x": 2.865530356,
				"y": -2.2095899865,
				"z": 3.3006680106,
				"element": "H" 
			},
			{
				"x": 2.9782434052,
				"y": -3.6652153147,
				"z": 2.3288802735,
				"element": "H" 
			},
			{
				"x": 0.9374233603,
				"y": -3.2698754239,
				"z": 4.1136825776,
				"element": "H" 
			},
			{
				"x": 0.7117436861,
				"y": -4.2322221448,
				"z": 2.6600196029,
				"element": "H" 
			},
			{
				"x": -0.4508875759,
				"y": -2.6113309202,
				"z": 1.6402822254,
				"element": "H" 
			},
			{
				"x": 0.5353679892,
				"y": -0.6524453063,
				"z": 3.5572198522,
				"element": "H" 
			},
			{
				"x": -0.6076296419,
				"y": -0.3222461659,
				"z": 2.2743366025,
				"element": "H" 
			}
		],
		 "valence_orbital": [ 
			{
				"type": "occ",
				"energy": -0.30608,
				"method": "rhf"
			},
			{
				"type": "occ",
				"energy": -0.29004,
				"method": "rhf"
			},
			{
				"type": "occ",
				"energy": -0.26932,
				"method": "rhf"
			},
			{
				"type": "occ",
				"energy": -0.25732,
				"method": "rhf"
			},
			{
				"type": "occ",
				"energy": -0.2139,
				"method": "rhf"
			},
			{
				"type": "unocc",
				"energy": -0.0446,
				"method": "rhf"
			},
			{
				"type": "unocc",
				"energy": -0.02137,
				"method": "rhf"
			},
			{
				"type": "unocc",
				"energy": 0.04873,
				"method": "rhf"
			},
			{
				"type": "unocc",
				"energy": 0.0566,
				"method": "rhf"
			},
			{
				"type": "unocc",
				"energy": 0.07596,
				"method": "rhf"
			}
		],
		"cosmo_sigma_profile": { 
			"-0.025": 0.0,
			"-0.024": 0.0,
			"-0.023": 0.0,
			"-0.022": 0.0,
			"-0.021": 0.0,
			"-0.02": 0.0,
			"-0.019": 0.0,
			"-0.018": 0.0,
			"-0.017": 0.0,
			"-0.016": 0.0,
			"-0.015": 0.0330405080818,
			"-0.014": 0.767329960296,
			"-0.013": 0.931759765622,
			"-0.012": 0.640509085566,
			"-0.011": 1.13794134312,
			"-0.01": 1.2589067395,
			"-0.009": 1.25205933746,
			"-0.008": 4.14283843293,
			"-0.007": 8.5637307906,
			"-0.006": 9.99603153472,
			"-0.005": 12.0179698112,
			"-0.004": 19.3911141723,
			"-0.003": 23.8068806828,
			"-0.002": 28.7260790855,
			"-0.001": 29.8384806914,
			"0.0": 29.0557026041,
			"0.001": 20.5759755824,
			"0.002": 15.0580530568,
			"0.003": 12.130282352,
			"0.004": 13.4558921748,
			"0.005": 4.88030335028,
			"0.006": 3.64555862899,
			"0.007": 4.07472481347,
			"0.008": 4.30797354218,
			"0.009": 3.92112830598,
			"0.01": 6.57622907428,
			"0.011": 7.2637407383,
			"0.012": 1.84628781055,
			"0.013": 0.779337314497,
			"0.014": 1.11174944037,
			"0.015": 0.205823518991,
			"0.016": 0.774876174643,
			"0.017": 0.488701846238,
			"0.018": 0.46481755051,
			"0.019": 0.210402032609,
			"0.02": 0.0,
			"0.021": 0.0,
			"0.022": 0.0,
			"0.023": 0.0,
			"0.024": 0.0,
			"0.025": 0.0
		}
	}
}
