{
	 "smiles": "CC(C)OC1=C(NC(=O)CCl)C=C(C=C1)S(=O)(=O)N1CCCCC1", 
	 "Tm": 544.15, 
	 "num_atms": 47, 
	 "gaussian": { 
		 "optdone": 1, 
		 "sigma_profile": "yes", 
		 "theory": "DFT", 
		 "functional": "B3LYP", 
		 "basiset": "6-31G**", 
		 "properties": { 
			 "R2extent": 11528.4354, 
			 "electric_dipole_moment_norm": 7.57831647597, 
			 "electric_quadrupole_moment_norm": 24.0733723792, 
			 "total_energy": -1892.30474827, 
			 "HOMO_LUMO_gap": 0.19323, 
			 "cosmo_polarized_energy": -21.22, 
			 "cosmo_cavitation_energy": 50.43, 
			 "cosmo_dispersion_energy": -35.04, 
			 "cosmo_repulsion_energy": 2.69, 
			 "cosmo_total_nonelectrostatic_energy": 18.08, 
			 "SMD_solvation_energy": 6.41 
		},
		"coords": [
			{
				"x": 0.8042765792,
				"y": -0.4269598481,
				"z": 5.0055945663,
				"element": "C" 
			},
			{
				"x": 1.5544042124,
				"y": 0.722758499,
				"z": 4.3306719072,
				"element": "C" 
			},
			{
				"x": 1.0053067161,
				"y": 2.1163347272,
				"z": 4.6345209762,
				"element": "C" 
			},
			{
				"x": 1.7507903649,
				"y": 0.4953022911,
				"z": 2.9097199603,
				"element": "O" 
			},
			{
				"x": 0.7828672036,
				"y": 0.5979428063,
				"z": 1.9547085839,
				"element": "C" 
			},
			{
				"x": 1.2923885182,
				"y": 0.6247422464,
				"z": 0.6277293895,
				"element": "C" 
			},
			{
				"x": 2.692600453,
				"y": 0.5683598823,
				"z": 0.5024500394,
				"element": "N" 
			},
			{
				"x": 3.4215735479,
				"y": 0.4696283711,
				"z": -0.6411799797,
				"element": "C" 
			},
			{
				"x": 2.9776536858,
				"y": 0.4216575819,
				"z": -1.7807952817,
				"element": "O" 
			},
			{
				"x": 4.9469314527,
				"y": 0.4223173252,
				"z": -0.4984483498,
				"element": "C" 
			},
			{
				"x": 5.6256144457,
				"y": 0.423417937,
				"z": 1.185334709,
				"element": "Cl" 
			},
			{
				"x": 0.4171780205,
				"y": 0.7213916667,
				"z": -0.4538950479,
				"element": "C" 
			},
			{
				"x": -0.960207302,
				"y": 0.7775931418,
				"z": -0.2142317831,
				"element": "C" 
			},
			{
				"x": -1.4716898259,
				"y": 0.7461207799,
				"z": 1.0798035232,
				"element": "C" 
			},
			{
				"x": -0.5960347626,
				"y": 0.6584173934,
				"z": 2.163911092,
				"element": "C" 
			},
			{
				"x": -2.0915439011,
				"y": 0.859543712,
				"z": -1.6073588779,
				"element": "S" 
			},
			{
				"x": -3.3923735787,
				"y": 1.278450711,
				"z": -1.0764040204,
				"element": "O" 
			},
			{
				"x": -1.4204525951,
				"y": 1.5924777561,
				"z": -2.6824777356,
				"element": "O" 
			},
			{
				"x": -2.299541026,
				"y": -0.7195387524,
				"z": -2.1704906648,
				"element": "N" 
			},
			{
				"x": -3.0385225631,
				"y": -1.6408762828,
				"z": -1.2900008016,
				"element": "C" 
			},
			{
				"x": -3.5635032968,
				"y": -2.8228124701,
				"z": -2.1131340074,
				"element": "C" 
			},
			{
				"x": -2.4271156404,
				"y": -3.5211482888,
				"z": -2.8722032157,
				"element": "C" 
			},
			{
				"x": -1.6472302148,
				"y": -2.5073026925,
				"z": -3.720199983,
				"element": "C" 
			},
			{
				"x": -1.1542372644,
				"y": -1.3324917394,
				"z": -2.8681322209,
				"element": "C" 
			},
			{
				"x": 1.2265629243,
				"y": -1.3864264439,
				"z": 4.6948807201,
				"element": "H" 
			},
			{
				"x": -0.2652882908,
				"y": -0.4331503761,
				"z": 4.7843207967,
				"element": "H" 
			},
			{
				"x": 0.9176822769,
				"y": -0.3405586229,
				"z": 6.0910472981,
				"element": "H" 
			},
			{
				"x": 2.5892770301,
				"y": 0.6894070774,
				"z": 4.6862820678,
				"element": "H" 
			},
			{
				"x": -0.0410957608,
				"y": 2.236172949,
				"z": 4.3466010499,
				"element": "H" 
			},
			{
				"x": 1.0803158509,
				"y": 2.3027521202,
				"z": 5.710484796,
				"element": "H" 
			},
			{
				"x": 1.5939341498,
				"y": 2.8780886667,
				"z": 4.1159306365,
				"element": "H" 
			},
			{
				"x": 3.1929913501,
				"y": 0.5647642754,
				"z": 1.3834895976,
				"element": "H" 
			},
			{
				"x": 5.3635378373,
				"y": 1.289198561,
				"z": -1.0123430696,
				"element": "H" 
			},
			{
				"x": 5.3045636806,
				"y": -0.4826258829,
				"z": -0.9896513765,
				"element": "H" 
			},
			{
				"x": 0.8148684403,
				"y": 0.7768153211,
				"z": -1.4572892451,
				"element": "H" 
			},
			{
				"x": -2.5414411144,
				"y": 0.814549102,
				"z": 1.239453274,
				"element": "H" 
			},
			{
				"x": -1.0003736411,
				"y": 0.6388914114,
				"z": 3.1658333879,
				"element": "H" 
			},
			{
				"x": -2.386572555,
				"y": -2.0113227859,
				"z": -0.4794336645,
				"element": "H" 
			},
			{
				"x": -3.8645392487,
				"y": -1.0878436235,
				"z": -0.8407244622,
				"element": "H" 
			},
			{
				"x": -4.3104108206,
				"y": -2.4497089933,
				"z": -2.8239589344,
				"element": "H" 
			},
			{
				"x": -4.0724150635,
				"y": -3.5238068315,
				"z": -1.4412404627,
				"element": "H" 
			},
			{
				"x": -2.8247625324,
				"y": -4.3239905098,
				"z": -3.5031123388,
				"element": "H" 
			},
			{
				"x": -1.7449122443,
				"y": -3.9946154203,
				"z": -2.1516886286,
				"element": "H" 
			},
			{
				"x": -0.7835453213,
				"y": -2.9823109553,
				"z": -4.199523471,
				"element": "H" 
			},
			{
				"x": -2.2907381259,
				"y": -2.1167501626,
				"z": -4.5175466227,
				"element": "H" 
			},
			{
				"x": -0.6914035438,
				"y": -0.5686853452,
				"z": -3.4940841575,
				"element": "H" 
			},
			{
				"x": -0.4017685066,
				"y": -1.6878702854,
				"z": -2.1432199685,
				"element": "H" 
			}
		],
		 "valence_orbital": [ 
			{
				"type": "occ",
				"energy": -0.28795,
				"method": "rhf"
			},
			{
				"type": "occ",
				"energy": -0.26933,
				"method": "rhf"
			},
			{
				"type": "occ",
				"energy": -0.25921,
				"method": "rhf"
			},
			{
				"type": "occ",
				"energy": -0.24664,
				"method": "rhf"
			},
			{
				"type": "occ",
				"energy": -0.22513,
				"method": "rhf"
			},
			{
				"type": "unocc",
				"energy": -0.0319,
				"method": "rhf"
			},
			{
				"type": "unocc",
				"energy": -0.02429,
				"method": "rhf"
			},
			{
				"type": "unocc",
				"energy": 0.00726,
				"method": "rhf"
			},
			{
				"type": "unocc",
				"energy": 0.02557,
				"method": "rhf"
			},
			{
				"type": "unocc",
				"energy": 0.0585,
				"method": "rhf"
			}
		],
		"cosmo_sigma_profile": { 
			"-0.025": 0.0,
			"-0.024": 0.0,
			"-0.023": 0.0,
			"-0.022": 0.0,
			"-0.021": 0.0,
			"-0.02": 0.0,
			"-0.019": 0.0,
			"-0.018": 0.0,
			"-0.017": 0.0,
			"-0.016": 0.0,
			"-0.015": 0.0,
			"-0.014": 0.0,
			"-0.013": 0.0,
			"-0.012": 0.0,
			"-0.011": 0.0,
			"-0.01": 0.451381357907,
			"-0.009": 4.12648038296,
			"-0.008": 6.00685833234,
			"-0.007": 7.7489139687,
			"-0.006": 8.98581614155,
			"-0.005": 19.1840385288,
			"-0.004": 31.1173539556,
			"-0.003": 46.9126901335,
			"-0.002": 50.2085286668,
			"-0.001": 46.6391560122,
			"0.0": 41.9293865895,
			"0.001": 25.5206574418,
			"0.002": 20.002596704,
			"0.003": 15.4402405105,
			"0.004": 10.4123547773,
			"0.005": 11.8806454762,
			"0.006": 8.18406872309,
			"0.007": 5.31876287341,
			"0.008": 5.86236470632,
			"0.009": 5.30907674968,
			"0.01": 7.62951091056,
			"0.011": 9.84698806318,
			"0.012": 8.79131439845,
			"0.013": 1.58217024672,
			"0.014": 0.0,
			"0.015": 0.0,
			"0.016": 0.0,
			"0.017": 0.0,
			"0.018": 0.0,
			"0.019": 0.0,
			"0.02": 0.0,
			"0.021": 0.0,
			"0.022": 0.0,
			"0.023": 0.0,
			"0.024": 0.0,
			"0.025": 0.0
		}
	}
}
