{
	 "smiles": "COC(=O)N1CCC2=NNC(=O)C=C2C1", 
	 "Tm": 463.15, 
	 "num_atms": 26, 
	 "gaussian": { 
		 "optdone": 1, 
		 "sigma_profile": "yes", 
		 "theory": "DFT", 
		 "functional": "B3LYP", 
		 "basiset": "6-31G**", 
		 "properties": { 
			 "R2extent": 3937.4407, 
			 "electric_dipole_moment_norm": 2.24089422106, 
			 "electric_quadrupole_moment_norm": 20.1750884189, 
			 "total_energy": -739.510263196, 
			 "HOMO_LUMO_gap": 0.16724, 
			 "cosmo_polarized_energy": -17.41, 
			 "cosmo_cavitation_energy": 29.66, 
			 "cosmo_dispersion_energy": -22.07, 
			 "cosmo_repulsion_energy": 1.74, 
			 "cosmo_total_nonelectrostatic_energy": 9.32, 
			 "SMD_solvation_energy": 5.97 
		},
		"coords": [
			{
				"x": -4.158198381,
				"y": 0.5628007707,
				"z": -2.1351629677,
				"element": "C" 
			},
			{
				"x": -2.8032869069,
				"y": 0.4575721199,
				"z": -1.6746225145,
				"element": "O" 
			},
			{
				"x": -2.2838558287,
				"y": -0.7978261543,
				"z": -1.7350572959,
				"element": "C" 
			},
			{
				"x": -2.894545354,
				"y": -1.7616049104,
				"z": -2.1656421189,
				"element": "O" 
			},
			{
				"x": -1.0017241076,
				"y": -0.8357988814,
				"z": -1.2515210841,
				"element": "N" 
			},
			{
				"x": -0.2563394094,
				"y": -2.0896605402,
				"z": -1.2911425413,
				"element": "C" 
			},
			{
				"x": 0.147279647,
				"y": -2.4872812969,
				"z": 0.1313831604,
				"element": "C" 
			},
			{
				"x": 0.8202070653,
				"y": -1.3369355986,
				"z": 0.846775319,
				"element": "C" 
			},
			{
				"x": 1.6033499322,
				"y": -1.6320102984,
				"z": 1.8525812829,
				"element": "N" 
			},
			{
				"x": 2.1733204886,
				"y": -0.6124763138,
				"z": 2.5093641359,
				"element": "N" 
			},
			{
				"x": 2.043729319,
				"y": 0.7634807451,
				"z": 2.2698734366,
				"element": "C" 
			},
			{
				"x": 2.6273812782,
				"y": 1.5814487464,
				"z": 2.9720058878,
				"element": "O" 
			},
			{
				"x": 1.1783514173,
				"y": 1.0365081381,
				"z": 1.1349652568,
				"element": "C" 
			},
			{
				"x": 0.5833894209,
				"y": 0.0283801836,
				"z": 0.4377900749,
				"element": "C" 
			},
			{
				"x": -0.2715144413,
				"y": 0.3323719091,
				"z": -0.7829233304,
				"element": "C" 
			},
			{
				"x": -4.4166000276,
				"y": 1.6176579405,
				"z": -2.0390975108,
				"element": "H" 
			},
			{
				"x": -4.2390468201,
				"y": 0.2415085985,
				"z": -3.1761721875,
				"element": "H" 
			},
			{
				"x": -4.8246720428,
				"y": -0.0507730735,
				"z": -1.5239867965,
				"element": "H" 
			},
			{
				"x": -0.8956876319,
				"y": -2.842496486,
				"z": -1.7503277453,
				"element": "H" 
			},
			{
				"x": 0.6356065133,
				"y": -1.9614533032,
				"z": -1.9217537081,
				"element": "H" 
			},
			{
				"x": 0.8156957443,
				"y": -3.3533563148,
				"z": 0.1271789299,
				"element": "H" 
			},
			{
				"x": -0.7566906207,
				"y": -2.7788086971,
				"z": 0.6814089785,
				"element": "H" 
			},
			{
				"x": 2.7751033817,
				"y": -0.8782162423,
				"z": 3.2804684182,
				"element": "H" 
			},
			{
				"x": 1.0401976699,
				"y": 2.0811845309,
				"z": 0.8727832256,
				"element": "H" 
			},
			{
				"x": 0.3897641943,
				"y": 0.712472163,
				"z": -1.5788470514,
				"element": "H" 
			},
			{
				"x": -0.9813144999,
				"y": 1.126312265,
				"z": -0.5523212542,
				"element": "H" 
			}
		],
		 "valence_orbital": [ 
			{
				"type": "occ",
				"energy": -0.30318,
				"method": "rhf"
			},
			{
				"type": "occ",
				"energy": -0.27848,
				"method": "rhf"
			},
			{
				"type": "occ",
				"energy": -0.25695,
				"method": "rhf"
			},
			{
				"type": "occ",
				"energy": -0.24838,
				"method": "rhf"
			},
			{
				"type": "occ",
				"energy": -0.23485,
				"method": "rhf"
			},
			{
				"type": "unocc",
				"energy": -0.06761,
				"method": "rhf"
			},
			{
				"type": "unocc",
				"energy": -0.00077,
				"method": "rhf"
			},
			{
				"type": "unocc",
				"energy": 0.04382,
				"method": "rhf"
			},
			{
				"type": "unocc",
				"energy": 0.08839,
				"method": "rhf"
			},
			{
				"type": "unocc",
				"energy": 0.09247,
				"method": "rhf"
			}
		],
		"cosmo_sigma_profile": { 
			"-0.025": 0.0,
			"-0.024": 0.0,
			"-0.023": 0.0,
			"-0.022": 0.0,
			"-0.021": 0.0,
			"-0.02": 0.0,
			"-0.019": 0.0,
			"-0.018": 0.0,
			"-0.017": 0.0,
			"-0.016": 0.660409873621,
			"-0.015": 1.2623491886,
			"-0.014": 0.887553508335,
			"-0.013": 1.04037230012,
			"-0.012": 0.531019556948,
			"-0.011": 0.538825137217,
			"-0.01": 1.09585737655,
			"-0.009": 0.489717434351,
			"-0.008": 3.1551644578,
			"-0.007": 5.88427135509,
			"-0.006": 14.3439224848,
			"-0.005": 21.8066415244,
			"-0.004": 23.2875366492,
			"-0.003": 24.4368889921,
			"-0.002": 21.8253374519,
			"-0.001": 19.6661494701,
			"0.0": 15.6116462913,
			"0.001": 9.08344940909,
			"0.002": 6.78363973654,
			"0.003": 5.80199668846,
			"0.004": 7.22764014049,
			"0.005": 5.44842678521,
			"0.006": 4.55045986753,
			"0.007": 3.67326923438,
			"0.008": 2.8405792258,
			"0.009": 3.04607227732,
			"0.01": 4.17873779815,
			"0.011": 3.75068580761,
			"0.012": 4.06796242076,
			"0.013": 9.0561268073,
			"0.014": 7.2562173189,
			"0.015": 1.58915781526,
			"0.016": 0.00763758272197,
			"0.017": 0.0,
			"0.018": 0.0,
			"0.019": 0.0,
			"0.02": 0.0,
			"0.021": 0.0,
			"0.022": 0.0,
			"0.023": 0.0,
			"0.024": 0.0,
			"0.025": 0.0
		}
	}
}
