{
	 "smiles": "CC1=C(C#N)C(C2=CC(=CC=C2)[N+]([O-])=O)C(C(=O)OC(C)(C)C)=C(C)N1", 
	 "Tm": 334.15, 
	 "num_atms": 47, 
	 "gaussian": { 
		 "optdone": 1, 
		 "sigma_profile": "yes", 
		 "theory": "DFT", 
		 "functional": "B3LYP", 
		 "basiset": "6-31G**", 
		 "properties": { 
			 "R2extent": 9131.4602, 
			 "electric_dipole_moment_norm": 8.60072218189, 
			 "electric_quadrupole_moment_norm": 30.0552247463, 
			 "total_energy": -1201.74180404, 
			 "HOMO_LUMO_gap": 0.13495, 
			 "cosmo_polarized_energy": -24.22, 
			 "cosmo_cavitation_energy": 50.43, 
			 "cosmo_dispersion_energy": -31.8, 
			 "cosmo_repulsion_energy": 2.42, 
			 "cosmo_total_nonelectrostatic_energy": 21.06, 
			 "SMD_solvation_energy": 12.65 
		},
		"coords": [
			{
				"x": 3.3747693818,
				"y": 3.8948374496,
				"z": -0.2871720985,
				"element": "C" 
			},
			{
				"x": 2.6675855194,
				"y": 2.6079304052,
				"z": 0.0245677885,
				"element": "C" 
			},
			{
				"x": 1.9402768301,
				"y": 1.8756259032,
				"z": -0.8577759291,
				"element": "C" 
			},
			{
				"x": 1.8276377668,
				"y": 2.2915609614,
				"z": -2.2144469062,
				"element": "C" 
			},
			{
				"x": 1.720364989,
				"y": 2.6031486775,
				"z": -3.3328549241,
				"element": "N" 
			},
			{
				"x": 1.1861618618,
				"y": 0.6129070223,
				"z": -0.4426292819,
				"element": "C" 
			},
			{
				"x": -0.3268855532,
				"y": 0.8612300333,
				"z": -0.3819328294,
				"element": "C" 
			},
			{
				"x": -1.1942634317,
				"y": 0.1083758033,
				"z": -1.1746643462,
				"element": "C" 
			},
			{
				"x": -2.566669599,
				"y": 0.3334184833,
				"z": -1.092275546,
				"element": "C" 
			},
			{
				"x": -3.1154337623,
				"y": 1.3014952177,
				"z": -0.2548391484,
				"element": "C" 
			},
			{
				"x": -2.2459731982,
				"y": 2.0545244943,
				"z": 0.531922886,
				"element": "C" 
			},
			{
				"x": -0.8690677652,
				"y": 1.8332518726,
				"z": 0.4712020078,
				"element": "C" 
			},
			{
				"x": -3.4692209018,
				"y": -0.4929692381,
				"z": -1.910182435,
				"element": "N" 
			},
			{
				"x": -2.9725506415,
				"y": -1.416382794,
				"z": -2.5571434761,
				"element": "O" 
			},
			{
				"x": -4.6682706264,
				"y": -0.2180905406,
				"z": -1.894749013,
				"element": "O" 
			},
			{
				"x": 1.7292905936,
				"y": 0.0784119499,
				"z": 0.8837494496,
				"element": "C" 
			},
			{
				"x": 1.4389164709,
				"y": -1.3224566818,
				"z": 1.2608514932,
				"element": "C" 
			},
			{
				"x": 1.7177604013,
				"y": -1.8285851829,
				"z": 2.3396806334,
				"element": "O" 
			},
			{
				"x": 0.833714769,
				"y": -1.9809810355,
				"z": 0.2467188103,
				"element": "O" 
			},
			{
				"x": 0.4453808284,
				"y": -3.4023155059,
				"z": 0.3627889868,
				"element": "C" 
			},
			{
				"x": -0.5936952823,
				"y": -3.5668339476,
				"z": 1.4767636844,
				"element": "C" 
			},
			{
				"x": 1.6901722016,
				"y": -4.2668286279,
				"z": 0.5917321955,
				"element": "C" 
			},
			{
				"x": -0.1730240503,
				"y": -3.7010252123,
				"z": -1.005455746,
				"element": "C" 
			},
			{
				"x": 2.4539376529,
				"y": 0.8690504184,
				"z": 1.7260952281,
				"element": "C" 
			},
			{
				"x": 2.9626866582,
				"y": 0.4928332868,
				"z": 3.0940320651,
				"element": "C" 
			},
			{
				"x": 2.808473823,
				"y": 2.1503427192,
				"z": 1.3239380307,
				"element": "N" 
			},
			{
				"x": 3.1873661054,
				"y": 4.2054456082,
				"z": -1.3149244964,
				"element": "H" 
			},
			{
				"x": 4.4574552429,
				"y": 3.7868796896,
				"z": -0.1499813577,
				"element": "H" 
			},
			{
				"x": 3.0327745669,
				"y": 4.693144815,
				"z": 0.3825105256,
				"element": "H" 
			},
			{
				"x": 1.3450819275,
				"y": -0.1494661433,
				"z": -1.2106589939,
				"element": "H" 
			},
			{
				"x": -0.8199562374,
				"y": -0.6525827794,
				"z": -1.8470531507,
				"element": "H" 
			},
			{
				"x": -4.1883516171,
				"y": 1.4432336153,
				"z": -0.2293726125,
				"element": "H" 
			},
			{
				"x": -2.6447286856,
				"y": 2.8144130129,
				"z": 1.1967691801,
				"element": "H" 
			},
			{
				"x": -0.2057353545,
				"y": 2.4253939806,
				"z": 1.0949706291,
				"element": "H" 
			},
			{
				"x": -1.4411945208,
				"y": -2.8958119692,
				"z": 1.3064239675,
				"element": "H" 
			},
			{
				"x": -0.9704436067,
				"y": -4.5947612611,
				"z": 1.4736117413,
				"element": "H" 
			},
			{
				"x": -0.1619445763,
				"y": -3.3534676006,
				"z": 2.4547595247,
				"element": "H" 
			},
			{
				"x": 1.409871149,
				"y": -5.324306662,
				"z": 0.5497646692,
				"element": "H" 
			},
			{
				"x": 2.1429664831,
				"y": -4.0608559116,
				"z": 1.5614724036,
				"element": "H" 
			},
			{
				"x": 2.4301295165,
				"y": -4.0824845967,
				"z": -0.1936218662,
				"element": "H" 
			},
			{
				"x": -1.0510484205,
				"y": -3.0767968211,
				"z": -1.1927122185,
				"element": "H" 
			},
			{
				"x": -0.4837940468,
				"y": -4.7491178234,
				"z": -1.0506645274,
				"element": "H" 
			},
			{
				"x": 0.5537325054,
				"y": -3.525689901,
				"z": -1.8044404496,
				"element": "H" 
			},
			{
				"x": 2.1465271913,
				"y": 0.1689921455,
				"z": 3.7411921627,
				"element": "H" 
			},
			{
				"x": 3.651984375,
				"y": -0.3525428405,
				"z": 3.0354606514,
				"element": "H" 
			},
			{
				"x": 3.4779984364,
				"y": 1.3394558485,
				"z": 3.5603698418,
				"element": "H" 
			},
			{
				"x": 3.3996346304,
				"y": 2.682449663,
				"z": 1.9442027966,
				"element": "H" 
			}
		],
		 "valence_orbital": [ 
			{
				"type": "occ",
				"energy": -0.28222,
				"method": "rhf"
			},
			{
				"type": "occ",
				"energy": -0.27297,
				"method": "rhf"
			},
			{
				"type": "occ",
				"energy": -0.26288,
				"method": "rhf"
			},
			{
				"type": "occ",
				"energy": -0.26226,
				"method": "rhf"
			},
			{
				"type": "occ",
				"energy": -0.2207,
				"method": "rhf"
			},
			{
				"type": "unocc",
				"energy": -0.08575,
				"method": "rhf"
			},
			{
				"type": "unocc",
				"energy": -0.06153,
				"method": "rhf"
			},
			{
				"type": "unocc",
				"energy": -0.01657,
				"method": "rhf"
			},
			{
				"type": "unocc",
				"energy": -0.00334,
				"method": "rhf"
			},
			{
				"type": "unocc",
				"energy": 0.00232,
				"method": "rhf"
			}
		],
		"cosmo_sigma_profile": { 
			"-0.025": 0.0,
			"-0.024": 0.0,
			"-0.023": 0.0,
			"-0.022": 0.0,
			"-0.021": 0.0,
			"-0.02": 0.0,
			"-0.019": 0.0,
			"-0.018": 0.0,
			"-0.017": 0.0,
			"-0.016": 0.604676140743,
			"-0.015": 1.33751695557,
			"-0.014": 1.48280685277,
			"-0.013": 1.3875567668,
			"-0.012": 1.5421419282,
			"-0.011": 1.94842824793,
			"-0.01": 1.17168083328,
			"-0.009": 0.937375475394,
			"-0.008": 3.06311086257,
			"-0.007": 9.32555852081,
			"-0.006": 14.484283147,
			"-0.005": 16.4110598228,
			"-0.004": 30.2208932429,
			"-0.003": 35.077460299,
			"-0.002": 41.1986814307,
			"-0.001": 40.7430337245,
			"0.0": 44.0959590475,
			"0.001": 42.240791631,
			"0.002": 24.864007336,
			"0.003": 10.7795280766,
			"0.004": 9.40061666288,
			"0.005": 8.00473995128,
			"0.006": 6.38606167016,
			"0.007": 11.379947047,
			"0.008": 11.5342078047,
			"0.009": 8.48632852415,
			"0.01": 7.41895945803,
			"0.011": 4.87894254948,
			"0.012": 4.39501089808,
			"0.013": 3.45742334872,
			"0.014": 1.41430460141,
			"0.015": 0.0,
			"0.016": 0.0,
			"0.017": 0.0,
			"0.018": 0.0,
			"0.019": 0.0,
			"0.02": 0.0,
			"0.021": 0.0,
			"0.022": 0.0,
			"0.023": 0.0,
			"0.024": 0.0,
			"0.025": 0.0
		}
	}
}
