{
	 "smiles": "CC1=C(SC=C1)C1=NN=C(N)O1", 
	 "Tm": 421.15, 
	 "num_atms": 19, 
	 "gaussian": { 
		 "optdone": 1, 
		 "sigma_profile": "yes", 
		 "theory": "DFT", 
		 "functional": "B3LYP", 
		 "basiset": "6-31G**", 
		 "properties": { 
			 "R2extent": 3454.6954, 
			 "electric_dipole_moment_norm": 4.69742739486, 
			 "electric_quadrupole_moment_norm": 20.9757790799, 
			 "total_energy": -908.5930041, 
			 "HOMO_LUMO_gap": 0.16297, 
			 "cosmo_polarized_energy": -16.87, 
			 "cosmo_cavitation_energy": 25.36, 
			 "cosmo_dispersion_energy": -19.32, 
			 "cosmo_repulsion_energy": 1.5, 
			 "cosmo_total_nonelectrostatic_energy": 7.54, 
			 "SMD_solvation_energy": 2.85 
		},
		"coords": [
			{
				"x": 0.4781594122,
				"y": -0.5359721427,
				"z": -2.2641460484,
				"element": "C" 
			},
			{
				"x": 1.5209219075,
				"y": -1.2204424192,
				"z": -1.4180717669,
				"element": "C" 
			},
			{
				"x": 2.0528796891,
				"y": -0.7346309402,
				"z": -0.2342918363,
				"element": "C" 
			},
			{
				"x": 3.2393754558,
				"y": -1.8243868917,
				"z": 0.4468470097,
				"element": "S" 
			},
			{
				"x": 3.0188127144,
				"y": -2.9327615748,
				"z": -0.8607488454,
				"element": "C" 
			},
			{
				"x": 2.0899798936,
				"y": -2.4860023591,
				"z": -1.7596432685,
				"element": "C" 
			},
			{
				"x": 1.769850883,
				"y": 0.4906944083,
				"z": 0.4691165981,
				"element": "C" 
			},
			{
				"x": 2.3129903846,
				"y": 0.9409219375,
				"z": 1.5587420831,
				"element": "N" 
			},
			{
				"x": 1.6894792592,
				"y": 2.154504962,
				"z": 1.8612276677,
				"element": "N" 
			},
			{
				"x": 0.8238613133,
				"y": 2.3469916984,
				"z": 0.9115137045,
				"element": "C" 
			},
			{
				"x": 0.0130118015,
				"y": 3.4291630968,
				"z": 0.698983866,
				"element": "N" 
			},
			{
				"x": 0.797501755,
				"y": 1.3494878614,
				"z": -0.0127645209,
				"element": "O" 
			},
			{
				"x": 0.7881709008,
				"y": 0.4728694572,
				"z": -2.5528272027,
				"element": "H" 
			},
			{
				"x": -0.4733229254,
				"y": -0.4360080488,
				"z": -1.7310866898,
				"element": "H" 
			},
			{
				"x": 0.2941246191,
				"y": -1.1094988279,
				"z": -3.1762248588,
				"element": "H" 
			},
			{
				"x": 3.5902530522,
				"y": -3.8502361904,
				"z": -0.8915853173,
				"element": "H" 
			},
			{
				"x": 1.8086124577,
				"y": -3.0350121533,
				"z": -2.6516826128,
				"element": "H" 
			},
			{
				"x": -0.0508621241,
				"y": 4.0349200091,
				"z": 1.5057739969,
				"element": "H" 
			},
			{
				"x": -0.8782004493,
				"y": 3.2257981174,
				"z": 0.2671680418,
				"element": "H" 
			}
		],
		 "valence_orbital": [ 
			{
				"type": "occ",
				"energy": -0.31342,
				"method": "rhf"
			},
			{
				"type": "occ",
				"energy": -0.27061,
				"method": "rhf"
			},
			{
				"type": "occ",
				"energy": -0.26802,
				"method": "rhf"
			},
			{
				"type": "occ",
				"energy": -0.25001,
				"method": "rhf"
			},
			{
				"type": "occ",
				"energy": -0.20859,
				"method": "rhf"
			},
			{
				"type": "unocc",
				"energy": -0.04562,
				"method": "rhf"
			},
			{
				"type": "unocc",
				"energy": 0.0286,
				"method": "rhf"
			},
			{
				"type": "unocc",
				"energy": 0.02996,
				"method": "rhf"
			},
			{
				"type": "unocc",
				"energy": 0.04943,
				"method": "rhf"
			},
			{
				"type": "unocc",
				"energy": 0.0634,
				"method": "rhf"
			}
		],
		"cosmo_sigma_profile": { 
			"-0.025": 0.0,
			"-0.024": 0.0,
			"-0.023": 0.0,
			"-0.022": 0.0,
			"-0.021": 0.0,
			"-0.02": 0.0,
			"-0.019": 0.0,
			"-0.018": 0.0,
			"-0.017": 0.0,
			"-0.016": 0.0357979941001,
			"-0.015": 1.97477724072,
			"-0.014": 2.82942020688,
			"-0.013": 2.59214445347,
			"-0.012": 2.77989539474,
			"-0.011": 2.12317550246,
			"-0.01": 2.24994850423,
			"-0.009": 3.02833024878,
			"-0.008": 4.22025817779,
			"-0.007": 5.01328600593,
			"-0.006": 5.7159612832,
			"-0.005": 8.54514027641,
			"-0.004": 11.9309975643,
			"-0.003": 12.7016174265,
			"-0.002": 13.5452063485,
			"-0.001": 15.5131318001,
			"0.0": 15.7538612151,
			"0.001": 13.0354976772,
			"0.002": 15.6936658238,
			"0.003": 20.1758968315,
			"0.004": 11.9073005675,
			"0.005": 5.03351925719,
			"0.006": 2.96174314284,
			"0.007": 2.10701459315,
			"0.008": 2.73032104657,
			"0.009": 2.8527710514,
			"0.01": 3.15076756622,
			"0.011": 2.72965192362,
			"0.012": 3.40805490629,
			"0.013": 3.52262079183,
			"0.014": 2.41410349889,
			"0.015": 2.03538201854,
			"0.016": 0.756004452891,
			"0.017": 0.0389408914201,
			"0.018": 0.0,
			"0.019": 0.0,
			"0.02": 0.0,
			"0.021": 0.0,
			"0.022": 0.0,
			"0.023": 0.0,
			"0.024": 0.0,
			"0.025": 0.0
		}
	}
}
