{
	 "smiles": "ClC1=CC=C(C=C1)C1CC(=O)N1", 
	 "Tm": 364.15, 
	 "num_atms": 20, 
	 "gaussian": { 
		 "optdone": 1, 
		 "sigma_profile": "yes", 
		 "theory": "DFT", 
		 "functional": "B3LYP", 
		 "basiset": "6-31G**", 
		 "properties": { 
			 "R2extent": 3497.5046, 
			 "electric_dipole_moment_norm": 2.73237205922, 
			 "electric_quadrupole_moment_norm": 22.5778892421, 
			 "total_energy": -937.937074771, 
			 "HOMO_LUMO_gap": 0.21802, 
			 "cosmo_polarized_energy": -12.55, 
			 "cosmo_cavitation_energy": 26.23, 
			 "cosmo_dispersion_energy": -19.28, 
			 "cosmo_repulsion_energy": 1.57, 
			 "cosmo_total_nonelectrostatic_energy": 8.52, 
			 "SMD_solvation_energy": 4.31 
		},
		"coords": [
			{
				"x": -0.7625892784,
				"y": -2.9843283749,
				"z": -2.7454954608,
				"element": "Cl" 
			},
			{
				"x": -0.1036801041,
				"y": -1.8154937492,
				"z": -1.6100661078,
				"element": "C" 
			},
			{
				"x": -0.2070100578,
				"y": -0.4525360747,
				"z": -1.8899341743,
				"element": "C" 
			},
			{
				"x": 0.315161465,
				"y": 0.4690785447,
				"z": -0.9841990763,
				"element": "C" 
			},
			{
				"x": 0.9380357959,
				"y": 0.0458203878,
				"z": 0.1971297996,
				"element": "C" 
			},
			{
				"x": 1.0207382479,
				"y": -1.3270431562,
				"z": 0.4564922201,
				"element": "C" 
			},
			{
				"x": 0.5074043934,
				"y": -2.2639533208,
				"z": -0.440388542,
				"element": "C" 
			},
			{
				"x": 1.5439868414,
				"y": 1.0344279305,
				"z": 1.1645825426,
				"element": "C" 
			},
			{
				"x": 2.8417816811,
				"y": 1.7998715895,
				"z": 0.7233484821,
				"element": "C" 
			},
			{
				"x": 2.0273786171,
				"y": 3.0912259945,
				"z": 0.9637022472,
				"element": "C" 
			},
			{
				"x": 2.246737489,
				"y": 4.2782366285,
				"z": 0.9446301425,
				"element": "O" 
			},
			{
				"x": 0.8962407541,
				"y": 2.3535622341,
				"z": 1.24762205,
				"element": "N" 
			},
			{
				"x": -0.6913854743,
				"y": -0.1206794036,
				"z": -2.8016972446,
				"element": "H" 
			},
			{
				"x": 0.2283389372,
				"y": 1.531521061,
				"z": -1.1913600923,
				"element": "H" 
			},
			{
				"x": 1.49181134,
				"y": -1.6745156234,
				"z": 1.3728063586,
				"element": "H" 
			},
			{
				"x": 0.5735136198,
				"y": -3.3262340514,
				"z": -0.2329826605,
				"element": "H" 
			},
			{
				"x": 1.6656516736,
				"y": 0.5617004092,
				"z": 2.1469468989,
				"element": "H" 
			},
			{
				"x": 3.7076046986,
				"y": 1.6822625451,
				"z": 1.3786010044,
				"element": "H" 
			},
			{
				"x": 3.1352385693,
				"y": 1.6373948466,
				"z": -0.3157480997,
				"element": "H" 
			},
			{
				"x": 0.0063407913,
				"y": 2.6339815826,
				"z": 1.6414097122,
				"element": "H" 
			}
		],
		 "valence_orbital": [ 
			{
				"type": "occ",
				"energy": -0.3171,
				"method": "rhf"
			},
			{
				"type": "occ",
				"energy": -0.27214,
				"method": "rhf"
			},
			{
				"type": "occ",
				"energy": -0.26885,
				"method": "rhf"
			},
			{
				"type": "occ",
				"energy": -0.26364,
				"method": "rhf"
			},
			{
				"type": "occ",
				"energy": -0.24328,
				"method": "rhf"
			},
			{
				"type": "unocc",
				"energy": -0.02526,
				"method": "rhf"
			},
			{
				"type": "unocc",
				"energy": -0.0227,
				"method": "rhf"
			},
			{
				"type": "unocc",
				"energy": 0.02438,
				"method": "rhf"
			},
			{
				"type": "unocc",
				"energy": 0.02648,
				"method": "rhf"
			},
			{
				"type": "unocc",
				"energy": 0.08104,
				"method": "rhf"
			}
		],
		"cosmo_sigma_profile": { 
			"-0.025": 0.0,
			"-0.024": 0.0,
			"-0.023": 0.0,
			"-0.022": 0.0,
			"-0.021": 0.0,
			"-0.02": 0.0,
			"-0.019": 0.0,
			"-0.018": 0.0,
			"-0.017": 0.0,
			"-0.016": 0.0,
			"-0.015": 0.109939834037,
			"-0.014": 1.42925728538,
			"-0.013": 1.20982834636,
			"-0.012": 1.62818792801,
			"-0.011": 0.847268299485,
			"-0.01": 0.476857225119,
			"-0.009": 1.28881374649,
			"-0.008": 1.61163365147,
			"-0.007": 6.44675616398,
			"-0.006": 14.2703771911,
			"-0.005": 19.1529977296,
			"-0.004": 15.0824760299,
			"-0.003": 12.6736700435,
			"-0.002": 13.4330691435,
			"-0.001": 13.7917884612,
			"0.0": 13.1545706874,
			"0.001": 12.0548433547,
			"0.002": 16.5552640864,
			"0.003": 17.1188308776,
			"0.004": 18.2533732349,
			"0.005": 9.32365590565,
			"0.006": 1.32017247164,
			"0.007": 1.23680942933,
			"0.008": 0.921427577562,
			"0.009": 1.91744650771,
			"0.01": 1.60348511539,
			"0.011": 1.97457761981,
			"0.012": 3.5069489844,
			"0.013": 6.51705123421,
			"0.014": 2.63527531704,
			"0.015": 0.0781817731586,
			"0.016": 0.0,
			"0.017": 0.0,
			"0.018": 0.0,
			"0.019": 0.0,
			"0.02": 0.0,
			"0.021": 0.0,
			"0.022": 0.0,
			"0.023": 0.0,
			"0.024": 0.0,
			"0.025": 0.0
		}
	}
}
