{
	 "smiles": "NC(=O)C1=C(F)C=C(C=C1)C(F)(F)F", 
	 "Tm": 414.15, 
	 "num_atms": 19, 
	 "gaussian": { 
		 "optdone": 1, 
		 "sigma_profile": "yes", 
		 "theory": "DFT", 
		 "functional": "B3LYP", 
		 "basiset": "6-31G**", 
		 "properties": { 
			 "R2extent": 3459.0667, 
			 "electric_dipole_moment_norm": 2.39881835494, 
			 "electric_quadrupole_moment_norm": 14.0862140854, 
			 "total_energy": -837.222163189, 
			 "HOMO_LUMO_gap": 0.20205, 
			 "cosmo_polarized_energy": -10.28, 
			 "cosmo_cavitation_energy": 25.64, 
			 "cosmo_dispersion_energy": -18.51, 
			 "cosmo_repulsion_energy": 1.37, 
			 "cosmo_total_nonelectrostatic_energy": 8.5, 
			 "SMD_solvation_energy": 6.7 
		},
		"coords": [
			{
				"x": -2.1829698047,
				"y": 1.5719858515,
				"z": -3.345816928,
				"element": "N" 
			},
			{
				"x": -1.8629478629,
				"y": 2.2811090789,
				"z": -2.2305655775,
				"element": "C" 
			},
			{
				"x": -2.2284537999,
				"y": 3.4389181572,
				"z": -2.0618068385,
				"element": "O" 
			},
			{
				"x": -1.0246530483,
				"y": 1.5865360815,
				"z": -1.1783773452,
				"element": "C" 
			},
			{
				"x": -0.531207408,
				"y": 0.2795734714,
				"z": -1.2260898585,
				"element": "C" 
			},
			{
				"x": -0.7874437026,
				"y": -0.5160116848,
				"z": -2.299758991,
				"element": "F" 
			},
			{
				"x": 0.2347412622,
				"y": -0.2772466511,
				"z": -0.211420534,
				"element": "C" 
			},
			{
				"x": 0.5281893546,
				"y": 0.499699886,
				"z": 0.908044796,
				"element": "C" 
			},
			{
				"x": 0.0562585512,
				"y": 1.813221816,
				"z": 0.9968078016,
				"element": "C" 
			},
			{
				"x": -0.7084712272,
				"y": 2.3391947823,
				"z": -0.0372512291,
				"element": "C" 
			},
			{
				"x": 1.3094826703,
				"y": -0.0989617948,
				"z": 2.0494865745,
				"element": "C" 
			},
			{
				"x": 2.106030297,
				"y": -1.1087580041,
				"z": 1.6383508259,
				"element": "F" 
			},
			{
				"x": 2.0908095819,
				"y": 0.8214029633,
				"z": 2.6525156221,
				"element": "F" 
			},
			{
				"x": 0.4865695498,
				"y": -0.6018636068,
				"z": 2.9967055244,
				"element": "F" 
			},
			{
				"x": -1.8829179759,
				"y": 0.622489674,
				"z": -3.4888715849,
				"element": "H" 
			},
			{
				"x": -2.7408872402,
				"y": 2.0418919286,
				"z": -4.0418360689,
				"element": "H" 
			},
			{
				"x": 0.5948614482,
				"y": -1.2941375466,
				"z": -0.3099237532,
				"element": "H" 
			},
			{
				"x": 0.2947826107,
				"y": 2.4169828027,
				"z": 1.8650706247,
				"element": "H" 
			},
			{
				"x": -1.0876732562,
				"y": 3.354472795,
				"z": -0.0016630605,
				"element": "H" 
			}
		],
		 "valence_orbital": [ 
			{
				"type": "occ",
				"energy": -0.36714,
				"method": "rhf"
			},
			{
				"type": "occ",
				"energy": -0.28513,
				"method": "rhf"
			},
			{
				"type": "occ",
				"energy": -0.27491,
				"method": "rhf"
			},
			{
				"type": "occ",
				"energy": -0.27323,
				"method": "rhf"
			},
			{
				"type": "occ",
				"energy": -0.26554,
				"method": "rhf"
			},
			{
				"type": "unocc",
				"energy": -0.06349,
				"method": "rhf"
			},
			{
				"type": "unocc",
				"energy": -0.02641,
				"method": "rhf"
			},
			{
				"type": "unocc",
				"energy": 0.04153,
				"method": "rhf"
			},
			{
				"type": "unocc",
				"energy": 0.07681,
				"method": "rhf"
			},
			{
				"type": "unocc",
				"energy": 0.09142,
				"method": "rhf"
			}
		],
		"cosmo_sigma_profile": { 
			"-0.025": 0.0,
			"-0.024": 0.0,
			"-0.023": 0.0,
			"-0.022": 0.0,
			"-0.021": 0.0,
			"-0.02": 0.0,
			"-0.019": 0.0,
			"-0.018": 0.0,
			"-0.017": 0.0,
			"-0.016": 0.0,
			"-0.015": 0.107141078384,
			"-0.014": 1.14943143427,
			"-0.013": 1.09872292136,
			"-0.012": 1.78379147255,
			"-0.011": 2.0334014141,
			"-0.01": 1.90022510854,
			"-0.009": 2.45727627876,
			"-0.008": 4.59355686609,
			"-0.007": 4.4207513224,
			"-0.006": 7.0677439904,
			"-0.005": 7.33218746107,
			"-0.004": 8.25881185191,
			"-0.003": 10.1029713336,
			"-0.002": 14.5882121317,
			"-0.001": 17.8281965938,
			"0.0": 21.9406976475,
			"0.001": 21.2769989177,
			"0.002": 31.8429310221,
			"0.003": 24.8978557736,
			"0.004": 2.60878977723,
			"0.005": 1.48012954328,
			"0.006": 1.25067955438,
			"0.007": 1.65644279348,
			"0.008": 0.770727741533,
			"0.009": 1.02346956466,
			"0.01": 1.66550537027,
			"0.011": 1.6270412206,
			"0.012": 2.38796583518,
			"0.013": 4.89474026598,
			"0.014": 2.19534796698,
			"0.015": 0.117707969649,
			"0.016": 0.0,
			"0.017": 0.0,
			"0.018": 0.0,
			"0.019": 0.0,
			"0.02": 0.0,
			"0.021": 0.0,
			"0.022": 0.0,
			"0.023": 0.0,
			"0.024": 0.0,
			"0.025": 0.0
		}
	}
}
