{
	 "smiles": "OC1=C(C=C(CC2=CC=CC=C2)C=C1)[N+]([O-])=O", 
	 "Tm": 344.15, 
	 "num_atms": 28, 
	 "gaussian": { 
		 "optdone": 1, 
		 "sigma_profile": "yes", 
		 "theory": "DFT", 
		 "functional": "B3LYP", 
		 "basiset": "6-31G**", 
		 "properties": { 
			 "R2extent": 6450.8875, 
			 "electric_dipole_moment_norm": 6.04326682764, 
			 "electric_quadrupole_moment_norm": 33.0566073229, 
			 "total_energy": -782.329943288, 
			 "HOMO_LUMO_gap": 0.16168, 
			 "cosmo_polarized_energy": -16.97, 
			 "cosmo_cavitation_energy": 33.21, 
			 "cosmo_dispersion_energy": -23.64, 
			 "cosmo_repulsion_energy": 1.84, 
			 "cosmo_total_nonelectrostatic_energy": 11.42, 
			 "SMD_solvation_energy": 8.01 
		},
		"coords": [
			{
				"x": 3.5626882996,
				"y": -0.2701282793,
				"z": 3.0240668061,
				"element": "O" 
			},
			{
				"x": 2.7896205535,
				"y": -0.1920529015,
				"z": 1.9184765028,
				"element": "C" 
			},
			{
				"x": 3.2814347881,
				"y": -0.5507739468,
				"z": 0.6474488397,
				"element": "C" 
			},
			{
				"x": 2.4727046959,
				"y": -0.4382742877,
				"z": -0.4897749386,
				"element": "C" 
			},
			{
				"x": 1.1610690102,
				"y": 0.0164599316,
				"z": -0.4127444079,
				"element": "C" 
			},
			{
				"x": 0.280678829,
				"y": 0.0980707091,
				"z": -1.6493333892,
				"element": "C" 
			},
			{
				"x": -0.4047746654,
				"y": 1.4404420274,
				"z": -1.8428662301,
				"element": "C" 
			},
			{
				"x": -1.8006584007,
				"y": 1.5417887516,
				"z": -1.8434409125,
				"element": "C" 
			},
			{
				"x": -2.4302401597,
				"y": 2.7755313589,
				"z": -2.0296926996,
				"element": "C" 
			},
			{
				"x": -1.6676048866,
				"y": 3.9275018652,
				"z": -2.2183906477,
				"element": "C" 
			},
			{
				"x": -0.2725537,
				"y": 3.8387769706,
				"z": -2.2192253837,
				"element": "C" 
			},
			{
				"x": 0.3516179864,
				"y": 2.6069228979,
				"z": -2.0313045452,
				"element": "C" 
			},
			{
				"x": 0.6725557171,
				"y": 0.3778711885,
				"z": 0.8539441738,
				"element": "C" 
			},
			{
				"x": 1.4664900402,
				"y": 0.2770452713,
				"z": 1.9866598887,
				"element": "C" 
			},
			{
				"x": 4.6455531425,
				"y": -1.0525174479,
				"z": 0.4475864171,
				"element": "N" 
			},
			{
				"x": 5.2900442209,
				"y": -1.4045966971,
				"z": 1.431836418,
				"element": "O" 
			},
			{
				"x": 5.0630621773,
				"y": -1.1021157845,
				"z": -0.7134814215,
				"element": "O" 
			},
			{
				"x": 3.0548939555,
				"y": 0.0630601011,
				"z": 3.7770197199,
				"element": "H" 
			},
			{
				"x": 2.9129397971,
				"y": -0.7217463448,
				"z": -1.4383741663,
				"element": "H" 
			},
			{
				"x": -0.4852875031,
				"y": -0.6862859039,
				"z": -1.600730283,
				"element": "H" 
			},
			{
				"x": 0.8938340748,
				"y": -0.1329471488,
				"z": -2.5283883036,
				"element": "H" 
			},
			{
				"x": -2.4015338659,
				"y": 0.6462204416,
				"z": -1.7030860475,
				"element": "H" 
			},
			{
				"x": -3.5151324524,
				"y": 2.8331031665,
				"z": -2.0282450909,
				"element": "H" 
			},
			{
				"x": -2.1538201048,
				"y": 4.8876411262,
				"z": -2.3648895855,
				"element": "H" 
			},
			{
				"x": 0.3291639047,
				"y": 4.731094701,
				"z": -2.3676299787,
				"element": "H" 
			},
			{
				"x": 1.4370951467,
				"y": 2.5461691832,
				"z": -2.0282901954,
				"element": "H" 
			},
			{
				"x": -0.3423066122,
				"y": 0.7533529984,
				"z": 0.949885036,
				"element": "H" 
			},
			{
				"x": 1.0671660115,
				"y": 0.5681860522,
				"z": 2.9560644247,
				"element": "H" 
			}
		],
		 "valence_orbital": [ 
			{
				"type": "occ",
				"energy": -0.2829,
				"method": "rhf"
			},
			{
				"type": "occ",
				"energy": -0.27225,
				"method": "rhf"
			},
			{
				"type": "occ",
				"energy": -0.25626,
				"method": "rhf"
			},
			{
				"type": "occ",
				"energy": -0.25312,
				"method": "rhf"
			},
			{
				"type": "occ",
				"energy": -0.23911,
				"method": "rhf"
			},
			{
				"type": "unocc",
				"energy": -0.07743,
				"method": "rhf"
			},
			{
				"type": "unocc",
				"energy": -0.01776,
				"method": "rhf"
			},
			{
				"type": "unocc",
				"energy": -0.01055,
				"method": "rhf"
			},
			{
				"type": "unocc",
				"energy": -0.00143,
				"method": "rhf"
			},
			{
				"type": "unocc",
				"energy": 0.00276,
				"method": "rhf"
			}
		],
		"cosmo_sigma_profile": { 
			"-0.025": 0.0,
			"-0.024": 0.0,
			"-0.023": 0.0,
			"-0.022": 0.0,
			"-0.021": 0.0,
			"-0.02": 0.0,
			"-0.019": 0.795651199554,
			"-0.018": 1.23672155374,
			"-0.017": 1.13331746765,
			"-0.016": 1.21330631903,
			"-0.015": 1.2314730832,
			"-0.014": 0.55172354248,
			"-0.013": 0.961838440167,
			"-0.012": 1.29871718972,
			"-0.011": 0.725924641188,
			"-0.01": 1.42993404561,
			"-0.009": 1.11995244775,
			"-0.008": 1.39296903113,
			"-0.007": 3.92051508829,
			"-0.006": 10.2294149236,
			"-0.005": 19.7979172996,
			"-0.004": 21.863433704,
			"-0.003": 23.4951465384,
			"-0.002": 16.8556010666,
			"-0.001": 19.7235096751,
			"0.0": 18.6357137784,
			"0.001": 16.7273956275,
			"0.002": 19.3496385089,
			"0.003": 14.4276986838,
			"0.004": 10.9058334495,
			"0.005": 11.1311313827,
			"0.006": 10.792891453,
			"0.007": 5.89588703087,
			"0.008": 9.28038184768,
			"0.009": 7.60584232925,
			"0.01": 5.74723041981,
			"0.011": 3.03025266107,
			"0.012": 1.60717444245,
			"0.013": 1.05146273122,
			"0.014": 0.169212100899,
			"0.015": 0.0,
			"0.016": 0.0,
			"0.017": 0.0,
			"0.018": 0.0,
			"0.019": 0.0,
			"0.02": 0.0,
			"0.021": 0.0,
			"0.022": 0.0,
			"0.023": 0.0,
			"0.024": 0.0,
			"0.025": 0.0
		}
	}
}
