{
	 "smiles": "CCSC1=C2C(CC(C)(C)CC2=O)=C(S1)C(=O)OC", 
	 "Tm": 391.15, 
	 "num_atms": 37, 
	 "gaussian": { 
		 "optdone": 1, 
		 "sigma_profile": "yes", 
		 "theory": "DFT", 
		 "functional": "B3LYP", 
		 "basiset": "6-31G**", 
		 "properties": { 
			 "R2extent": 7114.0973, 
			 "electric_dipole_moment_norm": 1.93488675896, 
			 "electric_quadrupole_moment_norm": 9.2229446339, 
			 "total_energy": -1566.40843799, 
			 "HOMO_LUMO_gap": 0.1529, 
			 "cosmo_polarized_energy": -10.79, 
			 "cosmo_cavitation_energy": 41.43, 
			 "cosmo_dispersion_energy": -29.68, 
			 "cosmo_repulsion_energy": 2.23, 
			 "cosmo_total_nonelectrostatic_energy": 13.98, 
			 "SMD_solvation_energy": 8.11 
		},
		"coords": [
			{
				"x": 4.0756548737,
				"y": -2.464111233,
				"z": 3.0738697396,
				"element": "C" 
			},
			{
				"x": 3.107833299,
				"y": -1.6732118772,
				"z": 2.1961811768,
				"element": "C" 
			},
			{
				"x": 1.4825612538,
				"y": -1.5544566888,
				"z": 3.0705960255,
				"element": "S" 
			},
			{
				"x": 0.5019241846,
				"y": -0.565139853,
				"z": 1.990168335,
				"element": "C" 
			},
			{
				"x": 0.0426652608,
				"y": -0.7678802876,
				"z": 0.6863350235,
				"element": "C" 
			},
			{
				"x": -0.8414128857,
				"y": 0.272245881,
				"z": 0.2375452976,
				"element": "C" 
			},
			{
				"x": -1.488826619,
				"y": 0.2432011651,
				"z": -1.1251908697,
				"element": "C" 
			},
			{
				"x": -0.7530776671,
				"y": -0.6672930433,
				"z": -2.1353651475,
				"element": "C" 
			},
			{
				"x": -1.6481240233,
				"y": -0.8771998906,
				"z": -3.3684852219,
				"element": "C" 
			},
			{
				"x": 0.5742323651,
				"y": -0.0204549424,
				"z": -2.5811722526,
				"element": "C" 
			},
			{
				"x": -0.4840471161,
				"y": -2.0296552472,
				"z": -1.4571159337,
				"element": "C" 
			},
			{
				"x": 0.3338373852,
				"y": -1.9372995764,
				"z": -0.1753490769,
				"element": "C" 
			},
			{
				"x": 1.1533519234,
				"y": -2.8010868615,
				"z": 0.1105248478,
				"element": "O" 
			},
			{
				"x": -1.0480443527,
				"y": 1.2395878787,
				"z": 1.201976449,
				"element": "C" 
			},
			{
				"x": -0.1418912572,
				"y": 0.8994108217,
				"z": 2.6555132753,
				"element": "S" 
			},
			{
				"x": -1.903312566,
				"y": 2.4280787311,
				"z": 1.0976933737,
				"element": "C" 
			},
			{
				"x": -2.5741288774,
				"y": 2.7317978269,
				"z": 0.1273592747,
				"element": "O" 
			},
			{
				"x": -1.8595189105,
				"y": 3.1681662214,
				"z": 2.2322528038,
				"element": "O" 
			},
			{
				"x": -2.6712136629,
				"y": 4.3524732037,
				"z": 2.228457729,
				"element": "C" 
			},
			{
				"x": 5.0444122103,
				"y": -2.5391963489,
				"z": 2.5694277513,
				"element": "H" 
			},
			{
				"x": 3.7114207644,
				"y": -3.48043385,
				"z": 3.2513178063,
				"element": "H" 
			},
			{
				"x": 4.2361929635,
				"y": -1.9810427491,
				"z": 4.0427488345,
				"element": "H" 
			},
			{
				"x": 3.469163283,
				"y": -0.6561921902,
				"z": 2.0227287063,
				"element": "H" 
			},
			{
				"x": 2.9250809463,
				"y": -2.1722554299,
				"z": 1.2446897589,
				"element": "H" 
			},
			{
				"x": -1.585256645,
				"y": 1.261091417,
				"z": -1.5110761618,
				"element": "H" 
			},
			{
				"x": -2.5206114259,
				"y": -0.1174747077,
				"z": -1.0036535202,
				"element": "H" 
			},
			{
				"x": -1.1503238818,
				"y": -1.5104721006,
				"z": -4.1109095245,
				"element": "H" 
			},
			{
				"x": -1.8824658376,
				"y": 0.0797813263,
				"z": -3.8478145165,
				"element": "H" 
			},
			{
				"x": -2.5951512762,
				"y": -1.3570326094,
				"z": -3.0973621978,
				"element": "H" 
			},
			{
				"x": 1.1100435021,
				"y": -0.6743037967,
				"z": -3.277842583,
				"element": "H" 
			},
			{
				"x": 1.2400907526,
				"y": 0.1820969334,
				"z": -1.7361994529,
				"element": "H" 
			},
			{
				"x": 0.3864932345,
				"y": 0.9310019619,
				"z": -3.090230543,
				"element": "H" 
			},
			{
				"x": -1.4462550491,
				"y": -2.4958278654,
				"z": -1.195747927,
				"element": "H" 
			},
			{
				"x": 0.0353869317,
				"y": -2.7219942365,
				"z": -2.1265089249,
				"element": "H" 
			},
			{
				"x": -2.5228450228,
				"y": 4.8122032974,
				"z": 3.2052383301,
				"element": "H" 
			},
			{
				"x": -2.356398565,
				"y": 5.0317214192,
				"z": 1.4323097904,
				"element": "H" 
			},
			{
				"x": -3.7233394928,
				"y": 4.0972573005,
				"z": 2.0794895249,
				"element": "H" 
			}
		],
		 "valence_orbital": [ 
			{
				"type": "occ",
				"energy": -0.2804,
				"method": "rhf"
			},
			{
				"type": "occ",
				"energy": -0.26249,
				"method": "rhf"
			},
			{
				"type": "occ",
				"energy": -0.25979,
				"method": "rhf"
			},
			{
				"type": "occ",
				"energy": -0.24699,
				"method": "rhf"
			},
			{
				"type": "occ",
				"energy": -0.22371,
				"method": "rhf"
			},
			{
				"type": "unocc",
				"energy": -0.07081,
				"method": "rhf"
			},
			{
				"type": "unocc",
				"energy": -0.04,
				"method": "rhf"
			},
			{
				"type": "unocc",
				"energy": 0.01985,
				"method": "rhf"
			},
			{
				"type": "unocc",
				"energy": 0.03696,
				"method": "rhf"
			},
			{
				"type": "unocc",
				"energy": 0.05852,
				"method": "rhf"
			}
		],
		"cosmo_sigma_profile": { 
			"-0.025": 0.0,
			"-0.024": 0.0,
			"-0.023": 0.0,
			"-0.022": 0.0,
			"-0.021": 0.0,
			"-0.02": 0.0,
			"-0.019": 0.0,
			"-0.018": 0.0,
			"-0.017": 0.0,
			"-0.016": 0.0,
			"-0.015": 0.0,
			"-0.014": 0.0,
			"-0.013": 0.0,
			"-0.012": 0.0,
			"-0.011": 0.0,
			"-0.01": 0.0,
			"-0.009": 0.0,
			"-0.008": 0.0,
			"-0.007": 1.08853464322,
			"-0.006": 8.99567423532,
			"-0.005": 15.9604339789,
			"-0.004": 26.7930385694,
			"-0.003": 42.1186347405,
			"-0.002": 39.6763736642,
			"-0.001": 41.1425559624,
			"0.0": 43.7656072642,
			"0.001": 30.376001406,
			"0.002": 15.7440924461,
			"0.003": 10.7132774495,
			"0.004": 9.0015199125,
			"0.005": 8.28016311438,
			"0.006": 6.02795158571,
			"0.007": 5.37179168274,
			"0.008": 4.02415156017,
			"0.009": 4.44581082548,
			"0.01": 3.71922817554,
			"0.011": 6.08775860532,
			"0.012": 4.64528571721,
			"0.013": 1.30892280096,
			"0.014": 0.106386763139,
			"0.015": 0.0,
			"0.016": 0.0,
			"0.017": 0.0,
			"0.018": 0.0,
			"0.019": 0.0,
			"0.02": 0.0,
			"0.021": 0.0,
			"0.022": 0.0,
			"0.023": 0.0,
			"0.024": 0.0,
			"0.025": 0.0
		}
	}
}
