{
	 "smiles": "OC(=O)CCOC1=CC(C=O)=CC=C1", 
	 "Tm": 372.15, 
	 "num_atms": 24, 
	 "gaussian": { 
		 "optdone": 1, 
		 "sigma_profile": "yes", 
		 "theory": "DFT", 
		 "functional": "B3LYP", 
		 "basiset": "6-31G**", 
		 "properties": { 
			 "R2extent": 5593.6154, 
			 "electric_dipole_moment_norm": 4.32091017379, 
			 "electric_quadrupole_moment_norm": 30.3868424067, 
			 "total_energy": -687.980181849, 
			 "HOMO_LUMO_gap": 0.18, 
			 "cosmo_polarized_energy": -19.07, 
			 "cosmo_cavitation_energy": 29.16, 
			 "cosmo_dispersion_energy": -20.92, 
			 "cosmo_repulsion_energy": 1.65, 
			 "cosmo_total_nonelectrostatic_energy": 9.89, 
			 "SMD_solvation_energy": 7.34 
		},
		"coords": [
			{
				"x": 2.0404614439,
				"y": 2.2793603663,
				"z": 3.7882500399,
				"element": "O" 
			},
			{
				"x": 1.6074003155,
				"y": 3.4167538163,
				"z": 3.201839209,
				"element": "C" 
			},
			{
				"x": 2.0012798303,
				"y": 4.4979549788,
				"z": 3.5630416832,
				"element": "O" 
			},
			{
				"x": 0.5704836552,
				"y": 3.240635918,
				"z": 2.087988072,
				"element": "C" 
			},
			{
				"x": 0.8393406528,
				"y": 2.0995732488,
				"z": 1.1107188749,
				"element": "C" 
			},
			{
				"x": 0.718513988,
				"y": 0.8655785672,
				"z": 1.83501731,
				"element": "O" 
			},
			{
				"x": 0.9017536128,
				"y": -0.3240282021,
				"z": 1.1679384841,
				"element": "C" 
			},
			{
				"x": 0.7524091807,
				"y": -1.4827996909,
				"z": 1.9366343836,
				"element": "C" 
			},
			{
				"x": 0.9156197187,
				"y": -2.7360108869,
				"z": 1.3447503094,
				"element": "C" 
			},
			{
				"x": 0.7532247969,
				"y": -3.9570722207,
				"z": 2.1726074343,
				"element": "C" 
			},
			{
				"x": 0.8706275658,
				"y": -5.0908518829,
				"z": 1.7518727808,
				"element": "O" 
			},
			{
				"x": 1.2282438453,
				"y": -2.8425861383,
				"z": -0.0201827077,
				"element": "C" 
			},
			{
				"x": 1.3731022977,
				"y": -1.6865349732,
				"z": -0.7745502924,
				"element": "C" 
			},
			{
				"x": 1.212412414,
				"y": -0.421898871,
				"z": -0.1915292062,
				"element": "C" 
			},
			{
				"x": 1.6220036329,
				"y": 1.5104179804,
				"z": 3.3587872395,
				"element": "H" 
			},
			{
				"x": 0.524537131,
				"y": 4.1852148703,
				"z": 1.5422373338,
				"element": "H" 
			},
			{
				"x": -0.4102563753,
				"y": 3.0816552118,
				"z": 2.5537825735,
				"element": "H" 
			},
			{
				"x": 0.1055135952,
				"y": 2.119269214,
				"z": 0.2962316236,
				"element": "H" 
			},
			{
				"x": 1.8438185924,
				"y": 2.1785759568,
				"z": 0.6746978142,
				"element": "H" 
			},
			{
				"x": 0.5056095037,
				"y": -1.3934053277,
				"z": 2.9912629355,
				"element": "H" 
			},
			{
				"x": 0.508249986,
				"y": -3.764500808,
				"z": 3.2406938521,
				"element": "H" 
			},
			{
				"x": 1.349134932,
				"y": -3.8295033207,
				"z": -0.453141646,
				"element": "H" 
			},
			{
				"x": 1.6152224874,
				"y": -1.7509793417,
				"z": -1.8310974574,
				"element": "H" 
			},
			{
				"x": 1.3325931971,
				"y": 0.4648815353,
				"z": -0.8021506439,
				"element": "H" 
			}
		],
		 "valence_orbital": [ 
			{
				"type": "occ",
				"energy": -0.31136,
				"method": "rhf"
			},
			{
				"type": "occ",
				"energy": -0.28171,
				"method": "rhf"
			},
			{
				"type": "occ",
				"energy": -0.26897,
				"method": "rhf"
			},
			{
				"type": "occ",
				"energy": -0.26576,
				"method": "rhf"
			},
			{
				"type": "occ",
				"energy": -0.25481,
				"method": "rhf"
			},
			{
				"type": "unocc",
				"energy": -0.07481,
				"method": "rhf"
			},
			{
				"type": "unocc",
				"energy": -0.02408,
				"method": "rhf"
			},
			{
				"type": "unocc",
				"energy": 0.0076,
				"method": "rhf"
			},
			{
				"type": "unocc",
				"energy": 0.03026,
				"method": "rhf"
			},
			{
				"type": "unocc",
				"energy": 0.07019,
				"method": "rhf"
			}
		],
		"cosmo_sigma_profile": { 
			"-0.025": 0.0,
			"-0.024": 0.0,
			"-0.023": 0.0,
			"-0.022": 0.0,
			"-0.021": 0.0,
			"-0.02": 0.0,
			"-0.019": 0.0,
			"-0.018": 0.0,
			"-0.017": 0.0,
			"-0.016": 0.0,
			"-0.015": 0.0,
			"-0.014": 0.0,
			"-0.013": 0.0,
			"-0.012": 0.0,
			"-0.011": 0.0,
			"-0.01": 0.458835291967,
			"-0.009": 0.899220991814,
			"-0.008": 8.33547581356,
			"-0.007": 23.2657177754,
			"-0.006": 25.2485223158,
			"-0.005": 17.7624936701,
			"-0.004": 13.9411948407,
			"-0.003": 12.8479568012,
			"-0.002": 10.5471226807,
			"-0.001": 7.91635556768,
			"0.0": 10.4074580031,
			"0.001": 12.8230241042,
			"0.002": 16.4989561325,
			"0.003": 13.4746840462,
			"0.004": 6.81566293506,
			"0.005": 4.183559159,
			"0.006": 4.15757168835,
			"0.007": 4.26159456514,
			"0.008": 3.90106400266,
			"0.009": 5.41066486573,
			"0.01": 6.72714779318,
			"0.011": 9.92565252919,
			"0.012": 8.93981570929,
			"0.013": 3.41646034473,
			"0.014": 0.328300334957,
			"0.015": 0.0,
			"0.016": 0.0,
			"0.017": 0.0,
			"0.018": 0.0,
			"0.019": 0.0,
			"0.02": 0.0,
			"0.021": 0.0,
			"0.022": 0.0,
			"0.023": 0.0,
			"0.024": 0.0,
			"0.025": 0.0
		}
	}
}
