{
	 "smiles": "ClC1=CC=CC(Cl)=C1N=O", 
	 "Tm": 444.65, 
	 "num_atms": 13, 
	 "gaussian": { 
		 "optdone": 1, 
		 "sigma_profile": "yes", 
		 "theory": "DFT", 
		 "functional": "B3LYP", 
		 "basiset": "6-31G**", 
		 "properties": { 
			 "R2extent": 2360.5749, 
			 "electric_dipole_moment_norm": 3.64424400391, 
			 "electric_quadrupole_moment_norm": 7.31918235256, 
			 "total_energy": -1280.69604608, 
			 "HOMO_LUMO_gap": 0.13459, 
			 "cosmo_polarized_energy": -5.22, 
			 "cosmo_cavitation_energy": 21.99, 
			 "cosmo_dispersion_energy": -16.17, 
			 "cosmo_repulsion_energy": 1.31, 
			 "cosmo_total_nonelectrostatic_energy": 7.13, 
			 "SMD_solvation_energy": 3.79 
		},
		"coords": [
			{
				"x": 2.9971584579,
				"y": 1.5193423845,
				"z": -2.1938855892,
				"element": "Cl" 
			},
			{
				"x": 1.6366036299,
				"y": 1.4653093733,
				"z": -1.0896964557,
				"element": "C" 
			},
			{
				"x": 1.1410166386,
				"y": 2.6487034278,
				"z": -0.5442122446,
				"element": "C" 
			},
			{
				"x": 0.0530740834,
				"y": 2.5939089081,
				"z": 0.3265606829,
				"element": "C" 
			},
			{
				"x": -0.5387406986,
				"y": 1.3738795688,
				"z": 0.6523581086,
				"element": "C" 
			},
			{
				"x": -0.0297704343,
				"y": 0.2006562155,
				"z": 0.0973064936,
				"element": "C" 
			},
			{
				"x": -0.7697171515,
				"y": -1.3394647561,
				"z": 0.4893877548,
				"element": "Cl" 
			},
			{
				"x": 1.0657192782,
				"y": 0.2355177542,
				"z": -0.7645013021,
				"element": "C" 
			},
			{
				"x": 1.5236308255,
				"y": -1.0044383226,
				"z": -1.4426184758,
				"element": "N" 
			},
			{
				"x": 2.3934225003,
				"y": -1.5856978758,
				"z": -0.842610304,
				"element": "O" 
			},
			{
				"x": 1.60621287,
				"y": 3.5931497743,
				"z": -0.8026498536,
				"element": "H" 
			},
			{
				"x": -0.3393084085,
				"y": 3.511358318,
				"z": 0.753175242,
				"element": "H" 
			},
			{
				"x": -1.3849015909,
				"y": 1.32307523,
				"z": 1.3280859431,
				"element": "H" 
			}
		],
		 "valence_orbital": [ 
			{
				"type": "occ",
				"energy": -0.33672,
				"method": "rhf"
			},
			{
				"type": "occ",
				"energy": -0.32907,
				"method": "rhf"
			},
			{
				"type": "occ",
				"energy": -0.27823,
				"method": "rhf"
			},
			{
				"type": "occ",
				"energy": -0.26592,
				"method": "rhf"
			},
			{
				"type": "occ",
				"energy": -0.24613,
				"method": "rhf"
			},
			{
				"type": "unocc",
				"energy": -0.11154,
				"method": "rhf"
			},
			{
				"type": "unocc",
				"energy": -0.03898,
				"method": "rhf"
			},
			{
				"type": "unocc",
				"energy": -0.03722,
				"method": "rhf"
			},
			{
				"type": "unocc",
				"energy": -0.0083,
				"method": "rhf"
			},
			{
				"type": "unocc",
				"energy": 0.0368,
				"method": "rhf"
			}
		],
		"cosmo_sigma_profile": { 
			"-0.025": 0.0,
			"-0.024": 0.0,
			"-0.023": 0.0,
			"-0.022": 0.0,
			"-0.021": 0.0,
			"-0.02": 0.0,
			"-0.019": 0.0,
			"-0.018": 0.0,
			"-0.017": 0.0,
			"-0.016": 0.0,
			"-0.015": 0.0,
			"-0.014": 0.0,
			"-0.013": 0.0,
			"-0.012": 0.0,
			"-0.011": 0.0,
			"-0.01": 0.0,
			"-0.009": 0.772196948396,
			"-0.008": 5.80744120331,
			"-0.007": 7.18350655871,
			"-0.006": 6.18193189287,
			"-0.005": 4.37177340864,
			"-0.004": 5.58261389876,
			"-0.003": 6.54885364713,
			"-0.002": 11.9526790986,
			"-0.001": 19.0603228242,
			"0.0": 26.3940029508,
			"0.001": 24.6549570708,
			"0.002": 21.0791781141,
			"0.003": 19.8280821153,
			"0.004": 10.0021807451,
			"0.005": 5.12866783615,
			"0.006": 4.0338963228,
			"0.007": 2.0266345854,
			"0.008": 1.03847992839,
			"0.009": 0.635679479414,
			"0.01": 0.0,
			"0.011": 0.0,
			"0.012": 0.0,
			"0.013": 0.0,
			"0.014": 0.0,
			"0.015": 0.0,
			"0.016": 0.0,
			"0.017": 0.0,
			"0.018": 0.0,
			"0.019": 0.0,
			"0.02": 0.0,
			"0.021": 0.0,
			"0.022": 0.0,
			"0.023": 0.0,
			"0.024": 0.0,
			"0.025": 0.0
		}
	}
}
