{
	 "smiles": "ClC1=CC(=CC=C1)N1C=CNC1=S", 
	 "Tm": 435.15, 
	 "num_atms": 20, 
	 "gaussian": { 
		 "optdone": 1, 
		 "sigma_profile": "yes", 
		 "theory": "DFT", 
		 "functional": "B3LYP", 
		 "basiset": "6-31G**", 
		 "properties": { 
			 "R2extent": 4242.8858, 
			 "electric_dipole_moment_norm": 4.56579615511, 
			 "electric_quadrupole_moment_norm": 16.0733475375, 
			 "total_energy": -1315.06019747, 
			 "HOMO_LUMO_gap": 0.16064, 
			 "cosmo_polarized_energy": -17.67, 
			 "cosmo_cavitation_energy": 27.92, 
			 "cosmo_dispersion_energy": -20.99, 
			 "cosmo_repulsion_energy": 1.62, 
			 "cosmo_total_nonelectrostatic_energy": 8.55, 
			 "SMD_solvation_energy": 4.18 
		},
		"coords": [
			{
				"x": -1.0572927347,
				"y": -4.7231559533,
				"z": -0.3672098851,
				"element": "Cl" 
			},
			{
				"x": -1.6953496789,
				"y": -3.1027935318,
				"z": -0.6055980434,
				"element": "C" 
			},
			{
				"x": -0.8259326821,
				"y": -2.0176177184,
				"z": -0.5220214315,
				"element": "C" 
			},
			{
				"x": -1.3320554268,
				"y": -0.7281350078,
				"z": -0.719124048,
				"element": "C" 
			},
			{
				"x": -2.690926709,
				"y": -0.5281900802,
				"z": -0.9799488336,
				"element": "C" 
			},
			{
				"x": -3.5392507977,
				"y": -1.632014603,
				"z": -1.0418615735,
				"element": "C" 
			},
			{
				"x": -3.0538739848,
				"y": -2.9284041864,
				"z": -0.8613661054,
				"element": "C" 
			},
			{
				"x": -0.4238986273,
				"y": 0.3694113388,
				"z": -0.6817440578,
				"element": "N" 
			},
			{
				"x": 0.8424729271,
				"y": 0.340247032,
				"z": -1.2810825689,
				"element": "C" 
			},
			{
				"x": 1.4524585132,
				"y": 1.5153187593,
				"z": -1.0099418633,
				"element": "C" 
			},
			{
				"x": 0.5639276685,
				"y": 2.2546571481,
				"z": -0.246206817,
				"element": "N" 
			},
			{
				"x": -0.6071821605,
				"y": 1.5773892086,
				"z": -0.0152599321,
				"element": "C" 
			},
			{
				"x": -1.8971574539,
				"y": 2.136734554,
				"z": 0.8954201942,
				"element": "S" 
			},
			{
				"x": 0.2206982554,
				"y": -2.1724927678,
				"z": -0.2878965534,
				"element": "H" 
			},
			{
				"x": -3.0697028755,
				"y": 0.4755356943,
				"z": -1.119512088,
				"element": "H" 
			},
			{
				"x": -4.5954597705,
				"y": -1.4815448711,
				"z": -1.2418552612,
				"element": "H" 
			},
			{
				"x": -3.7133573268,
				"y": -3.7869967858,
				"z": -0.915325772,
				"element": "H" 
			},
			{
				"x": 1.1640746026,
				"y": -0.4992458559,
				"z": -1.8745461467,
				"element": "H" 
			},
			{
				"x": 2.4196691909,
				"y": 1.8892262539,
				"z": -1.3037512555,
				"element": "H" 
			},
			{
				"x": 0.7096390709,
				"y": 3.1743713724,
				"z": 0.1398320423,
				"element": "H" 
			}
		],
		 "valence_orbital": [ 
			{
				"type": "occ",
				"energy": -0.29356,
				"method": "rhf"
			},
			{
				"type": "occ",
				"energy": -0.26742,
				"method": "rhf"
			},
			{
				"type": "occ",
				"energy": -0.25427,
				"method": "rhf"
			},
			{
				"type": "occ",
				"energy": -0.20567,
				"method": "rhf"
			},
			{
				"type": "occ",
				"energy": -0.19409,
				"method": "rhf"
			},
			{
				"type": "unocc",
				"energy": -0.03345,
				"method": "rhf"
			},
			{
				"type": "unocc",
				"energy": -0.02147,
				"method": "rhf"
			},
			{
				"type": "unocc",
				"energy": 0.01133,
				"method": "rhf"
			},
			{
				"type": "unocc",
				"energy": 0.01443,
				"method": "rhf"
			},
			{
				"type": "unocc",
				"energy": 0.02764,
				"method": "rhf"
			}
		],
		"cosmo_sigma_profile": { 
			"-0.025": 0.0,
			"-0.024": 0.0,
			"-0.023": 0.0,
			"-0.022": 0.0,
			"-0.021": 0.0,
			"-0.02": 0.0,
			"-0.019": 0.0,
			"-0.018": 0.0141275477359,
			"-0.017": 0.944699509328,
			"-0.016": 1.34200015374,
			"-0.015": 0.948083249602,
			"-0.014": 0.982543198415,
			"-0.013": 1.3520896457,
			"-0.012": 0.822074578285,
			"-0.011": 1.0493814133,
			"-0.01": 4.5375019174,
			"-0.009": 5.0636654169,
			"-0.008": 7.5684264961,
			"-0.007": 8.48111475172,
			"-0.006": 10.6455953175,
			"-0.005": 11.4518953668,
			"-0.004": 8.75135753993,
			"-0.003": 9.53909646567,
			"-0.002": 11.3236027196,
			"-0.001": 15.845062325,
			"0.0": 15.8032512964,
			"0.001": 20.6804958953,
			"0.002": 19.6846800651,
			"0.003": 16.4237814332,
			"0.004": 14.662835378,
			"0.005": 6.981692163,
			"0.006": 3.78609071853,
			"0.007": 3.56313318532,
			"0.008": 4.23812870976,
			"0.009": 4.86364788231,
			"0.01": 4.94868193223,
			"0.011": 5.67084210668,
			"0.012": 6.69774540966,
			"0.013": 1.1777828728,
			"0.014": 0.0,
			"0.015": 0.0,
			"0.016": 0.0,
			"0.017": 0.0,
			"0.018": 0.0,
			"0.019": 0.0,
			"0.02": 0.0,
			"0.021": 0.0,
			"0.022": 0.0,
			"0.023": 0.0,
			"0.024": 0.0,
			"0.025": 0.0
		}
	}
}
