{
	 "smiles": "CC(=O)N1CCCC2=C1C=CC(Br)=C2", 
	 "Tm": 333.15, 
	 "num_atms": 26, 
	 "gaussian": { 
		 "optdone": 1, 
		 "sigma_profile": "yes", 
		 "theory": "DFT", 
		 "functional": "B3LYP", 
		 "basiset": "6-31G**", 
		 "properties": { 
			 "R2extent": 6301.1964, 
			 "electric_dipole_moment_norm": 5.19725820602, 
			 "electric_quadrupole_moment_norm": 5.81303495173, 
			 "total_energy": -3127.80391377, 
			 "HOMO_LUMO_gap": 0.19685, 
			 "cosmo_polarized_energy": -11.37, 
			 "cosmo_cavitation_energy": 30.22, 
			 "cosmo_dispersion_energy": -22.89, 
			 "cosmo_repulsion_energy": 1.79, 
			 "cosmo_total_nonelectrostatic_energy": 9.11, 
			 "SMD_solvation_energy": 3.77 
		},
		"coords": [
			{
				"x": 0.0049766483,
				"y": -2.7227109799,
				"z": -1.4748969918,
				"element": "C" 
			},
			{
				"x": -0.7252250649,
				"y": -1.6029893721,
				"z": -0.7428981243,
				"element": "C" 
			},
			{
				"x": -1.9121831239,
				"y": -1.7247887507,
				"z": -0.4733912185,
				"element": "O" 
			},
			{
				"x": 0.0251181904,
				"y": -0.4743260488,
				"z": -0.4093675653,
				"element": "N" 
			},
			{
				"x": 1.4300029283,
				"y": -0.4020329604,
				"z": -0.8805503642,
				"element": "C" 
			},
			{
				"x": 2.1395256286,
				"y": 0.8869342625,
				"z": -0.4797076791,
				"element": "C" 
			},
			{
				"x": 1.2330603089,
				"y": 2.0826432379,
				"z": -0.7797718092,
				"element": "C" 
			},
			{
				"x": -0.0114989552,
				"y": 1.9332372051,
				"z": 0.0585725472,
				"element": "C" 
			},
			{
				"x": -0.5615568307,
				"y": 0.6479940647,
				"z": 0.2565693409,
				"element": "C" 
			},
			{
				"x": -1.6593540035,
				"y": 0.506487916,
				"z": 1.1229540026,
				"element": "C" 
			},
			{
				"x": -2.2201086929,
				"y": 1.6159419823,
				"z": 1.7510764916,
				"element": "C" 
			},
			{
				"x": -1.6786597875,
				"y": 2.8787146526,
				"z": 1.5334773294,
				"element": "C" 
			},
			{
				"x": -2.4427003749,
				"y": 4.4070902181,
				"z": 2.3929157371,
				"element": "Br" 
			},
			{
				"x": -0.5733664799,
				"y": 3.0361948658,
				"z": 0.7051857107,
				"element": "C" 
			},
			{
				"x": -0.7253231382,
				"y": -3.5121553517,
				"z": -1.6475412433,
				"element": "H" 
			},
			{
				"x": 0.834482469,
				"y": -3.1265901125,
				"z": -0.8852617709,
				"element": "H" 
			},
			{
				"x": 0.4126884775,
				"y": -2.3973794104,
				"z": -2.4372236399,
				"element": "H" 
			},
			{
				"x": 1.4415431258,
				"y": -0.4761357402,
				"z": -1.9748201608,
				"element": "H" 
			},
			{
				"x": 1.9839395906,
				"y": -1.2625006237,
				"z": -0.4911826695,
				"element": "H" 
			},
			{
				"x": 3.0842486748,
				"y": 0.9410955057,
				"z": -1.031036115,
				"element": "H" 
			},
			{
				"x": 2.3842346319,
				"y": 0.8756017928,
				"z": 0.5883428068,
				"element": "H" 
			},
			{
				"x": 0.9882956089,
				"y": 2.0978877342,
				"z": -1.8517824963,
				"element": "H" 
			},
			{
				"x": 1.7321207729,
				"y": 3.0298479098,
				"z": -0.554136995,
				"element": "H" 
			},
			{
				"x": -2.0910563709,
				"y": -0.4683538383,
				"z": 1.2868360342,
				"element": "H" 
			},
			{
				"x": -3.071693529,
				"y": 1.4897248139,
				"z": 2.4097324374,
				"element": "H" 
			},
			{
				"x": -0.1384107043,
				"y": 4.0191670274,
				"z": 0.5580064055,
				"element": "H" 
			}
		],
		 "valence_orbital": [ 
			{
				"type": "occ",
				"energy": -0.28057,
				"method": "rhf"
			},
			{
				"type": "occ",
				"energy": -0.27206,
				"method": "rhf"
			},
			{
				"type": "occ",
				"energy": -0.25625,
				"method": "rhf"
			},
			{
				"type": "occ",
				"energy": -0.24643,
				"method": "rhf"
			},
			{
				"type": "occ",
				"energy": -0.21323,
				"method": "rhf"
			},
			{
				"type": "unocc",
				"energy": -0.01638,
				"method": "rhf"
			},
			{
				"type": "unocc",
				"energy": -0.00676,
				"method": "rhf"
			},
			{
				"type": "unocc",
				"energy": 0.01458,
				"method": "rhf"
			},
			{
				"type": "unocc",
				"energy": 0.03243,
				"method": "rhf"
			},
			{
				"type": "unocc",
				"energy": 0.06669,
				"method": "rhf"
			}
		],
		"cosmo_sigma_profile": { 
			"-0.025": 0.0,
			"-0.024": 0.0,
			"-0.023": 0.0,
			"-0.022": 0.0,
			"-0.021": 0.0,
			"-0.02": 0.0,
			"-0.019": 0.0,
			"-0.018": 0.0,
			"-0.017": 0.0,
			"-0.016": 0.0,
			"-0.015": 0.0,
			"-0.014": 0.0,
			"-0.013": 0.0,
			"-0.012": 0.0,
			"-0.011": 0.0,
			"-0.01": 0.0,
			"-0.009": 0.0,
			"-0.008": 0.100453121428,
			"-0.007": 4.66349551781,
			"-0.006": 11.9845925621,
			"-0.005": 17.3738004075,
			"-0.004": 26.9206194356,
			"-0.003": 24.4104221299,
			"-0.002": 22.5537189113,
			"-0.001": 23.8384999912,
			"0.0": 13.3013447638,
			"0.001": 11.6484491606,
			"0.002": 15.3519401974,
			"0.003": 16.3900236423,
			"0.004": 21.3459721015,
			"0.005": 14.0050236304,
			"0.006": 1.94751997773,
			"0.007": 2.33893667221,
			"0.008": 1.80294257934,
			"0.009": 1.15696583654,
			"0.01": 1.61848454759,
			"0.011": 1.69902829424,
			"0.012": 2.42139462528,
			"0.013": 3.54817869711,
			"0.014": 1.83761975966,
			"0.015": 0.296362271541,
			"0.016": 0.0,
			"0.017": 0.0,
			"0.018": 0.0,
			"0.019": 0.0,
			"0.02": 0.0,
			"0.021": 0.0,
			"0.022": 0.0,
			"0.023": 0.0,
			"0.024": 0.0,
			"0.025": 0.0
		}
	}
}
