{
	 "smiles": "NC1=NC2=C(O1)C=CC=C2", 
	 "Tm": 398.15, 
	 "num_atms": 16, 
	 "gaussian": { 
		 "optdone": 1, 
		 "sigma_profile": "yes", 
		 "theory": "DFT", 
		 "functional": "B3LYP", 
		 "basiset": "6-31G**", 
		 "properties": { 
			 "R2extent": 1781.7361, 
			 "electric_dipole_moment_norm": 2.29987715542, 
			 "electric_quadrupole_moment_norm": 9.34217817803, 
			 "total_energy": -455.092148024, 
			 "HOMO_LUMO_gap": 0.20505, 
			 "cosmo_polarized_energy": -10.97, 
			 "cosmo_cavitation_energy": 20.33, 
			 "cosmo_dispersion_energy": -15.74, 
			 "cosmo_repulsion_energy": 1.27, 
			 "cosmo_total_nonelectrostatic_energy": 5.86, 
			 "SMD_solvation_energy": 1.86 
		},
		"coords": [
			{
				"x": -1.2451301082,
				"y": 1.3393687597,
				"z": 0.9452989103,
				"element": "N" 
			},
			{
				"x": -0.8198433291,
				"y": 0.1874916743,
				"z": 0.3517972768,
				"element": "C" 
			},
			{
				"x": -1.3366478723,
				"y": -0.9987614441,
				"z": 0.4560133903,
				"element": "N" 
			},
			{
				"x": -0.4662084808,
				"y": -1.7988915277,
				"z": -0.291084975,
				"element": "C" 
			},
			{
				"x": 0.5553193533,
				"y": -0.998248677,
				"z": -0.8238366031,
				"element": "C" 
			},
			{
				"x": 0.322226303,
				"y": 0.3003439987,
				"z": -0.4006280183,
				"element": "O" 
			},
			{
				"x": 1.5811836592,
				"y": -1.4698797632,
				"z": -1.620946069,
				"element": "C" 
			},
			{
				"x": 1.5602898498,
				"y": -2.8457059593,
				"z": -1.8867390965,
				"element": "C" 
			},
			{
				"x": 0.5524088651,
				"y": -3.6728359964,
				"z": -1.3678134177,
				"element": "C" 
			},
			{
				"x": -0.4745205354,
				"y": -3.1670414752,
				"z": -0.5645396442,
				"element": "C" 
			},
			{
				"x": -2.1916425239,
				"y": 1.3030913828,
				"z": 1.293454485,
				"element": "H" 
			},
			{
				"x": -0.977386574,
				"y": 2.2010329715,
				"z": 0.4929249496,
				"element": "H" 
			},
			{
				"x": 2.3529148483,
				"y": -0.8168046809,
				"z": -2.013323745,
				"element": "H" 
			},
			{
				"x": 2.3407571565,
				"y": -3.277199574,
				"z": -2.505774844,
				"element": "H" 
			},
			{
				"x": 0.5718225061,
				"y": -4.7343239721,
				"z": -1.5967495869,
				"element": "H" 
			},
			{
				"x": -1.2530431175,
				"y": -3.8077357171,
				"z": -0.1642530123,
				"element": "H" 
			}
		],
		 "valence_orbital": [ 
			{
				"type": "occ",
				"energy": -0.34041,
				"method": "rhf"
			},
			{
				"type": "occ",
				"energy": -0.29433,
				"method": "rhf"
			},
			{
				"type": "occ",
				"energy": -0.28255,
				"method": "rhf"
			},
			{
				"type": "occ",
				"energy": -0.23767,
				"method": "rhf"
			},
			{
				"type": "occ",
				"energy": -0.20933,
				"method": "rhf"
			},
			{
				"type": "unocc",
				"energy": -0.00428,
				"method": "rhf"
			},
			{
				"type": "unocc",
				"energy": 0.01615,
				"method": "rhf"
			},
			{
				"type": "unocc",
				"energy": 0.05715,
				"method": "rhf"
			},
			{
				"type": "unocc",
				"energy": 0.07457,
				"method": "rhf"
			},
			{
				"type": "unocc",
				"energy": 0.10337,
				"method": "rhf"
			}
		],
		"cosmo_sigma_profile": { 
			"-0.025": 0.0,
			"-0.024": 0.0,
			"-0.023": 0.0,
			"-0.022": 0.0,
			"-0.021": 0.0,
			"-0.02": 0.0,
			"-0.019": 0.0,
			"-0.018": 0.0,
			"-0.017": 0.0,
			"-0.016": 0.0135473310342,
			"-0.015": 1.43719668783,
			"-0.014": 2.88505965262,
			"-0.013": 1.86277779862,
			"-0.012": 2.95279614618,
			"-0.011": 2.39638642843,
			"-0.01": 1.9491078198,
			"-0.009": 0.952557498259,
			"-0.008": 2.20974910425,
			"-0.007": 3.35448748414,
			"-0.006": 6.10864861523,
			"-0.005": 9.62680679079,
			"-0.004": 9.54338684186,
			"-0.003": 9.38779774706,
			"-0.002": 9.29332860731,
			"-0.001": 8.74636220938,
			"0.0": 8.73663000733,
			"0.001": 9.15230353668,
			"0.002": 11.9936074258,
			"0.003": 10.4073364555,
			"0.004": 13.6144724377,
			"0.005": 13.1628767444,
			"0.006": 7.7734950828,
			"0.007": 3.48101147005,
			"0.008": 1.90311147138,
			"0.009": 1.99852688839,
			"0.01": 1.93749511819,
			"0.011": 1.47728217927,
			"0.012": 0.770407914029,
			"0.013": 0.808612730578,
			"0.014": 0.855066323304,
			"0.015": 1.16738083786,
			"0.016": 1.01210210007,
			"0.017": 0.170221882854,
			"0.018": 0.0,
			"0.019": 0.0,
			"0.02": 0.0,
			"0.021": 0.0,
			"0.022": 0.0,
			"0.023": 0.0,
			"0.024": 0.0,
			"0.025": 0.0
		}
	}
}
