{
	 "smiles": "OC1=CC=CC=C1C(=O)OCC1=CC=CC=C1", 
	 "Tm": 292.15, 
	 "num_atms": 29, 
	 "gaussian": { 
		 "optdone": 1, 
		 "sigma_profile": "yes", 
		 "theory": "DFT", 
		 "functional": "B3LYP", 
		 "basiset": "6-31G**", 
		 "properties": { 
			 "R2extent": 5539.0102, 
			 "electric_dipole_moment_norm": 3.34053280032, 
			 "electric_quadrupole_moment_norm": 12.8667092953, 
			 "total_energy": -766.399345097, 
			 "HOMO_LUMO_gap": 0.19185, 
			 "cosmo_polarized_energy": -14.26, 
			 "cosmo_cavitation_energy": 33.52, 
			 "cosmo_dispersion_energy": -24.44, 
			 "cosmo_repulsion_energy": 1.87, 
			 "cosmo_total_nonelectrostatic_energy": 10.95, 
			 "SMD_solvation_energy": 6.85 
		},
		"coords": [
			{
				"x": -0.2591608772,
				"y": 1.9040620578,
				"z": -0.8589907617,
				"element": "O" 
			},
			{
				"x": -1.5394994814,
				"y": 1.5032261549,
				"z": -0.6311952584,
				"element": "C" 
			},
			{
				"x": -2.6111170707,
				"y": 2.2411339646,
				"z": -1.1564727523,
				"element": "C" 
			},
			{
				"x": -3.9267785866,
				"y": 1.8465737534,
				"z": -0.9407839184,
				"element": "C" 
			},
			{
				"x": -4.2006382419,
				"y": 0.698377175,
				"z": -0.1931908027,
				"element": "C" 
			},
			{
				"x": -3.142738818,
				"y": -0.0348729928,
				"z": 0.3277999816,
				"element": "C" 
			},
			{
				"x": -1.8028989592,
				"y": 0.3416337236,
				"z": 0.1294877607,
				"element": "C" 
			},
			{
				"x": -0.7871907227,
				"y": -0.5539111888,
				"z": 0.7591885277,
				"element": "C" 
			},
			{
				"x": -1.0799961312,
				"y": -1.5730831168,
				"z": 1.3593640002,
				"element": "O" 
			},
			{
				"x": 0.4848564215,
				"y": -0.1357170202,
				"z": 0.6148234962,
				"element": "O" 
			},
			{
				"x": 1.4857367707,
				"y": -0.9860744627,
				"z": 1.1987883768,
				"element": "C" 
			},
			{
				"x": 2.8560238243,
				"y": -0.4226908599,
				"z": 0.9057021881,
				"element": "C" 
			},
			{
				"x": 3.0608530424,
				"y": 0.5898103632,
				"z": -0.0373240873,
				"element": "C" 
			},
			{
				"x": 4.352374163,
				"y": 1.0558050125,
				"z": -0.2960296129,
				"element": "C" 
			},
			{
				"x": 5.4483997175,
				"y": 0.5168695863,
				"z": 0.3778775348,
				"element": "C" 
			},
			{
				"x": 5.247688815,
				"y": -0.4937182612,
				"z": 1.3212522393,
				"element": "C" 
			},
			{
				"x": 3.9595184612,
				"y": -0.9571537245,
				"z": 1.5841580123,
				"element": "C" 
			},
			{
				"x": -0.2818037431,
				"y": 2.7121867032,
				"z": -1.3887431847,
				"element": "H" 
			},
			{
				"x": -2.3989577835,
				"y": 3.1342130729,
				"z": -1.7413988485,
				"element": "H" 
			},
			{
				"x": -4.7364744259,
				"y": 2.4376066756,
				"z": -1.3590831619,
				"element": "H" 
			},
			{
				"x": -5.2241954071,
				"y": 0.3824651376,
				"z": -0.0208864046,
				"element": "H" 
			},
			{
				"x": -3.3170361589,
				"y": -0.9319520221,
				"z": 0.9115565227,
				"element": "H" 
			},
			{
				"x": 1.3725868074,
				"y": -1.9970548045,
				"z": 0.7890654061,
				"element": "H" 
			},
			{
				"x": 1.3084810186,
				"y": -1.0636918838,
				"z": 2.2774152845,
				"element": "H" 
			},
			{
				"x": 2.2063148239,
				"y": 1.0122264273,
				"z": -0.5537369727,
				"element": "H" 
			},
			{
				"x": 4.5006050506,
				"y": 1.845012962,
				"z": -1.0282848243,
				"element": "H" 
			},
			{
				"x": 6.4508970588,
				"y": 0.8820753523,
				"z": 0.1737566083,
				"element": "H" 
			},
			{
				"x": 6.093241583,
				"y": -0.9174991856,
				"z": 1.8558029248,
				"element": "H" 
			},
			{
				"x": 3.8095088493,
				"y": -1.7405585991,
				"z": 2.3240817266,
				"element": "H" 
			}
		],
		 "valence_orbital": [ 
			{
				"type": "occ",
				"energy": -0.2703,
				"method": "rhf"
			},
			{
				"type": "occ",
				"energy": -0.26163,
				"method": "rhf"
			},
			{
				"type": "occ",
				"energy": -0.24496,
				"method": "rhf"
			},
			{
				"type": "occ",
				"energy": -0.23822,
				"method": "rhf"
			},
			{
				"type": "occ",
				"energy": -0.23429,
				"method": "rhf"
			},
			{
				"type": "unocc",
				"energy": -0.04244,
				"method": "rhf"
			},
			{
				"type": "unocc",
				"energy": 0.00043,
				"method": "rhf"
			},
			{
				"type": "unocc",
				"energy": 0.00097,
				"method": "rhf"
			},
			{
				"type": "unocc",
				"energy": 0.00571,
				"method": "rhf"
			},
			{
				"type": "unocc",
				"energy": 0.05825,
				"method": "rhf"
			}
		],
		"cosmo_sigma_profile": { 
			"-0.025": 0.0,
			"-0.024": 0.0,
			"-0.023": 0.0,
			"-0.022": 0.0,
			"-0.021": 0.0,
			"-0.02": 0.0,
			"-0.019": 0.113747082244,
			"-0.018": 0.988327841778,
			"-0.017": 0.903900939636,
			"-0.016": 1.25520073844,
			"-0.015": 0.896054843298,
			"-0.014": 1.26464705883,
			"-0.013": 0.647166933405,
			"-0.012": 0.800078904814,
			"-0.011": 1.27998061708,
			"-0.01": 1.08894850071,
			"-0.009": 1.01024829919,
			"-0.008": 1.4293684546,
			"-0.007": 3.47810876741,
			"-0.006": 15.1896618303,
			"-0.005": 20.9670368988,
			"-0.004": 20.003672209,
			"-0.003": 19.6637994682,
			"-0.002": 16.316002065,
			"-0.001": 14.396488487,
			"0.0": 16.6140993942,
			"0.001": 19.57377915,
			"0.002": 20.0293133433,
			"0.003": 20.967488984,
			"0.004": 21.6900866649,
			"0.005": 15.5277236623,
			"0.006": 11.8609652777,
			"0.007": 3.33759147073,
			"0.008": 2.26859929525,
			"0.009": 4.1512841068,
			"0.01": 2.82067184899,
			"0.011": 2.68763618911,
			"0.012": 4.65603570432,
			"0.013": 0.4917587066,
			"0.014": 0.0,
			"0.015": 0.0,
			"0.016": 0.0,
			"0.017": 0.0,
			"0.018": 0.0,
			"0.019": 0.0,
			"0.02": 0.0,
			"0.021": 0.0,
			"0.022": 0.0,
			"0.023": 0.0,
			"0.024": 0.0,
			"0.025": 0.0
		}
	}
}
