{
	 "smiles": "O=C1CC(=O)N(N1)C1=CC=CC=C1", 
	 "Tm": 464.15, 
	 "num_atms": 21, 
	 "gaussian": { 
		 "optdone": 1, 
		 "sigma_profile": "yes", 
		 "theory": "DFT", 
		 "functional": "B3LYP", 
		 "basiset": "6-31G**", 
		 "properties": { 
			 "R2extent": 4166.124, 
			 "electric_dipole_moment_norm": 2.1286386941, 
			 "electric_quadrupole_moment_norm": 11.5466201929, 
			 "total_energy": -607.712413717, 
			 "HOMO_LUMO_gap": 0.18934, 
			 "cosmo_polarized_energy": -14.79, 
			 "cosmo_cavitation_energy": 25.42, 
			 "cosmo_dispersion_energy": -19.02, 
			 "cosmo_repulsion_energy": 1.5, 
			 "cosmo_total_nonelectrostatic_energy": 7.9, 
			 "SMD_solvation_energy": 5.89 
		},
		"coords": [
			{
				"x": 3.1002109717,
				"y": 4.4308956393,
				"z": -0.2929763527,
				"element": "O" 
			},
			{
				"x": 2.4355203769,
				"y": 3.4244119767,
				"z": -0.4062166867,
				"element": "C" 
			},
			{
				"x": 2.8809270371,
				"y": 1.9742015833,
				"z": -0.446238774,
				"element": "C" 
			},
			{
				"x": 1.6488395534,
				"y": 1.2042534895,
				"z": -0.9041627651,
				"element": "C" 
			},
			{
				"x": 1.5593966372,
				"y": 0.0133238912,
				"z": -1.1320581847,
				"element": "O" 
			},
			{
				"x": 0.6109958748,
				"y": 2.1291779657,
				"z": -0.9844700255,
				"element": "N" 
			},
			{
				"x": 1.0466331717,
				"y": 3.4155538938,
				"z": -0.5575927467,
				"element": "N" 
			},
			{
				"x": -0.7812681469,
				"y": 1.8697061093,
				"z": -1.0415355511,
				"element": "C" 
			},
			{
				"x": -1.6874304275,
				"y": 2.7846535,
				"z": -0.4856316527,
				"element": "C" 
			},
			{
				"x": -3.057791444,
				"y": 2.538735029,
				"z": -0.5697768151,
				"element": "C" 
			},
			{
				"x": -3.5359002993,
				"y": 1.3892427976,
				"z": -1.1976928339,
				"element": "C" 
			},
			{
				"x": -2.6262182537,
				"y": 0.4807177647,
				"z": -1.7434705961,
				"element": "C" 
			},
			{
				"x": -1.253956926,
				"y": 0.7108136491,
				"z": -1.6788172515,
				"element": "C" 
			},
			{
				"x": 3.7310498897,
				"y": 1.8380963175,
				"z": -1.1191161252,
				"element": "H" 
			},
			{
				"x": 3.1861128516,
				"y": 1.623221038,
				"z": 0.5454620261,
				"element": "H" 
			},
			{
				"x": 0.6522951314,
				"y": 4.1837906914,
				"z": -1.0937057623,
				"element": "H" 
			},
			{
				"x": -1.3260511756,
				"y": 3.6659060806,
				"z": 0.0315869069,
				"element": "H" 
			},
			{
				"x": -3.7505531089,
				"y": 3.2521952741,
				"z": -0.1331837115,
				"element": "H" 
			},
			{
				"x": -4.6033790026,
				"y": 1.2024230938,
				"z": -1.2610556216,
				"element": "H" 
			},
			{
				"x": -2.9848145285,
				"y": -0.4194825542,
				"z": -2.2339973017,
				"element": "H" 
			},
			{
				"x": -0.5501181827,
				"y": 0.0045627696,
				"z": -2.0964501749,
				"element": "H" 
			}
		],
		 "valence_orbital": [ 
			{
				"type": "occ",
				"energy": -0.2933,
				"method": "rhf"
			},
			{
				"type": "occ",
				"energy": -0.28436,
				"method": "rhf"
			},
			{
				"type": "occ",
				"energy": -0.26463,
				"method": "rhf"
			},
			{
				"type": "occ",
				"energy": -0.25996,
				"method": "rhf"
			},
			{
				"type": "occ",
				"energy": -0.2227,
				"method": "rhf"
			},
			{
				"type": "unocc",
				"energy": -0.03336,
				"method": "rhf"
			},
			{
				"type": "unocc",
				"energy": -0.01405,
				"method": "rhf"
			},
			{
				"type": "unocc",
				"energy": -0.00764,
				"method": "rhf"
			},
			{
				"type": "unocc",
				"energy": 0.02771,
				"method": "rhf"
			},
			{
				"type": "unocc",
				"energy": 0.07394,
				"method": "rhf"
			}
		],
		"cosmo_sigma_profile": { 
			"-0.025": 0.0,
			"-0.024": 0.0,
			"-0.023": 0.0,
			"-0.022": 0.0,
			"-0.021": 0.0,
			"-0.02": 0.0,
			"-0.019": 0.0,
			"-0.018": 0.0,
			"-0.017": 0.135914042002,
			"-0.016": 1.16020368055,
			"-0.015": 1.40229423669,
			"-0.014": 0.610911014041,
			"-0.013": 0.797145605723,
			"-0.012": 1.22886315555,
			"-0.011": 1.43491889955,
			"-0.01": 2.84362761562,
			"-0.009": 6.77163138637,
			"-0.008": 7.67722992348,
			"-0.007": 6.37487245265,
			"-0.006": 10.4655959371,
			"-0.005": 13.7028872264,
			"-0.004": 12.6178453967,
			"-0.003": 12.3792020463,
			"-0.002": 10.1197610955,
			"-0.001": 10.1968568324,
			"0.0": 9.18169286042,
			"0.001": 10.8641260059,
			"0.002": 11.4394737511,
			"0.003": 11.2083493085,
			"0.004": 12.3002585954,
			"0.005": 13.4098310982,
			"0.006": 4.17090769859,
			"0.007": 2.80239605315,
			"0.008": 3.54071705514,
			"0.009": 2.4340526919,
			"0.01": 4.32007184928,
			"0.011": 7.21382202898,
			"0.012": 8.71943506437,
			"0.013": 2.23480778856,
			"0.014": 0.0,
			"0.015": 0.0,
			"0.016": 0.0,
			"0.017": 0.0,
			"0.018": 0.0,
			"0.019": 0.0,
			"0.02": 0.0,
			"0.021": 0.0,
			"0.022": 0.0,
			"0.023": 0.0,
			"0.024": 0.0,
			"0.025": 0.0
		}
	}
}
