{
	 "smiles": "CCO[Si](C)(C)OCC", 
	 "Tm": 203.15, 
	 "num_atms": 25, 
	 "gaussian": { 
		 "optdone": 1, 
		 "sigma_profile": "yes", 
		 "theory": "DFT", 
		 "functional": "B3LYP", 
		 "basiset": "6-31G**", 
		 "properties": { 
			 "R2extent": 2302.4, 
			 "electric_dipole_moment_norm": 1.50942048813, 
			 "electric_quadrupole_moment_norm": 3.38345190301, 
			 "total_energy": -678.337477436, 
			 "HOMO_LUMO_gap": 0.3316, 
			 "cosmo_polarized_energy": -6.01, 
			 "cosmo_cavitation_energy": 28.93, 
			 "cosmo_dispersion_energy": -18.24, 
			 "cosmo_repulsion_energy": 1.68, 
			 "cosmo_total_nonelectrostatic_energy": 12.37, 
			 "SMD_solvation_energy": 6.13 
		},
		"coords": [
			{
				"x": -1.7435773328,
				"y": 0.9625790973,
				"z": 3.3454042141,
				"element": "C" 
			},
			{
				"x": -1.1214099501,
				"y": -0.1261386949,
				"z": 2.4849607998,
				"element": "C" 
			},
			{
				"x": -1.626387765,
				"y": -0.0127043982,
				"z": 1.1550898353,
				"element": "O" 
			},
			{
				"x": -1.1707694229,
				"y": -0.9787439814,
				"z": -0.1136149588,
				"element": "Si" 
			},
			{
				"x": -1.9922077293,
				"y": -0.2525905224,
				"z": -1.6322585403,
				"element": "C" 
			},
			{
				"x": -1.680777332,
				"y": -2.7686590729,
				"z": 0.1707912454,
				"element": "C" 
			},
			{
				"x": 0.4940011656,
				"y": -0.8713237069,
				"z": -0.1996973246,
				"element": "O" 
			},
			{
				"x": 1.3276274124,
				"y": -1.6090530002,
				"z": -1.0851126437,
				"element": "C" 
			},
			{
				"x": 2.7810894599,
				"y": -1.2433616606,
				"z": -0.8237097522,
				"element": "C" 
			},
			{
				"x": -1.4965857561,
				"y": 1.951314883,
				"z": 2.9476651566,
				"element": "H" 
			},
			{
				"x": -1.3720438111,
				"y": 0.8983480486,
				"z": 4.3737808051,
				"element": "H" 
			},
			{
				"x": -2.8331380153,
				"y": 0.8636844775,
				"z": 3.3627283387,
				"element": "H" 
			},
			{
				"x": -0.0278714504,
				"y": -0.0302690982,
				"z": 2.4767779005,
				"element": "H" 
			},
			{
				"x": -1.3637810625,
				"y": -1.1169255582,
				"z": 2.8978328524,
				"element": "H" 
			},
			{
				"x": -1.7050706016,
				"y": 0.7960343274,
				"z": -1.7567144198,
				"element": "H" 
			},
			{
				"x": -1.7109556321,
				"y": -0.7914027282,
				"z": -2.5439153839,
				"element": "H" 
			},
			{
				"x": -3.0829002876,
				"y": -0.2947868267,
				"z": -1.5444236653,
				"element": "H" 
			},
			{
				"x": -1.2304789876,
				"y": -3.1757645432,
				"z": 1.0824666977,
				"element": "H" 
			},
			{
				"x": -1.3788037784,
				"y": -3.4152479089,
				"z": -0.6609481734,
				"element": "H" 
			},
			{
				"x": -2.7686056015,
				"y": -2.8493068132,
				"z": 0.2707890492,
				"element": "H" 
			},
			{
				"x": 1.0678149946,
				"y": -1.3828358791,
				"z": -2.1305338643,
				"element": "H" 
			},
			{
				"x": 1.180723263,
				"y": -2.689926419,
				"z": -0.9393166812,
				"element": "H" 
			},
			{
				"x": 3.4448335956,
				"y": -1.7970715533,
				"z": -1.4963061388,
				"element": "H" 
			},
			{
				"x": 3.0549985786,
				"y": -1.4806586156,
				"z": 0.2086282851,
				"element": "H" 
			},
			{
				"x": 2.9393760466,
				"y": -0.1724898525,
				"z": -0.9812636336,
				"element": "H" 
			}
		],
		 "valence_orbital": [ 
			{
				"type": "occ",
				"energy": -0.31966,
				"method": "rhf"
			},
			{
				"type": "occ",
				"energy": -0.29573,
				"method": "rhf"
			},
			{
				"type": "occ",
				"energy": -0.29303,
				"method": "rhf"
			},
			{
				"type": "occ",
				"energy": -0.27033,
				"method": "rhf"
			},
			{
				"type": "occ",
				"energy": -0.26056,
				"method": "rhf"
			},
			{
				"type": "unocc",
				"energy": 0.07104,
				"method": "rhf"
			},
			{
				"type": "unocc",
				"energy": 0.08766,
				"method": "rhf"
			},
			{
				"type": "unocc",
				"energy": 0.0983,
				"method": "rhf"
			},
			{
				"type": "unocc",
				"energy": 0.10316,
				"method": "rhf"
			},
			{
				"type": "unocc",
				"energy": 0.11561,
				"method": "rhf"
			}
		],
		"cosmo_sigma_profile": { 
			"-0.025": 0.0,
			"-0.024": 0.0,
			"-0.023": 0.0,
			"-0.022": 0.0,
			"-0.021": 0.0,
			"-0.02": 0.0,
			"-0.019": 0.0,
			"-0.018": 0.0,
			"-0.017": 0.0,
			"-0.016": 0.0,
			"-0.015": 0.0,
			"-0.014": 0.0,
			"-0.013": 0.0,
			"-0.012": 0.0,
			"-0.011": 0.0,
			"-0.01": 0.0,
			"-0.009": 0.0,
			"-0.008": 0.0,
			"-0.007": 0.0,
			"-0.006": 0.0,
			"-0.005": 0.43958084816,
			"-0.004": 17.796014994,
			"-0.003": 35.920960438,
			"-0.002": 35.2768450737,
			"-0.001": 32.4481637941,
			"0.0": 27.6184651841,
			"0.001": 26.5599272265,
			"0.002": 11.4606502467,
			"0.003": 5.34394570483,
			"0.004": 3.51073730566,
			"0.005": 2.85617380056,
			"0.006": 3.33837686009,
			"0.007": 2.58396613657,
			"0.008": 3.75211828495,
			"0.009": 3.20086093982,
			"0.01": 2.51733831117,
			"0.011": 2.04564826126,
			"0.012": 1.84093221861,
			"0.013": 1.72109615168,
			"0.014": 0.190170338621,
			"0.015": 0.0,
			"0.016": 0.0,
			"0.017": 0.0,
			"0.018": 0.0,
			"0.019": 0.0,
			"0.02": 0.0,
			"0.021": 0.0,
			"0.022": 0.0,
			"0.023": 0.0,
			"0.024": 0.0,
			"0.025": 0.0
		}
	}
}
