{
	 "smiles": "[O-][N+](=O)C1=NC=C(C=C1)N1CCNCC1", 
	 "Tm": 421.15, 
	 "num_atms": 27, 
	 "gaussian": { 
		 "optdone": 1, 
		 "sigma_profile": "yes", 
		 "theory": "DFT", 
		 "functional": "B3LYP", 
		 "basiset": "6-31G**", 
		 "properties": { 
			 "R2extent": 4847.1304, 
			 "electric_dipole_moment_norm": 8.83329603036, 
			 "electric_quadrupole_moment_norm": 31.1699157857, 
			 "total_energy": -719.515776978, 
			 "HOMO_LUMO_gap": 0.15089, 
			 "cosmo_polarized_energy": -19.55, 
			 "cosmo_cavitation_energy": 29.95, 
			 "cosmo_dispersion_energy": -22.46, 
			 "cosmo_repulsion_energy": 1.74, 
			 "cosmo_total_nonelectrostatic_energy": 9.23, 
			 "SMD_solvation_energy": 2.69 
		},
		"coords": [
			{
				"x": -4.0359151252,
				"y": -3.7197617183,
				"z": 1.3186319209,
				"element": "O" 
			},
			{
				"x": -3.1664179589,
				"y": -3.1846666725,
				"z": 1.9942755849,
				"element": "N" 
			},
			{
				"x": -3.0320516007,
				"y": -3.3185553707,
				"z": 3.2161545974,
				"element": "O" 
			},
			{
				"x": -2.1891643129,
				"y": -2.3072205572,
				"z": 1.3184134839,
				"element": "C" 
			},
			{
				"x": -2.3396473585,
				"y": -2.1506497165,
				"z": 0.0121219116,
				"element": "N" 
			},
			{
				"x": -1.4825068882,
				"y": -1.3654578788,
				"z": -0.6248530526,
				"element": "C" 
			},
			{
				"x": -0.4047136713,
				"y": -0.6846479645,
				"z": 0.0114269262,
				"element": "C" 
			},
			{
				"x": -0.2831369635,
				"y": -0.8821957811,
				"z": 1.4081455269,
				"element": "C" 
			},
			{
				"x": -1.1853869411,
				"y": -1.6992733946,
				"z": 2.070803074,
				"element": "C" 
			},
			{
				"x": 0.455657698,
				"y": 0.1151604806,
				"z": -0.6969448365,
				"element": "N" 
			},
			{
				"x": 0.5085705815,
				"y": 0.0797226557,
				"z": -2.1625709327,
				"element": "C" 
			},
			{
				"x": 1.9104799642,
				"y": 0.4901471342,
				"z": -2.6322499014,
				"element": "C" 
			},
			{
				"x": 2.3381295261,
				"y": 1.8117149788,
				"z": -2.1595047243,
				"element": "N" 
			},
			{
				"x": 1.6958144056,
				"y": 2.2277710662,
				"z": -0.9070629048,
				"element": "C" 
			},
			{
				"x": 1.3932236704,
				"y": 1.0182033577,
				"z": -0.0229981376,
				"element": "C" 
			},
			{
				"x": -1.6557069523,
				"y": -1.2456294891,
				"z": -1.6898692033,
				"element": "H" 
			},
			{
				"x": 0.5240783988,
				"y": -0.4232852066,
				"z": 1.9658806831,
				"element": "H" 
			},
			{
				"x": -1.1191436393,
				"y": -1.8798418671,
				"z": 3.135632606,
				"element": "H" 
			},
			{
				"x": -0.2553834299,
				"y": 0.7363678767,
				"z": -2.6074577945,
				"element": "H" 
			},
			{
				"x": 0.304398966,
				"y": -0.9396732062,
				"z": -2.506074449,
				"element": "H" 
			},
			{
				"x": 2.6208523064,
				"y": -0.2716135933,
				"z": -2.2833057447,
				"element": "H" 
			},
			{
				"x": 1.9448061784,
				"y": 0.4694967548,
				"z": -3.7255980919,
				"element": "H" 
			},
			{
				"x": 2.1765953822,
				"y": 2.5115787886,
				"z": -2.8748878467,
				"element": "H" 
			},
			{
				"x": 2.3624500139,
				"y": 2.9039226555,
				"z": -0.3577236007,
				"element": "H" 
			},
			{
				"x": 0.7486613314,
				"y": 2.7696921787,
				"z": -1.0672708543,
				"element": "H" 
			},
			{
				"x": 2.3291723034,
				"y": 0.5041609001,
				"z": 0.2439098377,
				"element": "H" 
			},
			{
				"x": 0.9382841155,
				"y": 1.3773335889,
				"z": 0.9043759222,
				"element": "H" 
			}
		],
		 "valence_orbital": [ 
			{
				"type": "occ",
				"energy": -0.28609,
				"method": "rhf"
			},
			{
				"type": "occ",
				"energy": -0.27898,
				"method": "rhf"
			},
			{
				"type": "occ",
				"energy": -0.26429,
				"method": "rhf"
			},
			{
				"type": "occ",
				"energy": -0.23876,
				"method": "rhf"
			},
			{
				"type": "occ",
				"energy": -0.22129,
				"method": "rhf"
			},
			{
				"type": "unocc",
				"energy": -0.0704,
				"method": "rhf"
			},
			{
				"type": "unocc",
				"energy": -0.03547,
				"method": "rhf"
			},
			{
				"type": "unocc",
				"energy": 0.01722,
				"method": "rhf"
			},
			{
				"type": "unocc",
				"energy": 0.05141,
				"method": "rhf"
			},
			{
				"type": "unocc",
				"energy": 0.07962,
				"method": "rhf"
			}
		],
		"cosmo_sigma_profile": { 
			"-0.025": 0.0,
			"-0.024": 0.0,
			"-0.023": 0.0,
			"-0.022": 0.0,
			"-0.021": 0.0,
			"-0.02": 0.0,
			"-0.019": 0.0,
			"-0.018": 0.0,
			"-0.017": 0.0,
			"-0.016": 0.0,
			"-0.015": 0.0,
			"-0.014": 0.0,
			"-0.013": 0.0,
			"-0.012": 0.0,
			"-0.011": 0.27554587554,
			"-0.01": 1.60371615969,
			"-0.009": 1.53587790264,
			"-0.008": 4.05238515519,
			"-0.007": 9.74096168474,
			"-0.006": 13.0439412316,
			"-0.005": 18.8115181193,
			"-0.004": 28.8047292764,
			"-0.003": 26.5115500535,
			"-0.002": 15.9207576737,
			"-0.001": 16.6361767649,
			"0.0": 17.4188215453,
			"0.001": 13.4647838014,
			"0.002": 7.99460259197,
			"0.003": 3.4833183303,
			"0.004": 4.68302112134,
			"0.005": 3.84102134951,
			"0.006": 4.66057087715,
			"0.007": 4.53509031483,
			"0.008": 10.0098321037,
			"0.009": 9.06612566094,
			"0.01": 6.89441422157,
			"0.011": 4.45838355384,
			"0.012": 2.20178925173,
			"0.013": 1.66406874907,
			"0.014": 0.852513339207,
			"0.015": 1.94321643824,
			"0.016": 1.28357263206,
			"0.017": 0.887329699619,
			"0.018": 0.323373240116,
			"0.019": 0.0,
			"0.02": 0.0,
			"0.021": 0.0,
			"0.022": 0.0,
			"0.023": 0.0,
			"0.024": 0.0,
			"0.025": 0.0
		}
	}
}
