{
	 "smiles": "NC(=O)C1CCN(CC2=CC(N)=CC=C2)CC1", 
	 "Tm": 413.15, 
	 "num_atms": 36, 
	 "gaussian": { 
		 "optdone": 1, 
		 "sigma_profile": "yes", 
		 "theory": "DFT", 
		 "functional": "B3LYP", 
		 "basiset": "6-31G**", 
		 "properties": { 
			 "R2extent": 4860.0168, 
			 "electric_dipole_moment_norm": 5.34050334426, 
			 "electric_quadrupole_moment_norm": 25.7309877405, 
			 "total_energy": -746.33108034, 
			 "HOMO_LUMO_gap": 0.1999, 
			 "cosmo_polarized_energy": -17.43, 
			 "cosmo_cavitation_energy": 36.61, 
			 "cosmo_dispersion_energy": -25.4, 
			 "cosmo_repulsion_energy": 1.97, 
			 "cosmo_total_nonelectrostatic_energy": 13.18, 
			 "SMD_solvation_energy": 5.87 
		},
		"coords": [
			{
				"x": -0.4648723869,
				"y": 1.0046691125,
				"z": -2.4679524556,
				"element": "N" 
			},
			{
				"x": -1.7960844923,
				"y": 1.3065190172,
				"z": -2.5080873634,
				"element": "C" 
			},
			{
				"x": -2.2249371374,
				"y": 2.3972243765,
				"z": -2.8671236337,
				"element": "O" 
			},
			{
				"x": -2.755938302,
				"y": 0.1873831194,
				"z": -2.0638604445,
				"element": "C" 
			},
			{
				"x": -2.4110322368,
				"y": -1.2348607572,
				"z": -2.5907912741,
				"element": "C" 
			},
			{
				"x": -1.7484696065,
				"y": -2.1208888173,
				"z": -1.5171201806,
				"element": "C" 
			},
			{
				"x": -0.8521394602,
				"y": -1.3107990351,
				"z": -0.683917712,
				"element": "N" 
			},
			{
				"x": 0.1081535539,
				"y": -2.1115251369,
				"z": 0.0861259938,
				"element": "C" 
			},
			{
				"x": 1.2250308555,
				"y": -1.278422554,
				"z": 0.686673442,
				"element": "C" 
			},
			{
				"x": 2.1682015645,
				"y": -0.6804696105,
				"z": -0.1558955899,
				"element": "C" 
			},
			{
				"x": 3.2147165668,
				"y": 0.0996896431,
				"z": 0.3591632484,
				"element": "C" 
			},
			{
				"x": 4.1157333518,
				"y": 0.7379254832,
				"z": -0.4951443503,
				"element": "N" 
			},
			{
				"x": 3.3055677948,
				"y": 0.2682499895,
				"z": 1.7534338571,
				"element": "C" 
			},
			{
				"x": 2.372263347,
				"y": -0.3312418247,
				"z": 2.5923105969,
				"element": "C" 
			},
			{
				"x": 1.3316749841,
				"y": -1.1041711232,
				"z": 2.0701142968,
				"element": "C" 
			},
			{
				"x": -1.618000042,
				"y": -0.3866782148,
				"z": 0.1790571326,
				"element": "C" 
			},
			{
				"x": -2.8844835569,
				"y": 0.1459324346,
				"z": -0.5248844479,
				"element": "C" 
			},
			{
				"x": -0.1686987144,
				"y": 0.1861874386,
				"z": -1.9374725659,
				"element": "H" 
			},
			{
				"x": 0.1746929705,
				"y": 1.7736476536,
				"z": -2.606443239,
				"element": "H" 
			},
			{
				"x": -3.7181073336,
				"y": 0.5057220641,
				"z": -2.4725651249,
				"element": "H" 
			},
			{
				"x": -3.3261624824,
				"y": -1.7280652609,
				"z": -2.9369425802,
				"element": "H" 
			},
			{
				"x": -1.7483208984,
				"y": -1.1544937264,
				"z": -3.457772048,
				"element": "H" 
			},
			{
				"x": -1.1588414523,
				"y": -2.9088643627,
				"z": -1.9969633043,
				"element": "H" 
			},
			{
				"x": -2.5142088461,
				"y": -2.6333089792,
				"z": -0.9050991053,
				"element": "H" 
			},
			{
				"x": 0.5382853633,
				"y": -2.8506621386,
				"z": -0.6004371719,
				"element": "H" 
			},
			{
				"x": -0.39752244,
				"y": -2.6771836646,
				"z": 0.890428787,
				"element": "H" 
			},
			{
				"x": 2.0910341589,
				"y": -0.8246732236,
				"z": -1.2319982311,
				"element": "H" 
			},
			{
				"x": 5.0078949809,
				"y": 0.9729422644,
				"z": -0.0825936861,
				"element": "H" 
			},
			{
				"x": 4.222466683,
				"y": 0.3121593838,
				"z": -1.4055568828,
				"element": "H" 
			},
			{
				"x": 4.1093734179,
				"y": 0.8707451348,
				"z": 2.169414344,
				"element": "H" 
			},
			{
				"x": 2.4578796471,
				"y": -0.195053345,
				"z": 3.6668835899,
				"element": "H" 
			},
			{
				"x": 0.6076448755,
				"y": -1.569530775,
				"z": 2.732687625,
				"element": "H" 
			},
			{
				"x": -0.9549640708,
				"y": 0.4368036574,
				"z": 0.4610650706,
				"element": "H" 
			},
			{
				"x": -1.9155150104,
				"y": -0.8914030609,
				"z": 1.1162725943,
				"element": "H" 
			},
			{
				"x": -3.7360367374,
				"y": -0.5003816899,
				"z": -0.2819140829,
				"element": "H" 
			},
			{
				"x": -3.1299789085,
				"y": 1.1400765278,
				"z": -0.1386951041,
				"element": "H" 
			}
		],
		 "valence_orbital": [ 
			{
				"type": "occ",
				"energy": -0.24869,
				"method": "rhf"
			},
			{
				"type": "occ",
				"energy": -0.2451,
				"method": "rhf"
			},
			{
				"type": "occ",
				"energy": -0.23293,
				"method": "rhf"
			},
			{
				"type": "occ",
				"energy": -0.21646,
				"method": "rhf"
			},
			{
				"type": "occ",
				"energy": -0.20697,
				"method": "rhf"
			},
			{
				"type": "unocc",
				"energy": -0.00707,
				"method": "rhf"
			},
			{
				"type": "unocc",
				"energy": 0.01331,
				"method": "rhf"
			},
			{
				"type": "unocc",
				"energy": 0.04548,
				"method": "rhf"
			},
			{
				"type": "unocc",
				"energy": 0.0715,
				"method": "rhf"
			},
			{
				"type": "unocc",
				"energy": 0.08045,
				"method": "rhf"
			}
		],
		"cosmo_sigma_profile": { 
			"-0.025": 0.0,
			"-0.024": 0.0,
			"-0.023": 0.0,
			"-0.022": 0.0,
			"-0.021": 0.0,
			"-0.02": 0.0,
			"-0.019": 0.0,
			"-0.018": 0.0,
			"-0.017": 0.0,
			"-0.016": 0.0,
			"-0.015": 0.0,
			"-0.014": 0.0,
			"-0.013": 0.370820071554,
			"-0.012": 3.24092208079,
			"-0.011": 3.47329445654,
			"-0.01": 3.92644133183,
			"-0.009": 4.07110581451,
			"-0.008": 4.17116532387,
			"-0.007": 3.02223153996,
			"-0.006": 4.53243099505,
			"-0.005": 10.5799102027,
			"-0.004": 18.8139111451,
			"-0.003": 36.3634867965,
			"-0.002": 42.6763780059,
			"-0.001": 32.3069269616,
			"0.0": 20.9015192398,
			"0.001": 12.6651721724,
			"0.002": 10.6847660908,
			"0.003": 9.55461322281,
			"0.004": 9.48841468686,
			"0.005": 8.05249482231,
			"0.006": 10.7717467806,
			"0.007": 9.54139315993,
			"0.008": 2.9183164096,
			"0.009": 2.806879162,
			"0.01": 1.80005024802,
			"0.011": 2.12702992206,
			"0.012": 1.6649479476,
			"0.013": 3.30287481081,
			"0.014": 5.2071425862,
			"0.015": 5.30333167815,
			"0.016": 0.832763822238,
			"0.017": 0.0,
			"0.018": 0.0,
			"0.019": 0.0,
			"0.02": 0.0,
			"0.021": 0.0,
			"0.022": 0.0,
			"0.023": 0.0,
			"0.024": 0.0,
			"0.025": 0.0
		}
	}
}
