{
	 "smiles": "CC(O)(C1=CC=C(Cl)C=C1)C1=CC=C(Cl)C=C1", 
	 "Tm": 343.15, 
	 "num_atms": 29, 
	 "gaussian": { 
		 "optdone": 1, 
		 "sigma_profile": "yes", 
		 "theory": "DFT", 
		 "functional": "B3LYP", 
		 "basiset": "6-31G**", 
		 "properties": { 
			 "R2extent": 7280.1813, 
			 "electric_dipole_moment_norm": 2.93827581755, 
			 "electric_quadrupole_moment_norm": 16.2827456131, 
			 "total_energy": -1536.33289773, 
			 "HOMO_LUMO_gap": 0.21311, 
			 "cosmo_polarized_energy": -9.66, 
			 "cosmo_cavitation_energy": 35.99, 
			 "cosmo_dispersion_energy": -25.6, 
			 "cosmo_repulsion_energy": 2.0, 
			 "cosmo_total_nonelectrostatic_energy": 12.39, 
			 "SMD_solvation_energy": 5.6 
		},
		"coords": [
			{
				"x": -0.6412793413,
				"y": 2.294404994,
				"z": 1.3183244336,
				"element": "C" 
			},
			{
				"x": -0.1208217519,
				"y": 0.9329301968,
				"z": 1.8177429933,
				"element": "C" 
			},
			{
				"x": -0.2413787168,
				"y": 0.8959153355,
				"z": 3.2475076314,
				"element": "O" 
			},
			{
				"x": -1.0300205102,
				"y": -0.1830748131,
				"z": 1.2839764369,
				"element": "C" 
			},
			{
				"x": -1.973403065,
				"y": -0.7996780455,
				"z": 2.1127445287,
				"element": "C" 
			},
			{
				"x": -2.8308452413,
				"y": -1.7829114138,
				"z": 1.6153601125,
				"element": "C" 
			},
			{
				"x": -2.7450692827,
				"y": -2.148491667,
				"z": 0.2744958583,
				"element": "C" 
			},
			{
				"x": -3.8221023102,
				"y": -3.3863994414,
				"z": -0.3606187516,
				"element": "Cl" 
			},
			{
				"x": -1.8133682173,
				"y": -1.5491458452,
				"z": -0.572549664,
				"element": "C" 
			},
			{
				"x": -0.9617223239,
				"y": -0.5726224101,
				"z": -0.0600366771,
				"element": "C" 
			},
			{
				"x": 1.3449395562,
				"y": 0.6673675049,
				"z": 1.4371604462,
				"element": "C" 
			},
			{
				"x": 2.0234404535,
				"y": 1.3796374634,
				"z": 0.4420102401,
				"element": "C" 
			},
			{
				"x": 3.3564310889,
				"y": 1.0970446655,
				"z": 0.1306659737,
				"element": "C" 
			},
			{
				"x": 4.0179720722,
				"y": 0.09002164,
				"z": 0.8269402109,
				"element": "C" 
			},
			{
				"x": 5.6957027233,
				"y": -0.2709665028,
				"z": 0.4464690001,
				"element": "Cl" 
			},
			{
				"x": 3.3673649651,
				"y": -0.6359174802,
				"z": 1.8263230226,
				"element": "C" 
			},
			{
				"x": 2.0394848014,
				"y": -0.3422677301,
				"z": 2.1219249734,
				"element": "C" 
			},
			{
				"x": -0.6924976358,
				"y": 2.3448022477,
				"z": 0.2275046027,
				"element": "H" 
			},
			{
				"x": -1.6495083591,
				"y": 2.4452342788,
				"z": 1.7107374152,
				"element": "H" 
			},
			{
				"x": -0.0013655171,
				"y": 3.111186882,
				"z": 1.6718970648,
				"element": "H" 
			},
			{
				"x": 0.3551918305,
				"y": 1.5683579324,
				"z": 3.6023214348,
				"element": "H" 
			},
			{
				"x": -2.0342246162,
				"y": -0.5103651093,
				"z": 3.1546252214,
				"element": "H" 
			},
			{
				"x": -3.5578647155,
				"y": -2.2597908418,
				"z": 2.2636895608,
				"element": "H" 
			},
			{
				"x": -1.7516864764,
				"y": -1.847302598,
				"z": -1.6133151518,
				"element": "H" 
			},
			{
				"x": -0.2254664053,
				"y": -0.1214544583,
				"z": -0.7188690204,
				"element": "H" 
			},
			{
				"x": 1.5245810804,
				"y": 2.1719943875,
				"z": -0.1056168545,
				"element": "H" 
			},
			{
				"x": 3.8738508822,
				"y": 1.656648859,
				"z": -0.6407781803,
				"element": "H" 
			},
			{
				"x": 3.8952024514,
				"y": -1.4176470398,
				"z": 2.3615457062,
				"element": "H" 
			},
			{
				"x": 1.5271625811,
				"y": -0.8960109912,
				"z": 2.9017174322,
				"element": "H" 
			}
		],
		 "valence_orbital": [ 
			{
				"type": "occ",
				"energy": -0.29143,
				"method": "rhf"
			},
			{
				"type": "occ",
				"energy": -0.26843,
				"method": "rhf"
			},
			{
				"type": "occ",
				"energy": -0.26087,
				"method": "rhf"
			},
			{
				"type": "occ",
				"energy": -0.24977,
				"method": "rhf"
			},
			{
				"type": "occ",
				"energy": -0.23775,
				"method": "rhf"
			},
			{
				"type": "unocc",
				"energy": -0.02464,
				"method": "rhf"
			},
			{
				"type": "unocc",
				"energy": -0.02166,
				"method": "rhf"
			},
			{
				"type": "unocc",
				"energy": -0.01348,
				"method": "rhf"
			},
			{
				"type": "unocc",
				"energy": -0.0063,
				"method": "rhf"
			},
			{
				"type": "unocc",
				"energy": 0.02701,
				"method": "rhf"
			}
		],
		"cosmo_sigma_profile": { 
			"-0.025": 0.0,
			"-0.024": 0.0,
			"-0.023": 0.0,
			"-0.022": 0.0,
			"-0.021": 0.0,
			"-0.02": 0.0,
			"-0.019": 0.0,
			"-0.018": 0.0,
			"-0.017": 0.0,
			"-0.016": 0.268466335454,
			"-0.015": 0.840332890291,
			"-0.014": 0.727852336455,
			"-0.013": 1.00109046125,
			"-0.012": 0.868434634013,
			"-0.011": 1.04939201676,
			"-0.01": 0.801281805261,
			"-0.009": 0.816353411331,
			"-0.008": 1.04763405568,
			"-0.007": 7.22293241897,
			"-0.006": 14.574936198,
			"-0.005": 17.4345786512,
			"-0.004": 18.781875962,
			"-0.003": 15.1666650983,
			"-0.002": 18.0279204595,
			"-0.001": 19.1849379524,
			"0.0": 23.3055582195,
			"0.001": 23.6326233259,
			"0.002": 31.2989736205,
			"0.003": 33.1837924136,
			"0.004": 35.5454608262,
			"0.005": 18.6386503394,
			"0.006": 2.16046878814,
			"0.007": 1.51127970136,
			"0.008": 1.03729902942,
			"0.009": 1.36139512398,
			"0.01": 1.32338986797,
			"0.011": 0.651985503277,
			"0.012": 0.0,
			"0.013": 0.0,
			"0.014": 0.0,
			"0.015": 0.0,
			"0.016": 0.0,
			"0.017": 0.0,
			"0.018": 0.0,
			"0.019": 0.0,
			"0.02": 0.0,
			"0.021": 0.0,
			"0.022": 0.0,
			"0.023": 0.0,
			"0.024": 0.0,
			"0.025": 0.0
		}
	}
}
