{
	 "smiles": "[O-][N+](=O)C1=CC(CCOC(=O)C2=CC=CC=C2)=C(C=C1CCOC(=O)C1=CC=CC=C1)[N+]([O-])=O", 
	 "Tm": 431.15, 
	 "num_atms": 54, 
	 "gaussian": { 
		 "optdone": 1, 
		 "sigma_profile": "yes", 
		 "theory": "DFT", 
		 "functional": "B3LYP", 
		 "basiset": "6-31G**", 
		 "properties": { 
			 "R2extent": 14368.6424, 
			 "electric_dipole_moment_norm": 3.88922943653, 
			 "electric_quadrupole_moment_norm": 20.0377211406, 
			 "total_energy": -1637.73201142, 
			 "HOMO_LUMO_gap": 0.1367, 
			 "cosmo_polarized_energy": -20.55, 
			 "cosmo_cavitation_energy": 60.15, 
			 "cosmo_dispersion_energy": -37.04, 
			 "cosmo_repulsion_energy": 2.74, 
			 "cosmo_total_nonelectrostatic_energy": 25.86, 
			 "SMD_solvation_energy": 14.97 
		},
		"coords": [
			{
				"x": -0.2736464388,
				"y": 4.2428478471,
				"z": -1.2398586162,
				"element": "O" 
			},
			{
				"x": -0.7137232569,
				"y": 3.6985112551,
				"z": -0.2303217858,
				"element": "N" 
			},
			{
				"x": -0.688916672,
				"y": 4.2021566654,
				"z": 0.8931800046,
				"element": "O" 
			},
			{
				"x": -1.3159621898,
				"y": 2.3558473351,
				"z": -0.387758769,
				"element": "C" 
			},
			{
				"x": -0.9853321276,
				"y": 1.6899538323,
				"z": -1.5654372427,
				"element": "C" 
			},
			{
				"x": -1.4822902711,
				"y": 0.4201938864,
				"z": -1.8717678848,
				"element": "C" 
			},
			{
				"x": -1.0133021264,
				"y": -0.3198122702,
				"z": -3.1139936862,
				"element": "C" 
			},
			{
				"x": 0.3376550372,
				"y": 0.1277129891,
				"z": -3.6600644817,
				"element": "C" 
			},
			{
				"x": 1.290112293,
				"y": 0.0443363053,
				"z": -2.5865046127,
				"element": "O" 
			},
			{
				"x": 2.6048933161,
				"y": 0.011450809,
				"z": -2.930938051,
				"element": "C" 
			},
			{
				"x": 2.9833807788,
				"y": -0.0132458309,
				"z": -4.0853225836,
				"element": "O" 
			},
			{
				"x": 3.4937111618,
				"y": 0.0108890513,
				"z": -1.7372433355,
				"element": "C" 
			},
			{
				"x": 4.8724685851,
				"y": -0.1320824706,
				"z": -1.9483897609,
				"element": "C" 
			},
			{
				"x": 5.7475771195,
				"y": -0.1249699529,
				"z": -0.865079155,
				"element": "C" 
			},
			{
				"x": 5.2520554478,
				"y": 0.0343409187,
				"z": 0.4325618838,
				"element": "C" 
			},
			{
				"x": 3.8793080092,
				"y": 0.1844385878,
				"z": 0.6458477044,
				"element": "C" 
			},
			{
				"x": 2.9980103401,
				"y": 0.1688933023,
				"z": -0.4342814155,
				"element": "C" 
			},
			{
				"x": -2.3822486271,
				"y": -0.105681868,
				"z": -0.9280336381,
				"element": "C" 
			},
			{
				"x": -2.6978458904,
				"y": 0.5485345738,
				"z": 0.2607102558,
				"element": "C" 
			},
			{
				"x": -2.1611579368,
				"y": 1.7957766408,
				"z": 0.5882907603,
				"element": "C" 
			},
			{
				"x": -2.499542076,
				"y": 2.3822802241,
				"z": 1.9414589912,
				"element": "C" 
			},
			{
				"x": -1.4132956798,
				"y": 2.1239608579,
				"z": 2.9970799136,
				"element": "C" 
			},
			{
				"x": -1.2834910689,
				"y": 0.7112858515,
				"z": 3.2599953683,
				"element": "O" 
			},
			{
				"x": -0.2074241007,
				"y": 0.068686608,
				"z": 2.7387388185,
				"element": "C" 
			},
			{
				"x": 0.6328484194,
				"y": 0.6191969522,
				"z": 2.0494390511,
				"element": "O" 
			},
			{
				"x": -0.180020149,
				"y": -1.373023754,
				"z": 3.1080607336,
				"element": "C" 
			},
			{
				"x": -1.1516013986,
				"y": -1.9506710958,
				"z": 3.9386431202,
				"element": "C" 
			},
			{
				"x": -1.078468655,
				"y": -3.305807895,
				"z": 4.2547108987,
				"element": "C" 
			},
			{
				"x": -0.0403765807,
				"y": -4.0894903203,
				"z": 3.7449412047,
				"element": "C" 
			},
			{
				"x": 0.9285823979,
				"y": -3.5168958066,
				"z": 2.9165485241,
				"element": "C" 
			},
			{
				"x": 0.8607072253,
				"y": -2.1630494442,
				"z": 2.5982785198,
				"element": "C" 
			},
			{
				"x": -3.0612945428,
				"y": -1.4000522334,
				"z": -1.1430224455,
				"element": "N" 
			},
			{
				"x": -3.2179240096,
				"y": -1.7778571181,
				"z": -2.3041129634,
				"element": "O" 
			},
			{
				"x": -3.4519365792,
				"y": -2.0101855515,
				"z": -0.1503332115,
				"element": "O" 
			},
			{
				"x": -0.2985717724,
				"y": 2.1862253365,
				"z": -2.2357787247,
				"element": "H" 
			},
			{
				"x": -1.7628027217,
				"y": -0.2244247441,
				"z": -3.9082840416,
				"element": "H" 
			},
			{
				"x": -0.9622733863,
				"y": -1.3883522182,
				"z": -2.894973911,
				"element": "H" 
			},
			{
				"x": 0.323027433,
				"y": 1.1534621205,
				"z": -4.0467471068,
				"element": "H" 
			},
			{
				"x": 0.6484639942,
				"y": -0.5219164878,
				"z": -4.4816298292,
				"element": "H" 
			},
			{
				"x": 5.2339735238,
				"y": -0.2449939933,
				"z": -2.965012895,
				"element": "H" 
			},
			{
				"x": 6.8149080688,
				"y": -0.238638288,
				"z": -1.0306109864,
				"element": "H" 
			},
			{
				"x": 5.9369204136,
				"y": 0.0465976412,
				"z": 1.2759974983,
				"element": "H" 
			},
			{
				"x": 3.4833627716,
				"y": 0.3235020464,
				"z": 1.6469928225,
				"element": "H" 
			},
			{
				"x": 1.9358609613,
				"y": 0.2894998854,
				"z": -0.2593629046,
				"element": "H" 
			},
			{
				"x": -3.370856244,
				"y": 0.0538967591,
				"z": 0.949735138,
				"element": "H" 
			},
			{
				"x": -2.6493034103,
				"y": 3.4615921681,
				"z": 1.8817484411,
				"element": "H" 
			},
			{
				"x": -3.4347398219,
				"y": 1.929927569,
				"z": 2.286609623,
				"element": "H" 
			},
			{
				"x": -1.7127815753,
				"y": 2.5734311822,
				"z": 3.9472551415,
				"element": "H" 
			},
			{
				"x": -0.4537369105,
				"y": 2.5279762192,
				"z": 2.6799623553,
				"element": "H" 
			},
			{
				"x": -1.9542593852,
				"y": -1.3366768775,
				"z": 4.3297810048,
				"element": "H" 
			},
			{
				"x": -1.8318185516,
				"y": -3.7515612903,
				"z": 4.8972611234,
				"element": "H" 
			},
			{
				"x": 0.0126635494,
				"y": -5.1459806889,
				"z": 3.9919478177,
				"element": "H" 
			},
			{
				"x": 1.7345428653,
				"y": -4.1262423962,
				"z": 2.5187982824,
				"element": "H" 
			},
			{
				"x": 1.6028104441,
				"y": -1.7026928249,
				"z": 1.9550890377,
				"element": "H" 
			}
		],
		 "valence_orbital": [ 
			{
				"type": "occ",
				"energy": -0.27519,
				"method": "rhf"
			},
			{
				"type": "occ",
				"energy": -0.26622,
				"method": "rhf"
			},
			{
				"type": "occ",
				"energy": -0.26417,
				"method": "rhf"
			},
			{
				"type": "occ",
				"energy": -0.2569,
				"method": "rhf"
			},
			{
				"type": "occ",
				"energy": -0.2548,
				"method": "rhf"
			},
			{
				"type": "unocc",
				"energy": -0.1181,
				"method": "rhf"
			},
			{
				"type": "unocc",
				"energy": -0.07739,
				"method": "rhf"
			},
			{
				"type": "unocc",
				"energy": -0.05478,
				"method": "rhf"
			},
			{
				"type": "unocc",
				"energy": -0.04614,
				"method": "rhf"
			},
			{
				"type": "unocc",
				"energy": -0.04365,
				"method": "rhf"
			}
		],
		"cosmo_sigma_profile": { 
			"-0.025": 0.0,
			"-0.024": 0.0,
			"-0.023": 0.0,
			"-0.022": 0.0,
			"-0.021": 0.0,
			"-0.02": 0.0,
			"-0.019": 0.0,
			"-0.018": 0.0,
			"-0.017": 0.0,
			"-0.016": 0.0,
			"-0.015": 0.0,
			"-0.014": 0.0,
			"-0.013": 0.0,
			"-0.012": 0.0,
			"-0.011": 0.0,
			"-0.01": 0.462667291549,
			"-0.009": 2.54869213349,
			"-0.008": 6.23993587477,
			"-0.007": 12.8966795624,
			"-0.006": 32.5603927339,
			"-0.005": 39.134681488,
			"-0.004": 35.1060712091,
			"-0.003": 33.2484534906,
			"-0.002": 37.4741644937,
			"-0.001": 33.0172424385,
			"0.0": 34.0480951475,
			"0.001": 34.6430650239,
			"0.002": 34.7860538469,
			"0.003": 36.2828332416,
			"0.004": 35.2168658679,
			"0.005": 12.8628899497,
			"0.006": 12.1973334273,
			"0.007": 17.8226464158,
			"0.008": 11.2286947391,
			"0.009": 9.3995711446,
			"0.01": 3.67177058311,
			"0.011": 3.37500672514,
			"0.012": 3.43753742929,
			"0.013": 0.00652914706529,
			"0.014": 0.0,
			"0.015": 0.0,
			"0.016": 0.0,
			"0.017": 0.0,
			"0.018": 0.0,
			"0.019": 0.0,
			"0.02": 0.0,
			"0.021": 0.0,
			"0.022": 0.0,
			"0.023": 0.0,
			"0.024": 0.0,
			"0.025": 0.0
		}
	}
}
