{
	 "smiles": "CC1(NC(=O)NC1=O)C1=CC=C(C=C1)C(F)(F)F", 
	 "Tm": 443.15, 
	 "num_atms": 27, 
	 "gaussian": { 
		 "optdone": 1, 
		 "sigma_profile": "yes", 
		 "theory": "DFT", 
		 "functional": "B3LYP", 
		 "basiset": "6-31G**", 
		 "properties": { 
			 "R2extent": 6164.5675, 
			 "electric_dipole_moment_norm": 2.72617050457, 
			 "electric_quadrupole_moment_norm": 15.5746472159, 
			 "total_energy": -984.117915167, 
			 "HOMO_LUMO_gap": 0.22419, 
			 "cosmo_polarized_energy": -16.88, 
			 "cosmo_cavitation_energy": 32.97, 
			 "cosmo_dispersion_energy": -22.96, 
			 "cosmo_repulsion_energy": 1.71, 
			 "cosmo_total_nonelectrostatic_energy": 11.72, 
			 "SMD_solvation_energy": 8.48 
		},
		"coords": [
			{
				"x": 1.1387828619,
				"y": 1.2640954597,
				"z": -2.2206085931,
				"element": "C" 
			},
			{
				"x": 0.7024136395,
				"y": 0.8416937897,
				"z": -0.8017772621,
				"element": "C" 
			},
			{
				"x": 0.1560552057,
				"y": 1.9700741927,
				"z": -0.0503481154,
				"element": "N" 
			},
			{
				"x": 0.9549039213,
				"y": 2.380503548,
				"z": 0.9922585041,
				"element": "C" 
			},
			{
				"x": 0.8197521054,
				"y": 3.3463546026,
				"z": 1.7111560033,
				"element": "O" 
			},
			{
				"x": 1.9948382959,
				"y": 1.4302256839,
				"z": 1.0631903468,
				"element": "N" 
			},
			{
				"x": 1.9665630473,
				"y": 0.5094709141,
				"z": 0.0416631126,
				"element": "C" 
			},
			{
				"x": 2.771594084,
				"y": -0.3698969034,
				"z": -0.1784358542,
				"element": "O" 
			},
			{
				"x": -0.243507798,
				"y": -0.3645990778,
				"z": -0.8449830394,
				"element": "C" 
			},
			{
				"x": 0.1956162809,
				"y": -1.5751382962,
				"z": -1.4031196174,
				"element": "C" 
			},
			{
				"x": -0.658494574,
				"y": -2.6714234408,
				"z": -1.4757310558,
				"element": "C" 
			},
			{
				"x": -1.9679591039,
				"y": -2.5726342184,
				"z": -0.9968168442,
				"element": "C" 
			},
			{
				"x": -2.4110023445,
				"y": -1.3763465187,
				"z": -0.4325802921,
				"element": "C" 
			},
			{
				"x": -1.5506529111,
				"y": -0.2815211719,
				"z": -0.3545150352,
				"element": "C" 
			},
			{
				"x": -2.8730216851,
				"y": -3.774129033,
				"z": -1.0335571233,
				"element": "C" 
			},
			{
				"x": -2.6279445831,
				"y": -4.5533529227,
				"z": -2.110548207,
				"element": "F" 
			},
			{
				"x": -2.7103415268,
				"y": -4.5549753039,
				"z": 0.0595985153,
				"element": "F" 
			},
			{
				"x": -4.1771630064,
				"y": -3.4216390651,
				"z": -1.0739723936,
				"element": "F" 
			},
			{
				"x": 1.6622898398,
				"y": 0.4456801748,
				"z": -2.7182116369,
				"element": "H" 
			},
			{
				"x": 1.8089665228,
				"y": 2.1275479813,
				"z": -2.1729319095,
				"element": "H" 
			},
			{
				"x": 0.2617750933,
				"y": 1.5284659411,
				"z": -2.8192347941,
				"element": "H" 
			},
			{
				"x": -0.4955766405,
				"y": 2.6311657634,
				"z": -0.4464139215,
				"element": "H" 
			},
			{
				"x": 2.7227312729,
				"y": 1.4799671002,
				"z": 1.7619625955,
				"element": "H" 
			},
			{
				"x": 1.2174144028,
				"y": -1.6681626138,
				"z": -1.7526516536,
				"element": "H" 
			},
			{
				"x": -0.3108553267,
				"y": -3.6027632783,
				"z": -1.9098115932,
				"element": "H" 
			},
			{
				"x": -3.4261560901,
				"y": -1.2980811201,
				"z": -0.0588868098,
				"element": "H" 
			},
			{
				"x": -1.8978209836,
				"y": 0.6391178126,
				"z": 0.1006066737,
				"element": "H" 
			}
		],
		 "valence_orbital": [ 
			{
				"type": "occ",
				"energy": -0.29916,
				"method": "rhf"
			},
			{
				"type": "occ",
				"energy": -0.28423,
				"method": "rhf"
			},
			{
				"type": "occ",
				"energy": -0.27769,
				"method": "rhf"
			},
			{
				"type": "occ",
				"energy": -0.27168,
				"method": "rhf"
			},
			{
				"type": "occ",
				"energy": -0.26526,
				"method": "rhf"
			},
			{
				"type": "unocc",
				"energy": -0.04107,
				"method": "rhf"
			},
			{
				"type": "unocc",
				"energy": -0.02337,
				"method": "rhf"
			},
			{
				"type": "unocc",
				"energy": -0.01422,
				"method": "rhf"
			},
			{
				"type": "unocc",
				"energy": 0.04747,
				"method": "rhf"
			},
			{
				"type": "unocc",
				"energy": 0.06404,
				"method": "rhf"
			}
		],
		"cosmo_sigma_profile": { 
			"-0.025": 0.0,
			"-0.024": 0.0,
			"-0.023": 0.0,
			"-0.022": 0.0,
			"-0.021": 0.0,
			"-0.02": 0.0,
			"-0.019": 0.0,
			"-0.018": 0.0,
			"-0.017": 0.655662946051,
			"-0.016": 1.40156083226,
			"-0.015": 2.25937566242,
			"-0.014": 2.49904676179,
			"-0.013": 2.16107917643,
			"-0.012": 1.27122377612,
			"-0.011": 2.26661012788,
			"-0.01": 1.72565678382,
			"-0.009": 2.42565934135,
			"-0.008": 2.59840702062,
			"-0.007": 6.22837459364,
			"-0.006": 12.5399701613,
			"-0.005": 15.7259631934,
			"-0.004": 14.9695317051,
			"-0.003": 15.5579035434,
			"-0.002": 17.6772995828,
			"-0.001": 16.494622766,
			"0.0": 14.9201239877,
			"0.001": 17.9190434084,
			"0.002": 27.0549827549,
			"0.003": 41.9864522873,
			"0.004": 6.56542161713,
			"0.005": 2.4493519022,
			"0.006": 2.53893032886,
			"0.007": 2.21583944483,
			"0.008": 2.96273160894,
			"0.009": 2.95421980568,
			"0.01": 4.3965166197,
			"0.011": 5.3662165929,
			"0.012": 8.64717577865,
			"0.013": 4.36825688965,
			"0.014": 0.257014347782,
			"0.015": 0.0,
			"0.016": 0.0,
			"0.017": 0.0,
			"0.018": 0.0,
			"0.019": 0.0,
			"0.02": 0.0,
			"0.021": 0.0,
			"0.022": 0.0,
			"0.023": 0.0,
			"0.024": 0.0,
			"0.025": 0.0
		}
	}
}
