{
	 "smiles": "NC1=CC(CN2C(=O)CNC2=O)=CC=C1", 
	 "Tm": 433.15, 
	 "num_atms": 26, 
	 "gaussian": { 
		 "optdone": 1, 
		 "sigma_profile": "yes", 
		 "theory": "DFT", 
		 "functional": "B3LYP", 
		 "basiset": "6-31G**", 
		 "properties": { 
			 "R2extent": 3669.7637, 
			 "electric_dipole_moment_norm": 3.38217472346, 
			 "electric_quadrupole_moment_norm": 15.3496400059, 
			 "total_energy": -702.440330705, 
			 "HOMO_LUMO_gap": 0.19006, 
			 "cosmo_polarized_energy": -19.4, 
			 "cosmo_cavitation_energy": 30.37, 
			 "cosmo_dispersion_energy": -21.74, 
			 "cosmo_repulsion_energy": 1.72, 
			 "cosmo_total_nonelectrostatic_energy": 10.35, 
			 "SMD_solvation_energy": 5.4 
		},
		"coords": [
			{
				"x": 2.5230409142,
				"y": -2.3150611259,
				"z": -1.0034437504,
				"element": "N" 
			},
			{
				"x": 1.8833964234,
				"y": -1.0916924816,
				"z": -0.7906585677,
				"element": "C" 
			},
			{
				"x": 1.1351943955,
				"y": -0.8718762641,
				"z": 0.3778611927,
				"element": "C" 
			},
			{
				"x": 0.5408265399,
				"y": 0.3674465705,
				"z": 0.6252781361,
				"element": "C" 
			},
			{
				"x": -0.2778017965,
				"y": 0.5693287513,
				"z": 1.8860178417,
				"element": "C" 
			},
			{
				"x": -1.6990857348,
				"y": 0.264415656,
				"z": 1.7044704913,
				"element": "N" 
			},
			{
				"x": -2.24735411,
				"y": -0.9954574154,
				"z": 1.8055486922,
				"element": "C" 
			},
			{
				"x": -1.6673709464,
				"y": -2.0233314783,
				"z": 2.0965311803,
				"element": "O" 
			},
			{
				"x": -3.7387942822,
				"y": -0.836523232,
				"z": 1.482454639,
				"element": "C" 
			},
			{
				"x": -3.8615831484,
				"y": 0.5932359099,
				"z": 1.2818521906,
				"element": "N" 
			},
			{
				"x": -2.6533174183,
				"y": 1.2428978301,
				"z": 1.3426389941,
				"element": "C" 
			},
			{
				"x": -2.421212975,
				"y": 2.4199474129,
				"z": 1.1492282085,
				"element": "O" 
			},
			{
				"x": 0.6806494148,
				"y": 1.4104645406,
				"z": -0.2986607132,
				"element": "C" 
			},
			{
				"x": 1.4233955599,
				"y": 1.1956667068,
				"z": -1.460451053,
				"element": "C" 
			},
			{
				"x": 2.0223893835,
				"y": -0.0370282385,
				"z": -1.709530451,
				"element": "C" 
			},
			{
				"x": 2.1141964443,
				"y": -3.1007519296,
				"z": -0.5161463478,
				"element": "H" 
			},
			{
				"x": 2.720175859,
				"y": -2.533510674,
				"z": -1.9703873769,
				"element": "H" 
			},
			{
				"x": 1.0040105202,
				"y": -1.6792970763,
				"z": 1.0940908797,
				"element": "H" 
			},
			{
				"x": 0.082080972,
				"y": -0.0779152083,
				"z": 2.689490741,
				"element": "H" 
			},
			{
				"x": -0.2279887157,
				"y": 1.6090979506,
				"z": 2.2158299543,
				"element": "H" 
			},
			{
				"x": -4.3428220382,
				"y": -1.2094579082,
				"z": 2.3173440632,
				"element": "H" 
			},
			{
				"x": -3.9834504715,
				"y": -1.4248056628,
				"z": 0.5892181769,
				"element": "H" 
			},
			{
				"x": -4.662119798,
				"y": 1.0570181211,
				"z": 0.8836815192,
				"element": "H" 
			},
			{
				"x": 0.202148694,
				"y": 2.3665169609,
				"z": -0.11101531,
				"element": "H" 
			},
			{
				"x": 1.539627029,
				"y": 1.9985565763,
				"z": -2.1833866804,
				"element": "H" 
			},
			{
				"x": 2.6054692855,
				"y": -0.1886842921,
				"z": -2.6148566504,
				"element": "H" 
			}
		],
		 "valence_orbital": [ 
			{
				"type": "occ",
				"energy": -0.27573,
				"method": "rhf"
			},
			{
				"type": "occ",
				"energy": -0.26521,
				"method": "rhf"
			},
			{
				"type": "occ",
				"energy": -0.26305,
				"method": "rhf"
			},
			{
				"type": "occ",
				"energy": -0.24049,
				"method": "rhf"
			},
			{
				"type": "occ",
				"energy": -0.1989,
				"method": "rhf"
			},
			{
				"type": "unocc",
				"energy": -0.00884,
				"method": "rhf"
			},
			{
				"type": "unocc",
				"energy": 0.0022,
				"method": "rhf"
			},
			{
				"type": "unocc",
				"energy": 0.01919,
				"method": "rhf"
			},
			{
				"type": "unocc",
				"energy": 0.06078,
				"method": "rhf"
			},
			{
				"type": "unocc",
				"energy": 0.08007,
				"method": "rhf"
			}
		],
		"cosmo_sigma_profile": { 
			"-0.025": 0.0,
			"-0.024": 0.0,
			"-0.023": 0.0,
			"-0.022": 0.0,
			"-0.021": 0.0,
			"-0.02": 0.0,
			"-0.019": 0.0,
			"-0.018": 0.0,
			"-0.017": 0.0,
			"-0.016": 0.2120687451,
			"-0.015": 1.5177221188,
			"-0.014": 1.01129461412,
			"-0.013": 1.54235360666,
			"-0.012": 3.66654808772,
			"-0.011": 3.58192296801,
			"-0.01": 3.51563192377,
			"-0.009": 4.67852000238,
			"-0.008": 8.26900776614,
			"-0.007": 10.4910818137,
			"-0.006": 11.6064291415,
			"-0.005": 16.1939408081,
			"-0.004": 15.2136626954,
			"-0.003": 16.6497267727,
			"-0.002": 14.7851150847,
			"-0.001": 9.6443761878,
			"0.0": 10.9725463422,
			"0.001": 8.85671855705,
			"0.002": 10.1697673427,
			"0.003": 10.6043822264,
			"0.004": 12.1592180675,
			"0.005": 11.9779586541,
			"0.006": 13.15779838,
			"0.007": 8.59332440239,
			"0.008": 3.48776562147,
			"0.009": 3.96983324701,
			"0.01": 3.76453740349,
			"0.011": 4.62681334021,
			"0.012": 8.44365178921,
			"0.013": 6.01516196286,
			"0.014": 1.1616303443,
			"0.015": 0.2043108156,
			"0.016": 0.0,
			"0.017": 0.0,
			"0.018": 0.0,
			"0.019": 0.0,
			"0.02": 0.0,
			"0.021": 0.0,
			"0.022": 0.0,
			"0.023": 0.0,
			"0.024": 0.0,
			"0.025": 0.0
		}
	}
}
