{
	 "smiles": "CC(Cl)C(Cl)=O", 
	 "Tm": 202.15, 
	 "num_atms": 10, 
	 "gaussian": { 
		 "optdone": 1, 
		 "sigma_profile": "yes", 
		 "theory": "DFT", 
		 "functional": "B3LYP", 
		 "basiset": "6-31G**", 
		 "properties": { 
			 "R2extent": 2787.2546, 
			 "electric_dipole_moment_norm": 2.69175706742, 
			 "electric_quadrupole_moment_norm": 8.27447734301, 
			 "total_energy": -1112.34261946, 
			 "HOMO_LUMO_gap": 0.23187, 
			 "cosmo_polarized_energy": -5.71, 
			 "cosmo_cavitation_energy": 17.69, 
			 "cosmo_dispersion_energy": -13.09, 
			 "cosmo_repulsion_energy": 1.15, 
			 "cosmo_total_nonelectrostatic_energy": 5.75, 
			 "SMD_solvation_energy": 3.46 
		},
		"coords": [
			{
				"x": 0.5774705968,
				"y": 0.8409857094,
				"z": -0.8701198506,
				"element": "C" 
			},
			{
				"x": 2.0236164973,
				"y": 1.2712998957,
				"z": -0.6893080507,
				"element": "C" 
			},
			{
				"x": 3.1350373741,
				"y": 0.2742664121,
				"z": -1.7354886159,
				"element": "Cl" 
			},
			{
				"x": 2.4901554079,
				"y": 1.0948238537,
				"z": 0.7561941106,
				"element": "C" 
			},
			{
				"x": 3.9714140033,
				"y": 2.0544502062,
				"z": 1.145456008,
				"element": "Cl" 
			},
			{
				"x": 1.9591325176,
				"y": 0.4206809792,
				"z": 1.5793669015,
				"element": "O" 
			},
			{
				"x": -0.0712014733,
				"y": 1.4714814268,
				"z": -0.253450285,
				"element": "H" 
			},
			{
				"x": 0.2842065224,
				"y": 0.9524291592,
				"z": -1.9158525175,
				"element": "H" 
			},
			{
				"x": 0.4405325719,
				"y": -0.1976725959,
				"z": -0.5651463278,
				"element": "H" 
			},
			{
				"x": 2.191335982,
				"y": 2.3050549536,
				"z": -0.9936513726,
				"element": "H" 
			}
		],
		 "valence_orbital": [ 
			{
				"type": "occ",
				"energy": -0.34019,
				"method": "rhf"
			},
			{
				"type": "occ",
				"energy": -0.33619,
				"method": "rhf"
			},
			{
				"type": "occ",
				"energy": -0.32769,
				"method": "rhf"
			},
			{
				"type": "occ",
				"energy": -0.31778,
				"method": "rhf"
			},
			{
				"type": "occ",
				"energy": -0.30372,
				"method": "rhf"
			},
			{
				"type": "unocc",
				"energy": -0.07185,
				"method": "rhf"
			},
			{
				"type": "unocc",
				"energy": 0.00678,
				"method": "rhf"
			},
			{
				"type": "unocc",
				"energy": 0.02061,
				"method": "rhf"
			},
			{
				"type": "unocc",
				"energy": 0.08798,
				"method": "rhf"
			},
			{
				"type": "unocc",
				"energy": 0.12448,
				"method": "rhf"
			}
		],
		"cosmo_sigma_profile": { 
			"-0.025": 0.0,
			"-0.024": 0.0,
			"-0.023": 0.0,
			"-0.022": 0.0,
			"-0.021": 0.0,
			"-0.02": 0.0,
			"-0.019": 0.0,
			"-0.018": 0.0,
			"-0.017": 0.0,
			"-0.016": 0.0,
			"-0.015": 0.0,
			"-0.014": 0.0,
			"-0.013": 0.0,
			"-0.012": 0.0,
			"-0.011": 0.0870639020347,
			"-0.01": 2.74639045645,
			"-0.009": 3.4357484572,
			"-0.008": 2.39222119758,
			"-0.007": 3.39432547848,
			"-0.006": 6.06918805076,
			"-0.005": 7.32353377856,
			"-0.004": 7.47361493289,
			"-0.003": 7.59196925019,
			"-0.002": 11.3727841302,
			"-0.001": 12.3541329047,
			"0.0": 8.09245129788,
			"0.001": 9.501134712,
			"0.002": 10.946257246,
			"0.003": 17.0862184718,
			"0.004": 16.8889253158,
			"0.005": 8.17433172771,
			"0.006": 2.86807958945,
			"0.007": 3.99011842302,
			"0.008": 2.96895959669,
			"0.009": 0.174893861709,
			"0.01": 0.0,
			"0.011": 0.0,
			"0.012": 0.0,
			"0.013": 0.0,
			"0.014": 0.0,
			"0.015": 0.0,
			"0.016": 0.0,
			"0.017": 0.0,
			"0.018": 0.0,
			"0.019": 0.0,
			"0.02": 0.0,
			"0.021": 0.0,
			"0.022": 0.0,
			"0.023": 0.0,
			"0.024": 0.0,
			"0.025": 0.0
		}
	}
}
