{
	 "smiles": "CS(=O)(=O)C1=CC(N)=C(N)C=C1", 
	 "Tm": 399.15, 
	 "num_atms": 22, 
	 "gaussian": { 
		 "optdone": 1, 
		 "sigma_profile": "yes", 
		 "theory": "DFT", 
		 "functional": "B3LYP", 
		 "basiset": "6-31G**", 
		 "properties": { 
			 "R2extent": 2929.3633, 
			 "electric_dipole_moment_norm": 6.64040878937, 
			 "electric_quadrupole_moment_norm": 20.5586392016, 
			 "total_energy": -930.855712426, 
			 "HOMO_LUMO_gap": 0.19132, 
			 "cosmo_polarized_energy": -21.63, 
			 "cosmo_cavitation_energy": 26.94, 
			 "cosmo_dispersion_energy": -20.31, 
			 "cosmo_repulsion_energy": 1.58, 
			 "cosmo_total_nonelectrostatic_energy": 8.22, 
			 "SMD_solvation_energy": 4.35 
		},
		"coords": [
			{
				"x": -2.777450219,
				"y": 1.4848292974,
				"z": 0.7552786945,
				"element": "C" 
			},
			{
				"x": -1.5420678647,
				"y": 0.7942867971,
				"z": 1.8847820969,
				"element": "S" 
			},
			{
				"x": -2.2760634829,
				"y": 0.137082194,
				"z": 2.9787208758,
				"element": "O" 
			},
			{
				"x": -0.5654634616,
				"y": 1.8623402868,
				"z": 2.1604062968,
				"element": "O" 
			},
			{
				"x": -0.7282495288,
				"y": -0.469318437,
				"z": 0.9146552689,
				"element": "C" 
			},
			{
				"x": 0.4168192088,
				"y": -0.1322011268,
				"z": 0.1844585545,
				"element": "C" 
			},
			{
				"x": 1.0577564085,
				"y": -1.0970663065,
				"z": -0.5880469203,
				"element": "C" 
			},
			{
				"x": 2.1972277521,
				"y": -0.8229459039,
				"z": -1.3689438367,
				"element": "N" 
			},
			{
				"x": 0.5273394901,
				"y": -2.4129534829,
				"z": -0.6390370566,
				"element": "C" 
			},
			{
				"x": 1.2012013482,
				"y": -3.3551149626,
				"z": -1.418430094,
				"element": "N" 
			},
			{
				"x": -0.6003722278,
				"y": -2.7325023266,
				"z": 0.1258625047,
				"element": "C" 
			},
			{
				"x": -1.2320938974,
				"y": -1.7688128599,
				"z": 0.910429643,
				"element": "C" 
			},
			{
				"x": -2.2722542144,
				"y": 1.9036881511,
				"z": -0.116063294,
				"element": "H" 
			},
			{
				"x": -3.2960401149,
				"y": 2.2702621032,
				"z": 1.3090195527,
				"element": "H" 
			},
			{
				"x": -3.4759813608,
				"y": 0.6991625798,
				"z": 0.4645176367,
				"element": "H" 
			},
			{
				"x": 0.8186124726,
				"y": 0.8743183636,
				"z": 0.2542063041,
				"element": "H" 
			},
			{
				"x": 2.9274878106,
				"y": -1.5183464554,
				"z": -1.2417665102,
				"element": "H" 
			},
			{
				"x": 2.5733149123,
				"y": 0.1038963476,
				"z": -1.2088444388,
				"element": "H" 
			},
			{
				"x": 1.5594992533,
				"y": -2.9719139766,
				"z": -2.2869258885,
				"element": "H" 
			},
			{
				"x": 0.691449922,
				"y": -4.2153627604,
				"z": -1.5711513198,
				"element": "H" 
			},
			{
				"x": -0.9868609969,
				"y": -3.7482794494,
				"z": 0.0997113373,
				"element": "H" 
			},
			{
				"x": -2.0952112094,
				"y": -2.0202480726,
				"z": 1.5165605931,
				"element": "H" 
			}
		],
		 "valence_orbital": [ 
			{
				"type": "occ",
				"energy": -0.29859,
				"method": "rhf"
			},
			{
				"type": "occ",
				"energy": -0.28292,
				"method": "rhf"
			},
			{
				"type": "occ",
				"energy": -0.27474,
				"method": "rhf"
			},
			{
				"type": "occ",
				"energy": -0.24313,
				"method": "rhf"
			},
			{
				"type": "occ",
				"energy": -0.20978,
				"method": "rhf"
			},
			{
				"type": "unocc",
				"energy": -0.01846,
				"method": "rhf"
			},
			{
				"type": "unocc",
				"energy": -0.00292,
				"method": "rhf"
			},
			{
				"type": "unocc",
				"energy": 0.06035,
				"method": "rhf"
			},
			{
				"type": "unocc",
				"energy": 0.07709,
				"method": "rhf"
			},
			{
				"type": "unocc",
				"energy": 0.09055,
				"method": "rhf"
			}
		],
		"cosmo_sigma_profile": { 
			"-0.025": 0.0,
			"-0.024": 0.0,
			"-0.023": 0.0,
			"-0.022": 0.0,
			"-0.021": 0.0,
			"-0.02": 0.0,
			"-0.019": 0.0,
			"-0.018": 0.0,
			"-0.017": 0.0,
			"-0.016": 0.0,
			"-0.015": 0.0,
			"-0.014": 0.0,
			"-0.013": 1.00880217889,
			"-0.012": 3.74830902603,
			"-0.011": 5.177326522,
			"-0.01": 5.96586189828,
			"-0.009": 5.80752266892,
			"-0.008": 9.78938924647,
			"-0.007": 11.3821096538,
			"-0.006": 12.0431106004,
			"-0.005": 13.1173433294,
			"-0.004": 13.841137114,
			"-0.003": 11.3474988809,
			"-0.002": 9.44305785411,
			"-0.001": 6.27935299633,
			"0.0": 7.16707013672,
			"0.001": 7.40954930063,
			"0.002": 8.50059195288,
			"0.003": 10.7630072509,
			"0.004": 14.9370353218,
			"0.005": 8.4904229806,
			"0.006": 4.70071745932,
			"0.007": 4.66838573444,
			"0.008": 3.15209318538,
			"0.009": 3.45972367453,
			"0.01": 5.59054377787,
			"0.011": 8.28061885219,
			"0.012": 11.414687842,
			"0.013": 5.23799023374,
			"0.014": 0.404795397394,
			"0.015": 0.0,
			"0.016": 0.0,
			"0.017": 0.0,
			"0.018": 0.0,
			"0.019": 0.0,
			"0.02": 0.0,
			"0.021": 0.0,
			"0.022": 0.0,
			"0.023": 0.0,
			"0.024": 0.0,
			"0.025": 0.0
		}
	}
}
