{
	 "smiles": "CCS(=O)(=O)CC", 
	 "Tm": 345.95, 
	 "num_atms": 17, 
	 "gaussian": { 
		 "optdone": 1, 
		 "sigma_profile": "yes", 
		 "theory": "DFT", 
		 "functional": "B3LYP", 
		 "basiset": "6-31G**", 
		 "properties": { 
			 "R2extent": 1080.2107, 
			 "electric_dipole_moment_norm": 4.76697123549, 
			 "electric_quadrupole_moment_norm": 9.76000284938, 
			 "total_energy": -707.038134884, 
			 "HOMO_LUMO_gap": 0.3335, 
			 "cosmo_polarized_energy": -14.51, 
			 "cosmo_cavitation_energy": 20.68, 
			 "cosmo_dispersion_energy": -15.62, 
			 "cosmo_repulsion_energy": 1.27, 
			 "cosmo_total_nonelectrostatic_energy": 6.33, 
			 "SMD_solvation_energy": 3.14 
		},
		"coords": [
			{
				"x": -0.8555104343,
				"y": 1.4244794586,
				"z": 0.4699507078,
				"element": "C" 
			},
			{
				"x": -0.9480051065,
				"y": 0.3945568304,
				"z": -0.6512447844,
				"element": "C" 
			},
			{
				"x": 0.5985180044,
				"y": -0.5244118249,
				"z": -0.9477904736,
				"element": "S" 
			},
			{
				"x": 0.3580955982,
				"y": -1.407856111,
				"z": -2.102449301,
				"element": "O" 
			},
			{
				"x": 1.705884297,
				"y": 0.44773228,
				"z": -0.9625769679,
				"element": "O" 
			},
			{
				"x": 0.8359021184,
				"y": -1.5771996678,
				"z": 0.5216795296,
				"element": "C" 
			},
			{
				"x": -0.1851088456,
				"y": -2.7026190845,
				"z": 0.6532740832,
				"element": "C" 
			},
			{
				"x": -0.7286347178,
				"y": 0.9539082411,
				"z": 1.449788309,
				"element": "H" 
			},
			{
				"x": -0.0148236988,
				"y": 2.1008018478,
				"z": 0.2999285711,
				"element": "H" 
			},
			{
				"x": -1.7760934965,
				"y": 2.0149015936,
				"z": 0.5042033741,
				"element": "H" 
			},
			{
				"x": -1.1312768584,
				"y": 0.8647374532,
				"z": -1.6224316192,
				"element": "H" 
			},
			{
				"x": -1.7327964295,
				"y": -0.3500153651,
				"z": -0.4910210353,
				"element": "H" 
			},
			{
				"x": 1.8497231361,
				"y": -1.9619282497,
				"z": 0.3733120806,
				"element": "H" 
			},
			{
				"x": 0.8588063039,
				"y": -0.9104189352,
				"z": 1.3881852302,
				"element": "H" 
			},
			{
				"x": -1.1907749266,
				"y": -2.32226954,
				"z": 0.857183984,
				"element": "H" 
			},
			{
				"x": 0.0944910896,
				"y": -3.3579573731,
				"z": 1.4836957136,
				"element": "H" 
			},
			{
				"x": -0.2195960337,
				"y": -3.2971415532,
				"z": -0.2623874018,
				"element": "H" 
			}
		],
		 "valence_orbital": [ 
			{
				"type": "occ",
				"energy": -0.37362,
				"method": "rhf"
			},
			{
				"type": "occ",
				"energy": -0.31629,
				"method": "rhf"
			},
			{
				"type": "occ",
				"energy": -0.30584,
				"method": "rhf"
			},
			{
				"type": "occ",
				"energy": -0.28964,
				"method": "rhf"
			},
			{
				"type": "occ",
				"energy": -0.27699,
				"method": "rhf"
			},
			{
				"type": "unocc",
				"energy": 0.05651,
				"method": "rhf"
			},
			{
				"type": "unocc",
				"energy": 0.0718,
				"method": "rhf"
			},
			{
				"type": "unocc",
				"energy": 0.08003,
				"method": "rhf"
			},
			{
				"type": "unocc",
				"energy": 0.08446,
				"method": "rhf"
			},
			{
				"type": "unocc",
				"energy": 0.09639,
				"method": "rhf"
			}
		],
		"cosmo_sigma_profile": { 
			"-0.025": 0.0,
			"-0.024": 0.0,
			"-0.023": 0.0,
			"-0.022": 0.0,
			"-0.021": 0.0,
			"-0.02": 0.0,
			"-0.019": 0.0,
			"-0.018": 0.0,
			"-0.017": 0.0,
			"-0.016": 0.0,
			"-0.015": 0.0,
			"-0.014": 0.0,
			"-0.013": 0.0,
			"-0.012": 0.0,
			"-0.011": 0.0,
			"-0.01": 0.0,
			"-0.009": 0.0292362613841,
			"-0.008": 4.97811418851,
			"-0.007": 11.9282634131,
			"-0.006": 10.2846051455,
			"-0.005": 14.7849188577,
			"-0.004": 18.0738621905,
			"-0.003": 16.8991907188,
			"-0.002": 12.8676543822,
			"-0.001": 15.7859019641,
			"0.0": 8.2085456306,
			"0.001": 1.83344250932,
			"0.002": 1.78292164699,
			"0.003": 2.86884574926,
			"0.004": 2.28222360838,
			"0.005": 2.35333815141,
			"0.006": 3.11240391348,
			"0.007": 2.16961842157,
			"0.008": 1.85016050259,
			"0.009": 3.70645019385,
			"0.01": 3.30689538611,
			"0.011": 6.30121779411,
			"0.012": 9.9304482378,
			"0.013": 6.15632671036,
			"0.014": 0.0184234654286,
			"0.015": 0.0,
			"0.016": 0.0,
			"0.017": 0.0,
			"0.018": 0.0,
			"0.019": 0.0,
			"0.02": 0.0,
			"0.021": 0.0,
			"0.022": 0.0,
			"0.023": 0.0,
			"0.024": 0.0,
			"0.025": 0.0
		}
	}
}
