{
	 "smiles": "OC(=O)CC1=CC(=C(O)C=C1)[N+]([O-])=O", 
	 "Tm": 420.15, 
	 "num_atms": 21, 
	 "gaussian": { 
		 "optdone": 1, 
		 "sigma_profile": "yes", 
		 "theory": "DFT", 
		 "functional": "B3LYP", 
		 "basiset": "6-31G**", 
		 "properties": { 
			 "R2extent": 3284.926, 
			 "electric_dipole_moment_norm": 2.71648656356, 
			 "electric_quadrupole_moment_norm": 24.2093542462, 
			 "total_energy": -739.853873007, 
			 "HOMO_LUMO_gap": 0.14363, 
			 "cosmo_polarized_energy": -18.1, 
			 "cosmo_cavitation_energy": 26.53, 
			 "cosmo_dispersion_energy": -19.38, 
			 "cosmo_repulsion_energy": 1.53, 
			 "cosmo_total_nonelectrostatic_energy": 8.68, 
			 "SMD_solvation_energy": 8.13 
		},
		"coords": [
			{
				"x": 0.7925521489,
				"y": 3.3341165237,
				"z": 0.0886246052,
				"element": "O" 
			},
			{
				"x": 1.0413871854,
				"y": 3.1147400883,
				"z": -1.2242300672,
				"element": "C" 
			},
			{
				"x": 1.3440464934,
				"y": 4.0204821879,
				"z": -1.9577953941,
				"element": "O" 
			},
			{
				"x": 0.9642421071,
				"y": 1.6519626288,
				"z": -1.6933547633,
				"element": "C" 
			},
			{
				"x": -0.0524199714,
				"y": 0.7913888812,
				"z": -0.9771180585,
				"element": "C" 
			},
			{
				"x": 0.327585074,
				"y": -0.1382280467,
				"z": -0.0191128481,
				"element": "C" 
			},
			{
				"x": -0.6322145624,
				"y": -0.9218781579,
				"z": 0.6427993985,
				"element": "C" 
			},
			{
				"x": -2.012191991,
				"y": -0.7943642117,
				"z": 0.3562299104,
				"element": "C" 
			},
			{
				"x": -2.9724572863,
				"y": -1.5078054768,
				"z": 0.9426204861,
				"element": "O" 
			},
			{
				"x": -2.3853530207,
				"y": 0.1542185695,
				"z": -0.6179481226,
				"element": "C" 
			},
			{
				"x": -1.4336865637,
				"y": 0.9212036203,
				"z": -1.261225351,
				"element": "C" 
			},
			{
				"x": -0.168827808,
				"y": -1.8766763073,
				"z": 1.6271146892,
				"element": "N" 
			},
			{
				"x": -1.0241251243,
				"y": -2.5815320834,
				"z": 2.2114595602,
				"element": "O" 
			},
			{
				"x": 1.0310721163,
				"y": -1.9639536434,
				"z": 1.8569760791,
				"element": "O" 
			},
			{
				"x": 0.5253856895,
				"y": 2.5053620268,
				"z": 0.5159504482,
				"element": "H" 
			},
			{
				"x": 0.7740022243,
				"y": 1.6872133427,
				"z": -2.7687829586,
				"element": "H" 
			},
			{
				"x": 1.9687010208,
				"y": 1.2304730809,
				"z": -1.5655417543,
				"element": "H" 
			},
			{
				"x": 1.3697153174,
				"y": -0.2977690694,
				"z": 0.2343330219,
				"element": "H" 
			},
			{
				"x": -2.5204044819,
				"y": -2.1113436554,
				"z": 1.5812052786,
				"element": "H" 
			},
			{
				"x": -3.4416530409,
				"y": 0.2545583932,
				"z": -0.8418662423,
				"element": "H" 
			},
			{
				"x": -1.7540555265,
				"y": 1.6418313086,
				"z": -2.0092379174,
				"element": "H" 
			}
		],
		 "valence_orbital": [ 
			{
				"type": "occ",
				"energy": -0.3223,
				"method": "rhf"
			},
			{
				"type": "occ",
				"energy": -0.32057,
				"method": "rhf"
			},
			{
				"type": "occ",
				"energy": -0.30485,
				"method": "rhf"
			},
			{
				"type": "occ",
				"energy": -0.28615,
				"method": "rhf"
			},
			{
				"type": "occ",
				"energy": -0.25898,
				"method": "rhf"
			},
			{
				"type": "unocc",
				"energy": -0.11535,
				"method": "rhf"
			},
			{
				"type": "unocc",
				"energy": -0.0391,
				"method": "rhf"
			},
			{
				"type": "unocc",
				"energy": -0.02568,
				"method": "rhf"
			},
			{
				"type": "unocc",
				"energy": 0.00218,
				"method": "rhf"
			},
			{
				"type": "unocc",
				"energy": 0.06188,
				"method": "rhf"
			}
		],
		"cosmo_sigma_profile": { 
			"-0.025": 0.0,
			"-0.024": 0.0,
			"-0.023": 0.0,
			"-0.022": 0.0,
			"-0.021": 0.0,
			"-0.02": 0.0,
			"-0.019": 0.0,
			"-0.018": 0.0,
			"-0.017": 0.0,
			"-0.016": 0.0241334385482,
			"-0.015": 0.897036315906,
			"-0.014": 0.239846413226,
			"-0.013": 1.44038144457,
			"-0.012": 1.66733713607,
			"-0.011": 1.27868386075,
			"-0.01": 3.06563269278,
			"-0.009": 4.90634028301,
			"-0.008": 10.4719501623,
			"-0.007": 13.7419426073,
			"-0.006": 12.9141005446,
			"-0.005": 13.3733674369,
			"-0.004": 11.7066780138,
			"-0.003": 10.8573323989,
			"-0.002": 10.902940423,
			"-0.001": 11.7306672325,
			"0.0": 12.083768291,
			"0.001": 11.9251632587,
			"0.002": 7.03783358768,
			"0.003": 4.84103963486,
			"0.004": 6.73604503113,
			"0.005": 6.82827873832,
			"0.006": 7.16825681785,
			"0.007": 9.54995369005,
			"0.008": 8.43390085243,
			"0.009": 9.3332892421,
			"0.01": 6.63304560755,
			"0.011": 5.17444736277,
			"0.012": 5.50416228672,
			"0.013": 1.85880268459,
			"0.014": 0.0237330290934,
			"0.015": 0.0,
			"0.016": 0.0,
			"0.017": 0.0,
			"0.018": 0.0,
			"0.019": 0.0,
			"0.02": 0.0,
			"0.021": 0.0,
			"0.022": 0.0,
			"0.023": 0.0,
			"0.024": 0.0,
			"0.025": 0.0
		}
	}
}
