{
	 "smiles": "COC1=CC(Br)=C(Br)C=C1OC", 
	 "Tm": 364.15, 
	 "num_atms": 20, 
	 "gaussian": { 
		 "optdone": 1, 
		 "sigma_profile": "yes", 
		 "theory": "DFT", 
		 "functional": "B3LYP", 
		 "basiset": "6-31G**", 
		 "properties": { 
			 "R2extent": 7082.0997, 
			 "electric_dipole_moment_norm": 3.80172478357, 
			 "electric_quadrupole_moment_norm": 10.6461578032, 
			 "total_energy": -5602.89068046, 
			 "HOMO_LUMO_gap": 0.20303, 
			 "cosmo_polarized_energy": -7.55, 
			 "cosmo_cavitation_energy": 28.44, 
			 "cosmo_dispersion_energy": -21.46, 
			 "cosmo_repulsion_energy": 1.72, 
			 "cosmo_total_nonelectrostatic_energy": 8.7, 
			 "SMD_solvation_energy": 4.36 
		},
		"coords": [
			{
				"x": 2.2009091374,
				"y": 1.43029185,
				"z": -0.8363878662,
				"element": "C" 
			},
			{
				"x": 0.9845845867,
				"y": 1.0694874759,
				"z": -0.1950977869,
				"element": "O" 
			},
			{
				"x": 0.3677350454,
				"y": -0.0810013397,
				"z": -0.5808529434,
				"element": "C" 
			},
			{
				"x": 0.8317738235,
				"y": -0.9241025717,
				"z": -1.5908380933,
				"element": "C" 
			},
			{
				"x": 0.1506326472,
				"y": -2.105376113,
				"z": -1.9074977682,
				"element": "C" 
			},
			{
				"x": 0.8695469834,
				"y": -3.1915523545,
				"z": -3.2955535683,
				"element": "Br" 
			},
			{
				"x": -1.0064399832,
				"y": -2.4521801795,
				"z": -1.2132467798,
				"element": "C" 
			},
			{
				"x": -1.9844654407,
				"y": -4.0420317452,
				"z": -1.5791783281,
				"element": "Br" 
			},
			{
				"x": -1.4802490181,
				"y": -1.6004800944,
				"z": -0.2101490136,
				"element": "C" 
			},
			{
				"x": -0.8149050917,
				"y": -0.4247831252,
				"z": 0.1155137651,
				"element": "C" 
			},
			{
				"x": -1.2908331281,
				"y": 0.3295472732,
				"z": 1.1533061686,
				"element": "O" 
			},
			{
				"x": -1.782514743,
				"y": 1.6318312178,
				"z": 0.816586786,
				"element": "C" 
			},
			{
				"x": 2.5244542975,
				"y": 2.3577770524,
				"z": -0.3626454616,
				"element": "H" 
			},
			{
				"x": 2.9712600098,
				"y": 0.6625226146,
				"z": -0.6942655864,
				"element": "H" 
			},
			{
				"x": 2.0556357135,
				"y": 1.6029277063,
				"z": -1.9101845219,
				"element": "H" 
			},
			{
				"x": 1.7320448616,
				"y": -0.6859644449,
				"z": -2.1406077879,
				"element": "H" 
			},
			{
				"x": -2.3779457649,
				"y": -1.85101235,
				"z": 0.3420347495,
				"element": "H" 
			},
			{
				"x": -2.1606962973,
				"y": 2.0593086287,
				"z": 1.7469962921,
				"element": "H" 
			},
			{
				"x": -2.6027277747,
				"y": 1.5621038448,
				"z": 0.090917294,
				"element": "H" 
			},
			{
				"x": -0.9897998644,
				"y": 2.2689866544,
				"z": 0.4152504504,
				"element": "H" 
			}
		],
		 "valence_orbital": [ 
			{
				"type": "occ",
				"energy": -0.29149,
				"method": "rhf"
			},
			{
				"type": "occ",
				"energy": -0.28144,
				"method": "rhf"
			},
			{
				"type": "occ",
				"energy": -0.27378,
				"method": "rhf"
			},
			{
				"type": "occ",
				"energy": -0.24801,
				"method": "rhf"
			},
			{
				"type": "occ",
				"energy": -0.22144,
				"method": "rhf"
			},
			{
				"type": "unocc",
				"energy": -0.01841,
				"method": "rhf"
			},
			{
				"type": "unocc",
				"energy": -0.01785,
				"method": "rhf"
			},
			{
				"type": "unocc",
				"energy": -0.01016,
				"method": "rhf"
			},
			{
				"type": "unocc",
				"energy": 0.0401,
				"method": "rhf"
			},
			{
				"type": "unocc",
				"energy": 0.08455,
				"method": "rhf"
			}
		],
		"cosmo_sigma_profile": { 
			"-0.025": 0.0,
			"-0.024": 0.0,
			"-0.023": 0.0,
			"-0.022": 0.0,
			"-0.021": 0.0,
			"-0.02": 0.0,
			"-0.019": 0.0,
			"-0.018": 0.0,
			"-0.017": 0.0,
			"-0.016": 0.0,
			"-0.015": 0.0,
			"-0.014": 0.0,
			"-0.013": 0.0,
			"-0.012": 0.0,
			"-0.011": 0.0,
			"-0.01": 0.0,
			"-0.009": 0.0146210271296,
			"-0.008": 1.75626126397,
			"-0.007": 4.89118551783,
			"-0.006": 11.4125565815,
			"-0.005": 15.5702203546,
			"-0.004": 19.1775199421,
			"-0.003": 21.5333667587,
			"-0.002": 15.6915064387,
			"-0.001": 13.3820743474,
			"0.0": 14.6491236119,
			"0.001": 25.9000672272,
			"0.002": 26.669348002,
			"0.003": 17.1895632773,
			"0.004": 21.4479029923,
			"0.005": 10.467972615,
			"0.006": 3.09767956499,
			"0.007": 2.13292101128,
			"0.008": 2.03321077688,
			"0.009": 2.97575738481,
			"0.01": 1.63600294657,
			"0.011": 1.58127019903,
			"0.012": 0.149493029803,
			"0.013": 0.0,
			"0.014": 0.0,
			"0.015": 0.0,
			"0.016": 0.0,
			"0.017": 0.0,
			"0.018": 0.0,
			"0.019": 0.0,
			"0.02": 0.0,
			"0.021": 0.0,
			"0.022": 0.0,
			"0.023": 0.0,
			"0.024": 0.0,
			"0.025": 0.0
		}
	}
}
