{
	 "smiles": "CC1CCC(=C1)C(O)=O", 
	 "Tm": 307.15, 
	 "num_atms": 19, 
	 "gaussian": { 
		 "optdone": 1, 
		 "sigma_profile": "yes", 
		 "theory": "DFT", 
		 "functional": "B3LYP", 
		 "basiset": "6-31G**", 
		 "properties": { 
			 "R2extent": 1455.5883, 
			 "electric_dipole_moment_norm": 1.93971358968, 
			 "electric_quadrupole_moment_norm": 7.69012803795, 
			 "total_energy": -423.226659832, 
			 "HOMO_LUMO_gap": 0.2139, 
			 "cosmo_polarized_energy": -8.14, 
			 "cosmo_cavitation_energy": 22.08, 
			 "cosmo_dispersion_energy": -16.19, 
			 "cosmo_repulsion_energy": 1.36, 
			 "cosmo_total_nonelectrostatic_energy": 7.25, 
			 "SMD_solvation_energy": 4.79 
		},
		"coords": [
			{
				"x": -2.0769401456,
				"y": -0.385365611,
				"z": 2.0407455729,
				"element": "C" 
			},
			{
				"x": -0.7860206092,
				"y": 0.4572756155,
				"z": 2.0674634636,
				"element": "C" 
			},
			{
				"x": 0.5081246377,
				"y": -0.3828168972,
				"z": 2.2932416382,
				"element": "C" 
			},
			{
				"x": 1.1831679612,
				"y": -0.5240082132,
				"z": 0.9023473632,
				"element": "C" 
			},
			{
				"x": 0.5274975701,
				"y": 0.577704212,
				"z": 0.0949881027,
				"element": "C" 
			},
			{
				"x": -0.5246640113,
				"y": 1.1117467919,
				"z": 0.7331723662,
				"element": "C" 
			},
			{
				"x": 0.9441880546,
				"y": 1.0080965754,
				"z": -1.25458628,
				"element": "C" 
			},
			{
				"x": 2.0002800048,
				"y": 0.2856717397,
				"z": -1.7159288927,
				"element": "O" 
			},
			{
				"x": 0.4340048743,
				"y": 1.896725175,
				"z": -1.9098550999,
				"element": "O" 
			},
			{
				"x": -2.9499191164,
				"y": 0.2297376334,
				"z": 1.7978730434,
				"element": "H" 
			},
			{
				"x": -2.2538407729,
				"y": -0.85036946,
				"z": 3.0163370075,
				"element": "H" 
			},
			{
				"x": -2.0095079167,
				"y": -1.1810886586,
				"z": 1.2911099929,
				"element": "H" 
			},
			{
				"x": -0.8997144969,
				"y": 1.215941763,
				"z": 2.8536422312,
				"element": "H" 
			},
			{
				"x": 0.2946231832,
				"y": -1.3507667127,
				"z": 2.7566847129,
				"element": "H" 
			},
			{
				"x": 1.1784197865,
				"y": 0.1562706053,
				"z": 2.9703056103,
				"element": "H" 
			},
			{
				"x": 2.2713549105,
				"y": -0.4153094529,
				"z": 0.9507381936,
				"element": "H" 
			},
			{
				"x": 0.9950318011,
				"y": -1.5025316619,
				"z": 0.4413515977,
				"element": "H" 
			},
			{
				"x": -1.1495957811,
				"y": 1.8940657155,
				"z": 0.3133129184,
				"element": "H" 
			},
			{
				"x": 2.194910066,
				"y": 0.6401208409,
				"z": -2.5994435421,
				"element": "H" 
			}
		],
		 "valence_orbital": [ 
			{
				"type": "occ",
				"energy": -0.33866,
				"method": "rhf"
			},
			{
				"type": "occ",
				"energy": -0.32964,
				"method": "rhf"
			},
			{
				"type": "occ",
				"energy": -0.31311,
				"method": "rhf"
			},
			{
				"type": "occ",
				"energy": -0.26813,
				"method": "rhf"
			},
			{
				"type": "occ",
				"energy": -0.25194,
				"method": "rhf"
			},
			{
				"type": "unocc",
				"energy": -0.03804,
				"method": "rhf"
			},
			{
				"type": "unocc",
				"energy": 0.08203,
				"method": "rhf"
			},
			{
				"type": "unocc",
				"energy": 0.08328,
				"method": "rhf"
			},
			{
				"type": "unocc",
				"energy": 0.09156,
				"method": "rhf"
			},
			{
				"type": "unocc",
				"energy": 0.12481,
				"method": "rhf"
			}
		],
		"cosmo_sigma_profile": { 
			"-0.025": 0.0,
			"-0.024": 0.0,
			"-0.023": 0.0,
			"-0.022": 0.0,
			"-0.021": 0.0,
			"-0.02": 0.0,
			"-0.019": 0.0,
			"-0.018": 0.492220926526,
			"-0.017": 0.815271968305,
			"-0.016": 0.900040417814,
			"-0.015": 0.967510178261,
			"-0.014": 0.669169251929,
			"-0.013": 0.274744367989,
			"-0.012": 0.575199133639,
			"-0.011": 0.482969670265,
			"-0.01": 1.38846268624,
			"-0.009": 0.547837246486,
			"-0.008": 0.288082984008,
			"-0.007": 0.936029979969,
			"-0.006": 2.28264326611,
			"-0.005": 2.67030693751,
			"-0.004": 6.37511032655,
			"-0.003": 19.7214371891,
			"-0.002": 27.9756212758,
			"-0.001": 25.9901720854,
			"0.0": 21.3903105417,
			"0.001": 15.7197945452,
			"0.002": 7.29107967748,
			"0.003": 5.4897784952,
			"0.004": 2.94204552784,
			"0.005": 2.22202457424,
			"0.006": 3.85848415705,
			"0.007": 2.65851715956,
			"0.008": 2.52541841362,
			"0.009": 3.14404025419,
			"0.01": 2.38062314941,
			"0.011": 2.3727797756,
			"0.012": 5.36512618621,
			"0.013": 1.91659999585,
			"0.014": 0.0,
			"0.015": 0.0,
			"0.016": 0.0,
			"0.017": 0.0,
			"0.018": 0.0,
			"0.019": 0.0,
			"0.02": 0.0,
			"0.021": 0.0,
			"0.022": 0.0,
			"0.023": 0.0,
			"0.024": 0.0,
			"0.025": 0.0
		}
	}
}
