{
	 "smiles": "SC1=C(Cl)C(Cl)=CC=C1", 
	 "Tm": 332.15, 
	 "num_atms": 13, 
	 "gaussian": { 
		 "optdone": 1, 
		 "sigma_profile": "yes", 
		 "theory": "DFT", 
		 "functional": "B3LYP", 
		 "basiset": "6-31G**", 
		 "properties": { 
			 "R2extent": 2958.6231, 
			 "electric_dipole_moment_norm": 1.68159180838, 
			 "electric_quadrupole_moment_norm": 9.061200032, 
			 "total_energy": -1549.61167942, 
			 "HOMO_LUMO_gap": 0.20515, 
			 "cosmo_polarized_energy": -4.83, 
			 "cosmo_cavitation_energy": 21.96, 
			 "cosmo_dispersion_energy": -17.33, 
			 "cosmo_repulsion_energy": 1.35, 
			 "cosmo_total_nonelectrostatic_energy": 5.98, 
			 "SMD_solvation_energy": 2.72 
		},
		"coords": [
			{
				"x": 1.8482760377,
				"y": 1.7782511338,
				"z": -0.468522945,
				"element": "S" 
			},
			{
				"x": 0.9173679532,
				"y": 0.6518088088,
				"z": 0.5476230757,
				"element": "C" 
			},
			{
				"x": 0.241230065,
				"y": 0.9995898208,
				"z": 1.7335989466,
				"element": "C" 
			},
			{
				"x": 0.2666154112,
				"y": 2.6456976953,
				"z": 2.3266894885,
				"element": "Cl" 
			},
			{
				"x": -0.4610983386,
				"y": 0.0145594316,
				"z": 2.4481910566,
				"element": "C" 
			},
			{
				"x": -1.3119706648,
				"y": 0.4082039553,
				"z": 3.9238142588,
				"element": "Cl" 
			},
			{
				"x": -0.4976189738,
				"y": -1.3040423495,
				"z": 1.9983009275,
				"element": "C" 
			},
			{
				"x": 0.1719892015,
				"y": -1.6444048995,
				"z": 0.8252919889,
				"element": "C" 
			},
			{
				"x": 0.8703446951,
				"y": -0.6802042054,
				"z": 0.1089142801,
				"element": "C" 
			},
			{
				"x": 1.6458760238,
				"y": 2.8815482758,
				"z": 0.2731165957,
				"element": "H" 
			},
			{
				"x": -1.0468009382,
				"y": -2.0436239866,
				"z": 2.5688889916,
				"element": "H" 
			},
			{
				"x": 0.147678473,
				"y": -2.6694172448,
				"z": 0.4692470852,
				"element": "H" 
			},
			{
				"x": 1.3901110549,
				"y": -0.9519664354,
				"z": -0.8044537502,
				"element": "H" 
			}
		],
		 "valence_orbital": [ 
			{
				"type": "occ",
				"energy": -0.33799,
				"method": "rhf"
			},
			{
				"type": "occ",
				"energy": -0.31261,
				"method": "rhf"
			},
			{
				"type": "occ",
				"energy": -0.30426,
				"method": "rhf"
			},
			{
				"type": "occ",
				"energy": -0.25734,
				"method": "rhf"
			},
			{
				"type": "occ",
				"energy": -0.23418,
				"method": "rhf"
			},
			{
				"type": "unocc",
				"energy": -0.02903,
				"method": "rhf"
			},
			{
				"type": "unocc",
				"energy": -0.0269,
				"method": "rhf"
			},
			{
				"type": "unocc",
				"energy": -0.01715,
				"method": "rhf"
			},
			{
				"type": "unocc",
				"energy": 0.0288,
				"method": "rhf"
			},
			{
				"type": "unocc",
				"energy": 0.05358,
				"method": "rhf"
			}
		],
		"cosmo_sigma_profile": { 
			"-0.025": 0.0,
			"-0.024": 0.0,
			"-0.023": 0.0,
			"-0.022": 0.0,
			"-0.021": 0.0,
			"-0.02": 0.0,
			"-0.019": 0.0,
			"-0.018": 0.0,
			"-0.017": 0.0,
			"-0.016": 0.0,
			"-0.015": 0.0,
			"-0.014": 0.0,
			"-0.013": 0.0,
			"-0.012": 0.0,
			"-0.011": 0.168224363195,
			"-0.01": 1.00106426023,
			"-0.009": 0.855447594325,
			"-0.008": 4.08183882954,
			"-0.007": 7.53567797427,
			"-0.006": 8.89702382599,
			"-0.005": 7.02215506359,
			"-0.004": 6.63764511328,
			"-0.003": 8.51453437854,
			"-0.002": 10.5249562721,
			"-0.001": 13.6632009639,
			"0.0": 18.3650609757,
			"0.001": 20.8881320339,
			"0.002": 23.566530408,
			"0.003": 22.6127129228,
			"0.004": 15.8489900954,
			"0.005": 6.93643527617,
			"0.006": 3.01873722389,
			"0.007": 2.49074463403,
			"0.008": 1.06456728708,
			"0.009": 0.0,
			"0.01": 0.0,
			"0.011": 0.0,
			"0.012": 0.0,
			"0.013": 0.0,
			"0.014": 0.0,
			"0.015": 0.0,
			"0.016": 0.0,
			"0.017": 0.0,
			"0.018": 0.0,
			"0.019": 0.0,
			"0.02": 0.0,
			"0.021": 0.0,
			"0.022": 0.0,
			"0.023": 0.0,
			"0.024": 0.0,
			"0.025": 0.0
		}
	}
}
