{
	 "smiles": "ClC1=CC=C(C=C1)C(=O)C(=O)C1=CC=CC=C1", 
	 "Tm": 340.15, 
	 "num_atms": 26, 
	 "gaussian": { 
		 "optdone": 1, 
		 "sigma_profile": "yes", 
		 "theory": "DFT", 
		 "functional": "B3LYP", 
		 "basiset": "6-31G**", 
		 "properties": { 
			 "R2extent": 7860.7452, 
			 "electric_dipole_moment_norm": 2.73158341992, 
			 "electric_quadrupole_moment_norm": 8.36128913924, 
			 "total_energy": -1149.54555144, 
			 "HOMO_LUMO_gap": 0.15064, 
			 "cosmo_polarized_energy": -9.14, 
			 "cosmo_cavitation_energy": 33.3, 
			 "cosmo_dispersion_energy": -24.22, 
			 "cosmo_repulsion_energy": 1.86, 
			 "cosmo_total_nonelectrostatic_energy": 10.94, 
			 "SMD_solvation_energy": 6.26 
		},
		"coords": [
			{
				"x": 7.1436511364,
				"y": -0.7834526672,
				"z": -0.2647829784,
				"element": "Cl" 
			},
			{
				"x": 5.3923638796,
				"y": -0.8483093238,
				"z": -0.2434670031,
				"element": "C" 
			},
			{
				"x": 4.696227985,
				"y": -0.9214848986,
				"z": -1.453555525,
				"element": "C" 
			},
			{
				"x": 3.3085573316,
				"y": -0.9697048648,
				"z": -1.4271328404,
				"element": "C" 
			},
			{
				"x": 2.6083361937,
				"y": -0.9493407775,
				"z": -0.2084723796,
				"element": "C" 
			},
			{
				"x": 3.3300702675,
				"y": -0.8768334,
				"z": 0.9944362664,
				"element": "C" 
			},
			{
				"x": 4.7218896345,
				"y": -0.8254645237,
				"z": 0.9799772426,
				"element": "C" 
			},
			{
				"x": 1.1211351184,
				"y": -0.9658236774,
				"z": -0.2762689663,
				"element": "C" 
			},
			{
				"x": 0.5188499381,
				"y": -1.0145074825,
				"z": -1.3409792297,
				"element": "O" 
			},
			{
				"x": 0.2997400703,
				"y": -0.9993530041,
				"z": 1.0281582676,
				"element": "C" 
			},
			{
				"x": 0.6290547844,
				"y": -1.8073715835,
				"z": 1.8877364146,
				"element": "O" 
			},
			{
				"x": -0.887879035,
				"y": -0.1159816324,
				"z": 1.175759241,
				"element": "C" 
			},
			{
				"x": -1.639291996,
				"y": -0.2391359264,
				"z": 2.3580954254,
				"element": "C" 
			},
			{
				"x": -2.7413844064,
				"y": 0.5786020605,
				"z": 2.5791304847,
				"element": "C" 
			},
			{
				"x": -3.103757261,
				"y": 1.5335464986,
				"z": 1.6230407079,
				"element": "C" 
			},
			{
				"x": -2.3617932081,
				"y": 1.6648092919,
				"z": 0.4475037948,
				"element": "C" 
			},
			{
				"x": -1.2577146978,
				"y": 0.8448033497,
				"z": 0.2192309305,
				"element": "C" 
			},
			{
				"x": 5.2385050203,
				"y": -0.938222045,
				"z": -2.3922936077,
				"element": "H" 
			},
			{
				"x": 2.7387777281,
				"y": -1.0235603509,
				"z": -2.3487077212,
				"element": "H" 
			},
			{
				"x": 2.8089156176,
				"y": -0.8789807853,
				"z": 1.9435254917,
				"element": "H" 
			},
			{
				"x": 5.2834606747,
				"y": -0.7725843938,
				"z": 1.9057742975,
				"element": "H" 
			},
			{
				"x": -1.3355389988,
				"y": -0.9843269841,
				"z": 3.0856826307,
				"element": "H" 
			},
			{
				"x": -3.3187446381,
				"y": 0.4768118477,
				"z": 3.4932534444,
				"element": "H" 
			},
			{
				"x": -3.9640839767,
				"y": 2.1741147859,
				"z": 1.7953714773,
				"element": "H" 
			},
			{
				"x": -2.6455480322,
				"y": 2.4042981871,
				"z": -0.29522954,
				"element": "H" 
			},
			{
				"x": -0.6969991301,
				"y": 0.9382522996,
				"z": -0.7024863259,
				"element": "H" 
			}
		],
		 "valence_orbital": [ 
			{
				"type": "occ",
				"energy": -0.27645,
				"method": "rhf"
			},
			{
				"type": "occ",
				"energy": -0.26842,
				"method": "rhf"
			},
			{
				"type": "occ",
				"energy": -0.26527,
				"method": "rhf"
			},
			{
				"type": "occ",
				"energy": -0.26042,
				"method": "rhf"
			},
			{
				"type": "occ",
				"energy": -0.24258,
				"method": "rhf"
			},
			{
				"type": "unocc",
				"energy": -0.09194,
				"method": "rhf"
			},
			{
				"type": "unocc",
				"energy": -0.05968,
				"method": "rhf"
			},
			{
				"type": "unocc",
				"energy": -0.02397,
				"method": "rhf"
			},
			{
				"type": "unocc",
				"energy": -0.0144,
				"method": "rhf"
			},
			{
				"type": "unocc",
				"energy": 0.0108,
				"method": "rhf"
			}
		],
		"cosmo_sigma_profile": { 
			"-0.025": 0.0,
			"-0.024": 0.0,
			"-0.023": 0.0,
			"-0.022": 0.0,
			"-0.021": 0.0,
			"-0.02": 0.0,
			"-0.019": 0.0,
			"-0.018": 0.0,
			"-0.017": 0.0,
			"-0.016": 0.0,
			"-0.015": 0.0,
			"-0.014": 0.0,
			"-0.013": 0.0,
			"-0.012": 0.0,
			"-0.011": 0.0,
			"-0.01": 0.0,
			"-0.009": 0.0243620080619,
			"-0.008": 2.37542457035,
			"-0.007": 10.4263415516,
			"-0.006": 18.6493516558,
			"-0.005": 18.6393096023,
			"-0.004": 15.9052393797,
			"-0.003": 15.4310858973,
			"-0.002": 16.5290629433,
			"-0.001": 17.9472317944,
			"0.0": 25.8955130443,
			"0.001": 29.0099380283,
			"0.002": 29.6751733209,
			"0.003": 26.0633938391,
			"0.004": 17.8654270942,
			"0.005": 3.76662576571,
			"0.006": 3.51801869782,
			"0.007": 2.50371057515,
			"0.008": 3.89734658598,
			"0.009": 4.14881964641,
			"0.01": 5.94810117949,
			"0.011": 3.09334581673,
			"0.012": 0.0,
			"0.013": 0.0,
			"0.014": 0.0,
			"0.015": 0.0,
			"0.016": 0.0,
			"0.017": 0.0,
			"0.018": 0.0,
			"0.019": 0.0,
			"0.02": 0.0,
			"0.021": 0.0,
			"0.022": 0.0,
			"0.023": 0.0,
			"0.024": 0.0,
			"0.025": 0.0
		}
	}
}
