{
	 "smiles": "OC(=O)C1=CC=C(Br)O1", 
	 "Tm": 463.15, 
	 "num_atms": 12, 
	 "gaussian": { 
		 "optdone": 1, 
		 "sigma_profile": "yes", 
		 "theory": "DFT", 
		 "functional": "B3LYP", 
		 "basiset": "6-31G**", 
		 "properties": { 
			 "R2extent": 2658.2302, 
			 "electric_dipole_moment_norm": 5.35682797558, 
			 "electric_quadrupole_moment_norm": 17.5405219523, 
			 "total_energy": -2989.3806163, 
			 "HOMO_LUMO_gap": 0.19229, 
			 "cosmo_polarized_energy": -16.16, 
			 "cosmo_cavitation_energy": 19.99, 
			 "cosmo_dispersion_energy": -15.37, 
			 "cosmo_repulsion_energy": 1.28, 
			 "cosmo_total_nonelectrostatic_energy": 5.89, 
			 "SMD_solvation_energy": 4.36 
		},
		"coords": [
			{
				"x": -1.5800294699,
				"y": -3.0344038571,
				"z": -1.8323298257,
				"element": "O" 
			},
			{
				"x": -1.9139633622,
				"y": -2.3988170964,
				"z": -0.6761955321,
				"element": "C" 
			},
			{
				"x": -2.796512497,
				"y": -2.8199389262,
				"z": 0.0288918071,
				"element": "O" 
			},
			{
				"x": -1.1275731728,
				"y": -1.1872027271,
				"z": -0.3708211639,
				"element": "C" 
			},
			{
				"x": -0.101302515,
				"y": -0.5162412897,
				"z": -0.9884224829,
				"element": "C" 
			},
			{
				"x": 0.2196736616,
				"y": 0.6021024085,
				"z": -0.1668610364,
				"element": "C" 
			},
			{
				"x": -0.6416240867,
				"y": 0.5235113016,
				"z": 0.892143034,
				"element": "C" 
			},
			{
				"x": -0.8500079104,
				"y": 1.6152244941,
				"z": 2.3889568526,
				"element": "Br" 
			},
			{
				"x": -1.459551254,
				"y": -0.5407793382,
				"z": 0.792956031,
				"element": "O" 
			},
			{
				"x": -0.8579899841,
				"y": -2.5806965861,
				"z": -2.2883542357,
				"element": "H" 
			},
			{
				"x": 0.3833849359,
				"y": -0.7734784359,
				"z": -1.9210752482,
				"element": "H" 
			},
			{
				"x": 0.9738956546,
				"y": 1.3562200524,
				"z": -0.3289881997,
				"element": "H" 
			}
		],
		 "valence_orbital": [ 
			{
				"type": "occ",
				"energy": -0.32176,
				"method": "rhf"
			},
			{
				"type": "occ",
				"energy": -0.31867,
				"method": "rhf"
			},
			{
				"type": "occ",
				"energy": -0.31651,
				"method": "rhf"
			},
			{
				"type": "occ",
				"energy": -0.28306,
				"method": "rhf"
			},
			{
				"type": "occ",
				"energy": -0.25086,
				"method": "rhf"
			},
			{
				"type": "unocc",
				"energy": -0.05857,
				"method": "rhf"
			},
			{
				"type": "unocc",
				"energy": -0.00855,
				"method": "rhf"
			},
			{
				"type": "unocc",
				"energy": 0.01728,
				"method": "rhf"
			},
			{
				"type": "unocc",
				"energy": 0.04443,
				"method": "rhf"
			},
			{
				"type": "unocc",
				"energy": 0.09227,
				"method": "rhf"
			}
		],
		"cosmo_sigma_profile": { 
			"-0.025": 0.0,
			"-0.024": 0.0,
			"-0.023": 0.0,
			"-0.022": 0.0,
			"-0.021": 0.0,
			"-0.02": 0.179271215916,
			"-0.019": 1.1449890257,
			"-0.018": 1.55481617398,
			"-0.017": 0.589041717603,
			"-0.016": 0.769423062569,
			"-0.015": 1.53224551861,
			"-0.014": 1.07257128721,
			"-0.013": 0.697694884388,
			"-0.012": 1.64377697885,
			"-0.011": 1.61926718851,
			"-0.01": 1.69724080636,
			"-0.009": 3.46174680879,
			"-0.008": 3.35054806565,
			"-0.007": 4.68121063935,
			"-0.006": 5.57675916418,
			"-0.005": 4.81945180989,
			"-0.004": 7.50139662525,
			"-0.003": 6.07991494575,
			"-0.002": 10.3574543648,
			"-0.001": 14.1622862827,
			"0.0": 14.0284123845,
			"0.001": 15.1073941473,
			"0.002": 17.8091211027,
			"0.003": 8.40875891929,
			"0.004": 2.33702854382,
			"0.005": 2.71923397335,
			"0.006": 3.66385505667,
			"0.007": 2.46647181145,
			"0.008": 3.67558626877,
			"0.009": 3.95745765722,
			"0.01": 5.63719562879,
			"0.011": 5.98832294776,
			"0.012": 5.31303357884,
			"0.013": 1.18272490743,
			"0.014": 0.0,
			"0.015": 0.0,
			"0.016": 0.0,
			"0.017": 0.0,
			"0.018": 0.0,
			"0.019": 0.0,
			"0.02": 0.0,
			"0.021": 0.0,
			"0.022": 0.0,
			"0.023": 0.0,
			"0.024": 0.0,
			"0.025": 0.0
		}
	}
}
