{
	 "smiles": "CCOC(=O)C(C)(C=C1C2CCC(C)(C1=O)C2(C)C)C=C1/C2CCC(C)(C1=O)C2(C)C", 
	 "Tm": 391.15, 
	 "num_atms": 69, 
	 "gaussian": { 
		 "optdone": 1, 
		 "sigma_profile": "yes", 
		 "theory": "DFT", 
		 "functional": "B3LYP", 
		 "basiset": "6-31G**", 
		 "properties": { 
			 "R2extent": 13483.1439, 
			 "electric_dipole_moment_norm": 4.03216250045, 
			 "electric_quadrupole_moment_norm": 16.3763702077, 
			 "total_energy": -1352.6611926, 
			 "HOMO_LUMO_gap": 0.16891, 
			 "cosmo_polarized_energy": -18.35, 
			 "cosmo_cavitation_energy": 63.43, 
			 "cosmo_dispersion_energy": -38.82, 
			 "cosmo_repulsion_energy": 2.89, 
			 "cosmo_total_nonelectrostatic_energy": 27.5, 
			 "SMD_solvation_energy": 11.83 
		},
		"coords": [
			{
				"x": 1.3521761527,
				"y": 5.2450693956,
				"z": -1.9641539571,
				"element": "C" 
			},
			{
				"x": 0.7332684541,
				"y": 4.5528553802,
				"z": -0.7595263218,
				"element": "C" 
			},
			{
				"x": 1.0187733857,
				"y": 3.132753675,
				"z": -0.7606089822,
				"element": "O" 
			},
			{
				"x": 0.1788050256,
				"y": 2.3512475299,
				"z": -1.4623051619,
				"element": "C" 
			},
			{
				"x": -0.7223792291,
				"y": 2.7728615766,
				"z": -2.1563726393,
				"element": "O" 
			},
			{
				"x": 0.6023485603,
				"y": 0.8640616836,
				"z": -1.408779308,
				"element": "C" 
			},
			{
				"x": 1.5877783827,
				"y": 0.7179975191,
				"z": -2.6059353898,
				"element": "C" 
			},
			{
				"x": -0.6135578834,
				"y": -0.0290669194,
				"z": -1.645790877,
				"element": "C" 
			},
			{
				"x": -1.7914890936,
				"y": 0.0349099989,
				"z": -1.0117485301,
				"element": "C" 
			},
			{
				"x": -3.0584355573,
				"y": -0.7494627059,
				"z": -1.2969998352,
				"element": "C" 
			},
			{
				"x": -3.9825615772,
				"y": 0.2380623022,
				"z": -2.0675236147,
				"element": "C" 
			},
			{
				"x": -4.3589733028,
				"y": 1.2788531239,
				"z": -0.9697913396,
				"element": "C" 
			},
			{
				"x": -3.6739136141,
				"y": 0.738878806,
				"z": 0.3329352202,
				"element": "C" 
			},
			{
				"x": -4.1903525666,
				"y": 1.3343770509,
				"z": 1.6303324769,
				"element": "C" 
			},
			{
				"x": -2.1821301548,
				"y": 0.9903777151,
				"z": 0.0764690332,
				"element": "C" 
			},
			{
				"x": -1.469546133,
				"y": 1.799706345,
				"z": 0.6459960927,
				"element": "O" 
			},
			{
				"x": -3.733571719,
				"y": -0.819556233,
				"z": 0.1152791451,
				"element": "C" 
			},
			{
				"x": -5.1547508036,
				"y": -1.4037950969,
				"z": 0.1002534912,
				"element": "C" 
			},
			{
				"x": -2.9089875181,
				"y": -1.609502623,
				"z": 1.1466917023,
				"element": "C" 
			},
			{
				"x": 1.2928778303,
				"y": 0.5089807814,
				"z": -0.0965665626,
				"element": "C" 
			},
			{
				"x": 1.8375364064,
				"y": -0.6650990675,
				"z": 0.2539248309,
				"element": "C" 
			},
			{
				"x": 1.9536512842,
				"y": -2.0272270128,
				"z": -0.4077374315,
				"element": "C" 
			},
			{
				"x": 0.9855956929,
				"y": -2.9670245462,
				"z": 0.368324093,
				"element": "C" 
			},
			{
				"x": 1.6854778202,
				"y": -3.1204246943,
				"z": 1.7525374585,
				"element": "C" 
			},
			{
				"x": 3.0111484108,
				"y": -2.2995222678,
				"z": 1.6088372592,
				"element": "C" 
			},
			{
				"x": 4.062195883,
				"y": -2.5803062271,
				"z": 2.6675133447,
				"element": "C" 
			},
			{
				"x": 2.5194117436,
				"y": -0.8421399601,
				"z": 1.583192796,
				"element": "C" 
			},
			{
				"x": 2.6485711809,
				"y": -0.0151509944,
				"z": 2.4667494987,
				"element": "O" 
			},
			{
				"x": 3.3625344434,
				"y": -2.5081919343,
				"z": 0.089369816,
				"element": "C" 
			},
			{
				"x": 3.6944737072,
				"y": -3.9600702588,
				"z": -0.2917992451,
				"element": "C" 
			},
			{
				"x": 4.5183484045,
				"y": -1.6188385777,
				"z": -0.4021725306,
				"element": "C" 
			},
			{
				"x": 1.1868189825,
				"y": 6.3256485203,
				"z": -1.8961262556,
				"element": "H" 
			},
			{
				"x": 0.8959941417,
				"y": 4.8858451286,
				"z": -2.8896569179,
				"element": "H" 
			},
			{
				"x": 2.4309721455,
				"y": 5.0666126909,
				"z": -2.0054477742,
				"element": "H" 
			},
			{
				"x": -0.3500690825,
				"y": 4.6883026839,
				"z": -0.7352041588,
				"element": "H" 
			},
			{
				"x": 1.1651153951,
				"y": 4.9126346824,
				"z": 0.1770363578,
				"element": "H" 
			},
			{
				"x": 1.9311196579,
				"y": -0.3136489674,
				"z": -2.7046157683,
				"element": "H" 
			},
			{
				"x": 2.4613547033,
				"y": 1.357473651,
				"z": -2.4585603551,
				"element": "H" 
			},
			{
				"x": 1.0894665773,
				"y": 1.0107175876,
				"z": -3.5352474923,
				"element": "H" 
			},
			{
				"x": -0.4933999154,
				"y": -0.7802817676,
				"z": -2.4267441454,
				"element": "H" 
			},
			{
				"x": -2.8998372478,
				"y": -1.7088718142,
				"z": -1.7980301742,
				"element": "H" 
			},
			{
				"x": -3.4587192282,
				"y": 0.6949076328,
				"z": -2.9102811312,
				"element": "H" 
			},
			{
				"x": -4.86497238,
				"y": -0.2735112722,
				"z": -2.4630214547,
				"element": "H" 
			},
			{
				"x": -4.0086522084,
				"y": 2.2864781562,
				"z": -1.2120670922,
				"element": "H" 
			},
			{
				"x": -5.4408422172,
				"y": 1.3420792486,
				"z": -0.8170125848,
				"element": "H" 
			},
			{
				"x": -3.6847611759,
				"y": 0.9021018722,
				"z": 2.4993338931,
				"element": "H" 
			},
			{
				"x": -4.0024644315,
				"y": 2.4120751959,
				"z": 1.6533301594,
				"element": "H" 
			},
			{
				"x": -5.267401907,
				"y": 1.1717904007,
				"z": 1.7407946718,
				"element": "H" 
			},
			{
				"x": -5.1256535898,
				"y": -2.455842417,
				"z": -0.2065212433,
				"element": "H" 
			},
			{
				"x": -5.5925236676,
				"y": -1.3701141834,
				"z": 1.1036294141,
				"element": "H" 
			},
			{
				"x": -5.8378598068,
				"y": -0.8830306804,
				"z": -0.5734627546,
				"element": "H" 
			},
			{
				"x": -3.375326849,
				"y": -1.5595925534,
				"z": 2.1363480437,
				"element": "H" 
			},
			{
				"x": -1.8844963586,
				"y": -1.2401814983,
				"z": 1.2483054286,
				"element": "H" 
			},
			{
				"x": -2.8552694455,
				"y": -2.6670730407,
				"z": 0.8640774641,
				"element": "H" 
			},
			{
				"x": 1.3595842279,
				"y": 1.3026437223,
				"z": 0.6414094101,
				"element": "H" 
			},
			{
				"x": 1.8120133462,
				"y": -2.045770291,
				"z": -1.4904444716,
				"element": "H" 
			},
			{
				"x": 0.8824913242,
				"y": -3.9298568771,
				"z": -0.1410831293,
				"element": "H" 
			},
			{
				"x": -0.0131498649,
				"y": -2.5323640631,
				"z": 0.4454935572,
				"element": "H" 
			},
			{
				"x": 1.918183113,
				"y": -4.1656646545,
				"z": 1.9795287831,
				"element": "H" 
			},
			{
				"x": 1.0755978348,
				"y": -2.7447552302,
				"z": 2.5799131555,
				"element": "H" 
			},
			{
				"x": 4.9744667578,
				"y": -2.0025764909,
				"z": 2.4889162041,
				"element": "H" 
			},
			{
				"x": 3.6886540725,
				"y": -2.2910293814,
				"z": 3.6544583927,
				"element": "H" 
			},
			{
				"x": 4.327089378,
				"y": -3.6424477363,
				"z": 2.6969052254,
				"element": "H" 
			},
			{
				"x": 4.6605229086,
				"y": -4.2542141257,
				"z": 0.1323796789,
				"element": "H" 
			},
			{
				"x": 2.9534176093,
				"y": -4.6865334514,
				"z": 0.0471944117,
				"element": "H" 
			},
			{
				"x": 3.7760020978,
				"y": -4.054659699,
				"z": -1.3809888333,
				"element": "H" 
			},
			{
				"x": 4.3683351167,
				"y": -0.5597711499,
				"z": -0.1769114441,
				"element": "H" 
			},
			{
				"x": 4.6363467915,
				"y": -1.7128617667,
				"z": -1.4878552713,
				"element": "H" 
			},
			{
				"x": 5.4646295786,
				"y": -1.9262718257,
				"z": 0.0555336689,
				"element": "H" 
			}
		],
		 "valence_orbital": [ 
			{
				"type": "occ",
				"energy": -0.26538,
				"method": "rhf"
			},
			{
				"type": "occ",
				"energy": -0.25838,
				"method": "rhf"
			},
			{
				"type": "occ",
				"energy": -0.24387,
				"method": "rhf"
			},
			{
				"type": "occ",
				"energy": -0.23242,
				"method": "rhf"
			},
			{
				"type": "occ",
				"energy": -0.22503,
				"method": "rhf"
			},
			{
				"type": "unocc",
				"energy": -0.05612,
				"method": "rhf"
			},
			{
				"type": "unocc",
				"energy": -0.03562,
				"method": "rhf"
			},
			{
				"type": "unocc",
				"energy": 0.0236,
				"method": "rhf"
			},
			{
				"type": "unocc",
				"energy": 0.06502,
				"method": "rhf"
			},
			{
				"type": "unocc",
				"energy": 0.06729,
				"method": "rhf"
			}
		],
		"cosmo_sigma_profile": { 
			"-0.025": 0.0,
			"-0.024": 0.0,
			"-0.023": 0.0,
			"-0.022": 0.0,
			"-0.021": 0.0,
			"-0.02": 0.0,
			"-0.019": 0.0,
			"-0.018": 0.0,
			"-0.017": 0.0,
			"-0.016": 0.0,
			"-0.015": 0.0,
			"-0.014": 0.0,
			"-0.013": 0.0,
			"-0.012": 0.0,
			"-0.011": 0.0,
			"-0.01": 0.0,
			"-0.009": 0.0,
			"-0.008": 0.013732626281,
			"-0.007": 1.06263269317,
			"-0.006": 5.71210164419,
			"-0.005": 10.1184321679,
			"-0.004": 29.9568405882,
			"-0.003": 65.7664130542,
			"-0.002": 81.9445571648,
			"-0.001": 76.5929014441,
			"0.0": 72.8305917988,
			"0.001": 55.5311858134,
			"0.002": 15.5568712693,
			"0.003": 7.89073071546,
			"0.004": 8.98118297911,
			"0.005": 8.4146030943,
			"0.006": 8.30882963456,
			"0.007": 6.74709687973,
			"0.008": 6.09013623601,
			"0.009": 5.74103600514,
			"0.01": 4.899314361,
			"0.011": 5.87557175553,
			"0.012": 8.74801017042,
			"0.013": 3.73824803335,
			"0.014": 0.0478157339974,
			"0.015": 0.0,
			"0.016": 0.0,
			"0.017": 0.0,
			"0.018": 0.0,
			"0.019": 0.0,
			"0.02": 0.0,
			"0.021": 0.0,
			"0.022": 0.0,
			"0.023": 0.0,
			"0.024": 0.0,
			"0.025": 0.0
		}
	}
}
