{
	 "smiles": "OC(=O)C=CC1=CC=C(Br)C=C1", 
	 "Tm": 535.15, 
	 "num_atms": 19, 
	 "gaussian": { 
		 "optdone": 1, 
		 "sigma_profile": "yes", 
		 "theory": "DFT", 
		 "functional": "B3LYP", 
		 "basiset": "6-31G**", 
		 "properties": { 
			 "R2extent": 6323.6602, 
			 "electric_dipole_moment_norm": 4.18299678819, 
			 "electric_quadrupole_moment_norm": 19.1707688244, 
			 "total_energy": -3069.0191712, 
			 "HOMO_LUMO_gap": 0.16383, 
			 "cosmo_polarized_energy": -16.21, 
			 "cosmo_cavitation_energy": 26.78, 
			 "cosmo_dispersion_energy": -19.97, 
			 "cosmo_repulsion_energy": 1.59, 
			 "cosmo_total_nonelectrostatic_energy": 8.4, 
			 "SMD_solvation_energy": 4.74 
		},
		"coords": [
			{
				"x": 0.5041641709,
				"y": 3.6625312371,
				"z": -1.6380768606,
				"element": "O" 
			},
			{
				"x": 1.0238398018,
				"y": 2.4820472262,
				"z": -2.0800779373,
				"element": "C" 
			},
			{
				"x": 2.0296749046,
				"y": 2.4749667088,
				"z": -2.751061341,
				"element": "O" 
			},
			{
				"x": 0.3188405176,
				"y": 1.233177962,
				"z": -1.6913289081,
				"element": "C" 
			},
			{
				"x": -0.4806675019,
				"y": 1.104723089,
				"z": -0.6158110903,
				"element": "C" 
			},
			{
				"x": -1.1527830656,
				"y": -0.1083904871,
				"z": -0.1436108786,
				"element": "C" 
			},
			{
				"x": -1.1060440576,
				"y": -1.3335636598,
				"z": -0.8358827863,
				"element": "C" 
			},
			{
				"x": -1.7617996594,
				"y": -2.4584984562,
				"z": -0.35015306,
				"element": "C" 
			},
			{
				"x": -2.4803226247,
				"y": -2.3715677335,
				"z": 0.8449382801,
				"element": "C" 
			},
			{
				"x": -3.3812842405,
				"y": -3.9135481208,
				"z": 1.5115111283,
				"element": "Br" 
			},
			{
				"x": -2.5483516943,
				"y": -1.1739294647,
				"z": 1.5538902841,
				"element": "C" 
			},
			{
				"x": -1.8866594413,
				"y": -0.0548903973,
				"z": 1.0545391307,
				"element": "C" 
			},
			{
				"x": -0.3863762652,
				"y": 3.5206292447,
				"z": -1.2886959591,
				"element": "H" 
			},
			{
				"x": 0.5837390949,
				"y": 0.3838833575,
				"z": -2.3126795285,
				"element": "H" 
			},
			{
				"x": -0.6458593316,
				"y": 1.9777619284,
				"z": 0.0169991165,
				"element": "H" 
			},
			{
				"x": -0.5547311271,
				"y": -1.413245979,
				"z": -1.767110037,
				"element": "H" 
			},
			{
				"x": -1.719631733,
				"y": -3.3965359397,
				"z": -0.8916348345,
				"element": "H" 
			},
			{
				"x": -3.1087603739,
				"y": -1.1175839418,
				"z": 2.4798986012,
				"element": "H" 
			},
			{
				"x": -1.9378873737,
				"y": 0.8792334263,
				"z": 1.6078466804,
				"element": "H" 
			}
		],
		 "valence_orbital": [ 
			{
				"type": "occ",
				"energy": -0.30054,
				"method": "rhf"
			},
			{
				"type": "occ",
				"energy": -0.30009,
				"method": "rhf"
			},
			{
				"type": "occ",
				"energy": -0.28279,
				"method": "rhf"
			},
			{
				"type": "occ",
				"energy": -0.2738,
				"method": "rhf"
			},
			{
				"type": "occ",
				"energy": -0.24537,
				"method": "rhf"
			},
			{
				"type": "unocc",
				"energy": -0.08154,
				"method": "rhf"
			},
			{
				"type": "unocc",
				"energy": -0.03153,
				"method": "rhf"
			},
			{
				"type": "unocc",
				"energy": -0.00597,
				"method": "rhf"
			},
			{
				"type": "unocc",
				"energy": 0.00052,
				"method": "rhf"
			},
			{
				"type": "unocc",
				"energy": 0.05593,
				"method": "rhf"
			}
		],
		"cosmo_sigma_profile": { 
			"-0.025": 0.0,
			"-0.024": 0.0,
			"-0.023": 0.0,
			"-0.022": 0.0,
			"-0.021": 0.0,
			"-0.02": 0.0,
			"-0.019": 0.0834180258803,
			"-0.018": 1.02319286394,
			"-0.017": 0.967385461786,
			"-0.016": 1.16034859523,
			"-0.015": 0.616307478109,
			"-0.014": 0.823835751838,
			"-0.013": 0.860310239008,
			"-0.012": 1.55086329869,
			"-0.011": 1.22107233287,
			"-0.01": 1.51326161599,
			"-0.009": 3.66970706671,
			"-0.008": 5.81704953918,
			"-0.007": 11.3813614983,
			"-0.006": 9.0679800107,
			"-0.005": 10.3898232799,
			"-0.004": 9.32112170289,
			"-0.003": 10.0972578293,
			"-0.002": 10.8794357088,
			"-0.001": 12.8158354748,
			"0.0": 14.3964476301,
			"0.001": 20.467225972,
			"0.002": 25.7573091186,
			"0.003": 17.8485320936,
			"0.004": 12.8737723205,
			"0.005": 4.55900758935,
			"0.006": 2.08900074343,
			"0.007": 2.55075632101,
			"0.008": 2.98144463756,
			"0.009": 2.39917854275,
			"0.01": 4.20760476348,
			"0.011": 5.54268246951,
			"0.012": 5.99128678803,
			"0.013": 3.26174072566,
			"0.014": 0.280352850422,
			"0.015": 0.0,
			"0.016": 0.0,
			"0.017": 0.0,
			"0.018": 0.0,
			"0.019": 0.0,
			"0.02": 0.0,
			"0.021": 0.0,
			"0.022": 0.0,
			"0.023": 0.0,
			"0.024": 0.0,
			"0.025": 0.0
		}
	}
}
