{
	 "smiles": "[O-][N+](=O)C1=CC(=CS1)C#N", 
	 "Tm": 395.15, 
	 "num_atms": 12, 
	 "gaussian": { 
		 "optdone": 1, 
		 "sigma_profile": "yes", 
		 "theory": "DFT", 
		 "functional": "B3LYP", 
		 "basiset": "6-31G**", 
		 "properties": { 
			 "R2extent": 2357.0935, 
			 "electric_dipole_moment_norm": 2.71741520383, 
			 "electric_quadrupole_moment_norm": 19.741871657, 
			 "total_energy": -849.727490774, 
			 "HOMO_LUMO_gap": 0.17178, 
			 "cosmo_polarized_energy": -12.59, 
			 "cosmo_cavitation_energy": 20.71, 
			 "cosmo_dispersion_energy": -15.2, 
			 "cosmo_repulsion_energy": 1.19, 
			 "cosmo_total_nonelectrostatic_energy": 6.7, 
			 "SMD_solvation_energy": 7.57 
		},
		"coords": [
			{
				"x": -0.2215181088,
				"y": 0.7622820074,
				"z": 2.4636511331,
				"element": "O" 
			},
			{
				"x": 0.4642387706,
				"y": 0.3504615004,
				"z": 1.5250449923,
				"element": "N" 
			},
			{
				"x": 1.5014549876,
				"y": 0.8609322591,
				"z": 1.107996789,
				"element": "O" 
			},
			{
				"x": 0.0017930471,
				"y": -0.8399312423,
				"z": 0.8588648284,
				"element": "C" 
			},
			{
				"x": 0.6042386896,
				"y": -1.4635152373,
				"z": -0.1975795621,
				"element": "C" 
			},
			{
				"x": -0.1387043721,
				"y": -2.6167914924,
				"z": -0.59600026,
				"element": "C" 
			},
			{
				"x": -1.2695729497,
				"y": -2.8131017647,
				"z": 0.1774445659,
				"element": "C" 
			},
			{
				"x": -1.4575009966,
				"y": -1.6153477585,
				"z": 1.3947685463,
				"element": "S" 
			},
			{
				"x": 0.2363940087,
				"y": -3.4774897663,
				"z": -1.6719047958,
				"element": "C" 
			},
			{
				"x": 0.5428043792,
				"y": -4.1776984382,
				"z": -2.5482428125,
				"element": "N" 
			},
			{
				"x": 1.5197124597,
				"y": -1.1162460878,
				"z": -0.6569903656,
				"element": "H" 
			},
			{
				"x": -1.9931399152,
				"y": -3.6106539795,
				"z": 0.077646941,
				"element": "H" 
			}
		],
		 "valence_orbital": [ 
			{
				"type": "occ",
				"energy": -0.33195,
				"method": "rhf"
			},
			{
				"type": "occ",
				"energy": -0.33146,
				"method": "rhf"
			},
			{
				"type": "occ",
				"energy": -0.31539,
				"method": "rhf"
			},
			{
				"type": "occ",
				"energy": -0.30724,
				"method": "rhf"
			},
			{
				"type": "occ",
				"energy": -0.29079,
				"method": "rhf"
			},
			{
				"type": "unocc",
				"energy": -0.11901,
				"method": "rhf"
			},
			{
				"type": "unocc",
				"energy": -0.06407,
				"method": "rhf"
			},
			{
				"type": "unocc",
				"energy": -0.02601,
				"method": "rhf"
			},
			{
				"type": "unocc",
				"energy": 0.00051,
				"method": "rhf"
			},
			{
				"type": "unocc",
				"energy": 0.01833,
				"method": "rhf"
			}
		],
		"cosmo_sigma_profile": { 
			"-0.025": 0.0,
			"-0.024": 0.0,
			"-0.023": 0.0,
			"-0.022": 0.0,
			"-0.021": 0.0,
			"-0.02": 0.0,
			"-0.019": 0.0,
			"-0.018": 0.0,
			"-0.017": 0.0,
			"-0.016": 0.0,
			"-0.015": 0.0,
			"-0.014": 0.0,
			"-0.013": 0.1190767152,
			"-0.012": 2.97969837374,
			"-0.011": 3.78297620949,
			"-0.01": 3.43588499488,
			"-0.009": 3.86130253737,
			"-0.008": 3.26822471607,
			"-0.007": 6.22771480801,
			"-0.006": 5.3483927577,
			"-0.005": 7.06363593631,
			"-0.004": 11.6123525827,
			"-0.003": 16.4611693667,
			"-0.002": 18.7305846703,
			"-0.001": 12.3523830982,
			"0.0": 7.7037707544,
			"0.001": 3.59373455291,
			"0.002": 5.28015483848,
			"0.003": 4.13573019872,
			"0.004": 4.72223240401,
			"0.005": 6.70891522196,
			"0.006": 8.22328068735,
			"0.007": 13.1202668032,
			"0.008": 8.33869333382,
			"0.009": 6.24311585889,
			"0.01": 3.23413434177,
			"0.011": 2.48992742043,
			"0.012": 1.86161991886,
			"0.013": 0.262292943593,
			"0.014": 0.0,
			"0.015": 0.0,
			"0.016": 0.0,
			"0.017": 0.0,
			"0.018": 0.0,
			"0.019": 0.0,
			"0.02": 0.0,
			"0.021": 0.0,
			"0.022": 0.0,
			"0.023": 0.0,
			"0.024": 0.0,
			"0.025": 0.0
		}
	}
}
