{
	 "smiles": "OC(=O)C1CC1C1=CC(F)=C(F)C=C1", 
	 "Tm": 363.15, 
	 "num_atms": 22, 
	 "gaussian": { 
		 "optdone": 1, 
		 "sigma_profile": "yes", 
		 "theory": "DFT", 
		 "functional": "B3LYP", 
		 "basiset": "6-31G**", 
		 "properties": { 
			 "R2extent": 3388.0977, 
			 "electric_dipole_moment_norm": 6.05552775982, 
			 "electric_quadrupole_moment_norm": 14.0456274239, 
			 "total_energy": -735.97359232, 
			 "HOMO_LUMO_gap": 0.21747, 
			 "cosmo_polarized_energy": -16.12, 
			 "cosmo_cavitation_energy": 27.28, 
			 "cosmo_dispersion_energy": -19.39, 
			 "cosmo_repulsion_energy": 1.49, 
			 "cosmo_total_nonelectrostatic_energy": 9.38, 
			 "SMD_solvation_energy": 6.3 
		},
		"coords": [
			{
				"x": 0.3632904161,
				"y": 2.8903365036,
				"z": -2.6158565982,
				"element": "O" 
			},
			{
				"x": -0.4608230106,
				"y": 1.9340516185,
				"z": -2.111834435,
				"element": "C" 
			},
			{
				"x": -0.8474982507,
				"y": 1.0379390298,
				"z": -2.8254294244,
				"element": "O" 
			},
			{
				"x": -0.8188454126,
				"y": 2.0879359043,
				"z": -0.6672353462,
				"element": "C" 
			},
			{
				"x": -1.8877382993,
				"y": 1.1909808539,
				"z": -0.098473706,
				"element": "C" 
			},
			{
				"x": -0.4777433568,
				"y": 0.9690241511,
				"z": 0.3541972017,
				"element": "C" 
			},
			{
				"x": 0.3523874148,
				"y": -0.238999332,
				"z": 0.0635862786,
				"element": "C" 
			},
			{
				"x": 0.0382634158,
				"y": -1.172589981,
				"z": -0.9375137729,
				"element": "C" 
			},
			{
				"x": 0.8496269165,
				"y": -2.28059584,
				"z": -1.1268958586,
				"element": "C" 
			},
			{
				"x": 0.5544624497,
				"y": -3.1783189432,
				"z": -2.0822232043,
				"element": "F" 
			},
			{
				"x": 1.9767271467,
				"y": -2.4906003696,
				"z": -0.3331969105,
				"element": "C" 
			},
			{
				"x": 2.7352878244,
				"y": -3.5801039518,
				"z": -0.5429530151,
				"element": "F" 
			},
			{
				"x": 2.3009928633,
				"y": -1.5808470776,
				"z": 0.6621988457,
				"element": "C" 
			},
			{
				"x": 1.4892976679,
				"y": -0.4627686274,
				"z": 0.855581909,
				"element": "C" 
			},
			{
				"x": 0.6242034494,
				"y": 3.5096537353,
				"z": -1.9202013118,
				"element": "H" 
			},
			{
				"x": -0.745311427,
				"y": 3.0983868088,
				"z": -0.2702880922,
				"element": "H" 
			},
			{
				"x": -2.5938289239,
				"y": 1.6190323419,
				"z": 0.6058797271,
				"element": "H" 
			},
			{
				"x": -2.312439494,
				"y": 0.4845348504,
				"z": -0.8043174396,
				"element": "H" 
			},
			{
				"x": -0.2474501885,
				"y": 1.3917959645,
				"z": 1.3293790522,
				"element": "H" 
			},
			{
				"x": -0.8098555787,
				"y": -1.040049843,
				"z": -1.5966970263,
				"element": "H" 
			},
			{
				"x": 3.1784522781,
				"y": -1.7601316992,
				"z": 1.2740844197,
				"element": "H" 
			},
			{
				"x": 1.7438420996,
				"y": 0.2443339026,
				"z": 1.6399087072,
				"element": "H" 
			}
		],
		 "valence_orbital": [ 
			{
				"type": "occ",
				"energy": -0.32446,
				"method": "rhf"
			},
			{
				"type": "occ",
				"energy": -0.31014,
				"method": "rhf"
			},
			{
				"type": "occ",
				"energy": -0.2789,
				"method": "rhf"
			},
			{
				"type": "occ",
				"energy": -0.25733,
				"method": "rhf"
			},
			{
				"type": "occ",
				"energy": -0.23713,
				"method": "rhf"
			},
			{
				"type": "unocc",
				"energy": -0.01966,
				"method": "rhf"
			},
			{
				"type": "unocc",
				"energy": -0.00834,
				"method": "rhf"
			},
			{
				"type": "unocc",
				"energy": 0.00508,
				"method": "rhf"
			},
			{
				"type": "unocc",
				"energy": 0.04741,
				"method": "rhf"
			},
			{
				"type": "unocc",
				"energy": 0.07096,
				"method": "rhf"
			}
		],
		"cosmo_sigma_profile": { 
			"-0.025": 0.0,
			"-0.024": 0.0,
			"-0.023": 0.0,
			"-0.022": 0.0,
			"-0.021": 0.0,
			"-0.02": 0.0,
			"-0.019": 0.527486240621,
			"-0.018": 1.33018378895,
			"-0.017": 1.13791548158,
			"-0.016": 1.16907259475,
			"-0.015": 1.12444272673,
			"-0.014": 1.10687337309,
			"-0.013": 1.02476392417,
			"-0.012": 0.763131403076,
			"-0.011": 1.25285149296,
			"-0.01": 1.18972310283,
			"-0.009": 0.699019552203,
			"-0.008": 2.82097033283,
			"-0.007": 9.4803690226,
			"-0.006": 12.9989100649,
			"-0.005": 11.2690359509,
			"-0.004": 8.93966496523,
			"-0.003": 10.0135829347,
			"-0.002": 10.059696993,
			"-0.001": 12.3822768273,
			"0.0": 16.781634961,
			"0.001": 19.1763785292,
			"0.002": 18.3157034605,
			"0.003": 20.8584451458,
			"0.004": 24.5642263791,
			"0.005": 4.26397825359,
			"0.006": 2.74283859041,
			"0.007": 2.1980137848,
			"0.008": 2.83003299991,
			"0.009": 3.13186468013,
			"0.01": 4.07392472333,
			"0.011": 4.75555033716,
			"0.012": 3.16227928837,
			"0.013": 1.83013280324,
			"0.014": 0.12405360721,
			"0.015": 0.0,
			"0.016": 0.0,
			"0.017": 0.0,
			"0.018": 0.0,
			"0.019": 0.0,
			"0.02": 0.0,
			"0.021": 0.0,
			"0.022": 0.0,
			"0.023": 0.0,
			"0.024": 0.0,
			"0.025": 0.0
		}
	}
}
