{
	 "smiles": "OC(=O)CC1SC2=C(NC1=O)C=CC=C2", 
	 "Tm": 462.15, 
	 "num_atms": 24, 
	 "gaussian": { 
		 "optdone": 1, 
		 "sigma_profile": "yes", 
		 "theory": "DFT", 
		 "functional": "B3LYP", 
		 "basiset": "6-31G**", 
		 "properties": { 
			 "R2extent": 4065.5505, 
			 "electric_dipole_moment_norm": 7.54964632086, 
			 "electric_quadrupole_moment_norm": 12.9855897756, 
			 "total_energy": -1065.13411864, 
			 "HOMO_LUMO_gap": 0.18206, 
			 "cosmo_polarized_energy": -18.23, 
			 "cosmo_cavitation_energy": 29.23, 
			 "cosmo_dispersion_energy": -22.24, 
			 "cosmo_repulsion_energy": 1.67, 
			 "cosmo_total_nonelectrostatic_energy": 8.66, 
			 "SMD_solvation_energy": 5.81 
		},
		"coords": [
			{
				"x": 3.1982375839,
				"y": -0.3411803698,
				"z": -0.997733115,
				"element": "O" 
			},
			{
				"x": 2.362250945,
				"y": -1.3774438802,
				"z": -1.143264722,
				"element": "C" 
			},
			{
				"x": 2.725777253,
				"y": -2.5208897428,
				"z": -0.9926711385,
				"element": "O" 
			},
			{
				"x": 0.9134591563,
				"y": -1.0343796291,
				"z": -1.5310088726,
				"element": "C" 
			},
			{
				"x": 0.1313298168,
				"y": -0.2482330955,
				"z": -0.4629480884,
				"element": "C" 
			},
			{
				"x": -1.6744778978,
				"y": -0.4432875823,
				"z": -0.8055239574,
				"element": "S" 
			},
			{
				"x": -2.2892838393,
				"y": 0.5778726951,
				"z": 0.5106504406,
				"element": "C" 
			},
			{
				"x": -1.5671960665,
				"y": 1.7165267963,
				"z": 0.9091640854,
				"element": "C" 
			},
			{
				"x": -0.3551262297,
				"y": 2.0528071156,
				"z": 0.2733555735,
				"element": "N" 
			},
			{
				"x": 0.4758405653,
				"y": 1.2397901953,
				"z": -0.4374914189,
				"element": "C" 
			},
			{
				"x": 1.4709913786,
				"y": 1.7065608851,
				"z": -0.9995174535,
				"element": "O" 
			},
			{
				"x": -2.0711197307,
				"y": 2.5461439056,
				"z": 1.9169892168,
				"element": "C" 
			},
			{
				"x": -3.2996744828,
				"y": 2.2618289734,
				"z": 2.5080250967,
				"element": "C" 
			},
			{
				"x": -4.0238237985,
				"y": 1.135472246,
				"z": 2.1106029843,
				"element": "C" 
			},
			{
				"x": -3.5131423143,
				"y": 0.292196722,
				"z": 1.1251103681,
				"element": "C" 
			},
			{
				"x": 2.7072663749,
				"y": 0.5041697838,
				"z": -1.128698972,
				"element": "H" 
			},
			{
				"x": 0.4200269004,
				"y": -1.9925700992,
				"z": -1.7008077027,
				"element": "H" 
			},
			{
				"x": 0.907108042,
				"y": -0.4695344861,
				"z": -2.4695919915,
				"element": "H" 
			},
			{
				"x": 0.3197637151,
				"y": -0.6659262865,
				"z": 0.534015345,
				"element": "H" 
			},
			{
				"x": -0.0379403341,
				"y": 3.0130498641,
				"z": 0.3309528567,
				"element": "H" 
			},
			{
				"x": -1.4975614627,
				"y": 3.4150179215,
				"z": 2.2289024251,
				"element": "H" 
			},
			{
				"x": -3.6849165322,
				"y": 2.915650996,
				"z": 3.2838817269,
				"element": "H" 
			},
			{
				"x": -4.9775145189,
				"y": 0.9056257581,
				"z": 2.5747587552,
				"element": "H" 
			},
			{
				"x": -4.0617745236,
				"y": -0.5948686864,
				"z": 0.8240485582,
				"element": "H" 
			}
		],
		 "valence_orbital": [ 
			{
				"type": "occ",
				"energy": -0.29626,
				"method": "rhf"
			},
			{
				"type": "occ",
				"energy": -0.29307,
				"method": "rhf"
			},
			{
				"type": "occ",
				"energy": -0.25888,
				"method": "rhf"
			},
			{
				"type": "occ",
				"energy": -0.25576,
				"method": "rhf"
			},
			{
				"type": "occ",
				"energy": -0.23713,
				"method": "rhf"
			},
			{
				"type": "unocc",
				"energy": -0.05507,
				"method": "rhf"
			},
			{
				"type": "unocc",
				"energy": -0.03334,
				"method": "rhf"
			},
			{
				"type": "unocc",
				"energy": 0.00012,
				"method": "rhf"
			},
			{
				"type": "unocc",
				"energy": 0.00812,
				"method": "rhf"
			},
			{
				"type": "unocc",
				"energy": 0.02418,
				"method": "rhf"
			}
		],
		"cosmo_sigma_profile": { 
			"-0.025": 0.0,
			"-0.024": 0.0,
			"-0.023": 0.0,
			"-0.022": 0.0,
			"-0.021": 0.0,
			"-0.02": 0.0,
			"-0.019": 0.0,
			"-0.018": 0.0,
			"-0.017": 0.054475404983,
			"-0.016": 0.782366040847,
			"-0.015": 1.59667660141,
			"-0.014": 0.860930649414,
			"-0.013": 0.738234041744,
			"-0.012": 1.27081253172,
			"-0.011": 1.4935474667,
			"-0.01": 2.06957912831,
			"-0.009": 4.78925297035,
			"-0.008": 6.29431257023,
			"-0.007": 10.2140420447,
			"-0.006": 15.4540837521,
			"-0.005": 16.4508468589,
			"-0.004": 16.6236667822,
			"-0.003": 14.1131997031,
			"-0.002": 12.1393511207,
			"-0.001": 11.2905905343,
			"0.0": 12.7920612544,
			"0.001": 11.0008563227,
			"0.002": 14.9529416571,
			"0.003": 15.7280768991,
			"0.004": 15.6383212894,
			"0.005": 7.6699398361,
			"0.006": 4.69111802597,
			"0.007": 5.49853174976,
			"0.008": 3.42264453837,
			"0.009": 4.14217969783,
			"0.01": 5.26703712594,
			"0.011": 7.19341431492,
			"0.012": 6.91560815204,
			"0.013": 3.60346736434,
			"0.014": 0.584349558291,
			"0.015": 0.0,
			"0.016": 0.0,
			"0.017": 0.0,
			"0.018": 0.0,
			"0.019": 0.0,
			"0.02": 0.0,
			"0.021": 0.0,
			"0.022": 0.0,
			"0.023": 0.0,
			"0.024": 0.0,
			"0.025": 0.0
		}
	}
}
