{
	 "smiles": "NC(=O)CCNC1=NC=NC(Cl)=C1", 
	 "Tm": 439.15, 
	 "num_atms": 22, 
	 "gaussian": { 
		 "optdone": 1, 
		 "sigma_profile": "yes", 
		 "theory": "DFT", 
		 "functional": "B3LYP", 
		 "basiset": "6-31G**", 
		 "properties": { 
			 "R2extent": 4603.1286, 
			 "electric_dipole_moment_norm": 3.64777254088, 
			 "electric_quadrupole_moment_norm": 21.4893538795, 
			 "total_energy": -1026.61821578, 
			 "HOMO_LUMO_gap": 0.19033, 
			 "cosmo_polarized_energy": -19.37, 
			 "cosmo_cavitation_energy": 27.95, 
			 "cosmo_dispersion_energy": -20.66, 
			 "cosmo_repulsion_energy": 1.67, 
			 "cosmo_total_nonelectrostatic_energy": 8.96, 
			 "SMD_solvation_energy": 3.01 
		},
		"coords": [
			{
				"x": -1.423595064,
				"y": -1.9310062233,
				"z": -1.3463908585,
				"element": "N" 
			},
			{
				"x": -1.506938977,
				"y": -2.0765009539,
				"z": 0.0080113681,
				"element": "C" 
			},
			{
				"x": -1.0694141355,
				"y": -3.0548835901,
				"z": 0.598721318,
				"element": "O" 
			},
			{
				"x": -2.2752077056,
				"y": -0.9976910256,
				"z": 0.782102514,
				"element": "C" 
			},
			{
				"x": -2.4455936175,
				"y": 0.3916104526,
				"z": 0.1574652555,
				"element": "C" 
			},
			{
				"x": -1.1976112339,
				"y": 1.1378271637,
				"z": 0.0097269689,
				"element": "N" 
			},
			{
				"x": -0.623710346,
				"y": 1.4921535538,
				"z": -1.1695478962,
				"element": "C" 
			},
			{
				"x": -1.124188162,
				"y": 0.9672976902,
				"z": -2.3104211573,
				"element": "N" 
			},
			{
				"x": -0.5454054901,
				"y": 1.3502190044,
				"z": -3.4498876857,
				"element": "C" 
			},
			{
				"x": 0.4817603555,
				"y": 2.1856644124,
				"z": -3.6028123793,
				"element": "N" 
			},
			{
				"x": 0.968590503,
				"y": 2.6773425134,
				"z": -2.4637854348,
				"element": "C" 
			},
			{
				"x": 2.3274444558,
				"y": 3.7788066447,
				"z": -2.6036739027,
				"element": "Cl" 
			},
			{
				"x": 0.4744799064,
				"y": 2.3841447991,
				"z": -1.2080964335,
				"element": "C" 
			},
			{
				"x": -1.5440756435,
				"y": -1.0363347744,
				"z": -1.812217778,
				"element": "H" 
			},
			{
				"x": -0.8703415087,
				"y": -2.6315073168,
				"z": -1.8195625209,
				"element": "H" 
			},
			{
				"x": -1.7910509139,
				"y": -0.9251281674,
				"z": 1.7610318954,
				"element": "H" 
			},
			{
				"x": -3.2748136225,
				"y": -1.4099524084,
				"z": 0.9721928695,
				"element": "H" 
			},
			{
				"x": -2.9094431386,
				"y": 0.3319981927,
				"z": -0.828391725,
				"element": "H" 
			},
			{
				"x": -3.1220205172,
				"y": 0.9798211885,
				"z": 0.7897814084,
				"element": "H" 
			},
			{
				"x": -0.7893649698,
				"y": 1.5264509887,
				"z": 0.8467853162,
				"element": "H" 
			},
			{
				"x": -0.9589254366,
				"y": 0.9256691556,
				"z": -4.3626240814,
				"element": "H" 
			},
			{
				"x": 0.8972252618,
				"y": 2.8175987002,
				"z": -0.3098070608,
				"element": "H" 
			}
		],
		 "valence_orbital": [ 
			{
				"type": "occ",
				"energy": -0.29305,
				"method": "rhf"
			},
			{
				"type": "occ",
				"energy": -0.28151,
				"method": "rhf"
			},
			{
				"type": "occ",
				"energy": -0.25964,
				"method": "rhf"
			},
			{
				"type": "occ",
				"energy": -0.25378,
				"method": "rhf"
			},
			{
				"type": "occ",
				"energy": -0.2378,
				"method": "rhf"
			},
			{
				"type": "unocc",
				"energy": -0.04747,
				"method": "rhf"
			},
			{
				"type": "unocc",
				"energy": -0.02886,
				"method": "rhf"
			},
			{
				"type": "unocc",
				"energy": 0.02331,
				"method": "rhf"
			},
			{
				"type": "unocc",
				"energy": 0.03182,
				"method": "rhf"
			},
			{
				"type": "unocc",
				"energy": 0.05635,
				"method": "rhf"
			}
		],
		"cosmo_sigma_profile": { 
			"-0.025": 0.0,
			"-0.024": 0.0,
			"-0.023": 0.0,
			"-0.022": 0.0,
			"-0.021": 0.0,
			"-0.02": 0.0,
			"-0.019": 0.0,
			"-0.018": 0.0,
			"-0.017": 0.0,
			"-0.016": 0.0,
			"-0.015": 1.46686142679,
			"-0.014": 1.63467132653,
			"-0.013": 3.00624397381,
			"-0.012": 2.86609512173,
			"-0.011": 2.38261715646,
			"-0.01": 3.12136517277,
			"-0.009": 2.62451339935,
			"-0.008": 4.17460644606,
			"-0.007": 6.26726943798,
			"-0.006": 10.8526041626,
			"-0.005": 14.6327677348,
			"-0.004": 12.2386398534,
			"-0.003": 12.8560288523,
			"-0.002": 15.0505688415,
			"-0.001": 18.7250923551,
			"0.0": 21.2901267019,
			"0.001": 12.8361770978,
			"0.002": 10.0191210916,
			"0.003": 12.2967976679,
			"0.004": 12.6809583169,
			"0.005": 6.85167667415,
			"0.006": 4.44194666887,
			"0.007": 4.23626387642,
			"0.008": 3.79928875142,
			"0.009": 2.2891957948,
			"0.01": 2.50267042661,
			"0.011": 3.14898109338,
			"0.012": 1.90327212253,
			"0.013": 3.62885231649,
			"0.014": 6.71616418139,
			"0.015": 3.94736109534,
			"0.016": 0.253644524244,
			"0.017": 0.0,
			"0.018": 0.0,
			"0.019": 0.0,
			"0.02": 0.0,
			"0.021": 0.0,
			"0.022": 0.0,
			"0.023": 0.0,
			"0.024": 0.0,
			"0.025": 0.0
		}
	}
}
