{
	 "smiles": "O=C(OCC1=CC=CC=C1)C=CC1=CC=CC=C1", 
	 "Tm": 310.15, 
	 "num_atms": 32, 
	 "gaussian": { 
		 "optdone": 1, 
		 "sigma_profile": "yes", 
		 "theory": "DFT", 
		 "functional": "B3LYP", 
		 "basiset": "6-31G**", 
		 "properties": { 
			 "R2extent": 8018.5612, 
			 "electric_dipole_moment_norm": 1.97955136331, 
			 "electric_quadrupole_moment_norm": 14.9528379604, 
			 "total_energy": -768.59030011, 
			 "HOMO_LUMO_gap": 0.16989, 
			 "cosmo_polarized_energy": -10.15, 
			 "cosmo_cavitation_energy": 37.2, 
			 "cosmo_dispersion_energy": -26.75, 
			 "cosmo_repulsion_energy": 2.05, 
			 "cosmo_total_nonelectrostatic_energy": 12.5, 
			 "SMD_solvation_energy": 7.14 
		},
		"coords": [
			{
				"x": -0.3673251886,
				"y": 0.2240082416,
				"z": 2.3126103094,
				"element": "O" 
			},
			{
				"x": 0.0703581555,
				"y": -0.6261256776,
				"z": 1.5559595376,
				"element": "C" 
			},
			{
				"x": -0.5404926068,
				"y": -1.8126361424,
				"z": 1.3135203833,
				"element": "O" 
			},
			{
				"x": -1.7921093795,
				"y": -2.0566099137,
				"z": 2.0098623403,
				"element": "C" 
			},
			{
				"x": -2.9853136241,
				"y": -1.6329247533,
				"z": 1.188222099,
				"element": "C" 
			},
			{
				"x": -3.4450122545,
				"y": -0.3086944277,
				"z": 1.2281098955,
				"element": "C" 
			},
			{
				"x": -4.542935533,
				"y": 0.0793761641,
				"z": 0.4602570917,
				"element": "C" 
			},
			{
				"x": -5.1945095224,
				"y": -0.8497053064,
				"z": -0.3545039255,
				"element": "C" 
			},
			{
				"x": -4.7433708899,
				"y": -2.1699749734,
				"z": -0.3997594603,
				"element": "C" 
			},
			{
				"x": -3.6440815514,
				"y": -2.5569192396,
				"z": 0.3680042106,
				"element": "C" 
			},
			{
				"x": 1.3256050848,
				"y": -0.5270567568,
				"z": 0.7853794483,
				"element": "C" 
			},
			{
				"x": 2.0951952832,
				"y": 0.5720800469,
				"z": 0.8884325728,
				"element": "C" 
			},
			{
				"x": 3.3613700748,
				"y": 0.8475131978,
				"z": 0.2090575554,
				"element": "C" 
			},
			{
				"x": 4.0106385042,
				"y": 2.0692073932,
				"z": 0.4648952816,
				"element": "C" 
			},
			{
				"x": 5.2188079703,
				"y": 2.3851796028,
				"z": -0.153589819,
				"element": "C" 
			},
			{
				"x": 5.8031765591,
				"y": 1.4827612455,
				"z": -1.0431779618,
				"element": "C" 
			},
			{
				"x": 5.1707676259,
				"y": 0.2634089991,
				"z": -1.3091917648,
				"element": "C" 
			},
			{
				"x": 3.9651844677,
				"y": -0.0517748743,
				"z": -0.6917343065,
				"element": "C" 
			},
			{
				"x": -1.7631234805,
				"y": -1.5316848307,
				"z": 2.966600744,
				"element": "H" 
			},
			{
				"x": -1.8006972095,
				"y": -3.135345071,
				"z": 2.1810191171,
				"element": "H" 
			},
			{
				"x": -2.9283658929,
				"y": 0.4102605431,
				"z": 1.8563441365,
				"element": "H" 
			},
			{
				"x": -4.8924378507,
				"y": 1.1072667506,
				"z": 0.4998017441,
				"element": "H" 
			},
			{
				"x": -6.0515078427,
				"y": -0.5464660822,
				"z": -0.9493935275,
				"element": "H" 
			},
			{
				"x": -5.2475231766,
				"y": -2.89759963,
				"z": -1.0295102733,
				"element": "H" 
			},
			{
				"x": -3.2948375696,
				"y": -3.5861791577,
				"z": 0.3331991184,
				"element": "H" 
			},
			{
				"x": 1.5744551002,
				"y": -1.3722808266,
				"z": 0.1526667405,
				"element": "H" 
			},
			{
				"x": 1.7329544539,
				"y": 1.3506942237,
				"z": 1.5582268955,
				"element": "H" 
			},
			{
				"x": 3.5563830484,
				"y": 2.7729317959,
				"z": 1.1574953489,
				"element": "H" 
			},
			{
				"x": 5.7028782449,
				"y": 3.3339885104,
				"z": 0.0584797991,
				"element": "H" 
			},
			{
				"x": 6.7446315469,
				"y": 1.7250111119,
				"z": -1.5275141695,
				"element": "H" 
			},
			{
				"x": 5.6216595541,
				"y": -0.4420537394,
				"z": -2.001157032,
				"element": "H" 
			},
			{
				"x": 3.4870778987,
				"y": -1.0017564241,
				"z": -0.9092121294,
				"element": "H" 
			}
		],
		 "valence_orbital": [ 
			{
				"type": "occ",
				"energy": -0.26974,
				"method": "rhf"
			},
			{
				"type": "occ",
				"energy": -0.25995,
				"method": "rhf"
			},
			{
				"type": "occ",
				"energy": -0.24807,
				"method": "rhf"
			},
			{
				"type": "occ",
				"energy": -0.24526,
				"method": "rhf"
			},
			{
				"type": "occ",
				"energy": -0.23403,
				"method": "rhf"
			},
			{
				"type": "unocc",
				"energy": -0.06414,
				"method": "rhf"
			},
			{
				"type": "unocc",
				"energy": -0.00888,
				"method": "rhf"
			},
			{
				"type": "unocc",
				"energy": -0.00704,
				"method": "rhf"
			},
			{
				"type": "unocc",
				"energy": 0.00092,
				"method": "rhf"
			},
			{
				"type": "unocc",
				"energy": 0.02219,
				"method": "rhf"
			}
		],
		"cosmo_sigma_profile": { 
			"-0.025": 0.0,
			"-0.024": 0.0,
			"-0.023": 0.0,
			"-0.022": 0.0,
			"-0.021": 0.0,
			"-0.02": 0.0,
			"-0.019": 0.0,
			"-0.018": 0.0,
			"-0.017": 0.0,
			"-0.016": 0.0,
			"-0.015": 0.0,
			"-0.014": 0.0,
			"-0.013": 0.0,
			"-0.012": 0.0,
			"-0.011": 0.0,
			"-0.01": 0.0,
			"-0.009": 0.169468880293,
			"-0.008": 1.66275664577,
			"-0.007": 5.43223906538,
			"-0.006": 20.1632227808,
			"-0.005": 24.7385742124,
			"-0.004": 27.1484859901,
			"-0.003": 23.3277597239,
			"-0.002": 20.9350989971,
			"-0.001": 16.4239370344,
			"0.0": 19.5872415268,
			"0.001": 21.2542359785,
			"0.002": 25.3195349497,
			"0.003": 25.7677575458,
			"0.004": 24.4678840948,
			"0.005": 19.2754939647,
			"0.006": 7.67233180356,
			"0.007": 2.1364347794,
			"0.008": 3.34233496051,
			"0.009": 1.99437063469,
			"0.01": 1.74132501875,
			"0.011": 1.80030694858,
			"0.012": 3.10435313571,
			"0.013": 0.645491729387,
			"0.014": 0.0,
			"0.015": 0.0,
			"0.016": 0.0,
			"0.017": 0.0,
			"0.018": 0.0,
			"0.019": 0.0,
			"0.02": 0.0,
			"0.021": 0.0,
			"0.022": 0.0,
			"0.023": 0.0,
			"0.024": 0.0,
			"0.025": 0.0
		}
	}
}
