{
	 "smiles": "FC1=CC=C(C=C1)C1=CC=C(S1)C=O", 
	 "Tm": 385.15, 
	 "num_atms": 21, 
	 "gaussian": { 
		 "optdone": 1, 
		 "sigma_profile": "yes", 
		 "theory": "DFT", 
		 "functional": "B3LYP", 
		 "basiset": "6-31G**", 
		 "properties": { 
			 "R2extent": 5200.6015, 
			 "electric_dipole_moment_norm": 2.94396497771, 
			 "electric_quadrupole_moment_norm": 21.9300704114, 
			 "total_energy": -996.617128165, 
			 "HOMO_LUMO_gap": 0.15002, 
			 "cosmo_polarized_energy": -9.28, 
			 "cosmo_cavitation_energy": 28.34, 
			 "cosmo_dispersion_energy": -20.9, 
			 "cosmo_repulsion_energy": 1.54, 
			 "cosmo_total_nonelectrostatic_energy": 8.98, 
			 "SMD_solvation_energy": 6.02 
		},
		"coords": [
			{
				"x": 1.3185067854,
				"y": 3.8690963216,
				"z": -2.7639679425,
				"element": "F" 
			},
			{
				"x": 1.30347489,
				"y": 2.8550165081,
				"z": -1.8778842872,
				"element": "C" 
			},
			{
				"x": 0.222811409,
				"y": 1.9790091901,
				"z": -1.8707884821,
				"element": "C" 
			},
			{
				"x": 0.2104288593,
				"y": 0.9362671636,
				"z": -0.9494997243,
				"element": "C" 
			},
			{
				"x": 1.2718560325,
				"y": 0.7529737377,
				"z": -0.0425412472,
				"element": "C" 
			},
			{
				"x": 2.3466894201,
				"y": 1.6604657832,
				"z": -0.0831837834,
				"element": "C" 
			},
			{
				"x": 2.3671740893,
				"y": 2.7132698288,
				"z": -0.993384501,
				"element": "C" 
			},
			{
				"x": 1.243096052,
				"y": -0.3634566528,
				"z": 0.9093193546,
				"element": "C" 
			},
			{
				"x": 0.6054885155,
				"y": -1.5855927564,
				"z": 0.7710390796,
				"element": "C" 
			},
			{
				"x": 0.7763495353,
				"y": -2.4418319706,
				"z": 1.8803477641,
				"element": "C" 
			},
			{
				"x": 1.5463712302,
				"y": -1.8862929299,
				"z": 2.8818622726,
				"element": "C" 
			},
			{
				"x": 2.0592715653,
				"y": -0.2716481945,
				"z": 2.4487662216,
				"element": "S" 
			},
			{
				"x": 1.920442989,
				"y": -2.5011733351,
				"z": 4.1543420872,
				"element": "C" 
			},
			{
				"x": 1.5701253687,
				"y": -3.6203478005,
				"z": 4.4889316674,
				"element": "O" 
			},
			{
				"x": -0.5934852454,
				"y": 2.1287763853,
				"z": -2.5688907687,
				"element": "H" 
			},
			{
				"x": -0.6438169701,
				"y": 0.2680460602,
				"z": -0.917343765,
				"element": "H" 
			},
			{
				"x": 3.1874077938,
				"y": 1.5298212412,
				"z": 0.5914100747,
				"element": "H" 
			},
			{
				"x": 3.194887027,
				"y": 3.4127705902,
				"z": -1.032873634,
				"element": "H" 
			},
			{
				"x": 0.0587106847,
				"y": -1.861604866,
				"z": -0.1231584846,
				"element": "H" 
			},
			{
				"x": 0.3694191958,
				"y": -3.4425739451,
				"z": 1.9634952218,
				"element": "H" 
			},
			{
				"x": 2.5576907725,
				"y": -1.8770903588,
				"z": 4.8175028764,
				"element": "H" 
			}
		],
		 "valence_orbital": [ 
			{
				"type": "occ",
				"energy": -0.28383,
				"method": "rhf"
			},
			{
				"type": "occ",
				"energy": -0.27722,
				"method": "rhf"
			},
			{
				"type": "occ",
				"energy": -0.27092,
				"method": "rhf"
			},
			{
				"type": "occ",
				"energy": -0.25706,
				"method": "rhf"
			},
			{
				"type": "occ",
				"energy": -0.22821,
				"method": "rhf"
			},
			{
				"type": "unocc",
				"energy": -0.07819,
				"method": "rhf"
			},
			{
				"type": "unocc",
				"energy": -0.02806,
				"method": "rhf"
			},
			{
				"type": "unocc",
				"energy": -0.02091,
				"method": "rhf"
			},
			{
				"type": "unocc",
				"energy": 0.01217,
				"method": "rhf"
			},
			{
				"type": "unocc",
				"energy": 0.03323,
				"method": "rhf"
			}
		],
		"cosmo_sigma_profile": { 
			"-0.025": 0.0,
			"-0.024": 0.0,
			"-0.023": 0.0,
			"-0.022": 0.0,
			"-0.021": 0.0,
			"-0.02": 0.0,
			"-0.019": 0.0,
			"-0.018": 0.0,
			"-0.017": 0.0,
			"-0.016": 0.0,
			"-0.015": 0.0,
			"-0.014": 0.0,
			"-0.013": 0.0,
			"-0.012": 0.0,
			"-0.011": 0.0,
			"-0.01": 0.0,
			"-0.009": 0.0,
			"-0.008": 4.85477326352,
			"-0.007": 14.5023023912,
			"-0.006": 14.1980325955,
			"-0.005": 13.7363568509,
			"-0.004": 12.172021447,
			"-0.003": 10.9132757353,
			"-0.002": 11.7236659841,
			"-0.001": 13.9696234168,
			"0.0": 19.5196339049,
			"0.001": 26.5212443142,
			"0.002": 30.2244682021,
			"0.003": 24.6244090507,
			"0.004": 12.6331655166,
			"0.005": 2.81993124402,
			"0.006": 1.97198999925,
			"0.007": 1.35450282452,
			"0.008": 1.29358853191,
			"0.009": 2.37183706298,
			"0.01": 2.14063009393,
			"0.011": 3.89554206312,
			"0.012": 4.14206095291,
			"0.013": 1.28058183738,
			"0.014": 0.0486750043084,
			"0.015": 0.0,
			"0.016": 0.0,
			"0.017": 0.0,
			"0.018": 0.0,
			"0.019": 0.0,
			"0.02": 0.0,
			"0.021": 0.0,
			"0.022": 0.0,
			"0.023": 0.0,
			"0.024": 0.0,
			"0.025": 0.0
		}
	}
}
