{
	 "smiles": "ClC1=NC=C(C(Cl)=C1)S(Cl)(=O)=O", 
	 "Tm": 353.15, 
	 "num_atms": 14, 
	 "gaussian": { 
		 "optdone": 1, 
		 "sigma_profile": "yes", 
		 "theory": "DFT", 
		 "functional": "B3LYP", 
		 "basiset": "6-31G**", 
		 "properties": { 
			 "R2extent": 4588.4873, 
			 "electric_dipole_moment_norm": 3.1545677184, 
			 "electric_quadrupole_moment_norm": 12.5419970045, 
			 "total_energy": -2175.60891908, 
			 "HOMO_LUMO_gap": 0.19577, 
			 "cosmo_polarized_energy": -8.91, 
			 "cosmo_cavitation_energy": 26.0, 
			 "cosmo_dispersion_energy": -20.01, 
			 "cosmo_repulsion_energy": 1.55, 
			 "cosmo_total_nonelectrostatic_energy": 7.54, 
			 "SMD_solvation_energy": 1.35 
		},
		"coords": [
			{
				"x": 2.2555091753,
				"y": 1.2500699551,
				"z": 1.3605995788,
				"element": "Cl" 
			},
			{
				"x": 0.7761274967,
				"y": 0.6743112752,
				"z": 0.6316620854,
				"element": "C" 
			},
			{
				"x": 0.8979448945,
				"y": -0.1214098382,
				"z": -0.4186277815,
				"element": "N" 
			},
			{
				"x": -0.2276342512,
				"y": -0.5648480625,
				"z": -0.9829791381,
				"element": "C" 
			},
			{
				"x": -1.5034468946,
				"y": -0.2303326887,
				"z": -0.5155521367,
				"element": "C" 
			},
			{
				"x": -1.6111871713,
				"y": 0.6186365949,
				"z": 0.5999322207,
				"element": "C" 
			},
			{
				"x": -3.1277442615,
				"y": 1.1288739858,
				"z": 1.2619500683,
				"element": "Cl" 
			},
			{
				"x": -0.439194616,
				"y": 1.0825814991,
				"z": 1.1897444229,
				"element": "C" 
			},
			{
				"x": -2.8930318902,
				"y": -0.976937803,
				"z": -1.3717934952,
				"element": "S" 
			},
			{
				"x": -3.7350441089,
				"y": 0.7044610901,
				"z": -2.344094492,
				"element": "Cl" 
			},
			{
				"x": -2.3520607884,
				"y": -1.8303534417,
				"z": -2.4207041385,
				"element": "O" 
			},
			{
				"x": -3.8750163187,
				"y": -1.4596266296,
				"z": -0.4144213506,
				"element": "O" 
			},
			{
				"x": -0.1254213385,
				"y": -1.2179717071,
				"z": -1.8437187674,
				"element": "H" 
			},
			{
				"x": -0.4724999272,
				"y": 1.7389457708,
				"z": 2.0496029238,
				"element": "H" 
			}
		],
		 "valence_orbital": [ 
			{
				"type": "occ",
				"energy": -0.3435,
				"method": "rhf"
			},
			{
				"type": "occ",
				"energy": -0.32924,
				"method": "rhf"
			},
			{
				"type": "occ",
				"energy": -0.31732,
				"method": "rhf"
			},
			{
				"type": "occ",
				"energy": -0.31397,
				"method": "rhf"
			},
			{
				"type": "occ",
				"energy": -0.30315,
				"method": "rhf"
			},
			{
				"type": "unocc",
				"energy": -0.10738,
				"method": "rhf"
			},
			{
				"type": "unocc",
				"energy": -0.08055,
				"method": "rhf"
			},
			{
				"type": "unocc",
				"energy": -0.07271,
				"method": "rhf"
			},
			{
				"type": "unocc",
				"energy": -0.02207,
				"method": "rhf"
			},
			{
				"type": "unocc",
				"energy": 0.01724,
				"method": "rhf"
			}
		],
		"cosmo_sigma_profile": { 
			"-0.025": 0.0,
			"-0.024": 0.0,
			"-0.023": 0.0,
			"-0.022": 0.0,
			"-0.021": 0.0,
			"-0.02": 0.0,
			"-0.019": 0.0,
			"-0.018": 0.0,
			"-0.017": 0.0,
			"-0.016": 0.0,
			"-0.015": 0.0,
			"-0.014": 0.0,
			"-0.013": 0.0,
			"-0.012": 0.0,
			"-0.011": 0.727751795896,
			"-0.01": 1.93633180665,
			"-0.009": 3.11585216444,
			"-0.008": 4.01297487183,
			"-0.007": 5.12839575331,
			"-0.006": 7.78576889729,
			"-0.005": 10.9377436012,
			"-0.004": 19.270022879,
			"-0.003": 17.9671562148,
			"-0.002": 11.2868742482,
			"-0.001": 15.4532876242,
			"0.0": 13.8895350511,
			"0.001": 22.1346230703,
			"0.002": 26.3166859043,
			"0.003": 17.2395101562,
			"0.004": 6.03781655189,
			"0.005": 6.15361561758,
			"0.006": 6.01576622148,
			"0.007": 10.6355828504,
			"0.008": 8.29329971072,
			"0.009": 0.876851896795,
			"0.01": 0.973441819788,
			"0.011": 0.791460257964,
			"0.012": 0.634141817832,
			"0.013": 0.0,
			"0.014": 0.0,
			"0.015": 0.0,
			"0.016": 0.0,
			"0.017": 0.0,
			"0.018": 0.0,
			"0.019": 0.0,
			"0.02": 0.0,
			"0.021": 0.0,
			"0.022": 0.0,
			"0.023": 0.0,
			"0.024": 0.0,
			"0.025": 0.0
		}
	}
}
