{
	 "smiles": "CN(C)C1=CC=C(C=C(/C#N)C2=CC(Cl)=C(Cl)C=C2)C=C1", 
	 "Tm": 487.15, 
	 "num_atms": 35, 
	 "gaussian": { 
		 "optdone": 1, 
		 "sigma_profile": "yes", 
		 "theory": "DFT", 
		 "functional": "B3LYP", 
		 "basiset": "6-31G**", 
		 "properties": { 
			 "R2extent": 15580.782, 
			 "electric_dipole_moment_norm": 9.20640881397, 
			 "electric_quadrupole_moment_norm": 13.9908042624, 
			 "total_energy": -1686.10491517, 
			 "HOMO_LUMO_gap": 0.12517, 
			 "cosmo_polarized_energy": -14.25, 
			 "cosmo_cavitation_energy": 43.23, 
			 "cosmo_dispersion_energy": -30.9, 
			 "cosmo_repulsion_energy": 2.32, 
			 "cosmo_total_nonelectrostatic_energy": 14.65, 
			 "SMD_solvation_energy": 7.43 
		},
		"coords": [
			{
				"x": -2.7831163353,
				"y": -4.5012682115,
				"z": -0.6935904852,
				"element": "C" 
			},
			{
				"x": -2.8842805073,
				"y": -3.4207268204,
				"z": 0.2756007468,
				"element": "N" 
			},
			{
				"x": -4.036621319,
				"y": -3.354635782,
				"z": 1.16017694,
				"element": "C" 
			},
			{
				"x": -1.8995279892,
				"y": -2.4637062178,
				"z": 0.3516351933,
				"element": "C" 
			},
			{
				"x": -1.9721722105,
				"y": -1.3991081679,
				"z": 1.2849544127,
				"element": "C" 
			},
			{
				"x": -0.9718415872,
				"y": -0.4457127513,
				"z": 1.345474166,
				"element": "C" 
			},
			{
				"x": 0.1578798978,
				"y": -0.4720371886,
				"z": 0.496714942,
				"element": "C" 
			},
			{
				"x": 1.1365988623,
				"y": 0.5828830507,
				"z": 0.6540962461,
				"element": "C" 
			},
			{
				"x": 2.2804941372,
				"y": 0.8932069293,
				"z": -0.0300477698,
				"element": "C" 
			},
			{
				"x": 2.6967522314,
				"y": 0.1605836836,
				"z": -1.186174385,
				"element": "C" 
			},
			{
				"x": 3.0659419769,
				"y": -0.4041233584,
				"z": -2.1367689092,
				"element": "N" 
			},
			{
				"x": 3.1516986561,
				"y": 2.033440901,
				"z": 0.3568790268,
				"element": "C" 
			},
			{
				"x": 3.9633283365,
				"y": 2.6608683495,
				"z": -0.6011894548,
				"element": "C" 
			},
			{
				"x": 4.7698794264,
				"y": 3.7470118858,
				"z": -0.2649472167,
				"element": "C" 
			},
			{
				"x": 5.7430824351,
				"y": 4.4827198967,
				"z": -1.5154933839,
				"element": "Cl" 
			},
			{
				"x": 4.7859336206,
				"y": 4.2306915245,
				"z": 1.0495560811,
				"element": "C" 
			},
			{
				"x": 5.7796968131,
				"y": 5.5860623846,
				"z": 1.5209871329,
				"element": "Cl" 
			},
			{
				"x": 3.9953273,
				"y": 3.6012860789,
				"z": 2.0142764242,
				"element": "C" 
			},
			{
				"x": 3.1971042541,
				"y": 2.5154630513,
				"z": 1.677184658,
				"element": "C" 
			},
			{
				"x": 0.2261761646,
				"y": -1.5395346797,
				"z": -0.428516258,
				"element": "C" 
			},
			{
				"x": -0.764821682,
				"y": -2.5015572498,
				"z": -0.5004251641,
				"element": "C" 
			},
			{
				"x": -1.8869152848,
				"y": -5.1138438342,
				"z": -0.5296387303,
				"element": "H" 
			},
			{
				"x": -2.7528012775,
				"y": -4.1237155547,
				"z": -1.7240429059,
				"element": "H" 
			},
			{
				"x": -3.65439641,
				"y": -5.1496670596,
				"z": -0.5991628553,
				"element": "H" 
			},
			{
				"x": -4.7008263734,
				"y": -4.192574567,
				"z": 0.9477285877,
				"element": "H" 
			},
			{
				"x": -4.6071585649,
				"y": -2.427038603,
				"z": 1.0187108777,
				"element": "H" 
			},
			{
				"x": -3.7440058295,
				"y": -3.415339753,
				"z": 2.2168967637,
				"element": "H" 
			},
			{
				"x": -2.8121286544,
				"y": -1.3196766602,
				"z": 1.9635367773,
				"element": "H" 
			},
			{
				"x": -1.0618946291,
				"y": 0.3558655591,
				"z": 2.074895362,
				"element": "H" 
			},
			{
				"x": 0.898016793,
				"y": 1.2672265019,
				"z": 1.4654143619,
				"element": "H" 
			},
			{
				"x": 3.9683599795,
				"y": 2.308076304,
				"z": -1.6263883357,
				"element": "H" 
			},
			{
				"x": 4.0275811644,
				"y": 3.9619334903,
				"z": 3.036459205,
				"element": "H" 
			},
			{
				"x": 2.6285763676,
				"y": 2.0235360768,
				"z": 2.4587859105,
				"element": "H" 
			},
			{
				"x": 1.0679702498,
				"y": -1.6232899012,
				"z": -1.1040150428,
				"element": "H" 
			},
			{
				"x": -0.6572900126,
				"y": -3.295899308,
				"z": -1.2283629187,
				"element": "H" 
			}
		],
		 "valence_orbital": [ 
			{
				"type": "occ",
				"energy": -0.27837,
				"method": "rhf"
			},
			{
				"type": "occ",
				"energy": -0.26242,
				"method": "rhf"
			},
			{
				"type": "occ",
				"energy": -0.25804,
				"method": "rhf"
			},
			{
				"type": "occ",
				"energy": -0.24259,
				"method": "rhf"
			},
			{
				"type": "occ",
				"energy": -0.19679,
				"method": "rhf"
			},
			{
				"type": "unocc",
				"energy": -0.07162,
				"method": "rhf"
			},
			{
				"type": "unocc",
				"energy": -0.02249,
				"method": "rhf"
			},
			{
				"type": "unocc",
				"energy": -0.01179,
				"method": "rhf"
			},
			{
				"type": "unocc",
				"energy": -0.00786,
				"method": "rhf"
			},
			{
				"type": "unocc",
				"energy": 0.0061,
				"method": "rhf"
			}
		],
		"cosmo_sigma_profile": { 
			"-0.025": 0.0,
			"-0.024": 0.0,
			"-0.023": 0.0,
			"-0.022": 0.0,
			"-0.021": 0.0,
			"-0.02": 0.0,
			"-0.019": 0.0,
			"-0.018": 0.0,
			"-0.017": 0.0,
			"-0.016": 0.0,
			"-0.015": 0.0,
			"-0.014": 0.0,
			"-0.013": 0.0,
			"-0.012": 0.0,
			"-0.011": 0.0,
			"-0.01": 0.0,
			"-0.009": 0.805798989212,
			"-0.008": 5.72918895334,
			"-0.007": 9.31587416958,
			"-0.006": 13.9372672158,
			"-0.005": 22.4857812839,
			"-0.004": 26.7769675349,
			"-0.003": 25.1340597839,
			"-0.002": 28.4976495953,
			"-0.001": 25.0095661671,
			"0.0": 31.849477065,
			"0.001": 36.1148220961,
			"0.002": 34.5511541009,
			"0.003": 26.2009451031,
			"0.004": 28.5992841554,
			"0.005": 16.6338357927,
			"0.006": 2.9281591699,
			"0.007": 2.04444877813,
			"0.008": 1.98743553636,
			"0.009": 2.99743589452,
			"0.01": 2.28143170408,
			"0.011": 2.94866555037,
			"0.012": 2.45375063925,
			"0.013": 2.10038075458,
			"0.014": 0.295469488626,
			"0.015": 0.0,
			"0.016": 0.0,
			"0.017": 0.0,
			"0.018": 0.0,
			"0.019": 0.0,
			"0.02": 0.0,
			"0.021": 0.0,
			"0.022": 0.0,
			"0.023": 0.0,
			"0.024": 0.0,
			"0.025": 0.0
		}
	}
}
