{
	 "smiles": "ClC1=CC=C(C=C1)C#C", 
	 "Tm": 318.15, 
	 "num_atms": 14, 
	 "gaussian": { 
		 "optdone": 1, 
		 "sigma_profile": "yes", 
		 "theory": "DFT", 
		 "functional": "B3LYP", 
		 "basiset": "6-31G**", 
		 "properties": { 
			 "R2extent": 3956.3428, 
			 "electric_dipole_moment_norm": 1.30610681416, 
			 "electric_quadrupole_moment_norm": 7.37221355225, 
			 "total_energy": -767.987388744, 
			 "HOMO_LUMO_gap": 0.19396, 
			 "cosmo_polarized_energy": -4.95, 
			 "cosmo_cavitation_energy": 21.29, 
			 "cosmo_dispersion_energy": -15.24, 
			 "cosmo_repulsion_energy": 1.24, 
			 "cosmo_total_nonelectrostatic_energy": 7.28, 
			 "SMD_solvation_energy": 4.76 
		},
		"coords": [
			{
				"x": -0.8066302239,
				"y": 5.5422447377,
				"z": -1.5921700906,
				"element": "Cl" 
			},
			{
				"x": -0.1022292652,
				"y": 4.021743273,
				"z": -1.0677013342,
				"element": "C" 
			},
			{
				"x": 0.67629745,
				"y": 3.2828173791,
				"z": -1.9593569963,
				"element": "C" 
			},
			{
				"x": 1.2329794902,
				"y": 2.0781661513,
				"z": -1.540249109,
				"element": "C" 
			},
			{
				"x": 1.0187763142,
				"y": 1.6018476203,
				"z": -0.2330231019,
				"element": "C" 
			},
			{
				"x": 0.2293342572,
				"y": 2.3672841636,
				"z": 0.6458887911,
				"element": "C" 
			},
			{
				"x": -0.3305014717,
				"y": 3.5728447449,
				"z": 0.2336631775,
				"element": "C" 
			},
			{
				"x": 1.5918335765,
				"y": 0.3648746409,
				"z": 0.1937033069,
				"element": "C" 
			},
			{
				"x": 2.0772214144,
				"y": -0.6829246846,
				"z": 0.5553182867,
				"element": "C" 
			},
			{
				"x": 0.8426495297,
				"y": 3.6477449222,
				"z": -2.9667599049,
				"element": "H" 
			},
			{
				"x": 1.8399420819,
				"y": 1.495725853,
				"z": -2.2254356684,
				"element": "H" 
			},
			{
				"x": 0.0581802233,
				"y": 2.0089867944,
				"z": 1.6555664384,
				"element": "H" 
			},
			{
				"x": -0.938254107,
				"y": 4.1607691758,
				"z": 0.9124027739,
				"element": "H" 
			},
			{
				"x": 2.5046007304,
				"y": -1.6054247717,
				"z": 0.8735534309,
				"element": "H" 
			}
		],
		 "valence_orbital": [ 
			{
				"type": "occ",
				"energy": -0.31719,
				"method": "rhf"
			},
			{
				"type": "occ",
				"energy": -0.29902,
				"method": "rhf"
			},
			{
				"type": "occ",
				"energy": -0.27995,
				"method": "rhf"
			},
			{
				"type": "occ",
				"energy": -0.27156,
				"method": "rhf"
			},
			{
				"type": "occ",
				"energy": -0.235,
				"method": "rhf"
			},
			{
				"type": "unocc",
				"energy": -0.04104,
				"method": "rhf"
			},
			{
				"type": "unocc",
				"energy": -0.02001,
				"method": "rhf"
			},
			{
				"type": "unocc",
				"energy": 0.0252,
				"method": "rhf"
			},
			{
				"type": "unocc",
				"energy": 0.04708,
				"method": "rhf"
			},
			{
				"type": "unocc",
				"energy": 0.07928,
				"method": "rhf"
			}
		],
		"cosmo_sigma_profile": { 
			"-0.025": 0.0,
			"-0.024": 0.0,
			"-0.023": 0.0,
			"-0.022": 0.0,
			"-0.021": 0.0,
			"-0.02": 0.0,
			"-0.019": 0.0,
			"-0.018": 0.0,
			"-0.017": 0.0,
			"-0.016": 0.0,
			"-0.015": 0.0,
			"-0.014": 0.0,
			"-0.013": 0.00749568269683,
			"-0.012": 0.847813788021,
			"-0.011": 1.26620763127,
			"-0.01": 0.860411842147,
			"-0.009": 1.31558239026,
			"-0.008": 2.9673277923,
			"-0.007": 7.88366808431,
			"-0.006": 9.5986128644,
			"-0.005": 8.20555856945,
			"-0.004": 6.77456994304,
			"-0.003": 7.39877507396,
			"-0.002": 8.25309030201,
			"-0.001": 10.5061864856,
			"0.0": 11.0497685178,
			"0.001": 18.5803583523,
			"0.002": 24.082016344,
			"0.003": 21.3149294452,
			"0.004": 15.2160743878,
			"0.005": 10.2302517582,
			"0.006": 8.1779359127,
			"0.007": 0.685246795422,
			"0.008": 0.0,
			"0.009": 0.0,
			"0.01": 0.0,
			"0.011": 0.0,
			"0.012": 0.0,
			"0.013": 0.0,
			"0.014": 0.0,
			"0.015": 0.0,
			"0.016": 0.0,
			"0.017": 0.0,
			"0.018": 0.0,
			"0.019": 0.0,
			"0.02": 0.0,
			"0.021": 0.0,
			"0.022": 0.0,
			"0.023": 0.0,
			"0.024": 0.0,
			"0.025": 0.0
		}
	}
}
