{
	 "smiles": "CCCCOC(=O)C1=C(C)NC(C)=C(C1C1=CC=CO1)C(=O)OCCCC", 
	 "Tm": 360.15, 
	 "num_atms": 56, 
	 "gaussian": { 
		 "optdone": 1, 
		 "sigma_profile": "yes", 
		 "theory": "DFT", 
		 "functional": "B3LYP", 
		 "basiset": "6-31G**", 
		 "properties": { 
			 "R2extent": 12773.0746, 
			 "electric_dipole_moment_norm": 4.31770304444, 
			 "electric_quadrupole_moment_norm": 11.8309040031, 
			 "total_energy": -1248.59635508, 
			 "HOMO_LUMO_gap": 0.16103, 
			 "cosmo_polarized_energy": -21.07, 
			 "cosmo_cavitation_energy": 58.08, 
			 "cosmo_dispersion_energy": -37.53, 
			 "cosmo_repulsion_energy": 2.97, 
			 "cosmo_total_nonelectrostatic_energy": 23.53, 
			 "SMD_solvation_energy": 11.9 
		},
		"coords": [
			{
				"x": -1.2368782304,
				"y": 2.662358505,
				"z": -4.4131168558,
				"element": "C" 
			},
			{
				"x": -1.9684170279,
				"y": 2.7034490124,
				"z": -3.0664147467,
				"element": "C" 
			},
			{
				"x": -1.634325644,
				"y": 3.9296780858,
				"z": -2.2003002844,
				"element": "C" 
			},
			{
				"x": -0.1885457731,
				"y": 4.0151846402,
				"z": -1.7303240165,
				"element": "C" 
			},
			{
				"x": 0.071206277,
				"y": 2.8737376881,
				"z": -0.8868191557,
				"element": "O" 
			},
			{
				"x": 1.3348514398,
				"y": 2.7615714105,
				"z": -0.4081864056,
				"element": "C" 
			},
			{
				"x": 2.2013353768,
				"y": 3.5809865589,
				"z": -0.6806145635,
				"element": "O" 
			},
			{
				"x": 1.4814408891,
				"y": 1.5620668834,
				"z": 0.4400095111,
				"element": "C" 
			},
			{
				"x": 2.6666517249,
				"y": 1.2313116659,
				"z": 1.024386492,
				"element": "C" 
			},
			{
				"x": 3.9630217173,
				"y": 1.993363006,
				"z": 0.9871354248,
				"element": "C" 
			},
			{
				"x": 2.7498197549,
				"y": 0.0254436254,
				"z": 1.7114940223,
				"element": "N" 
			},
			{
				"x": 1.8697445043,
				"y": -1.0332887656,
				"z": 1.5170557208,
				"element": "C" 
			},
			{
				"x": 2.4174880236,
				"y": -2.3701152369,
				"z": 1.9485865037,
				"element": "C" 
			},
			{
				"x": 0.6720976181,
				"y": -0.7594983327,
				"z": 0.9313659944,
				"element": "C" 
			},
			{
				"x": 0.2639318383,
				"y": 0.701843454,
				"z": 0.7454030999,
				"element": "C" 
			},
			{
				"x": -0.4618127304,
				"y": 1.2269795026,
				"z": 1.9616224602,
				"element": "C" 
			},
			{
				"x": -0.1725315809,
				"y": 2.1707989961,
				"z": 2.9055100041,
				"element": "C" 
			},
			{
				"x": -1.2798631364,
				"y": 2.1918818198,
				"z": 3.8185239561,
				"element": "C" 
			},
			{
				"x": -2.1581291064,
				"y": 1.2573389095,
				"z": 3.3660163688,
				"element": "C" 
			},
			{
				"x": -1.6776737333,
				"y": 0.6617159522,
				"z": 2.2363655756,
				"element": "O" 
			},
			{
				"x": -0.2940814554,
				"y": -1.7515230265,
				"z": 0.4322494153,
				"element": "C" 
			},
			{
				"x": -1.2936953663,
				"y": -1.4588019947,
				"z": -0.2024652013,
				"element": "O" 
			},
			{
				"x": 0.0276263628,
				"y": -3.045516893,
				"z": 0.7104709101,
				"element": "O" 
			},
			{
				"x": -0.9024710833,
				"y": -4.0315197735,
				"z": 0.2152884445,
				"element": "C" 
			},
			{
				"x": -0.4041167469,
				"y": -5.3984654644,
				"z": 0.6636599553,
				"element": "C" 
			},
			{
				"x": -1.2637059129,
				"y": -6.5617958545,
				"z": 0.1411993922,
				"element": "C" 
			},
			{
				"x": -2.6918886746,
				"y": -6.5998872071,
				"z": 0.6998738778,
				"element": "C" 
			},
			{
				"x": -1.4408003343,
				"y": 3.5623891865,
				"z": -5.0055969249,
				"element": "H" 
			},
			{
				"x": -1.5551572562,
				"y": 1.7973532193,
				"z": -5.0039216944,
				"element": "H" 
			},
			{
				"x": -0.1514832576,
				"y": 2.5870584443,
				"z": -4.2880281054,
				"element": "H" 
			},
			{
				"x": -3.0506042137,
				"y": 2.6973390551,
				"z": -3.245813589,
				"element": "H" 
			},
			{
				"x": -1.7485477677,
				"y": 1.7926388499,
				"z": -2.498243017,
				"element": "H" 
			},
			{
				"x": -2.2855559331,
				"y": 3.9418857153,
				"z": -1.3181583882,
				"element": "H" 
			},
			{
				"x": -1.8490200728,
				"y": 4.8494384985,
				"z": -2.7618658942,
				"element": "H" 
			},
			{
				"x": -0.0096873485,
				"y": 4.9283861499,
				"z": -1.1530974197,
				"element": "H" 
			},
			{
				"x": 0.5244109401,
				"y": 4.0126012009,
				"z": -2.5605780262,
				"element": "H" 
			},
			{
				"x": 3.8039332394,
				"y": 3.0177048012,
				"z": 0.6622370967,
				"element": "H" 
			},
			{
				"x": 4.4289035878,
				"y": 1.983094583,
				"z": 1.9803279652,
				"element": "H" 
			},
			{
				"x": 4.6643375116,
				"y": 1.5207347938,
				"z": 0.2879086521,
				"element": "H" 
			},
			{
				"x": 3.6421710549,
				"y": -0.1941266589,
				"z": 2.1283906876,
				"element": "H" 
			},
			{
				"x": 2.7721505544,
				"y": -2.9466699055,
				"z": 1.0879544685,
				"element": "H" 
			},
			{
				"x": 3.2593752898,
				"y": -2.2326107486,
				"z": 2.635807406,
				"element": "H" 
			},
			{
				"x": 1.6549020917,
				"y": -2.968926309,
				"z": 2.442846959,
				"element": "H" 
			},
			{
				"x": -0.4354515919,
				"y": 0.738844359,
				"z": -0.0913628136,
				"element": "H" 
			},
			{
				"x": 0.7166641717,
				"y": 2.7820167761,
				"z": 2.9425233476,
				"element": "H" 
			},
			{
				"x": -1.3997814569,
				"y": 2.8205229184,
				"z": 4.6895039329,
				"element": "H" 
			},
			{
				"x": -3.1217133058,
				"y": 0.9108813888,
				"z": 3.7064911242,
				"element": "H" 
			},
			{
				"x": -0.9519860931,
				"y": -3.9601165289,
				"z": -0.8773244197,
				"element": "H" 
			},
			{
				"x": -1.8996774899,
				"y": -3.800923591,
				"z": 0.6007708058,
				"element": "H" 
			},
			{
				"x": -0.3698119956,
				"y": -5.425554504,
				"z": 1.7606599555,
				"element": "H" 
			},
			{
				"x": 0.6280194192,
				"y": -5.5218456544,
				"z": 0.3136524475,
				"element": "H" 
			},
			{
				"x": -0.7568797169,
				"y": -7.5014501216,
				"z": 0.392136245,
				"element": "H" 
			},
			{
				"x": -1.299302907,
				"y": -6.5222758522,
				"z": -0.9559758748,
				"element": "H" 
			},
			{
				"x": -2.6855828588,
				"y": -6.6363054812,
				"z": 1.7954234129,
				"element": "H" 
			},
			{
				"x": -3.2747555839,
				"y": -5.7225993574,
				"z": 0.4014619659,
				"element": "H" 
			},
			{
				"x": -3.2281480017,
				"y": -7.4845823941,
				"z": 0.3417937951,
				"element": "H" 
			}
		],
		 "valence_orbital": [ 
			{
				"type": "occ",
				"energy": -0.2593,
				"method": "rhf"
			},
			{
				"type": "occ",
				"energy": -0.25871,
				"method": "rhf"
			},
			{
				"type": "occ",
				"energy": -0.25098,
				"method": "rhf"
			},
			{
				"type": "occ",
				"energy": -0.20858,
				"method": "rhf"
			},
			{
				"type": "occ",
				"energy": -0.20376,
				"method": "rhf"
			},
			{
				"type": "unocc",
				"energy": -0.04273,
				"method": "rhf"
			},
			{
				"type": "unocc",
				"energy": 0.0004,
				"method": "rhf"
			},
			{
				"type": "unocc",
				"energy": 0.03059,
				"method": "rhf"
			},
			{
				"type": "unocc",
				"energy": 0.06372,
				"method": "rhf"
			},
			{
				"type": "unocc",
				"energy": 0.08056,
				"method": "rhf"
			}
		],
		"cosmo_sigma_profile": { 
			"-0.025": 0.0,
			"-0.024": 0.0,
			"-0.023": 0.0,
			"-0.022": 0.0,
			"-0.021": 0.0,
			"-0.02": 0.0,
			"-0.019": 0.0,
			"-0.018": 0.0,
			"-0.017": 0.0,
			"-0.016": 0.191163100282,
			"-0.015": 1.03293368645,
			"-0.014": 1.21947884567,
			"-0.013": 1.07414709896,
			"-0.012": 1.52900086892,
			"-0.011": 1.59513219792,
			"-0.01": 1.84592239011,
			"-0.009": 1.86507279888,
			"-0.008": 3.70539371355,
			"-0.007": 3.85419887173,
			"-0.006": 9.08690431518,
			"-0.005": 14.3636564818,
			"-0.004": 26.0857517676,
			"-0.003": 46.856890046,
			"-0.002": 57.0744229813,
			"-0.001": 60.7682807224,
			"0.0": 53.9830679055,
			"0.001": 45.2695445211,
			"0.002": 25.8754205881,
			"0.003": 19.3918234917,
			"0.004": 18.9124115092,
			"0.005": 12.2381518613,
			"0.006": 11.6265652552,
			"0.007": 6.10838236657,
			"0.008": 3.9091649216,
			"0.009": 4.0474146306,
			"0.01": 4.40367014272,
			"0.011": 3.74675181315,
			"0.012": 6.65666263572,
			"0.013": 6.39870730197,
			"0.014": 0.3814900888,
			"0.015": 0.0,
			"0.016": 0.0,
			"0.017": 0.0,
			"0.018": 0.0,
			"0.019": 0.0,
			"0.02": 0.0,
			"0.021": 0.0,
			"0.022": 0.0,
			"0.023": 0.0,
			"0.024": 0.0,
			"0.025": 0.0
		}
	}
}
