{
	 "smiles": "CC(=O)O[C@]1(CC[C@H]2[C@@H]3CCC4=CC(=O)CC[C@@H]4[C@H]3CC[C@]12C)C#C", 
	 "Tm": 435.15, 
	 "num_atms": 53, 
	 "gaussian": { 
		 "optdone": 1, 
		 "sigma_profile": "yes", 
		 "theory": "DFT", 
		 "functional": "B3LYP", 
		 "basiset": "6-31G**", 
		 "properties": { 
			 "R2extent": 10777.0193, 
			 "electric_dipole_moment_norm": 5.62860108553, 
			 "electric_quadrupole_moment_norm": 27.146008677, 
			 "total_energy": -1080.8393168, 
			 "HOMO_LUMO_gap": 0.18639, 
			 "cosmo_polarized_energy": -17.04, 
			 "cosmo_cavitation_energy": 49.2, 
			 "cosmo_dispersion_energy": -33.39, 
			 "cosmo_repulsion_energy": 2.48, 
			 "cosmo_total_nonelectrostatic_energy": 18.29, 
			 "SMD_solvation_energy": 9.63 
		},
		"coords": [
			{
				"x": -5.2534152249,
				"y": 2.8208125692,
				"z": -2.1702170166,
				"element": "C" 
			},
			{
				"x": -3.8096226882,
				"y": 2.6642839098,
				"z": -1.7483578783,
				"element": "C" 
			},
			{
				"x": -2.8505864022,
				"y": 2.911271476,
				"z": -2.4422402627,
				"element": "O" 
			},
			{
				"x": -3.7490775894,
				"y": 2.2108829498,
				"z": -0.4709760723,
				"element": "O" 
			},
			{
				"x": -2.4722739895,
				"y": 2.0965180593,
				"z": 0.2315900576,
				"element": "C" 
			},
			{
				"x": -2.8733781832,
				"y": 1.7039308446,
				"z": 1.6981858272,
				"element": "C" 
			},
			{
				"x": -1.8266882793,
				"y": 0.6732742431,
				"z": 2.1922641729,
				"element": "C" 
			},
			{
				"x": -0.7601305746,
				"y": 0.6605848903,
				"z": 1.0836732614,
				"element": "C" 
			},
			{
				"x": 0.220343693,
				"y": -0.5166570761,
				"z": 1.0132603966,
				"element": "C" 
			},
			{
				"x": 0.9707408309,
				"y": -0.7347898134,
				"z": 2.334147059,
				"element": "C" 
			},
			{
				"x": 1.9356027574,
				"y": -1.9241561286,
				"z": 2.2241601659,
				"element": "C" 
			},
			{
				"x": 2.8729383186,
				"y": -1.8188705932,
				"z": 1.0467687527,
				"element": "C" 
			},
			{
				"x": 4.1873167533,
				"y": -2.0922566361,
				"z": 1.18503937,
				"element": "C" 
			},
			{
				"x": 5.1272006032,
				"y": -2.1977839178,
				"z": 0.0547740881,
				"element": "C" 
			},
			{
				"x": 6.3212157567,
				"y": -2.4077147963,
				"z": 0.2212443164,
				"element": "O" 
			},
			{
				"x": 4.4990101546,
				"y": -2.1067087289,
				"z": -1.3269339599,
				"element": "C" 
			},
			{
				"x": 3.3241267822,
				"y": -1.1241163704,
				"z": -1.3482945274,
				"element": "C" 
			},
			{
				"x": 2.2483259428,
				"y": -1.4450098693,
				"z": -0.290279477,
				"element": "C" 
			},
			{
				"x": 1.2293112322,
				"y": -0.275085144,
				"z": -0.1392141979,
				"element": "C" 
			},
			{
				"x": 0.5055693716,
				"y": 0.0377071898,
				"z": -1.4658650164,
				"element": "C" 
			},
			{
				"x": -0.5380984659,
				"y": 1.1676522937,
				"z": -1.3572948902,
				"element": "C" 
			},
			{
				"x": -1.5548118127,
				"y": 0.8973958522,
				"z": -0.2326741162,
				"element": "C" 
			},
			{
				"x": -2.4683354366,
				"y": -0.2890291593,
				"z": -0.6097428808,
				"element": "C" 
			},
			{
				"x": -1.7792864834,
				"y": 3.3900535744,
				"z": 0.227136072,
				"element": "C" 
			},
			{
				"x": -1.215632981,
				"y": 4.4551529597,
				"z": 0.3090283141,
				"element": "C" 
			},
			{
				"x": -5.7175958942,
				"y": 3.6289619113,
				"z": -1.5961936,
				"element": "H" 
			},
			{
				"x": -5.815842946,
				"y": 1.9068899314,
				"z": -1.9611527357,
				"element": "H" 
			},
			{
				"x": -5.295394118,
				"y": 3.0565729903,
				"z": -3.2331788542,
				"element": "H" 
			},
			{
				"x": -2.9121688034,
				"y": 2.5957094513,
				"z": 2.3263163436,
				"element": "H" 
			},
			{
				"x": -3.8814682017,
				"y": 1.2843966621,
				"z": 1.6680120254,
				"element": "H" 
			},
			{
				"x": -1.4101920956,
				"y": 0.9486793771,
				"z": 3.1649086937,
				"element": "H" 
			},
			{
				"x": -2.2808958531,
				"y": -0.3172913375,
				"z": 2.3092215433,
				"element": "H" 
			},
			{
				"x": -0.1477368707,
				"y": 1.5643564235,
				"z": 1.2257757293,
				"element": "H" 
			},
			{
				"x": -0.3426109713,
				"y": -1.4385952006,
				"z": 0.7975614511,
				"element": "H" 
			},
			{
				"x": 1.5314807562,
				"y": 0.174895934,
				"z": 2.5901981283,
				"element": "H" 
			},
			{
				"x": 0.2664851756,
				"y": -0.9134279737,
				"z": 3.1543199865,
				"element": "H" 
			},
			{
				"x": 2.5073160151,
				"y": -2.0578400889,
				"z": 3.1482972997,
				"element": "H" 
			},
			{
				"x": 1.3358402135,
				"y": -2.8391647058,
				"z": 2.0936766327,
				"element": "H" 
			},
			{
				"x": 4.6070233052,
				"y": -2.3183461548,
				"z": 2.1629821014,
				"element": "H" 
			},
			{
				"x": 4.1508904319,
				"y": -3.1155950755,
				"z": -1.5942642663,
				"element": "H" 
			},
			{
				"x": 5.2751262417,
				"y": -1.8353129277,
				"z": -2.0479158582,
				"element": "H" 
			},
			{
				"x": 2.8771734335,
				"y": -1.1084060685,
				"z": -2.3462752514,
				"element": "H" 
			},
			{
				"x": 3.7052764038,
				"y": -0.1111641056,
				"z": -1.1594505953,
				"element": "H" 
			},
			{
				"x": 1.6751045,
				"y": -2.326698315,
				"z": -0.6293583032,
				"element": "H" 
			},
			{
				"x": 1.8115768898,
				"y": 0.618504307,
				"z": 0.1403731621,
				"element": "H" 
			},
			{
				"x": 1.2350842896,
				"y": 0.3267667805,
				"z": -2.2288623687,
				"element": "H" 
			},
			{
				"x": 0.0318984523,
				"y": -0.8815655305,
				"z": -1.8378403173,
				"element": "H" 
			},
			{
				"x": -0.0244285923,
				"y": 2.1130263692,
				"z": -1.1495957467,
				"element": "H" 
			},
			{
				"x": -1.0440499918,
				"y": 1.3011233341,
				"z": -2.3159068932,
				"element": "H" 
			},
			{
				"x": -1.8915899306,
				"y": -1.2049451498,
				"z": -0.7537182103,
				"element": "H" 
			},
			{
				"x": -2.9861356402,
				"y": -0.081545276,
				"z": -1.5501442849,
				"element": "H" 
			},
			{
				"x": -3.2300227658,
				"y": -0.4957963661,
				"z": 0.1462335077,
				"element": "H" 
			},
			{
				"x": -0.7170075188,
				"y": 5.3961682256,
				"z": 0.3440991223,
				"element": "H" 
			}
		],
		 "valence_orbital": [ 
			{
				"type": "occ",
				"energy": -0.28128,
				"method": "rhf"
			},
			{
				"type": "occ",
				"energy": -0.27389,
				"method": "rhf"
			},
			{
				"type": "occ",
				"energy": -0.25819,
				"method": "rhf"
			},
			{
				"type": "occ",
				"energy": -0.25229,
				"method": "rhf"
			},
			{
				"type": "occ",
				"energy": -0.22804,
				"method": "rhf"
			},
			{
				"type": "unocc",
				"energy": -0.04165,
				"method": "rhf"
			},
			{
				"type": "unocc",
				"energy": 0.00608,
				"method": "rhf"
			},
			{
				"type": "unocc",
				"energy": 0.02639,
				"method": "rhf"
			},
			{
				"type": "unocc",
				"energy": 0.04795,
				"method": "rhf"
			},
			{
				"type": "unocc",
				"energy": 0.05841,
				"method": "rhf"
			}
		],
		"cosmo_sigma_profile": { 
			"-0.025": 0.0,
			"-0.024": 0.0,
			"-0.023": 0.0,
			"-0.022": 0.0,
			"-0.021": 0.0,
			"-0.02": 0.0,
			"-0.019": 0.0,
			"-0.018": 0.0,
			"-0.017": 0.0,
			"-0.016": 0.0,
			"-0.015": 0.0,
			"-0.014": 0.0,
			"-0.013": 0.0,
			"-0.012": 0.542503145704,
			"-0.011": 1.27871964237,
			"-0.01": 1.56346152243,
			"-0.009": 0.513377072652,
			"-0.008": 1.44408183412,
			"-0.007": 1.733449445,
			"-0.006": 5.73490517992,
			"-0.005": 11.0290279977,
			"-0.004": 33.2433654612,
			"-0.003": 52.6567097102,
			"-0.002": 64.1616045717,
			"-0.001": 55.0003267714,
			"0.0": 37.4787458979,
			"0.001": 22.577730512,
			"0.002": 14.5307267105,
			"0.003": 14.0096588081,
			"0.004": 11.7999953167,
			"0.005": 9.44776415789,
			"0.006": 6.09064641282,
			"0.007": 4.73624376504,
			"0.008": 3.51864867412,
			"0.009": 3.08996291903,
			"0.01": 4.13460636826,
			"0.011": 5.30891598787,
			"0.012": 7.07577951932,
			"0.013": 6.01137451757,
			"0.014": 3.21691259005,
			"0.015": 0.587414641459,
			"0.016": 0.0,
			"0.017": 0.0,
			"0.018": 0.0,
			"0.019": 0.0,
			"0.02": 0.0,
			"0.021": 0.0,
			"0.022": 0.0,
			"0.023": 0.0,
			"0.024": 0.0,
			"0.025": 0.0
		}
	}
}
