{
	 "smiles": "FC1=C2N=C(NC2=CC=C1)C1CCNCC1", 
	 "Tm": 503.15, 
	 "num_atms": 30, 
	 "gaussian": { 
		 "optdone": 1, 
		 "sigma_profile": "yes", 
		 "theory": "DFT", 
		 "functional": "B3LYP", 
		 "basiset": "6-31G**", 
		 "properties": { 
			 "R2extent": 4990.8542, 
			 "electric_dipole_moment_norm": 4.58108482131, 
			 "electric_quadrupole_moment_norm": 11.7966114995, 
			 "total_energy": -729.809015526, 
			 "HOMO_LUMO_gap": 0.20488, 
			 "cosmo_polarized_energy": -16.92, 
			 "cosmo_cavitation_energy": 32.48, 
			 "cosmo_dispersion_energy": -23.89, 
			 "cosmo_repulsion_energy": 1.84, 
			 "cosmo_total_nonelectrostatic_energy": 10.43, 
			 "SMD_solvation_energy": 0.81 
		},
		"coords": [
			{
				"x": -0.4574438355,
				"y": -4.2466207434,
				"z": -0.367764849,
				"element": "F" 
			},
			{
				"x": -0.2294965528,
				"y": -3.560866795,
				"z": -1.5018991237,
				"element": "C" 
			},
			{
				"x": -0.1407861866,
				"y": -2.1643260502,
				"z": -1.4653074109,
				"element": "C" 
			},
			{
				"x": -0.2550549779,
				"y": -1.2749961703,
				"z": -0.409807492,
				"element": "N" 
			},
			{
				"x": -0.0917815421,
				"y": -0.0873127456,
				"z": -0.943712465,
				"element": "C" 
			},
			{
				"x": 0.1276801131,
				"y": -0.1478544611,
				"z": -2.3085823613,
				"element": "N" 
			},
			{
				"x": 0.1004454025,
				"y": -1.4809617446,
				"z": -2.6809837482,
				"element": "C" 
			},
			{
				"x": 0.252066572,
				"y": -2.130758043,
				"z": -3.9089727896,
				"element": "C" 
			},
			{
				"x": 0.1565826999,
				"y": -3.5198186822,
				"z": -3.8937129021,
				"element": "C" 
			},
			{
				"x": -0.0816003865,
				"y": -4.23488743,
				"z": -2.7038698146,
				"element": "C" 
			},
			{
				"x": -0.0714884788,
				"y": 1.2165249122,
				"z": -0.197857243,
				"element": "C" 
			},
			{
				"x": -1.0824293052,
				"y": 1.2205125081,
				"z": 0.9765257556,
				"element": "C" 
			},
			{
				"x": -0.6881828782,
				"y": 2.2620072295,
				"z": 2.0556430547,
				"element": "C" 
			},
			{
				"x": 0.078372715,
				"y": 3.3973140003,
				"z": 1.5358519944,
				"element": "N" 
			},
			{
				"x": 1.3635205305,
				"y": 2.9670277544,
				"z": 0.9638863718,
				"element": "C" 
			},
			{
				"x": 1.3422772746,
				"y": 1.5481362686,
				"z": 0.3333351972,
				"element": "C" 
			},
			{
				"x": 0.2636955635,
				"y": 0.641514193,
				"z": -2.9207679422,
				"element": "H" 
			},
			{
				"x": 0.4357621983,
				"y": -1.5872972797,
				"z": -4.8302019299,
				"element": "H" 
			},
			{
				"x": 0.2683876121,
				"y": -4.0718176894,
				"z": -4.8217800821,
				"element": "H" 
			},
			{
				"x": -0.1529183189,
				"y": -5.3170003283,
				"z": -2.7086797016,
				"element": "H" 
			},
			{
				"x": -0.3492472603,
				"y": 2.0072639551,
				"z": -0.9110365854,
				"element": "H" 
			},
			{
				"x": -2.0836408617,
				"y": 1.4341184879,
				"z": 0.583595126,
				"element": "H" 
			},
			{
				"x": -1.1215916855,
				"y": 0.2159414481,
				"z": 1.4083937269,
				"element": "H" 
			},
			{
				"x": -1.581489975,
				"y": 2.640016715,
				"z": 2.5637729083,
				"element": "H" 
			},
			{
				"x": -0.0741255564,
				"y": 1.7853195162,
				"z": 2.829561458,
				"element": "H" 
			},
			{
				"x": -0.4707897999,
				"y": 3.8677126321,
				"z": 0.8210138534,
				"element": "H" 
			},
			{
				"x": 1.6610061435,
				"y": 3.7089965921,
				"z": 0.21427545,
				"element": "H" 
			},
			{
				"x": 2.1294328693,
				"y": 2.9950362215,
				"z": 1.7505438928,
				"element": "H" 
			},
			{
				"x": 1.6111376269,
				"y": 0.7882541616,
				"z": 1.0757440237,
				"element": "H" 
			},
			{
				"x": 2.0884002802,
				"y": 1.476821567,
				"z": -0.4664063723,
				"element": "H" 
			}
		],
		 "valence_orbital": [ 
			{
				"type": "occ",
				"energy": -0.30132,
				"method": "rhf"
			},
			{
				"type": "occ",
				"energy": -0.27271,
				"method": "rhf"
			},
			{
				"type": "occ",
				"energy": -0.23027,
				"method": "rhf"
			},
			{
				"type": "occ",
				"energy": -0.21864,
				"method": "rhf"
			},
			{
				"type": "occ",
				"energy": -0.2168,
				"method": "rhf"
			},
			{
				"type": "unocc",
				"energy": -0.01192,
				"method": "rhf"
			},
			{
				"type": "unocc",
				"energy": 0.0187,
				"method": "rhf"
			},
			{
				"type": "unocc",
				"energy": 0.05099,
				"method": "rhf"
			},
			{
				"type": "unocc",
				"energy": 0.05775,
				"method": "rhf"
			},
			{
				"type": "unocc",
				"energy": 0.07979,
				"method": "rhf"
			}
		],
		"cosmo_sigma_profile": { 
			"-0.025": 0.0,
			"-0.024": 0.0,
			"-0.023": 0.0,
			"-0.022": 0.0,
			"-0.021": 0.0,
			"-0.02": 0.0,
			"-0.019": 0.0,
			"-0.018": 0.0,
			"-0.017": 0.0248318239815,
			"-0.016": 1.28722008605,
			"-0.015": 1.33185576738,
			"-0.014": 1.72325385741,
			"-0.013": 1.08933295864,
			"-0.012": 1.37079898908,
			"-0.011": 1.47358740202,
			"-0.01": 1.47758427784,
			"-0.009": 2.65991961263,
			"-0.008": 3.14363792384,
			"-0.007": 6.03047340448,
			"-0.006": 8.84605642961,
			"-0.005": 10.2989100788,
			"-0.004": 14.1431298658,
			"-0.003": 25.1527717889,
			"-0.002": 26.3467574631,
			"-0.001": 20.4504672974,
			"0.0": 18.5346940416,
			"0.001": 15.2119531635,
			"0.002": 17.6241007409,
			"0.003": 15.8092844285,
			"0.004": 18.0485424819,
			"0.005": 15.7933735826,
			"0.006": 6.14520463835,
			"0.007": 3.53932290247,
			"0.008": 2.38593109819,
			"0.009": 2.66941208143,
			"0.01": 2.43115046479,
			"0.011": 1.63092096659,
			"0.012": 2.29833459803,
			"0.013": 1.08329349885,
			"0.014": 1.82518324719,
			"0.015": 1.35263896733,
			"0.016": 1.38649037689,
			"0.017": 0.396106116468,
			"0.018": 0.590303063811,
			"0.019": 0.226999347704,
			"0.02": 0.0,
			"0.021": 0.0,
			"0.022": 0.0,
			"0.023": 0.0,
			"0.024": 0.0,
			"0.025": 0.0
		}
	}
}
