{
	 "smiles": "FC1=C(I)C=CN=C1", 
	 "Tm": 361.15, 
	 "num_atms": 11, 
	 "gaussian": { 
		 "optdone": 1, 
		 "sigma_profile": "no", 
		 "theory": "DFT", 
		 "functional": "B3LYP", 
		 "basiset": "6-31G**", 
		 "properties": { 
			 "R2extent": 1155.1687, 
			 "electric_dipole_moment_norm": 1.20547741995, 
			 "electric_quadrupole_moment_norm": 3.39852338082, 
			 "total_energy": -358.296248333, 
			 "HOMO_LUMO_gap": 0.20991, 
			 "cosmo_polarized_energy": -96651.9, 
			 "cosmo_cavitation_energy": 19.04, 
			 "cosmo_dispersion_energy": -15.59, 
			 "cosmo_repulsion_energy": 1.23, 
			 "cosmo_total_nonelectrostatic_energy": 4.68, 
			 "SMD_solvation_energy": 1.64 
		},
		"coords": [
			{
				"x": 2.0919013663,
				"y": 2.3212080332,
				"z": -0.5378968311,
				"element": "F" 
			},
			{
				"x": 1.0872302157,
				"y": 1.4988550912,
				"z": -0.2069793683,
				"element": "C" 
			},
			{
				"x": 0.1453107898,
				"y": 1.0970999588,
				"z": -1.1504000919,
				"element": "C" 
			},
			{
				"x": 0.2685705926,
				"y": 1.7718087566,
				"z": -3.138845729,
				"element": "I" 
			},
			{
				"x": -0.8701964538,
				"y": 0.239347311,
				"z": -0.7258994682,
				"element": "C" 
			},
			{
				"x": -0.8858395988,
				"y": -0.1655605113,
				"z": 0.6106697085,
				"element": "C" 
			},
			{
				"x": 0.0198188115,
				"y": 0.2210746835,
				"z": 1.5167638771,
				"element": "N" 
			},
			{
				"x": 0.989072631,
				"y": 1.0410804083,
				"z": 1.1069969587,
				"element": "C" 
			},
			{
				"x": -1.6311803609,
				"y": -0.1064968139,
				"z": -1.41600822,
				"element": "H" 
			},
			{
				"x": -1.6684437865,
				"y": -0.833884244,
				"z": 0.9626043092,
				"element": "H" 
			},
			{
				"x": 1.731855793,
				"y": 1.3630673267,
				"z": 1.833594855,
				"element": "H" 
			}
		],
		 "valence_orbital": [ 
			{
				"type": "occ",
				"energy": -0.333,
				"method": "rhf"
			},
			{
				"type": "occ",
				"energy": -0.28355,
				"method": "rhf"
			},
			{
				"type": "occ",
				"energy": -0.27538,
				"method": "rhf"
			},
			{
				"type": "occ",
				"energy": -0.27319,
				"method": "rhf"
			},
			{
				"type": "occ",
				"energy": -0.26386,
				"method": "rhf"
			},
			{
				"type": "unocc",
				"energy": -0.05395,
				"method": "rhf"
			},
			{
				"type": "unocc",
				"energy": -0.04834,
				"method": "rhf"
			},
			{
				"type": "unocc",
				"energy": -0.02523,
				"method": "rhf"
			},
			{
				"type": "unocc",
				"energy": 0.03909,
				"method": "rhf"
			},
			{
				"type": "unocc",
				"energy": 0.04473,
				"method": "rhf"
			}
		],
		"cosmo_sigma_profile": { 
			"0.0": 0.0,
			"0.0": 0.0,
			"0.0": 0.0,
			"0.0": 0.0,
			"0.0": 0.0,
			"0.0": 0.0,
			"0.0": 0.0,
			"0.0": 0.0,
			"0.0": 0.0,
			"0.0": 0.0,
			"0.0": 0.0,
			"0.0": 0.0,
			"0.0": 0.0,
			"0.0": 0.0,
			"0.0": 0.0,
			"0.0": 0.0,
			"0.0": 0.0,
			"0.0": 0.0,
			"0.0": 0.0,
			"0.0": 0.0,
			"0.0": 0.0,
			"0.0": 0.0,
			"0.0": 0.0,
			"0.0": 0.0,
			"0.0": 0.0,
			"0.0": 0.0,
			"0.0": 0.0,
			"0.0": 0.0,
			"0.0": 0.0,
			"0.0": 0.0,
			"0.0": 0.0,
			"0.0": 0.0,
			"0.0": 0.0,
			"0.0": 0.0,
			"0.0": 0.0,
			"0.0": 0.0,
			"0.0": 0.0,
			"0.0": 0.0,
			"0.0": 0.0,
			"0.0": 0.0,
			"0.0": 0.0,
			"0.0": 0.0,
			"0.0": 0.0,
			"0.0": 0.0,
			"0.0": 0.0,
			"0.0": 0.0,
			"0.0": 0.0,
			"0.0": 0.0,
			"0.0": 0.0,
			"0.0": 0.0,
			"0.0": 0.0
		}
	}
}
