{
	 "smiles": "COC1=CC=CC(=C1)[N+]([O-])=O", 
	 "Tm": 311.35, 
	 "num_atms": 18, 
	 "gaussian": { 
		 "optdone": 1, 
		 "sigma_profile": "yes", 
		 "theory": "DFT", 
		 "functional": "B3LYP", 
		 "basiset": "6-31G**", 
		 "properties": { 
			 "R2extent": 2141.5685, 
			 "electric_dipole_moment_norm": 4.05601196374, 
			 "electric_quadrupole_moment_norm": 17.4150846613, 
			 "total_energy": -551.273993623, 
			 "HOMO_LUMO_gap": 0.15675, 
			 "cosmo_polarized_energy": -8.59, 
			 "cosmo_cavitation_energy": 22.85, 
			 "cosmo_dispersion_energy": -16.91, 
			 "cosmo_repulsion_energy": 1.36, 
			 "cosmo_total_nonelectrostatic_energy": 7.29, 
			 "SMD_solvation_energy": 7.1 
		},
		"coords": [
			{
				"x": -3.0192391286,
				"y": 0.4796068526,
				"z": -0.3495937187,
				"element": "C" 
			},
			{
				"x": -2.0265939183,
				"y": -0.1658755679,
				"z": -1.1378366666,
				"element": "O" 
			},
			{
				"x": -0.8798866865,
				"y": -0.5652410954,
				"z": -0.5290951209,
				"element": "C" 
			},
			{
				"x": 0.0656742841,
				"y": -1.1974870932,
				"z": -1.3563679229,
				"element": "C" 
			},
			{
				"x": 1.2723662371,
				"y": -1.6439948979,
				"z": -0.8306638544,
				"element": "C" 
			},
			{
				"x": 1.569775829,
				"y": -1.4748630227,
				"z": 0.524268365,
				"element": "C" 
			},
			{
				"x": 0.6182383756,
				"y": -0.8471694617,
				"z": 1.3190175169,
				"element": "C" 
			},
			{
				"x": -0.6044132331,
				"y": -0.3851031762,
				"z": 0.8286691605,
				"element": "C" 
			},
			{
				"x": 0.9037830802,
				"y": -0.6546471475,
				"z": 2.7520765436,
				"element": "N" 
			},
			{
				"x": 0.0451156361,
				"y": -0.0975007081,
				"z": 3.4366914457,
				"element": "O" 
			},
			{
				"x": 1.9813121578,
				"y": -1.0654712366,
				"z": 3.180308816,
				"element": "O" 
			},
			{
				"x": -2.6401345218,
				"y": 1.410094132,
				"z": 0.0907916271,
				"element": "H" 
			},
			{
				"x": -3.3839804706,
				"y": -0.1747139266,
				"z": 0.4518475918,
				"element": "H" 
			},
			{
				"x": -3.8387937704,
				"y": 0.7090049244,
				"z": -1.0310901407,
				"element": "H" 
			},
			{
				"x": -0.1748458696,
				"y": -1.3239199005,
				"z": -2.4065703477,
				"element": "H" 
			},
			{
				"x": 1.9925226788,
				"y": -2.1302172556,
				"z": -1.4812818523,
				"element": "H" 
			},
			{
				"x": 2.4998435084,
				"y": -1.8116757971,
				"z": 0.9619401817,
				"element": "H" 
			},
			{
				"x": -1.2911441881,
				"y": 0.092974378,
				"z": 1.5121883758,
				"element": "H" 
			}
		],
		 "valence_orbital": [ 
			{
				"type": "occ",
				"energy": -0.30806,
				"method": "rhf"
			},
			{
				"type": "occ",
				"energy": -0.30527,
				"method": "rhf"
			},
			{
				"type": "occ",
				"energy": -0.28894,
				"method": "rhf"
			},
			{
				"type": "occ",
				"energy": -0.27967,
				"method": "rhf"
			},
			{
				"type": "occ",
				"energy": -0.24394,
				"method": "rhf"
			},
			{
				"type": "unocc",
				"energy": -0.08719,
				"method": "rhf"
			},
			{
				"type": "unocc",
				"energy": -0.01494,
				"method": "rhf"
			},
			{
				"type": "unocc",
				"energy": 0.00663,
				"method": "rhf"
			},
			{
				"type": "unocc",
				"energy": 0.07818,
				"method": "rhf"
			},
			{
				"type": "unocc",
				"energy": 0.0947,
				"method": "rhf"
			}
		],
		"cosmo_sigma_profile": { 
			"-0.025": 0.0,
			"-0.024": 0.0,
			"-0.023": 0.0,
			"-0.022": 0.0,
			"-0.021": 0.0,
			"-0.02": 0.0,
			"-0.019": 0.0,
			"-0.018": 0.0,
			"-0.017": 0.0,
			"-0.016": 0.0,
			"-0.015": 0.0,
			"-0.014": 0.0,
			"-0.013": 0.0,
			"-0.012": 0.0,
			"-0.011": 0.0,
			"-0.01": 0.0,
			"-0.009": 0.0,
			"-0.008": 1.04145872084,
			"-0.007": 8.65315510443,
			"-0.006": 15.1829650522,
			"-0.005": 15.3106254978,
			"-0.004": 14.5035200554,
			"-0.003": 13.3653524062,
			"-0.002": 9.73600024037,
			"-0.001": 11.2678727476,
			"0.0": 13.127784241,
			"0.001": 16.976710455,
			"0.002": 14.2918718411,
			"0.003": 8.07835049741,
			"0.004": 4.50276922349,
			"0.005": 4.50778572317,
			"0.006": 4.75597384845,
			"0.007": 8.73483210308,
			"0.008": 9.41554396325,
			"0.009": 5.90821233466,
			"0.01": 3.31265746508,
			"0.011": 0.201985485537,
			"0.012": 0.0,
			"0.013": 0.0,
			"0.014": 0.0,
			"0.015": 0.0,
			"0.016": 0.0,
			"0.017": 0.0,
			"0.018": 0.0,
			"0.019": 0.0,
			"0.02": 0.0,
			"0.021": 0.0,
			"0.022": 0.0,
			"0.023": 0.0,
			"0.024": 0.0,
			"0.025": 0.0
		}
	}
}
