{
	 "smiles": "CC(C)(C)C1=CC=C(C=C1)C1CCC2(CC3=CC=C(OS(=O)(=O)C(F)(F)F)C=C3C2)CC1", 
	 "Tm": 396.15, 
	 "num_atms": 61, 
	 "gaussian": { 
		 "optdone": 1, 
		 "sigma_profile": "yes", 
		 "theory": "DFT", 
		 "functional": "B3LYP", 
		 "basiset": "6-31G**", 
		 "properties": { 
			 "R2extent": 31909.7996, 
			 "electric_dipole_moment_norm": 3.59318038929, 
			 "electric_quadrupole_moment_norm": 16.2062727106, 
			 "total_energy": -1893.46299378, 
			 "HOMO_LUMO_gap": 0.20901, 
			 "cosmo_polarized_energy": -9.84, 
			 "cosmo_cavitation_energy": 62.54, 
			 "cosmo_dispersion_energy": -42.7, 
			 "cosmo_repulsion_energy": 3.07, 
			 "cosmo_total_nonelectrostatic_energy": 22.9, 
			 "SMD_solvation_energy": 9.51 
		},
		"coords": [
			{
				"x": 1.282346249,
				"y": 7.159239915,
				"z": 0.584701066,
				"element": "C" 
			},
			{
				"x": 1.0966217111,
				"y": 6.5595557429,
				"z": -0.8219692214,
				"element": "C" 
			},
			{
				"x": 0.4310175183,
				"y": 7.6307206507,
				"z": -1.7186221962,
				"element": "C" 
			},
			{
				"x": 2.4949667886,
				"y": 6.2160819637,
				"z": -1.3885627606,
				"element": "C" 
			},
			{
				"x": 0.2257233377,
				"y": 5.2908939695,
				"z": -0.8053939487,
				"element": "C" 
			},
			{
				"x": -0.0546539739,
				"y": 4.609527403,
				"z": -2.0030331779,
				"element": "C" 
			},
			{
				"x": -0.8341754278,
				"y": 3.4583488157,
				"z": -2.0245352672,
				"element": "C" 
			},
			{
				"x": -1.380620312,
				"y": 2.9118142939,
				"z": -0.8501222391,
				"element": "C" 
			},
			{
				"x": -1.1148349749,
				"y": 3.5978486244,
				"z": 0.3389325179,
				"element": "C" 
			},
			{
				"x": -0.3293118688,
				"y": 4.7558485008,
				"z": 0.3611111716,
				"element": "C" 
			},
			{
				"x": -2.2721809051,
				"y": 1.6687856345,
				"z": -0.9423352326,
				"element": "C" 
			},
			{
				"x": -2.8246615964,
				"y": 1.1465113298,
				"z": 0.402176497,
				"element": "C" 
			},
			{
				"x": -1.778870678,
				"y": 0.4089207461,
				"z": 1.2578398588,
				"element": "C" 
			},
			{
				"x": -1.0893878515,
				"y": -0.7519881044,
				"z": 0.5169205115,
				"element": "C" 
			},
			{
				"x": 0.0738211423,
				"y": -1.3601912672,
				"z": 1.3620300029,
				"element": "C" 
			},
			{
				"x": 0.1048462098,
				"y": -2.8183780022,
				"z": 0.9695615452,
				"element": "C" 
			},
			{
				"x": 1.1119068545,
				"y": -3.7639849041,
				"z": 1.1562723685,
				"element": "C" 
			},
			{
				"x": 0.9108738921,
				"y": -5.0765719368,
				"z": 0.7200092446,
				"element": "C" 
			},
			{
				"x": -0.298832099,
				"y": -5.4042749555,
				"z": 0.1130113241,
				"element": "C" 
			},
			{
				"x": -0.5199409872,
				"y": -6.7521974267,
				"z": -0.2686126007,
				"element": "O" 
			},
			{
				"x": -0.1208869153,
				"y": -7.1528412162,
				"z": -1.8124075163,
				"element": "S" 
			},
			{
				"x": -1.0466631717,
				"y": -6.5417638646,
				"z": -2.755001118,
				"element": "O" 
			},
			{
				"x": 1.3199185942,
				"y": -7.0798725298,
				"z": -2.0042680597,
				"element": "O" 
			},
			{
				"x": -0.5964915253,
				"y": -8.9476008488,
				"z": -1.6040920879,
				"element": "C" 
			},
			{
				"x": -1.8852580343,
				"y": -9.0440756379,
				"z": -1.2919106501,
				"element": "F" 
			},
			{
				"x": 0.1448752882,
				"y": -9.5076425339,
				"z": -0.6531589343,
				"element": "F" 
			},
			{
				"x": -0.3685879856,
				"y": -9.5541451352,
				"z": -2.7685752783,
				"element": "F" 
			},
			{
				"x": -1.3208315267,
				"y": -4.4774112299,
				"z": -0.0866901503,
				"element": "C" 
			},
			{
				"x": -1.1030943376,
				"y": -3.1735719016,
				"z": 0.3517234317,
				"element": "C" 
			},
			{
				"x": -2.0292225404,
				"y": -1.9811043662,
				"z": 0.279676715,
				"element": "C" 
			},
			{
				"x": -0.5339538508,
				"y": -0.2213292519,
				"z": -0.8282985396,
				"element": "C" 
			},
			{
				"x": -1.5900937165,
				"y": 0.490967678,
				"z": -1.6852428875,
				"element": "C" 
			},
			{
				"x": 0.3269578421,
				"y": 7.4534424632,
				"z": 1.0316249938,
				"element": "H" 
			},
			{
				"x": 1.7765159182,
				"y": 6.4575740236,
				"z": 1.2648061916,
				"element": "H" 
			},
			{
				"x": 1.9079485489,
				"y": 8.0557823399,
				"z": 0.5242453981,
				"element": "H" 
			},
			{
				"x": 1.0430955273,
				"y": 8.5394644192,
				"z": -1.7469011274,
				"element": "H" 
			},
			{
				"x": -0.5594693148,
				"y": 7.899786079,
				"z": -1.3371502128,
				"element": "H" 
			},
			{
				"x": 0.307959685,
				"y": 7.2808963876,
				"z": -2.7479062913,
				"element": "H" 
			},
			{
				"x": 3.1271347974,
				"y": 7.1110187322,
				"z": -1.4155608897,
				"element": "H" 
			},
			{
				"x": 2.4351907271,
				"y": 5.8201662144,
				"z": -2.4067363209,
				"element": "H" 
			},
			{
				"x": 2.9951568683,
				"y": 5.4654241324,
				"z": -0.7677686364,
				"element": "H" 
			},
			{
				"x": 0.3384768814,
				"y": 4.9852855193,
				"z": -2.9436355459,
				"element": "H" 
			},
			{
				"x": -1.0320929022,
				"y": 2.9825832324,
				"z": -2.9816989005,
				"element": "H" 
			},
			{
				"x": -1.5258965165,
				"y": 3.2446751958,
				"z": 1.2783882187,
				"element": "H" 
			},
			{
				"x": -0.159424358,
				"y": 5.2376043315,
				"z": 1.3175698138,
				"element": "H" 
			},
			{
				"x": -3.1386661146,
				"y": 1.9672232527,
				"z": -1.5502355579,
				"element": "H" 
			},
			{
				"x": -3.6477334929,
				"y": 0.4559043289,
				"z": 0.1767723098,
				"element": "H" 
			},
			{
				"x": -3.2732556685,
				"y": 1.9638057049,
				"z": 0.9780974683,
				"element": "H" 
			},
			{
				"x": -1.0028742514,
				"y": 1.1131959438,
				"z": 1.581105968,
				"element": "H" 
			},
			{
				"x": -2.2534639559,
				"y": 0.0309069373,
				"z": 2.1731039371,
				"element": "H" 
			},
			{
				"x": -0.1462803185,
				"y": -1.2658209831,
				"z": 2.435793255,
				"element": "H" 
			},
			{
				"x": 1.0249383957,
				"y": -0.843830933,
				"z": 1.1896885513,
				"element": "H" 
			},
			{
				"x": 2.0509478508,
				"y": -3.4918563272,
				"z": 1.6300584376,
				"element": "H" 
			},
			{
				"x": 1.6727598001,
				"y": -5.8384926345,
				"z": 0.8390618756,
				"element": "H" 
			},
			{
				"x": -2.2415838455,
				"y": -4.7833779465,
				"z": -0.5719494361,
				"element": "H" 
			},
			{
				"x": -2.7841391175,
				"y": -2.0435411735,
				"z": 1.0770739054,
				"element": "H" 
			},
			{
				"x": -2.579068466,
				"y": -1.9322689265,
				"z": -0.6650995361,
				"element": "H" 
			},
			{
				"x": 0.2776361034,
				"y": 0.4853874551,
				"z": -0.6107430426,
				"element": "H" 
			},
			{
				"x": -0.0861796163,
				"y": -1.0455854343,
				"z": -1.3971470758,
				"element": "H" 
			},
			{
				"x": -2.3702151264,
				"y": -0.220235143,
				"z": -1.9855172978,
				"element": "H" 
			},
			{
				"x": -1.1286391876,
				"y": 0.8361626532,
				"z": -2.6156748414,
				"element": "H" 
			}
		],
		 "valence_orbital": [ 
			{
				"type": "occ",
				"energy": -0.29437,
				"method": "rhf"
			},
			{
				"type": "occ",
				"energy": -0.25969,
				"method": "rhf"
			},
			{
				"type": "occ",
				"energy": -0.24466,
				"method": "rhf"
			},
			{
				"type": "occ",
				"energy": -0.24434,
				"method": "rhf"
			},
			{
				"type": "occ",
				"energy": -0.22995,
				"method": "rhf"
			},
			{
				"type": "unocc",
				"energy": -0.02094,
				"method": "rhf"
			},
			{
				"type": "unocc",
				"energy": -0.01448,
				"method": "rhf"
			},
			{
				"type": "unocc",
				"energy": 0.00125,
				"method": "rhf"
			},
			{
				"type": "unocc",
				"energy": 0.00233,
				"method": "rhf"
			},
			{
				"type": "unocc",
				"energy": 0.02228,
				"method": "rhf"
			}
		],
		"cosmo_sigma_profile": { 
			"-0.025": 0.0,
			"-0.024": 0.0,
			"-0.023": 0.0,
			"-0.022": 0.0,
			"-0.021": 0.0,
			"-0.02": 0.0,
			"-0.019": 0.0,
			"-0.018": 0.0,
			"-0.017": 0.0,
			"-0.016": 0.0,
			"-0.015": 0.0,
			"-0.014": 0.0,
			"-0.013": 0.0,
			"-0.012": 0.0,
			"-0.011": 0.0,
			"-0.01": 0.0,
			"-0.009": 0.0,
			"-0.008": 0.211218587813,
			"-0.007": 2.85687862187,
			"-0.006": 5.41684752738,
			"-0.005": 10.7280530862,
			"-0.004": 24.8031936661,
			"-0.003": 51.3796828623,
			"-0.002": 72.5831332558,
			"-0.001": 68.273477666,
			"0.0": 75.7492263303,
			"0.001": 62.1017198167,
			"0.002": 30.361897893,
			"0.003": 22.2107134946,
			"0.004": 19.2791084054,
			"0.005": 8.6437670083,
			"0.006": 10.7904597105,
			"0.007": 11.7283812035,
			"0.008": 11.3285631542,
			"0.009": 2.72862412096,
			"0.01": 0.0,
			"0.011": 0.0,
			"0.012": 0.0,
			"0.013": 0.0,
			"0.014": 0.0,
			"0.015": 0.0,
			"0.016": 0.0,
			"0.017": 0.0,
			"0.018": 0.0,
			"0.019": 0.0,
			"0.02": 0.0,
			"0.021": 0.0,
			"0.022": 0.0,
			"0.023": 0.0,
			"0.024": 0.0,
			"0.025": 0.0
		}
	}
}
