{
	 "smiles": "NC(=S)C1=CC=C(C=C1)C1SCCS1", 
	 "Tm": 447.15, 
	 "num_atms": 25, 
	 "gaussian": { 
		 "optdone": 1, 
		 "sigma_profile": "yes", 
		 "theory": "DFT", 
		 "functional": "B3LYP", 
		 "basiset": "6-31G**", 
		 "properties": { 
			 "R2extent": 5557.9977, 
			 "electric_dipole_moment_norm": 4.80727511486, 
			 "electric_quadrupole_moment_norm": 27.9766905949, 
			 "total_energy": -1637.01684524, 
			 "HOMO_LUMO_gap": 0.14281, 
			 "cosmo_polarized_energy": -19.33, 
			 "cosmo_cavitation_energy": 32.79, 
			 "cosmo_dispersion_energy": -25.22, 
			 "cosmo_repulsion_energy": 1.86, 
			 "cosmo_total_nonelectrostatic_energy": 9.43, 
			 "SMD_solvation_energy": 3.3 
		},
		"coords": [
			{
				"x": 2.7913838795,
				"y": 3.7702502682,
				"z": -1.3559926801,
				"element": "N" 
			},
			{
				"x": 1.9560127796,
				"y": 3.5608776861,
				"z": -0.3113578284,
				"element": "C" 
			},
			{
				"x": 1.7881167664,
				"y": 4.6866664555,
				"z": 0.9086360556,
				"element": "S" 
			},
			{
				"x": 1.1923937819,
				"y": 2.2831779819,
				"z": -0.3622521066,
				"element": "C" 
			},
			{
				"x": 0.8356631221,
				"y": 1.6983311439,
				"z": -1.587493018,
				"element": "C" 
			},
			{
				"x": 0.1210875163,
				"y": 0.5014006498,
				"z": -1.6208600864,
				"element": "C" 
			},
			{
				"x": -0.2449893993,
				"y": -0.1473526106,
				"z": -0.4370095645,
				"element": "C" 
			},
			{
				"x": 0.1088224697,
				"y": 0.4396783021,
				"z": 0.7879754962,
				"element": "C" 
			},
			{
				"x": 0.8061430837,
				"y": 1.6389022251,
				"z": 0.8260198767,
				"element": "C" 
			},
			{
				"x": -1.0150583631,
				"y": -1.4459435569,
				"z": -0.5078859239,
				"element": "C" 
			},
			{
				"x": -2.6746130036,
				"y": -1.2890366873,
				"z": 0.2863423117,
				"element": "S" 
			},
			{
				"x": -2.8141921089,
				"y": -3.0656551547,
				"z": 0.6971996548,
				"element": "C" 
			},
			{
				"x": -1.4937902164,
				"y": -3.4959311465,
				"z": 1.3301297197,
				"element": "C" 
			},
			{
				"x": -0.1110982276,
				"y": -2.8861044521,
				"z": 0.2799869871,
				"element": "S" 
			},
			{
				"x": 3.0593693953,
				"y": 3.0150716236,
				"z": -1.9697018157,
				"element": "H" 
			},
			{
				"x": 3.3511776889,
				"y": 4.6104501066,
				"z": -1.353483883,
				"element": "H" 
			},
			{
				"x": 1.0736973729,
				"y": 2.1985476714,
				"z": -2.5215663281,
				"element": "H" 
			},
			{
				"x": -0.1614972696,
				"y": 0.0729982222,
				"z": -2.5789264768,
				"element": "H" 
			},
			{
				"x": -0.1678374323,
				"y": -0.0544322834,
				"z": 1.7135350655,
				"element": "H" 
			},
			{
				"x": 1.0683531918,
				"y": 2.096611895,
				"z": 1.7734007193,
				"element": "H" 
			},
			{
				"x": -1.159207974,
				"y": -1.7165328998,
				"z": -1.5557076152,
				"element": "H" 
			},
			{
				"x": -3.0310025586,
				"y": -3.6482510364,
				"z": -0.20261315,
				"element": "H" 
			},
			{
				"x": -3.648917277,
				"y": -3.1730867776,
				"z": 1.3968361569,
				"element": "H" 
			},
			{
				"x": -1.396933774,
				"y": -3.089785149,
				"z": 2.3396283189,
				"element": "H" 
			},
			{
				"x": -1.4106834436,
				"y": -4.5861524772,
				"z": 1.3754601144,
				"element": "H" 
			}
		],
		 "valence_orbital": [ 
			{
				"type": "occ",
				"energy": -0.2646,
				"method": "rhf"
			},
			{
				"type": "occ",
				"energy": -0.23739,
				"method": "rhf"
			},
			{
				"type": "occ",
				"energy": -0.23314,
				"method": "rhf"
			},
			{
				"type": "occ",
				"energy": -0.22656,
				"method": "rhf"
			},
			{
				"type": "occ",
				"energy": -0.20681,
				"method": "rhf"
			},
			{
				"type": "unocc",
				"energy": -0.064,
				"method": "rhf"
			},
			{
				"type": "unocc",
				"energy": -0.01599,
				"method": "rhf"
			},
			{
				"type": "unocc",
				"energy": -0.00746,
				"method": "rhf"
			},
			{
				"type": "unocc",
				"energy": 0.00508,
				"method": "rhf"
			},
			{
				"type": "unocc",
				"energy": 0.05032,
				"method": "rhf"
			}
		],
		"cosmo_sigma_profile": { 
			"-0.025": 0.0,
			"-0.024": 0.0,
			"-0.023": 0.0,
			"-0.022": 0.0,
			"-0.021": 0.0,
			"-0.02": 0.0,
			"-0.019": 0.0,
			"-0.018": 0.0,
			"-0.017": 0.0,
			"-0.016": 0.239250456779,
			"-0.015": 1.71199719021,
			"-0.014": 2.36928102412,
			"-0.013": 2.56039543915,
			"-0.012": 2.6194643902,
			"-0.011": 2.45126403212,
			"-0.01": 1.94680365141,
			"-0.009": 1.85973940451,
			"-0.008": 3.89990809162,
			"-0.007": 10.6268629823,
			"-0.006": 14.1216431807,
			"-0.005": 19.8520580608,
			"-0.004": 18.1103391551,
			"-0.003": 17.7783146438,
			"-0.002": 12.8870309103,
			"-0.001": 12.227776753,
			"0.0": 14.1829905964,
			"0.001": 14.9447378068,
			"0.002": 14.5322739206,
			"0.003": 19.430052712,
			"0.004": 16.6898142504,
			"0.005": 12.0155549981,
			"0.006": 9.39325284927,
			"0.007": 9.32655249335,
			"0.008": 10.8054339001,
			"0.009": 10.1521468475,
			"0.01": 5.22650347119,
			"0.011": 3.58441870061,
			"0.012": 1.60595227751,
			"0.013": 0.0212708770987,
			"0.014": 0.0,
			"0.015": 0.0,
			"0.016": 0.0,
			"0.017": 0.0,
			"0.018": 0.0,
			"0.019": 0.0,
			"0.02": 0.0,
			"0.021": 0.0,
			"0.022": 0.0,
			"0.023": 0.0,
			"0.024": 0.0,
			"0.025": 0.0
		}
	}
}
