{
	 "smiles": "OC(=O)C1=CC(=CC=C1)S(=O)(=O)NC1=C(C=CC=C1)C1=CC=CC=C1", 
	 "Tm": 438.15, 
	 "num_atms": 40, 
	 "gaussian": { 
		 "optdone": 1, 
		 "sigma_profile": "yes", 
		 "theory": "DFT", 
		 "functional": "B3LYP", 
		 "basiset": "6-31G**", 
		 "properties": { 
			 "R2extent": 7713.1214, 
			 "electric_dipole_moment_norm": 5.52552282142, 
			 "electric_quadrupole_moment_norm": 26.8694973961, 
			 "total_energy": -1486.83355752, 
			 "HOMO_LUMO_gap": 0.17194, 
			 "cosmo_polarized_energy": -25.31, 
			 "cosmo_cavitation_energy": 45.18, 
			 "cosmo_dispersion_energy": -29.64, 
			 "cosmo_repulsion_energy": 2.17, 
			 "cosmo_total_nonelectrostatic_energy": 17.71, 
			 "SMD_solvation_energy": 7.56 
		},
		"coords": [
			{
				"x": -0.348785119,
				"y": 4.3260093703,
				"z": -0.7478664666,
				"element": "O" 
			},
			{
				"x": 0.3863601158,
				"y": 3.3002892131,
				"z": -1.2570925061,
				"element": "C" 
			},
			{
				"x": 1.5809370287,
				"y": 3.4130376821,
				"z": -1.3883293036,
				"element": "O" 
			},
			{
				"x": -0.3723300728,
				"y": 2.0569620974,
				"z": -1.6173585615,
				"element": "C" 
			},
			{
				"x": 0.3297926311,
				"y": 0.8470511129,
				"z": -1.6040670648,
				"element": "C" 
			},
			{
				"x": -0.355854785,
				"y": -0.3334501973,
				"z": -1.8699235565,
				"element": "C" 
			},
			{
				"x": -1.70984503,
				"y": -0.3358903976,
				"z": -2.2120196074,
				"element": "C" 
			},
			{
				"x": -2.3908467565,
				"y": 0.8790630342,
				"z": -2.2769960008,
				"element": "C" 
			},
			{
				"x": -1.7301525268,
				"y": 2.0678954285,
				"z": -1.9664959613,
				"element": "C" 
			},
			{
				"x": 0.5163262287,
				"y": -1.8990783911,
				"z": -1.7673141676,
				"element": "S" 
			},
			{
				"x": -0.3337221856,
				"y": -2.9254126737,
				"z": -2.3821473961,
				"element": "O" 
			},
			{
				"x": 1.8942023943,
				"y": -1.6663688058,
				"z": -2.2003658145,
				"element": "O" 
			},
			{
				"x": 0.4793124521,
				"y": -2.2668935807,
				"z": -0.0936791486,
				"element": "N" 
			},
			{
				"x": 1.6535588239,
				"y": -2.0439484952,
				"z": 0.7138209467,
				"element": "C" 
			},
			{
				"x": 1.6978600546,
				"y": -0.9687801963,
				"z": 1.6287786719,
				"element": "C" 
			},
			{
				"x": 2.8738696522,
				"y": -0.8073434733,
				"z": 2.3842645254,
				"element": "C" 
			},
			{
				"x": 3.9569798513,
				"y": -1.6721039482,
				"z": 2.2540789594,
				"element": "C" 
			},
			{
				"x": 3.8948164629,
				"y": -2.7338009108,
				"z": 1.3512711182,
				"element": "C" 
			},
			{
				"x": 2.7476501745,
				"y": -2.9082191034,
				"z": 0.5828345969,
				"element": "C" 
			},
			{
				"x": 0.5789504193,
				"y": -0.0094648843,
				"z": 1.8497395986,
				"element": "C" 
			},
			{
				"x": -0.7415400299,
				"y": -0.4407665787,
				"z": 2.0598379869,
				"element": "C" 
			},
			{
				"x": -1.7557689644,
				"y": 0.4758950217,
				"z": 2.3320647998,
				"element": "C" 
			},
			{
				"x": -1.4741035941,
				"y": 1.8428127579,
				"z": 2.3985436899,
				"element": "C" 
			},
			{
				"x": -0.1673385094,
				"y": 2.2870093023,
				"z": 2.1888383962,
				"element": "C" 
			},
			{
				"x": 0.8482051106,
				"y": 1.3684653435,
				"z": 1.9180748225,
				"element": "C" 
			},
			{
				"x": -1.2342632983,
				"y": 4.0125180449,
				"z": -0.5158599432,
				"element": "H" 
			},
			{
				"x": 1.3901825523,
				"y": 0.8475191026,
				"z": -1.3806046143,
				"element": "H" 
			},
			{
				"x": -2.2036165795,
				"y": -1.274521313,
				"z": -2.4371285999,
				"element": "H" 
			},
			{
				"x": -3.4362272611,
				"y": 0.8988560302,
				"z": -2.5682691623,
				"element": "H" 
			},
			{
				"x": -2.2713560082,
				"y": 3.0082122882,
				"z": -2.0350548206,
				"element": "H" 
			},
			{
				"x": 0.1108746051,
				"y": -3.2136044285,
				"z": -0.0364326111,
				"element": "H" 
			},
			{
				"x": 2.9173697337,
				"y": 0.0008817989,
				"z": 3.1074993082,
				"element": "H" 
			},
			{
				"x": 4.8437668328,
				"y": -1.5207001237,
				"z": 2.8624050827,
				"element": "H" 
			},
			{
				"x": 4.732856304,
				"y": -3.4145686703,
				"z": 1.2386214972,
				"element": "H" 
			},
			{
				"x": 2.6940242994,
				"y": -3.711843247,
				"z": -0.1448790029,
				"element": "H" 
			},
			{
				"x": -0.969088105,
				"y": -1.4998153337,
				"z": 2.0209013986,
				"element": "H" 
			},
			{
				"x": -2.7680181875,
				"y": 0.1201587765,
				"z": 2.5027729353,
				"element": "H" 
			},
			{
				"x": -2.2659075039,
				"y": 2.5530648009,
				"z": 2.6210517935,
				"element": "H" 
			},
			{
				"x": 0.0663985681,
				"y": 3.3470006521,
				"z": 2.2302181125,
				"element": "H" 
			},
			{
				"x": 1.8581702217,
				"y": 1.7248728946,
				"z": 1.7381660692,
				"element": "H" 
			}
		],
		 "valence_orbital": [ 
			{
				"type": "occ",
				"energy": -0.27478,
				"method": "rhf"
			},
			{
				"type": "occ",
				"energy": -0.27288,
				"method": "rhf"
			},
			{
				"type": "occ",
				"energy": -0.25953,
				"method": "rhf"
			},
			{
				"type": "occ",
				"energy": -0.25649,
				"method": "rhf"
			},
			{
				"type": "occ",
				"energy": -0.23677,
				"method": "rhf"
			},
			{
				"type": "unocc",
				"energy": -0.06483,
				"method": "rhf"
			},
			{
				"type": "unocc",
				"energy": -0.04815,
				"method": "rhf"
			},
			{
				"type": "unocc",
				"energy": -0.03549,
				"method": "rhf"
			},
			{
				"type": "unocc",
				"energy": -0.02101,
				"method": "rhf"
			},
			{
				"type": "unocc",
				"energy": -0.00917,
				"method": "rhf"
			}
		],
		"cosmo_sigma_profile": { 
			"-0.025": 0.0,
			"-0.024": 0.0,
			"-0.023": 0.0,
			"-0.022": 0.0,
			"-0.021": 0.0,
			"-0.02": 0.0,
			"-0.019": 0.0,
			"-0.018": 0.59739790653,
			"-0.017": 0.824941969933,
			"-0.016": 0.602940671561,
			"-0.015": 1.15908117142,
			"-0.014": 1.7463954168,
			"-0.013": 1.66780625791,
			"-0.012": 1.61468248146,
			"-0.011": 2.92224908374,
			"-0.01": 2.71565461566,
			"-0.009": 2.94513310794,
			"-0.008": 7.10989273712,
			"-0.007": 10.0702490932,
			"-0.006": 17.8861894243,
			"-0.005": 26.9426617722,
			"-0.004": 28.1125683594,
			"-0.003": 25.7803398991,
			"-0.002": 20.2134809894,
			"-0.001": 23.1087445618,
			"0.0": 24.5681196018,
			"0.001": 23.5549475053,
			"0.002": 21.0890632381,
			"0.003": 21.0606398855,
			"0.004": 22.2810358985,
			"0.005": 15.0223428554,
			"0.006": 7.85655823338,
			"0.007": 5.84700754556,
			"0.008": 5.9023500692,
			"0.009": 8.62611808409,
			"0.01": 13.9034560469,
			"0.011": 11.7565024462,
			"0.012": 3.70993667339,
			"0.013": 0.667015255242,
			"0.014": 0.0,
			"0.015": 0.0,
			"0.016": 0.0,
			"0.017": 0.0,
			"0.018": 0.0,
			"0.019": 0.0,
			"0.02": 0.0,
			"0.021": 0.0,
			"0.022": 0.0,
			"0.023": 0.0,
			"0.024": 0.0,
			"0.025": 0.0
		}
	}
}
