{
	 "smiles": "ClC1=C(SC2=C1C=CC=C2)C=O", 
	 "Tm": 378.15, 
	 "num_atms": 17, 
	 "gaussian": { 
		 "optdone": 1, 
		 "sigma_profile": "yes", 
		 "theory": "DFT", 
		 "functional": "B3LYP", 
		 "basiset": "6-31G**", 
		 "properties": { 
			 "R2extent": 3452.1187, 
			 "electric_dipole_moment_norm": 4.06466149267, 
			 "electric_quadrupole_moment_norm": 10.0576387393, 
			 "total_energy": -1279.56415329, 
			 "HOMO_LUMO_gap": 0.15038, 
			 "cosmo_polarized_energy": -7.51, 
			 "cosmo_cavitation_energy": 25.05, 
			 "cosmo_dispersion_energy": -19.1, 
			 "cosmo_repulsion_energy": 1.45, 
			 "cosmo_total_nonelectrostatic_energy": 7.41, 
			 "SMD_solvation_energy": 4.57 
		},
		"coords": [
			{
				"x": 3.6615537475,
				"y": -1.2048497468,
				"z": 1.3638237916,
				"element": "Cl" 
			},
			{
				"x": 2.353725667,
				"y": -0.1790675078,
				"z": 0.8427637904,
				"element": "C" 
			},
			{
				"x": 2.4567557925,
				"y": 1.1834099367,
				"z": 0.7124914249,
				"element": "C" 
			},
			{
				"x": 0.9475950067,
				"y": 1.904511154,
				"z": 0.1661517675,
				"element": "S" 
			},
			{
				"x": 0.1812278562,
				"y": 0.3291182683,
				"z": 0.1191668032,
				"element": "C" 
			},
			{
				"x": 1.0625421656,
				"y": -0.7102967373,
				"z": 0.5116110568,
				"element": "C" 
			},
			{
				"x": 0.6074667328,
				"y": -2.0425473986,
				"z": 0.5308424597,
				"element": "C" 
			},
			{
				"x": -0.7006504272,
				"y": -2.3116073968,
				"z": 0.1634693297,
				"element": "C" 
			},
			{
				"x": -1.5687752171,
				"y": -1.2711493357,
				"z": -0.2250659445,
				"element": "C" 
			},
			{
				"x": -1.140028176,
				"y": 0.0496995948,
				"z": -0.2510082599,
				"element": "C" 
			},
			{
				"x": 3.6088262531,
				"y": 2.0491673915,
				"z": 0.9614285879,
				"element": "C" 
			},
			{
				"x": 3.5819569915,
				"y": 3.2585975297,
				"z": 0.8104515389,
				"element": "O" 
			},
			{
				"x": 1.2816570088,
				"y": -2.8379424681,
				"z": 0.8310584281,
				"element": "H" 
			},
			{
				"x": -1.0645449564,
				"y": -3.3342124314,
				"z": 0.173792538,
				"element": "H" 
			},
			{
				"x": -2.5902017921,
				"y": -1.5058418187,
				"z": -0.5089884677,
				"element": "H" 
			},
			{
				"x": -1.8123797868,
				"y": 0.8473466338,
				"z": -0.5509304815,
				"element": "H" 
			},
			{
				"x": 4.521273134,
				"y": 1.5240643324,
				"z": 1.3030416369,
				"element": "H" 
			}
		],
		 "valence_orbital": [ 
			{
				"type": "occ",
				"energy": -0.335,
				"method": "rhf"
			},
			{
				"type": "occ",
				"energy": -0.29394,
				"method": "rhf"
			},
			{
				"type": "occ",
				"energy": -0.26546,
				"method": "rhf"
			},
			{
				"type": "occ",
				"energy": -0.25714,
				"method": "rhf"
			},
			{
				"type": "occ",
				"energy": -0.23669,
				"method": "rhf"
			},
			{
				"type": "unocc",
				"energy": -0.08631,
				"method": "rhf"
			},
			{
				"type": "unocc",
				"energy": -0.02194,
				"method": "rhf"
			},
			{
				"type": "unocc",
				"energy": -0.00681,
				"method": "rhf"
			},
			{
				"type": "unocc",
				"energy": -0.00217,
				"method": "rhf"
			},
			{
				"type": "unocc",
				"energy": 0.03389,
				"method": "rhf"
			}
		],
		"cosmo_sigma_profile": { 
			"-0.025": 0.0,
			"-0.024": 0.0,
			"-0.023": 0.0,
			"-0.022": 0.0,
			"-0.021": 0.0,
			"-0.02": 0.0,
			"-0.019": 0.0,
			"-0.018": 0.0,
			"-0.017": 0.0,
			"-0.016": 0.0,
			"-0.015": 0.0,
			"-0.014": 0.0,
			"-0.013": 0.0,
			"-0.012": 0.0,
			"-0.011": 0.0,
			"-0.01": 0.0,
			"-0.009": 0.00244493515439,
			"-0.008": 2.01644825434,
			"-0.007": 8.05014989083,
			"-0.006": 11.1206887634,
			"-0.005": 13.6083236681,
			"-0.004": 11.642407794,
			"-0.003": 12.5872925122,
			"-0.002": 12.9552382487,
			"-0.001": 20.5466152786,
			"0.0": 20.8987770925,
			"0.001": 20.5300750064,
			"0.002": 23.9470210888,
			"0.003": 21.7756163609,
			"0.004": 8.69359537712,
			"0.005": 1.59925863186,
			"0.006": 1.92239281711,
			"0.007": 1.42826413145,
			"0.008": 2.26405898369,
			"0.009": 1.99092088124,
			"0.01": 3.33280464389,
			"0.011": 4.37319091431,
			"0.012": 1.55540376373,
			"0.013": 0.186208473584,
			"0.014": 0.0,
			"0.015": 0.0,
			"0.016": 0.0,
			"0.017": 0.0,
			"0.018": 0.0,
			"0.019": 0.0,
			"0.02": 0.0,
			"0.021": 0.0,
			"0.022": 0.0,
			"0.023": 0.0,
			"0.024": 0.0,
			"0.025": 0.0
		}
	}
}
