{
	 "smiles": "NCCC(C1=CC=CC=C1)C1=CC=CC=C1", 
	 "Tm": 303.15, 
	 "num_atms": 33, 
	 "gaussian": { 
		 "optdone": 1, 
		 "sigma_profile": "yes", 
		 "theory": "DFT", 
		 "functional": "B3LYP", 
		 "basiset": "6-31G**", 
		 "properties": { 
			 "R2extent": 4154.9707, 
			 "electric_dipole_moment_norm": 1.4322690285, 
			 "electric_quadrupole_moment_norm": 9.0879474916, 
			 "total_energy": -636.592148759, 
			 "HOMO_LUMO_gap": 0.2163, 
			 "cosmo_polarized_energy": -9.61, 
			 "cosmo_cavitation_energy": 34.71, 
			 "cosmo_dispersion_energy": -24.22, 
			 "cosmo_repulsion_energy": 1.91, 
			 "cosmo_total_nonelectrostatic_energy": 12.4, 
			 "SMD_solvation_energy": 4.14 
		},
		"coords": [
			{
				"x": -1.237380437,
				"y": -2.0692075616,
				"z": 2.5325559678,
				"element": "N" 
			},
			{
				"x": -0.6735477053,
				"y": -1.2567173173,
				"z": 1.4492819312,
				"element": "C" 
			},
			{
				"x": -1.7125747069,
				"y": -0.6453151392,
				"z": 0.4905149888,
				"element": "C" 
			},
			{
				"x": -1.180773374,
				"y": 0.2357081273,
				"z": -0.6746751158,
				"element": "C" 
			},
			{
				"x": -0.6051915662,
				"y": 1.5970468833,
				"z": -0.2649909019,
				"element": "C" 
			},
			{
				"x": -0.723153675,
				"y": 2.1216600336,
				"z": 1.0287021212,
				"element": "C" 
			},
			{
				"x": -0.2459254545,
				"y": 3.3988498697,
				"z": 1.3386553199,
				"element": "C" 
			},
			{
				"x": 0.355503265,
				"y": 4.183721267,
				"z": 0.3573247843,
				"element": "C" 
			},
			{
				"x": 0.4727903343,
				"y": 3.679884767,
				"z": -0.940453972,
				"element": "C" 
			},
			{
				"x": -0.0010800439,
				"y": 2.4053513592,
				"z": -1.2436844393,
				"element": "C" 
			},
			{
				"x": -0.2541005565,
				"y": -0.5702262728,
				"z": -1.5858370238,
				"element": "C" 
			},
			{
				"x": -0.7922958123,
				"y": -1.2750869505,
				"z": -2.6712039956,
				"element": "C" 
			},
			{
				"x": 0.0145467695,
				"y": -2.0651086456,
				"z": -3.492004168,
				"element": "C" 
			},
			{
				"x": 1.3835449562,
				"y": -2.1629257205,
				"z": -3.2404898532,
				"element": "C" 
			},
			{
				"x": 1.9351699902,
				"y": -1.4629365501,
				"z": -2.1654937306,
				"element": "C" 
			},
			{
				"x": 1.1247798176,
				"y": -0.6740006196,
				"z": -1.3480726868,
				"element": "C" 
			},
			{
				"x": -1.8927647545,
				"y": -1.5123524587,
				"z": 3.0778212756,
				"element": "H" 
			},
			{
				"x": -1.7824252606,
				"y": -2.8338561169,
				"z": 2.1389221784,
				"element": "H" 
			},
			{
				"x": 0.0183670063,
				"y": -1.8892421247,
				"z": 0.8841942526,
				"element": "H" 
			},
			{
				"x": -0.0619975742,
				"y": -0.4697634704,
				"z": 1.9044114843,
				"element": "H" 
			},
			{
				"x": -2.2810150433,
				"y": -1.4691389024,
				"z": 0.0390267013,
				"element": "H" 
			},
			{
				"x": -2.4410233293,
				"y": -0.063259928,
				"z": 1.0713429366,
				"element": "H" 
			},
			{
				"x": -2.0689327233,
				"y": 0.4670804979,
				"z": -1.2806116594,
				"element": "H" 
			},
			{
				"x": -1.1947121678,
				"y": 1.5407496755,
				"z": 1.8134734505,
				"element": "H" 
			},
			{
				"x": -0.3477860494,
				"y": 3.7758765525,
				"z": 2.3526221364,
				"element": "H" 
			},
			{
				"x": 0.7271021519,
				"y": 5.1757043278,
				"z": 0.597574979,
				"element": "H" 
			},
			{
				"x": 0.9342852528,
				"y": 4.2809248183,
				"z": -1.719226702,
				"element": "H" 
			},
			{
				"x": 0.099821793,
				"y": 2.0257995446,
				"z": -2.256399012,
				"element": "H" 
			},
			{
				"x": -1.8579431042,
				"y": -1.2011224051,
				"z": -2.8775354782,
				"element": "H" 
			},
			{
				"x": -0.4261573596,
				"y": -2.5980373183,
				"z": -4.3300802263,
				"element": "H" 
			},
			{
				"x": 2.0156973024,
				"y": -2.7738649922,
				"z": -3.8784706771,
				"element": "H" 
			},
			{
				"x": 3.0006090145,
				"y": -1.5282573671,
				"z": -1.962714113,
				"element": "H" 
			},
			{
				"x": 1.5682630442,
				"y": -0.1229378628,
				"z": -0.5241807529,
				"element": "H" 
			}
		],
		 "valence_orbital": [ 
			{
				"type": "occ",
				"energy": -0.25068,
				"method": "rhf"
			},
			{
				"type": "occ",
				"energy": -0.24712,
				"method": "rhf"
			},
			{
				"type": "occ",
				"energy": -0.24486,
				"method": "rhf"
			},
			{
				"type": "occ",
				"energy": -0.238,
				"method": "rhf"
			},
			{
				"type": "occ",
				"energy": -0.22266,
				"method": "rhf"
			},
			{
				"type": "unocc",
				"energy": -0.00636,
				"method": "rhf"
			},
			{
				"type": "unocc",
				"energy": -0.00208,
				"method": "rhf"
			},
			{
				"type": "unocc",
				"energy": 0.00279,
				"method": "rhf"
			},
			{
				"type": "unocc",
				"energy": 0.00817,
				"method": "rhf"
			},
			{
				"type": "unocc",
				"energy": 0.07619,
				"method": "rhf"
			}
		],
		"cosmo_sigma_profile": { 
			"-0.025": 0.0,
			"-0.024": 0.0,
			"-0.023": 0.0,
			"-0.022": 0.0,
			"-0.021": 0.0,
			"-0.02": 0.0,
			"-0.019": 0.0,
			"-0.018": 0.0,
			"-0.017": 0.0,
			"-0.016": 0.0,
			"-0.015": 0.0,
			"-0.014": 0.0,
			"-0.013": 0.0,
			"-0.012": 0.0,
			"-0.011": 0.0,
			"-0.01": 0.0415777874806,
			"-0.009": 2.15033063424,
			"-0.008": 2.59894095861,
			"-0.007": 3.38693565288,
			"-0.006": 7.1476171367,
			"-0.005": 21.547476709,
			"-0.004": 27.1491473624,
			"-0.003": 28.5493377373,
			"-0.002": 27.4178304826,
			"-0.001": 23.4864782873,
			"0.0": 20.6437801174,
			"0.001": 17.6945714559,
			"0.002": 15.3764573334,
			"0.003": 15.937855616,
			"0.004": 16.1142023494,
			"0.005": 15.4238784194,
			"0.006": 14.8530636369,
			"0.007": 5.49463202809,
			"0.008": 0.480116722408,
			"0.009": 1.30987262298,
			"0.01": 0.53964014904,
			"0.011": 0.753495178589,
			"0.012": 0.296516490067,
			"0.013": 0.237133529904,
			"0.014": 1.1849568545,
			"0.015": 0.770891536422,
			"0.016": 0.781790168428,
			"0.017": 0.649510970256,
			"0.018": 0.376376850486,
			"0.019": 0.702117553322,
			"0.02": 0.666029170678,
			"0.021": 0.0,
			"0.022": 0.0,
			"0.023": 0.0,
			"0.024": 0.0,
			"0.025": 0.0
		}
	}
}
