{
	 "smiles": "CCCCBr", 
	 "Tm": 161.15, 
	 "num_atms": 14, 
	 "gaussian": { 
		 "optdone": 1, 
		 "sigma_profile": "yes", 
		 "theory": "DFT", 
		 "functional": "B3LYP", 
		 "basiset": "6-31G**", 
		 "properties": { 
			 "R2extent": 2132.3086, 
			 "electric_dipole_moment_norm": 2.15118706067, 
			 "electric_quadrupole_moment_norm": 7.91016299263, 
			 "total_energy": -2729.27083243, 
			 "HOMO_LUMO_gap": 0.27238, 
			 "cosmo_polarized_energy": -3.62, 
			 "cosmo_cavitation_energy": 18.45, 
			 "cosmo_dispersion_energy": -14.13, 
			 "cosmo_repulsion_energy": 1.26, 
			 "cosmo_total_nonelectrostatic_energy": 5.58, 
			 "SMD_solvation_energy": 2.01 
		},
		"coords": [
			{
				"x": 0.3039304328,
				"y": 1.4803596212,
				"z": -1.5359315558,
				"element": "C" 
			},
			{
				"x": 0.5065435057,
				"y": 1.7514135691,
				"z": -0.0421513327,
				"element": "C" 
			},
			{
				"x": 1.141359584,
				"y": 0.5657658783,
				"z": 0.6929260032,
				"element": "C" 
			},
			{
				"x": 1.4043752431,
				"y": 0.7955877562,
				"z": 2.1736159602,
				"element": "C" 
			},
			{
				"x": -0.2701348463,
				"y": 1.0034353293,
				"z": 3.2276378417,
				"element": "Br" 
			},
			{
				"x": -0.1503675779,
				"y": 2.3411654044,
				"z": -2.0365095561,
				"element": "H" 
			},
			{
				"x": 1.2552974585,
				"y": 1.2682516891,
				"z": -2.0374464199,
				"element": "H" 
			},
			{
				"x": -0.3536016671,
				"y": 0.618448345,
				"z": -1.6962950673,
				"element": "H" 
			},
			{
				"x": 1.1414936846,
				"y": 2.6382051766,
				"z": 0.0897139346,
				"element": "H" 
			},
			{
				"x": -0.4549049537,
				"y": 1.9885900547,
				"z": 0.4268230218,
				"element": "H" 
			},
			{
				"x": 2.116266853,
				"y": 0.3344018753,
				"z": 0.2365616127,
				"element": "H" 
			},
			{
				"x": 0.5219897177,
				"y": -0.3306189577,
				"z": 0.568674703,
				"element": "H" 
			},
			{
				"x": 1.916160165,
				"y": -0.0468413269,
				"z": 2.6375663386,
				"element": "H" 
			},
			{
				"x": 1.9672924006,
				"y": 1.7111355856,
				"z": 2.3595145161,
				"element": "H" 
			}
		],
		 "valence_orbital": [ 
			{
				"type": "occ",
				"energy": -0.34985,
				"method": "rhf"
			},
			{
				"type": "occ",
				"energy": -0.33736,
				"method": "rhf"
			},
			{
				"type": "occ",
				"energy": -0.33037,
				"method": "rhf"
			},
			{
				"type": "occ",
				"energy": -0.26911,
				"method": "rhf"
			},
			{
				"type": "occ",
				"energy": -0.26684,
				"method": "rhf"
			},
			{
				"type": "unocc",
				"energy": 0.00554,
				"method": "rhf"
			},
			{
				"type": "unocc",
				"energy": 0.0893,
				"method": "rhf"
			},
			{
				"type": "unocc",
				"energy": 0.11019,
				"method": "rhf"
			},
			{
				"type": "unocc",
				"energy": 0.12549,
				"method": "rhf"
			},
			{
				"type": "unocc",
				"energy": 0.14463,
				"method": "rhf"
			}
		],
		"cosmo_sigma_profile": { 
			"-0.025": 0.0,
			"-0.024": 0.0,
			"-0.023": 0.0,
			"-0.022": 0.0,
			"-0.021": 0.0,
			"-0.02": 0.0,
			"-0.019": 0.0,
			"-0.018": 0.0,
			"-0.017": 0.0,
			"-0.016": 0.0,
			"-0.015": 0.0,
			"-0.014": 0.0,
			"-0.013": 0.0,
			"-0.012": 0.0,
			"-0.011": 0.0,
			"-0.01": 0.0,
			"-0.009": 0.0,
			"-0.008": 0.0,
			"-0.007": 1.17487215042,
			"-0.006": 4.71372222638,
			"-0.005": 5.05041517238,
			"-0.004": 9.89160929074,
			"-0.003": 15.4870236619,
			"-0.002": 18.3130611276,
			"-0.001": 17.0296939242,
			"0.0": 17.7629961118,
			"0.001": 17.0718735018,
			"0.002": 8.07188668898,
			"0.003": 4.88582931539,
			"0.004": 5.21667856127,
			"0.005": 6.26203919617,
			"0.006": 8.95954470427,
			"0.007": 6.69815466392,
			"0.008": 0.0228716556923,
			"0.009": 0.0,
			"0.01": 0.0,
			"0.011": 0.0,
			"0.012": 0.0,
			"0.013": 0.0,
			"0.014": 0.0,
			"0.015": 0.0,
			"0.016": 0.0,
			"0.017": 0.0,
			"0.018": 0.0,
			"0.019": 0.0,
			"0.02": 0.0,
			"0.021": 0.0,
			"0.022": 0.0,
			"0.023": 0.0,
			"0.024": 0.0,
			"0.025": 0.0
		}
	}
}
