{
	 "smiles": "FC(C(F)(F)F)C(F)(F)F", 
	 "Tm": 144.15, 
	 "num_atms": 11, 
	 "gaussian": { 
		 "optdone": 1, 
		 "sigma_profile": "yes", 
		 "theory": "DFT", 
		 "functional": "B3LYP", 
		 "basiset": "6-31G**", 
		 "properties": { 
			 "R2extent": 1676.8206, 
			 "electric_dipole_moment_norm": 1.30525476823, 
			 "electric_quadrupole_moment_norm": 1.88055989269, 
			 "total_energy": -813.793486916, 
			 "HOMO_LUMO_gap": 0.41266, 
			 "cosmo_polarized_energy": -3.57, 
			 "cosmo_cavitation_energy": 18.4, 
			 "cosmo_dispersion_energy": -12.62, 
			 "cosmo_repulsion_energy": 0.91, 
			 "cosmo_total_nonelectrostatic_energy": 6.7, 
			 "SMD_solvation_energy": 5.95 
		},
		"coords": [
			{
				"x": 1.9383354431,
				"y": 0.3221813133,
				"z": -0.3505702033,
				"element": "F" 
			},
			{
				"x": 0.6168981189,
				"y": 0.6651592444,
				"z": -0.4972053438,
				"element": "C" 
			},
			{
				"x": -0.1884868998,
				"y": -0.6243241171,
				"z": -0.6887046846,
				"element": "C" 
			},
			{
				"x": -0.0096533547,
				"y": -1.4199888809,
				"z": 0.3784963742,
				"element": "F" 
			},
			{
				"x": -1.4988076734,
				"y": -0.3406232239,
				"z": -0.7921154619,
				"element": "F" 
			},
			{
				"x": 0.1934192177,
				"y": -1.2951765298,
				"z": -1.7829019464,
				"element": "F" 
			},
			{
				"x": 0.5110026619,
				"y": 1.6549875208,
				"z": -1.662113733,
				"element": "C" 
			},
			{
				"x": -0.7638381658,
				"y": 2.0541474986,
				"z": -1.8157491056,
				"element": "F" 
			},
			{
				"x": 1.2642727098,
				"y": 2.7344638216,
				"z": -1.3950520981,
				"element": "F" 
			},
			{
				"x": 0.9353684375,
				"y": 1.11985226,
				"z": -2.8139330261,
				"element": "F" 
			},
			{
				"x": 0.2557895049,
				"y": 1.1628210932,
				"z": 0.4085492285,
				"element": "H" 
			}
		],
		 "valence_orbital": [ 
			{
				"type": "occ",
				"energy": -0.43169,
				"method": "rhf"
			},
			{
				"type": "occ",
				"energy": -0.4243,
				"method": "rhf"
			},
			{
				"type": "occ",
				"energy": -0.41889,
				"method": "rhf"
			},
			{
				"type": "occ",
				"energy": -0.3837,
				"method": "rhf"
			},
			{
				"type": "occ",
				"energy": -0.37153,
				"method": "rhf"
			},
			{
				"type": "unocc",
				"energy": 0.04113,
				"method": "rhf"
			},
			{
				"type": "unocc",
				"energy": 0.07808,
				"method": "rhf"
			},
			{
				"type": "unocc",
				"energy": 0.12833,
				"method": "rhf"
			},
			{
				"type": "unocc",
				"energy": 0.14625,
				"method": "rhf"
			},
			{
				"type": "unocc",
				"energy": 0.16188,
				"method": "rhf"
			}
		],
		"cosmo_sigma_profile": { 
			"-0.025": 0.0,
			"-0.024": 0.0,
			"-0.023": 0.0,
			"-0.022": 0.0,
			"-0.021": 0.0,
			"-0.02": 0.0,
			"-0.019": 0.0,
			"-0.018": 0.0,
			"-0.017": 0.0,
			"-0.016": 0.0,
			"-0.015": 0.0,
			"-0.014": 0.0,
			"-0.013": 0.784725762113,
			"-0.012": 3.57421616547,
			"-0.011": 1.70562769439,
			"-0.01": 1.57794921707,
			"-0.009": 1.31048375407,
			"-0.008": 1.56171951739,
			"-0.007": 1.03258585136,
			"-0.006": 0.821699841256,
			"-0.005": 1.42145349816,
			"-0.004": 2.24718931508,
			"-0.003": 3.48536413269,
			"-0.002": 4.86452224189,
			"-0.001": 8.49308897054,
			"0.0": 14.1215443315,
			"0.001": 42.3991780132,
			"0.002": 50.2790546527,
			"0.003": 7.1888684019,
			"0.004": 0.783535649268,
			"0.005": 0.0,
			"0.006": 0.0,
			"0.007": 0.0,
			"0.008": 0.0,
			"0.009": 0.0,
			"0.01": 0.0,
			"0.011": 0.0,
			"0.012": 0.0,
			"0.013": 0.0,
			"0.014": 0.0,
			"0.015": 0.0,
			"0.016": 0.0,
			"0.017": 0.0,
			"0.018": 0.0,
			"0.019": 0.0,
			"0.02": 0.0,
			"0.021": 0.0,
			"0.022": 0.0,
			"0.023": 0.0,
			"0.024": 0.0,
			"0.025": 0.0
		}
	}
}
