{
	 "smiles": "NC1=C(F)C(F)=C(F)C(F)=C1F", 
	 "Tm": 308.65, 
	 "num_atms": 14, 
	 "gaussian": { 
		 "optdone": 1, 
		 "sigma_profile": "yes", 
		 "theory": "DFT", 
		 "functional": "B3LYP", 
		 "basiset": "6-31G**", 
		 "properties": { 
			 "R2extent": 2129.0153, 
			 "electric_dipole_moment_norm": 2.98687489192, 
			 "electric_quadrupole_moment_norm": 10.8044206851, 
			 "total_energy": -783.730001097, 
			 "HOMO_LUMO_gap": 0.21351, 
			 "cosmo_polarized_energy": -6.07, 
			 "cosmo_cavitation_energy": 21.44, 
			 "cosmo_dispersion_energy": -15.3, 
			 "cosmo_repulsion_energy": 1.12, 
			 "cosmo_total_nonelectrostatic_energy": 7.26, 
			 "SMD_solvation_energy": 6.09 
		},
		"coords": [
			{
				"x": -0.4706097449,
				"y": -1.5662012149,
				"z": -2.9642426423,
				"element": "N" 
			},
			{
				"x": -0.2424405582,
				"y": -1.2418576181,
				"z": -1.6363800856,
				"element": "C" 
			},
			{
				"x": -1.2778849274,
				"y": -1.2425658247,
				"z": -0.6936677529,
				"element": "C" 
			},
			{
				"x": -2.5033062077,
				"y": -1.6475853729,
				"z": -1.0881330074,
				"element": "F" 
			},
			{
				"x": -1.0723432281,
				"y": -0.8571505343,
				"z": 0.6262209907,
				"element": "C" 
			},
			{
				"x": -2.0893207769,
				"y": -0.8767314586,
				"z": 1.4958442078,
				"element": "F" 
			},
			{
				"x": 0.1941084659,
				"y": -0.4519959504,
				"z": 1.0441937505,
				"element": "C" 
			},
			{
				"x": 0.4005947454,
				"y": -0.0762475083,
				"z": 2.3135698524,
				"element": "F" 
			},
			{
				"x": 1.2446962761,
				"y": -0.4478295621,
				"z": 0.1282357636,
				"element": "C" 
			},
			{
				"x": 2.4689073259,
				"y": -0.0715089909,
				"z": 0.5162453051,
				"element": "F" 
			},
			{
				"x": 1.0205654972,
				"y": -0.836512222,
				"z": -1.1876656193,
				"element": "C" 
			},
			{
				"x": 2.0454056575,
				"y": -0.8439525469,
				"z": -2.0656927169,
				"element": "F" 
			},
			{
				"x": -1.281294559,
				"y": -2.1471930021,
				"z": -3.1238899147,
				"element": "H" 
			},
			{
				"x": 0.3503220342,
				"y": -1.858968194,
				"z": -3.4747381311,
				"element": "H" 
			}
		],
		 "valence_orbital": [ 
			{
				"type": "occ",
				"energy": -0.37903,
				"method": "rhf"
			},
			{
				"type": "occ",
				"energy": -0.37713,
				"method": "rhf"
			},
			{
				"type": "occ",
				"energy": -0.31703,
				"method": "rhf"
			},
			{
				"type": "occ",
				"energy": -0.2531,
				"method": "rhf"
			},
			{
				"type": "occ",
				"energy": -0.22504,
				"method": "rhf"
			},
			{
				"type": "unocc",
				"energy": -0.01153,
				"method": "rhf"
			},
			{
				"type": "unocc",
				"energy": -0.00587,
				"method": "rhf"
			},
			{
				"type": "unocc",
				"energy": 0.00863,
				"method": "rhf"
			},
			{
				"type": "unocc",
				"energy": 0.07868,
				"method": "rhf"
			},
			{
				"type": "unocc",
				"energy": 0.10514,
				"method": "rhf"
			}
		],
		"cosmo_sigma_profile": { 
			"-0.025": 0.0,
			"-0.024": 0.0,
			"-0.023": 0.0,
			"-0.022": 0.0,
			"-0.021": 0.0,
			"-0.02": 0.0,
			"-0.019": 0.0,
			"-0.018": 0.0,
			"-0.017": 0.0,
			"-0.016": 0.0,
			"-0.015": 0.0,
			"-0.014": 0.321800474115,
			"-0.013": 2.05292246552,
			"-0.012": 1.74183010869,
			"-0.011": 2.64472514375,
			"-0.01": 2.50294528316,
			"-0.009": 1.74108702154,
			"-0.008": 2.21022938148,
			"-0.007": 2.1094770771,
			"-0.006": 2.12956571174,
			"-0.005": 2.37679902115,
			"-0.004": 1.88029074585,
			"-0.003": 6.01093559472,
			"-0.002": 24.7651909484,
			"-0.001": 16.0808095198,
			"0.0": 12.5373661809,
			"0.001": 11.2408630289,
			"0.002": 21.6054147353,
			"0.003": 47.5161700982,
			"0.004": 6.83432675847,
			"0.005": 0.953806236367,
			"0.006": 0.590829612889,
			"0.007": 0.601946055161,
			"0.008": 0.381708997481,
			"0.009": 0.856650418942,
			"0.01": 0.735730094329,
			"0.011": 0.449400420125,
			"0.012": 0.475557346995,
			"0.013": 0.133233012904,
			"0.014": 0.0,
			"0.015": 0.0,
			"0.016": 0.0,
			"0.017": 0.0,
			"0.018": 0.0,
			"0.019": 0.0,
			"0.02": 0.0,
			"0.021": 0.0,
			"0.022": 0.0,
			"0.023": 0.0,
			"0.024": 0.0,
			"0.025": 0.0
		}
	}
}
