{
	 "smiles": "CC(N)C1=CC(O)=CC=C1", 
	 "Tm": 440.15, 
	 "num_atms": 21, 
	 "gaussian": { 
		 "optdone": 1, 
		 "sigma_profile": "yes", 
		 "theory": "DFT", 
		 "functional": "B3LYP", 
		 "basiset": "6-31G**", 
		 "properties": { 
			 "R2extent": 1786.0528, 
			 "electric_dipole_moment_norm": 2.31917928802, 
			 "electric_quadrupole_moment_norm": 4.97602882226, 
			 "total_energy": -441.45328113, 
			 "HOMO_LUMO_gap": 0.21661, 
			 "cosmo_polarized_energy": -10.3, 
			 "cosmo_cavitation_energy": 23.7, 
			 "cosmo_dispersion_energy": -17.6, 
			 "cosmo_repulsion_energy": 1.44, 
			 "cosmo_total_nonelectrostatic_energy": 7.54, 
			 "SMD_solvation_energy": 3.7 
		},
		"coords": [
			{
				"x": -1.532158706,
				"y": 1.694976079,
				"z": 2.6344010451,
				"element": "C" 
			},
			{
				"x": -0.6117285448,
				"y": 1.7992690268,
				"z": 1.4061901449,
				"element": "C" 
			},
			{
				"x": -0.9071230022,
				"y": 2.9672048035,
				"z": 0.5571117669,
				"element": "N" 
			},
			{
				"x": -0.5851387481,
				"y": 0.535623975,
				"z": 0.5427910201,
				"element": "C" 
			},
			{
				"x": -0.1450155231,
				"y": 0.6317597175,
				"z": -0.7849337372,
				"element": "C" 
			},
			{
				"x": -0.0676627947,
				"y": -0.5013748067,
				"z": -1.5970355127,
				"element": "C" 
			},
			{
				"x": 0.3563885467,
				"y": -0.4390952024,
				"z": -2.8964989283,
				"element": "O" 
			},
			{
				"x": -0.430715218,
				"y": -1.7564888154,
				"z": -1.0966169072,
				"element": "C" 
			},
			{
				"x": -0.8677062834,
				"y": -1.8531349847,
				"z": 0.2204904622,
				"element": "C" 
			},
			{
				"x": -0.9481007509,
				"y": -0.7228064439,
				"z": 1.0395158117,
				"element": "C" 
			},
			{
				"x": -2.5644124474,
				"y": 1.4784753538,
				"z": 2.3362646529,
				"element": "H" 
			},
			{
				"x": -1.2106843253,
				"y": 0.9173551554,
				"z": 3.3344548113,
				"element": "H" 
			},
			{
				"x": -1.5272298836,
				"y": 2.6445644695,
				"z": 3.1803553147,
				"element": "H" 
			},
			{
				"x": 0.4123517685,
				"y": 1.9569124813,
				"z": 1.7775902499,
				"element": "H" 
			},
			{
				"x": -0.8540615993,
				"y": 3.8140610063,
				"z": 1.1188613037,
				"element": "H" 
			},
			{
				"x": -1.8671685653,
				"y": 2.9034316313,
				"z": 0.2211144398,
				"element": "H" 
			},
			{
				"x": 0.125065292,
				"y": 1.6100713401,
				"z": -1.1738688382,
				"element": "H" 
			},
			{
				"x": 0.5768149888,
				"y": 0.477901764,
				"z": -3.1060549623,
				"element": "H" 
			},
			{
				"x": -0.3660402998,
				"y": -2.6250186287,
				"z": -1.7435587553,
				"element": "H" 
			},
			{
				"x": -1.1540748491,
				"y": -2.8232857078,
				"z": 0.6173227439,
				"element": "H" 
			},
			{
				"x": -1.2949990549,
				"y": -0.8352022139,
				"z": 2.0602038741,
				"element": "H" 
			}
		],
		 "valence_orbital": [ 
			{
				"type": "occ",
				"energy": -0.32196,
				"method": "rhf"
			},
			{
				"type": "occ",
				"energy": -0.31905,
				"method": "rhf"
			},
			{
				"type": "occ",
				"energy": -0.24555,
				"method": "rhf"
			},
			{
				"type": "occ",
				"energy": -0.23268,
				"method": "rhf"
			},
			{
				"type": "occ",
				"energy": -0.2127,
				"method": "rhf"
			},
			{
				"type": "unocc",
				"energy": 0.00391,
				"method": "rhf"
			},
			{
				"type": "unocc",
				"energy": 0.02052,
				"method": "rhf"
			},
			{
				"type": "unocc",
				"energy": 0.08045,
				"method": "rhf"
			},
			{
				"type": "unocc",
				"energy": 0.08353,
				"method": "rhf"
			},
			{
				"type": "unocc",
				"energy": 0.11168,
				"method": "rhf"
			}
		],
		"cosmo_sigma_profile": { 
			"-0.025": 0.0,
			"-0.024": 0.0,
			"-0.023": 0.0,
			"-0.022": 0.0,
			"-0.021": 0.0,
			"-0.02": 0.0,
			"-0.019": 0.0,
			"-0.018": 0.0328460662002,
			"-0.017": 0.788695230495,
			"-0.016": 1.07623560736,
			"-0.015": 0.898118126899,
			"-0.014": 1.13722087029,
			"-0.013": 1.18866412366,
			"-0.012": 0.918989784804,
			"-0.011": 0.313097577682,
			"-0.01": 1.14059485527,
			"-0.009": 3.66758432152,
			"-0.008": 4.12785788282,
			"-0.007": 2.95001361141,
			"-0.006": 5.25702404392,
			"-0.005": 8.98211949914,
			"-0.004": 13.4599238015,
			"-0.003": 16.792258118,
			"-0.002": 14.1978313588,
			"-0.001": 13.7863192051,
			"0.0": 12.6383593933,
			"0.001": 12.1408741291,
			"0.002": 9.57389960488,
			"0.003": 8.9783871893,
			"0.004": 10.1791634783,
			"0.005": 10.8820646208,
			"0.006": 10.925548716,
			"0.007": 5.85774749585,
			"0.008": 2.24216652262,
			"0.009": 2.52834834445,
			"0.01": 2.16791550063,
			"0.011": 2.7305031864,
			"0.012": 1.85224806812,
			"0.013": 0.579506771528,
			"0.014": 0.630155940829,
			"0.015": 0.772296796697,
			"0.016": 0.435980633802,
			"0.017": 0.0327312065043,
			"0.018": 0.0,
			"0.019": 0.0,
			"0.02": 0.0,
			"0.021": 0.0,
			"0.022": 0.0,
			"0.023": 0.0,
			"0.024": 0.0,
			"0.025": 0.0
		}
	}
}
