{
	 "smiles": "OC(=O)C1(CCOCC1)C#N", 
	 "Tm": 436.15, 
	 "num_atms": 20, 
	 "gaussian": { 
		 "optdone": 1, 
		 "sigma_profile": "yes", 
		 "theory": "DFT", 
		 "functional": "B3LYP", 
		 "basiset": "6-31G**", 
		 "properties": { 
			 "R2extent": 1627.6487, 
			 "electric_dipole_moment_norm": 2.27272421116, 
			 "electric_quadrupole_moment_norm": 16.7225077961, 
			 "total_energy": -552.559263057, 
			 "HOMO_LUMO_gap": 0.25534, 
			 "cosmo_polarized_energy": -14.83, 
			 "cosmo_cavitation_energy": 23.2, 
			 "cosmo_dispersion_energy": -16.76, 
			 "cosmo_repulsion_energy": 1.35, 
			 "cosmo_total_nonelectrostatic_energy": 7.79, 
			 "SMD_solvation_energy": 5.97 
		},
		"coords": [
			{
				"x": -1.6805804756,
				"y": 0.0723824302,
				"z": 1.8157975567,
				"element": "O" 
			},
			{
				"x": -0.4227356083,
				"y": 0.1643189934,
				"z": 1.3557829171,
				"element": "C" 
			},
			{
				"x": 0.5007588393,
				"y": 0.4069642739,
				"z": 2.0919055907,
				"element": "O" 
			},
			{
				"x": -0.1737282913,
				"y": -0.1000087785,
				"z": -0.1613283075,
				"element": "C" 
			},
			{
				"x": 0.637213431,
				"y": -1.4226327202,
				"z": -0.284475934,
				"element": "C" 
			},
			{
				"x": 0.9457090553,
				"y": -1.7248603217,
				"z": -1.7675990917,
				"element": "C" 
			},
			{
				"x": 0.9154878403,
				"y": -0.5540640308,
				"z": -2.5752334759,
				"element": "O" 
			},
			{
				"x": 1.5417067589,
				"y": 0.5473540168,
				"z": -1.9345543101,
				"element": "C" 
			},
			{
				"x": 0.6823507629,
				"y": 1.0608027077,
				"z": -0.7590069066,
				"element": "C" 
			},
			{
				"x": -1.4563440813,
				"y": -0.2280845506,
				"z": -0.8690513854,
				"element": "C" 
			},
			{
				"x": -2.5193434361,
				"y": -0.3298904078,
				"z": -1.3288753318,
				"element": "N" 
			},
			{
				"x": -2.3094283469,
				"y": -0.0954092179,
				"z": 1.0931932947,
				"element": "H" 
			},
			{
				"x": 0.0939994953,
				"y": -2.2562902807,
				"z": 0.1706934799,
				"element": "H" 
			},
			{
				"x": 1.5491650032,
				"y": -1.2724478381,
				"z": 0.2996979205,
				"element": "H" 
			},
			{
				"x": 0.1920537641,
				"y": -2.3925033351,
				"z": -2.1933113524,
				"element": "H" 
			},
			{
				"x": 1.9266661066,
				"y": -2.2196870825,
				"z": -1.8446941205,
				"element": "H" 
			},
			{
				"x": 2.5474049385,
				"y": 0.2654859694,
				"z": -1.5853790528,
				"element": "H" 
			},
			{
				"x": 1.6611720984,
				"y": 1.3234412011,
				"z": -2.6941921432,
				"element": "H" 
			},
			{
				"x": 0.0201983236,
				"y": 1.8687356299,
				"z": -1.0821361197,
				"element": "H" 
			},
			{
				"x": 1.3180738222,
				"y": 1.4433933417,
				"z": 0.0436667719,
				"element": "H" 
			}
		],
		 "valence_orbital": [ 
			{
				"type": "occ",
				"energy": -0.34593,
				"method": "rhf"
			},
			{
				"type": "occ",
				"energy": -0.33031,
				"method": "rhf"
			},
			{
				"type": "occ",
				"energy": -0.32407,
				"method": "rhf"
			},
			{
				"type": "occ",
				"energy": -0.29282,
				"method": "rhf"
			},
			{
				"type": "occ",
				"energy": -0.27101,
				"method": "rhf"
			},
			{
				"type": "unocc",
				"energy": -0.01567,
				"method": "rhf"
			},
			{
				"type": "unocc",
				"energy": 0.00658,
				"method": "rhf"
			},
			{
				"type": "unocc",
				"energy": 0.0139,
				"method": "rhf"
			},
			{
				"type": "unocc",
				"energy": 0.05099,
				"method": "rhf"
			},
			{
				"type": "unocc",
				"energy": 0.08289,
				"method": "rhf"
			}
		],
		"cosmo_sigma_profile": { 
			"-0.025": 0.0,
			"-0.024": 0.0,
			"-0.023": 0.0,
			"-0.022": 0.0,
			"-0.021": 0.0,
			"-0.02": 0.0,
			"-0.019": 0.0,
			"-0.018": 0.0,
			"-0.017": 0.0,
			"-0.016": 0.184334344251,
			"-0.015": 0.464222404664,
			"-0.014": 0.497727797408,
			"-0.013": 1.31172636638,
			"-0.012": 1.34781739609,
			"-0.011": 2.08616317873,
			"-0.01": 2.19790072471,
			"-0.009": 2.39494271672,
			"-0.008": 3.15842825769,
			"-0.007": 5.13864965347,
			"-0.006": 14.3119415027,
			"-0.005": 22.7371635753,
			"-0.004": 19.576255749,
			"-0.003": 14.440804698,
			"-0.002": 8.44776696808,
			"-0.001": 6.10865432808,
			"0.0": 4.72744898303,
			"0.001": 5.25839599386,
			"0.002": 4.17051760147,
			"0.003": 4.66389568471,
			"0.004": 5.22852019004,
			"0.005": 4.83379499802,
			"0.006": 7.2200812279,
			"0.007": 5.76161406706,
			"0.008": 7.92406630908,
			"0.009": 8.5716771224,
			"0.01": 6.91113465571,
			"0.011": 8.23840550976,
			"0.012": 4.29044812425,
			"0.013": 0.790808778438,
			"0.014": 0.0,
			"0.015": 0.0,
			"0.016": 0.0,
			"0.017": 0.0,
			"0.018": 0.0,
			"0.019": 0.0,
			"0.02": 0.0,
			"0.021": 0.0,
			"0.022": 0.0,
			"0.023": 0.0,
			"0.024": 0.0,
			"0.025": 0.0
		}
	}
}
