{
	 "smiles": "CN1N=C(C)C2=C1N=C(Cl)C(C=O)=C2", 
	 "Tm": 456.15, 
	 "num_atms": 22, 
	 "gaussian": { 
		 "optdone": 1, 
		 "sigma_profile": "yes", 
		 "theory": "DFT", 
		 "functional": "B3LYP", 
		 "basiset": "6-31G**", 
		 "properties": { 
			 "R2extent": 3631.589, 
			 "electric_dipole_moment_norm": 2.87370471865, 
			 "electric_quadrupole_moment_norm": 6.74842828665, 
			 "total_energy": -1047.4376141, 
			 "HOMO_LUMO_gap": 0.1702, 
			 "cosmo_polarized_energy": -9.5, 
			 "cosmo_cavitation_energy": 28.67, 
			 "cosmo_dispersion_energy": -21.02, 
			 "cosmo_repulsion_energy": 1.66, 
			 "cosmo_total_nonelectrostatic_energy": 9.31, 
			 "SMD_solvation_energy": 3.61 
		},
		"coords": [
			{
				"x": -2.9433088024,
				"y": 1.3584454813,
				"z": 0.2921213114,
				"element": "C" 
			},
			{
				"x": -1.5997257385,
				"y": 0.878863494,
				"z": 0.5468466696,
				"element": "N" 
			},
			{
				"x": -0.8381891378,
				"y": 1.4279376819,
				"z": 1.5447181911,
				"element": "N" 
			},
			{
				"x": 0.3272063196,
				"y": 0.8022256127,
				"z": 1.547566868,
				"element": "C" 
			},
			{
				"x": 1.3990552529,
				"y": 1.1644699191,
				"z": 2.5251043972,
				"element": "C" 
			},
			{
				"x": 0.3507124465,
				"y": -0.1993384561,
				"z": 0.5193814239,
				"element": "C" 
			},
			{
				"x": -0.925340917,
				"y": -0.1044517191,
				"z": -0.0974491668,
				"element": "C" 
			},
			{
				"x": -1.3733318298,
				"y": -0.8467603264,
				"z": -1.1205396488,
				"element": "N" 
			},
			{
				"x": -0.5158580155,
				"y": -1.7373564257,
				"z": -1.5657888639,
				"element": "C" 
			},
			{
				"x": -1.0962167171,
				"y": -2.7191650794,
				"z": -2.9121414407,
				"element": "Cl" 
			},
			{
				"x": 0.7972794598,
				"y": -1.9551950023,
				"z": -1.0559547302,
				"element": "C" 
			},
			{
				"x": 1.7385672272,
				"y": -2.9716219765,
				"z": -1.5848989192,
				"element": "C" 
			},
			{
				"x": 2.8567299384,
				"y": -3.1360851501,
				"z": -1.1287983451,
				"element": "O" 
			},
			{
				"x": 1.223520782,
				"y": -1.1569968546,
				"z": 0.0129912512,
				"element": "C" 
			},
			{
				"x": -3.5663130652,
				"y": 1.222421265,
				"z": 1.1800326411,
				"element": "H" 
			},
			{
				"x": -3.3516198697,
				"y": 0.7806667014,
				"z": -0.5376388658,
				"element": "H" 
			},
			{
				"x": -2.920894056,
				"y": 2.4192507066,
				"z": 0.0290385575,
				"element": "H" 
			},
			{
				"x": 2.309400477,
				"y": 1.494254018,
				"z": 2.0121830904,
				"element": "H" 
			},
			{
				"x": 1.0513404722,
				"y": 1.9731816862,
				"z": 3.1707784266,
				"element": "H" 
			},
			{
				"x": 1.6697277361,
				"y": 0.3083400576,
				"z": 3.1530761878,
				"element": "H" 
			},
			{
				"x": 1.3708431841,
				"y": -3.5837000015,
				"z": -2.4274456127,
				"element": "H" 
			},
			{
				"x": 2.2243148533,
				"y": -1.3234856321,
				"z": 0.4010165776,
				"element": "H" 
			}
		],
		 "valence_orbital": [ 
			{
				"type": "occ",
				"energy": -0.31296,
				"method": "rhf"
			},
			{
				"type": "occ",
				"energy": -0.29564,
				"method": "rhf"
			},
			{
				"type": "occ",
				"energy": -0.2617,
				"method": "rhf"
			},
			{
				"type": "occ",
				"energy": -0.26096,
				"method": "rhf"
			},
			{
				"type": "occ",
				"energy": -0.24592,
				"method": "rhf"
			},
			{
				"type": "unocc",
				"energy": -0.07572,
				"method": "rhf"
			},
			{
				"type": "unocc",
				"energy": -0.05332,
				"method": "rhf"
			},
			{
				"type": "unocc",
				"energy": 0.02271,
				"method": "rhf"
			},
			{
				"type": "unocc",
				"energy": 0.02332,
				"method": "rhf"
			},
			{
				"type": "unocc",
				"energy": 0.0431,
				"method": "rhf"
			}
		],
		"cosmo_sigma_profile": { 
			"-0.025": 0.0,
			"-0.024": 0.0,
			"-0.023": 0.0,
			"-0.022": 0.0,
			"-0.021": 0.0,
			"-0.02": 0.0,
			"-0.019": 0.0,
			"-0.018": 0.0,
			"-0.017": 0.0,
			"-0.016": 0.0,
			"-0.015": 0.0,
			"-0.014": 0.0,
			"-0.013": 0.0,
			"-0.012": 0.0,
			"-0.011": 0.0,
			"-0.01": 0.0,
			"-0.009": 0.0,
			"-0.008": 0.402323015384,
			"-0.007": 3.36165928321,
			"-0.006": 11.2186041263,
			"-0.005": 18.9418897624,
			"-0.004": 19.9893716259,
			"-0.003": 25.5964393669,
			"-0.002": 27.3933353942,
			"-0.001": 26.1905141215,
			"0.0": 20.8572522212,
			"0.001": 10.0387179797,
			"0.002": 9.9121139674,
			"0.003": 10.8374412434,
			"0.004": 9.75845048275,
			"0.005": 5.58585594326,
			"0.006": 4.79861698857,
			"0.007": 4.3904528996,
			"0.008": 4.61201563276,
			"0.009": 3.8719892082,
			"0.01": 4.53433928934,
			"0.011": 5.53045712685,
			"0.012": 2.47742950111,
			"0.013": 1.42670260749,
			"0.014": 0.673173350276,
			"0.015": 0.0897439631608,
			"0.016": 0.0,
			"0.017": 0.0,
			"0.018": 0.0,
			"0.019": 0.0,
			"0.02": 0.0,
			"0.021": 0.0,
			"0.022": 0.0,
			"0.023": 0.0,
			"0.024": 0.0,
			"0.025": 0.0
		}
	}
}
