{
	 "smiles": "CC(C)N1C(SCN(C1=O)C1=CC=CC=C1)=NC(C)(C)C", 
	 "Tm": 378.15, 
	 "num_atms": 44, 
	 "gaussian": { 
		 "optdone": 1, 
		 "sigma_profile": "yes", 
		 "theory": "DFT", 
		 "functional": "B3LYP", 
		 "basiset": "6-31G**", 
		 "properties": { 
			 "R2extent": 7556.2817, 
			 "electric_dipole_moment_norm": 2.57197072495, 
			 "electric_quadrupole_moment_norm": 7.49392915032, 
			 "total_energy": -1261.24122978, 
			 "HOMO_LUMO_gap": 0.2153, 
			 "cosmo_polarized_energy": -10.99, 
			 "cosmo_cavitation_energy": 44.91, 
			 "cosmo_dispersion_energy": -30.73, 
			 "cosmo_repulsion_energy": 2.31, 
			 "cosmo_total_nonelectrostatic_energy": 16.49, 
			 "SMD_solvation_energy": 7.18 
		},
		"coords": [
			{
				"x": -1.332583579,
				"y": 0.2587825919,
				"z": -3.0856393436,
				"element": "C" 
			},
			{
				"x": -1.3519105575,
				"y": 0.9980241437,
				"z": -1.7387709415,
				"element": "C" 
			},
			{
				"x": -1.0598128447,
				"y": 2.4825449884,
				"z": -1.9984429275,
				"element": "C" 
			},
			{
				"x": -0.3368791827,
				"y": 0.3716772927,
				"z": -0.8253815521,
				"element": "N" 
			},
			{
				"x": -0.5362302975,
				"y": -1.0156378474,
				"z": -0.516909039,
				"element": "C" 
			},
			{
				"x": 0.9888424492,
				"y": -1.8550279618,
				"z": 0.0231082458,
				"element": "S" 
			},
			{
				"x": 2.0497013332,
				"y": -0.3616261033,
				"z": -0.1088369516,
				"element": "C" 
			},
			{
				"x": 1.4752576411,
				"y": 0.7470825679,
				"z": 0.6188201171,
				"element": "N" 
			},
			{
				"x": 0.2120622342,
				"y": 1.1725644402,
				"z": 0.2246082644,
				"element": "C" 
			},
			{
				"x": -0.3532761746,
				"y": 2.1382050415,
				"z": 0.7055869663,
				"element": "O" 
			},
			{
				"x": 2.0796487369,
				"y": 1.2154166954,
				"z": 1.8301236633,
				"element": "C" 
			},
			{
				"x": 2.6481568542,
				"y": 0.3008567772,
				"z": 2.7267897385,
				"element": "C" 
			},
			{
				"x": 3.2784217982,
				"y": 0.7568260979,
				"z": 3.8848013683,
				"element": "C" 
			},
			{
				"x": 3.3316831128,
				"y": 2.1217909096,
				"z": 4.1675381819,
				"element": "C" 
			},
			{
				"x": 2.7503492984,
				"y": 3.0293253857,
				"z": 3.2800419279,
				"element": "C" 
			},
			{
				"x": 2.131364041,
				"y": 2.5866477845,
				"z": 2.1119574285,
				"element": "C" 
			},
			{
				"x": -1.6772573113,
				"y": -1.5349925527,
				"z": -0.6641263684,
				"element": "N" 
			},
			{
				"x": -2.0757627903,
				"y": -2.942848882,
				"z": -0.4887025236,
				"element": "C" 
			},
			{
				"x": -3.5841944011,
				"y": -2.9810572931,
				"z": -0.8025365435,
				"element": "C" 
			},
			{
				"x": -1.3365765017,
				"y": -3.8676599106,
				"z": -1.4772694581,
				"element": "C" 
			},
			{
				"x": -1.8614971166,
				"y": -3.4043236812,
				"z": 0.967853844,
				"element": "C" 
			},
			{
				"x": -2.0851405921,
				"y": 0.7009272585,
				"z": -3.7457155638,
				"element": "H" 
			},
			{
				"x": -0.3541028322,
				"y": 0.3686410554,
				"z": -3.5662636814,
				"element": "H" 
			},
			{
				"x": -1.5591934062,
				"y": -0.80093307,
				"z": -2.980690494,
				"element": "H" 
			},
			{
				"x": -2.3399254095,
				"y": 0.8894468303,
				"z": -1.2794586405,
				"element": "H" 
			},
			{
				"x": -1.2129663992,
				"y": 3.1021175603,
				"z": -1.1184650972,
				"element": "H" 
			},
			{
				"x": -1.7290475472,
				"y": 2.8254593536,
				"z": -2.7933580947,
				"element": "H" 
			},
			{
				"x": -0.0312838767,
				"y": 2.6213776651,
				"z": -2.3520530139,
				"element": "H" 
			},
			{
				"x": 3.0291906502,
				"y": -0.608868385,
				"z": 0.2968311875,
				"element": "H" 
			},
			{
				"x": 2.1431096759,
				"y": -0.1061781182,
				"z": -1.1663756787,
				"element": "H" 
			},
			{
				"x": 2.5776814479,
				"y": -0.7651296731,
				"z": 2.535827902,
				"element": "H" 
			},
			{
				"x": 3.715259865,
				"y": 0.037992306,
				"z": 4.5719175484,
				"element": "H" 
			},
			{
				"x": 3.8177159542,
				"y": 2.4748356103,
				"z": 5.0720846983,
				"element": "H" 
			},
			{
				"x": 2.7846865838,
				"y": 4.0943298517,
				"z": 3.4905445947,
				"element": "H" 
			},
			{
				"x": 1.6786271585,
				"y": 3.2892320528,
				"z": 1.4253277009,
				"element": "H" 
			},
			{
				"x": -3.7706954458,
				"y": -2.6447802211,
				"z": -1.8269853823,
				"element": "H" 
			},
			{
				"x": -3.9812070874,
				"y": -3.9955917133,
				"z": -0.6918135297,
				"element": "H" 
			},
			{
				"x": -4.1306160009,
				"y": -2.3167949199,
				"z": -0.1264879833,
				"element": "H" 
			},
			{
				"x": -1.497121371,
				"y": -3.5342334807,
				"z": -2.5074968582,
				"element": "H" 
			},
			{
				"x": -1.7214162752,
				"y": -4.8889897274,
				"z": -1.389111912,
				"element": "H" 
			},
			{
				"x": -0.259964237,
				"y": -3.8974537172,
				"z": -1.2927932149,
				"element": "H" 
			},
			{
				"x": -0.8040429198,
				"y": -3.4524915268,
				"z": 1.2394122676,
				"element": "H" 
			},
			{
				"x": -2.2889656593,
				"y": -4.4026051946,
				"z": 1.1081672824,
				"element": "H" 
			},
			{
				"x": -2.3595890181,
				"y": -2.7189802812,
				"z": 1.6604418661,
				"element": "H" 
			}
		],
		 "valence_orbital": [ 
			{
				"type": "occ",
				"energy": -0.2554,
				"method": "rhf"
			},
			{
				"type": "occ",
				"energy": -0.24951,
				"method": "rhf"
			},
			{
				"type": "occ",
				"energy": -0.2421,
				"method": "rhf"
			},
			{
				"type": "occ",
				"energy": -0.23538,
				"method": "rhf"
			},
			{
				"type": "occ",
				"energy": -0.22782,
				"method": "rhf"
			},
			{
				"type": "unocc",
				"energy": -0.01252,
				"method": "rhf"
			},
			{
				"type": "unocc",
				"energy": -0.00453,
				"method": "rhf"
			},
			{
				"type": "unocc",
				"energy": 0.00217,
				"method": "rhf"
			},
			{
				"type": "unocc",
				"energy": 0.00998,
				"method": "rhf"
			},
			{
				"type": "unocc",
				"energy": 0.03334,
				"method": "rhf"
			}
		],
		"cosmo_sigma_profile": { 
			"-0.025": 0.0,
			"-0.024": 0.0,
			"-0.023": 0.0,
			"-0.022": 0.0,
			"-0.021": 0.0,
			"-0.02": 0.0,
			"-0.019": 0.0,
			"-0.018": 0.0,
			"-0.017": 0.0,
			"-0.016": 0.0,
			"-0.015": 0.0,
			"-0.014": 0.0,
			"-0.013": 0.0,
			"-0.012": 0.0,
			"-0.011": 0.0,
			"-0.01": 0.195992422186,
			"-0.009": 2.33289148293,
			"-0.008": 2.54922460304,
			"-0.007": 3.95435039334,
			"-0.006": 9.94366332999,
			"-0.005": 13.2737991598,
			"-0.004": 18.8239519004,
			"-0.003": 36.7498302971,
			"-0.002": 38.4003773631,
			"-0.001": 40.296687344,
			"0.0": 43.4909158187,
			"0.001": 49.0533783142,
			"0.002": 24.079487982,
			"0.003": 14.8365899465,
			"0.004": 15.3832105351,
			"0.005": 15.0907299876,
			"0.006": 7.05204719817,
			"0.007": 3.80574094746,
			"0.008": 2.74095912998,
			"0.009": 2.74925968289,
			"0.01": 2.93768685684,
			"0.011": 2.24675090049,
			"0.012": 3.16109399478,
			"0.013": 1.10557549146,
			"0.014": 0.0,
			"0.015": 0.0,
			"0.016": 0.0,
			"0.017": 0.0,
			"0.018": 0.0,
			"0.019": 0.0,
			"0.02": 0.0,
			"0.021": 0.0,
			"0.022": 0.0,
			"0.023": 0.0,
			"0.024": 0.0,
			"0.025": 0.0
		}
	}
}
