{
	 "smiles": "CNC1=NC(Cl)=CC(=C1)C(O)=O", 
	 "Tm": 533.15, 
	 "num_atms": 19, 
	 "gaussian": { 
		 "optdone": 1, 
		 "sigma_profile": "yes", 
		 "theory": "DFT", 
		 "functional": "B3LYP", 
		 "basiset": "6-31G**", 
		 "properties": { 
			 "R2extent": 4073.1219, 
			 "electric_dipole_moment_norm": 5.09783360458, 
			 "electric_quadrupole_moment_norm": 10.5164559163, 
			 "total_energy": -991.128390919, 
			 "HOMO_LUMO_gap": 0.15334, 
			 "cosmo_polarized_energy": -13.0, 
			 "cosmo_cavitation_energy": 25.87, 
			 "cosmo_dispersion_energy": -19.26, 
			 "cosmo_repulsion_energy": 1.56, 
			 "cosmo_total_nonelectrostatic_energy": 8.18, 
			 "SMD_solvation_energy": 3.65 
		},
		"coords": [
			{
				"x": -2.3586625069,
				"y": -0.7691407468,
				"z": -1.0881359362,
				"element": "C" 
			},
			{
				"x": -1.2241378958,
				"y": -1.6194744267,
				"z": -1.3707103923,
				"element": "N" 
			},
			{
				"x": 0.078268128,
				"y": -1.2133676139,
				"z": -1.3339570472,
				"element": "C" 
			},
			{
				"x": 0.9938219649,
				"y": -2.1869050564,
				"z": -1.527413169,
				"element": "N" 
			},
			{
				"x": 2.2677321572,
				"y": -1.8503044747,
				"z": -1.5160621396,
				"element": "C" 
			},
			{
				"x": 3.4192876014,
				"y": -3.1628143471,
				"z": -1.7741142809,
				"element": "Cl" 
			},
			{
				"x": 2.764284174,
				"y": -0.5644337186,
				"z": -1.3179443576,
				"element": "C" 
			},
			{
				"x": 1.8088267273,
				"y": 0.4377311944,
				"z": -1.1140226241,
				"element": "C" 
			},
			{
				"x": 0.4502199884,
				"y": 0.131285213,
				"z": -1.1171219819,
				"element": "C" 
			},
			{
				"x": 2.3018629915,
				"y": 1.8313306323,
				"z": -0.8939802703,
				"element": "C" 
			},
			{
				"x": 1.299690563,
				"y": 2.7232847249,
				"z": -0.7069382237,
				"element": "O" 
			},
			{
				"x": 3.4711719124,
				"y": 2.1533678077,
				"z": -0.8800240224,
				"element": "O" 
			},
			{
				"x": -3.2708562665,
				"y": -1.3610413389,
				"z": -1.1801237521,
				"element": "H" 
			},
			{
				"x": -2.4261793166,
				"y": 0.0629921561,
				"z": -1.8003264083,
				"element": "H" 
			},
			{
				"x": -2.3249526735,
				"y": -0.3486736586,
				"z": -0.0732064472,
				"element": "H" 
			},
			{
				"x": -1.3537046678,
				"y": -2.6152287302,
				"z": -1.4629585614,
				"element": "H" 
			},
			{
				"x": 3.821422783,
				"y": -0.3385196368,
				"z": -1.3165089569,
				"element": "H" 
			},
			{
				"x": -0.2878334522,
				"y": 0.905259181,
				"z": -0.9582994241,
				"element": "H" 
			},
			{
				"x": 1.7307377882,
				"y": 3.5839528393,
				"z": -0.5754520048,
				"element": "H" 
			}
		],
		 "valence_orbital": [ 
			{
				"type": "occ",
				"energy": -0.30911,
				"method": "rhf"
			},
			{
				"type": "occ",
				"energy": -0.28946,
				"method": "rhf"
			},
			{
				"type": "occ",
				"energy": -0.28155,
				"method": "rhf"
			},
			{
				"type": "occ",
				"energy": -0.27756,
				"method": "rhf"
			},
			{
				"type": "occ",
				"energy": -0.21879,
				"method": "rhf"
			},
			{
				"type": "unocc",
				"energy": -0.06545,
				"method": "rhf"
			},
			{
				"type": "unocc",
				"energy": -0.00619,
				"method": "rhf"
			},
			{
				"type": "unocc",
				"energy": 0.03775,
				"method": "rhf"
			},
			{
				"type": "unocc",
				"energy": 0.04776,
				"method": "rhf"
			},
			{
				"type": "unocc",
				"energy": 0.07081,
				"method": "rhf"
			}
		],
		"cosmo_sigma_profile": { 
			"-0.025": 0.0,
			"-0.024": 0.0,
			"-0.023": 0.0,
			"-0.022": 0.0,
			"-0.021": 0.0,
			"-0.02": 0.0,
			"-0.019": 0.438944030308,
			"-0.018": 0.942357619872,
			"-0.017": 0.695152834596,
			"-0.016": 1.12206966539,
			"-0.015": 0.777499710484,
			"-0.014": 0.667901851617,
			"-0.013": 1.49854281788,
			"-0.012": 2.57871871871,
			"-0.011": 1.71844136369,
			"-0.01": 1.02393624986,
			"-0.009": 1.39648016163,
			"-0.008": 2.05211437845,
			"-0.007": 4.23110041044,
			"-0.006": 6.93942000197,
			"-0.005": 9.63918414047,
			"-0.004": 11.667958257,
			"-0.003": 14.4699731252,
			"-0.002": 16.0117046279,
			"-0.001": 10.9693980293,
			"0.0": 20.5901983278,
			"0.001": 22.5431392978,
			"0.002": 13.9331546338,
			"0.003": 10.3461624406,
			"0.004": 13.8001099573,
			"0.005": 11.2982216176,
			"0.006": 5.6893191117,
			"0.007": 3.70838917193,
			"0.008": 3.41349787638,
			"0.009": 3.18069306469,
			"0.01": 3.38266128196,
			"0.011": 5.93522967392,
			"0.012": 1.46153097153,
			"0.013": 0.591801075324,
			"0.014": 0.0,
			"0.015": 0.0,
			"0.016": 0.0,
			"0.017": 0.0,
			"0.018": 0.0,
			"0.019": 0.0,
			"0.02": 0.0,
			"0.021": 0.0,
			"0.022": 0.0,
			"0.023": 0.0,
			"0.024": 0.0,
			"0.025": 0.0
		}
	}
}
