{
	 "smiles": "CC1=NN(C(N)=C1)C1=C(C=CC=C1)C(F)(F)F", 
	 "Tm": 376.15, 
	 "num_atms": 27, 
	 "gaussian": { 
		 "optdone": 1, 
		 "sigma_profile": "yes", 
		 "theory": "DFT", 
		 "functional": "B3LYP", 
		 "basiset": "6-31G**", 
		 "properties": { 
			 "R2extent": 5327.0604, 
			 "electric_dipole_moment_norm": 3.63239010157, 
			 "electric_quadrupole_moment_norm": 13.967124911, 
			 "total_energy": -888.956439566, 
			 "HOMO_LUMO_gap": 0.1635, 
			 "cosmo_polarized_energy": -12.89, 
			 "cosmo_cavitation_energy": 31.69, 
			 "cosmo_dispersion_energy": -22.45, 
			 "cosmo_repulsion_energy": 1.7, 
			 "cosmo_total_nonelectrostatic_energy": 10.94, 
			 "SMD_solvation_energy": 6.02 
		},
		"coords": [
			{
				"x": 2.4696794291,
				"y": -0.625309887,
				"z": -1.8853357297,
				"element": "C" 
			},
			{
				"x": 1.1950306287,
				"y": -0.8868162101,
				"z": -1.1426926235,
				"element": "C" 
			},
			{
				"x": 1.0100311727,
				"y": -0.3655908366,
				"z": 0.0623127348,
				"element": "N" 
			},
			{
				"x": -0.228570555,
				"y": -0.8362435581,
				"z": 0.4641626477,
				"element": "N" 
			},
			{
				"x": -0.815421453,
				"y": -1.6035841139,
				"z": -0.5148280935,
				"element": "C" 
			},
			{
				"x": -2.0585983538,
				"y": -2.194206879,
				"z": -0.3755045627,
				"element": "N" 
			},
			{
				"x": 0.087795153,
				"y": -1.6698628877,
				"z": -1.5598156146,
				"element": "C" 
			},
			{
				"x": -0.8038665636,
				"y": -0.2744698704,
				"z": 1.6337920642,
				"element": "C" 
			},
			{
				"x": -1.3202668502,
				"y": -1.0294138722,
				"z": 2.7057639814,
				"element": "C" 
			},
			{
				"x": -1.8800423996,
				"y": -0.3588636196,
				"z": 3.8040603828,
				"element": "C" 
			},
			{
				"x": -1.9000458033,
				"y": 1.0290386338,
				"z": 3.8697251985,
				"element": "C" 
			},
			{
				"x": -1.3454450213,
				"y": 1.7744063258,
				"z": 2.8266892999,
				"element": "C" 
			},
			{
				"x": -0.8077018916,
				"y": 1.1266117951,
				"z": 1.7216787741,
				"element": "C" 
			},
			{
				"x": -1.3185717488,
				"y": -2.5400593045,
				"z": 2.7797635113,
				"element": "C" 
			},
			{
				"x": -0.3671712326,
				"y": -3.1186048299,
				"z": 2.0345922881,
				"element": "F" 
			},
			{
				"x": -2.5177879602,
				"y": -3.0499477101,
				"z": 2.3879315391,
				"element": "F" 
			},
			{
				"x": -1.1357790477,
				"y": -2.9549010361,
				"z": 4.0554607784,
				"element": "F" 
			},
			{
				"x": 3.0999702574,
				"y": 0.0578177624,
				"z": -1.3118078969,
				"element": "H" 
			},
			{
				"x": 3.02955519,
				"y": -1.5521514959,
				"z": -2.0542712739,
				"element": "H" 
			},
			{
				"x": 2.2740096787,
				"y": -0.1796849711,
				"z": -2.8672096308,
				"element": "H" 
			},
			{
				"x": -2.6731125927,
				"y": -1.7957630039,
				"z": 0.3205182079,
				"element": "H" 
			},
			{
				"x": -2.5282515272,
				"y": -2.3671259523,
				"z": -1.2524603076,
				"element": "H" 
			},
			{
				"x": -0.0359751493,
				"y": -2.2114102184,
				"z": -2.4862286844,
				"element": "H" 
			},
			{
				"x": -2.2743480989,
				"y": -0.9460993056,
				"z": 4.6256750052,
				"element": "H" 
			},
			{
				"x": -2.3309863512,
				"y": 1.5242612638,
				"z": 4.7340687138,
				"element": "H" 
			},
			{
				"x": -1.3387690419,
				"y": 2.8593778605,
				"z": 2.8701692758,
				"element": "H" 
			},
			{
				"x": -0.3678598676,
				"y": 1.6822959211,
				"z": 0.9020900146,
				"element": "H" 
			}
		],
		 "valence_orbital": [ 
			{
				"type": "occ",
				"energy": -0.28104,
				"method": "rhf"
			},
			{
				"type": "occ",
				"energy": -0.27779,
				"method": "rhf"
			},
			{
				"type": "occ",
				"energy": -0.26939,
				"method": "rhf"
			},
			{
				"type": "occ",
				"energy": -0.22822,
				"method": "rhf"
			},
			{
				"type": "occ",
				"energy": -0.19864,
				"method": "rhf"
			},
			{
				"type": "unocc",
				"energy": -0.03514,
				"method": "rhf"
			},
			{
				"type": "unocc",
				"energy": -0.02451,
				"method": "rhf"
			},
			{
				"type": "unocc",
				"energy": 0.04304,
				"method": "rhf"
			},
			{
				"type": "unocc",
				"energy": 0.07414,
				"method": "rhf"
			},
			{
				"type": "unocc",
				"energy": 0.08828,
				"method": "rhf"
			}
		],
		"cosmo_sigma_profile": { 
			"-0.025": 0.0,
			"-0.024": 0.0,
			"-0.023": 0.0,
			"-0.022": 0.0,
			"-0.021": 0.0,
			"-0.02": 0.0,
			"-0.019": 0.0,
			"-0.018": 0.0,
			"-0.017": 0.0,
			"-0.016": 0.0,
			"-0.015": 0.0,
			"-0.014": 0.47512316382,
			"-0.013": 1.60927370969,
			"-0.012": 1.832802221,
			"-0.011": 2.06786830658,
			"-0.01": 3.3820676523,
			"-0.009": 2.05357035375,
			"-0.008": 2.63477514957,
			"-0.007": 7.47281864851,
			"-0.006": 12.1429813378,
			"-0.005": 12.8218219617,
			"-0.004": 13.6210976536,
			"-0.003": 14.8432407984,
			"-0.002": 16.414000055,
			"-0.001": 18.1843700758,
			"0.0": 21.5205916792,
			"0.001": 19.3532517736,
			"0.002": 27.5463385442,
			"0.003": 30.3944283155,
			"0.004": 9.1766270631,
			"0.005": 8.24267241802,
			"0.006": 8.54569498103,
			"0.007": 4.07396416743,
			"0.008": 2.77751456288,
			"0.009": 2.95792706343,
			"0.01": 2.10987829851,
			"0.011": 1.93594231197,
			"0.012": 1.44752233989,
			"0.013": 1.06423807665,
			"0.014": 0.553193158092,
			"0.015": 0.740490278843,
			"0.016": 1.00077529149,
			"0.017": 0.226950427579,
			"0.018": 0.0,
			"0.019": 0.0,
			"0.02": 0.0,
			"0.021": 0.0,
			"0.022": 0.0,
			"0.023": 0.0,
			"0.024": 0.0,
			"0.025": 0.0
		}
	}
}
