{
	 "smiles": "COC1=C(C=C(C(=O)C2=CC=CC=C2)C(O)=C1)S(O)(=O)=O", 
	 "Tm": 443.15, 
	 "num_atms": 33, 
	 "gaussian": { 
		 "optdone": 1, 
		 "sigma_profile": "yes", 
		 "theory": "DFT", 
		 "functional": "B3LYP", 
		 "basiset": "6-31G**", 
		 "properties": { 
			 "R2extent": 7439.2585, 
			 "electric_dipole_moment_norm": 3.69899932009, 
			 "electric_quadrupole_moment_norm": 36.64756738, 
			 "total_energy": -1390.18536594, 
			 "HOMO_LUMO_gap": 0.1652, 
			 "cosmo_polarized_energy": -19.64, 
			 "cosmo_cavitation_energy": 38.65, 
			 "cosmo_dispersion_energy": -28.31, 
			 "cosmo_repulsion_energy": 2.1, 
			 "cosmo_total_nonelectrostatic_energy": 12.44, 
			 "SMD_solvation_energy": 6.88 
		},
		"coords": [
			{
				"x": 3.1559503914,
				"y": -3.2087821751,
				"z": 2.2307573982,
				"element": "C" 
			},
			{
				"x": 2.8531129277,
				"y": -1.9047698175,
				"z": 1.7281049641,
				"element": "O" 
			},
			{
				"x": 1.7480746516,
				"y": -1.7386232745,
				"z": 0.9572260872,
				"element": "C" 
			},
			{
				"x": 1.5584143524,
				"y": -0.444950101,
				"z": 0.4083527569,
				"element": "C" 
			},
			{
				"x": 0.4351853393,
				"y": -0.1687745245,
				"z": -0.3481801833,
				"element": "C" 
			},
			{
				"x": -0.543483931,
				"y": -1.1486266946,
				"z": -0.5984666025,
				"element": "C" 
			},
			{
				"x": -1.7608756244,
				"y": -0.9008901842,
				"z": -1.387780213,
				"element": "C" 
			},
			{
				"x": -2.4623224313,
				"y": -1.8636947477,
				"z": -1.7624482297,
				"element": "O" 
			},
			{
				"x": -2.197863237,
				"y": 0.4740594552,
				"z": -1.7707400498,
				"element": "C" 
			},
			{
				"x": -2.0991787511,
				"y": 1.5779651626,
				"z": -0.9081223232,
				"element": "C" 
			},
			{
				"x": -2.5875032858,
				"y": 2.823170704,
				"z": -1.3039032553,
				"element": "C" 
			},
			{
				"x": -3.1674182079,
				"y": 2.980464416,
				"z": -2.5635098494,
				"element": "C" 
			},
			{
				"x": -3.2808362615,
				"y": 1.883320971,
				"z": -3.4225452898,
				"element": "C" 
			},
			{
				"x": -2.8131543433,
				"y": 0.6350453161,
				"z": -3.0235954931,
				"element": "C" 
			},
			{
				"x": -0.3080144685,
				"y": -2.4657125368,
				"z": -0.096723944,
				"element": "C" 
			},
			{
				"x": -1.1375915553,
				"y": -3.4738372455,
				"z": -0.3465111307,
				"element": "O" 
			},
			{
				"x": 0.8200289133,
				"y": -2.7369348719,
				"z": 0.6988389162,
				"element": "C" 
			},
			{
				"x": 2.8003505346,
				"y": 0.822145103,
				"z": 0.5925384111,
				"element": "S" 
			},
			{
				"x": 2.9832419903,
				"y": 0.8785582476,
				"z": 2.216333125,
				"element": "O" 
			},
			{
				"x": 4.0535850819,
				"y": 0.3628523084,
				"z": 0.0021924969,
				"element": "O" 
			},
			{
				"x": 2.2087834507,
				"y": 2.0992048856,
				"z": 0.2221297617,
				"element": "O" 
			},
			{
				"x": 4.0997315277,
				"y": -3.1074020792,
				"z": 2.7660651042,
				"element": "H" 
			},
			{
				"x": 3.2746489638,
				"y": -3.9227745497,
				"z": 1.4098065271,
				"element": "H" 
			},
			{
				"x": 2.3766100614,
				"y": -3.5562911054,
				"z": 2.9173311291,
				"element": "H" 
			},
			{
				"x": 0.3343463912,
				"y": 0.8265337177,
				"z": -0.7625505971,
				"element": "H" 
			},
			{
				"x": -1.673803411,
				"y": 1.4619310214,
				"z": 0.0828305903,
				"element": "H" 
			},
			{
				"x": -2.5152349277,
				"y": 3.6682125385,
				"z": -0.6262247908,
				"element": "H" 
			},
			{
				"x": -3.5370344571,
				"y": 3.9536756384,
				"z": -2.8731199973,
				"element": "H" 
			},
			{
				"x": -3.7388133595,
				"y": 2.0018636991,
				"z": -4.3999803835,
				"element": "H" 
			},
			{
				"x": -2.9129227412,
				"y": -0.2295074173,
				"z": -3.6711440514,
				"element": "H" 
			},
			{
				"x": -1.8300777596,
				"y": -3.1070948431,
				"z": -0.9715280255,
				"element": "H" 
			},
			{
				"x": 0.931706066,
				"y": -3.7436060485,
				"z": 1.0793223689,
				"element": "H" 
			},
			{
				"x": 3.3830581097,
				"y": 0.0271690317,
				"z": 2.4745447726,
				"element": "H" 
			}
		],
		 "valence_orbital": [ 
			{
				"type": "occ",
				"energy": -0.28159,
				"method": "rhf"
			},
			{
				"type": "occ",
				"energy": -0.26901,
				"method": "rhf"
			},
			{
				"type": "occ",
				"energy": -0.26827,
				"method": "rhf"
			},
			{
				"type": "occ",
				"energy": -0.26411,
				"method": "rhf"
			},
			{
				"type": "occ",
				"energy": -0.24731,
				"method": "rhf"
			},
			{
				"type": "unocc",
				"energy": -0.08211,
				"method": "rhf"
			},
			{
				"type": "unocc",
				"energy": -0.03439,
				"method": "rhf"
			},
			{
				"type": "unocc",
				"energy": -0.02528,
				"method": "rhf"
			},
			{
				"type": "unocc",
				"energy": -0.01676,
				"method": "rhf"
			},
			{
				"type": "unocc",
				"energy": 0.02968,
				"method": "rhf"
			}
		],
		"cosmo_sigma_profile": { 
			"-0.025": 0.0,
			"-0.024": 0.0,
			"-0.023": 0.0,
			"-0.022": 0.0,
			"-0.021": 0.0,
			"-0.02": 0.0,
			"-0.019": 0.0,
			"-0.018": 0.0,
			"-0.017": 0.0775211828362,
			"-0.016": 0.521685352629,
			"-0.015": 0.415121647528,
			"-0.014": 0.50789085896,
			"-0.013": 0.912015867967,
			"-0.012": 0.855872179696,
			"-0.011": 0.567031161643,
			"-0.01": 0.512115907179,
			"-0.009": 1.40222654448,
			"-0.008": 4.29213385948,
			"-0.007": 14.1321894644,
			"-0.006": 22.5437484048,
			"-0.005": 26.3505688968,
			"-0.004": 25.4816452626,
			"-0.003": 20.6027834727,
			"-0.002": 19.1999411076,
			"-0.001": 21.9440086519,
			"0.0": 21.6673194196,
			"0.001": 17.3475920158,
			"0.002": 14.609080866,
			"0.003": 15.8837024166,
			"0.004": 16.4301813737,
			"0.005": 6.13577801011,
			"0.006": 7.84056487702,
			"0.007": 8.43024760174,
			"0.008": 8.75953604431,
			"0.009": 12.7183996007,
			"0.01": 15.1477372488,
			"0.011": 4.98342989168,
			"0.012": 0.185381305779,
			"0.013": 0.0,
			"0.014": 0.0,
			"0.015": 0.0,
			"0.016": 0.0,
			"0.017": 0.0,
			"0.018": 0.0,
			"0.019": 0.0,
			"0.02": 0.0,
			"0.021": 0.0,
			"0.022": 0.0,
			"0.023": 0.0,
			"0.024": 0.0,
			"0.025": 0.0
		}
	}
}
