{
	 "smiles": "O=C1C=C(NCC2=NC=CC=C2)C(=O)C2=C1C=CC=C2", 
	 "Tm": 422.15, 
	 "num_atms": 32, 
	 "gaussian": { 
		 "optdone": 1, 
		 "sigma_profile": "yes", 
		 "theory": "DFT", 
		 "functional": "B3LYP", 
		 "basiset": "6-31G**", 
		 "properties": { 
			 "R2extent": 7352.3333, 
			 "electric_dipole_moment_norm": 3.70723533647, 
			 "electric_quadrupole_moment_norm": 17.0146722951, 
			 "total_energy": -876.878804519, 
			 "HOMO_LUMO_gap": 0.11711, 
			 "cosmo_polarized_energy": -14.43, 
			 "cosmo_cavitation_energy": 36.84, 
			 "cosmo_dispersion_energy": -26.28, 
			 "cosmo_repulsion_energy": 1.98, 
			 "cosmo_total_nonelectrostatic_energy": 12.53, 
			 "SMD_solvation_energy": 4.89 
		},
		"coords": [
			{
				"x": 2.0572911066,
				"y": -1.8249368859,
				"z": -2.710474917,
				"element": "O" 
			},
			{
				"x": 1.145855834,
				"y": -1.9246003234,
				"z": -1.8863841435,
				"element": "C" 
			},
			{
				"x": 0.4338634768,
				"y": -0.7649773054,
				"z": -1.3823779913,
				"element": "C" 
			},
			{
				"x": -0.588397088,
				"y": -0.8169045675,
				"z": -0.4699117222,
				"element": "C" 
			},
			{
				"x": -1.2704063196,
				"y": 0.3171940826,
				"z": -0.1188495429,
				"element": "N" 
			},
			{
				"x": -2.0646838651,
				"y": 0.5745385792,
				"z": 1.0885473475,
				"element": "C" 
			},
			{
				"x": -1.1947646943,
				"y": 0.8778190116,
				"z": 2.296397325,
				"element": "C" 
			},
			{
				"x": -0.4658196823,
				"y": 2.003932787,
				"z": 2.2114775068,
				"element": "N" 
			},
			{
				"x": 0.329559779,
				"y": 2.3127150989,
				"z": 3.2404553066,
				"element": "C" 
			},
			{
				"x": 0.4386159444,
				"y": 1.5323846996,
				"z": 4.3938923656,
				"element": "C" 
			},
			{
				"x": -0.3159047958,
				"y": 0.3636407111,
				"z": 4.4728423326,
				"element": "C" 
			},
			{
				"x": -1.1459090892,
				"y": 0.0255533962,
				"z": 3.4035314806,
				"element": "C" 
			},
			{
				"x": -1.0047485887,
				"y": -2.1555681279,
				"z": 0.0922661602,
				"element": "C" 
			},
			{
				"x": -1.8931691673,
				"y": -2.255697364,
				"z": 0.933872015,
				"element": "O" 
			},
			{
				"x": -0.2943754688,
				"y": -3.363915339,
				"z": -0.4082036553,
				"element": "C" 
			},
			{
				"x": 0.735891909,
				"y": -3.2642553393,
				"z": -1.3585654866,
				"element": "C" 
			},
			{
				"x": 1.3820015609,
				"y": -4.4167962579,
				"z": -1.8075533786,
				"element": "C" 
			},
			{
				"x": 1.0038066092,
				"y": -5.665675467,
				"z": -1.314793902,
				"element": "C" 
			},
			{
				"x": -0.0220812807,
				"y": -5.7675444863,
				"z": -0.3688651206,
				"element": "C" 
			},
			{
				"x": -0.6693883282,
				"y": -4.6204014541,
				"z": 0.0847564721,
				"element": "C" 
			},
			{
				"x": 0.7573598806,
				"y": 0.1904903094,
				"z": -1.7876278677,
				"element": "H" 
			},
			{
				"x": -0.8346220131,
				"y": 1.1613842465,
				"z": -0.4702540462,
				"element": "H" 
			},
			{
				"x": -2.6724054664,
				"y": 1.457574144,
				"z": 0.8678270605,
				"element": "H" 
			},
			{
				"x": -2.7211892628,
				"y": -0.268846072,
				"z": 1.2765473046,
				"element": "H" 
			},
			{
				"x": 0.9068667146,
				"y": 3.2305913756,
				"z": 3.1413890766,
				"element": "H" 
			},
			{
				"x": 1.0981968468,
				"y": 1.8357188103,
				"z": 5.2006755912,
				"element": "H" 
			},
			{
				"x": -0.2577411924,
				"y": -0.2763325054,
				"z": 5.3487614824,
				"element": "H" 
			},
			{
				"x": -1.7384528945,
				"y": -0.8833522612,
				"z": 3.413029774,
				"element": "H" 
			},
			{
				"x": 2.1747710299,
				"y": -4.3057128719,
				"z": -2.5397983283,
				"element": "H" 
			},
			{
				"x": 1.5073690094,
				"y": -6.5615912224,
				"z": -1.6665462473,
				"element": "H" 
			},
			{
				"x": -0.3153884188,
				"y": -6.741081553,
				"z": 0.012720325,
				"element": "H" 
			},
			{
				"x": -1.4675020852,
				"y": -4.6738478484,
				"z": 0.8173174231,
				"element": "H" 
			}
		],
		 "valence_orbital": [ 
			{
				"type": "occ",
				"energy": -0.26481,
				"method": "rhf"
			},
			{
				"type": "occ",
				"energy": -0.26376,
				"method": "rhf"
			},
			{
				"type": "occ",
				"energy": -0.26174,
				"method": "rhf"
			},
			{
				"type": "occ",
				"energy": -0.24358,
				"method": "rhf"
			},
			{
				"type": "occ",
				"energy": -0.21918,
				"method": "rhf"
			},
			{
				"type": "unocc",
				"energy": -0.10207,
				"method": "rhf"
			},
			{
				"type": "unocc",
				"energy": -0.0335,
				"method": "rhf"
			},
			{
				"type": "unocc",
				"energy": -0.03187,
				"method": "rhf"
			},
			{
				"type": "unocc",
				"energy": -0.01752,
				"method": "rhf"
			},
			{
				"type": "unocc",
				"energy": -0.00605,
				"method": "rhf"
			}
		],
		"cosmo_sigma_profile": { 
			"-0.025": 0.0,
			"-0.024": 0.0,
			"-0.023": 0.0,
			"-0.022": 0.0,
			"-0.021": 0.0,
			"-0.02": 0.0,
			"-0.019": 0.0,
			"-0.018": 0.0,
			"-0.017": 0.0,
			"-0.016": 0.0,
			"-0.015": 0.0,
			"-0.014": 0.309445292627,
			"-0.013": 0.917887093657,
			"-0.012": 1.43020442814,
			"-0.011": 1.15571980042,
			"-0.01": 0.569005727303,
			"-0.009": 2.08970706426,
			"-0.008": 1.4681243627,
			"-0.007": 8.72077001813,
			"-0.006": 18.2731895044,
			"-0.005": 23.4857068176,
			"-0.004": 22.1431602666,
			"-0.003": 18.7883782114,
			"-0.002": 19.2093906179,
			"-0.001": 19.3400686848,
			"0.0": 22.3827131333,
			"0.001": 27.8724890215,
			"0.002": 34.9393189826,
			"0.003": 25.4363486029,
			"0.004": 7.43072807972,
			"0.005": 5.13322357758,
			"0.006": 4.47625220089,
			"0.007": 5.06512188251,
			"0.008": 3.95253976158,
			"0.009": 3.42219105729,
			"0.01": 3.94504473165,
			"0.011": 2.98056468929,
			"0.012": 4.03342381613,
			"0.013": 5.05071706262,
			"0.014": 1.63530294139,
			"0.015": 0.638990149073,
			"0.016": 0.0,
			"0.017": 0.0,
			"0.018": 0.0,
			"0.019": 0.0,
			"0.02": 0.0,
			"0.021": 0.0,
			"0.022": 0.0,
			"0.023": 0.0,
			"0.024": 0.0,
			"0.025": 0.0
		}
	}
}
