{
	 "smiles": "CCOC(=O)C1=C(N)ON=C1C", 
	 "Tm": 407.15, 
	 "num_atms": 22, 
	 "gaussian": { 
		 "optdone": 1, 
		 "sigma_profile": "yes", 
		 "theory": "DFT", 
		 "functional": "B3LYP", 
		 "basiset": "6-31G**", 
		 "properties": { 
			 "R2extent": 2686.73, 
			 "electric_dipole_moment_norm": 4.33913589209, 
			 "electric_quadrupole_moment_norm": 6.7345346157, 
			 "total_energy": -607.930610764, 
			 "HOMO_LUMO_gap": 0.21369, 
			 "cosmo_polarized_energy": -13.72, 
			 "cosmo_cavitation_energy": 26.28, 
			 "cosmo_dispersion_energy": -19.14, 
			 "cosmo_repulsion_energy": 1.56, 
			 "cosmo_total_nonelectrostatic_energy": 8.7, 
			 "SMD_solvation_energy": 5.66 
		},
		"coords": [
			{
				"x": -2.8694036151,
				"y": 1.2417120615,
				"z": -2.3998815296,
				"element": "C" 
			},
			{
				"x": -1.8916824049,
				"y": 2.2779870934,
				"z": -1.8664111036,
				"element": "C" 
			},
			{
				"x": -0.8538597765,
				"y": 1.6634493221,
				"z": -1.0659176994,
				"element": "O" 
			},
			{
				"x": -1.1531819078,
				"y": 1.4562582887,
				"z": 0.259541884,
				"element": "C" 
			},
			{
				"x": -2.2171465377,
				"y": 1.782424933,
				"z": 0.7551606024,
				"element": "O" 
			},
			{
				"x": -0.0518892791,
				"y": 0.8242675597,
				"z": 0.9576565061,
				"element": "C" 
			},
			{
				"x": 1.1815754444,
				"y": 0.4236608127,
				"z": 0.4606388601,
				"element": "C" 
			},
			{
				"x": 1.6985010998,
				"y": 0.4368811195,
				"z": -0.7855940142,
				"element": "N" 
			},
			{
				"x": 1.9275049143,
				"y": -0.0933359256,
				"z": 1.4373240997,
				"element": "O" 
			},
			{
				"x": 1.1776489435,
				"y": -0.0525875207,
				"z": 2.6679855043,
				"element": "N" 
			},
			{
				"x": 0.0282430218,
				"y": 0.4861803664,
				"z": 2.349698595,
				"element": "C" 
			},
			{
				"x": -1.0150725859,
				"y": 0.6857537109,
				"z": 3.4021922284,
				"element": "C" 
			},
			{
				"x": -3.599143022,
				"y": 1.7235709668,
				"z": -3.0592406202,
				"element": "H" 
			},
			{
				"x": -3.4104785569,
				"y": 0.7689244636,
				"z": -1.5768918799,
				"element": "H" 
			},
			{
				"x": -2.347965079,
				"y": 0.4683333693,
				"z": -2.9719778389,
				"element": "H" 
			},
			{
				"x": -1.353839584,
				"y": 2.7770577583,
				"z": -2.6767874024,
				"element": "H" 
			},
			{
				"x": -2.4047604835,
				"y": 3.026215001,
				"z": -1.2584973053,
				"element": "H" 
			},
			{
				"x": 2.6915126981,
				"y": 0.3041866306,
				"z": -0.8957282441,
				"element": "H" 
			},
			{
				"x": 1.1880430854,
				"y": 0.9724089889,
				"z": -1.4719084335,
				"element": "H" 
			},
			{
				"x": -0.6441203042,
				"y": 0.330153911,
				"z": 4.3653773529,
				"element": "H" 
			},
			{
				"x": -1.9298903839,
				"y": 0.1472666591,
				"z": 3.1396719414,
				"element": "H" 
			},
			{
				"x": -1.2831956867,
				"y": 1.74303043,
				"z": 3.4787884968,
				"element": "H" 
			}
		],
		 "valence_orbital": [ 
			{
				"type": "occ",
				"energy": -0.30286,
				"method": "rhf"
			},
			{
				"type": "occ",
				"energy": -0.29991,
				"method": "rhf"
			},
			{
				"type": "occ",
				"energy": -0.28562,
				"method": "rhf"
			},
			{
				"type": "occ",
				"energy": -0.27362,
				"method": "rhf"
			},
			{
				"type": "occ",
				"energy": -0.22632,
				"method": "rhf"
			},
			{
				"type": "unocc",
				"energy": -0.01263,
				"method": "rhf"
			},
			{
				"type": "unocc",
				"energy": 0.01384,
				"method": "rhf"
			},
			{
				"type": "unocc",
				"energy": 0.06264,
				"method": "rhf"
			},
			{
				"type": "unocc",
				"energy": 0.09404,
				"method": "rhf"
			},
			{
				"type": "unocc",
				"energy": 0.09929,
				"method": "rhf"
			}
		],
		"cosmo_sigma_profile": { 
			"-0.025": 0.0,
			"-0.024": 0.0,
			"-0.023": 0.0,
			"-0.022": 0.0,
			"-0.021": 0.0,
			"-0.02": 0.0,
			"-0.019": 0.0,
			"-0.018": 0.0,
			"-0.017": 0.00376219842389,
			"-0.016": 0.679502383772,
			"-0.015": 1.18653531886,
			"-0.014": 1.15276167081,
			"-0.013": 1.55431516892,
			"-0.012": 1.74277126477,
			"-0.011": 2.68775653667,
			"-0.01": 1.60575891612,
			"-0.009": 1.87771630641,
			"-0.008": 1.6813015274,
			"-0.007": 1.16653411786,
			"-0.006": 3.29370843561,
			"-0.005": 10.3691514153,
			"-0.004": 15.5572789173,
			"-0.003": 19.8930717265,
			"-0.002": 20.1614011929,
			"-0.001": 25.5658743525,
			"0.0": 22.3004911942,
			"0.001": 14.9680480686,
			"0.002": 8.32157709725,
			"0.003": 6.78806843629,
			"0.004": 4.53704791243,
			"0.005": 4.80179060928,
			"0.006": 5.10130837678,
			"0.007": 4.84671055321,
			"0.008": 6.21025164327,
			"0.009": 4.58049408045,
			"0.01": 2.63237735789,
			"0.011": 4.05202988502,
			"0.012": 4.02876999848,
			"0.013": 2.83421271494,
			"0.014": 1.30779801527,
			"0.015": 0.327240848465,
			"0.016": 0.0,
			"0.017": 0.0,
			"0.018": 0.0,
			"0.019": 0.0,
			"0.02": 0.0,
			"0.021": 0.0,
			"0.022": 0.0,
			"0.023": 0.0,
			"0.024": 0.0,
			"0.025": 0.0
		}
	}
}
