{
	 "smiles": "CCOC(=O)C(CC1=CC=C(O)C=C1)NC(=O)C1=CC=CC=C1", 
	 "Tm": 393.15, 
	 "num_atms": 42, 
	 "gaussian": { 
		 "optdone": 1, 
		 "sigma_profile": "yes", 
		 "theory": "DFT", 
		 "functional": "B3LYP", 
		 "basiset": "6-31G**", 
		 "properties": { 
			 "R2extent": 6530.6675, 
			 "electric_dipole_moment_norm": 5.43664229557, 
			 "electric_quadrupole_moment_norm": 16.8374750678, 
			 "total_energy": -1053.02516873, 
			 "HOMO_LUMO_gap": 0.19296, 
			 "cosmo_polarized_energy": -22.45, 
			 "cosmo_cavitation_energy": 44.48, 
			 "cosmo_dispersion_energy": -28.16, 
			 "cosmo_repulsion_energy": 2.14, 
			 "cosmo_total_nonelectrostatic_energy": 18.46, 
			 "SMD_solvation_energy": 7.99 
		},
		"coords": [
			{
				"x": -0.8625421265,
				"y": -3.719596492,
				"z": -1.6041945611,
				"element": "C" 
			},
			{
				"x": 0.0898861341,
				"y": -3.3153590752,
				"z": -0.4959964989,
				"element": "C" 
			},
			{
				"x": 0.6724671989,
				"y": -2.0371648759,
				"z": -0.8589635963,
				"element": "O" 
			},
			{
				"x": 1.5527762009,
				"y": -1.5319830624,
				"z": 0.0200177602,
				"element": "C" 
			},
			{
				"x": 1.8971285836,
				"y": -2.1013119275,
				"z": 1.0332612054,
				"element": "O" 
			},
			{
				"x": 2.1608510113,
				"y": -0.1904160776,
				"z": -0.4211302461,
				"element": "C" 
			},
			{
				"x": 1.9827888795,
				"y": 0.2067622023,
				"z": -1.9169399967,
				"element": "C" 
			},
			{
				"x": 0.6782512253,
				"y": 0.8293242088,
				"z": -2.3721202595,
				"element": "C" 
			},
			{
				"x": 0.4711893355,
				"y": 2.2142861317,
				"z": -2.2677904344,
				"element": "C" 
			},
			{
				"x": -0.6941910417,
				"y": 2.8172180967,
				"z": -2.7337437834,
				"element": "C" 
			},
			{
				"x": -1.6864336307,
				"y": 2.035474029,
				"z": -3.3346726747,
				"element": "C" 
			},
			{
				"x": -2.8084922734,
				"y": 2.6723498052,
				"z": -3.7852756283,
				"element": "O" 
			},
			{
				"x": -1.4965414681,
				"y": 0.6552886695,
				"z": -3.4592364473,
				"element": "C" 
			},
			{
				"x": -0.3258898114,
				"y": 0.0673360421,
				"z": -2.9826564101,
				"element": "C" 
			},
			{
				"x": 1.9017997362,
				"y": 0.8933110677,
				"z": 0.5348948316,
				"element": "N" 
			},
			{
				"x": 0.7065886036,
				"y": 1.5160574497,
				"z": 0.8777766544,
				"element": "C" 
			},
			{
				"x": 0.6944421747,
				"y": 2.7238484857,
				"z": 1.0863185013,
				"element": "O" 
			},
			{
				"x": -0.5258402426,
				"y": 0.6894313261,
				"z": 1.1082084038,
				"element": "C" 
			},
			{
				"x": -1.7394770384,
				"y": 1.1311900467,
				"z": 0.5629075136,
				"element": "C" 
			},
			{
				"x": -2.9237891696,
				"y": 0.4572525094,
				"z": 0.8512493646,
				"element": "C" 
			},
			{
				"x": -2.9141009365,
				"y": -0.6399092143,
				"z": 1.7175248259,
				"element": "C" 
			},
			{
				"x": -1.7135476467,
				"y": -1.0610147781,
				"z": 2.2915015507,
				"element": "C" 
			},
			{
				"x": -0.5197371726,
				"y": -0.4025859961,
				"z": 1.9862295277,
				"element": "C" 
			},
			{
				"x": -1.6546680725,
				"y": -2.975736412,
				"z": -1.7264409301,
				"element": "H" 
			},
			{
				"x": -0.3366279032,
				"y": -3.8311100926,
				"z": -2.5572624154,
				"element": "H" 
			},
			{
				"x": -1.3272336532,
				"y": -4.6793601867,
				"z": -1.3575597233,
				"element": "H" 
			},
			{
				"x": -0.4232313645,
				"y": -3.1957813855,
				"z": 0.4620890795,
				"element": "H" 
			},
			{
				"x": 0.8975321019,
				"y": -4.0402285222,
				"z": -0.3563376104,
				"element": "H" 
			},
			{
				"x": 3.2311719814,
				"y": -0.3959176096,
				"z": -0.2992088157,
				"element": "H" 
			},
			{
				"x": 2.1989231864,
				"y": -0.6842178769,
				"z": -2.5161140542,
				"element": "H" 
			},
			{
				"x": 2.7908206368,
				"y": 0.9179935284,
				"z": -2.1291091304,
				"element": "H" 
			},
			{
				"x": 1.2314182001,
				"y": 2.8390189822,
				"z": -1.8076941791,
				"element": "H" 
			},
			{
				"x": -0.8454981943,
				"y": 3.8881481996,
				"z": -2.6487673637,
				"element": "H" 
			},
			{
				"x": -3.4014370775,
				"y": 2.0225871126,
				"z": -4.1843074167,
				"element": "H" 
			},
			{
				"x": -2.2594350007,
				"y": 0.0418529393,
				"z": -3.9351396694,
				"element": "H" 
			},
			{
				"x": -0.1897763089,
				"y": -1.0032318839,
				"z": -3.0891975411,
				"element": "H" 
			},
			{
				"x": 2.6346251615,
				"y": 1.5951147407,
				"z": 0.5275486763,
				"element": "H" 
			},
			{
				"x": -1.7402856665,
				"y": 1.9982802776,
				"z": -0.0883339319,
				"element": "H" 
			},
			{
				"x": -3.8575891647,
				"y": 0.7959827919,
				"z": 0.411610098,
				"element": "H" 
			},
			{
				"x": -3.8409545697,
				"y": -1.1555442518,
				"z": 1.95353988,
				"element": "H" 
			},
			{
				"x": -1.7035523232,
				"y": -1.8953800696,
				"z": 2.9873182674,
				"element": "H" 
			},
			{
				"x": 0.4111115054,
				"y": -0.728058853,
				"z": 2.4356971781,
				"element": "H" 
			}
		],
		 "valence_orbital": [ 
			{
				"type": "occ",
				"energy": -0.25416,
				"method": "rhf"
			},
			{
				"type": "occ",
				"energy": -0.25121,
				"method": "rhf"
			},
			{
				"type": "occ",
				"energy": -0.2494,
				"method": "rhf"
			},
			{
				"type": "occ",
				"energy": -0.23561,
				"method": "rhf"
			},
			{
				"type": "occ",
				"energy": -0.21744,
				"method": "rhf"
			},
			{
				"type": "unocc",
				"energy": -0.02448,
				"method": "rhf"
			},
			{
				"type": "unocc",
				"energy": -0.00785,
				"method": "rhf"
			},
			{
				"type": "unocc",
				"energy": -0.00343,
				"method": "rhf"
			},
			{
				"type": "unocc",
				"energy": 0.00264,
				"method": "rhf"
			},
			{
				"type": "unocc",
				"energy": 0.00968,
				"method": "rhf"
			}
		],
		"cosmo_sigma_profile": { 
			"-0.025": 0.0,
			"-0.024": 0.0,
			"-0.023": 0.0,
			"-0.022": 0.0,
			"-0.021": 0.0,
			"-0.02": 0.0,
			"-0.019": 0.0,
			"-0.018": 0.203690317525,
			"-0.017": 1.07968609338,
			"-0.016": 1.29375689118,
			"-0.015": 0.756456623395,
			"-0.014": 1.20587010247,
			"-0.013": 2.30047608423,
			"-0.012": 1.71719400981,
			"-0.011": 2.12978912729,
			"-0.01": 3.30774309169,
			"-0.009": 2.30725319867,
			"-0.008": 4.37041076846,
			"-0.007": 6.2577417648,
			"-0.006": 12.981679869,
			"-0.005": 22.2626001942,
			"-0.004": 31.1898476297,
			"-0.003": 32.8312574714,
			"-0.002": 28.7675248327,
			"-0.001": 25.3042502721,
			"0.0": 21.9500584698,
			"0.001": 19.1401100289,
			"0.002": 18.8626736247,
			"0.003": 19.9493580029,
			"0.004": 21.6622259654,
			"0.005": 18.5732468038,
			"0.006": 11.327755489,
			"0.007": 5.05739751011,
			"0.008": 3.89296736653,
			"0.009": 4.90087775318,
			"0.01": 5.1591315314,
			"0.011": 6.49952649366,
			"0.012": 6.2632313526,
			"0.013": 5.253168137,
			"0.014": 2.34912458335,
			"0.015": 0.0964365076028,
			"0.016": 0.0,
			"0.017": 0.0,
			"0.018": 0.0,
			"0.019": 0.0,
			"0.02": 0.0,
			"0.021": 0.0,
			"0.022": 0.0,
			"0.023": 0.0,
			"0.024": 0.0,
			"0.025": 0.0
		}
	}
}
