{
	 "smiles": "NC1=CC(F)=C(OC2=C3C=CC=CC3=NC=C2)C=C1", 
	 "Tm": 432.15, 
	 "num_atms": 30, 
	 "gaussian": { 
		 "optdone": 1, 
		 "sigma_profile": "yes", 
		 "theory": "DFT", 
		 "functional": "B3LYP", 
		 "basiset": "6-31G**", 
		 "properties": { 
			 "R2extent": 6058.0364, 
			 "electric_dipole_moment_norm": 5.02904058445, 
			 "electric_quadrupole_moment_norm": 26.5471633236, 
			 "total_energy": -862.784156472, 
			 "HOMO_LUMO_gap": 0.174, 
			 "cosmo_polarized_energy": -14.04, 
			 "cosmo_cavitation_energy": 35.13, 
			 "cosmo_dispersion_energy": -25.25, 
			 "cosmo_repulsion_energy": 1.91, 
			 "cosmo_total_nonelectrostatic_energy": 11.79, 
			 "SMD_solvation_energy": 4.91 
		},
		"coords": [
			{
				"x": 1.409607865,
				"y": -4.8145538401,
				"z": 0.9358235687,
				"element": "N" 
			},
			{
				"x": 1.1751290043,
				"y": -3.4827443141,
				"z": 0.6049175049,
				"element": "C" 
			},
			{
				"x": 0.5731747692,
				"y": -2.6142267817,
				"z": 1.5332647998,
				"element": "C" 
			},
			{
				"x": 0.4042135067,
				"y": -1.2766553583,
				"z": 1.2123247856,
				"element": "C" 
			},
			{
				"x": -0.1727128914,
				"y": -0.452149731,
				"z": 2.1052585188,
				"element": "F" 
			},
			{
				"x": 0.8055850734,
				"y": -0.7577323956,
				"z": -0.0207325167,
				"element": "C" 
			},
			{
				"x": 0.7066846431,
				"y": 0.5996310297,
				"z": -0.2856337976,
				"element": "O" 
			},
			{
				"x": -0.5163260292,
				"y": 1.1495362116,
				"z": -0.5630754375,
				"element": "C" 
			},
			{
				"x": -0.5404043607,
				"y": 2.5702582861,
				"z": -0.6846139771,
				"element": "C" 
			},
			{
				"x": 0.6060842831,
				"y": 3.385535961,
				"z": -0.5083619816,
				"element": "C" 
			},
			{
				"x": 0.5090353844,
				"y": 4.7535858578,
				"z": -0.6425544652,
				"element": "C" 
			},
			{
				"x": -0.7330207626,
				"y": 5.3563255243,
				"z": -0.9561670803,
				"element": "C" 
			},
			{
				"x": -1.8603790243,
				"y": 4.5844669331,
				"z": -1.1300436801,
				"element": "C" 
			},
			{
				"x": -1.7995134321,
				"y": 3.1719838775,
				"z": -0.9998384715,
				"element": "C" 
			},
			{
				"x": -2.9484971087,
				"y": 2.4530479651,
				"z": -1.1815246339,
				"element": "N" 
			},
			{
				"x": -2.8611094234,
				"y": 1.1449853541,
				"z": -1.0550451166,
				"element": "C" 
			},
			{
				"x": -1.6774757405,
				"y": 0.4320290451,
				"z": -0.7490948169,
				"element": "C" 
			},
			{
				"x": 1.4004471769,
				"y": -1.6180585216,
				"z": -0.9399669839,
				"element": "C" 
			},
			{
				"x": 1.5868431768,
				"y": -2.964410528,
				"z": -0.636597003,
				"element": "C" 
			},
			{
				"x": 0.8152660307,
				"y": -5.2000806185,
				"z": 1.6558251039,
				"element": "H" 
			},
			{
				"x": 1.5237543434,
				"y": -5.4441932497,
				"z": 0.1542390283,
				"element": "H" 
			},
			{
				"x": 0.2460069251,
				"y": -2.963919616,
				"z": 2.50716133,
				"element": "H" 
			},
			{
				"x": 1.5522724751,
				"y": 2.91489362,
				"z": -0.265781786,
				"element": "H" 
			},
			{
				"x": 1.3890862099,
				"y": 5.3752102568,
				"z": -0.5057806957,
				"element": "H" 
			},
			{
				"x": -0.7936206564,
				"y": 6.43618782,
				"z": -1.0584330881,
				"element": "H" 
			},
			{
				"x": -2.8241789694,
				"y": 5.0216828422,
				"z": -1.3694522452,
				"element": "H" 
			},
			{
				"x": -3.7827503849,
				"y": 0.5823473368,
				"z": -1.2032836029,
				"element": "H" 
			},
			{
				"x": -1.693913272,
				"y": -0.6482308653,
				"z": -0.6714876023,
				"element": "H" 
			},
			{
				"x": 1.7213534916,
				"y": -1.2149354921,
				"z": -1.8950088626,
				"element": "H" 
			},
			{
				"x": 2.059857697,
				"y": -3.6198166093,
				"z": -1.3621367952,
				"element": "H" 
			}
		],
		 "valence_orbital": [ 
			{
				"type": "occ",
				"energy": -0.25757,
				"method": "rhf"
			},
			{
				"type": "occ",
				"energy": -0.24612,
				"method": "rhf"
			},
			{
				"type": "occ",
				"energy": -0.24414,
				"method": "rhf"
			},
			{
				"type": "occ",
				"energy": -0.21941,
				"method": "rhf"
			},
			{
				"type": "occ",
				"energy": -0.21192,
				"method": "rhf"
			},
			{
				"type": "unocc",
				"energy": -0.03792,
				"method": "rhf"
			},
			{
				"type": "unocc",
				"energy": -0.01356,
				"method": "rhf"
			},
			{
				"type": "unocc",
				"energy": -0.0064,
				"method": "rhf"
			},
			{
				"type": "unocc",
				"energy": 0.00497,
				"method": "rhf"
			},
			{
				"type": "unocc",
				"energy": 0.03594,
				"method": "rhf"
			}
		],
		"cosmo_sigma_profile": { 
			"-0.025": 0.0,
			"-0.024": 0.0,
			"-0.023": 0.0,
			"-0.022": 0.0,
			"-0.021": 0.0,
			"-0.02": 0.0,
			"-0.019": 0.0,
			"-0.018": 0.0,
			"-0.017": 0.0,
			"-0.016": 0.0,
			"-0.015": 0.0,
			"-0.014": 0.0,
			"-0.013": 1.44567177915,
			"-0.012": 2.95622657093,
			"-0.011": 3.202502747,
			"-0.01": 3.20897856969,
			"-0.009": 3.19188047017,
			"-0.008": 3.62613965577,
			"-0.007": 7.83752383735,
			"-0.006": 14.9030784632,
			"-0.005": 18.4103972085,
			"-0.004": 16.2523279517,
			"-0.003": 12.9224448405,
			"-0.002": 15.0341769227,
			"-0.001": 12.9295808484,
			"0.0": 17.0251089385,
			"0.001": 25.0658747864,
			"0.002": 28.2150828871,
			"0.003": 31.5077523899,
			"0.004": 33.2290731923,
			"0.005": 11.2778175513,
			"0.006": 4.3445928551,
			"0.007": 1.99877998212,
			"0.008": 1.81160897848,
			"0.009": 3.08800172746,
			"0.01": 1.88265526366,
			"0.011": 0.599411494678,
			"0.012": 1.79725386401,
			"0.013": 1.53513910434,
			"0.014": 1.06786665317,
			"0.015": 0.712895974157,
			"0.016": 0.990336027081,
			"0.017": 0.239258327095,
			"0.018": 0.0,
			"0.019": 0.0,
			"0.02": 0.0,
			"0.021": 0.0,
			"0.022": 0.0,
			"0.023": 0.0,
			"0.024": 0.0,
			"0.025": 0.0
		}
	}
}
