{
	 "smiles": "CC=O", 
	 "Tm": 147.15, 
	 "num_atms": 7, 
	 "gaussian": { 
		 "optdone": 1, 
		 "sigma_profile": "yes", 
		 "theory": "DFT", 
		 "functional": "B3LYP", 
		 "basiset": "6-31G**", 
		 "properties": { 
			 "R2extent": 491.8517, 
			 "electric_dipole_moment_norm": 2.63944672422, 
			 "electric_quadrupole_moment_norm": 6.51267556846, 
			 "total_energy": -153.832733287, 
			 "HOMO_LUMO_gap": 0.23271, 
			 "cosmo_polarized_energy": -5.94, 
			 "cosmo_cavitation_energy": 10.58, 
			 "cosmo_dispersion_energy": -7.75, 
			 "cosmo_repulsion_energy": 0.76, 
			 "cosmo_total_nonelectrostatic_energy": 3.59, 
			 "SMD_solvation_energy": 3.56 
		},
		"coords": [
			{
				"x": 1.6569582965,
				"y": -0.1074646645,
				"z": -0.7948374229,
				"element": "C" 
			},
			{
				"x": 0.9217233453,
				"y": -0.0338009438,
				"z": -2.109379672,
				"element": "C" 
			},
			{
				"x": 0.0451286192,
				"y": 0.7610014586,
				"z": -2.364016228,
				"element": "O" 
			},
			{
				"x": 1.5311212292,
				"y": -1.1043363137,
				"z": -0.3542496031,
				"element": "H" 
			},
			{
				"x": 1.2875166365,
				"y": 0.6552341321,
				"z": -0.1072168625,
				"element": "H" 
			},
			{
				"x": 2.7328163689,
				"y": 0.0265632507,
				"z": -0.9629834341,
				"element": "H" 
			},
			{
				"x": 1.2452355044,
				"y": -0.7850969195,
				"z": -2.8670167774,
				"element": "H" 
			}
		],
		 "valence_orbital": [ 
			{
				"type": "occ",
				"energy": -0.44409,
				"method": "rhf"
			},
			{
				"type": "occ",
				"energy": -0.4331,
				"method": "rhf"
			},
			{
				"type": "occ",
				"energy": -0.39811,
				"method": "rhf"
			},
			{
				"type": "occ",
				"energy": -0.36379,
				"method": "rhf"
			},
			{
				"type": "occ",
				"energy": -0.25463,
				"method": "rhf"
			},
			{
				"type": "unocc",
				"energy": -0.02192,
				"method": "rhf"
			},
			{
				"type": "unocc",
				"energy": 0.10749,
				"method": "rhf"
			},
			{
				"type": "unocc",
				"energy": 0.13118,
				"method": "rhf"
			},
			{
				"type": "unocc",
				"energy": 0.15258,
				"method": "rhf"
			},
			{
				"type": "unocc",
				"energy": 0.15434,
				"method": "rhf"
			}
		],
		"cosmo_sigma_profile": { 
			"-0.025": 0.0,
			"-0.024": 0.0,
			"-0.023": 0.0,
			"-0.022": 0.0,
			"-0.021": 0.0,
			"-0.02": 0.0,
			"-0.019": 0.0,
			"-0.018": 0.0,
			"-0.017": 0.0,
			"-0.016": 0.0,
			"-0.015": 0.0,
			"-0.014": 0.0,
			"-0.013": 0.0,
			"-0.012": 0.0,
			"-0.011": 0.0,
			"-0.01": 0.0,
			"-0.009": 0.0,
			"-0.008": 0.0,
			"-0.007": 1.45249015735,
			"-0.006": 11.8016753726,
			"-0.005": 10.2607906619,
			"-0.004": 8.32334431007,
			"-0.003": 7.21676244992,
			"-0.002": 7.74111266835,
			"-0.001": 7.12148584526,
			"0.0": 2.57367442664,
			"0.001": 1.99033305913,
			"0.002": 2.01000290781,
			"0.003": 1.43546980218,
			"0.004": 1.29179911002,
			"0.005": 1.53677013809,
			"0.006": 1.80828805009,
			"0.007": 1.3452854794,
			"0.008": 1.81633188135,
			"0.009": 1.86447928596,
			"0.01": 2.7439760411,
			"0.011": 4.42949696454,
			"0.012": 3.72519175149,
			"0.013": 1.08938842664,
			"0.014": 0.0,
			"0.015": 0.0,
			"0.016": 0.0,
			"0.017": 0.0,
			"0.018": 0.0,
			"0.019": 0.0,
			"0.02": 0.0,
			"0.021": 0.0,
			"0.022": 0.0,
			"0.023": 0.0,
			"0.024": 0.0,
			"0.025": 0.0
		}
	}
}
