{
	 "smiles": "CC(C)(C)NC(=O)CC1(CCCC1)C(O)=O", 
	 "Tm": 475.15, 
	 "num_atms": 37, 
	 "gaussian": { 
		 "optdone": 1, 
		 "sigma_profile": "yes", 
		 "theory": "DFT", 
		 "functional": "B3LYP", 
		 "basiset": "6-31G**", 
		 "properties": { 
			 "R2extent": 4734.7966, 
			 "electric_dipole_moment_norm": 3.61059891985, 
			 "electric_quadrupole_moment_norm": 11.1367782648, 
			 "total_energy": -750.404713669, 
			 "HOMO_LUMO_gap": 0.2684, 
			 "cosmo_polarized_energy": -16.46, 
			 "cosmo_cavitation_energy": 36.57, 
			 "cosmo_dispersion_energy": -25.19, 
			 "cosmo_repulsion_energy": 1.98, 
			 "cosmo_total_nonelectrostatic_energy": 13.36, 
			 "SMD_solvation_energy": 6.94 
		},
		"coords": [
			{
				"x": -1.406200006,
				"y": -1.9607519302,
				"z": -1.5813264849,
				"element": "C" 
			},
			{
				"x": -0.0563409043,
				"y": -2.5036485406,
				"z": -1.0680994379,
				"element": "C" 
			},
			{
				"x": -0.2338804377,
				"y": -3.2308274798,
				"z": 0.2784280367,
				"element": "C" 
			},
			{
				"x": 0.5018533986,
				"y": -3.5071155998,
				"z": -2.0953620139,
				"element": "C" 
			},
			{
				"x": 0.9570636706,
				"y": -1.4258053713,
				"z": -0.9872835552,
				"element": "N" 
			},
			{
				"x": 1.1091017976,
				"y": -0.3121321468,
				"z": -0.2016074109,
				"element": "C" 
			},
			{
				"x": 2.0157510888,
				"y": 0.4815724562,
				"z": -0.4507495508,
				"element": "O" 
			},
			{
				"x": 0.1869471198,
				"y": -0.0927726459,
				"z": 0.9941754684,
				"element": "C" 
			},
			{
				"x": 0.3181725241,
				"y": 1.3203319127,
				"z": 1.5866605471,
				"element": "C" 
			},
			{
				"x": -0.1016923498,
				"y": 2.4585963975,
				"z": 0.6229182839,
				"element": "C" 
			},
			{
				"x": -0.6326424417,
				"y": 3.6211458932,
				"z": 1.5066461033,
				"element": "C" 
			},
			{
				"x": -0.7567509947,
				"y": 3.0508825415,
				"z": 2.9464268168,
				"element": "C" 
			},
			{
				"x": -0.6594277567,
				"y": 1.5247444876,
				"z": 2.7817263752,
				"element": "C" 
			},
			{
				"x": 1.741485144,
				"y": 1.4627607224,
				"z": 2.1319023122,
				"element": "C" 
			},
			{
				"x": 2.2783181915,
				"y": 2.6923269998,
				"z": 1.9571366639,
				"element": "O" 
			},
			{
				"x": 2.3208915607,
				"y": 0.5920767824,
				"z": 2.7485946789,
				"element": "O" 
			},
			{
				"x": -1.2785608294,
				"y": -1.4679200729,
				"z": -2.5499507313,
				"element": "H" 
			},
			{
				"x": -2.1254300832,
				"y": -2.7776614544,
				"z": -1.7035013426,
				"element": "H" 
			},
			{
				"x": -1.8441024886,
				"y": -1.2361535219,
				"z": -0.8895118483,
				"element": "H" 
			},
			{
				"x": 0.7342779324,
				"y": -3.5566956227,
				"z": 0.6698425213,
				"element": "H" 
			},
			{
				"x": -0.7153901408,
				"y": -2.6041434248,
				"z": 1.031361942,
				"element": "H" 
			},
			{
				"x": -0.8636824452,
				"y": -4.1153040085,
				"z": 0.138439275,
				"element": "H" 
			},
			{
				"x": -0.1958084756,
				"y": -4.3373880717,
				"z": -2.2342294153,
				"element": "H" 
			},
			{
				"x": 1.4596650891,
				"y": -3.9169898396,
				"z": -1.7591220393,
				"element": "H" 
			},
			{
				"x": 0.6516146938,
				"y": -3.0292059297,
				"z": -3.0701876236,
				"element": "H" 
			},
			{
				"x": 1.6449893147,
				"y": -1.4195710801,
				"z": -1.730598586,
				"element": "H" 
			},
			{
				"x": 0.4560527504,
				"y": -0.8230723995,
				"z": 1.7644726357,
				"element": "H" 
			},
			{
				"x": -0.8572131843,
				"y": -0.273982737,
				"z": 0.7222674841,
				"element": "H" 
			},
			{
				"x": 0.7179847755,
				"y": 2.7524936157,
				"z": -0.0316422664,
				"element": "H" 
			},
			{
				"x": -0.9068084509,
				"y": 2.0777806316,
				"z": -0.017372266,
				"element": "H" 
			},
			{
				"x": 0.0480639078,
				"y": 4.4757975481,
				"z": 1.4852213094,
				"element": "H" 
			},
			{
				"x": -1.6003985026,
				"y": 3.975007397,
				"z": 1.1365460629,
				"element": "H" 
			},
			{
				"x": 0.0711898882,
				"y": 3.4109709272,
				"z": 3.5656978202,
				"element": "H" 
			},
			{
				"x": -1.682730288,
				"y": 3.3532755002,
				"z": 3.4451449518,
				"element": "H" 
			},
			{
				"x": -1.6361166189,
				"y": 1.1113805402,
				"z": 2.4980842797,
				"element": "H" 
			},
			{
				"x": -0.3302854734,
				"y": 1.0015251525,
				"z": 3.684718424,
				"element": "H" 
			},
			{
				"x": 3.161639024,
				"y": 2.6503723715,
				"z": 2.3606325799,
				"element": "H" 
			}
		],
		 "valence_orbital": [ 
			{
				"type": "occ",
				"energy": -0.31207,
				"method": "rhf"
			},
			{
				"type": "occ",
				"energy": -0.29773,
				"method": "rhf"
			},
			{
				"type": "occ",
				"energy": -0.25616,
				"method": "rhf"
			},
			{
				"type": "occ",
				"energy": -0.24609,
				"method": "rhf"
			},
			{
				"type": "occ",
				"energy": -0.24274,
				"method": "rhf"
			},
			{
				"type": "unocc",
				"energy": 0.02566,
				"method": "rhf"
			},
			{
				"type": "unocc",
				"energy": 0.03036,
				"method": "rhf"
			},
			{
				"type": "unocc",
				"energy": 0.06365,
				"method": "rhf"
			},
			{
				"type": "unocc",
				"energy": 0.07806,
				"method": "rhf"
			},
			{
				"type": "unocc",
				"energy": 0.08753,
				"method": "rhf"
			}
		],
		"cosmo_sigma_profile": { 
			"-0.025": 0.0,
			"-0.024": 0.0,
			"-0.023": 0.0,
			"-0.022": 0.0,
			"-0.021": 0.0,
			"-0.02": 0.0,
			"-0.019": 0.0,
			"-0.018": 0.500840543283,
			"-0.017": 0.870420824372,
			"-0.016": 0.867092462371,
			"-0.015": 0.781987611398,
			"-0.014": 0.630874456684,
			"-0.013": 0.608882693455,
			"-0.012": 0.930153577381,
			"-0.011": 1.46599289256,
			"-0.01": 1.04166042071,
			"-0.009": 2.01900217168,
			"-0.008": 1.78967563662,
			"-0.007": 1.8754933355,
			"-0.006": 4.87744521984,
			"-0.005": 7.73497369397,
			"-0.004": 21.2583663484,
			"-0.003": 32.4036096835,
			"-0.002": 36.9875594647,
			"-0.001": 35.5827514323,
			"0.0": 38.1168876484,
			"0.001": 28.1461855245,
			"0.002": 9.04691115723,
			"0.003": 4.61886658681,
			"0.004": 5.30909160096,
			"0.005": 4.21509414032,
			"0.006": 4.45173838338,
			"0.007": 4.16505275079,
			"0.008": 4.76230424315,
			"0.009": 3.64934347618,
			"0.01": 3.77311126361,
			"0.011": 4.20091893017,
			"0.012": 7.16904541071,
			"0.013": 4.32876073709,
			"0.014": 3.2070691127,
			"0.015": 0.714456648338,
			"0.016": 0.0,
			"0.017": 0.0,
			"0.018": 0.0,
			"0.019": 0.0,
			"0.02": 0.0,
			"0.021": 0.0,
			"0.022": 0.0,
			"0.023": 0.0,
			"0.024": 0.0,
			"0.025": 0.0
		}
	}
}
