{
	 "smiles": "CCCC1=NOC2=C1C(=CC(=N2)C1CC1)C(O)=O", 
	 "Tm": 416.15, 
	 "num_atms": 32, 
	 "gaussian": { 
		 "optdone": 1, 
		 "sigma_profile": "yes", 
		 "theory": "DFT", 
		 "functional": "B3LYP", 
		 "basiset": "6-31G**", 
		 "properties": { 
			 "R2extent": 5088.4697, 
			 "electric_dipole_moment_norm": 4.87721546172, 
			 "electric_quadrupole_moment_norm": 6.03005567304, 
			 "total_energy": -838.955053103, 
			 "HOMO_LUMO_gap": 0.1612, 
			 "cosmo_polarized_energy": -13.12, 
			 "cosmo_cavitation_energy": 35.52, 
			 "cosmo_dispersion_energy": -25.51, 
			 "cosmo_repulsion_energy": 1.98, 
			 "cosmo_total_nonelectrostatic_energy": 11.99, 
			 "SMD_solvation_energy": 5.42 
		},
		"coords": [
			{
				"x": -2.7635251476,
				"y": 3.9191687322,
				"z": 0.1069713248,
				"element": "C" 
			},
			{
				"x": -1.4744103009,
				"y": 3.7846256919,
				"z": -0.7084896356,
				"element": "C" 
			},
			{
				"x": -1.4889842565,
				"y": 2.6145614403,
				"z": -1.716983118,
				"element": "C" 
			},
			{
				"x": -1.558170821,
				"y": 1.2597951915,
				"z": -1.0700609099,
				"element": "C" 
			},
			{
				"x": -2.7168306,
				"y": 0.6427767338,
				"z": -1.0686009223,
				"element": "N" 
			},
			{
				"x": -2.5706113727,
				"y": -0.5811832029,
				"z": -0.3880936437,
				"element": "O" 
			},
			{
				"x": -1.2895284933,
				"y": -0.6780274632,
				"z": 0.0182448078,
				"element": "C" 
			},
			{
				"x": -0.5646002245,
				"y": 0.4604190056,
				"z": -0.3835243947,
				"element": "C" 
			},
			{
				"x": 0.8031649283,
				"y": 0.4668921666,
				"z": -0.0262800148,
				"element": "C" 
			},
			{
				"x": 1.2793801826,
				"y": -0.6311112862,
				"z": 0.6897304615,
				"element": "C" 
			},
			{
				"x": 0.4310048101,
				"y": -1.7089891332,
				"z": 1.0335746669,
				"element": "C" 
			},
			{
				"x": -0.8651972728,
				"y": -1.7340555994,
				"z": 0.6907912309,
				"element": "N" 
			},
			{
				"x": 0.9625965126,
				"y": -2.8657801568,
				"z": 1.793628418,
				"element": "C" 
			},
			{
				"x": 0.4207497621,
				"y": -4.2604883956,
				"z": 1.5156678566,
				"element": "C" 
			},
			{
				"x": 0.0690728206,
				"y": -3.5793386982,
				"z": 2.7978659709,
				"element": "C" 
			},
			{
				"x": 1.7351439334,
				"y": 1.5668554576,
				"z": -0.4096785385,
				"element": "C" 
			},
			{
				"x": 2.9618405468,
				"y": 1.4294953828,
				"z": 0.1456265898,
				"element": "O" 
			},
			{
				"x": 1.4652416526,
				"y": 2.495778739,
				"z": -1.1438671469,
				"element": "O" 
			},
			{
				"x": -3.6294755918,
				"y": 4.0797490011,
				"z": -0.544808378,
				"element": "H" 
			},
			{
				"x": -2.9651451411,
				"y": 3.0204414699,
				"z": 0.6982987576,
				"element": "H" 
			},
			{
				"x": -2.7019810813,
				"y": 4.7674212867,
				"z": 0.7966418974,
				"element": "H" 
			},
			{
				"x": -1.3006938286,
				"y": 4.7064786003,
				"z": -1.2766640801,
				"element": "H" 
			},
			{
				"x": -0.6116779574,
				"y": 3.6739150258,
				"z": -0.0430286053,
				"element": "H" 
			},
			{
				"x": -0.5929061523,
				"y": 2.6658823803,
				"z": -2.337396695,
				"element": "H" 
			},
			{
				"x": -2.3662287553,
				"y": 2.7045934691,
				"z": -2.3666003628,
				"element": "H" 
			},
			{
				"x": 2.3210339668,
				"y": -0.6628904138,
				"z": 0.9822358829,
				"element": "H" 
			},
			{
				"x": 2.0166374941,
				"y": -2.7929988088,
				"z": 2.0442036779,
				"element": "H" 
			},
			{
				"x": -0.3519541224,
				"y": -4.3275598811,
				"z": 0.7568472547,
				"element": "H" 
			},
			{
				"x": 1.1319656923,
				"y": -5.0805343876,
				"z": 1.5323198861,
				"element": "H" 
			},
			{
				"x": 0.5320780666,
				"y": -3.91867247,
				"z": 3.719309241,
				"element": "H" 
			},
			{
				"x": -0.9391018817,
				"y": -3.1906460533,
				"z": 2.8973632626,
				"element": "H" 
			},
			{
				"x": 3.4865126322,
				"y": 2.1794261756,
				"z": -0.180144742,
				"element": "H" 
			}
		],
		 "valence_orbital": [ 
			{
				"type": "occ",
				"energy": -0.3096,
				"method": "rhf"
			},
			{
				"type": "occ",
				"energy": -0.29932,
				"method": "rhf"
			},
			{
				"type": "occ",
				"energy": -0.28056,
				"method": "rhf"
			},
			{
				"type": "occ",
				"energy": -0.26797,
				"method": "rhf"
			},
			{
				"type": "occ",
				"energy": -0.24868,
				"method": "rhf"
			},
			{
				"type": "unocc",
				"energy": -0.08748,
				"method": "rhf"
			},
			{
				"type": "unocc",
				"energy": -0.02085,
				"method": "rhf"
			},
			{
				"type": "unocc",
				"energy": 0.02281,
				"method": "rhf"
			},
			{
				"type": "unocc",
				"energy": 0.03795,
				"method": "rhf"
			},
			{
				"type": "unocc",
				"energy": 0.06286,
				"method": "rhf"
			}
		],
		"cosmo_sigma_profile": { 
			"-0.025": 0.0,
			"-0.024": 0.0,
			"-0.023": 0.0,
			"-0.022": 0.0,
			"-0.021": 0.0,
			"-0.02": 0.0,
			"-0.019": 0.347987358816,
			"-0.018": 1.39500896197,
			"-0.017": 0.437593146206,
			"-0.016": 0.77968676285,
			"-0.015": 1.06854200387,
			"-0.014": 0.564273122669,
			"-0.013": 0.762888208154,
			"-0.012": 0.621101019516,
			"-0.011": 0.695461168313,
			"-0.01": 0.649463803249,
			"-0.009": 0.372672355909,
			"-0.008": 2.41268189213,
			"-0.007": 3.03663252046,
			"-0.006": 4.26627462089,
			"-0.005": 10.3004046314,
			"-0.004": 15.363301045,
			"-0.003": 26.8583225156,
			"-0.002": 35.3300240848,
			"-0.001": 39.2053429193,
			"0.0": 30.2032563034,
			"0.001": 23.9977285929,
			"0.002": 17.6610704091,
			"0.003": 10.9081979664,
			"0.004": 9.06436160854,
			"0.005": 8.43564748697,
			"0.006": 6.4332457584,
			"0.007": 8.50762887691,
			"0.008": 7.45233429964,
			"0.009": 4.7786886751,
			"0.01": 3.55384056718,
			"0.011": 3.07639965731,
			"0.012": 1.74560450146,
			"0.013": 1.04539858454,
			"0.014": 0.361306946166,
			"0.015": 0.0,
			"0.016": 0.0,
			"0.017": 0.0,
			"0.018": 0.0,
			"0.019": 0.0,
			"0.02": 0.0,
			"0.021": 0.0,
			"0.022": 0.0,
			"0.023": 0.0,
			"0.024": 0.0,
			"0.025": 0.0
		}
	}
}
