{
	 "smiles": "CCCCC1=NC(N)=NC=C1", 
	 "Tm": 373.15, 
	 "num_atms": 24, 
	 "gaussian": { 
		 "optdone": 1, 
		 "sigma_profile": "yes", 
		 "theory": "DFT", 
		 "functional": "B3LYP", 
		 "basiset": "6-31G**", 
		 "properties": { 
			 "R2extent": 2749.352, 
			 "electric_dipole_moment_norm": 0.890688458441, 
			 "electric_quadrupole_moment_norm": 10.0836041022, 
			 "total_energy": -476.96925909, 
			 "HOMO_LUMO_gap": 0.19714, 
			 "cosmo_polarized_energy": -8.81, 
			 "cosmo_cavitation_energy": 26.85, 
			 "cosmo_dispersion_energy": -19.28, 
			 "cosmo_repulsion_energy": 1.59, 
			 "cosmo_total_nonelectrostatic_energy": 9.17, 
			 "SMD_solvation_energy": 1.72 
		},
		"coords": [
			{
				"x": -1.94366541,
				"y": -1.6007359378,
				"z": -0.6657431422,
				"element": "C" 
			},
			{
				"x": -1.4826966804,
				"y": -0.4368378643,
				"z": 0.2196494181,
				"element": "C" 
			},
			{
				"x": -0.5992828333,
				"y": 0.5980746934,
				"z": -0.4958687165,
				"element": "C" 
			},
			{
				"x": 0.7762615587,
				"y": 0.0751976032,
				"z": -0.9609682378,
				"element": "C" 
			},
			{
				"x": 1.6866390159,
				"y": -0.3096136822,
				"z": 0.1833329949,
				"element": "C" 
			},
			{
				"x": 2.0024832941,
				"y": 0.6642185243,
				"z": 1.0478452706,
				"element": "N" 
			},
			{
				"x": 2.8138681262,
				"y": 0.3303322837,
				"z": 2.0675834067,
				"element": "C" 
			},
			{
				"x": 3.1731763104,
				"y": 1.3344894917,
				"z": 2.9214526991,
				"element": "N" 
			},
			{
				"x": 3.3320331715,
				"y": -0.8897166846,
				"z": 2.3214925482,
				"element": "N" 
			},
			{
				"x": 3.0003270268,
				"y": -1.8385245543,
				"z": 1.4460037185,
				"element": "C" 
			},
			{
				"x": 2.1782506634,
				"y": -1.6105312409,
				"z": 0.3437704712,
				"element": "C" 
			},
			{
				"x": -1.1019145355,
				"y": -2.2045643923,
				"z": -1.0211075968,
				"element": "H" 
			},
			{
				"x": -2.4847596159,
				"y": -1.2371993611,
				"z": -1.5473527937,
				"element": "H" 
			},
			{
				"x": -2.6144971992,
				"y": -2.2705658022,
				"z": -0.1177676347,
				"element": "H" 
			},
			{
				"x": -0.9484806139,
				"y": -0.8304545764,
				"z": 1.0939623097,
				"element": "H" 
			},
			{
				"x": -2.3661789876,
				"y": 0.0809361867,
				"z": 0.6142592085,
				"element": "H" 
			},
			{
				"x": -0.4224635783,
				"y": 1.4469968903,
				"z": 0.1733277737,
				"element": "H" 
			},
			{
				"x": -1.1353615995,
				"y": 0.9885053337,
				"z": -1.3710122009,
				"element": "H" 
			},
			{
				"x": 0.6604585609,
				"y": -0.7766237685,
				"z": -1.6392381968,
				"element": "H" 
			},
			{
				"x": 1.2723300834,
				"y": 0.8712022902,
				"z": -1.5298345169,
				"element": "H" 
			},
			{
				"x": 3.5962881447,
				"y": 1.0659570617,
				"z": 3.7950763149,
				"element": "H" 
			},
			{
				"x": 2.6388708526,
				"y": 2.1872048201,
				"z": 2.8814997725,
				"element": "H" 
			},
			{
				"x": 3.4099643997,
				"y": -2.8298921001,
				"z": 1.6379246365,
				"element": "H" 
			},
			{
				"x": 1.9276498454,
				"y": -2.4037552142,
				"z": -0.3509875067,
				"element": "H" 
			}
		],
		 "valence_orbital": [ 
			{
				"type": "occ",
				"energy": -0.31559,
				"method": "rhf"
			},
			{
				"type": "occ",
				"energy": -0.30034,
				"method": "rhf"
			},
			{
				"type": "occ",
				"energy": -0.28947,
				"method": "rhf"
			},
			{
				"type": "occ",
				"energy": -0.23861,
				"method": "rhf"
			},
			{
				"type": "occ",
				"energy": -0.22187,
				"method": "rhf"
			},
			{
				"type": "unocc",
				"energy": -0.02473,
				"method": "rhf"
			},
			{
				"type": "unocc",
				"energy": 0.00963,
				"method": "rhf"
			},
			{
				"type": "unocc",
				"energy": 0.08674,
				"method": "rhf"
			},
			{
				"type": "unocc",
				"energy": 0.09772,
				"method": "rhf"
			},
			{
				"type": "unocc",
				"energy": 0.112,
				"method": "rhf"
			}
		],
		"cosmo_sigma_profile": { 
			"-0.025": 0.0,
			"-0.024": 0.0,
			"-0.023": 0.0,
			"-0.022": 0.0,
			"-0.021": 0.0,
			"-0.02": 0.0,
			"-0.019": 0.0,
			"-0.018": 0.0,
			"-0.017": 0.0,
			"-0.016": 0.0,
			"-0.015": 0.0,
			"-0.014": 0.273736378118,
			"-0.013": 1.55005137266,
			"-0.012": 2.2585778373,
			"-0.011": 1.85196275473,
			"-0.01": 2.22749856784,
			"-0.009": 1.38128045901,
			"-0.008": 2.2220288842,
			"-0.007": 2.89833593843,
			"-0.006": 4.77210368741,
			"-0.005": 6.92816756335,
			"-0.004": 9.58768295841,
			"-0.003": 12.1538098292,
			"-0.002": 20.9680449722,
			"-0.001": 25.3206378079,
			"0.0": 28.9358782743,
			"0.001": 29.6141014896,
			"0.002": 16.1481314755,
			"0.003": 8.09493187727,
			"0.004": 4.27297493236,
			"0.005": 4.64110922473,
			"0.006": 4.43785940738,
			"0.007": 3.97454267744,
			"0.008": 2.92685281918,
			"0.009": 3.00794857355,
			"0.01": 2.80827654038,
			"0.011": 1.86294156779,
			"0.012": 1.33978205965,
			"0.013": 1.43977634856,
			"0.014": 1.35569821808,
			"0.015": 0.765951740395,
			"0.016": 0.296950788126,
			"0.017": 0.0,
			"0.018": 0.0,
			"0.019": 0.0,
			"0.02": 0.0,
			"0.021": 0.0,
			"0.022": 0.0,
			"0.023": 0.0,
			"0.024": 0.0,
			"0.025": 0.0
		}
	}
}
