{
	 "smiles": "BrC1=CC=C(NN=C2C(=O)NC(=S)NC2=O)C=C1", 
	 "Tm": 541.15, 
	 "num_atms": 25, 
	 "gaussian": { 
		 "optdone": 1, 
		 "sigma_profile": "yes", 
		 "theory": "DFT", 
		 "functional": "B3LYP", 
		 "basiset": "6-31G**", 
		 "properties": { 
			 "R2extent": 12316.2229, 
			 "electric_dipole_moment_norm": 3.33217177528, 
			 "electric_quadrupole_moment_norm": 14.5791606747, 
			 "total_energy": -3724.34440539, 
			 "HOMO_LUMO_gap": 0.12362, 
			 "cosmo_polarized_energy": -19.27, 
			 "cosmo_cavitation_energy": 35.62, 
			 "cosmo_dispersion_energy": -27.06, 
			 "cosmo_repulsion_energy": 2.03, 
			 "cosmo_total_nonelectrostatic_energy": 10.6, 
			 "SMD_solvation_energy": 4.64 
		},
		"coords": [
			{
				"x": -4.9351980783,
				"y": 2.9550348368,
				"z": -3.5029232387,
				"element": "Br" 
			},
			{
				"x": -3.4224558159,
				"y": 2.4371229702,
				"z": -2.4648129765,
				"element": "C" 
			},
			{
				"x": -3.1915082317,
				"y": 1.0826226891,
				"z": -2.2117977286,
				"element": "C" 
			},
			{
				"x": -2.0900464716,
				"y": 0.697303537,
				"z": -1.4556131437,
				"element": "C" 
			},
			{
				"x": -1.2220545684,
				"y": 1.676521874,
				"z": -0.9547982835,
				"element": "C" 
			},
			{
				"x": -0.0946735321,
				"y": 1.3374856052,
				"z": -0.1852897097,
				"element": "N" 
			},
			{
				"x": 0.180876265,
				"y": 0.0986178339,
				"z": 0.0898172816,
				"element": "N" 
			},
			{
				"x": 1.242823857,
				"y": -0.2091010765,
				"z": 0.813249731,
				"element": "C" 
			},
			{
				"x": 2.1711217647,
				"y": 0.7832400411,
				"z": 1.3508266928,
				"element": "C" 
			},
			{
				"x": 2.0578885421,
				"y": 2.0043183446,
				"z": 1.1843956155,
				"element": "O" 
			},
			{
				"x": 3.2348502909,
				"y": 0.2819340741,
				"z": 2.089846617,
				"element": "N" 
			},
			{
				"x": 3.5050377785,
				"y": -1.0420778044,
				"z": 2.3676786006,
				"element": "C" 
			},
			{
				"x": 4.8197184285,
				"y": -1.5055020558,
				"z": 3.2703749706,
				"element": "S" 
			},
			{
				"x": 2.602681203,
				"y": -1.9250660354,
				"z": 1.8386261048,
				"element": "N" 
			},
			{
				"x": 1.4568522456,
				"y": -1.6488428157,
				"z": 1.0628153148,
				"element": "C" 
			},
			{
				"x": 0.7559959329,
				"y": -2.5605274536,
				"z": 0.6697437072,
				"element": "O" 
			},
			{
				"x": -1.4576862298,
				"y": 3.0326079169,
				"z": -1.2108905972,
				"element": "C" 
			},
			{
				"x": -2.5615718436,
				"y": 3.415133338,
				"z": -1.9685010682,
				"element": "C" 
			},
			{
				"x": -3.8696972954,
				"y": 0.3338144252,
				"z": -2.6043589616,
				"element": "H" 
			},
			{
				"x": -1.893235929,
				"y": -0.3478278081,
				"z": -1.2480876215,
				"element": "H" 
			},
			{
				"x": 0.5384355271,
				"y": 2.0635632349,
				"z": 0.1775566403,
				"element": "H" 
			},
			{
				"x": 3.8834549722,
				"y": 0.9633291632,
				"z": 2.4664528061,
				"element": "H" 
			},
			{
				"x": 2.7724769774,
				"y": -2.9063475014,
				"z": 2.024931934,
				"element": "H" 
			},
			{
				"x": -0.7814976799,
				"y": 3.7879708822,
				"z": -0.8201066067,
				"element": "H" 
			},
			{
				"x": -2.7495881091,
				"y": 4.4630717845,
				"z": -2.1703360807,
				"element": "H" 
			}
		],
		 "valence_orbital": [ 
			{
				"type": "occ",
				"energy": -0.28767,
				"method": "rhf"
			},
			{
				"type": "occ",
				"energy": -0.2856,
				"method": "rhf"
			},
			{
				"type": "occ",
				"energy": -0.25621,
				"method": "rhf"
			},
			{
				"type": "occ",
				"energy": -0.23849,
				"method": "rhf"
			},
			{
				"type": "occ",
				"energy": -0.23574,
				"method": "rhf"
			},
			{
				"type": "unocc",
				"energy": -0.11212,
				"method": "rhf"
			},
			{
				"type": "unocc",
				"energy": -0.04091,
				"method": "rhf"
			},
			{
				"type": "unocc",
				"energy": -0.03447,
				"method": "rhf"
			},
			{
				"type": "unocc",
				"energy": -0.01967,
				"method": "rhf"
			},
			{
				"type": "unocc",
				"energy": -0.00899,
				"method": "rhf"
			}
		],
		"cosmo_sigma_profile": { 
			"-0.025": 0.0,
			"-0.024": 0.0,
			"-0.023": 0.0,
			"-0.022": 0.0,
			"-0.021": 0.0,
			"-0.02": 0.0,
			"-0.019": 0.0,
			"-0.018": 0.0,
			"-0.017": 0.172193880598,
			"-0.016": 1.6243534871,
			"-0.015": 1.72605907816,
			"-0.014": 1.25953730609,
			"-0.013": 2.74124758963,
			"-0.012": 2.41569154634,
			"-0.011": 2.30827773342,
			"-0.01": 3.15908475922,
			"-0.009": 4.42960845282,
			"-0.008": 7.07716452906,
			"-0.007": 11.4814984242,
			"-0.006": 15.1655292182,
			"-0.005": 15.6156473992,
			"-0.004": 15.5889226572,
			"-0.003": 17.3618245868,
			"-0.002": 16.8856222689,
			"-0.001": 14.7616240149,
			"0.0": 16.6575207407,
			"0.001": 22.1904496888,
			"0.002": 26.6864878315,
			"0.003": 16.0201964009,
			"0.004": 16.9790387065,
			"0.005": 10.1462659374,
			"0.006": 6.37506386426,
			"0.007": 9.84286411093,
			"0.008": 8.0069778363,
			"0.009": 8.31678202621,
			"0.01": 5.62941529879,
			"0.011": 6.19509617068,
			"0.012": 4.85931487644,
			"0.013": 1.85584440722,
			"0.014": 0.094818409376,
			"0.015": 0.0,
			"0.016": 0.0,
			"0.017": 0.0,
			"0.018": 0.0,
			"0.019": 0.0,
			"0.02": 0.0,
			"0.021": 0.0,
			"0.022": 0.0,
			"0.023": 0.0,
			"0.024": 0.0,
			"0.025": 0.0
		}
	}
}
