{
	 "smiles": "NC(CO)(CC1=CC=CC=C1)C(O)=O", 
	 "Tm": 527.15, 
	 "num_atms": 27, 
	 "gaussian": { 
		 "optdone": 1, 
		 "sigma_profile": "yes", 
		 "theory": "DFT", 
		 "functional": "B3LYP", 
		 "basiset": "6-31G**", 
		 "properties": { 
			 "R2extent": 3603.1846, 
			 "electric_dipole_moment_norm": 4.68684274966, 
			 "electric_quadrupole_moment_norm": 23.9203443368, 
			 "total_energy": -669.326976671, 
			 "HOMO_LUMO_gap": 0.23468, 
			 "cosmo_polarized_energy": -17.71, 
			 "cosmo_cavitation_energy": 29.44, 
			 "cosmo_dispersion_energy": -20.99, 
			 "cosmo_repulsion_energy": 1.65, 
			 "cosmo_total_nonelectrostatic_energy": 10.1, 
			 "SMD_solvation_energy": 5.68 
		},
		"coords": [
			{
				"x": -1.9220282913,
				"y": -1.9597824567,
				"z": -0.2221783867,
				"element": "N" 
			},
			{
				"x": -0.5210209392,
				"y": -2.3745628537,
				"z": -0.2611195395,
				"element": "C" 
			},
			{
				"x": -0.0570737476,
				"y": -2.2787115114,
				"z": -1.7228658366,
				"element": "C" 
			},
			{
				"x": 1.3402713841,
				"y": -2.6065530424,
				"z": -1.7891491622,
				"element": "O" 
			},
			{
				"x": 0.3198375592,
				"y": -1.4339242591,
				"z": 0.664399454,
				"element": "C" 
			},
			{
				"x": 0.4420281305,
				"y": -0.0000653215,
				"z": 0.1933803666,
				"element": "C" 
			},
			{
				"x": 1.629552893,
				"y": 0.4490807761,
				"z": -0.4022438297,
				"element": "C" 
			},
			{
				"x": 1.7633160491,
				"y": 1.7715205644,
				"z": -0.8296902057,
				"element": "C" 
			},
			{
				"x": 0.7067151587,
				"y": 2.6685753712,
				"z": -0.6680580367,
				"element": "C" 
			},
			{
				"x": -0.4821361774,
				"y": 2.2328244068,
				"z": -0.078408715,
				"element": "C" 
			},
			{
				"x": -0.6132993306,
				"y": 0.9112957264,
				"z": 0.348755325,
				"element": "C" 
			},
			{
				"x": -0.3598756495,
				"y": -3.8144521359,
				"z": 0.3140259119,
				"element": "C" 
			},
			{
				"x": 0.7459928983,
				"y": -4.4958420752,
				"z": -0.030127461,
				"element": "O" 
			},
			{
				"x": -1.1754516744,
				"y": -4.27982301,
				"z": 1.07894004,
				"element": "O" 
			},
			{
				"x": -2.4500588699,
				"y": -2.4876435256,
				"z": -0.9166220989,
				"element": "H" 
			},
			{
				"x": -2.296213236,
				"y": -2.2766085484,
				"z": 0.6720996167,
				"element": "H" 
			},
			{
				"x": -0.2306679958,
				"y": -1.2573641933,
				"z": -2.0759987094,
				"element": "H" 
			},
			{
				"x": -0.6429921386,
				"y": -2.9733514722,
				"z": -2.3431763065,
				"element": "H" 
			},
			{
				"x": 1.6175068901,
				"y": -2.6252326396,
				"z": -2.7133108467,
				"element": "H" 
			},
			{
				"x": -0.1529515636,
				"y": -1.4713172952,
				"z": 1.652762753,
				"element": "H" 
			},
			{
				"x": 1.3186785353,
				"y": -1.8648578139,
				"z": 0.7790499058,
				"element": "H" 
			},
			{
				"x": 2.4532795591,
				"y": -0.2475744586,
				"z": -0.5324821238,
				"element": "H" 
			},
			{
				"x": 2.6943974058,
				"y": 2.1008660077,
				"z": -1.2829732074,
				"element": "H" 
			},
			{
				"x": 0.8092222756,
				"y": 3.699486293,
				"z": -0.9951377795,
				"element": "H" 
			},
			{
				"x": -1.3093374268,
				"y": 2.9249851888,
				"z": 0.0529622623,
				"element": "H" 
			},
			{
				"x": -1.5423162768,
				"y": 0.5740909777,
				"z": 0.7955135979,
				"element": "H" 
			},
			{
				"x": 1.2513245787,
				"y": -3.9723586994,
				"z": -0.6903469878,
				"element": "H" 
			}
		],
		 "valence_orbital": [ 
			{
				"type": "occ",
				"energy": -0.30435,
				"method": "rhf"
			},
			{
				"type": "occ",
				"energy": -0.27034,
				"method": "rhf"
			},
			{
				"type": "occ",
				"energy": -0.25212,
				"method": "rhf"
			},
			{
				"type": "occ",
				"energy": -0.24382,
				"method": "rhf"
			},
			{
				"type": "occ",
				"energy": -0.23943,
				"method": "rhf"
			},
			{
				"type": "unocc",
				"energy": -0.00475,
				"method": "rhf"
			},
			{
				"type": "unocc",
				"energy": 0.00176,
				"method": "rhf"
			},
			{
				"type": "unocc",
				"energy": 0.01939,
				"method": "rhf"
			},
			{
				"type": "unocc",
				"energy": 0.04021,
				"method": "rhf"
			},
			{
				"type": "unocc",
				"energy": 0.07908,
				"method": "rhf"
			}
		],
		"cosmo_sigma_profile": { 
			"-0.025": 0.0,
			"-0.024": 0.0,
			"-0.023": 0.0,
			"-0.022": 0.0,
			"-0.021": 0.0,
			"-0.02": 0.0,
			"-0.019": 0.0,
			"-0.018": 0.457706802256,
			"-0.017": 1.14523218614,
			"-0.016": 1.11635128746,
			"-0.015": 1.12289781851,
			"-0.014": 0.960202689392,
			"-0.013": 0.539448575955,
			"-0.012": 0.803045771158,
			"-0.011": 2.32083907204,
			"-0.01": 3.37553448157,
			"-0.009": 2.69685889752,
			"-0.008": 4.14208276795,
			"-0.007": 6.04846804134,
			"-0.006": 9.30562939322,
			"-0.005": 15.7293365833,
			"-0.004": 20.908658769,
			"-0.003": 22.3120067311,
			"-0.002": 14.2368587637,
			"-0.001": 13.3447956707,
			"0.0": 10.0677701963,
			"0.001": 10.0600458883,
			"0.002": 10.6568934973,
			"0.003": 11.6040638104,
			"0.004": 12.2162821209,
			"0.005": 10.4749284569,
			"0.006": 11.6368194176,
			"0.007": 5.79266941896,
			"0.008": 3.92518161726,
			"0.009": 3.16786629747,
			"0.01": 4.21117216294,
			"0.011": 6.95560816926,
			"0.012": 5.51372942684,
			"0.013": 2.69552229653,
			"0.014": 1.54940530773,
			"0.015": 0.105211533006,
			"0.016": 0.0,
			"0.017": 0.0,
			"0.018": 0.0,
			"0.019": 0.0,
			"0.02": 0.0,
			"0.021": 0.0,
			"0.022": 0.0,
			"0.023": 0.0,
			"0.024": 0.0,
			"0.025": 0.0
		}
	}
}
