{
	 "smiles": "ClC1=C(Cl)C(=O)C(Cl)=C(Cl)C1=O", 
	 "Tm": 563.15, 
	 "num_atms": 12, 
	 "gaussian": { 
		 "optdone": 1, 
		 "sigma_profile": "yes", 
		 "theory": "DFT", 
		 "functional": "B3LYP", 
		 "basiset": "6-31G**", 
		 "properties": { 
			 "R2extent": 4129.3772, 
			 "electric_dipole_moment_norm": 0.00115758369028, 
			 "electric_quadrupole_moment_norm": 9.37914606934, 
			 "total_energy": -2219.79210274, 
			 "HOMO_LUMO_gap": 0.12771, 
			 "cosmo_polarized_energy": -7.96, 
			 "cosmo_cavitation_energy": 24.99, 
			 "cosmo_dispersion_energy": -18.91, 
			 "cosmo_repulsion_energy": 1.5, 
			 "cosmo_total_nonelectrostatic_energy": 7.59, 
			 "SMD_solvation_energy": 4.65 
		},
		"coords": [
			{
				"x": -2.6927650381,
				"y": 1.4034520111,
				"z": -2.8436717399,
				"element": "Cl" 
			},
			{
				"x": -1.9010761615,
				"y": 1.042954688,
				"z": -1.3593299431,
				"element": "C" 
			},
			{
				"x": -1.7286249732,
				"y": 1.9501032287,
				"z": -0.3727258483,
				"element": "C" 
			},
			{
				"x": -2.2797758611,
				"y": 3.5763355188,
				"z": -0.4804083406,
				"element": "Cl" 
			},
			{
				"x": -1.0314638288,
				"y": 1.592850842,
				"z": 0.9070849449,
				"element": "C" 
			},
			{
				"x": -0.8773512979,
				"y": 2.4070153901,
				"z": 1.7931241755,
				"element": "O" 
			},
			{
				"x": -0.5349752876,
				"y": 0.1833812557,
				"z": 1.0430599663,
				"element": "C" 
			},
			{
				"x": 0.2562590879,
				"y": -0.177256605,
				"z": 2.5276113072,
				"element": "Cl" 
			},
			{
				"x": -0.7074256003,
				"y": -0.7237678551,
				"z": 0.0564562069,
				"element": "C" 
			},
			{
				"x": -0.1567285977,
				"y": -2.3501398593,
				"z": 0.1643478757,
				"element": "Cl" 
			},
			{
				"x": -1.4041286131,
				"y": -0.3663733464,
				"z": -1.2235658962,
				"element": "C" 
			},
			{
				"x": -1.5589438287,
				"y": -1.1807552687,
				"z": -2.1092827084,
				"element": "O" 
			}
		],
		 "valence_orbital": [ 
			{
				"type": "occ",
				"energy": -0.33607,
				"method": "rhf"
			},
			{
				"type": "occ",
				"energy": -0.31588,
				"method": "rhf"
			},
			{
				"type": "occ",
				"energy": -0.30678,
				"method": "rhf"
			},
			{
				"type": "occ",
				"energy": -0.30541,
				"method": "rhf"
			},
			{
				"type": "occ",
				"energy": -0.28466,
				"method": "rhf"
			},
			{
				"type": "unocc",
				"energy": -0.15695,
				"method": "rhf"
			},
			{
				"type": "unocc",
				"energy": -0.05722,
				"method": "rhf"
			},
			{
				"type": "unocc",
				"energy": -0.03538,
				"method": "rhf"
			},
			{
				"type": "unocc",
				"energy": -0.02132,
				"method": "rhf"
			},
			{
				"type": "unocc",
				"energy": -0.00624,
				"method": "rhf"
			}
		],
		"cosmo_sigma_profile": { 
			"-0.025": 0.0,
			"-0.024": 0.0,
			"-0.023": 0.0,
			"-0.022": 0.0,
			"-0.021": 0.0,
			"-0.02": 0.0,
			"-0.019": 0.0,
			"-0.018": 0.0,
			"-0.017": 0.0,
			"-0.016": 0.0,
			"-0.015": 0.0,
			"-0.014": 0.0,
			"-0.013": 0.00420495106766,
			"-0.012": 0.421914718058,
			"-0.011": 1.33898347682,
			"-0.01": 1.88130810878,
			"-0.009": 3.64700261467,
			"-0.008": 3.44474581829,
			"-0.007": 5.15774624331,
			"-0.006": 5.8605522866,
			"-0.005": 12.0230386979,
			"-0.004": 14.2634750414,
			"-0.003": 14.3874315104,
			"-0.002": 12.9468922351,
			"-0.001": 15.249243164,
			"0.0": 17.8697156224,
			"0.001": 24.5679430147,
			"0.002": 29.6364856189,
			"0.003": 11.7725089865,
			"0.004": 4.97431147028,
			"0.005": 5.54843579263,
			"0.006": 3.98211698411,
			"0.007": 6.32622865319,
			"0.008": 8.23160440151,
			"0.009": 7.57049780979,
			"0.01": 0.770739282449,
			"0.011": 0.0,
			"0.012": 0.0,
			"0.013": 0.0,
			"0.014": 0.0,
			"0.015": 0.0,
			"0.016": 0.0,
			"0.017": 0.0,
			"0.018": 0.0,
			"0.019": 0.0,
			"0.02": 0.0,
			"0.021": 0.0,
			"0.022": 0.0,
			"0.023": 0.0,
			"0.024": 0.0,
			"0.025": 0.0
		}
	}
}
