{
	 "smiles": "OC(=O)C(CC1=CNC2=C1C=CC=C2)NC(=O)CCl", 
	 "Tm": 427.15, 
	 "num_atms": 32, 
	 "gaussian": { 
		 "optdone": 1, 
		 "sigma_profile": "yes", 
		 "theory": "DFT", 
		 "functional": "B3LYP", 
		 "basiset": "6-31G**", 
		 "properties": { 
			 "R2extent": 6749.1903, 
			 "electric_dipole_moment_norm": 3.97202164143, 
			 "electric_quadrupole_moment_norm": 21.9481837825, 
			 "total_energy": -1298.61516179, 
			 "HOMO_LUMO_gap": 0.18815, 
			 "cosmo_polarized_energy": -22.53, 
			 "cosmo_cavitation_energy": 38.02, 
			 "cosmo_dispersion_energy": -25.72, 
			 "cosmo_repulsion_energy": 2.0, 
			 "cosmo_total_nonelectrostatic_energy": 14.31, 
			 "SMD_solvation_energy": 7.56 
		},
		"coords": [
			{
				"x": -1.8483589208,
				"y": -0.1742343277,
				"z": 2.9414698213,
				"element": "O" 
			},
			{
				"x": -0.5494982605,
				"y": 0.0499260919,
				"z": 2.67603409,
				"element": "C" 
			},
			{
				"x": 0.1220127689,
				"y": 0.8674437402,
				"z": 3.2683306283,
				"element": "O" 
			},
			{
				"x": 0.0058529275,
				"y": -0.8200529758,
				"z": 1.5383881885,
				"element": "C" 
			},
			{
				"x": 0.7020421498,
				"y": 0.1003846013,
				"z": 0.4974042855,
				"element": "C" 
			},
			{
				"x": -0.2230344224,
				"y": 1.0595810455,
				"z": -0.1976578105,
				"element": "C" 
			},
			{
				"x": -0.4968443443,
				"y": 2.3464553871,
				"z": 0.2027041271,
				"element": "C" 
			},
			{
				"x": -1.4015903913,
				"y": 2.9276181834,
				"z": -0.6624208224,
				"element": "N" 
			},
			{
				"x": -1.7331420755,
				"y": 2.0245231156,
				"z": -1.6520762778,
				"element": "C" 
			},
			{
				"x": -1.0078111441,
				"y": 0.8283542685,
				"z": -1.3897240487,
				"element": "C" 
			},
			{
				"x": -1.1624146774,
				"y": -0.261120803,
				"z": -2.2682394354,
				"element": "C" 
			},
			{
				"x": -2.0168926572,
				"y": -0.1358953559,
				"z": -3.3561473463,
				"element": "C" 
			},
			{
				"x": -2.7266451645,
				"y": 1.0594754117,
				"z": -3.5925302326,
				"element": "C" 
			},
			{
				"x": -2.594521569,
				"y": 2.1543725237,
				"z": -2.7466650027,
				"element": "C" 
			},
			{
				"x": -0.9779858681,
				"y": -1.686935765,
				"z": 0.9231134032,
				"element": "N" 
			},
			{
				"x": -1.2059118096,
				"y": -3.0214021434,
				"z": 1.119390481,
				"element": "C" 
			},
			{
				"x": -2.1398920317,
				"y": -3.6030668938,
				"z": 0.5870708847,
				"element": "O" 
			},
			{
				"x": -0.2100367386,
				"y": -3.8146996903,
				"z": 1.9701390378,
				"element": "C" 
			},
			{
				"x": -0.2833365661,
				"y": -3.4008732979,
				"z": 3.7380194565,
				"element": "Cl" 
			},
			{
				"x": -2.0812489777,
				"y": 0.4154739918,
				"z": 3.6786769622,
				"element": "H" 
			},
			{
				"x": 0.7786931162,
				"y": -1.4364673971,
				"z": 2.0043714819,
				"element": "H" 
			},
			{
				"x": 1.2025296612,
				"y": -0.5456972367,
				"z": -0.2317693528,
				"element": "H" 
			},
			{
				"x": 1.4776992579,
				"y": 0.6534886784,
				"z": 1.0337675318,
				"element": "H" 
			},
			{
				"x": -0.1079226204,
				"y": 2.8935950297,
				"z": 1.0499745353,
				"element": "H" 
			},
			{
				"x": -1.7485888011,
				"y": 3.8701497997,
				"z": -0.5920923195,
				"element": "H" 
			},
			{
				"x": -0.6252585041,
				"y": -1.1895688892,
				"z": -2.0970167262,
				"element": "H" 
			},
			{
				"x": -2.1442409508,
				"y": -0.9724276127,
				"z": -4.0365721715,
				"element": "H" 
			},
			{
				"x": -3.3885770461,
				"y": 1.1258911515,
				"z": -4.450816516,
				"element": "H" 
			},
			{
				"x": -3.1404314734,
				"y": 3.0757355268,
				"z": -2.9295319539,
				"element": "H" 
			},
			{
				"x": -1.7050356926,
				"y": -1.236772105,
				"z": 0.3785108622,
				"element": "H" 
			},
			{
				"x": -0.4830195073,
				"y": -4.8630951452,
				"z": 1.8782955951,
				"element": "H" 
			},
			{
				"x": 0.8244103332,
				"y": -3.667058908,
				"z": 1.6523986441,
				"element": "H" 
			}
		],
		 "valence_orbital": [ 
			{
				"type": "occ",
				"energy": -0.27956,
				"method": "rhf"
			},
			{
				"type": "occ",
				"energy": -0.25597,
				"method": "rhf"
			},
			{
				"type": "occ",
				"energy": -0.25307,
				"method": "rhf"
			},
			{
				"type": "occ",
				"energy": -0.22686,
				"method": "rhf"
			},
			{
				"type": "occ",
				"energy": -0.20781,
				"method": "rhf"
			},
			{
				"type": "unocc",
				"energy": -0.01966,
				"method": "rhf"
			},
			{
				"type": "unocc",
				"energy": -0.01582,
				"method": "rhf"
			},
			{
				"type": "unocc",
				"energy": -0.00232,
				"method": "rhf"
			},
			{
				"type": "unocc",
				"energy": 0.02137,
				"method": "rhf"
			},
			{
				"type": "unocc",
				"energy": 0.04671,
				"method": "rhf"
			}
		],
		"cosmo_sigma_profile": { 
			"-0.025": 0.0,
			"-0.024": 0.0,
			"-0.023": 0.0,
			"-0.022": 0.0,
			"-0.021": 0.0,
			"-0.02": 0.0,
			"-0.019": 0.226784378909,
			"-0.018": 1.01311072634,
			"-0.017": 1.11524438594,
			"-0.016": 1.25880414224,
			"-0.015": 2.17225979786,
			"-0.014": 2.28372606056,
			"-0.013": 1.77892590398,
			"-0.012": 2.08212819595,
			"-0.011": 2.97941868872,
			"-0.01": 4.44206149368,
			"-0.009": 5.23625984168,
			"-0.008": 7.14380440884,
			"-0.007": 9.96368092189,
			"-0.006": 10.3363055806,
			"-0.005": 16.3207025068,
			"-0.004": 19.1767271258,
			"-0.003": 20.2269308765,
			"-0.002": 18.2348429271,
			"-0.001": 15.6972554134,
			"0.0": 16.1722987947,
			"0.001": 16.7375874561,
			"0.002": 16.4019777183,
			"0.003": 18.1987840356,
			"0.004": 19.23765564,
			"0.005": 22.5906906425,
			"0.006": 15.6078777509,
			"0.007": 9.06919391833,
			"0.008": 4.2723524082,
			"0.009": 2.51000861277,
			"0.01": 2.80422048416,
			"0.011": 5.66996252468,
			"0.012": 6.72114360857,
			"0.013": 5.19564434505,
			"0.014": 0.849552687531,
			"0.015": 0.0,
			"0.016": 0.0,
			"0.017": 0.0,
			"0.018": 0.0,
			"0.019": 0.0,
			"0.02": 0.0,
			"0.021": 0.0,
			"0.022": 0.0,
			"0.023": 0.0,
			"0.024": 0.0,
			"0.025": 0.0
		}
	}
}
