{
	 "smiles": "CC1=C(C=C(C=C1)S(=O)(=O)N1CCCCC1)C(O)=O", 
	 "Tm": 471.15, 
	 "num_atms": 36, 
	 "gaussian": { 
		 "optdone": 1, 
		 "sigma_profile": "yes", 
		 "theory": "DFT", 
		 "functional": "B3LYP", 
		 "basiset": "6-31G**", 
		 "properties": { 
			 "R2extent": 6680.1111, 
			 "electric_dipole_moment_norm": 6.07032771932, 
			 "electric_quadrupole_moment_norm": 26.3694349773, 
			 "total_energy": -1259.40382005, 
			 "HOMO_LUMO_gap": 0.18222, 
			 "cosmo_polarized_energy": -22.37, 
			 "cosmo_cavitation_energy": 39.03, 
			 "cosmo_dispersion_energy": -27.64, 
			 "cosmo_repulsion_energy": 2.09, 
			 "cosmo_total_nonelectrostatic_energy": 13.48, 
			 "SMD_solvation_energy": 5.5 
		},
		"coords": [
			{
				"x": -1.4783932328,
				"y": -0.578810554,
				"z": -4.613639748,
				"element": "C" 
			},
			{
				"x": -0.9581389696,
				"y": -0.169190257,
				"z": -3.2504113461,
				"element": "C" 
			},
			{
				"x": 0.2107773552,
				"y": 0.5988005801,
				"z": -3.057359794,
				"element": "C" 
			},
			{
				"x": 0.6526354479,
				"y": 0.8946352987,
				"z": -1.7579493812,
				"element": "C" 
			},
			{
				"x": -0.0760797349,
				"y": 0.461967633,
				"z": -0.6586995497,
				"element": "C" 
			},
			{
				"x": -1.2472244319,
				"y": -0.2812195042,
				"z": -0.8262380133,
				"element": "C" 
			},
			{
				"x": -1.6649410244,
				"y": -0.5961928639,
				"z": -2.113369543,
				"element": "C" 
			},
			{
				"x": 0.463266857,
				"y": 0.8911103011,
				"z": 1.001838503,
				"element": "S" 
			},
			{
				"x": -0.7282174446,
				"y": 1.1389388494,
				"z": 1.8204657552,
				"element": "O" 
			},
			{
				"x": 1.5068919862,
				"y": 1.9166099173,
				"z": 0.8678812764,
				"element": "O" 
			},
			{
				"x": 1.1013716792,
				"y": -0.5759850685,
				"z": 1.5451373773,
				"element": "N" 
			},
			{
				"x": 2.4212141167,
				"y": -0.9449110861,
				"z": 0.9972411103,
				"element": "C" 
			},
			{
				"x": 2.581957342,
				"y": -2.4775173219,
				"z": 1.0739682899,
				"element": "C" 
			},
			{
				"x": 1.8451913928,
				"y": -3.0644773933,
				"z": 2.2994059127,
				"element": "C" 
			},
			{
				"x": 1.7875089771,
				"y": -2.0299110687,
				"z": 3.428165339,
				"element": "C" 
			},
			{
				"x": 0.961304878,
				"y": -0.7969959459,
				"z": 3.0111070169,
				"element": "C" 
			},
			{
				"x": 1.1022570254,
				"y": 1.1051195803,
				"z": -4.1610258024,
				"element": "C" 
			},
			{
				"x": 0.5058352695,
				"y": 1.5122343262,
				"z": -5.3128575585,
				"element": "O" 
			},
			{
				"x": 2.302306129,
				"y": 1.1744719118,
				"z": -4.049753611,
				"element": "O" 
			},
			{
				"x": -0.6768638823,
				"y": -0.7733067908,
				"z": -5.3294098801,
				"element": "H" 
			},
			{
				"x": -2.1358402337,
				"y": 0.187987304,
				"z": -5.048163728,
				"element": "H" 
			},
			{
				"x": -2.0840980031,
				"y": -1.484367209,
				"z": -4.5289323284,
				"element": "H" 
			},
			{
				"x": 1.5594107911,
				"y": 1.4731229724,
				"z": -1.6225180817,
				"element": "H" 
			},
			{
				"x": -1.816404953,
				"y": -0.6017248885,
				"z": 0.0395152837,
				"element": "H" 
			},
			{
				"x": -2.5622173018,
				"y": -1.1936887304,
				"z": -2.2489782092,
				"element": "H" 
			},
			{
				"x": 3.2232761041,
				"y": -0.4282389258,
				"z": 1.5420747697,
				"element": "H" 
			},
			{
				"x": 2.4814329797,
				"y": -0.6087542301,
				"z": -0.0401830913,
				"element": "H" 
			},
			{
				"x": 3.6526362454,
				"y": -2.7070028359,
				"z": 1.1235300839,
				"element": "H" 
			},
			{
				"x": 2.2006718919,
				"y": -2.9374300302,
				"z": 0.1566258053,
				"element": "H" 
			},
			{
				"x": 0.8230493686,
				"y": -3.3434838266,
				"z": 2.0185286853,
				"element": "H" 
			},
			{
				"x": 2.3397640152,
				"y": -3.9802484281,
				"z": 2.6393683498,
				"element": "H" 
			},
			{
				"x": 2.807148676,
				"y": -1.725677214,
				"z": 3.6943354059,
				"element": "H" 
			},
			{
				"x": 1.3446156858,
				"y": -2.4538239126,
				"z": 4.3353766189,
				"element": "H" 
			},
			{
				"x": 1.2836704366,
				"y": 0.0816711447,
				"z": 3.5855499837,
				"element": "H" 
			},
			{
				"x": -0.0999504812,
				"y": -0.9527025628,
				"z": 3.216153144,
				"element": "H" 
			},
			{
				"x": -0.454724957,
				"y": 1.5344908294,
				"z": -5.206479045,
				"element": "H" 
			}
		],
		 "valence_orbital": [ 
			{
				"type": "occ",
				"energy": -0.29689,
				"method": "rhf"
			},
			{
				"type": "occ",
				"energy": -0.29054,
				"method": "rhf"
			},
			{
				"type": "occ",
				"energy": -0.28141,
				"method": "rhf"
			},
			{
				"type": "occ",
				"energy": -0.27269,
				"method": "rhf"
			},
			{
				"type": "occ",
				"energy": -0.24502,
				"method": "rhf"
			},
			{
				"type": "unocc",
				"energy": -0.0628,
				"method": "rhf"
			},
			{
				"type": "unocc",
				"energy": -0.04211,
				"method": "rhf"
			},
			{
				"type": "unocc",
				"energy": 0.02061,
				"method": "rhf"
			},
			{
				"type": "unocc",
				"energy": 0.05091,
				"method": "rhf"
			},
			{
				"type": "unocc",
				"energy": 0.0559,
				"method": "rhf"
			}
		],
		"cosmo_sigma_profile": { 
			"-0.025": 0.0,
			"-0.024": 0.0,
			"-0.023": 0.0,
			"-0.022": 0.0,
			"-0.021": 0.0,
			"-0.02": 0.0,
			"-0.019": 0.0160154640009,
			"-0.018": 0.527818825693,
			"-0.017": 0.876115036498,
			"-0.016": 1.2489675232,
			"-0.015": 0.951895204934,
			"-0.014": 0.888863566925,
			"-0.013": 0.802887725333,
			"-0.012": 1.1901906114,
			"-0.011": 0.891420917451,
			"-0.01": 0.665242097028,
			"-0.009": 1.53272414491,
			"-0.008": 2.8008116875,
			"-0.007": 7.42545256167,
			"-0.006": 9.83329362624,
			"-0.005": 15.2333644162,
			"-0.004": 29.5330372928,
			"-0.003": 37.851174077,
			"-0.002": 35.6018111681,
			"-0.001": 29.0796914406,
			"0.0": 24.3687420689,
			"0.001": 18.7908941506,
			"0.002": 10.8186115557,
			"0.003": 6.66806049293,
			"0.004": 5.67949356255,
			"0.005": 6.40264713253,
			"0.006": 5.10338971638,
			"0.007": 5.65855517419,
			"0.008": 5.88430336261,
			"0.009": 7.08437109797,
			"0.01": 10.9135501659,
			"0.011": 14.1281513328,
			"0.012": 8.15804805507,
			"0.013": 0.629537013432,
			"0.014": 0.0,
			"0.015": 0.0,
			"0.016": 0.0,
			"0.017": 0.0,
			"0.018": 0.0,
			"0.019": 0.0,
			"0.02": 0.0,
			"0.021": 0.0,
			"0.022": 0.0,
			"0.023": 0.0,
			"0.024": 0.0,
			"0.025": 0.0
		}
	}
}
