{
	 "smiles": "CC(=O)C1=C(C)N=C(S1)C(C)(C)C", 
	 "Tm": 340.15, 
	 "num_atms": 28, 
	 "gaussian": { 
		 "optdone": 1, 
		 "sigma_profile": "yes", 
		 "theory": "DFT", 
		 "functional": "B3LYP", 
		 "basiset": "6-31G**", 
		 "properties": { 
			 "R2extent": 4252.4075, 
			 "electric_dipole_moment_norm": 2.65097157095, 
			 "electric_quadrupole_moment_norm": 20.3059202788, 
			 "total_energy": -918.286182516, 
			 "HOMO_LUMO_gap": 0.18146, 
			 "cosmo_polarized_energy": -9.67, 
			 "cosmo_cavitation_energy": 31.48, 
			 "cosmo_dispersion_energy": -22.54, 
			 "cosmo_repulsion_energy": 1.75, 
			 "cosmo_total_nonelectrostatic_energy": 10.68, 
			 "SMD_solvation_energy": 5.0 
		},
		"coords": [
			{
				"x": -5.2061967708,
				"y": -0.8252629922,
				"z": -1.2505586318,
				"element": "C" 
			},
			{
				"x": -3.9020283412,
				"y": -0.599685217,
				"z": -1.9947758628,
				"element": "C" 
			},
			{
				"x": -3.9042130431,
				"y": -0.3768669986,
				"z": -3.200551347,
				"element": "O" 
			},
			{
				"x": -2.626089678,
				"y": -0.6493056457,
				"z": -1.260449097,
				"element": "C" 
			},
			{
				"x": -2.2918047457,
				"y": -0.8724436473,
				"z": 0.0673406497,
				"element": "C" 
			},
			{
				"x": -3.2142525414,
				"y": -1.1488711794,
				"z": 1.2240788521,
				"element": "C" 
			},
			{
				"x": -0.9472824682,
				"y": -0.8317563509,
				"z": 0.3371850925,
				"element": "N" 
			},
			{
				"x": -0.2310346675,
				"y": -0.5850992886,
				"z": -0.7346046439,
				"element": "C" 
			},
			{
				"x": -1.1691706725,
				"y": -0.3792600752,
				"z": -2.1891929067,
				"element": "S" 
			},
			{
				"x": 1.2873126474,
				"y": -0.4903911933,
				"z": -0.6895270564,
				"element": "C" 
			},
			{
				"x": 1.8824964624,
				"y": -0.1955379177,
				"z": -2.0773572687,
				"element": "C" 
			},
			{
				"x": 1.6676815641,
				"y": 0.642458918,
				"z": 0.2922898747,
				"element": "C" 
			},
			{
				"x": 1.8362727624,
				"y": -1.8364910193,
				"z": -0.1619293129,
				"element": "C" 
			},
			{
				"x": -5.2276115009,
				"y": -1.8124154409,
				"z": -0.7774810766,
				"element": "H" 
			},
			{
				"x": -6.0239223864,
				"y": -0.749112487,
				"z": -1.9680671601,
				"element": "H" 
			},
			{
				"x": -5.3453732099,
				"y": -0.0809040724,
				"z": -0.4597824908,
				"element": "H" 
			},
			{
				"x": -3.7988974259,
				"y": -2.0623144419,
				"z": 1.0748140808,
				"element": "H" 
			},
			{
				"x": -2.6103976735,
				"y": -1.2705334392,
				"z": 2.1244394456,
				"element": "H" 
			},
			{
				"x": -3.9219227945,
				"y": -0.3305627736,
				"z": 1.3909678366,
				"element": "H" 
			},
			{
				"x": 1.523326682,
				"y": 0.758164297,
				"z": -2.4783368444,
				"element": "H" 
			},
			{
				"x": 1.6411006208,
				"y": -0.9840704581,
				"z": -2.7979577594,
				"element": "H" 
			},
			{
				"x": 2.9729293251,
				"y": -0.134788436,
				"z": -2.0064541822,
				"element": "H" 
			},
			{
				"x": 1.2349822714,
				"y": 0.4576940773,
				"z": 1.2783103213,
				"element": "H" 
			},
			{
				"x": 2.7569617367,
				"y": 0.7021603853,
				"z": 0.3908898825,
				"element": "H" 
			},
			{
				"x": 1.3045306343,
				"y": 1.6117091307,
				"z": -0.0649927571,
				"element": "H" 
			},
			{
				"x": 1.5952686715,
				"y": -2.6558948227,
				"z": -0.8471136996,
				"element": "H" 
			},
			{
				"x": 2.925981775,
				"y": -1.7836808967,
				"z": -0.0641162942,
				"element": "H" 
			},
			{
				"x": 1.406552766,
				"y": -2.0703380146,
				"z": 0.8149323556,
				"element": "H" 
			}
		],
		 "valence_orbital": [ 
			{
				"type": "occ",
				"energy": -0.3366,
				"method": "rhf"
			},
			{
				"type": "occ",
				"energy": -0.28089,
				"method": "rhf"
			},
			{
				"type": "occ",
				"energy": -0.27847,
				"method": "rhf"
			},
			{
				"type": "occ",
				"energy": -0.24468,
				"method": "rhf"
			},
			{
				"type": "occ",
				"energy": -0.24217,
				"method": "rhf"
			},
			{
				"type": "unocc",
				"energy": -0.06071,
				"method": "rhf"
			},
			{
				"type": "unocc",
				"energy": 0.01203,
				"method": "rhf"
			},
			{
				"type": "unocc",
				"energy": 0.02692,
				"method": "rhf"
			},
			{
				"type": "unocc",
				"energy": 0.06063,
				"method": "rhf"
			},
			{
				"type": "unocc",
				"energy": 0.08381,
				"method": "rhf"
			}
		],
		"cosmo_sigma_profile": { 
			"-0.025": 0.0,
			"-0.024": 0.0,
			"-0.023": 0.0,
			"-0.022": 0.0,
			"-0.021": 0.0,
			"-0.02": 0.0,
			"-0.019": 0.0,
			"-0.018": 0.0,
			"-0.017": 0.0,
			"-0.016": 0.0,
			"-0.015": 0.0,
			"-0.014": 0.0,
			"-0.013": 0.0,
			"-0.012": 0.0,
			"-0.011": 0.0,
			"-0.01": 0.0,
			"-0.009": 0.0,
			"-0.008": 0.16704221546,
			"-0.007": 4.19863810203,
			"-0.006": 7.07992612609,
			"-0.005": 8.27748888031,
			"-0.004": 19.5429525185,
			"-0.003": 30.5601252486,
			"-0.002": 29.9137236709,
			"-0.001": 32.6528545217,
			"0.0": 32.6135716952,
			"0.001": 25.498135138,
			"0.002": 10.8601280372,
			"0.003": 10.7420735116,
			"0.004": 4.886141245,
			"0.005": 4.28649000475,
			"0.006": 3.94061614735,
			"0.007": 3.72086911022,
			"0.008": 3.00551536348,
			"0.009": 2.1531273963,
			"0.01": 2.90772858997,
			"0.011": 4.07466470679,
			"0.012": 4.90654074708,
			"0.013": 2.13079149344,
			"0.014": 0.273310734034,
			"0.015": 0.0,
			"0.016": 0.0,
			"0.017": 0.0,
			"0.018": 0.0,
			"0.019": 0.0,
			"0.02": 0.0,
			"0.021": 0.0,
			"0.022": 0.0,
			"0.023": 0.0,
			"0.024": 0.0,
			"0.025": 0.0
		}
	}
}
