{
	 "smiles": "CC(N)C(=O)NO", 
	 "Tm": 433.15, 
	 "num_atms": 15, 
	 "gaussian": { 
		 "optdone": 1, 
		 "sigma_profile": "yes", 
		 "theory": "DFT", 
		 "functional": "B3LYP", 
		 "basiset": "6-31G**", 
		 "properties": { 
			 "R2extent": 1353.7345, 
			 "electric_dipole_moment_norm": 2.04936621178, 
			 "electric_quadrupole_moment_norm": 8.60331573697, 
			 "total_energy": -379.040570184, 
			 "HOMO_LUMO_gap": 0.24649, 
			 "cosmo_polarized_energy": -13.68, 
			 "cosmo_cavitation_energy": 18.61, 
			 "cosmo_dispersion_energy": -13.68, 
			 "cosmo_repulsion_energy": 1.19, 
			 "cosmo_total_nonelectrostatic_energy": 6.12, 
			 "SMD_solvation_energy": 3.8 
		},
		"coords": [
			{
				"x": -0.117119696,
				"y": -0.5817763841,
				"z": -0.1668852802,
				"element": "C" 
			},
			{
				"x": 0.5613487031,
				"y": 0.3585400854,
				"z": 0.8388018621,
				"element": "C" 
			},
			{
				"x": 1.9915494353,
				"y": 0.4465507894,
				"z": 0.5394060974,
				"element": "N" 
			},
			{
				"x": -0.1145552202,
				"y": 1.7308509907,
				"z": 0.7843031365,
				"element": "C" 
			},
			{
				"x": 0.0410244217,
				"y": 2.5245832356,
				"z": -0.1476687031,
				"element": "O" 
			},
			{
				"x": -0.8651250243,
				"y": 2.0933541277,
				"z": 1.8622614428,
				"element": "N" 
			},
			{
				"x": -1.6318418098,
				"y": 3.2589022908,
				"z": 1.7128131328,
				"element": "O" 
			},
			{
				"x": 0.3863321753,
				"y": -1.551156651,
				"z": -0.1541933686,
				"element": "H" 
			},
			{
				"x": -1.1768448189,
				"y": -0.7252507381,
				"z": 0.0682890144,
				"element": "H" 
			},
			{
				"x": -0.048112655,
				"y": -0.1625802611,
				"z": -1.1754241072,
				"element": "H" 
			},
			{
				"x": 0.4550502713,
				"y": -0.0557819603,
				"z": 1.8498845957,
				"element": "H" 
			},
			{
				"x": 2.4594768534,
				"y": 0.9989569994,
				"z": 1.2554166031,
				"element": "H" 
			},
			{
				"x": 2.0962210545,
				"y": 0.9729640936,
				"z": -0.3274181736,
				"element": "H" 
			},
			{
				"x": -1.3548484848,
				"y": 1.4079632372,
				"z": 2.4226209907,
				"element": "H" 
			},
			{
				"x": -1.3047552057,
				"y": 3.5734801447,
				"z": 0.8409927571,
				"element": "H" 
			}
		],
		 "valence_orbital": [ 
			{
				"type": "occ",
				"energy": -0.36495,
				"method": "rhf"
			},
			{
				"type": "occ",
				"energy": -0.34402,
				"method": "rhf"
			},
			{
				"type": "occ",
				"energy": -0.2852,
				"method": "rhf"
			},
			{
				"type": "occ",
				"energy": -0.24815,
				"method": "rhf"
			},
			{
				"type": "occ",
				"energy": -0.24058,
				"method": "rhf"
			},
			{
				"type": "unocc",
				"energy": 0.00591,
				"method": "rhf"
			},
			{
				"type": "unocc",
				"energy": 0.06226,
				"method": "rhf"
			},
			{
				"type": "unocc",
				"energy": 0.08012,
				"method": "rhf"
			},
			{
				"type": "unocc",
				"energy": 0.10019,
				"method": "rhf"
			},
			{
				"type": "unocc",
				"energy": 0.12849,
				"method": "rhf"
			}
		],
		"cosmo_sigma_profile": { 
			"-0.025": 0.0,
			"-0.024": 0.0,
			"-0.023": 0.0,
			"-0.022": 0.0,
			"-0.021": 0.0,
			"-0.02": 0.0,
			"-0.019": 0.0,
			"-0.018": 0.0,
			"-0.017": 0.161611950805,
			"-0.016": 1.30640884294,
			"-0.015": 1.44786563403,
			"-0.014": 1.36422038544,
			"-0.013": 1.50778745366,
			"-0.012": 1.69250698858,
			"-0.011": 1.8492609616,
			"-0.01": 3.35099674375,
			"-0.009": 3.80437117817,
			"-0.008": 4.07488390811,
			"-0.007": 5.49013326756,
			"-0.006": 5.94597816978,
			"-0.005": 6.67073332691,
			"-0.004": 9.06754058865,
			"-0.003": 8.35687732447,
			"-0.002": 9.09297927484,
			"-0.001": 9.58416003066,
			"0.0": 10.7444966305,
			"0.001": 7.6841156303,
			"0.002": 4.1645042715,
			"0.003": 4.8126779675,
			"0.004": 3.36395152791,
			"0.005": 3.79419775795,
			"0.006": 3.9370679271,
			"0.007": 3.54851924704,
			"0.008": 4.13792719429,
			"0.009": 3.97623252813,
			"0.01": 4.05376496417,
			"0.011": 5.14924378628,
			"0.012": 4.0308252468,
			"0.013": 3.05131933443,
			"0.014": 1.11287961468,
			"0.015": 0.383281080083,
			"0.016": 0.602122856054,
			"0.017": 0.511422677315,
			"0.018": 0.583837228592,
			"0.019": 0.170760832393,
			"0.02": 0.0,
			"0.021": 0.0,
			"0.022": 0.0,
			"0.023": 0.0,
			"0.024": 0.0,
			"0.025": 0.0
		}
	}
}
