{
	 "smiles": "CC(C)C1=C(N)C(=CC(Br)=C1)[N+]([O-])=O", 
	 "Tm": 313.15, 
	 "num_atms": 25, 
	 "gaussian": { 
		 "optdone": 1, 
		 "sigma_profile": "yes", 
		 "theory": "DFT", 
		 "functional": "B3LYP", 
		 "basiset": "6-31G**", 
		 "properties": { 
			 "R2extent": 4391.4643, 
			 "electric_dipole_moment_norm": 5.47945844131, 
			 "electric_quadrupole_moment_norm": 11.0639675216, 
			 "total_energy": -3180.86057507, 
			 "HOMO_LUMO_gap": 0.13389, 
			 "cosmo_polarized_energy": -10.85, 
			 "cosmo_cavitation_energy": 30.22, 
			 "cosmo_dispersion_energy": -22.52, 
			 "cosmo_repulsion_energy": 1.78, 
			 "cosmo_total_nonelectrostatic_energy": 9.48, 
			 "SMD_solvation_energy": 5.97 
		},
		"coords": [
			{
				"x": 1.2692517541,
				"y": -3.2489704995,
				"z": -1.1325514307,
				"element": "C" 
			},
			{
				"x": -0.0517331632,
				"y": -2.4651836362,
				"z": -1.1050997373,
				"element": "C" 
			},
			{
				"x": -0.5592235993,
				"y": -2.2206383712,
				"z": -2.544506034,
				"element": "C" 
			},
			{
				"x": 0.01632873,
				"y": -1.1582979516,
				"z": -0.3182339485,
				"element": "C" 
			},
			{
				"x": -1.1922694543,
				"y": -0.5767545672,
				"z": 0.1938104946,
				"element": "C" 
			},
			{
				"x": -2.3889752005,
				"y": -1.1839866696,
				"z": -0.0173394366,
				"element": "N" 
			},
			{
				"x": -1.0770480688,
				"y": 0.6544024089,
				"z": 0.9012712054,
				"element": "C" 
			},
			{
				"x": 0.1599283359,
				"y": 1.2931103079,
				"z": 1.0861883425,
				"element": "C" 
			},
			{
				"x": 1.2972843709,
				"y": 0.7118739609,
				"z": 0.5780430761,
				"element": "C" 
			},
			{
				"x": 2.995761743,
				"y": 1.5516917162,
				"z": 0.8131664139,
				"element": "Br" 
			},
			{
				"x": 1.2218483575,
				"y": -0.5067759443,
				"z": -0.1135606397,
				"element": "C" 
			},
			{
				"x": -2.2278744303,
				"y": 1.3224508761,
				"z": 1.4850307106,
				"element": "N" 
			},
			{
				"x": -3.354473345,
				"y": 0.799849784,
				"z": 1.3763104782,
				"element": "O" 
			},
			{
				"x": -2.0500079438,
				"y": 2.3880839236,
				"z": 2.0745375894,
				"element": "O" 
			},
			{
				"x": 2.0354841626,
				"y": -2.7350612728,
				"z": -1.7225595112,
				"element": "H" 
			},
			{
				"x": 1.1086575687,
				"y": -4.226424747,
				"z": -1.5974417826,
				"element": "H" 
			},
			{
				"x": 1.6649268624,
				"y": -3.4130478431,
				"z": -0.1257153949,
				"element": "H" 
			},
			{
				"x": -0.7758255119,
				"y": -3.1191943374,
				"z": -0.595054659,
				"element": "H" 
			},
			{
				"x": -1.5121460417,
				"y": -1.6841503118,
				"z": -2.5603688854,
				"element": "H" 
			},
			{
				"x": -0.6921025986,
				"y": -3.1701471347,
				"z": -3.073897423,
				"element": "H" 
			},
			{
				"x": 0.1673273478,
				"y": -1.620922158,
				"z": -3.1024201642,
				"element": "H" 
			},
			{
				"x": -2.4222845662,
				"y": -2.1095195853,
				"z": -0.4062643069,
				"element": "H" 
			},
			{
				"x": -3.1973799649,
				"y": -0.7855744004,
				"z": 0.4412055104,
				"element": "H" 
			},
			{
				"x": 0.1822375424,
				"y": 2.227231887,
				"z": 1.6293661097,
				"element": "H" 
			},
			{
				"x": 2.1372071132,
				"y": -0.9426454342,
				"z": -0.4938165767,
				"element": "H" 
			}
		],
		 "valence_orbital": [ 
			{
				"type": "occ",
				"energy": -0.29235,
				"method": "rhf"
			},
			{
				"type": "occ",
				"energy": -0.29141,
				"method": "rhf"
			},
			{
				"type": "occ",
				"energy": -0.28878,
				"method": "rhf"
			},
			{
				"type": "occ",
				"energy": -0.27658,
				"method": "rhf"
			},
			{
				"type": "occ",
				"energy": -0.22086,
				"method": "rhf"
			},
			{
				"type": "unocc",
				"energy": -0.08697,
				"method": "rhf"
			},
			{
				"type": "unocc",
				"energy": -0.01457,
				"method": "rhf"
			},
			{
				"type": "unocc",
				"energy": 0.00136,
				"method": "rhf"
			},
			{
				"type": "unocc",
				"energy": 0.00256,
				"method": "rhf"
			},
			{
				"type": "unocc",
				"energy": 0.05941,
				"method": "rhf"
			}
		],
		"cosmo_sigma_profile": { 
			"-0.025": 0.0,
			"-0.024": 0.0,
			"-0.023": 0.0,
			"-0.022": 0.0,
			"-0.021": 0.0,
			"-0.02": 0.0,
			"-0.019": 0.0,
			"-0.018": 0.0,
			"-0.017": 0.0,
			"-0.016": 0.0,
			"-0.015": 0.0457980179069,
			"-0.014": 0.689606232657,
			"-0.013": 0.8211689157,
			"-0.012": 1.40297925941,
			"-0.011": 1.53012154721,
			"-0.01": 2.06000874029,
			"-0.009": 2.15460356312,
			"-0.008": 1.93237794193,
			"-0.007": 3.28898507976,
			"-0.006": 5.05465058837,
			"-0.005": 7.69231514985,
			"-0.004": 12.9019532335,
			"-0.003": 23.6100960349,
			"-0.002": 23.6305904881,
			"-0.001": 24.4544623419,
			"0.0": 30.2590456058,
			"0.001": 26.5562399658,
			"0.002": 18.6192426916,
			"0.003": 9.69154465654,
			"0.004": 13.3653737876,
			"0.005": 8.88822498361,
			"0.006": 3.81319126299,
			"0.007": 3.01110043508,
			"0.008": 7.1302022859,
			"0.009": 4.04678608185,
			"0.01": 4.09832743972,
			"0.011": 2.15300189731,
			"0.012": 0.00539512565797,
			"0.013": 0.0,
			"0.014": 0.0,
			"0.015": 0.0,
			"0.016": 0.0,
			"0.017": 0.0,
			"0.018": 0.0,
			"0.019": 0.0,
			"0.02": 0.0,
			"0.021": 0.0,
			"0.022": 0.0,
			"0.023": 0.0,
			"0.024": 0.0,
			"0.025": 0.0
		}
	}
}
