{
	 "smiles": "NC1=NC=C(CC2=CC=CC=C2)S1", 
	 "Tm": 380.15, 
	 "num_atms": 23, 
	 "gaussian": { 
		 "optdone": 1, 
		 "sigma_profile": "yes", 
		 "theory": "DFT", 
		 "functional": "B3LYP", 
		 "basiset": "6-31G**", 
		 "properties": { 
			 "R2extent": 3770.8155, 
			 "electric_dipole_moment_norm": 1.41244214749, 
			 "electric_quadrupole_moment_norm": 13.4081357817, 
			 "total_energy": -894.778207248, 
			 "HOMO_LUMO_gap": 0.19668, 
			 "cosmo_polarized_energy": -11.59, 
			 "cosmo_cavitation_energy": 28.8, 
			 "cosmo_dispersion_energy": -21.3, 
			 "cosmo_repulsion_energy": 1.65, 
			 "cosmo_total_nonelectrostatic_energy": 9.16, 
			 "SMD_solvation_energy": 2.68 
		},
		"coords": [
			{
				"x": -0.3428320839,
				"y": 0.9224784292,
				"z": -4.7894624299,
				"element": "N" 
			},
			{
				"x": -0.1835471353,
				"y": 0.8934220634,
				"z": -3.4189560309,
				"element": "C" 
			},
			{
				"x": 0.1493273933,
				"y": -0.1665608025,
				"z": -2.7453535735,
				"element": "N" 
			},
			{
				"x": 0.3126837892,
				"y": 0.1402497363,
				"z": -1.4071572116,
				"element": "C" 
			},
			{
				"x": 0.0998124377,
				"y": 1.429498756,
				"z": -1.0243304745,
				"element": "C" 
			},
			{
				"x": 0.1720573566,
				"y": 2.0720208254,
				"z": 0.3387658308,
				"element": "C" 
			},
			{
				"x": 0.5512727909,
				"y": 1.0969395736,
				"z": 1.4368503489,
				"element": "C" 
			},
			{
				"x": 1.8955726055,
				"y": 0.8747203456,
				"z": 1.7620737215,
				"element": "C" 
			},
			{
				"x": 2.247360296,
				"y": -0.0298466873,
				"z": 2.7649415333,
				"element": "C" 
			},
			{
				"x": 1.2561717967,
				"y": -0.7280748837,
				"z": 3.4573493171,
				"element": "C" 
			},
			{
				"x": -0.0868463451,
				"y": -0.5162080879,
				"z": 3.1400686198,
				"element": "C" 
			},
			{
				"x": -0.4344701476,
				"y": 0.3890981813,
				"z": 2.1363419834,
				"element": "C" 
			},
			{
				"x": -0.3238634077,
				"y": 2.3742599318,
				"z": -2.4563418122,
				"element": "S" 
			},
			{
				"x": -0.4127854353,
				"y": -0.0069627267,
				"z": -5.1847214684,
				"element": "H" 
			},
			{
				"x": -1.0361144713,
				"y": 1.5643458843,
				"z": -5.1480153584,
				"element": "H" 
			},
			{
				"x": 0.5893771907,
				"y": -0.6513209339,
				"z": -0.7214313997,
				"element": "H" 
			},
			{
				"x": -0.7961897144,
				"y": 2.5310985443,
				"z": 0.5795324405,
				"element": "H" 
			},
			{
				"x": 0.8984484442,
				"y": 2.8954617761,
				"z": 0.3183870281,
				"element": "H" 
			},
			{
				"x": 2.6708336869,
				"y": 1.4165460316,
				"z": 1.2259303797,
				"element": "H" 
			},
			{
				"x": 3.2947475542,
				"y": -0.1868135187,
				"z": 3.0070074773,
				"element": "H" 
			},
			{
				"x": 1.5282725845,
				"y": -1.4301609897,
				"z": 4.2402442225,
				"element": "H" 
			},
			{
				"x": -0.8646883449,
				"y": -1.0533413977,
				"z": 3.6755437758,
				"element": "H" 
			},
			{
				"x": -1.4817008408,
				"y": 0.5512499492,
				"z": 1.8931330803,
				"element": "H" 
			}
		],
		 "valence_orbital": [ 
			{
				"type": "occ",
				"energy": -0.26641,
				"method": "rhf"
			},
			{
				"type": "occ",
				"energy": -0.26561,
				"method": "rhf"
			},
			{
				"type": "occ",
				"energy": -0.24976,
				"method": "rhf"
			},
			{
				"type": "occ",
				"energy": -0.24333,
				"method": "rhf"
			},
			{
				"type": "occ",
				"energy": -0.20233,
				"method": "rhf"
			},
			{
				"type": "unocc",
				"energy": -0.00565,
				"method": "rhf"
			},
			{
				"type": "unocc",
				"energy": -0.00359,
				"method": "rhf"
			},
			{
				"type": "unocc",
				"energy": 0.00451,
				"method": "rhf"
			},
			{
				"type": "unocc",
				"energy": 0.01852,
				"method": "rhf"
			},
			{
				"type": "unocc",
				"energy": 0.07271,
				"method": "rhf"
			}
		],
		"cosmo_sigma_profile": { 
			"-0.025": 0.0,
			"-0.024": 0.0,
			"-0.023": 0.0,
			"-0.022": 0.0,
			"-0.021": 0.0,
			"-0.02": 0.0,
			"-0.019": 0.0,
			"-0.018": 0.0,
			"-0.017": 0.0,
			"-0.016": 0.0,
			"-0.015": 0.0979744087431,
			"-0.014": 1.4639066516,
			"-0.013": 2.6977153052,
			"-0.012": 2.51964328642,
			"-0.011": 2.43076476554,
			"-0.01": 2.95928258461,
			"-0.009": 2.27550575343,
			"-0.008": 1.13667778847,
			"-0.007": 1.83679629472,
			"-0.006": 5.04313109576,
			"-0.005": 19.0846823332,
			"-0.004": 20.8407800668,
			"-0.003": 18.7793611043,
			"-0.002": 13.9966752285,
			"-0.001": 13.254035656,
			"0.0": 10.9574554154,
			"0.001": 15.0153642035,
			"0.002": 17.7993115518,
			"0.003": 18.8991497169,
			"0.004": 18.4654681948,
			"0.005": 16.4371735177,
			"0.006": 8.81648395244,
			"0.007": 3.73294812528,
			"0.008": 2.31560047977,
			"0.009": 1.81692371682,
			"0.01": 1.80609116157,
			"0.011": 1.9083209991,
			"0.012": 1.5259351859,
			"0.013": 1.28269919247,
			"0.014": 0.540006845181,
			"0.015": 1.40970297991,
			"0.016": 0.533169978161,
			"0.017": 0.0,
			"0.018": 0.0,
			"0.019": 0.0,
			"0.02": 0.0,
			"0.021": 0.0,
			"0.022": 0.0,
			"0.023": 0.0,
			"0.024": 0.0,
			"0.025": 0.0
		}
	}
}
