{
	 "smiles": "OC1=CC=C(C=C1)C1SCCCS1", 
	 "Tm": 428.15, 
	 "num_atms": 25, 
	 "gaussian": { 
		 "optdone": 1, 
		 "sigma_profile": "yes", 
		 "theory": "DFT", 
		 "functional": "B3LYP", 
		 "basiset": "6-31G**", 
		 "properties": { 
			 "R2extent": 3979.5735, 
			 "electric_dipole_moment_norm": 1.84982386729, 
			 "electric_quadrupole_moment_norm": 11.894035105, 
			 "total_energy": -1259.88790789, 
			 "HOMO_LUMO_gap": 0.20392, 
			 "cosmo_polarized_energy": -12.71, 
			 "cosmo_cavitation_energy": 30.11, 
			 "cosmo_dispersion_energy": -22.92, 
			 "cosmo_repulsion_energy": 1.72, 
			 "cosmo_total_nonelectrostatic_energy": 8.92, 
			 "SMD_solvation_energy": 3.94 
		},
		"coords": [
			{
				"x": -1.6241510827,
				"y": -3.4498201252,
				"z": 3.263722315,
				"element": "O" 
			},
			{
				"x": -1.4571859383,
				"y": -2.5349515003,
				"z": 2.2640261068,
				"element": "C" 
			},
			{
				"x": -2.5769992975,
				"y": -1.7988418732,
				"z": 1.8663428638,
				"element": "C" 
			},
			{
				"x": -2.453939811,
				"y": -0.8537256768,
				"z": 0.8515501384,
				"element": "C" 
			},
			{
				"x": -1.226900715,
				"y": -0.6179074119,
				"z": 0.2162721561,
				"element": "C" 
			},
			{
				"x": -0.1149528167,
				"y": -1.3641305855,
				"z": 0.628236087,
				"element": "C" 
			},
			{
				"x": -0.2229696699,
				"y": -2.3135332902,
				"z": 1.6397662715,
				"element": "C" 
			},
			{
				"x": -1.1401895916,
				"y": 0.4030405361,
				"z": -0.8928488181,
				"element": "C" 
			},
			{
				"x": -0.8532753364,
				"y": -0.4568339319,
				"z": -2.5018897404,
				"element": "S" 
			},
			{
				"x": -0.5340186726,
				"y": 1.0215676815,
				"z": -3.5459791941,
				"element": "C" 
			},
			{
				"x": 0.8479618596,
				"y": 1.6578023917,
				"z": -3.2952242987,
				"element": "C" 
			},
			{
				"x": 1.3603284656,
				"y": 1.476316082,
				"z": -1.8594292473,
				"element": "C" 
			},
			{
				"x": 0.0945646647,
				"y": 1.7816948005,
				"z": -0.5656868616,
				"element": "S" 
			},
			{
				"x": -0.7793884448,
				"y": -3.8836758726,
				"z": 3.4404533876,
				"element": "H" 
			},
			{
				"x": -3.5268152412,
				"y": -1.977767359,
				"z": 2.3589995646,
				"element": "H" 
			},
			{
				"x": -3.3307123202,
				"y": -0.2874931814,
				"z": 0.5473701641,
				"element": "H" 
			},
			{
				"x": 0.8486479952,
				"y": -1.1947906637,
				"z": 0.1583028107,
				"element": "H" 
			},
			{
				"x": 0.6520116096,
				"y": -2.8820636012,
				"z": 1.9485632133,
				"element": "H" 
			},
			{
				"x": -2.0997620209,
				"y": 0.9200275033,
				"z": -0.970765699,
				"element": "H" 
			},
			{
				"x": -1.3376516937,
				"y": 1.7386251927,
				"z": -3.3561465453,
				"element": "H" 
			},
			{
				"x": -0.6347669909,
				"y": 0.6877687065,
				"z": -4.5819644517,
				"element": "H" 
			},
			{
				"x": 1.5878535742,
				"y": 1.2148817883,
				"z": -3.9736826121,
				"element": "H" 
			},
			{
				"x": 0.7872852368,
				"y": 2.7256943775,
				"z": -3.5354344271,
				"element": "H" 
			},
			{
				"x": 1.7687102885,
				"y": 0.4732205261,
				"z": -1.7206939312,
				"element": "H" 
			},
			{
				"x": 2.1587159494,
				"y": 2.1899954866,
				"z": -1.6367592524,
				"element": "H" 
			}
		],
		 "valence_orbital": [ 
			{
				"type": "occ",
				"energy": -0.2901,
				"method": "rhf"
			},
			{
				"type": "occ",
				"energy": -0.25447,
				"method": "rhf"
			},
			{
				"type": "occ",
				"energy": -0.23539,
				"method": "rhf"
			},
			{
				"type": "occ",
				"energy": -0.22057,
				"method": "rhf"
			},
			{
				"type": "occ",
				"energy": -0.21138,
				"method": "rhf"
			},
			{
				"type": "unocc",
				"energy": -0.00746,
				"method": "rhf"
			},
			{
				"type": "unocc",
				"energy": -0.00118,
				"method": "rhf"
			},
			{
				"type": "unocc",
				"energy": 0.01042,
				"method": "rhf"
			},
			{
				"type": "unocc",
				"energy": 0.05797,
				"method": "rhf"
			},
			{
				"type": "unocc",
				"energy": 0.06893,
				"method": "rhf"
			}
		],
		"cosmo_sigma_profile": { 
			"-0.025": 0.0,
			"-0.024": 0.0,
			"-0.023": 0.0,
			"-0.022": 0.0,
			"-0.021": 0.0,
			"-0.02": 0.0,
			"-0.019": 0.0,
			"-0.018": 0.412405983813,
			"-0.017": 1.24884813596,
			"-0.016": 1.09283665801,
			"-0.015": 0.945266818642,
			"-0.014": 1.03367673281,
			"-0.013": 0.930535942964,
			"-0.012": 0.684004256648,
			"-0.011": 1.40239106566,
			"-0.01": 1.10194675576,
			"-0.009": 0.689395745266,
			"-0.008": 1.36426498736,
			"-0.007": 3.35263299552,
			"-0.006": 12.5919057949,
			"-0.005": 16.3324603175,
			"-0.004": 22.755087378,
			"-0.003": 22.3245687933,
			"-0.002": 20.6878431995,
			"-0.001": 14.5314827221,
			"0.0": 10.7711414846,
			"0.001": 9.39656707796,
			"0.002": 10.0503604267,
			"0.003": 13.9916844472,
			"0.004": 18.0497734169,
			"0.005": 17.8518928965,
			"0.006": 11.2642267717,
			"0.007": 7.28451135082,
			"0.008": 5.25301314441,
			"0.009": 6.31544356733,
			"0.01": 4.57481030229,
			"0.011": 2.19251762507,
			"0.012": 0.673264978859,
			"0.013": 0.0,
			"0.014": 0.0,
			"0.015": 0.0,
			"0.016": 0.0,
			"0.017": 0.0,
			"0.018": 0.0,
			"0.019": 0.0,
			"0.02": 0.0,
			"0.021": 0.0,
			"0.022": 0.0,
			"0.023": 0.0,
			"0.024": 0.0,
			"0.025": 0.0
		}
	}
}
