{
	 "smiles": "CC(C)N1C=C(C2=NC(C)=CS2)C(=O)N(CC(=O)NN)C1=O", 
	 "Tm": 535.15, 
	 "num_atms": 39, 
	 "gaussian": { 
		 "optdone": 1, 
		 "sigma_profile": "yes", 
		 "theory": "DFT", 
		 "functional": "B3LYP", 
		 "basiset": "6-31G**", 
		 "properties": { 
			 "R2extent": 10274.8412, 
			 "electric_dipole_moment_norm": 6.40350809244, 
			 "electric_quadrupole_moment_norm": 24.0818377791, 
			 "total_energy": -1403.2693593, 
			 "HOMO_LUMO_gap": 0.15091, 
			 "cosmo_polarized_energy": -23.23, 
			 "cosmo_cavitation_energy": 43.67, 
			 "cosmo_dispersion_energy": -30.44, 
			 "cosmo_repulsion_energy": 2.32, 
			 "cosmo_total_nonelectrostatic_energy": 15.54, 
			 "SMD_solvation_energy": 8.61 
		},
		"coords": [
			{
				"x": -2.1298591316,
				"y": -0.6767029411,
				"z": 1.1905220723,
				"element": "C" 
			},
			{
				"x": -2.2937218211,
				"y": -0.1172448502,
				"z": -0.2260177297,
				"element": "C" 
			},
			{
				"x": -3.0391293542,
				"y": 1.2203778172,
				"z": -0.2628355416,
				"element": "C" 
			},
			{
				"x": -0.9700848752,
				"y": -0.004737815,
				"z": -0.905992859,
				"element": "N" 
			},
			{
				"x": -0.0119963313,
				"y": 0.8362303636,
				"z": -0.4267106975,
				"element": "C" 
			},
			{
				"x": 1.2198123284,
				"y": 0.9835859023,
				"z": -0.9953433647,
				"element": "C" 
			},
			{
				"x": 2.1839267495,
				"y": 1.9146090198,
				"z": -0.4108396847,
				"element": "C" 
			},
			{
				"x": 1.9120756819,
				"y": 2.6228033924,
				"z": 0.6589924247,
				"element": "N" 
			},
			{
				"x": 2.9680291235,
				"y": 3.4265149571,
				"z": 1.024185469,
				"element": "C" 
			},
			{
				"x": 2.8338639603,
				"y": 4.3087730553,
				"z": 2.2307779119,
				"element": "C" 
			},
			{
				"x": 4.0661969441,
				"y": 3.325973715,
				"z": 0.212335193,
				"element": "C" 
			},
			{
				"x": 3.7926301173,
				"y": 2.1877934226,
				"z": -1.0651938235,
				"element": "S" 
			},
			{
				"x": 1.5359569008,
				"y": 0.2083113824,
				"z": -2.1829742563,
				"element": "C" 
			},
			{
				"x": 2.6034648048,
				"y": 0.276851327,
				"z": -2.7938161306,
				"element": "O" 
			},
			{
				"x": 0.5091681792,
				"y": -0.6461118021,
				"z": -2.635911922,
				"element": "N" 
			},
			{
				"x": 0.7905234791,
				"y": -1.5405788803,
				"z": -3.7685514878,
				"element": "C" 
			},
			{
				"x": 0.0787371155,
				"y": -1.2491907094,
				"z": -5.0994253855,
				"element": "C" 
			},
			{
				"x": -0.3597184752,
				"y": -2.1754620238,
				"z": -5.7634320091,
				"element": "O" 
			},
			{
				"x": -0.0013436407,
				"y": 0.0455853705,
				"z": -5.5480999226,
				"element": "N" 
			},
			{
				"x": 0.7337099019,
				"y": 1.1634930741,
				"z": -5.1107641382,
				"element": "N" 
			},
			{
				"x": -0.7436522404,
				"y": -0.8040193659,
				"z": -2.0365052928,
				"element": "C" 
			},
			{
				"x": -1.5754253743,
				"y": -1.5823386561,
				"z": -2.4718927124,
				"element": "O" 
			},
			{
				"x": -3.1157886031,
				"y": -0.8323084665,
				"z": 1.6383497724,
				"element": "H" 
			},
			{
				"x": -1.5749221517,
				"y": 0.0077397019,
				"z": 1.8411302126,
				"element": "H" 
			},
			{
				"x": -1.6082561844,
				"y": -1.6376744898,
				"z": 1.1741627265,
				"element": "H" 
			},
			{
				"x": -2.8348302254,
				"y": -0.8427938164,
				"z": -0.8337218184,
				"element": "H" 
			},
			{
				"x": -2.5307125744,
				"y": 1.9924411219,
				"z": 0.3246054966,
				"element": "H" 
			},
			{
				"x": -3.1472266578,
				"y": 1.581424956,
				"z": -1.2894533072,
				"element": "H" 
			},
			{
				"x": -4.0402874808,
				"y": 1.0912519823,
				"z": 0.1587755558,
				"element": "H" 
			},
			{
				"x": -0.2621881542,
				"y": 1.4137832916,
				"z": 0.4550726461,
				"element": "H" 
			},
			{
				"x": 2.631674873,
				"y": 3.7125829239,
				"z": 3.1272157979,
				"element": "H" 
			},
			{
				"x": 3.7446648103,
				"y": 4.8879957613,
				"z": 2.4004404899,
				"element": "H" 
			},
			{
				"x": 1.9980743968,
				"y": 5.0066272609,
				"z": 2.110808589,
				"element": "H" 
			},
			{
				"x": 5.0066474421,
				"y": 3.8522982804,
				"z": 0.2965794228,
				"element": "H" 
			},
			{
				"x": 0.4827352214,
				"y": -2.5506116986,
				"z": -3.5022000827,
				"element": "H" 
			},
			{
				"x": 1.8713006579,
				"y": -1.5114356938,
				"z": -3.9210027831,
				"element": "H" 
			},
			{
				"x": -0.3556642238,
				"y": 0.1204281593,
				"z": -6.4939632616,
				"element": "H" 
			},
			{
				"x": 0.2700444848,
				"y": 1.588071189,
				"z": -4.3121805239,
				"element": "H" 
			},
			{
				"x": 1.6729703268,
				"y": 0.8973637814,
				"z": -4.8232250457,
				"element": "H" 
			}
		],
		 "valence_orbital": [ 
			{
				"type": "occ",
				"energy": -0.27819,
				"method": "rhf"
			},
			{
				"type": "occ",
				"energy": -0.26862,
				"method": "rhf"
			},
			{
				"type": "occ",
				"energy": -0.24917,
				"method": "rhf"
			},
			{
				"type": "occ",
				"energy": -0.24193,
				"method": "rhf"
			},
			{
				"type": "occ",
				"energy": -0.21951,
				"method": "rhf"
			},
			{
				"type": "unocc",
				"energy": -0.0686,
				"method": "rhf"
			},
			{
				"type": "unocc",
				"energy": -0.02844,
				"method": "rhf"
			},
			{
				"type": "unocc",
				"energy": 0.01114,
				"method": "rhf"
			},
			{
				"type": "unocc",
				"energy": 0.02038,
				"method": "rhf"
			},
			{
				"type": "unocc",
				"energy": 0.03324,
				"method": "rhf"
			}
		],
		"cosmo_sigma_profile": { 
			"-0.025": 0.0,
			"-0.024": 0.0,
			"-0.023": 0.0,
			"-0.022": 0.0,
			"-0.021": 0.0,
			"-0.02": 0.0,
			"-0.019": 0.0,
			"-0.018": 0.0,
			"-0.017": 0.0,
			"-0.016": 0.0,
			"-0.015": 0.0,
			"-0.014": 0.324595732235,
			"-0.013": 0.899542720778,
			"-0.012": 1.44692042449,
			"-0.011": 3.16714819529,
			"-0.01": 3.94011066853,
			"-0.009": 4.99070995878,
			"-0.008": 6.72520589857,
			"-0.007": 10.1987519358,
			"-0.006": 11.8118192759,
			"-0.005": 24.275425295,
			"-0.004": 35.3428207071,
			"-0.003": 28.3452328835,
			"-0.002": 27.9721166143,
			"-0.001": 30.0776575426,
			"0.0": 27.2936627092,
			"0.001": 15.3762594182,
			"0.002": 15.8678195359,
			"0.003": 17.7062401056,
			"0.004": 15.3127223198,
			"0.005": 7.83131662865,
			"0.006": 7.59195238361,
			"0.007": 4.86901364572,
			"0.008": 6.27251067412,
			"0.009": 7.45663219215,
			"0.01": 6.75996266359,
			"0.011": 9.63176343421,
			"0.012": 5.64964090031,
			"0.013": 6.53231819511,
			"0.014": 2.90923148642,
			"0.015": 0.61710827709,
			"0.016": 0.260758230002,
			"0.017": 0.00963041849242,
			"0.018": 0.0,
			"0.019": 0.0,
			"0.02": 0.0,
			"0.021": 0.0,
			"0.022": 0.0,
			"0.023": 0.0,
			"0.024": 0.0,
			"0.025": 0.0
		}
	}
}
