{
	 "smiles": "CC1=C(C(O)=O)C(=O)OC1(C)C", 
	 "Tm": 385.15, 
	 "num_atms": 22, 
	 "gaussian": { 
		 "optdone": 1, 
		 "sigma_profile": "yes", 
		 "theory": "DFT", 
		 "functional": "B3LYP", 
		 "basiset": "6-31G**", 
		 "properties": { 
			 "R2extent": 2167.4062, 
			 "electric_dipole_moment_norm": 6.29521976741, 
			 "electric_quadrupole_moment_norm": 10.4519660715, 
			 "total_energy": -611.808198665, 
			 "HOMO_LUMO_gap": 0.19617, 
			 "cosmo_polarized_energy": -15.27, 
			 "cosmo_cavitation_energy": 25.35, 
			 "cosmo_dispersion_energy": -18.3, 
			 "cosmo_repulsion_energy": 1.45, 
			 "cosmo_total_nonelectrostatic_energy": 8.49, 
			 "SMD_solvation_energy": 6.88 
		},
		"coords": [
			{
				"x": 0.8353720218,
				"y": -1.663116994,
				"z": -0.9986086914,
				"element": "C" 
			},
			{
				"x": 0.1127237978,
				"y": -0.6746697464,
				"z": -0.14826458,
				"element": "C" 
			},
			{
				"x": -1.2149497194,
				"y": -0.5438252257,
				"z": 0.0544323235,
				"element": "C" 
			},
			{
				"x": -2.3403856554,
				"y": -1.3491118192,
				"z": -0.5132650018,
				"element": "C" 
			},
			{
				"x": -3.5609335425,
				"y": -0.9669156901,
				"z": -0.1148420991,
				"element": "O" 
			},
			{
				"x": -2.1729836845,
				"y": -2.2787956525,
				"z": -1.2755440403,
				"element": "O" 
			},
			{
				"x": -1.4370118549,
				"y": 0.5840909978,
				"z": 0.9809638368,
				"element": "C" 
			},
			{
				"x": -2.5020292887,
				"y": 1.0072126774,
				"z": 1.3999610257,
				"element": "O" 
			},
			{
				"x": -0.2447371976,
				"y": 1.1186769863,
				"z": 1.3250566958,
				"element": "O" 
			},
			{
				"x": 0.8320094253,
				"y": 0.3937404643,
				"z": 0.6609253058,
				"element": "C" 
			},
			{
				"x": 1.5818505091,
				"y": 1.397869755,
				"z": -0.2222096717,
				"element": "C" 
			},
			{
				"x": 1.7276394439,
				"y": -0.1977463034,
				"z": 1.7556363521,
				"element": "C" 
			},
			{
				"x": 1.5349281008,
				"y": -2.2515136041,
				"z": -0.3923597029,
				"element": "H" 
			},
			{
				"x": 0.1257742722,
				"y": -2.3308043899,
				"z": -1.4853881791,
				"element": "H" 
			},
			{
				"x": 1.4349796379,
				"y": -1.1486421628,
				"z": -1.7594730976,
				"element": "H" 
			},
			{
				"x": -3.4872412254,
				"y": -0.1982143321,
				"z": 0.5005483179,
				"element": "H" 
			},
			{
				"x": 2.4176025201,
				"y": 0.9118267578,
				"z": -0.7332419328,
				"element": "H" 
			},
			{
				"x": 0.9127717513,
				"y": 1.8278987977,
				"z": -0.972121425,
				"element": "H" 
			},
			{
				"x": 1.9776672586,
				"y": 2.2071176167,
				"z": 0.3966875386,
				"element": "H" 
			},
			{
				"x": 2.5683479728,
				"y": -0.7398336105,
				"z": 1.3137982321,
				"element": "H" 
			},
			{
				"x": 1.160526485,
				"y": -0.8840562389,
				"z": 2.3899229424,
				"element": "H" 
			},
			{
				"x": 2.1240789718,
				"y": 0.6069117166,
				"z": 2.3800858511,
				"element": "H" 
			}
		],
		 "valence_orbital": [ 
			{
				"type": "occ",
				"energy": -0.32203,
				"method": "rhf"
			},
			{
				"type": "occ",
				"energy": -0.31276,
				"method": "rhf"
			},
			{
				"type": "occ",
				"energy": -0.29983,
				"method": "rhf"
			},
			{
				"type": "occ",
				"energy": -0.29165,
				"method": "rhf"
			},
			{
				"type": "occ",
				"energy": -0.27247,
				"method": "rhf"
			},
			{
				"type": "unocc",
				"energy": -0.0763,
				"method": "rhf"
			},
			{
				"type": "unocc",
				"energy": 0.00072,
				"method": "rhf"
			},
			{
				"type": "unocc",
				"energy": 0.05952,
				"method": "rhf"
			},
			{
				"type": "unocc",
				"energy": 0.0852,
				"method": "rhf"
			},
			{
				"type": "unocc",
				"energy": 0.10416,
				"method": "rhf"
			}
		],
		"cosmo_sigma_profile": { 
			"-0.025": 0.0,
			"-0.024": 0.0,
			"-0.023": 0.0,
			"-0.022": 0.0,
			"-0.021": 0.0,
			"-0.02": 0.0,
			"-0.019": 0.0,
			"-0.018": 0.0,
			"-0.017": 0.0,
			"-0.016": 0.0,
			"-0.015": 0.0,
			"-0.014": 0.0,
			"-0.013": 0.0,
			"-0.012": 0.0,
			"-0.011": 0.0,
			"-0.01": 0.0,
			"-0.009": 0.0387275258624,
			"-0.008": 0.646096432033,
			"-0.007": 6.06650571187,
			"-0.006": 19.4131529405,
			"-0.005": 25.1085359759,
			"-0.004": 18.6512570835,
			"-0.003": 18.7595823272,
			"-0.002": 20.9347633757,
			"-0.001": 17.221883479,
			"0.0": 5.9765393066,
			"0.001": 6.06408282145,
			"0.002": 3.53977151008,
			"0.003": 5.11590238852,
			"0.004": 4.40205601465,
			"0.005": 4.31229278086,
			"0.006": 4.19357192816,
			"0.007": 5.48589762434,
			"0.008": 7.24773749433,
			"0.009": 6.24170797917,
			"0.01": 6.98849099913,
			"0.011": 7.45614311636,
			"0.012": 4.58229418514,
			"0.013": 1.83272214009,
			"0.014": 0.139243332571,
			"0.015": 0.0,
			"0.016": 0.0,
			"0.017": 0.0,
			"0.018": 0.0,
			"0.019": 0.0,
			"0.02": 0.0,
			"0.021": 0.0,
			"0.022": 0.0,
			"0.023": 0.0,
			"0.024": 0.0,
			"0.025": 0.0
		}
	}
}
