{
	 "smiles": "CC(=NNC(N)=O)C1=CC(=CC=C1)C(C)=NNC(N)=O", 
	 "Tm": 511.15, 
	 "num_atms": 36, 
	 "gaussian": { 
		 "optdone": 1, 
		 "sigma_profile": "yes", 
		 "theory": "DFT", 
		 "functional": "B3LYP", 
		 "basiset": "6-31G**", 
		 "properties": { 
			 "R2extent": 6278.2755, 
			 "electric_dipole_moment_norm": 5.38183010323, 
			 "electric_quadrupole_moment_norm": 13.4136658804, 
			 "total_energy": -945.845491605, 
			 "HOMO_LUMO_gap": 0.19348, 
			 "cosmo_polarized_energy": -29.81, 
			 "cosmo_cavitation_energy": 40.96, 
			 "cosmo_dispersion_energy": -26.85, 
			 "cosmo_repulsion_energy": 2.16, 
			 "cosmo_total_nonelectrostatic_energy": 16.28, 
			 "SMD_solvation_energy": 7.59 
		},
		"coords": [
			{
				"x": 3.3905962045,
				"y": -1.1439812086,
				"z": 0.234793604,
				"element": "C" 
			},
			{
				"x": 2.8492484412,
				"y": 0.259717759,
				"z": 0.1340998998,
				"element": "C" 
			},
			{
				"x": 3.7235562908,
				"y": 1.2022120706,
				"z": 0.1846971742,
				"element": "N" 
			},
			{
				"x": 3.2411154479,
				"y": 2.5262114478,
				"z": 0.1735164212,
				"element": "N" 
			},
			{
				"x": 2.4831447752,
				"y": 2.9967528161,
				"z": 1.2620672303,
				"element": "C" 
			},
			{
				"x": 2.4077101699,
				"y": 4.385370574,
				"z": 1.2749917914,
				"element": "N" 
			},
			{
				"x": 1.9699493517,
				"y": 2.2894811936,
				"z": 2.1092852297,
				"element": "O" 
			},
			{
				"x": 1.3781789885,
				"y": 0.3999699257,
				"z": -0.0911625703,
				"element": "C" 
			},
			{
				"x": 0.4597728616,
				"y": -0.1991753147,
				"z": 0.7770454937,
				"element": "C" 
			},
			{
				"x": -0.9146154004,
				"y": -0.1475507943,
				"z": 0.5228050712,
				"element": "C" 
			},
			{
				"x": -1.3719538371,
				"y": 0.5161768389,
				"z": -0.6249217216,
				"element": "C" 
			},
			{
				"x": -0.4630727898,
				"y": 1.1179448745,
				"z": -1.4945031235,
				"element": "C" 
			},
			{
				"x": 0.9054490957,
				"y": 1.0636610514,
				"z": -1.2326847242,
				"element": "C" 
			},
			{
				"x": -1.8963177672,
				"y": -0.706508036,
				"z": 1.5017683202,
				"element": "C" 
			},
			{
				"x": -1.8254682789,
				"y": -0.1783504158,
				"z": 2.9122882981,
				"element": "C" 
			},
			{
				"x": -2.8450065321,
				"y": -1.5422577198,
				"z": 1.2635098333,
				"element": "N" 
			},
			{
				"x": -2.8879117218,
				"y": -2.1142045258,
				"z": -0.0236928705,
				"element": "N" 
			},
			{
				"x": -1.8533283491,
				"y": -2.9756231415,
				"z": -0.434094668,
				"element": "C" 
			},
			{
				"x": -2.2207967068,
				"y": -3.7296831096,
				"z": -1.5433644387,
				"element": "N" 
			},
			{
				"x": -0.7730476289,
				"y": -3.0767781398,
				"z": 0.117404836,
				"element": "O" 
			},
			{
				"x": 3.0765056353,
				"y": -1.7437755178,
				"z": -0.6264659266,
				"element": "H" 
			},
			{
				"x": 2.99628548,
				"y": -1.6451344428,
				"z": 1.126203924,
				"element": "H" 
			},
			{
				"x": 4.4798777962,
				"y": -1.1190590109,
				"z": 0.2971031465,
				"element": "H" 
			},
			{
				"x": 4.0167487379,
				"y": 3.141999238,
				"z": -0.0414110832,
				"element": "H" 
			},
			{
				"x": 2.4032987723,
				"y": 4.8561189603,
				"z": 0.3801285191,
				"element": "H" 
			},
			{
				"x": 1.7147660603,
				"y": 4.7269193705,
				"z": 1.9259807984,
				"element": "H" 
			},
			{
				"x": 0.8192507105,
				"y": -0.7124048277,
				"z": 1.661886726,
				"element": "H" 
			},
			{
				"x": -2.4367584118,
				"y": 0.5600645838,
				"z": -0.8291267109,
				"element": "H" 
			},
			{
				"x": -0.8233523256,
				"y": 1.6321291849,
				"z": -2.3813153184,
				"element": "H" 
			},
			{
				"x": 1.6118154909,
				"y": 1.5313143072,
				"z": -1.9107419652,
				"element": "H" 
			},
			{
				"x": -2.648946058,
				"y": -0.5833146442,
				"z": 3.5029911201,
				"element": "H" 
			},
			{
				"x": -0.8778638017,
				"y": -0.4644559136,
				"z": 3.3828773756,
				"element": "H" 
			},
			{
				"x": -1.8604503938,
				"y": 0.9165948897,
				"z": 2.918883486,
				"element": "H" 
			},
			{
				"x": -3.8017770945,
				"y": -2.5330762637,
				"z": -0.1517116688,
				"element": "H" 
			},
			{
				"x": -2.8491453043,
				"y": -3.2981444085,
				"z": -2.2077119674,
				"element": "H" 
			},
			{
				"x": -1.4338579084,
				"y": -4.2027616509,
				"z": -1.9647195415,
				"element": "H" 
			}
		],
		 "valence_orbital": [ 
			{
				"type": "occ",
				"energy": -0.25816,
				"method": "rhf"
			},
			{
				"type": "occ",
				"energy": -0.24257,
				"method": "rhf"
			},
			{
				"type": "occ",
				"energy": -0.23909,
				"method": "rhf"
			},
			{
				"type": "occ",
				"energy": -0.22067,
				"method": "rhf"
			},
			{
				"type": "occ",
				"energy": -0.21891,
				"method": "rhf"
			},
			{
				"type": "unocc",
				"energy": -0.02543,
				"method": "rhf"
			},
			{
				"type": "unocc",
				"energy": -0.01229,
				"method": "rhf"
			},
			{
				"type": "unocc",
				"energy": 0.01843,
				"method": "rhf"
			},
			{
				"type": "unocc",
				"energy": 0.03059,
				"method": "rhf"
			},
			{
				"type": "unocc",
				"energy": 0.04957,
				"method": "rhf"
			}
		],
		"cosmo_sigma_profile": { 
			"-0.025": 0.0,
			"-0.024": 0.0,
			"-0.023": 0.0,
			"-0.022": 0.0,
			"-0.021": 0.0,
			"-0.02": 0.0,
			"-0.019": 0.0,
			"-0.018": 0.0,
			"-0.017": 0.0,
			"-0.016": 0.0,
			"-0.015": 0.217322804447,
			"-0.014": 4.27884614664,
			"-0.013": 9.13881039097,
			"-0.012": 6.52881441688,
			"-0.011": 6.9957223396,
			"-0.01": 6.24504812629,
			"-0.009": 5.04176153301,
			"-0.008": 5.04973107534,
			"-0.007": 5.82628672444,
			"-0.006": 11.4189691335,
			"-0.005": 17.175226194,
			"-0.004": 20.2735468095,
			"-0.003": 18.8676081786,
			"-0.002": 22.2567762094,
			"-0.001": 23.0105345185,
			"0.0": 21.3884752499,
			"0.001": 13.1715041932,
			"0.002": 14.754024884,
			"0.003": 16.1263939922,
			"0.004": 15.4476787397,
			"0.005": 11.5209988017,
			"0.006": 7.46203079192,
			"0.007": 7.3777060761,
			"0.008": 8.44006949039,
			"0.009": 7.36803432922,
			"0.01": 8.46658957608,
			"0.011": 7.27320393327,
			"0.012": 6.54368287249,
			"0.013": 8.18708243843,
			"0.014": 6.17225328556,
			"0.015": 0.493780333771,
			"0.016": 0.0,
			"0.017": 0.0,
			"0.018": 0.0,
			"0.019": 0.0,
			"0.02": 0.0,
			"0.021": 0.0,
			"0.022": 0.0,
			"0.023": 0.0,
			"0.024": 0.0,
			"0.025": 0.0
		}
	}
}
