{
	 "smiles": "NC(=S)C1=CC=NO1", 
	 "Tm": 436.15, 
	 "num_atms": 12, 
	 "gaussian": { 
		 "optdone": 1, 
		 "sigma_profile": "yes", 
		 "theory": "DFT", 
		 "functional": "B3LYP", 
		 "basiset": "6-31G**", 
		 "properties": { 
			 "R2extent": 1409.449, 
			 "electric_dipole_moment_norm": 6.54179506252, 
			 "electric_quadrupole_moment_norm": 7.74697887954, 
			 "total_energy": -737.688645911, 
			 "HOMO_LUMO_gap": 0.13719, 
			 "cosmo_polarized_energy": -21.2, 
			 "cosmo_cavitation_energy": 18.72, 
			 "cosmo_dispersion_energy": -14.49, 
			 "cosmo_repulsion_energy": 1.16, 
			 "cosmo_total_nonelectrostatic_energy": 5.39, 
			 "SMD_solvation_energy": 2.59 
		},
		"coords": [
			{
				"x": 1.6545477414,
				"y": -1.5862441527,
				"z": -0.5400515609,
				"element": "N" 
			},
			{
				"x": 0.4552422311,
				"y": -1.6941172081,
				"z": 0.0782850417,
				"element": "C" 
			},
			{
				"x": 0.096412212,
				"y": -2.9296376459,
				"z": 1.1278250659,
				"element": "S" 
			},
			{
				"x": -0.498493626,
				"y": -0.6233086238,
				"z": -0.2611750853,
				"element": "C" 
			},
			{
				"x": -0.4207974866,
				"y": 0.4731368859,
				"z": -1.0842830045,
				"element": "C" 
			},
			{
				"x": -1.6919083741,
				"y": 1.0837469304,
				"z": -0.9496634489,
				"element": "C" 
			},
			{
				"x": -2.4691416336,
				"y": 0.419879885,
				"z": -0.1222278581,
				"element": "N" 
			},
			{
				"x": -1.7190135647,
				"y": -0.6570051874,
				"z": 0.3134837895,
				"element": "O" 
			},
			{
				"x": 1.8796360406,
				"y": -0.8391996968,
				"z": -1.1784569394,
				"element": "H" 
			},
			{
				"x": 2.3513017335,
				"y": -2.2904011685,
				"z": -0.3482632408,
				"element": "H" 
			},
			{
				"x": 0.4029569655,
				"y": 0.8076094867,
				"z": -1.6962404491,
				"element": "H" 
			},
			{
				"x": -2.068842239,
				"y": 1.9805404953,
				"z": -1.4241323101,
				"element": "H" 
			}
		],
		 "valence_orbital": [ 
			{
				"type": "occ",
				"energy": -0.3202,
				"method": "rhf"
			},
			{
				"type": "occ",
				"energy": -0.31777,
				"method": "rhf"
			},
			{
				"type": "occ",
				"energy": -0.28429,
				"method": "rhf"
			},
			{
				"type": "occ",
				"energy": -0.24235,
				"method": "rhf"
			},
			{
				"type": "occ",
				"energy": -0.22107,
				"method": "rhf"
			},
			{
				"type": "unocc",
				"energy": -0.08388,
				"method": "rhf"
			},
			{
				"type": "unocc",
				"energy": 0.00652,
				"method": "rhf"
			},
			{
				"type": "unocc",
				"energy": 0.04486,
				"method": "rhf"
			},
			{
				"type": "unocc",
				"energy": 0.06797,
				"method": "rhf"
			},
			{
				"type": "unocc",
				"energy": 0.07331,
				"method": "rhf"
			}
		],
		"cosmo_sigma_profile": { 
			"-0.025": 0.0,
			"-0.024": 0.0,
			"-0.023": 0.0,
			"-0.022": 0.0,
			"-0.021": 0.0,
			"-0.02": 0.0,
			"-0.019": 0.0,
			"-0.018": 0.00115480323557,
			"-0.017": 1.13860735343,
			"-0.016": 2.07271760971,
			"-0.015": 2.34332143613,
			"-0.014": 2.93719197046,
			"-0.013": 3.14828912304,
			"-0.012": 2.49957654452,
			"-0.011": 2.76466200294,
			"-0.01": 4.24847382413,
			"-0.009": 3.81598493179,
			"-0.008": 5.39387981196,
			"-0.007": 3.90397019481,
			"-0.006": 5.0093477028,
			"-0.005": 4.03091781714,
			"-0.004": 3.99420388354,
			"-0.003": 4.81332081689,
			"-0.002": 8.57042944548,
			"-0.001": 9.24258568503,
			"0.0": 9.23951192046,
			"0.001": 6.51551615774,
			"0.002": 5.07638986168,
			"0.003": 4.81410729183,
			"0.004": 5.54711410885,
			"0.005": 5.5746837806,
			"0.006": 7.45433649325,
			"0.007": 8.7210429908,
			"0.008": 9.56954830168,
			"0.009": 6.84577196202,
			"0.01": 5.14424206766,
			"0.011": 4.6889873101,
			"0.012": 2.77538425099,
			"0.013": 1.49329404371,
			"0.014": 0.041354281599,
			"0.015": 0.0,
			"0.016": 0.0,
			"0.017": 0.0,
			"0.018": 0.0,
			"0.019": 0.0,
			"0.02": 0.0,
			"0.021": 0.0,
			"0.022": 0.0,
			"0.023": 0.0,
			"0.024": 0.0,
			"0.025": 0.0
		}
	}
}
