{
	 "smiles": "FC1=CC=C(C=C1)C#N", 
	 "Tm": 308.55, 
	 "num_atms": 13, 
	 "gaussian": { 
		 "optdone": 1, 
		 "sigma_profile": "yes", 
		 "theory": "DFT", 
		 "functional": "B3LYP", 
		 "basiset": "6-31G**", 
		 "properties": { 
			 "R2extent": 2237.0005, 
			 "electric_dipole_moment_norm": 3.2866484631, 
			 "electric_quadrupole_moment_norm": 20.7980870128, 
			 "total_energy": -423.722974543, 
			 "HOMO_LUMO_gap": 0.21154, 
			 "cosmo_polarized_energy": -8.3, 
			 "cosmo_cavitation_energy": 19.15, 
			 "cosmo_dispersion_energy": -13.48, 
			 "cosmo_repulsion_energy": 1.08, 
			 "cosmo_total_nonelectrostatic_energy": 6.75, 
			 "SMD_solvation_energy": 5.33 
		},
		"coords": [
			{
				"x": -1.4489720563,
				"y": 0.9523644338,
				"z": 3.1017036131,
				"element": "F" 
			},
			{
				"x": -0.2798290129,
				"y": 0.730234931,
				"z": 2.4776414691,
				"element": "C" 
			},
			{
				"x": 0.899754699,
				"y": 1.1326204888,
				"z": 3.0979480484,
				"element": "C" 
			},
			{
				"x": 2.1087422316,
				"y": 0.9016927836,
				"z": 2.4501696239,
				"element": "C" 
			},
			{
				"x": 2.1277083668,
				"y": 0.2728158769,
				"z": 1.1925218773,
				"element": "C" 
			},
			{
				"x": 0.9207144235,
				"y": -0.1231714701,
				"z": 0.5892957094,
				"element": "C" 
			},
			{
				"x": -0.2905918995,
				"y": 0.1057387552,
				"z": 1.2334512984,
				"element": "C" 
			},
			{
				"x": 3.3747071458,
				"y": 0.0359836734,
				"z": 0.5268950768,
				"element": "C" 
			},
			{
				"x": 4.38693265,
				"y": -0.156230738,
				"z": -0.0133884329,
				"element": "N" 
			},
			{
				"x": 0.8579198568,
				"y": 1.6154582701,
				"z": 4.0677481126,
				"element": "H" 
			},
			{
				"x": 3.0419107395,
				"y": 1.2055061277,
				"z": 2.9118973714,
				"element": "H" 
			},
			{
				"x": 0.9398120187,
				"y": -0.6078969819,
				"z": -0.3807436758,
				"element": "H" 
			},
			{
				"x": -1.234709163,
				"y": -0.1898161504,
				"z": 0.7899599082,
				"element": "H" 
			}
		],
		 "valence_orbital": [ 
			{
				"type": "occ",
				"energy": -0.36133,
				"method": "rhf"
			},
			{
				"type": "occ",
				"energy": -0.34599,
				"method": "rhf"
			},
			{
				"type": "occ",
				"energy": -0.33453,
				"method": "rhf"
			},
			{
				"type": "occ",
				"energy": -0.28882,
				"method": "rhf"
			},
			{
				"type": "occ",
				"energy": -0.26445,
				"method": "rhf"
			},
			{
				"type": "unocc",
				"energy": -0.05291,
				"method": "rhf"
			},
			{
				"type": "unocc",
				"energy": -0.03706,
				"method": "rhf"
			},
			{
				"type": "unocc",
				"energy": 0.03227,
				"method": "rhf"
			},
			{
				"type": "unocc",
				"energy": 0.06537,
				"method": "rhf"
			},
			{
				"type": "unocc",
				"energy": 0.07531,
				"method": "rhf"
			}
		],
		"cosmo_sigma_profile": { 
			"-0.025": 0.0,
			"-0.024": 0.0,
			"-0.023": 0.0,
			"-0.022": 0.0,
			"-0.021": 0.0,
			"-0.02": 0.0,
			"-0.019": 0.0,
			"-0.018": 0.0,
			"-0.017": 0.0,
			"-0.016": 0.0,
			"-0.015": 0.0,
			"-0.014": 0.0,
			"-0.013": 0.0,
			"-0.012": 0.0,
			"-0.011": 0.0,
			"-0.01": 0.0,
			"-0.009": 1.76984973351,
			"-0.008": 9.05821289974,
			"-0.007": 8.32633362011,
			"-0.006": 8.48580155822,
			"-0.005": 6.35317292136,
			"-0.004": 6.65232598183,
			"-0.003": 7.1824662056,
			"-0.002": 9.02979350246,
			"-0.001": 16.7703967444,
			"0.0": 15.5047721386,
			"0.001": 16.2904156449,
			"0.002": 9.66739795955,
			"0.003": 8.94876737882,
			"0.004": 7.29674366217,
			"0.005": 2.42824561456,
			"0.006": 2.24463596819,
			"0.007": 2.95301186799,
			"0.008": 3.47035500523,
			"0.009": 3.35192861723,
			"0.01": 3.2136432008,
			"0.011": 2.86872343508,
			"0.012": 2.40077724032,
			"0.013": 1.56808277992,
			"0.014": 0.0797841074843,
			"0.015": 0.0,
			"0.016": 0.0,
			"0.017": 0.0,
			"0.018": 0.0,
			"0.019": 0.0,
			"0.02": 0.0,
			"0.021": 0.0,
			"0.022": 0.0,
			"0.023": 0.0,
			"0.024": 0.0,
			"0.025": 0.0
		}
	}
}
