{
	 "smiles": "COC1=CC=C(C=C1)C(=O)NC1=CC=C(S1)C(O)=O", 
	 "Tm": 472.15, 
	 "num_atms": 30, 
	 "gaussian": { 
		 "optdone": 1, 
		 "sigma_profile": "yes", 
		 "theory": "DFT", 
		 "functional": "B3LYP", 
		 "basiset": "6-31G**", 
		 "properties": { 
			 "R2extent": 7699.5683, 
			 "electric_dipole_moment_norm": 6.93168702193, 
			 "electric_quadrupole_moment_norm": 17.8352600076, 
			 "total_energy": -1255.83742289, 
			 "HOMO_LUMO_gap": 0.16388, 
			 "cosmo_polarized_energy": -24.07, 
			 "cosmo_cavitation_energy": 37.24, 
			 "cosmo_dispersion_energy": -26.85, 
			 "cosmo_repulsion_energy": 2.03, 
			 "cosmo_total_nonelectrostatic_energy": 12.43, 
			 "SMD_solvation_energy": 8.51 
		},
		"coords": [
			{
				"x": -6.1693290545,
				"y": -1.4830442672,
				"z": 0.3078034045,
				"element": "C" 
			},
			{
				"x": -5.0833315801,
				"y": -0.5808020025,
				"z": 0.1402715086,
				"element": "O" 
			},
			{
				"x": -3.9011003817,
				"y": -1.0653922832,
				"z": -0.3202091712,
				"element": "C" 
			},
			{
				"x": -2.878819322,
				"y": -0.1150830624,
				"z": -0.487074566,
				"element": "C" 
			},
			{
				"x": -1.6288888294,
				"y": -0.5066884874,
				"z": -0.939427286,
				"element": "C" 
			},
			{
				"x": -1.3684933624,
				"y": -1.8551574389,
				"z": -1.2458733413,
				"element": "C" 
			},
			{
				"x": -2.4029943679,
				"y": -2.7878490614,
				"z": -1.1042411422,
				"element": "C" 
			},
			{
				"x": -3.6581734859,
				"y": -2.4107913804,
				"z": -0.6329241856,
				"element": "C" 
			},
			{
				"x": -0.0852346752,
				"y": -2.3395919042,
				"z": -1.8251060677,
				"element": "C" 
			},
			{
				"x": -0.0297562179,
				"y": -3.2978202367,
				"z": -2.5834672904,
				"element": "O" 
			},
			{
				"x": 1.0996730544,
				"y": -1.6411900278,
				"z": -1.5452840827,
				"element": "N" 
			},
			{
				"x": 1.4533514495,
				"y": -0.9458148308,
				"z": -0.38872576,
				"element": "C" 
			},
			{
				"x": 1.0301477119,
				"y": -1.1423364762,
				"z": 0.9087544661,
				"element": "C" 
			},
			{
				"x": 1.6240679288,
				"y": -0.2260723011,
				"z": 1.8120465929,
				"element": "C" 
			},
			{
				"x": 2.5008056425,
				"y": 0.653622788,
				"z": 1.2156650813,
				"element": "C" 
			},
			{
				"x": 2.5859905016,
				"y": 0.3807511279,
				"z": -0.5073133791,
				"element": "S" 
			},
			{
				"x": 3.3663096383,
				"y": 1.7029514913,
				"z": 1.7842903424,
				"element": "C" 
			},
			{
				"x": 3.1965009377,
				"y": 1.9883355058,
				"z": 3.1034610737,
				"element": "O" 
			},
			{
				"x": 4.1943971188,
				"y": 2.3006403959,
				"z": 1.1335463537,
				"element": "O" 
			},
			{
				"x": -7.0029639605,
				"y": -0.8828757688,
				"z": 0.6743286469,
				"element": "H" 
			},
			{
				"x": -5.9351420452,
				"y": -2.2636517626,
				"z": 1.0422036699,
				"element": "H" 
			},
			{
				"x": -6.4517787472,
				"y": -1.9535691884,
				"z": -0.6419168144,
				"element": "H" 
			},
			{
				"x": -3.0969782022,
				"y": 0.923312251,
				"z": -0.261375937,
				"element": "H" 
			},
			{
				"x": -0.8581419179,
				"y": 0.2435639908,
				"z": -1.0775369969,
				"element": "H" 
			},
			{
				"x": -2.210030471,
				"y": -3.8201514281,
				"z": -1.3766621864,
				"element": "H" 
			},
			{
				"x": -4.4337226656,
				"y": -3.1590880615,
				"z": -0.5234665361,
				"element": "H" 
			},
			{
				"x": 1.8611396753,
				"y": -1.9836195841,
				"z": -2.1217083192,
				"element": "H" 
			},
			{
				"x": 0.334998348,
				"y": -1.9204684151,
				"z": 1.1959921412,
				"element": "H" 
			},
			{
				"x": 1.4290808676,
				"y": -0.2602566187,
				"z": 2.8800182623,
				"element": "H" 
			},
			{
				"x": 2.4470164124,
				"y": 1.4984370369,
				"z": 3.4683315187,
				"element": "H" 
			}
		],
		 "valence_orbital": [ 
			{
				"type": "occ",
				"energy": -0.27586,
				"method": "rhf"
			},
			{
				"type": "occ",
				"energy": -0.27098,
				"method": "rhf"
			},
			{
				"type": "occ",
				"energy": -0.26763,
				"method": "rhf"
			},
			{
				"type": "occ",
				"energy": -0.23974,
				"method": "rhf"
			},
			{
				"type": "occ",
				"energy": -0.2313,
				"method": "rhf"
			},
			{
				"type": "unocc",
				"energy": -0.06742,
				"method": "rhf"
			},
			{
				"type": "unocc",
				"energy": -0.03946,
				"method": "rhf"
			},
			{
				"type": "unocc",
				"energy": -0.01676,
				"method": "rhf"
			},
			{
				"type": "unocc",
				"energy": 0.00764,
				"method": "rhf"
			},
			{
				"type": "unocc",
				"energy": 0.01829,
				"method": "rhf"
			}
		],
		"cosmo_sigma_profile": { 
			"-0.025": 0.0,
			"-0.024": 0.0,
			"-0.023": 0.0,
			"-0.022": 0.0,
			"-0.021": 0.0,
			"-0.02": 0.0,
			"-0.019": 0.68918558008,
			"-0.018": 1.0254384477,
			"-0.017": 1.00521932967,
			"-0.016": 1.43169435393,
			"-0.015": 2.06091538364,
			"-0.014": 2.1195632589,
			"-0.013": 1.79628199416,
			"-0.012": 1.99493696548,
			"-0.011": 2.53316132435,
			"-0.01": 2.73129378614,
			"-0.009": 2.08842907558,
			"-0.008": 2.83972173146,
			"-0.007": 8.56390609587,
			"-0.006": 17.6041814529,
			"-0.005": 20.9486241056,
			"-0.004": 21.1070511517,
			"-0.003": 18.1870277851,
			"-0.002": 15.9184343595,
			"-0.001": 18.3192321173,
			"0.0": 16.7736546991,
			"0.001": 21.6995302833,
			"0.002": 25.0938506181,
			"0.003": 21.8624560388,
			"0.004": 13.6628605496,
			"0.005": 6.12671209666,
			"0.006": 5.47603382167,
			"0.007": 4.66077565134,
			"0.008": 6.28463479024,
			"0.009": 6.83845454096,
			"0.01": 6.85862827527,
			"0.011": 7.04521544909,
			"0.012": 9.45466702983,
			"0.013": 5.13384075696,
			"0.014": 0.222146031035,
			"0.015": 0.0,
			"0.016": 0.0,
			"0.017": 0.0,
			"0.018": 0.0,
			"0.019": 0.0,
			"0.02": 0.0,
			"0.021": 0.0,
			"0.022": 0.0,
			"0.023": 0.0,
			"0.024": 0.0,
			"0.025": 0.0
		}
	}
}
