{
	 "smiles": "CC(C)(C)NCC(O)C1=CC=CC=C1Cl", 
	 "Tm": 362.15, 
	 "num_atms": 33, 
	 "gaussian": { 
		 "optdone": 1, 
		 "sigma_profile": "yes", 
		 "theory": "DFT", 
		 "functional": "B3LYP", 
		 "basiset": "6-31G**", 
		 "properties": { 
			 "R2extent": 4562.914, 
			 "electric_dipole_moment_norm": 2.03704269469, 
			 "electric_quadrupole_moment_norm": 11.5240474461, 
			 "total_energy": -1058.28712212, 
			 "HOMO_LUMO_gap": 0.20254, 
			 "cosmo_polarized_energy": -11.12, 
			 "cosmo_cavitation_energy": 35.8, 
			 "cosmo_dispersion_energy": -24.41, 
			 "cosmo_repulsion_energy": 1.94, 
			 "cosmo_total_nonelectrostatic_energy": 13.33, 
			 "SMD_solvation_energy": 4.57 
		},
		"coords": [
			{
				"x": 0.7599777385,
				"y": -2.9663518955,
				"z": 0.9273118269,
				"element": "C" 
			},
			{
				"x": -0.5663172817,
				"y": -2.5828226103,
				"z": 0.24894491,
				"element": "C" 
			},
			{
				"x": -0.9798207027,
				"y": -3.7090760298,
				"z": -0.7153904714,
				"element": "C" 
			},
			{
				"x": -1.6561091313,
				"y": -2.3848978986,
				"z": 1.3261066945,
				"element": "C" 
			},
			{
				"x": -0.2846101045,
				"y": -1.3526674413,
				"z": -0.5274083381,
				"element": "N" 
			},
			{
				"x": -1.4018767118,
				"y": -0.686937614,
				"z": -1.1910047244,
				"element": "C" 
			},
			{
				"x": -0.8774041512,
				"y": 0.4349233601,
				"z": -2.1135152521,
				"element": "C" 
			},
			{
				"x": -1.9243804566,
				"y": 1.0197685328,
				"z": -2.8783462518,
				"element": "O" 
			},
			{
				"x": -0.15281793,
				"y": 1.5427292733,
				"z": -1.3629682959,
				"element": "C" 
			},
			{
				"x": 1.2421883659,
				"y": 1.6266226198,
				"z": -1.4953528494,
				"element": "C" 
			},
			{
				"x": 1.997745027,
				"y": 2.5931786544,
				"z": -0.8342448891,
				"element": "C" 
			},
			{
				"x": 1.3585969773,
				"y": 3.5221018958,
				"z": -0.0151753739,
				"element": "C" 
			},
			{
				"x": -0.0253856937,
				"y": 3.4681642436,
				"z": 0.1401484397,
				"element": "C" 
			},
			{
				"x": -0.7672891242,
				"y": 2.4870598232,
				"z": -0.5210491816,
				"element": "C" 
			},
			{
				"x": -2.5060065745,
				"y": 2.4966891506,
				"z": -0.2315072259,
				"element": "Cl" 
			},
			{
				"x": 1.0838588166,
				"y": -2.1842092148,
				"z": 1.6248150202,
				"element": "H" 
			},
			{
				"x": 1.5466620002,
				"y": -3.100483579,
				"z": 0.1790235355,
				"element": "H" 
			},
			{
				"x": 0.6549492063,
				"y": -3.8950494411,
				"z": 1.4967813776,
				"element": "H" 
			},
			{
				"x": -1.0675391728,
				"y": -4.6581532198,
				"z": -0.1768443769,
				"element": "H" 
			},
			{
				"x": -0.232725441,
				"y": -3.8249815372,
				"z": -1.5062719395,
				"element": "H" 
			},
			{
				"x": -1.9493045586,
				"y": -3.5134720687,
				"z": -1.1849431125,
				"element": "H" 
			},
			{
				"x": -1.3777913188,
				"y": -1.5821382085,
				"z": 2.0186669069,
				"element": "H" 
			},
			{
				"x": -2.6216758052,
				"y": -2.1248737005,
				"z": 0.8807864042,
				"element": "H" 
			},
			{
				"x": -1.7994541232,
				"y": -3.2988541625,
				"z": 1.9129965234,
				"element": "H" 
			},
			{
				"x": 0.1646164363,
				"y": -0.6817540971,
				"z": 0.0925501194,
				"element": "H" 
			},
			{
				"x": -1.909295407,
				"y": -1.417151362,
				"z": -1.8350040255,
				"element": "H" 
			},
			{
				"x": -2.1639745869,
				"y": -0.272282182,
				"z": -0.515125567,
				"element": "H" 
			},
			{
				"x": -0.134092591,
				"y": -0.0341859814,
				"z": -2.7755315149,
				"element": "H" 
			},
			{
				"x": -2.4437869938,
				"y": 0.3020864353,
				"z": -3.2638043217,
				"element": "H" 
			},
			{
				"x": 1.7376710756,
				"y": 0.9081890447,
				"z": -2.1420658116,
				"element": "H" 
			},
			{
				"x": 3.0749684322,
				"y": 2.6232181126,
				"z": -0.966159094,
				"element": "H" 
			},
			{
				"x": 1.9275868499,
				"y": 4.2883951391,
				"z": 0.5027776039,
				"element": "H" 
			},
			{
				"x": -0.5404630652,
				"y": 4.181515959,
				"z": 0.7741032551,
				"element": "H" 
			}
		],
		 "valence_orbital": [ 
			{
				"type": "occ",
				"energy": -0.30114,
				"method": "rhf"
			},
			{
				"type": "occ",
				"energy": -0.26623,
				"method": "rhf"
			},
			{
				"type": "occ",
				"energy": -0.25418,
				"method": "rhf"
			},
			{
				"type": "occ",
				"energy": -0.24263,
				"method": "rhf"
			},
			{
				"type": "occ",
				"energy": -0.21754,
				"method": "rhf"
			},
			{
				"type": "unocc",
				"energy": -0.015,
				"method": "rhf"
			},
			{
				"type": "unocc",
				"energy": -0.01013,
				"method": "rhf"
			},
			{
				"type": "unocc",
				"energy": 0.03638,
				"method": "rhf"
			},
			{
				"type": "unocc",
				"energy": 0.07589,
				"method": "rhf"
			},
			{
				"type": "unocc",
				"energy": 0.07705,
				"method": "rhf"
			}
		],
		"cosmo_sigma_profile": { 
			"-0.025": 0.0,
			"-0.024": 0.0,
			"-0.023": 0.0,
			"-0.022": 0.0,
			"-0.021": 0.0,
			"-0.02": 0.0,
			"-0.019": 0.0,
			"-0.018": 0.0,
			"-0.017": 0.0,
			"-0.016": 0.0399587200787,
			"-0.015": 1.00221953569,
			"-0.014": 0.983207720215,
			"-0.013": 1.23876331607,
			"-0.012": 1.10390262001,
			"-0.011": 1.04129097304,
			"-0.01": 1.07090611937,
			"-0.009": 0.815110300824,
			"-0.008": 0.710906297375,
			"-0.007": 4.69043878329,
			"-0.006": 11.1746989503,
			"-0.005": 12.7377439039,
			"-0.004": 15.5435879924,
			"-0.003": 21.3428015307,
			"-0.002": 30.343171442,
			"-0.001": 27.0678394915,
			"0.0": 26.007193083,
			"0.001": 32.2968469858,
			"0.002": 26.1361528026,
			"0.003": 16.3507521972,
			"0.004": 18.0508181748,
			"0.005": 8.87639290031,
			"0.006": 3.73582786471,
			"0.007": 2.43527449312,
			"0.008": 3.29083625893,
			"0.009": 2.38395572142,
			"0.01": 2.28345487222,
			"0.011": 2.01748143255,
			"0.012": 2.45862250458,
			"0.013": 2.25356653649,
			"0.014": 1.23369701864,
			"0.015": 0.473856067323,
			"0.016": 0.324957950595,
			"0.017": 0.0,
			"0.018": 0.0,
			"0.019": 0.0,
			"0.02": 0.0,
			"0.021": 0.0,
			"0.022": 0.0,
			"0.023": 0.0,
			"0.024": 0.0,
			"0.025": 0.0
		}
	}
}
