{
	 "smiles": "ClCN1C(=O)C2=CC=CC=C2C1=O", 
	 "Tm": 406.15, 
	 "num_atms": 19, 
	 "gaussian": { 
		 "optdone": 1, 
		 "sigma_profile": "yes", 
		 "theory": "DFT", 
		 "functional": "B3LYP", 
		 "basiset": "6-31G**", 
		 "properties": { 
			 "R2extent": 3100.034, 
			 "electric_dipole_moment_norm": 4.59161448948, 
			 "electric_quadrupole_moment_norm": 11.818808228, 
			 "total_energy": -1011.99641667, 
			 "HOMO_LUMO_gap": 0.18759, 
			 "cosmo_polarized_energy": -11.71, 
			 "cosmo_cavitation_energy": 26.17, 
			 "cosmo_dispersion_energy": -18.89, 
			 "cosmo_repulsion_energy": 1.48, 
			 "cosmo_total_nonelectrostatic_energy": 8.76, 
			 "SMD_solvation_energy": 5.44 
		},
		"coords": [
			{
				"x": 2.0505858367,
				"y": -1.1302457988,
				"z": -2.4117169564,
				"element": "Cl" 
			},
			{
				"x": 1.1774930179,
				"y": -2.2256792337,
				"z": -1.2286903839,
				"element": "C" 
			},
			{
				"x": 0.1124613345,
				"y": -1.5728996434,
				"z": -0.5531543102,
				"element": "N" 
			},
			{
				"x": 0.2718290369,
				"y": -0.8441507932,
				"z": 0.6498917764,
				"element": "C" 
			},
			{
				"x": 1.3049540363,
				"y": -0.7583411726,
				"z": 1.2769993364,
				"element": "O" 
			},
			{
				"x": -1.0715562133,
				"y": -0.2684876484,
				"z": 0.9397863746,
				"element": "C" 
			},
			{
				"x": -1.4898238013,
				"y": 0.5231696541,
				"z": 2.0003630242,
				"element": "C" 
			},
			{
				"x": -2.8326745984,
				"y": 0.9208908818,
				"z": 2.016841772,
				"element": "C" 
			},
			{
				"x": -3.7165026161,
				"y": 0.5288567268,
				"z": 1.0022968376,
				"element": "C" 
			},
			{
				"x": -3.2863939214,
				"y": -0.273700119,
				"z": -0.0619464861,
				"element": "C" 
			},
			{
				"x": -1.953150228,
				"y": -0.6595182124,
				"z": -0.0722202487,
				"element": "C" 
			},
			{
				"x": -1.2104742676,
				"y": -1.501644845,
				"z": -1.051718892,
				"element": "C" 
			},
			{
				"x": -1.6018672806,
				"y": -2.0475949664,
				"z": -2.0600487898,
				"element": "O" 
			},
			{
				"x": 1.9252985719,
				"y": -2.544299366,
				"z": -0.5058070649,
				"element": "H" 
			},
			{
				"x": 0.7827195334,
				"y": -3.0505763956,
				"z": -1.8177478284,
				"element": "H" 
			},
			{
				"x": -0.7969882188,
				"y": 0.8197105386,
				"z": 2.781028189,
				"element": "H" 
			},
			{
				"x": -3.1972346906,
				"y": 1.5435248235,
				"z": 2.8282360016,
				"element": "H" 
			},
			{
				"x": -4.7516099368,
				"y": 0.8540519048,
				"z": 1.043989954,
				"element": "H" 
			},
			{
				"x": -3.9620655947,
				"y": -0.5841663352,
				"z": -0.8521823054,
				"element": "H" 
			}
		],
		 "valence_orbital": [ 
			{
				"type": "occ",
				"energy": -0.299,
				"method": "rhf"
			},
			{
				"type": "occ",
				"energy": -0.29716,
				"method": "rhf"
			},
			{
				"type": "occ",
				"energy": -0.28723,
				"method": "rhf"
			},
			{
				"type": "occ",
				"energy": -0.28071,
				"method": "rhf"
			},
			{
				"type": "occ",
				"energy": -0.28018,
				"method": "rhf"
			},
			{
				"type": "unocc",
				"energy": -0.09259,
				"method": "rhf"
			},
			{
				"type": "unocc",
				"energy": -0.05476,
				"method": "rhf"
			},
			{
				"type": "unocc",
				"energy": 0.00945,
				"method": "rhf"
			},
			{
				"type": "unocc",
				"energy": 0.01912,
				"method": "rhf"
			},
			{
				"type": "unocc",
				"energy": 0.07513,
				"method": "rhf"
			}
		],
		"cosmo_sigma_profile": { 
			"-0.025": 0.0,
			"-0.024": 0.0,
			"-0.023": 0.0,
			"-0.022": 0.0,
			"-0.021": 0.0,
			"-0.02": 0.0,
			"-0.019": 0.0,
			"-0.018": 0.0,
			"-0.017": 0.0,
			"-0.016": 0.0,
			"-0.015": 0.0,
			"-0.014": 0.0,
			"-0.013": 0.0,
			"-0.012": 0.0,
			"-0.011": 0.0,
			"-0.01": 0.357431883506,
			"-0.009": 2.70709721122,
			"-0.008": 7.44739423859,
			"-0.007": 12.6025325203,
			"-0.006": 16.9148339651,
			"-0.005": 13.6383720025,
			"-0.004": 11.0591049101,
			"-0.003": 9.92043679682,
			"-0.002": 12.8376448097,
			"-0.001": 15.4100222765,
			"0.0": 15.0155075206,
			"0.001": 17.0226998369,
			"0.002": 15.3630470531,
			"0.003": 8.59164478488,
			"0.004": 7.99106006278,
			"0.005": 9.86592605381,
			"0.006": 11.8754252734,
			"0.007": 2.45374802174,
			"0.008": 3.17435518603,
			"0.009": 4.90844893151,
			"0.01": 8.1208168897,
			"0.011": 5.72595012775,
			"0.012": 0.234725779348,
			"0.013": 0.0,
			"0.014": 0.0,
			"0.015": 0.0,
			"0.016": 0.0,
			"0.017": 0.0,
			"0.018": 0.0,
			"0.019": 0.0,
			"0.02": 0.0,
			"0.021": 0.0,
			"0.022": 0.0,
			"0.023": 0.0,
			"0.024": 0.0,
			"0.025": 0.0
		}
	}
}
