{
	 "smiles": "COC1=C(OC)C(OCC2=CC=CC=C2)=CC(=C1)C(O)=O", 
	 "Tm": 451.15, 
	 "num_atms": 37, 
	 "gaussian": { 
		 "optdone": 1, 
		 "sigma_profile": "yes", 
		 "theory": "DFT", 
		 "functional": "B3LYP", 
		 "basiset": "6-31G**", 
		 "properties": { 
			 "R2extent": 7449.3616, 
			 "electric_dipole_moment_norm": 2.57414227657, 
			 "electric_quadrupole_moment_norm": 8.8903901956, 
			 "total_energy": -995.436476982, 
			 "HOMO_LUMO_gap": 0.19225, 
			 "cosmo_polarized_energy": -13.98, 
			 "cosmo_cavitation_energy": 41.92, 
			 "cosmo_dispersion_energy": -27.73, 
			 "cosmo_repulsion_energy": 2.18, 
			 "cosmo_total_nonelectrostatic_energy": 16.37, 
			 "SMD_solvation_energy": 9.92 
		},
		"coords": [
			{
				"x": 1.1472363801,
				"y": 3.1872025761,
				"z": -1.6944519432,
				"element": "C" 
			},
			{
				"x": 0.6442511355,
				"y": 2.4327226418,
				"z": -2.8025371338,
				"element": "O" 
			},
			{
				"x": 0.155648404,
				"y": 1.1854944021,
				"z": -2.5001458727,
				"element": "C" 
			},
			{
				"x": -1.0370242784,
				"y": 1.0338618708,
				"z": -1.7689782133,
				"element": "C" 
			},
			{
				"x": -1.6868917085,
				"y": 2.1443386266,
				"z": -1.282615046,
				"element": "O" 
			},
			{
				"x": -2.7380453462,
				"y": 2.6198850203,
				"z": -2.1373671485,
				"element": "C" 
			},
			{
				"x": -1.5547062716,
				"y": -0.2543619541,
				"z": -1.5337678177,
				"element": "C" 
			},
			{
				"x": -2.7580075786,
				"y": -0.414699379,
				"z": -0.8872871335,
				"element": "O" 
			},
			{
				"x": -2.7787163633,
				"y": -0.0873637149,
				"z": 0.5215744744,
				"element": "C" 
			},
			{
				"x": -2.0610081169,
				"y": -1.109147443,
				"z": 1.3734766887,
				"element": "C" 
			},
			{
				"x": -2.4102727598,
				"y": -2.4650615813,
				"z": 1.2982015416,
				"element": "C" 
			},
			{
				"x": -1.7608213926,
				"y": -3.4085419154,
				"z": 2.0917040587,
				"element": "C" 
			},
			{
				"x": -0.7561049242,
				"y": -3.0076579894,
				"z": 2.9775699333,
				"element": "C" 
			},
			{
				"x": -0.4023110249,
				"y": -1.6611480273,
				"z": 3.0599232881,
				"element": "C" 
			},
			{
				"x": -1.0493278585,
				"y": -0.7188220882,
				"z": 2.2564952286,
				"element": "C" 
			},
			{
				"x": -0.8928558909,
				"y": -1.3710643888,
				"z": -2.0365339518,
				"element": "C" 
			},
			{
				"x": 0.285067738,
				"y": -1.2131432828,
				"z": -2.7762343867,
				"element": "C" 
			},
			{
				"x": 0.8162896487,
				"y": 0.0634857913,
				"z": -2.9978196737,
				"element": "C" 
			},
			{
				"x": 0.9428664689,
				"y": -2.4393997439,
				"z": -3.2971131413,
				"element": "C" 
			},
			{
				"x": 2.0849696108,
				"y": -2.1804135171,
				"z": -3.9844837954,
				"element": "O" 
			},
			{
				"x": 0.5290877339,
				"y": -3.5720253681,
				"z": -3.143406696,
				"element": "O" 
			},
			{
				"x": 1.9848027337,
				"y": 2.6638802347,
				"z": -1.2157188255,
				"element": "H" 
			},
			{
				"x": 0.3641289777,
				"y": 3.3813853514,
				"z": -0.9560704143,
				"element": "H" 
			},
			{
				"x": 1.5047485755,
				"y": 4.1320237784,
				"z": -2.1088193619,
				"element": "H" 
			},
			{
				"x": -3.1729294486,
				"y": 3.4863765946,
				"z": -1.6354078123,
				"element": "H" 
			},
			{
				"x": -2.3358776504,
				"y": 2.9234547066,
				"z": -3.1101842801,
				"element": "H" 
			},
			{
				"x": -3.5046261183,
				"y": 1.8499544392,
				"z": -2.2737325054,
				"element": "H" 
			},
			{
				"x": -2.3667578676,
				"y": 0.9138599651,
				"z": 0.6781326566,
				"element": "H" 
			},
			{
				"x": -3.845580111,
				"y": -0.0609479375,
				"z": 0.7649845435,
				"element": "H" 
			},
			{
				"x": -3.188671964,
				"y": -2.7760566487,
				"z": 0.6066945255,
				"element": "H" 
			},
			{
				"x": -2.0377385573,
				"y": -4.4566635895,
				"z": 2.0221195451,
				"element": "H" 
			},
			{
				"x": -0.2514274045,
				"y": -3.7432486807,
				"z": 3.5973889702,
				"element": "H" 
			},
			{
				"x": 0.3810104919,
				"y": -1.3435701068,
				"z": 3.7423772082,
				"element": "H" 
			},
			{
				"x": -0.7662404755,
				"y": 0.3293798574,
				"z": 2.3165067798,
				"element": "H" 
			},
			{
				"x": -1.2943677916,
				"y": -2.3617842367,
				"z": -1.8623720631,
				"element": "H" 
			},
			{
				"x": 1.726066943,
				"y": 0.2003605792,
				"z": -3.5691327403,
				"element": "H" 
			},
			{
				"x": 2.4168360614,
				"y": -3.0461448426,
				"z": -4.2731694857,
				"element": "H" 
			}
		],
		 "valence_orbital": [ 
			{
				"type": "occ",
				"energy": -0.26637,
				"method": "rhf"
			},
			{
				"type": "occ",
				"energy": -0.25052,
				"method": "rhf"
			},
			{
				"type": "occ",
				"energy": -0.24726,
				"method": "rhf"
			},
			{
				"type": "occ",
				"energy": -0.23871,
				"method": "rhf"
			},
			{
				"type": "occ",
				"energy": -0.23594,
				"method": "rhf"
			},
			{
				"type": "unocc",
				"energy": -0.04369,
				"method": "rhf"
			},
			{
				"type": "unocc",
				"energy": -0.00906,
				"method": "rhf"
			},
			{
				"type": "unocc",
				"energy": -0.00357,
				"method": "rhf"
			},
			{
				"type": "unocc",
				"energy": 0.00344,
				"method": "rhf"
			},
			{
				"type": "unocc",
				"energy": 0.05931,
				"method": "rhf"
			}
		],
		"cosmo_sigma_profile": { 
			"-0.025": 0.0,
			"-0.024": 0.0,
			"-0.023": 0.0,
			"-0.022": 0.0,
			"-0.021": 0.0,
			"-0.02": 0.0,
			"-0.019": 0.0084862383358,
			"-0.018": 0.87113680488,
			"-0.017": 0.701468788296,
			"-0.016": 1.18308977847,
			"-0.015": 0.61815511612,
			"-0.014": 1.02439263873,
			"-0.013": 0.317957830054,
			"-0.012": 0.316926469026,
			"-0.011": 0.946058002056,
			"-0.01": 0.703399242432,
			"-0.009": 0.373745663743,
			"-0.008": 0.646417847082,
			"-0.007": 1.40407555733,
			"-0.006": 11.4875717525,
			"-0.005": 24.0708125594,
			"-0.004": 30.2213030881,
			"-0.003": 36.297419436,
			"-0.002": 30.2882657307,
			"-0.001": 25.4342602661,
			"0.0": 21.3637503184,
			"0.001": 25.1575568468,
			"0.002": 27.3736528538,
			"0.003": 21.4378434142,
			"0.004": 16.0479848716,
			"0.005": 16.0600457723,
			"0.006": 11.2894516346,
			"0.007": 5.85589242341,
			"0.008": 4.37336882972,
			"0.009": 3.26155349194,
			"0.01": 3.8126762171,
			"0.011": 5.85110551195,
			"0.012": 4.54203890779,
			"0.013": 0.0553341370325,
			"0.014": 0.0,
			"0.015": 0.0,
			"0.016": 0.0,
			"0.017": 0.0,
			"0.018": 0.0,
			"0.019": 0.0,
			"0.02": 0.0,
			"0.021": 0.0,
			"0.022": 0.0,
			"0.023": 0.0,
			"0.024": 0.0,
			"0.025": 0.0
		}
	}
}
