{
	 "smiles": "CC(=O)NC1=C(C(O)=O)C(F)=CC=C1", 
	 "Tm": 476.15, 
	 "num_atms": 22, 
	 "gaussian": { 
		 "optdone": 1, 
		 "sigma_profile": "yes", 
		 "theory": "DFT", 
		 "functional": "B3LYP", 
		 "basiset": "6-31G**", 
		 "properties": { 
			 "R2extent": 2918.6119, 
			 "electric_dipole_moment_norm": 2.27006663118, 
			 "electric_quadrupole_moment_norm": 16.7402517057, 
			 "total_energy": -728.07700967, 
			 "HOMO_LUMO_gap": 0.17314, 
			 "cosmo_polarized_energy": -12.27, 
			 "cosmo_cavitation_energy": 26.59, 
			 "cosmo_dispersion_energy": -19.84, 
			 "cosmo_repulsion_energy": 1.51, 
			 "cosmo_total_nonelectrostatic_energy": 8.27, 
			 "SMD_solvation_energy": 6.72 
		},
		"coords": [
			{
				"x": -3.8109640466,
				"y": -0.4799080833,
				"z": 0.4913423601,
				"element": "C" 
			},
			{
				"x": -2.3957869497,
				"y": -0.6770098252,
				"z": 1.0103111566,
				"element": "C" 
			},
			{
				"x": -2.159709789,
				"y": -1.2841992514,
				"z": 2.0442565316,
				"element": "O" 
			},
			{
				"x": -1.4322828791,
				"y": -0.1265409464,
				"z": 0.1795053409,
				"element": "N" 
			},
			{
				"x": -0.0490408281,
				"y": -0.1506419127,
				"z": 0.3100674066,
				"element": "C" 
			},
			{
				"x": 0.7478372241,
				"y": 0.4929431264,
				"z": -0.6959901842,
				"element": "C" 
			},
			{
				"x": 0.1101431781,
				"y": 1.1782774927,
				"z": -1.8663871208,
				"element": "C" 
			},
			{
				"x": 0.8936758702,
				"y": 1.7654567701,
				"z": -2.7814225798,
				"element": "O" 
			},
			{
				"x": -1.1018331383,
				"y": 1.22963373,
				"z": -2.0306471281,
				"element": "O" 
			},
			{
				"x": 2.1402263831,
				"y": 0.4352590882,
				"z": -0.5080895573,
				"element": "C" 
			},
			{
				"x": 2.9660869879,
				"y": 1.0287541482,
				"z": -1.4305099155,
				"element": "F" 
			},
			{
				"x": 2.7700623611,
				"y": -0.1826477583,
				"z": 0.5513980163,
				"element": "C" 
			},
			{
				"x": 1.9617753993,
				"y": -0.7974472828,
				"z": 1.5096719807,
				"element": "C" 
			},
			{
				"x": 0.5788930611,
				"y": -0.7867197421,
				"z": 1.3997749177,
				"element": "C" 
			},
			{
				"x": -4.5053862135,
				"y": -0.5965046732,
				"z": 1.3234856183,
				"element": "H" 
			},
			{
				"x": -3.9517047769,
				"y": 0.4985115286,
				"z": 0.0231177927,
				"element": "H" 
			},
			{
				"x": -4.0367365232,
				"y": -1.2470642558,
				"z": -0.2580340174,
				"element": "H" 
			},
			{
				"x": -1.7409502491,
				"y": 0.3674821084,
				"z": -0.6613744113,
				"element": "H" 
			},
			{
				"x": 1.8311881288,
				"y": 1.6636933253,
				"z": -2.5512714068,
				"element": "H" 
			},
			{
				"x": 3.8517311351,
				"y": -0.1748112914,
				"z": 0.6110308855,
				"element": "H" 
			},
			{
				"x": 2.4225440404,
				"y": -1.2939366803,
				"z": 2.3580876199,
				"element": "H" 
			},
			{
				"x": -0.0467683758,
				"y": -1.2613796149,
				"z": 2.1408766944,
				"element": "H" 
			}
		],
		 "valence_orbital": [ 
			{
				"type": "occ",
				"energy": -0.31894,
				"method": "rhf"
			},
			{
				"type": "occ",
				"energy": -0.29412,
				"method": "rhf"
			},
			{
				"type": "occ",
				"energy": -0.27747,
				"method": "rhf"
			},
			{
				"type": "occ",
				"energy": -0.25919,
				"method": "rhf"
			},
			{
				"type": "occ",
				"energy": -0.23878,
				"method": "rhf"
			},
			{
				"type": "unocc",
				"energy": -0.06564,
				"method": "rhf"
			},
			{
				"type": "unocc",
				"energy": -0.02627,
				"method": "rhf"
			},
			{
				"type": "unocc",
				"energy": 0.03311,
				"method": "rhf"
			},
			{
				"type": "unocc",
				"energy": 0.03997,
				"method": "rhf"
			},
			{
				"type": "unocc",
				"energy": 0.06349,
				"method": "rhf"
			}
		],
		"cosmo_sigma_profile": { 
			"-0.025": 0.0,
			"-0.024": 0.0,
			"-0.023": 0.0,
			"-0.022": 0.0,
			"-0.021": 0.0,
			"-0.02": 0.0,
			"-0.019": 0.0,
			"-0.018": 0.0,
			"-0.017": 0.0,
			"-0.016": 0.0,
			"-0.015": 0.0,
			"-0.014": 0.0,
			"-0.013": 0.513042242152,
			"-0.012": 0.642339556159,
			"-0.011": 0.762785750127,
			"-0.01": 1.6556593894,
			"-0.009": 2.05418394616,
			"-0.008": 5.17955544675,
			"-0.007": 7.72545182902,
			"-0.006": 13.1072170785,
			"-0.005": 14.0690269028,
			"-0.004": 12.9116923609,
			"-0.003": 15.7360516783,
			"-0.002": 17.8594708309,
			"-0.001": 20.5733509249,
			"0.0": 18.0544568579,
			"0.001": 14.6693420302,
			"0.002": 16.0500289515,
			"0.003": 9.39193345851,
			"0.004": 3.5338071025,
			"0.005": 3.62958663564,
			"0.006": 3.47264049,
			"0.007": 3.46357368236,
			"0.008": 4.72718289486,
			"0.009": 4.52417734471,
			"0.01": 5.82818442742,
			"0.011": 5.54338510483,
			"0.012": 4.66745959033,
			"0.013": 2.92500010732,
			"0.014": 0.619781805882,
			"0.015": 0.0,
			"0.016": 0.0,
			"0.017": 0.0,
			"0.018": 0.0,
			"0.019": 0.0,
			"0.02": 0.0,
			"0.021": 0.0,
			"0.022": 0.0,
			"0.023": 0.0,
			"0.024": 0.0,
			"0.025": 0.0
		}
	}
}
