{
	 "smiles": "FC(F)(F)C1=CC(Cl)=C(N=C1)N1C=CC=N1", 
	 "Tm": 324.15, 
	 "num_atms": 21, 
	 "gaussian": { 
		 "optdone": 1, 
		 "sigma_profile": "yes", 
		 "theory": "DFT", 
		 "functional": "B3LYP", 
		 "basiset": "6-31G**", 
		 "properties": { 
			 "R2extent": 5695.3788, 
			 "electric_dipole_moment_norm": 1.68923218357, 
			 "electric_quadrupole_moment_norm": 4.86766554829, 
			 "total_energy": -1269.90597423, 
			 "HOMO_LUMO_gap": 0.18413, 
			 "cosmo_polarized_energy": -7.79, 
			 "cosmo_cavitation_energy": 29.48, 
			 "cosmo_dispersion_energy": -21.29, 
			 "cosmo_repulsion_energy": 1.58, 
			 "cosmo_total_nonelectrostatic_energy": 9.77, 
			 "SMD_solvation_energy": 5.05 
		},
		"coords": [
			{
				"x": 1.684078698,
				"y": -4.0246735257,
				"z": -0.2541239054,
				"element": "F" 
			},
			{
				"x": 0.3514868012,
				"y": -3.96591679,
				"z": -0.0476307783,
				"element": "C" 
			},
			{
				"x": -0.246733915,
				"y": -4.3407175146,
				"z": -1.1997098177,
				"element": "F" 
			},
			{
				"x": 0.0347775553,
				"y": -4.8926097405,
				"z": 0.8821691584,
				"element": "F" 
			},
			{
				"x": -0.0789785501,
				"y": -2.5898394476,
				"z": 0.3768152979,
				"element": "C" 
			},
			{
				"x": -1.2183275524,
				"y": -2.4073706355,
				"z": 1.1578665475,
				"element": "C" 
			},
			{
				"x": -1.6278200177,
				"y": -1.1217129762,
				"z": 1.5014881455,
				"element": "C" 
			},
			{
				"x": -2.9852979986,
				"y": -0.9780332857,
				"z": 2.5831295969,
				"element": "Cl" 
			},
			{
				"x": -0.8776476601,
				"y": -0.0331843115,
				"z": 0.9992635708,
				"element": "C" 
			},
			{
				"x": 0.2320018503,
				"y": -0.2226788173,
				"z": 0.2784215732,
				"element": "N" 
			},
			{
				"x": 0.6310087152,
				"y": -1.4566570533,
				"z": -0.017376368,
				"element": "C" 
			},
			{
				"x": -1.1905041659,
				"y": 1.3202560661,
				"z": 1.2221352968,
				"element": "N" 
			},
			{
				"x": -0.3037871871,
				"y": 2.3681101691,
				"z": 1.1178407321,
				"element": "C" 
			},
			{
				"x": -1.0279681138,
				"y": 3.5133008193,
				"z": 1.3293401513,
				"element": "C" 
			},
			{
				"x": -2.3597965951,
				"y": 3.0652119572,
				"z": 1.5387659847,
				"element": "C" 
			},
			{
				"x": -2.4615063764,
				"y": 1.7474595576,
				"z": 1.4720062497,
				"element": "N" 
			},
			{
				"x": -1.7775175595,
				"y": -3.2591545714,
				"z": 1.5271163834,
				"element": "H" 
			},
			{
				"x": 1.5488567588,
				"y": -1.5456112992,
				"z": -0.5914470339,
				"element": "H" 
			},
			{
				"x": 0.7368946217,
				"y": 2.1903571366,
				"z": 0.9036486109,
				"element": "H" 
			},
			{
				"x": -0.657191839,
				"y": 4.527151663,
				"z": 1.3355008294,
				"element": "H" 
			},
			{
				"x": -3.2460274696,
				"y": 3.6558125995,
				"z": 1.7301797747,
				"element": "H" 
			}
		],
		 "valence_orbital": [ 
			{
				"type": "occ",
				"energy": -0.29868,
				"method": "rhf"
			},
			{
				"type": "occ",
				"energy": -0.29153,
				"method": "rhf"
			},
			{
				"type": "occ",
				"energy": -0.28477,
				"method": "rhf"
			},
			{
				"type": "occ",
				"energy": -0.25895,
				"method": "rhf"
			},
			{
				"type": "occ",
				"energy": -0.24864,
				"method": "rhf"
			},
			{
				"type": "unocc",
				"energy": -0.06451,
				"method": "rhf"
			},
			{
				"type": "unocc",
				"energy": -0.05166,
				"method": "rhf"
			},
			{
				"type": "unocc",
				"energy": 0.01501,
				"method": "rhf"
			},
			{
				"type": "unocc",
				"energy": 0.01708,
				"method": "rhf"
			},
			{
				"type": "unocc",
				"energy": 0.0623,
				"method": "rhf"
			}
		],
		"cosmo_sigma_profile": { 
			"-0.025": 0.0,
			"-0.024": 0.0,
			"-0.023": 0.0,
			"-0.022": 0.0,
			"-0.021": 0.0,
			"-0.02": 0.0,
			"-0.019": 0.0,
			"-0.018": 0.0,
			"-0.017": 0.0,
			"-0.016": 0.0,
			"-0.015": 0.0,
			"-0.014": 0.0,
			"-0.013": 0.0,
			"-0.012": 0.0,
			"-0.011": 0.0,
			"-0.01": 0.20451812198,
			"-0.009": 2.5699896549,
			"-0.008": 5.66134854872,
			"-0.007": 8.25657363474,
			"-0.006": 8.38855573679,
			"-0.005": 8.84215638558,
			"-0.004": 11.5864994845,
			"-0.003": 18.7343523597,
			"-0.002": 24.4712363068,
			"-0.001": 18.330290685,
			"0.0": 15.0289652698,
			"0.001": 20.547603835,
			"0.002": 36.3043582904,
			"0.003": 28.2511251063,
			"0.004": 12.2047136046,
			"0.005": 5.26506333419,
			"0.006": 3.4684495963,
			"0.007": 2.85477853177,
			"0.008": 2.45679447799,
			"0.009": 2.01490274233,
			"0.01": 1.80382358195,
			"0.011": 1.41589144938,
			"0.012": 1.34596535464,
			"0.013": 0.848148509577,
			"0.014": 0.0805029300476,
			"0.015": 0.0,
			"0.016": 0.0,
			"0.017": 0.0,
			"0.018": 0.0,
			"0.019": 0.0,
			"0.02": 0.0,
			"0.021": 0.0,
			"0.022": 0.0,
			"0.023": 0.0,
			"0.024": 0.0,
			"0.025": 0.0
		}
	}
}
