{
	 "smiles": "CC(C)CCNS(=O)(=O)C1=CN=C(Cl)C=C1", 
	 "Tm": 365.15, 
	 "num_atms": 31, 
	 "gaussian": { 
		 "optdone": 1, 
		 "sigma_profile": "yes", 
		 "theory": "DFT", 
		 "functional": "B3LYP", 
		 "basiset": "6-31G**", 
		 "properties": { 
			 "R2extent": 7918.8512, 
			 "electric_dipole_moment_norm": 4.18130443881, 
			 "electric_quadrupole_moment_norm": 16.6800999709, 
			 "total_energy": -1508.37032142, 
			 "HOMO_LUMO_gap": 0.20503, 
			 "cosmo_polarized_energy": -14.46, 
			 "cosmo_cavitation_energy": 37.33, 
			 "cosmo_dispersion_energy": -26.52, 
			 "cosmo_repulsion_energy": 2.05, 
			 "cosmo_total_nonelectrostatic_energy": 12.87, 
			 "SMD_solvation_energy": 3.19 
		},
		"coords": [
			{
				"x": -2.324454803,
				"y": -0.1262431439,
				"z": -1.7647156169,
				"element": "C" 
			},
			{
				"x": -1.843621094,
				"y": 1.3297922351,
				"z": -1.8763743202,
				"element": "C" 
			},
			{
				"x": -1.2810736286,
				"y": 1.6256303474,
				"z": -3.2762935017,
				"element": "C" 
			},
			{
				"x": -0.8669107716,
				"y": 1.7168025587,
				"z": -0.7427974571,
				"element": "C" 
			},
			{
				"x": 0.4496475562,
				"y": 0.9283641964,
				"z": -0.7108655446,
				"element": "C" 
			},
			{
				"x": 1.3757696917,
				"y": 1.3501249704,
				"z": 0.3578608802,
				"element": "N" 
			},
			{
				"x": 1.1834938391,
				"y": 0.7499106468,
				"z": 1.9164607939,
				"element": "S" 
			},
			{
				"x": -0.1733095545,
				"y": 0.2313828483,
				"z": 2.1223089591,
				"element": "O" 
			},
			{
				"x": 1.7653877305,
				"y": 1.7719652095,
				"z": 2.7913102984,
				"element": "O" 
			},
			{
				"x": 2.2726377896,
				"y": -0.6744533822,
				"z": 1.9217477065,
				"element": "C" 
			},
			{
				"x": 1.745270334,
				"y": -1.963942794,
				"z": 1.9116836522,
				"element": "C" 
			},
			{
				"x": 2.520816006,
				"y": -3.0581862452,
				"z": 1.9222248663,
				"element": "N" 
			},
			{
				"x": 3.8284272551,
				"y": -2.8767732842,
				"z": 1.9533982818,
				"element": "C" 
			},
			{
				"x": 4.8248703773,
				"y": -4.3229077217,
				"z": 1.9607382044,
				"element": "Cl" 
			},
			{
				"x": 4.4661949587,
				"y": -1.6288244079,
				"z": 1.9841623675,
				"element": "C" 
			},
			{
				"x": 3.6594688354,
				"y": -0.4999152807,
				"z": 1.9676838427,
				"element": "C" 
			},
			{
				"x": -1.5160941696,
				"y": -0.8389168297,
				"z": -1.9657003782,
				"element": "H" 
			},
			{
				"x": -2.7186803925,
				"y": -0.3413082312,
				"z": -0.7658878212,
				"element": "H" 
			},
			{
				"x": -3.1190405677,
				"y": -0.328763751,
				"z": -2.490594056,
				"element": "H" 
			},
			{
				"x": -2.7239485908,
				"y": 1.9730714253,
				"z": -1.7389636728,
				"element": "H" 
			},
			{
				"x": -2.0433583266,
				"y": 1.4565303863,
				"z": -4.0441604101,
				"element": "H" 
			},
			{
				"x": -0.4301405242,
				"y": 0.9791942833,
				"z": -3.5203494298,
				"element": "H" 
			},
			{
				"x": -0.9470773274,
				"y": 2.6657644977,
				"z": -3.3629010138,
				"element": "H" 
			},
			{
				"x": -1.3642286412,
				"y": 1.585195918,
				"z": 0.2239609585,
				"element": "H" 
			},
			{
				"x": -0.6264552824,
				"y": 2.7859395544,
				"z": -0.834814266,
				"element": "H" 
			},
			{
				"x": 0.9979798526,
				"y": 1.033599934,
				"z": -1.6527839589,
				"element": "H" 
			},
			{
				"x": 0.2625223062,
				"y": -0.1400073641,
				"z": -0.5742447388,
				"element": "H" 
			},
			{
				"x": 1.5197435716,
				"y": 2.3546983668,
				"z": 0.4287350107,
				"element": "H" 
			},
			{
				"x": 0.6707024131,
				"y": -2.1195147929,
				"z": 1.9049608451,
				"element": "H" 
			},
			{
				"x": 5.5464039538,
				"y": -1.5591352766,
				"z": 2.0229688708,
				"element": "H" 
			},
			{
				"x": 4.0886572034,
				"y": 0.495925127,
				"z": 2.0004406478,
				"element": "H" 
			}
		],
		 "valence_orbital": [ 
			{
				"type": "occ",
				"energy": -0.31707,
				"method": "rhf"
			},
			{
				"type": "occ",
				"energy": -0.31193,
				"method": "rhf"
			},
			{
				"type": "occ",
				"energy": -0.2891,
				"method": "rhf"
			},
			{
				"type": "occ",
				"energy": -0.28654,
				"method": "rhf"
			},
			{
				"type": "occ",
				"energy": -0.2662,
				"method": "rhf"
			},
			{
				"type": "unocc",
				"energy": -0.06117,
				"method": "rhf"
			},
			{
				"type": "unocc",
				"energy": -0.05003,
				"method": "rhf"
			},
			{
				"type": "unocc",
				"energy": 0.02208,
				"method": "rhf"
			},
			{
				"type": "unocc",
				"energy": 0.05134,
				"method": "rhf"
			},
			{
				"type": "unocc",
				"energy": 0.06257,
				"method": "rhf"
			}
		],
		"cosmo_sigma_profile": { 
			"-0.025": 0.0,
			"-0.024": 0.0,
			"-0.023": 0.0,
			"-0.022": 0.0,
			"-0.021": 0.0,
			"-0.02": 0.0,
			"-0.019": 0.0,
			"-0.018": 0.0,
			"-0.017": 0.0,
			"-0.016": 0.0,
			"-0.015": 0.0883298970594,
			"-0.014": 1.00474386041,
			"-0.013": 0.620686269977,
			"-0.012": 1.10111202917,
			"-0.011": 0.881514720494,
			"-0.01": 1.77432362507,
			"-0.009": 4.87913798059,
			"-0.008": 5.84565019106,
			"-0.007": 5.32308406886,
			"-0.006": 6.74491542004,
			"-0.005": 10.8976473596,
			"-0.004": 13.6917269517,
			"-0.003": 24.8435654646,
			"-0.002": 38.505357747,
			"-0.001": 37.3774370819,
			"0.0": 30.2887222769,
			"0.001": 26.9305030958,
			"0.002": 16.3661337088,
			"0.003": 12.5053041244,
			"0.004": 11.7598516396,
			"0.005": 6.67010970152,
			"0.006": 4.33456683536,
			"0.007": 4.96719411236,
			"0.008": 5.99688465935,
			"0.009": 4.50459904244,
			"0.01": 8.16011411075,
			"0.011": 7.8690665207,
			"0.012": 2.07804794039,
			"0.013": 0.616241112368,
			"0.014": 0.153405746781,
			"0.015": 0.0,
			"0.016": 0.0,
			"0.017": 0.0,
			"0.018": 0.0,
			"0.019": 0.0,
			"0.02": 0.0,
			"0.021": 0.0,
			"0.022": 0.0,
			"0.023": 0.0,
			"0.024": 0.0,
			"0.025": 0.0
		}
	}
}
