{
	 "smiles": "OC(=O)[C@H](CC1=CC=CC=C1)N1C(=O)C2=C(C=CC=C2)C1=O", 
	 "Tm": 453.15, 
	 "num_atms": 35, 
	 "gaussian": { 
		 "optdone": 1, 
		 "sigma_profile": "yes", 
		 "theory": "DFT", 
		 "functional": "B3LYP", 
		 "basiset": "6-31G**", 
		 "properties": { 
			 "R2extent": 6196.4575, 
			 "electric_dipole_moment_norm": 1.76477579879, 
			 "electric_quadrupole_moment_norm": 21.205633522, 
			 "total_energy": -1011.33447007, 
			 "HOMO_LUMO_gap": 0.1565, 
			 "cosmo_polarized_energy": -19.14, 
			 "cosmo_cavitation_energy": 39.85, 
			 "cosmo_dispersion_energy": -26.76, 
			 "cosmo_repulsion_energy": 2.04, 
			 "cosmo_total_nonelectrostatic_energy": 15.13, 
			 "SMD_solvation_energy": 8.73 
		},
		"coords": [
			{
				"x": 0.4190651248,
				"y": -1.0687610332,
				"z": -3.7639732235,
				"element": "O" 
			},
			{
				"x": -0.4534474168,
				"y": -0.5447017827,
				"z": -2.8718237298,
				"element": "C" 
			},
			{
				"x": -1.5744873737,
				"y": -0.9673865511,
				"z": -2.7240185348,
				"element": "O" 
			},
			{
				"x": 0.1024434886,
				"y": 0.7059871997,
				"z": -2.1830818235,
				"element": "C" 
			},
			{
				"x": 1.6448019698,
				"y": 0.8755008794,
				"z": -2.141117431,
				"element": "C" 
			},
			{
				"x": 2.4136952263,
				"y": 0.0210251114,
				"z": -1.1546252559,
				"element": "C" 
			},
			{
				"x": 2.7707286427,
				"y": 0.5441018075,
				"z": 0.0952092529,
				"element": "C" 
			},
			{
				"x": 3.4865022501,
				"y": -0.2221804967,
				"z": 1.0165634925,
				"element": "C" 
			},
			{
				"x": 3.8631557988,
				"y": -1.5265284294,
				"z": 0.6959482871,
				"element": "C" 
			},
			{
				"x": 3.5220285339,
				"y": -2.055350279,
				"z": -0.550702436,
				"element": "C" 
			},
			{
				"x": 2.8050005294,
				"y": -1.2881494293,
				"z": -1.467829715,
				"element": "C" 
			},
			{
				"x": -0.5468448815,
				"y": 0.8849106589,
				"z": -0.8966985628,
				"element": "N" 
			},
			{
				"x": -1.1696204001,
				"y": 2.0947651442,
				"z": -0.5426990915,
				"element": "C" 
			},
			{
				"x": -1.1858174298,
				"y": 3.0966189434,
				"z": -1.2318417054,
				"element": "O" 
			},
			{
				"x": -1.7683154937,
				"y": 1.8636361834,
				"z": 0.8022513377,
				"element": "C" 
			},
			{
				"x": -1.5060260701,
				"y": 0.5442512095,
				"z": 1.1762451556,
				"element": "C" 
			},
			{
				"x": -1.9491156165,
				"y": 0.0325938277,
				"z": 2.3871555815,
				"element": "C" 
			},
			{
				"x": -2.6719300074,
				"y": 0.8926526053,
				"z": 3.2243872371,
				"element": "C" 
			},
			{
				"x": -2.9352937292,
				"y": 2.2166027133,
				"z": 2.8486317164,
				"element": "C" 
			},
			{
				"x": -2.4840569079,
				"y": 2.7236231006,
				"z": 1.6231043267,
				"element": "C" 
			},
			{
				"x": -0.7264144352,
				"y": -0.1143786756,
				"z": 0.0862749697,
				"element": "C" 
			},
			{
				"x": -0.3211586527,
				"y": -1.2537569177,
				"z": 0.0203906647,
				"element": "O" 
			},
			{
				"x": -0.0484141848,
				"y": -1.8088348375,
				"z": -4.1872807151,
				"element": "H" 
			},
			{
				"x": -0.2749362472,
				"y": 1.5372441891,
				"z": -2.7950535428,
				"element": "H" 
			},
			{
				"x": 1.8218035122,
				"y": 1.9310802482,
				"z": -1.9094637856,
				"element": "H" 
			},
			{
				"x": 2.0123123696,
				"y": 0.7093121578,
				"z": -3.1578405669,
				"element": "H" 
			},
			{
				"x": 2.4921136456,
				"y": 1.5650561536,
				"z": 0.3461338463,
				"element": "H" 
			},
			{
				"x": 3.754695759,
				"y": 0.2026302427,
				"z": 1.9799666196,
				"element": "H" 
			},
			{
				"x": 4.4233918476,
				"y": -2.1248724723,
				"z": 1.4088058086,
				"element": "H" 
			},
			{
				"x": 3.8172239313,
				"y": -3.0681702292,
				"z": -0.8105460158,
				"element": "H" 
			},
			{
				"x": 2.5411164771,
				"y": -1.7048119101,
				"z": -2.4347647689,
				"element": "H" 
			},
			{
				"x": -1.7408201354,
				"y": -0.9951474839,
				"z": 2.6661379275,
				"element": "H" 
			},
			{
				"x": -3.0363302569,
				"y": 0.5289280725,
				"z": 4.1805177903,
				"element": "H" 
			},
			{
				"x": -3.4994075524,
				"y": 2.8578632465,
				"z": 3.5192650544,
				"element": "H" 
			},
			{
				"x": -2.6839423154,
				"y": 3.7462468332,
				"z": 1.3199718357,
				"element": "H" 
			}
		],
		 "valence_orbital": [ 
			{
				"type": "occ",
				"energy": -0.27661,
				"method": "rhf"
			},
			{
				"type": "occ",
				"energy": -0.2694,
				"method": "rhf"
			},
			{
				"type": "occ",
				"energy": -0.26723,
				"method": "rhf"
			},
			{
				"type": "occ",
				"energy": -0.24367,
				"method": "rhf"
			},
			{
				"type": "occ",
				"energy": -0.23664,
				"method": "rhf"
			},
			{
				"type": "unocc",
				"energy": -0.08014,
				"method": "rhf"
			},
			{
				"type": "unocc",
				"energy": -0.04025,
				"method": "rhf"
			},
			{
				"type": "unocc",
				"energy": -0.00129,
				"method": "rhf"
			},
			{
				"type": "unocc",
				"energy": 0.00251,
				"method": "rhf"
			},
			{
				"type": "unocc",
				"energy": 0.00725,
				"method": "rhf"
			}
		],
		"cosmo_sigma_profile": { 
			"-0.025": 0.0,
			"-0.024": 0.0,
			"-0.023": 0.0,
			"-0.022": 0.0,
			"-0.021": 0.0,
			"-0.02": 0.0,
			"-0.019": 0.351855837957,
			"-0.018": 0.871462979664,
			"-0.017": 1.43506169118,
			"-0.016": 0.4477881502,
			"-0.015": 0.550490188963,
			"-0.014": 0.505947137045,
			"-0.013": 1.14930312367,
			"-0.012": 0.561031077104,
			"-0.011": 0.697696847331,
			"-0.01": 1.02438126914,
			"-0.009": 1.74294417027,
			"-0.008": 4.29442606336,
			"-0.007": 11.0082065283,
			"-0.006": 15.8493637323,
			"-0.005": 23.6369802999,
			"-0.004": 26.3010892423,
			"-0.003": 25.0734454967,
			"-0.002": 22.4284276457,
			"-0.001": 23.0690096644,
			"0.0": 21.8366906473,
			"0.001": 24.0855748903,
			"0.002": 20.8922831032,
			"0.003": 13.9514328444,
			"0.004": 10.5667800104,
			"0.005": 10.2711091408,
			"0.006": 10.428845992,
			"0.007": 7.42090225763,
			"0.008": 5.50894170501,
			"0.009": 6.65145771172,
			"0.01": 11.8621598389,
			"0.011": 12.1491024843,
			"0.012": 2.29326890051,
			"0.013": 0.0,
			"0.014": 0.0,
			"0.015": 0.0,
			"0.016": 0.0,
			"0.017": 0.0,
			"0.018": 0.0,
			"0.019": 0.0,
			"0.02": 0.0,
			"0.021": 0.0,
			"0.022": 0.0,
			"0.023": 0.0,
			"0.024": 0.0,
			"0.025": 0.0
		}
	}
}
