{
	 "smiles": "COC1=CC(CC#N)=C(C=C1OC)[N+]([O-])=O", 
	 "Tm": 384.15, 
	 "num_atms": 26, 
	 "gaussian": { 
		 "optdone": 1, 
		 "sigma_profile": "yes", 
		 "theory": "DFT", 
		 "functional": "B3LYP", 
		 "basiset": "6-31G**", 
		 "properties": { 
			 "R2extent": 4986.573, 
			 "electric_dipole_moment_norm": 4.7513607935, 
			 "electric_quadrupole_moment_norm": 12.1827035899, 
			 "total_energy": -797.33866286, 
			 "HOMO_LUMO_gap": 0.15714, 
			 "cosmo_polarized_energy": -14.75, 
			 "cosmo_cavitation_energy": 31.58, 
			 "cosmo_dispersion_energy": -22.0, 
			 "cosmo_repulsion_energy": 1.71, 
			 "cosmo_total_nonelectrostatic_energy": 11.29, 
			 "SMD_solvation_energy": 10.39 
		},
		"coords": [
			{
				"x": -1.9773591871,
				"y": 0.1879663672,
				"z": -3.1221157294,
				"element": "C" 
			},
			{
				"x": -1.0187504012,
				"y": 0.8698171555,
				"z": -2.3134815819,
				"element": "O" 
			},
			{
				"x": -0.0564161636,
				"y": 0.1508791689,
				"z": -1.6939333443,
				"element": "C" 
			},
			{
				"x": 0.0547386566,
				"y": -1.2416977231,
				"z": -1.7665893631,
				"element": "C" 
			},
			{
				"x": 1.084656942,
				"y": -1.9468279788,
				"z": -1.1341924695,
				"element": "C" 
			},
			{
				"x": 1.1458365989,
				"y": -3.4662782796,
				"z": -1.265464268,
				"element": "C" 
			},
			{
				"x": 0.0576816957,
				"y": -4.0325027173,
				"z": -2.0676644274,
				"element": "C" 
			},
			{
				"x": -0.802048569,
				"y": -4.486385055,
				"z": -2.7017424107,
				"element": "N" 
			},
			{
				"x": 2.022130938,
				"y": -1.190563925,
				"z": -0.4049672183,
				"element": "C" 
			},
			{
				"x": 1.9145761416,
				"y": 0.2028343844,
				"z": -0.3103017784,
				"element": "C" 
			},
			{
				"x": 0.8911721933,
				"y": 0.8875725731,
				"z": -0.94098544,
				"element": "C" 
			},
			{
				"x": 0.871156423,
				"y": 2.2516519263,
				"z": -0.8818625494,
				"element": "O" 
			},
			{
				"x": -0.2374756871,
				"y": 2.8473460328,
				"z": -0.195386315,
				"element": "C" 
			},
			{
				"x": 3.1508592717,
				"y": -1.7988679988,
				"z": 0.3017289334,
				"element": "N" 
			},
			{
				"x": 3.2862761907,
				"y": -3.027063471,
				"z": 0.2465897077,
				"element": "O" 
			},
			{
				"x": 3.913399855,
				"y": -1.0570397214,
				"z": 0.9199559483,
				"element": "O" 
			},
			{
				"x": -2.625301747,
				"y": 0.9649220973,
				"z": -3.5278459506,
				"element": "H" 
			},
			{
				"x": -1.4920052016,
				"y": -0.3494122114,
				"z": -3.9442737288,
				"element": "H" 
			},
			{
				"x": -2.574487172,
				"y": -0.5136552121,
				"z": -2.5287070162,
				"element": "H" 
			},
			{
				"x": -0.6719477742,
				"y": -1.8030914083,
				"z": -2.3392395552,
				"element": "H" 
			},
			{
				"x": 2.1003159273,
				"y": -3.7725465369,
				"z": -1.7047170352,
				"element": "H" 
			},
			{
				"x": 1.1318651628,
				"y": -3.9355507843,
				"z": -0.2769342016,
				"element": "H" 
			},
			{
				"x": 2.6519582639,
				"y": 0.7544041566,
				"z": 0.2573605763,
				"element": "H" 
			},
			{
				"x": -0.052474877,
				"y": 3.9225861428,
				"z": -0.2078406663,
				"element": "H" 
			},
			{
				"x": -0.2817980712,
				"y": 2.4996535968,
				"z": 0.8441148586,
				"element": "H" 
			},
			{
				"x": -1.1841594097,
				"y": 2.6317494214,
				"z": -0.6977049751,
				"element": "H" 
			}
		],
		 "valence_orbital": [ 
			{
				"type": "occ",
				"energy": -0.31183,
				"method": "rhf"
			},
			{
				"type": "occ",
				"energy": -0.29955,
				"method": "rhf"
			},
			{
				"type": "occ",
				"energy": -0.29168,
				"method": "rhf"
			},
			{
				"type": "occ",
				"energy": -0.2737,
				"method": "rhf"
			},
			{
				"type": "occ",
				"energy": -0.24816,
				"method": "rhf"
			},
			{
				"type": "unocc",
				"energy": -0.09102,
				"method": "rhf"
			},
			{
				"type": "unocc",
				"energy": -0.02962,
				"method": "rhf"
			},
			{
				"type": "unocc",
				"energy": -0.00403,
				"method": "rhf"
			},
			{
				"type": "unocc",
				"energy": 0.021,
				"method": "rhf"
			},
			{
				"type": "unocc",
				"energy": 0.03594,
				"method": "rhf"
			}
		],
		"cosmo_sigma_profile": { 
			"-0.025": 0.0,
			"-0.024": 0.0,
			"-0.023": 0.0,
			"-0.022": 0.0,
			"-0.021": 0.0,
			"-0.02": 0.0,
			"-0.019": 0.0,
			"-0.018": 0.0,
			"-0.017": 0.0,
			"-0.016": 0.0,
			"-0.015": 0.0,
			"-0.014": 0.0,
			"-0.013": 0.0,
			"-0.012": 0.0,
			"-0.011": 0.0,
			"-0.01": 0.31229538607,
			"-0.009": 3.43963705654,
			"-0.008": 4.32875126065,
			"-0.007": 10.4522074705,
			"-0.006": 19.3618573314,
			"-0.005": 19.9997628084,
			"-0.004": 22.5032555779,
			"-0.003": 23.2433218721,
			"-0.002": 18.6107932952,
			"-0.001": 16.8206416651,
			"0.0": 19.578791496,
			"0.001": 12.6923126245,
			"0.002": 7.26422069066,
			"0.003": 7.02898742215,
			"0.004": 6.3573785898,
			"0.005": 7.17957651544,
			"0.006": 7.32280152116,
			"0.007": 9.20785653952,
			"0.008": 11.499449957,
			"0.009": 10.4247775738,
			"0.01": 7.37452337529,
			"0.011": 4.62539272015,
			"0.012": 2.20734560083,
			"0.013": 1.15047357188,
			"0.014": 0.0,
			"0.015": 0.0,
			"0.016": 0.0,
			"0.017": 0.0,
			"0.018": 0.0,
			"0.019": 0.0,
			"0.02": 0.0,
			"0.021": 0.0,
			"0.022": 0.0,
			"0.023": 0.0,
			"0.024": 0.0,
			"0.025": 0.0
		}
	}
}
