{
	 "smiles": "CC(=O)C1=CC=C(CO)C=C1", 
	 "Tm": 327.15, 
	 "num_atms": 21, 
	 "gaussian": { 
		 "optdone": 1, 
		 "sigma_profile": "yes", 
		 "theory": "DFT", 
		 "functional": "B3LYP", 
		 "basiset": "6-31G**", 
		 "properties": { 
			 "R2extent": 2396.016, 
			 "electric_dipole_moment_norm": 2.08750291018, 
			 "electric_quadrupole_moment_norm": 18.7554255046, 
			 "total_energy": -499.42723417, 
			 "HOMO_LUMO_gap": 0.19156, 
			 "cosmo_polarized_energy": -11.92, 
			 "cosmo_cavitation_energy": 24.9, 
			 "cosmo_dispersion_energy": -18.2, 
			 "cosmo_repulsion_energy": 1.47, 
			 "cosmo_total_nonelectrostatic_energy": 8.16, 
			 "SMD_solvation_energy": 5.02 
		},
		"coords": [
			{
				"x": 2.3975536235,
				"y": 0.3169301107,
				"z": 2.4869021401,
				"element": "C" 
			},
			{
				"x": 0.9605556548,
				"y": -0.1759352935,
				"z": 2.4373244179,
				"element": "C" 
			},
			{
				"x": 0.3105863322,
				"y": -0.2958973901,
				"z": 3.4654134957,
				"element": "O" 
			},
			{
				"x": 0.3563695952,
				"y": -0.5126897682,
				"z": 1.1078055753,
				"element": "C" 
			},
			{
				"x": -0.9707014027,
				"y": -0.9707631722,
				"z": 1.0782613942,
				"element": "C" 
			},
			{
				"x": -1.5809879986,
				"y": -1.2911397449,
				"z": -0.1283069813,
				"element": "C" 
			},
			{
				"x": -0.8808903204,
				"y": -1.1714648039,
				"z": -1.3376644222,
				"element": "C" 
			},
			{
				"x": -1.5366417183,
				"y": -1.5565736272,
				"z": -2.6505811821,
				"element": "C" 
			},
			{
				"x": -0.9927381555,
				"y": -0.896018117,
				"z": -3.7822938501,
				"element": "O" 
			},
			{
				"x": 0.4418110881,
				"y": -0.7145487288,
				"z": -1.3114062983,
				"element": "C" 
			},
			{
				"x": 1.0539144521,
				"y": -0.3872503114,
				"z": -0.1027795735,
				"element": "C" 
			},
			{
				"x": 3.0832477211,
				"y": -0.4265534554,
				"z": 2.0655861493,
				"element": "H" 
			},
			{
				"x": 2.6646832568,
				"y": 0.5076848849,
				"z": 3.5265768129,
				"element": "H" 
			},
			{
				"x": 2.5186052761,
				"y": 1.2377346251,
				"z": 1.9056186759,
				"element": "H" 
			},
			{
				"x": -1.5026355936,
				"y": -1.0575206899,
				"z": 2.0198622528,
				"element": "H" 
			},
			{
				"x": -2.6131046621,
				"y": -1.6345141753,
				"z": -0.1364320649,
				"element": "H" 
			},
			{
				"x": -2.6251516559,
				"y": -1.4058730344,
				"z": -2.5758743058,
				"element": "H" 
			},
			{
				"x": -1.3810931134,
				"y": -2.6258514509,
				"z": -2.8397610062,
				"element": "H" 
			},
			{
				"x": -1.1286778479,
				"y": 0.0530637171,
				"z": -3.6594907567,
				"element": "H" 
			},
			{
				"x": 0.9815855232,
				"y": -0.6173708534,
				"z": -2.2479690255,
				"element": "H" 
			},
			{
				"x": 2.0805099454,
				"y": -0.0346487216,
				"z": -0.1094914477,
				"element": "H" 
			}
		],
		 "valence_orbital": [ 
			{
				"type": "occ",
				"energy": -0.33418,
				"method": "rhf"
			},
			{
				"type": "occ",
				"energy": -0.28631,
				"method": "rhf"
			},
			{
				"type": "occ",
				"energy": -0.26189,
				"method": "rhf"
			},
			{
				"type": "occ",
				"energy": -0.25219,
				"method": "rhf"
			},
			{
				"type": "occ",
				"energy": -0.24709,
				"method": "rhf"
			},
			{
				"type": "unocc",
				"energy": -0.05553,
				"method": "rhf"
			},
			{
				"type": "unocc",
				"energy": -0.01183,
				"method": "rhf"
			},
			{
				"type": "unocc",
				"energy": 0.03546,
				"method": "rhf"
			},
			{
				"type": "unocc",
				"energy": 0.0777,
				"method": "rhf"
			},
			{
				"type": "unocc",
				"energy": 0.09354,
				"method": "rhf"
			}
		],
		"cosmo_sigma_profile": { 
			"-0.025": 0.0,
			"-0.024": 0.0,
			"-0.023": 0.0,
			"-0.022": 0.0,
			"-0.021": 0.0,
			"-0.02": 0.0,
			"-0.019": 0.0,
			"-0.018": 0.0,
			"-0.017": 0.0,
			"-0.016": 0.296179317947,
			"-0.015": 0.889403911609,
			"-0.014": 1.10731735877,
			"-0.013": 0.798998625525,
			"-0.012": 0.555302876847,
			"-0.011": 1.17991641861,
			"-0.01": 0.951763471802,
			"-0.009": 0.627383446113,
			"-0.008": 1.15653030511,
			"-0.007": 1.31218883047,
			"-0.006": 13.2750260748,
			"-0.005": 20.3834271305,
			"-0.004": 17.7012708957,
			"-0.003": 16.3250507873,
			"-0.002": 14.8006264961,
			"-0.001": 14.1947867641,
			"0.0": 11.8701258242,
			"0.001": 9.38569332184,
			"0.002": 11.8872109262,
			"0.003": 10.7979286326,
			"0.004": 14.011306049,
			"0.005": 4.46994741047,
			"0.006": 3.15404848695,
			"0.007": 2.75509312586,
			"0.008": 2.22587491729,
			"0.009": 2.57741463222,
			"0.01": 3.03486846639,
			"0.011": 4.33946320702,
			"0.012": 5.6539994067,
			"0.013": 3.57432040304,
			"0.014": 1.81510883089,
			"0.015": 0.0,
			"0.016": 0.0,
			"0.017": 0.0,
			"0.018": 0.0,
			"0.019": 0.0,
			"0.02": 0.0,
			"0.021": 0.0,
			"0.022": 0.0,
			"0.023": 0.0,
			"0.024": 0.0,
			"0.025": 0.0
		}
	}
}
