{
	 "smiles": "CN1N=CC2=C1N=C(Cl)N=C2Cl", 
	 "Tm": 360.15, 
	 "num_atms": 16, 
	 "gaussian": { 
		 "optdone": 1, 
		 "sigma_profile": "yes", 
		 "theory": "DFT", 
		 "functional": "B3LYP", 
		 "basiset": "6-31G**", 
		 "properties": { 
			 "R2extent": 2920.4358, 
			 "electric_dipole_moment_norm": 3.05496590161, 
			 "electric_quadrupole_moment_norm": 8.01697694957, 
			 "total_energy": -1370.4216462, 
			 "HOMO_LUMO_gap": 0.18591, 
			 "cosmo_polarized_energy": -7.89, 
			 "cosmo_cavitation_energy": 24.79, 
			 "cosmo_dispersion_energy": -18.85, 
			 "cosmo_repulsion_energy": 1.51, 
			 "cosmo_total_nonelectrostatic_energy": 7.45, 
			 "SMD_solvation_energy": 0.26 
		},
		"coords": [
			{
				"x": -0.6100142738,
				"y": -1.1663004531,
				"z": 3.5294957003,
				"element": "C" 
			},
			{
				"x": -0.3381318895,
				"y": -0.3266667914,
				"z": 2.3770873324,
				"element": "N" 
			},
			{
				"x": 0.3034130169,
				"y": 0.8710868115,
				"z": 2.5191653923,
				"element": "N" 
			},
			{
				"x": 0.407219851,
				"y": 1.401175305,
				"z": 1.3136096105,
				"element": "C" 
			},
			{
				"x": -0.175344151,
				"y": 0.5453402433,
				"z": 0.3366104393,
				"element": "C" 
			},
			{
				"x": -0.6472670104,
				"y": -0.5674659674,
				"z": 1.0790619864,
				"element": "C" 
			},
			{
				"x": -1.2748394516,
				"y": -1.6387020337,
				"z": 0.572205957,
				"element": "N" 
			},
			{
				"x": -1.420549684,
				"y": -1.5614965977,
				"z": -0.7368261809,
				"element": "C" 
			},
			{
				"x": -2.2277478696,
				"y": -2.9077157642,
				"z": -1.5053567982,
				"element": "Cl" 
			},
			{
				"x": -1.0305919193,
				"y": -0.5813204346,
				"z": -1.5722539108,
				"element": "N" 
			},
			{
				"x": -0.4171445815,
				"y": 0.4551112189,
				"z": -1.0379916013,
				"element": "C" 
			},
			{
				"x": 0.0947724711,
				"y": 1.7347318537,
				"z": -2.1086445253,
				"element": "Cl" 
			},
			{
				"x": -1.2430312086,
				"y": -0.6307864993,
				"z": 4.2410703592,
				"element": "H" 
			},
			{
				"x": 0.32667692,
				"y": -1.445303144,
				"z": 4.0179601958,
				"element": "H" 
			},
			{
				"x": -1.1241916351,
				"y": -2.0602689816,
				"z": 3.1755870269,
				"element": "H" 
			},
			{
				"x": 0.8857714154,
				"y": 2.3607812345,
				"z": 1.1781190164,
				"element": "H" 
			}
		],
		 "valence_orbital": [ 
			{
				"type": "occ",
				"energy": -0.32214,
				"method": "rhf"
			},
			{
				"type": "occ",
				"energy": -0.31649,
				"method": "rhf"
			},
			{
				"type": "occ",
				"energy": -0.28978,
				"method": "rhf"
			},
			{
				"type": "occ",
				"energy": -0.28449,
				"method": "rhf"
			},
			{
				"type": "occ",
				"energy": -0.26308,
				"method": "rhf"
			},
			{
				"type": "unocc",
				"energy": -0.07717,
				"method": "rhf"
			},
			{
				"type": "unocc",
				"energy": -0.03057,
				"method": "rhf"
			},
			{
				"type": "unocc",
				"energy": 0.01038,
				"method": "rhf"
			},
			{
				"type": "unocc",
				"energy": 0.01623,
				"method": "rhf"
			},
			{
				"type": "unocc",
				"energy": 0.03951,
				"method": "rhf"
			}
		],
		"cosmo_sigma_profile": { 
			"-0.025": 0.0,
			"-0.024": 0.0,
			"-0.023": 0.0,
			"-0.022": 0.0,
			"-0.021": 0.0,
			"-0.02": 0.0,
			"-0.019": 0.0,
			"-0.018": 0.0,
			"-0.017": 0.0,
			"-0.016": 0.0,
			"-0.015": 0.0,
			"-0.014": 0.0,
			"-0.013": 0.0,
			"-0.012": 0.0,
			"-0.011": 0.0,
			"-0.01": 0.430089003235,
			"-0.009": 1.57454742959,
			"-0.008": 1.2695868619,
			"-0.007": 5.89654985914,
			"-0.006": 8.79795986789,
			"-0.005": 11.3949353566,
			"-0.004": 19.0457053031,
			"-0.003": 24.2342388983,
			"-0.002": 16.2353061327,
			"-0.001": 13.2728596113,
			"0.0": 13.7030503686,
			"0.001": 14.9199123263,
			"0.002": 15.374746199,
			"0.003": 18.7584653406,
			"0.004": 11.2758046238,
			"0.005": 6.87398241095,
			"0.006": 4.21306364513,
			"0.007": 3.87539223692,
			"0.008": 3.96668009894,
			"0.009": 3.56923209167,
			"0.01": 2.33873184119,
			"0.011": 1.95764899442,
			"0.012": 1.30179163303,
			"0.013": 1.02558368932,
			"0.014": 0.0427439454073,
			"0.015": 0.0,
			"0.016": 0.0,
			"0.017": 0.0,
			"0.018": 0.0,
			"0.019": 0.0,
			"0.02": 0.0,
			"0.021": 0.0,
			"0.022": 0.0,
			"0.023": 0.0,
			"0.024": 0.0,
			"0.025": 0.0
		}
	}
}
