{
	 "smiles": "FC1=CC2=C(C=C1)C(=CN2)C1=CCNCC1", 
	 "Tm": 447.15, 
	 "num_atms": 29, 
	 "gaussian": { 
		 "optdone": 1, 
		 "sigma_profile": "yes", 
		 "theory": "DFT", 
		 "functional": "B3LYP", 
		 "basiset": "6-31G**", 
		 "properties": { 
			 "R2extent": 4869.5454, 
			 "electric_dipole_moment_norm": 2.33623926429, 
			 "electric_quadrupole_moment_norm": 17.1876653959, 
			 "total_energy": -712.539350603, 
			 "HOMO_LUMO_gap": 0.17751, 
			 "cosmo_polarized_energy": -11.87, 
			 "cosmo_cavitation_energy": 31.79, 
			 "cosmo_dispersion_energy": -23.47, 
			 "cosmo_repulsion_energy": 1.79, 
			 "cosmo_total_nonelectrostatic_energy": 10.11, 
			 "SMD_solvation_energy": 2.46 
		},
		"coords": [
			{
				"x": -3.9196232646,
				"y": 3.4160214979,
				"z": 2.6760318721,
				"element": "F" 
			},
			{
				"x": -3.1429668312,
				"y": 2.5568185473,
				"z": 1.9762217675,
				"element": "C" 
			},
			{
				"x": -3.4493775421,
				"y": 1.2083059989,
				"z": 2.0118482039,
				"element": "C" 
			},
			{
				"x": -2.6111099719,
				"y": 0.3661859553,
				"z": 1.2719562354,
				"element": "C" 
			},
			{
				"x": -1.4992446783,
				"y": 0.843836202,
				"z": 0.520666901,
				"element": "C" 
			},
			{
				"x": -1.248070195,
				"y": 2.2283206756,
				"z": 0.5157375019,
				"element": "C" 
			},
			{
				"x": -2.0664002841,
				"y": 3.0810494296,
				"z": 1.2454713428,
				"element": "C" 
			},
			{
				"x": -0.8858057848,
				"y": -0.3089086423,
				"z": -0.1149533943,
				"element": "C" 
			},
			{
				"x": -1.6277378026,
				"y": -1.3984335595,
				"z": 0.2820679153,
				"element": "C" 
			},
			{
				"x": -2.66538987,
				"y": -0.9989605495,
				"z": 1.102932161,
				"element": "N" 
			},
			{
				"x": 0.2946800724,
				"y": -0.3610456992,
				"z": -0.9959243345,
				"element": "C" 
			},
			{
				"x": 0.3674528631,
				"y": -1.2195897438,
				"z": -2.029668275,
				"element": "C" 
			},
			{
				"x": 1.583439578,
				"y": -1.3689257648,
				"z": -2.9143100142,
				"element": "C" 
			},
			{
				"x": 2.6108022168,
				"y": -0.3373988245,
				"z": -2.7397888448,
				"element": "N" 
			},
			{
				"x": 2.7688879465,
				"y": 0.0236958598,
				"z": -1.3291305932,
				"element": "C" 
			},
			{
				"x": 1.4751899666,
				"y": 0.5477836681,
				"z": -0.6840269043,
				"element": "C" 
			},
			{
				"x": -4.2968620578,
				"y": 0.8483412433,
				"z": 2.5849225264,
				"element": "H" 
			},
			{
				"x": -0.4213852794,
				"y": 2.640126232,
				"z": -0.0524622763,
				"element": "H" 
			},
			{
				"x": -1.8961802609,
				"y": 4.1518338576,
				"z": 1.2637963344,
				"element": "H" 
			},
			{
				"x": -1.4739548705,
				"y": -2.4440961192,
				"z": 0.0584565533,
				"element": "H" 
			},
			{
				"x": -3.32238445,
				"y": -1.6161766897,
				"z": 1.5511155246,
				"element": "H" 
			},
			{
				"x": -0.4796730808,
				"y": -1.8673725273,
				"z": -2.2510115701,
				"element": "H" 
			},
			{
				"x": 1.2830019091,
				"y": -1.3789282528,
				"z": -3.9699440088,
				"element": "H" 
			},
			{
				"x": 2.042222735,
				"y": -2.3553246174,
				"z": -2.7331051282,
				"element": "H" 
			},
			{
				"x": 2.3236320795,
				"y": 0.4934190187,
				"z": -3.2534468488,
				"element": "H" 
			},
			{
				"x": 3.1061433792,
				"y": -0.872795748,
				"z": -0.7927082176,
				"element": "H" 
			},
			{
				"x": 3.5697376483,
				"y": 0.7664841955,
				"z": -1.2422929485,
				"element": "H" 
			},
			{
				"x": 1.5991861473,
				"y": 0.6386862972,
				"z": 0.4023790152,
				"element": "H" 
			},
			{
				"x": 1.2752896819,
				"y": 1.5657480589,
				"z": -1.0505304961,
				"element": "H" 
			}
		],
		 "valence_orbital": [ 
			{
				"type": "occ",
				"energy": -0.28514,
				"method": "rhf"
			},
			{
				"type": "occ",
				"energy": -0.2431,
				"method": "rhf"
			},
			{
				"type": "occ",
				"energy": -0.22328,
				"method": "rhf"
			},
			{
				"type": "occ",
				"energy": -0.21511,
				"method": "rhf"
			},
			{
				"type": "occ",
				"energy": -0.19258,
				"method": "rhf"
			},
			{
				"type": "unocc",
				"energy": -0.01507,
				"method": "rhf"
			},
			{
				"type": "unocc",
				"energy": 0.01465,
				"method": "rhf"
			},
			{
				"type": "unocc",
				"energy": 0.02611,
				"method": "rhf"
			},
			{
				"type": "unocc",
				"energy": 0.07569,
				"method": "rhf"
			},
			{
				"type": "unocc",
				"energy": 0.08402,
				"method": "rhf"
			}
		],
		"cosmo_sigma_profile": { 
			"-0.025": 0.0,
			"-0.024": 0.0,
			"-0.023": 0.0,
			"-0.022": 0.0,
			"-0.021": 0.0,
			"-0.02": 0.0,
			"-0.019": 0.0,
			"-0.018": 0.0,
			"-0.017": 0.0,
			"-0.016": 0.561578548857,
			"-0.015": 1.92993679713,
			"-0.014": 1.33139427064,
			"-0.013": 1.29761728696,
			"-0.012": 1.13608227458,
			"-0.011": 1.2215753236,
			"-0.01": 1.58304261921,
			"-0.009": 2.67840152324,
			"-0.008": 3.71635509832,
			"-0.007": 6.64986934223,
			"-0.006": 7.91011661335,
			"-0.005": 9.6877848057,
			"-0.004": 14.1438562569,
			"-0.003": 21.7740573612,
			"-0.002": 20.4174180149,
			"-0.001": 23.5491316669,
			"0.0": 16.2149866542,
			"0.001": 13.4111237868,
			"0.002": 16.0869146638,
			"0.003": 17.3479201135,
			"0.004": 22.5758789083,
			"0.005": 26.9234460756,
			"0.006": 9.42246592173,
			"0.007": 2.67107590305,
			"0.008": 0.83780296102,
			"0.009": 0.958436363095,
			"0.01": 0.872857190744,
			"0.011": 0.502476586897,
			"0.012": 0.438844093451,
			"0.013": 0.576596734369,
			"0.014": 1.24979658998,
			"0.015": 0.359622629795,
			"0.016": 0.245538283399,
			"0.017": 0.625452851039,
			"0.018": 0.647657309878,
			"0.019": 0.342335555685,
			"0.02": 0.0,
			"0.021": 0.0,
			"0.022": 0.0,
			"0.023": 0.0,
			"0.024": 0.0,
			"0.025": 0.0
		}
	}
}
