{
	 "smiles": "CC1=C(C=CC=C1)C(=O)NCCC(O)=O", 
	 "Tm": 384.15, 
	 "num_atms": 28, 
	 "gaussian": { 
		 "optdone": 1, 
		 "sigma_profile": "yes", 
		 "theory": "DFT", 
		 "functional": "B3LYP", 
		 "basiset": "6-31G**", 
		 "properties": { 
			 "R2extent": 3728.3815, 
			 "electric_dipole_moment_norm": 4.75594542967, 
			 "electric_quadrupole_moment_norm": 9.21595320192, 
			 "total_energy": -707.466172291, 
			 "HOMO_LUMO_gap": 0.21418, 
			 "cosmo_polarized_energy": -19.29, 
			 "cosmo_cavitation_energy": 31.5, 
			 "cosmo_dispersion_energy": -22.09, 
			 "cosmo_repulsion_energy": 1.73, 
			 "cosmo_total_nonelectrostatic_energy": 11.14, 
			 "SMD_solvation_energy": 6.54 
		},
		"coords": [
			{
				"x": -0.764898796,
				"y": 2.3710411639,
				"z": -1.0898608817,
				"element": "C" 
			},
			{
				"x": 0.0375892182,
				"y": 1.5250724502,
				"z": -2.0591008851,
				"element": "C" 
			},
			{
				"x": 0.4644894692,
				"y": 0.2070675048,
				"z": -1.7831994032,
				"element": "C" 
			},
			{
				"x": 1.2739186954,
				"y": -0.4733530133,
				"z": -2.7059962071,
				"element": "C" 
			},
			{
				"x": 1.6261097692,
				"y": 0.1059545188,
				"z": -3.9202422136,
				"element": "C" 
			},
			{
				"x": 1.1899795935,
				"y": 1.3992341869,
				"z": -4.2118224312,
				"element": "C" 
			},
			{
				"x": 0.4192939763,
				"y": 2.0952378206,
				"z": -3.2830982863,
				"element": "C" 
			},
			{
				"x": 0.1670817059,
				"y": -0.5563364287,
				"z": -0.5169644996,
				"element": "C" 
			},
			{
				"x": 1.0119042939,
				"y": -1.2707800289,
				"z": 0.0160105613,
				"element": "O" 
			},
			{
				"x": -1.1110950233,
				"y": -0.4676953034,
				"z": -0.029718646,
				"element": "N" 
			},
			{
				"x": -1.5213754446,
				"y": -1.154061534,
				"z": 1.1811069625,
				"element": "C" 
			},
			{
				"x": -1.489073071,
				"y": -0.274928258,
				"z": 2.4554727452,
				"element": "C" 
			},
			{
				"x": -0.0804321862,
				"y": 0.0864179763,
				"z": 2.8750738561,
				"element": "C" 
			},
			{
				"x": 0.3767299873,
				"y": 1.1895854403,
				"z": 2.2275334103,
				"element": "O" 
			},
			{
				"x": 0.5872515384,
				"y": -0.5199563674,
				"z": 3.6805126284,
				"element": "O" 
			},
			{
				"x": -0.6117596856,
				"y": 3.4323120471,
				"z": -1.3049401614,
				"element": "H" 
			},
			{
				"x": -0.4835695772,
				"y": 2.1895789996,
				"z": -0.0500112675,
				"element": "H" 
			},
			{
				"x": -1.8460904137,
				"y": 2.1936319575,
				"z": -1.1796287185,
				"element": "H" 
			},
			{
				"x": 1.6227495831,
				"y": -1.4659579038,
				"z": -2.441243092,
				"element": "H" 
			},
			{
				"x": 2.2423250608,
				"y": -0.4412391387,
				"z": -4.6274014687,
				"element": "H" 
			},
			{
				"x": 1.4622508446,
				"y": 1.872261993,
				"z": -5.1511576419,
				"element": "H" 
			},
			{
				"x": 0.1117476037,
				"y": 3.1149929157,
				"z": -3.5013855624,
				"element": "H" 
			},
			{
				"x": -1.7825841552,
				"y": 0.1043504641,
				"z": -0.5162763955,
				"element": "H" 
			},
			{
				"x": -2.5413261742,
				"y": -1.5280097635,
				"z": 1.0450655244,
				"element": "H" 
			},
			{
				"x": -0.8554925031,
				"y": -2.0100745869,
				"z": 1.3101199673,
				"element": "H" 
			},
			{
				"x": -2.0737148077,
				"y": 0.63601941,
				"z": 2.2931665346,
				"element": "H" 
			},
			{
				"x": -1.9350680229,
				"y": -0.839255639,
				"z": 3.2785183977,
				"element": "H" 
			},
			{
				"x": 1.305558521,
				"y": 1.2931891167,
				"z": 2.4959671739,
				"element": "H" 
			}
		],
		 "valence_orbital": [ 
			{
				"type": "occ",
				"energy": -0.27248,
				"method": "rhf"
			},
			{
				"type": "occ",
				"energy": -0.26193,
				"method": "rhf"
			},
			{
				"type": "occ",
				"energy": -0.25377,
				"method": "rhf"
			},
			{
				"type": "occ",
				"energy": -0.2476,
				"method": "rhf"
			},
			{
				"type": "occ",
				"energy": -0.24177,
				"method": "rhf"
			},
			{
				"type": "unocc",
				"energy": -0.02759,
				"method": "rhf"
			},
			{
				"type": "unocc",
				"energy": -0.00457,
				"method": "rhf"
			},
			{
				"type": "unocc",
				"energy": 0.00812,
				"method": "rhf"
			},
			{
				"type": "unocc",
				"energy": 0.05241,
				"method": "rhf"
			},
			{
				"type": "unocc",
				"energy": 0.06742,
				"method": "rhf"
			}
		],
		"cosmo_sigma_profile": { 
			"-0.025": 0.0,
			"-0.024": 0.0,
			"-0.023": 0.0,
			"-0.022": 0.0,
			"-0.021": 0.0,
			"-0.02": 0.0,
			"-0.019": 0.00532439374542,
			"-0.018": 0.497535970744,
			"-0.017": 0.961318631162,
			"-0.016": 0.987449944554,
			"-0.015": 0.642153590736,
			"-0.014": 1.19260368034,
			"-0.013": 1.55014771226,
			"-0.012": 1.51309462725,
			"-0.011": 2.45054686411,
			"-0.01": 2.17292545769,
			"-0.009": 1.97480876633,
			"-0.008": 2.67740746818,
			"-0.007": 3.67554926226,
			"-0.006": 13.6809607633,
			"-0.005": 20.6501347254,
			"-0.004": 22.1524278779,
			"-0.003": 18.9592851545,
			"-0.002": 15.2126695532,
			"-0.001": 14.7114561028,
			"0.0": 17.6095003364,
			"0.001": 13.8400314756,
			"0.002": 13.7889041571,
			"0.003": 12.7510669305,
			"0.004": 12.1688179799,
			"0.005": 13.8510144042,
			"0.006": 4.89722892046,
			"0.007": 3.92805848933,
			"0.008": 4.10273889114,
			"0.009": 3.75780710656,
			"0.01": 2.70186924327,
			"0.011": 5.41924339129,
			"0.012": 6.71756572462,
			"0.013": 3.99514573448,
			"0.014": 3.15958799517,
			"0.015": 0.561634188556,
			"0.016": 0.0,
			"0.017": 0.0,
			"0.018": 0.0,
			"0.019": 0.0,
			"0.02": 0.0,
			"0.021": 0.0,
			"0.022": 0.0,
			"0.023": 0.0,
			"0.024": 0.0,
			"0.025": 0.0
		}
	}
}
