{
	 "smiles": "CCOC(C(=O)C1=CC=CC=C1)C1=CC=CC=C1", 
	 "Tm": 335.15, 
	 "num_atms": 34, 
	 "gaussian": { 
		 "optdone": 1, 
		 "sigma_profile": "yes", 
		 "theory": "DFT", 
		 "functional": "B3LYP", 
		 "basiset": "6-31G**", 
		 "properties": { 
			 "R2extent": 5511.0544, 
			 "electric_dipole_moment_norm": 3.07856471265, 
			 "electric_quadrupole_moment_norm": 5.0502883185, 
			 "total_energy": -769.782351894, 
			 "HOMO_LUMO_gap": 0.17418, 
			 "cosmo_polarized_energy": -12.46, 
			 "cosmo_cavitation_energy": 37.48, 
			 "cosmo_dispersion_energy": -25.94, 
			 "cosmo_repulsion_energy": 2.05, 
			 "cosmo_total_nonelectrostatic_energy": 13.59, 
			 "SMD_solvation_energy": 6.77 
		},
		"coords": [
			{
				"x": 2.9192265711,
				"y": 0.9902239307,
				"z": -3.6848264314,
				"element": "C" 
			},
			{
				"x": 2.2918295452,
				"y": 0.7244833885,
				"z": -2.3268723097,
				"element": "C" 
			},
			{
				"x": 0.9873125381,
				"y": 0.1935630361,
				"z": -2.5477338191,
				"element": "O" 
			},
			{
				"x": 0.2317777441,
				"y": -0.0327072576,
				"z": -1.3784803727,
				"element": "C" 
			},
			{
				"x": 0.7987080887,
				"y": -1.22621004,
				"z": -0.5621971485,
				"element": "C" 
			},
			{
				"x": 1.5458285193,
				"y": -2.0225053457,
				"z": -1.1086745367,
				"element": "O" 
			},
			{
				"x": 0.4216100006,
				"y": -1.3934027071,
				"z": 0.8789703806,
				"element": "C" 
			},
			{
				"x": -0.4618930398,
				"y": -0.5376142409,
				"z": 1.555553102,
				"element": "C" 
			},
			{
				"x": -0.7576014092,
				"y": -0.7513633642,
				"z": 2.9017042536,
				"element": "C" 
			},
			{
				"x": -0.1736199592,
				"y": -1.8182905223,
				"z": 3.5867984898,
				"element": "C" 
			},
			{
				"x": 0.7063142901,
				"y": -2.677255151,
				"z": 2.921183743,
				"element": "C" 
			},
			{
				"x": 0.9997358595,
				"y": -2.4664817639,
				"z": 1.5779318763,
				"element": "C" 
			},
			{
				"x": -1.1965626965,
				"y": -0.3290206828,
				"z": -1.8083212254,
				"element": "C" 
			},
			{
				"x": -2.2405435942,
				"y": 0.5528609466,
				"z": -1.5109569842,
				"element": "C" 
			},
			{
				"x": -3.5424344576,
				"y": 0.2790285402,
				"z": -1.934547277,
				"element": "C" 
			},
			{
				"x": -3.8083105106,
				"y": -0.8787510564,
				"z": -2.6668591514,
				"element": "C" 
			},
			{
				"x": -2.7678114993,
				"y": -1.7585298704,
				"z": -2.9762731097,
				"element": "C" 
			},
			{
				"x": -1.4689245735,
				"y": -1.4872684937,
				"z": -2.5485317349,
				"element": "C" 
			},
			{
				"x": 2.3132599899,
				"y": 1.6971757019,
				"z": -4.2589650564,
				"element": "H" 
			},
			{
				"x": 3.9239300414,
				"y": 1.4079783768,
				"z": -3.5647853727,
				"element": "H" 
			},
			{
				"x": 2.9957028439,
				"y": 0.0603629914,
				"z": -4.2552145201,
				"element": "H" 
			},
			{
				"x": 2.9028369923,
				"y": 0.0156877079,
				"z": -1.7535060082,
				"element": "H" 
			},
			{
				"x": 2.2186538663,
				"y": 1.658349986,
				"z": -1.7434369223,
				"element": "H" 
			},
			{
				"x": 0.2409315964,
				"y": 0.8669103608,
				"z": -0.7415134837,
				"element": "H" 
			},
			{
				"x": -0.9366285468,
				"y": 0.2870239861,
				"z": 1.036832281,
				"element": "H" 
			},
			{
				"x": -1.4453780761,
				"y": -0.0857296189,
				"z": 3.4148612347,
				"element": "H" 
			},
			{
				"x": -0.4043232018,
				"y": -1.9813218456,
				"z": 4.6357956218,
				"element": "H" 
			},
			{
				"x": 1.16057072,
				"y": -3.5090307488,
				"z": 3.4517932004,
				"element": "H" 
			},
			{
				"x": 1.6784710619,
				"y": -3.1191728801,
				"z": 1.0393709288,
				"element": "H" 
			},
			{
				"x": -2.0337090226,
				"y": 1.4653746639,
				"z": -0.9564897888,
				"element": "H" 
			},
			{
				"x": -4.3447818913,
				"y": 0.9722994221,
				"z": -1.6985620965,
				"element": "H" 
			},
			{
				"x": -4.8203289121,
				"y": -1.0932020371,
				"z": -2.9982518537,
				"element": "H" 
			},
			{
				"x": -2.9691556119,
				"y": -2.6582785261,
				"z": -3.5506771151,
				"element": "H" 
			},
			{
				"x": -0.6558932663,
				"y": -2.1648868863,
				"z": -2.7899187939,
				"element": "H" 
			}
		],
		 "valence_orbital": [ 
			{
				"type": "occ",
				"energy": -0.26355,
				"method": "rhf"
			},
			{
				"type": "occ",
				"energy": -0.25889,
				"method": "rhf"
			},
			{
				"type": "occ",
				"energy": -0.25052,
				"method": "rhf"
			},
			{
				"type": "occ",
				"energy": -0.2496,
				"method": "rhf"
			},
			{
				"type": "occ",
				"energy": -0.23413,
				"method": "rhf"
			},
			{
				"type": "unocc",
				"energy": -0.05995,
				"method": "rhf"
			},
			{
				"type": "unocc",
				"energy": -0.0118,
				"method": "rhf"
			},
			{
				"type": "unocc",
				"energy": -0.00434,
				"method": "rhf"
			},
			{
				"type": "unocc",
				"energy": -0.00204,
				"method": "rhf"
			},
			{
				"type": "unocc",
				"energy": 0.03948,
				"method": "rhf"
			}
		],
		"cosmo_sigma_profile": { 
			"-0.025": 0.0,
			"-0.024": 0.0,
			"-0.023": 0.0,
			"-0.022": 0.0,
			"-0.021": 0.0,
			"-0.02": 0.0,
			"-0.019": 0.0,
			"-0.018": 0.0,
			"-0.017": 0.0,
			"-0.016": 0.0,
			"-0.015": 0.0,
			"-0.014": 0.0,
			"-0.013": 0.0,
			"-0.012": 0.0,
			"-0.011": 0.0,
			"-0.01": 0.130691747132,
			"-0.009": 0.706291011716,
			"-0.008": 1.65309083011,
			"-0.007": 4.16075326344,
			"-0.006": 18.0737420251,
			"-0.005": 22.7119376208,
			"-0.004": 26.5484880734,
			"-0.003": 28.8798366484,
			"-0.002": 25.2126521259,
			"-0.001": 20.589261717,
			"0.0": 23.6068631784,
			"0.001": 21.5091794815,
			"0.002": 20.7943732308,
			"0.003": 20.7199943353,
			"0.004": 21.4986947458,
			"0.005": 13.3124217336,
			"0.006": 5.40276575992,
			"0.007": 2.43077914141,
			"0.008": 3.56498664163,
			"0.009": 3.06628516892,
			"0.01": 3.5339695133,
			"0.011": 4.44490172028,
			"0.012": 3.81901503981,
			"0.013": 1.43068752063,
			"0.014": 0.332081485775,
			"0.015": 0.0,
			"0.016": 0.0,
			"0.017": 0.0,
			"0.018": 0.0,
			"0.019": 0.0,
			"0.02": 0.0,
			"0.021": 0.0,
			"0.022": 0.0,
			"0.023": 0.0,
			"0.024": 0.0,
			"0.025": 0.0
		}
	}
}
