{
	 "smiles": "CN1C=C(C(O)=O)C(=C1)C(F)(F)F", 
	 "Tm": 479.15, 
	 "num_atms": 19, 
	 "gaussian": { 
		 "optdone": 1, 
		 "sigma_profile": "yes", 
		 "theory": "DFT", 
		 "functional": "B3LYP", 
		 "basiset": "6-31G**", 
		 "properties": { 
			 "R2extent": 2585.1071, 
			 "electric_dipole_moment_norm": 8.772916588, 
			 "electric_quadrupole_moment_norm": 11.6519849845, 
			 "total_energy": -775.080966435, 
			 "HOMO_LUMO_gap": 0.22348, 
			 "cosmo_polarized_energy": -21.21, 
			 "cosmo_cavitation_energy": 25.21, 
			 "cosmo_dispersion_energy": -17.81, 
			 "cosmo_repulsion_energy": 1.36, 
			 "cosmo_total_nonelectrostatic_energy": 8.76, 
			 "SMD_solvation_energy": 7.15 
		},
		"coords": [
			{
				"x": 2.9551036486,
				"y": 0.3493738693,
				"z": -0.8175239711,
				"element": "C" 
			},
			{
				"x": 1.6009216938,
				"y": -0.0337618094,
				"z": -0.4445558922,
				"element": "N" 
			},
			{
				"x": 1.2670665788,
				"y": -1.0534936981,
				"z": 0.4050496746,
				"element": "C" 
			},
			{
				"x": -0.1136602375,
				"y": -1.1783718861,
				"z": 0.431157709,
				"element": "C" 
			},
			{
				"x": -0.8974525118,
				"y": -2.1776334584,
				"z": 1.1915820064,
				"element": "C" 
			},
			{
				"x": -0.2706218212,
				"y": -2.7086553706,
				"z": 2.2847072339,
				"element": "O" 
			},
			{
				"x": -2.0063468719,
				"y": -2.5451638715,
				"z": 0.8903317958,
				"element": "O" 
			},
			{
				"x": -0.6258055274,
				"y": -0.1828914754,
				"z": -0.4619681705,
				"element": "C" 
			},
			{
				"x": 0.4520916317,
				"y": 0.5017051954,
				"z": -0.9734037357,
				"element": "C" 
			},
			{
				"x": -2.0482495843,
				"y": 0.1276477608,
				"z": -0.7922749375,
				"element": "C" 
			},
			{
				"x": -2.113416398,
				"y": 1.2661229664,
				"z": -1.5338911272,
				"element": "F" 
			},
			{
				"x": -2.7950188398,
				"y": 0.3271657186,
				"z": 0.31197526,
				"element": "F" 
			},
			{
				"x": -2.6392792183,
				"y": -0.8430366914,
				"z": -1.5122105122,
				"element": "F" 
			},
			{
				"x": 3.6363545989,
				"y": 0.1223056902,
				"z": 0.0046857162,
				"element": "H" 
			},
			{
				"x": 2.989919668,
				"y": 1.4235877011,
				"z": -1.0101587209,
				"element": "H" 
			},
			{
				"x": 3.2864525741,
				"y": -0.1848890342,
				"z": -1.713867065,
				"element": "H" 
			},
			{
				"x": 2.0357050148,
				"y": -1.644415644,
				"z": 0.883470966,
				"element": "H" 
			},
			{
				"x": 0.4983009336,
				"y": -2.1681128837,
				"z": 2.5125766701,
				"element": "H" 
			},
			{
				"x": 0.4830346678,
				"y": 1.3322169208,
				"z": -1.6616828997,
				"element": "H" 
			}
		],
		 "valence_orbital": [ 
			{
				"type": "occ",
				"energy": -0.37061,
				"method": "rhf"
			},
			{
				"type": "occ",
				"energy": -0.31219,
				"method": "rhf"
			},
			{
				"type": "occ",
				"energy": -0.27485,
				"method": "rhf"
			},
			{
				"type": "occ",
				"energy": -0.26442,
				"method": "rhf"
			},
			{
				"type": "occ",
				"energy": -0.25162,
				"method": "rhf"
			},
			{
				"type": "unocc",
				"energy": -0.02814,
				"method": "rhf"
			},
			{
				"type": "unocc",
				"energy": 0.00339,
				"method": "rhf"
			},
			{
				"type": "unocc",
				"energy": 0.06158,
				"method": "rhf"
			},
			{
				"type": "unocc",
				"energy": 0.06742,
				"method": "rhf"
			},
			{
				"type": "unocc",
				"energy": 0.08659,
				"method": "rhf"
			}
		],
		"cosmo_sigma_profile": { 
			"-0.025": 0.0,
			"-0.024": 0.0,
			"-0.023": 0.0,
			"-0.022": 0.0,
			"-0.021": 0.0,
			"-0.02": 0.0,
			"-0.019": 0.0,
			"-0.018": 0.693144513687,
			"-0.017": 0.770718738925,
			"-0.016": 1.27798610952,
			"-0.015": 1.14588781337,
			"-0.014": 1.15391812342,
			"-0.013": 0.998500817085,
			"-0.012": 0.72693800207,
			"-0.011": 2.11935987922,
			"-0.01": 3.08120248072,
			"-0.009": 5.01963208725,
			"-0.008": 6.23659881202,
			"-0.007": 8.72500923231,
			"-0.006": 8.54564527728,
			"-0.005": 10.5680221364,
			"-0.004": 13.1276737932,
			"-0.003": 8.67407431932,
			"-0.002": 6.13973263227,
			"-0.001": 6.88844285735,
			"0.0": 10.0883525369,
			"0.001": 10.506678316,
			"0.002": 16.7180438678,
			"0.003": 31.8075977557,
			"0.004": 10.4430665576,
			"0.005": 3.6138589854,
			"0.006": 3.55967579885,
			"0.007": 3.49226730447,
			"0.008": 3.51858269309,
			"0.009": 3.77845299348,
			"0.01": 5.22886604445,
			"0.011": 6.38798856199,
			"0.012": 4.2385298876,
			"0.013": 2.02110197754,
			"0.014": 0.219658101731,
			"0.015": 0.0,
			"0.016": 0.0,
			"0.017": 0.0,
			"0.018": 0.0,
			"0.019": 0.0,
			"0.02": 0.0,
			"0.021": 0.0,
			"0.022": 0.0,
			"0.023": 0.0,
			"0.024": 0.0,
			"0.025": 0.0
		}
	}
}
