{
	 "smiles": "CSC1=CC2=C(C(=O)N(N2C)C2=CC=CC=C2)C2=C1CCC1=CC=CC=C21", 
	 "Tm": 454.15, 
	 "num_atms": 47, 
	 "gaussian": { 
		 "optdone": 1, 
		 "sigma_profile": "yes", 
		 "theory": "DFT", 
		 "functional": "B3LYP", 
		 "basiset": "6-31G**", 
		 "properties": { 
			 "R2extent": 12515.6415, 
			 "electric_dipole_moment_norm": 3.40305270309, 
			 "electric_quadrupole_moment_norm": 14.9976031368, 
			 "total_energy": -1471.41868111, 
			 "HOMO_LUMO_gap": 0.14559, 
			 "cosmo_polarized_energy": -14.72, 
			 "cosmo_cavitation_energy": 49.62, 
			 "cosmo_dispersion_energy": -35.19, 
			 "cosmo_repulsion_energy": 2.57, 
			 "cosmo_total_nonelectrostatic_energy": 17.0, 
			 "SMD_solvation_energy": 7.6 
		},
		"coords": [
			{
				"x": -0.2678139058,
				"y": 4.8372446675,
				"z": -0.1215089568,
				"element": "C" 
			},
			{
				"x": -1.1841918762,
				"y": 4.0950947489,
				"z": -1.5272961356,
				"element": "S" 
			},
			{
				"x": -0.7022775782,
				"y": 2.3637889616,
				"z": -1.3572715213,
				"element": "C" 
			},
			{
				"x": -1.5380204235,
				"y": 1.5562592131,
				"z": -0.5857128238,
				"element": "C" 
			},
			{
				"x": -1.2008384018,
				"y": 0.2119838901,
				"z": -0.4533486888,
				"element": "C" 
			},
			{
				"x": -0.0746062545,
				"y": -0.3394151171,
				"z": -1.0809435993,
				"element": "C" 
			},
			{
				"x": 0.0349159712,
				"y": -1.7323043096,
				"z": -0.5921097213,
				"element": "C" 
			},
			{
				"x": 0.8428882328,
				"y": -2.6216161583,
				"z": -0.8242871398,
				"element": "O" 
			},
			{
				"x": -1.0655645681,
				"y": -1.8971923817,
				"z": 0.2734924252,
				"element": "N" 
			},
			{
				"x": -1.885585577,
				"y": -0.7396292229,
				"z": 0.3152483082,
				"element": "N" 
			},
			{
				"x": -2.250066405,
				"y": -0.3471109377,
				"z": 1.6858087916,
				"element": "C" 
			},
			{
				"x": -1.6373320837,
				"y": -3.1503638802,
				"z": 0.6154898179,
				"element": "C" 
			},
			{
				"x": -0.8040902767,
				"y": -4.2038222915,
				"z": 1.0185707263,
				"element": "C" 
			},
			{
				"x": -1.3686633663,
				"y": -5.4344372613,
				"z": 1.3498571614,
				"element": "C" 
			},
			{
				"x": -2.7514674497,
				"y": -5.6236487218,
				"z": 1.3047206333,
				"element": "C" 
			},
			{
				"x": -3.5748628021,
				"y": -4.5687254172,
				"z": 0.9084696543,
				"element": "C" 
			},
			{
				"x": -3.0262240877,
				"y": -3.3361820406,
				"z": 0.5563623354,
				"element": "C" 
			},
			{
				"x": 0.7403881843,
				"y": 0.4568207459,
				"z": -1.9265976759,
				"element": "C" 
			},
			{
				"x": 0.43521028,
				"y": 1.8381905312,
				"z": -2.0167755772,
				"element": "C" 
			},
			{
				"x": 1.3605134019,
				"y": 2.7199754714,
				"z": -2.8305625649,
				"element": "C" 
			},
			{
				"x": 2.8124195908,
				"y": 2.261985992,
				"z": -2.6632193195,
				"element": "C" 
			},
			{
				"x": 2.9236571684,
				"y": 0.8182694595,
				"z": -3.0837541288,
				"element": "C" 
			},
			{
				"x": 3.9987764606,
				"y": 0.3557495652,
				"z": -3.8432030634,
				"element": "C" 
			},
			{
				"x": 4.046362085,
				"y": -0.9668063002,
				"z": -4.2847888318,
				"element": "C" 
			},
			{
				"x": 2.9966934303,
				"y": -1.8315597652,
				"z": -3.9762179399,
				"element": "C" 
			},
			{
				"x": 1.9218718824,
				"y": -1.3852399614,
				"z": -3.2100902934,
				"element": "C" 
			},
			{
				"x": 1.8769218592,
				"y": -0.0655031137,
				"z": -2.7309775286,
				"element": "C" 
			},
			{
				"x": -0.5243380752,
				"y": 5.8992558467,
				"z": -0.1107845102,
				"element": "H" 
			},
			{
				"x": 0.8118150843,
				"y": 4.7316116571,
				"z": -0.2514754264,
				"element": "H" 
			},
			{
				"x": -0.5728255391,
				"y": 4.3841915469,
				"z": 0.8240811469,
				"element": "H" 
			},
			{
				"x": -2.4170386585,
				"y": 1.9781613814,
				"z": -0.113363993,
				"element": "H" 
			},
			{
				"x": -1.3682668051,
				"y": -0.0832378987,
				"z": 2.2841690058,
				"element": "H" 
			},
			{
				"x": -2.780303269,
				"y": -1.1720092119,
				"z": 2.1629781789,
				"element": "H" 
			},
			{
				"x": -2.9257320727,
				"y": 0.5075433057,
				"z": 1.6302859977,
				"element": "H" 
			},
			{
				"x": 0.2666795848,
				"y": -4.0546442177,
				"z": 1.0490403259,
				"element": "H" 
			},
			{
				"x": -0.7180249122,
				"y": -6.2489253688,
				"z": 1.6548926776,
				"element": "H" 
			},
			{
				"x": -3.1823799579,
				"y": -6.5831866176,
				"z": 1.5741484031,
				"element": "H" 
			},
			{
				"x": -4.6515411442,
				"y": -4.7045212494,
				"z": 0.8597695925,
				"element": "H" 
			},
			{
				"x": -3.6593452915,
				"y": -2.5234349322,
				"z": 0.2184777181,
				"element": "H" 
			},
			{
				"x": 1.2399333504,
				"y": 3.7642363339,
				"z": -2.5381001924,
				"element": "H" 
			},
			{
				"x": 1.0862557568,
				"y": 2.6642897123,
				"z": -3.8942829891,
				"element": "H" 
			},
			{
				"x": 3.4856218739,
				"y": 2.8865385341,
				"z": -3.2592990121,
				"element": "H" 
			},
			{
				"x": 3.111391591,
				"y": 2.3819203094,
				"z": -1.6111543916,
				"element": "H" 
			},
			{
				"x": 4.7982159464,
				"y": 1.0456178299,
				"z": -4.1026113627,
				"element": "H" 
			},
			{
				"x": 4.8874242051,
				"y": -1.3125098408,
				"z": -4.879285331,
				"element": "H" 
			},
			{
				"x": 3.0091436065,
				"y": -2.8574608523,
				"z": -4.3321355378,
				"element": "H" 
			},
			{
				"x": 1.1217012361,
				"y": -2.0712426339,
				"z": -2.9735046441,
				"element": "H" 
			}
		],
		 "valence_orbital": [ 
			{
				"type": "occ",
				"energy": -0.23881,
				"method": "rhf"
			},
			{
				"type": "occ",
				"energy": -0.2329,
				"method": "rhf"
			},
			{
				"type": "occ",
				"energy": -0.23071,
				"method": "rhf"
			},
			{
				"type": "occ",
				"energy": -0.22484,
				"method": "rhf"
			},
			{
				"type": "occ",
				"energy": -0.20327,
				"method": "rhf"
			},
			{
				"type": "unocc",
				"energy": -0.05768,
				"method": "rhf"
			},
			{
				"type": "unocc",
				"energy": -0.02113,
				"method": "rhf"
			},
			{
				"type": "unocc",
				"energy": -0.00272,
				"method": "rhf"
			},
			{
				"type": "unocc",
				"energy": 0.00071,
				"method": "rhf"
			},
			{
				"type": "unocc",
				"energy": 0.00993,
				"method": "rhf"
			}
		],
		"cosmo_sigma_profile": { 
			"-0.025": 0.0,
			"-0.024": 0.0,
			"-0.023": 0.0,
			"-0.022": 0.0,
			"-0.021": 0.0,
			"-0.02": 0.0,
			"-0.019": 0.0,
			"-0.018": 0.0,
			"-0.017": 0.0,
			"-0.016": 0.0,
			"-0.015": 0.0,
			"-0.014": 0.0,
			"-0.013": 0.0,
			"-0.012": 0.0,
			"-0.011": 0.0,
			"-0.01": 0.0,
			"-0.009": 0.584200170976,
			"-0.008": 2.26157855666,
			"-0.007": 2.73056144446,
			"-0.006": 12.8915629801,
			"-0.005": 28.7028406424,
			"-0.004": 37.7692971969,
			"-0.003": 44.52930003,
			"-0.002": 41.7901842344,
			"-0.001": 34.4359367972,
			"0.0": 28.834783612,
			"0.001": 27.7513662602,
			"0.002": 31.182195749,
			"0.003": 23.0483717665,
			"0.004": 20.9112193493,
			"0.005": 24.0432490338,
			"0.006": 13.2834971582,
			"0.007": 4.97605216129,
			"0.008": 4.59925585937,
			"0.009": 3.36454531689,
			"0.01": 2.11794051543,
			"0.011": 2.33638412602,
			"0.012": 2.57158378271,
			"0.013": 3.09006767983,
			"0.014": 0.206014095248,
			"0.015": 0.0,
			"0.016": 0.0,
			"0.017": 0.0,
			"0.018": 0.0,
			"0.019": 0.0,
			"0.02": 0.0,
			"0.021": 0.0,
			"0.022": 0.0,
			"0.023": 0.0,
			"0.024": 0.0,
			"0.025": 0.0
		}
	}
}
