{
	 "smiles": "O=C(NC1CCCNC1)C1=CC=CC=C1", 
	 "Tm": 404.15, 
	 "num_atms": 31, 
	 "gaussian": { 
		 "optdone": 1, 
		 "sigma_profile": "yes", 
		 "theory": "DFT", 
		 "functional": "B3LYP", 
		 "basiset": "6-31G**", 
		 "properties": { 
			 "R2extent": 4322.9104, 
			 "electric_dipole_moment_norm": 4.47063913328, 
			 "electric_quadrupole_moment_norm": 11.8109297339, 
			 "total_energy": -651.653045516, 
			 "HOMO_LUMO_gap": 0.19539, 
			 "cosmo_polarized_energy": -12.76, 
			 "cosmo_cavitation_energy": 32.75, 
			 "cosmo_dispersion_energy": -23.48, 
			 "cosmo_repulsion_energy": 1.85, 
			 "cosmo_total_nonelectrostatic_energy": 11.13, 
			 "SMD_solvation_energy": 3.63 
		},
		"coords": [
			{
				"x": -1.7331665634,
				"y": -1.3351793097,
				"z": 1.8251515337,
				"element": "O" 
			},
			{
				"x": -1.19353766,
				"y": -0.6779581374,
				"z": 0.9384464858,
				"element": "C" 
			},
			{
				"x": -0.6386966088,
				"y": -1.2911507827,
				"z": -0.1629278106,
				"element": "N" 
			},
			{
				"x": -0.5389108799,
				"y": -0.7721158902,
				"z": -1.5308817533,
				"element": "C" 
			},
			{
				"x": 0.8307548945,
				"y": -1.1712657554,
				"z": -2.1430515694,
				"element": "C" 
			},
			{
				"x": 0.7178340747,
				"y": -1.4334386194,
				"z": -3.6499590461,
				"element": "C" 
			},
			{
				"x": -0.2640232845,
				"y": -2.5925314529,
				"z": -3.9332238031,
				"element": "C" 
			},
			{
				"x": -1.2896468311,
				"y": -2.6540487792,
				"z": -2.8782335398,
				"element": "N" 
			},
			{
				"x": -1.6843198679,
				"y": -1.3276103031,
				"z": -2.412814595,
				"element": "C" 
			},
			{
				"x": -1.0639535797,
				"y": 0.8153638094,
				"z": 1.0678072078,
				"element": "C" 
			},
			{
				"x": -2.104318956,
				"y": 1.5049269038,
				"z": 1.7053931066,
				"element": "C" 
			},
			{
				"x": -2.0198121047,
				"y": 2.8809870519,
				"z": 1.9056943944,
				"element": "C" 
			},
			{
				"x": -0.8808017802,
				"y": 3.5797074184,
				"z": 1.496041282,
				"element": "C" 
			},
			{
				"x": 0.1733904721,
				"y": 2.8953881559,
				"z": 0.8883630171,
				"element": "C" 
			},
			{
				"x": 0.0817702283,
				"y": 1.5196658412,
				"z": 0.671271495,
				"element": "C" 
			},
			{
				"x": -0.7721841082,
				"y": -2.2978537675,
				"z": -0.1284651465,
				"element": "H" 
			},
			{
				"x": -0.6340129006,
				"y": 0.3143118873,
				"z": -1.4837267997,
				"element": "H" 
			},
			{
				"x": 1.1775861483,
				"y": -2.0826356557,
				"z": -1.6442044394,
				"element": "H" 
			},
			{
				"x": 1.5779903109,
				"y": -0.3977680594,
				"z": -1.9342619419,
				"element": "H" 
			},
			{
				"x": 0.3769808345,
				"y": -0.5208848818,
				"z": -4.1541121808,
				"element": "H" 
			},
			{
				"x": 1.6983976398,
				"y": -1.6688675131,
				"z": -4.0761166322,
				"element": "H" 
			},
			{
				"x": -0.6965384961,
				"y": -2.4592376075,
				"z": -4.9400544648,
				"element": "H" 
			},
			{
				"x": 0.275337138,
				"y": -3.5480678276,
				"z": -3.940426527,
				"element": "H" 
			},
			{
				"x": -2.0921399996,
				"y": -3.1896712919,
				"z": -3.191166751,
				"element": "H" 
			},
			{
				"x": -1.8989585616,
				"y": -0.6173403113,
				"z": -3.2331714762,
				"element": "H" 
			},
			{
				"x": -2.5965623579,
				"y": -1.4088422206,
				"z": -1.8144417599,
				"element": "H" 
			},
			{
				"x": -2.9672987832,
				"y": 0.9414661602,
				"z": 2.0446147005,
				"element": "H" 
			},
			{
				"x": -2.8367193171,
				"y": 3.4084799106,
				"z": 2.3898207285,
				"element": "H" 
			},
			{
				"x": -0.8110520552,
				"y": 4.6514099323,
				"z": 1.6596465378,
				"element": "H" 
			},
			{
				"x": 1.0703014806,
				"y": 3.4306096046,
				"z": 0.5897133502,
				"element": "H" 
			},
			{
				"x": 0.913611474,
				"y": 0.9859514906,
				"z": 0.2218763974,
				"element": "H" 
			}
		],
		 "valence_orbital": [ 
			{
				"type": "occ",
				"energy": -0.25756,
				"method": "rhf"
			},
			{
				"type": "occ",
				"energy": -0.25326,
				"method": "rhf"
			},
			{
				"type": "occ",
				"energy": -0.24867,
				"method": "rhf"
			},
			{
				"type": "occ",
				"energy": -0.23148,
				"method": "rhf"
			},
			{
				"type": "occ",
				"energy": -0.22199,
				"method": "rhf"
			},
			{
				"type": "unocc",
				"energy": -0.0266,
				"method": "rhf"
			},
			{
				"type": "unocc",
				"energy": -0.00408,
				"method": "rhf"
			},
			{
				"type": "unocc",
				"energy": 0.0565,
				"method": "rhf"
			},
			{
				"type": "unocc",
				"energy": 0.06742,
				"method": "rhf"
			},
			{
				"type": "unocc",
				"energy": 0.09254,
				"method": "rhf"
			}
		],
		"cosmo_sigma_profile": { 
			"-0.025": 0.0,
			"-0.024": 0.0,
			"-0.023": 0.0,
			"-0.022": 0.0,
			"-0.021": 0.0,
			"-0.02": 0.0,
			"-0.019": 0.0,
			"-0.018": 0.0,
			"-0.017": 0.0,
			"-0.016": 0.0,
			"-0.015": 0.0,
			"-0.014": 0.0,
			"-0.013": 0.0,
			"-0.012": 0.0,
			"-0.011": 0.111051915576,
			"-0.01": 1.76073477356,
			"-0.009": 1.89309084599,
			"-0.008": 1.67716859016,
			"-0.007": 2.19440278809,
			"-0.006": 7.57001183538,
			"-0.005": 13.2661855149,
			"-0.004": 22.2600120271,
			"-0.003": 31.2458795012,
			"-0.002": 34.1725769362,
			"-0.001": 31.1468536234,
			"0.0": 24.0257966102,
			"0.001": 13.4588687418,
			"0.002": 11.6396382926,
			"0.003": 10.8959569703,
			"0.004": 13.3720072219,
			"0.005": 10.3297975734,
			"0.006": 2.51045113241,
			"0.007": 1.6549970021,
			"0.008": 2.13852153162,
			"0.009": 2.66256620652,
			"0.01": 2.23934249799,
			"0.011": 1.20741486318,
			"0.012": 2.31164949956,
			"0.013": 3.76849925307,
			"0.014": 5.69864123862,
			"0.015": 1.52605610812,
			"0.016": 0.0,
			"0.017": 0.0,
			"0.018": 0.0,
			"0.019": 0.0,
			"0.02": 0.0,
			"0.021": 0.0,
			"0.022": 0.0,
			"0.023": 0.0,
			"0.024": 0.0,
			"0.025": 0.0
		}
	}
}
