{
	 "smiles": "CC(=O)NC1=C(C=C(Br)C=C1)[N+]([O-])=O", 
	 "Tm": 378.15, 
	 "num_atms": 21, 
	 "gaussian": { 
		 "optdone": 1, 
		 "sigma_profile": "yes", 
		 "theory": "DFT", 
		 "functional": "B3LYP", 
		 "basiset": "6-31G**", 
		 "properties": { 
			 "R2extent": 7659.2918, 
			 "electric_dipole_moment_norm": 4.9565024372, 
			 "electric_quadrupole_moment_norm": 10.8801841836, 
			 "total_energy": -3215.5586388, 
			 "HOMO_LUMO_gap": 0.13895, 
			 "cosmo_polarized_energy": -13.86, 
			 "cosmo_cavitation_energy": 28.43, 
			 "cosmo_dispersion_energy": -21.2, 
			 "cosmo_repulsion_energy": 1.67, 
			 "cosmo_total_nonelectrostatic_energy": 8.9, 
			 "SMD_solvation_energy": 6.58 
		},
		"coords": [
			{
				"x": 0.933642109,
				"y": -1.7170091418,
				"z": -1.9373462016,
				"element": "C" 
			},
			{
				"x": 0.2796147361,
				"y": -1.5332504172,
				"z": -0.5823109297,
				"element": "C" 
			},
			{
				"x": -0.473264779,
				"y": -2.3700729089,
				"z": -0.1172482768,
				"element": "O" 
			},
			{
				"x": 0.4921004703,
				"y": -0.3602491777,
				"z": 0.1527040211,
				"element": "N" 
			},
			{
				"x": 1.2968778999,
				"y": 0.7484732075,
				"z": -0.0583691231,
				"element": "C" 
			},
			{
				"x": 0.9636817985,
				"y": 2.0290738269,
				"z": 0.4642016388,
				"element": "C" 
			},
			{
				"x": 1.7729599015,
				"y": 3.1500077879,
				"z": 0.2478679998,
				"element": "C" 
			},
			{
				"x": 2.9414830258,
				"y": 3.0263066005,
				"z": -0.4817293033,
				"element": "C" 
			},
			{
				"x": 4.0503339698,
				"y": 4.5451430879,
				"z": -0.7752438177,
				"element": "Br" 
			},
			{
				"x": 3.3171542317,
				"y": 1.778390713,
				"z": -0.9866732937,
				"element": "C" 
			},
			{
				"x": 2.5137363731,
				"y": 0.669342469,
				"z": -0.769630557,
				"element": "C" 
			},
			{
				"x": -0.2416336846,
				"y": 2.2691701361,
				"z": 1.2631106315,
				"element": "N" 
			},
			{
				"x": -0.5855027935,
				"y": 3.43262281,
				"z": 1.4510705097,
				"element": "O" 
			},
			{
				"x": -0.8529706124,
				"y": 1.2949215363,
				"z": 1.726455378,
				"element": "O" 
			},
			{
				"x": 1.0295646965,
				"y": -0.7853250792,
				"z": -2.4993650384,
				"element": "H" 
			},
			{
				"x": 0.3160158756,
				"y": -2.4242716404,
				"z": -2.4916705051,
				"element": "H" 
			},
			{
				"x": 1.9291395623,
				"y": -2.1608975046,
				"z": -1.8281129251,
				"element": "H" 
			},
			{
				"x": -0.1700928441,
				"y": -0.2578323738,
				"z": 0.9177543319,
				"element": "H" 
			},
			{
				"x": 1.4590432187,
				"y": 4.0985223014,
				"z": 0.6616095291,
				"element": "H" 
			},
			{
				"x": 4.2481423375,
				"y": 1.6701408195,
				"z": -1.5315936881,
				"element": "H" 
			},
			{
				"x": 2.8522745072,
				"y": -0.2923070525,
				"z": -1.1280803803,
				"element": "H" 
			}
		],
		 "valence_orbital": [ 
			{
				"type": "occ",
				"energy": -0.30722,
				"method": "rhf"
			},
			{
				"type": "occ",
				"energy": -0.30262,
				"method": "rhf"
			},
			{
				"type": "occ",
				"energy": -0.29957,
				"method": "rhf"
			},
			{
				"type": "occ",
				"energy": -0.27328,
				"method": "rhf"
			},
			{
				"type": "occ",
				"energy": -0.24643,
				"method": "rhf"
			},
			{
				"type": "unocc",
				"energy": -0.10748,
				"method": "rhf"
			},
			{
				"type": "unocc",
				"energy": -0.04812,
				"method": "rhf"
			},
			{
				"type": "unocc",
				"energy": -0.02408,
				"method": "rhf"
			},
			{
				"type": "unocc",
				"energy": -0.01449,
				"method": "rhf"
			},
			{
				"type": "unocc",
				"energy": 0.01092,
				"method": "rhf"
			}
		],
		"cosmo_sigma_profile": { 
			"-0.025": 0.0,
			"-0.024": 0.0,
			"-0.023": 0.0,
			"-0.022": 0.0,
			"-0.021": 0.0,
			"-0.02": 0.0,
			"-0.019": 0.0,
			"-0.018": 0.0,
			"-0.017": 0.0,
			"-0.016": 0.0,
			"-0.015": 0.0,
			"-0.014": 0.0,
			"-0.013": 0.0,
			"-0.012": 0.0,
			"-0.011": 0.177886968065,
			"-0.01": 1.53023986758,
			"-0.009": 3.28971329137,
			"-0.008": 5.98773677347,
			"-0.007": 8.20719753428,
			"-0.006": 12.9224919934,
			"-0.005": 16.2948259784,
			"-0.004": 15.7445150221,
			"-0.003": 17.8628188787,
			"-0.002": 19.4983981512,
			"-0.001": 19.8744116076,
			"0.0": 20.3330390648,
			"0.001": 13.2282361388,
			"0.002": 9.40276245812,
			"0.003": 12.0953309756,
			"0.004": 13.1251053374,
			"0.005": 4.20515787726,
			"0.006": 5.64312760593,
			"0.007": 7.76233011482,
			"0.008": 5.70833911668,
			"0.009": 5.0516893105,
			"0.01": 2.78897183043,
			"0.011": 2.30851414508,
			"0.012": 5.31864052984,
			"0.013": 3.00926717245,
			"0.014": 0.314389633033,
			"0.015": 0.0,
			"0.016": 0.0,
			"0.017": 0.0,
			"0.018": 0.0,
			"0.019": 0.0,
			"0.02": 0.0,
			"0.021": 0.0,
			"0.022": 0.0,
			"0.023": 0.0,
			"0.024": 0.0,
			"0.025": 0.0
		}
	}
}
