{
	 "smiles": "COC(=O)C1=C(Cl)C2=C(S1)C=CC=C2", 
	 "Tm": 354.15, 
	 "num_atms": 21, 
	 "gaussian": { 
		 "optdone": 1, 
		 "sigma_profile": "yes", 
		 "theory": "DFT", 
		 "functional": "B3LYP", 
		 "basiset": "6-31G**", 
		 "properties": { 
			 "R2extent": 5133.4805, 
			 "electric_dipole_moment_norm": 2.6681603119, 
			 "electric_quadrupole_moment_norm": 18.2421726551, 
			 "total_energy": -1394.11575485, 
			 "HOMO_LUMO_gap": 0.16067, 
			 "cosmo_polarized_energy": -8.6, 
			 "cosmo_cavitation_energy": 28.91, 
			 "cosmo_dispersion_energy": -21.95, 
			 "cosmo_repulsion_energy": 1.67, 
			 "cosmo_total_nonelectrostatic_energy": 8.63, 
			 "SMD_solvation_energy": 5.75 
		},
		"coords": [
			{
				"x": -1.0065020604,
				"y": -0.8008667401,
				"z": -4.5089716017,
				"element": "C" 
			},
			{
				"x": -0.7377402932,
				"y": -0.2851626415,
				"z": -3.1958493525,
				"element": "O" 
			},
			{
				"x": -1.7254950875,
				"y": 0.4727622582,
				"z": -2.658972635,
				"element": "C" 
			},
			{
				"x": -2.7711843622,
				"y": 0.7140527944,
				"z": -3.22355261,
				"element": "O" 
			},
			{
				"x": -1.34064513,
				"y": 0.9451098487,
				"z": -1.3153219038,
				"element": "C" 
			},
			{
				"x": -2.0621357104,
				"y": 1.7308310058,
				"z": -0.4529508229,
				"element": "C" 
			},
			{
				"x": -3.644690267,
				"y": 2.3637947933,
				"z": -0.7674165433,
				"element": "Cl" 
			},
			{
				"x": -1.38932579,
				"y": 2.0094759614,
				"z": 0.7888101429,
				"element": "C" 
			},
			{
				"x": -0.1152281284,
				"y": 1.3947623628,
				"z": 0.8294934154,
				"element": "C" 
			},
			{
				"x": 0.2252249389,
				"y": 0.5004646702,
				"z": -0.6365344637,
				"element": "S" 
			},
			{
				"x": 0.7189788693,
				"y": 1.5309761521,
				"z": 1.9458792286,
				"element": "C" 
			},
			{
				"x": 0.2666195242,
				"y": 2.2871758981,
				"z": 3.0195781386,
				"element": "C" 
			},
			{
				"x": -0.9999286464,
				"y": 2.9040426404,
				"z": 2.9907511733,
				"element": "C" 
			},
			{
				"x": -1.8281532347,
				"y": 2.7714247212,
				"z": 1.8877572223,
				"element": "C" 
			},
			{
				"x": -1.1690856555,
				"y": 0.0163409173,
				"z": -5.2161960923,
				"element": "H" 
			},
			{
				"x": -0.1234982648,
				"y": -1.3769768491,
				"z": -4.78362283,
				"element": "H" 
			},
			{
				"x": -1.8942496736,
				"y": -1.4381887688,
				"z": -4.4965734913,
				"element": "H" 
			},
			{
				"x": 1.6952286314,
				"y": 1.0568078649,
				"z": 1.9707325402,
				"element": "H" 
			},
			{
				"x": 0.8992696771,
				"y": 2.4043689744,
				"z": 3.8943112525,
				"element": "H" 
			},
			{
				"x": -1.3281201575,
				"y": 3.4894314446,
				"z": 3.8440382587,
				"element": "H" 
			},
			{
				"x": -2.8046391796,
				"y": 3.2432726919,
				"z": 1.8580109741,
				"element": "H" 
			}
		],
		 "valence_orbital": [ 
			{
				"type": "occ",
				"energy": -0.30663,
				"method": "rhf"
			},
			{
				"type": "occ",
				"energy": -0.28449,
				"method": "rhf"
			},
			{
				"type": "occ",
				"energy": -0.27617,
				"method": "rhf"
			},
			{
				"type": "occ",
				"energy": -0.25109,
				"method": "rhf"
			},
			{
				"type": "occ",
				"energy": -0.22863,
				"method": "rhf"
			},
			{
				"type": "unocc",
				"energy": -0.06796,
				"method": "rhf"
			},
			{
				"type": "unocc",
				"energy": -0.01508,
				"method": "rhf"
			},
			{
				"type": "unocc",
				"energy": 0.00182,
				"method": "rhf"
			},
			{
				"type": "unocc",
				"energy": 0.01099,
				"method": "rhf"
			},
			{
				"type": "unocc",
				"energy": 0.04476,
				"method": "rhf"
			}
		],
		"cosmo_sigma_profile": { 
			"-0.025": 0.0,
			"-0.024": 0.0,
			"-0.023": 0.0,
			"-0.022": 0.0,
			"-0.021": 0.0,
			"-0.02": 0.0,
			"-0.019": 0.0,
			"-0.018": 0.0,
			"-0.017": 0.0,
			"-0.016": 0.0,
			"-0.015": 0.0,
			"-0.014": 0.0,
			"-0.013": 0.0,
			"-0.012": 0.0,
			"-0.011": 0.0,
			"-0.01": 0.0,
			"-0.009": 0.0,
			"-0.008": 1.6938467584,
			"-0.007": 6.5794357815,
			"-0.006": 13.9900929955,
			"-0.005": 16.8691087341,
			"-0.004": 17.2510795933,
			"-0.003": 17.2474428112,
			"-0.002": 14.3180843146,
			"-0.001": 17.642355544,
			"0.0": 24.2888752223,
			"0.001": 21.245110815,
			"0.002": 22.5671183151,
			"0.003": 24.0035192375,
			"0.004": 15.5946023108,
			"0.005": 4.83388821794,
			"0.006": 3.37657807279,
			"0.007": 1.91457396664,
			"0.008": 1.79008280336,
			"0.009": 2.15308499659,
			"0.01": 2.14128567134,
			"0.011": 4.89258033914,
			"0.012": 2.44258756184,
			"0.013": 0.0,
			"0.014": 0.0,
			"0.015": 0.0,
			"0.016": 0.0,
			"0.017": 0.0,
			"0.018": 0.0,
			"0.019": 0.0,
			"0.02": 0.0,
			"0.021": 0.0,
			"0.022": 0.0,
			"0.023": 0.0,
			"0.024": 0.0,
			"0.025": 0.0
		}
	}
}
