{
	 "smiles": "NS(=O)(=O)CCCF", 
	 "Tm": 319.15, 
	 "num_atms": 16, 
	 "gaussian": { 
		 "optdone": 1, 
		 "sigma_profile": "yes", 
		 "theory": "DFT", 
		 "functional": "B3LYP", 
		 "basiset": "6-31G**", 
		 "properties": { 
			 "R2extent": 1273.4948, 
			 "electric_dipole_moment_norm": 2.42288886456, 
			 "electric_quadrupole_moment_norm": 12.892480171, 
			 "total_energy": -822.2997505, 
			 "HOMO_LUMO_gap": 0.34654, 
			 "cosmo_polarized_energy": -14.94, 
			 "cosmo_cavitation_energy": 20.79, 
			 "cosmo_dispersion_energy": -15.88, 
			 "cosmo_repulsion_energy": 1.27, 
			 "cosmo_total_nonelectrostatic_energy": 6.19, 
			 "SMD_solvation_energy": 3.65 
		},
		"coords": [
			{
				"x": 1.7396038027,
				"y": 0.048719001,
				"z": -1.8968551117,
				"element": "N" 
			},
			{
				"x": 1.0977534647,
				"y": -0.3193444609,
				"z": -0.3711546021,
				"element": "S" 
			},
			{
				"x": 0.1240444824,
				"y": -1.4052860879,
				"z": -0.544322661,
				"element": "O" 
			},
			{
				"x": 2.221007774,
				"y": -0.4469796121,
				"z": 0.5651321724,
				"element": "O" 
			},
			{
				"x": 0.2106195548,
				"y": 1.2071224405,
				"z": 0.0298371335,
				"element": "C" 
			},
			{
				"x": -0.429849117,
				"y": 1.15940951,
				"z": 1.4227219329,
				"element": "C" 
			},
			{
				"x": -1.7264945703,
				"y": 0.362761448,
				"z": 1.4688866124,
				"element": "C" 
			},
			{
				"x": -2.6404234462,
				"y": 0.9388601735,
				"z": 0.5836150827,
				"element": "F" 
			},
			{
				"x": 2.753394646,
				"y": -0.0201346713,
				"z": -1.8564443425,
				"element": "H" 
			},
			{
				"x": 1.3558620057,
				"y": -0.5940475194,
				"z": -2.5851058929,
				"element": "H" 
			},
			{
				"x": -0.5449150442,
				"y": 1.3531567009,
				"z": -0.7454943388,
				"element": "H" 
			},
			{
				"x": 0.9583955823,
				"y": 1.9998128798,
				"z": -0.0452278392,
				"element": "H" 
			},
			{
				"x": 0.2817729945,
				"y": 0.7566433971,
				"z": 2.1522951711,
				"element": "H" 
			},
			{
				"x": -0.6452778063,
				"y": 2.1912939331,
				"z": 1.7214231998,
				"element": "H" 
			},
			{
				"x": -2.1586831026,
				"y": 0.3936764768,
				"z": 2.4758577375,
				"element": "H" 
			},
			{
				"x": -1.5731112205,
				"y": -0.6779636091,
				"z": 1.169835746,
				"element": "H" 
			}
		],
		 "valence_orbital": [ 
			{
				"type": "occ",
				"energy": -0.33475,
				"method": "rhf"
			},
			{
				"type": "occ",
				"energy": -0.31879,
				"method": "rhf"
			},
			{
				"type": "occ",
				"energy": -0.31206,
				"method": "rhf"
			},
			{
				"type": "occ",
				"energy": -0.30399,
				"method": "rhf"
			},
			{
				"type": "occ",
				"energy": -0.29476,
				"method": "rhf"
			},
			{
				"type": "unocc",
				"energy": 0.05178,
				"method": "rhf"
			},
			{
				"type": "unocc",
				"energy": 0.06078,
				"method": "rhf"
			},
			{
				"type": "unocc",
				"energy": 0.08412,
				"method": "rhf"
			},
			{
				"type": "unocc",
				"energy": 0.08846,
				"method": "rhf"
			},
			{
				"type": "unocc",
				"energy": 0.09729,
				"method": "rhf"
			}
		],
		"cosmo_sigma_profile": { 
			"-0.025": 0.0,
			"-0.024": 0.0,
			"-0.023": 0.0,
			"-0.022": 0.0,
			"-0.021": 0.0,
			"-0.02": 0.0,
			"-0.019": 0.0,
			"-0.018": 0.0,
			"-0.017": 0.0,
			"-0.016": 0.0,
			"-0.015": 1.00831213609,
			"-0.014": 2.56889953665,
			"-0.013": 1.74767611801,
			"-0.012": 2.69426988515,
			"-0.011": 2.77690014063,
			"-0.01": 1.91565693996,
			"-0.009": 1.43720404052,
			"-0.008": 3.72964421154,
			"-0.007": 4.92377736801,
			"-0.006": 11.9191953469,
			"-0.005": 15.0048023728,
			"-0.004": 14.8444402274,
			"-0.003": 10.5339652497,
			"-0.002": 6.88580969741,
			"-0.001": 5.67128130845,
			"0.0": 4.71100332445,
			"0.001": 4.5539896182,
			"0.002": 4.55232259149,
			"0.003": 5.16630943292,
			"0.004": 4.88410993216,
			"0.005": 5.42492048778,
			"0.006": 9.01765773977,
			"0.007": 7.17776867323,
			"0.008": 3.65976436277,
			"0.009": 4.89214531442,
			"0.01": 5.00875625465,
			"0.011": 10.5543368816,
			"0.012": 5.46005573431,
			"0.013": 0.222749278109,
			"0.014": 0.0,
			"0.015": 0.0,
			"0.016": 0.0,
			"0.017": 0.0,
			"0.018": 0.0,
			"0.019": 0.0,
			"0.02": 0.0,
			"0.021": 0.0,
			"0.022": 0.0,
			"0.023": 0.0,
			"0.024": 0.0,
			"0.025": 0.0
		}
	}
}
