{
	 "smiles": "CCCCCCCCC(=O)CC", 
	 "Tm": 284.15, 
	 "num_atms": 34, 
	 "gaussian": { 
		 "optdone": 1, 
		 "sigma_profile": "yes", 
		 "theory": "DFT", 
		 "functional": "B3LYP", 
		 "basiset": "6-31G**", 
		 "properties": { 
			 "R2extent": 3310.519, 
			 "electric_dipole_moment_norm": 2.56379691278, 
			 "electric_quadrupole_moment_norm": 7.82110409469, 
			 "total_energy": -507.677100691, 
			 "HOMO_LUMO_gap": 0.22738, 
			 "cosmo_polarized_energy": -6.61, 
			 "cosmo_cavitation_energy": 34.02, 
			 "cosmo_dispersion_energy": -22.95, 
			 "cosmo_repulsion_energy": 1.88, 
			 "cosmo_total_nonelectrostatic_energy": 12.95, 
			 "SMD_solvation_energy": 5.43 
		},
		"coords": [
			{
				"x": -0.9910448761,
				"y": 0.7577148276,
				"z": 3.8168711456,
				"element": "C" 
			},
			{
				"x": -0.8788806191,
				"y": -0.6394000726,
				"z": 3.1913907771,
				"element": "C" 
			},
			{
				"x": -0.8525158358,
				"y": -0.6689294709,
				"z": 1.6469046988,
				"element": "C" 
			},
			{
				"x": 0.5360719075,
				"y": -0.5898064881,
				"z": 0.9859919994,
				"element": "C" 
			},
			{
				"x": 1.3133867133,
				"y": 0.7138145073,
				"z": 1.2192857808,
				"element": "C" 
			},
			{
				"x": 2.6299787615,
				"y": 0.8140045072,
				"z": 0.4281765114,
				"element": "C" 
			},
			{
				"x": 2.5261773111,
				"y": 0.8493076069,
				"z": -1.1081687248,
				"element": "C" 
			},
			{
				"x": 1.7615806326,
				"y": 2.067091527,
				"z": -1.6970207055,
				"element": "C" 
			},
			{
				"x": 0.2552267409,
				"y": 1.8605963561,
				"z": -1.8294701188,
				"element": "C" 
			},
			{
				"x": -0.5341577903,
				"y": 2.2938595802,
				"z": -1.0081488789,
				"element": "O" 
			},
			{
				"x": -0.2208224477,
				"y": 1.0971921423,
				"z": -3.0615978489,
				"element": "C" 
			},
			{
				"x": -1.7038796473,
				"y": 0.73638025,
				"z": -3.0276221384,
				"element": "C" 
			},
			{
				"x": -0.1466367301,
				"y": 1.4006138149,
				"z": 3.5536598811,
				"element": "H" 
			},
			{
				"x": -1.0335738578,
				"y": 0.6964049128,
				"z": 4.910015417,
				"element": "H" 
			},
			{
				"x": -1.9028034152,
				"y": 1.2623024983,
				"z": 3.4775488418,
				"element": "H" 
			},
			{
				"x": -1.7343290795,
				"y": -1.2333668969,
				"z": 3.5375446184,
				"element": "H" 
			},
			{
				"x": 0.0126045501,
				"y": -1.1509770007,
				"z": 3.580737693,
				"element": "H" 
			},
			{
				"x": -1.3199481981,
				"y": -1.6030564625,
				"z": 1.3094583561,
				"element": "H" 
			},
			{
				"x": -1.4817959997,
				"y": 0.1415912286,
				"z": 1.2543920162,
				"element": "H" 
			},
			{
				"x": 1.1465613453,
				"y": -1.439375916,
				"z": 1.3269414965,
				"element": "H" 
			},
			{
				"x": 0.3951023985,
				"y": -0.739761507,
				"z": -0.0928467659,
				"element": "H" 
			},
			{
				"x": 0.6717900148,
				"y": 1.5686483113,
				"z": 0.9787021491,
				"element": "H" 
			},
			{
				"x": 1.5621093387,
				"y": 0.8000830145,
				"z": 2.2838853896,
				"element": "H" 
			},
			{
				"x": 3.2772981635,
				"y": -0.031472136,
				"z": 0.7006222271,
				"element": "H" 
			},
			{
				"x": 3.1638461592,
				"y": 1.7176820203,
				"z": 0.7522377807,
				"element": "H" 
			},
			{
				"x": 3.546590124,
				"y": 0.8702268765,
				"z": -1.5083649452,
				"element": "H" 
			},
			{
				"x": 2.0849099148,
				"y": -0.0825932572,
				"z": -1.4833056774,
				"element": "H" 
			},
			{
				"x": 2.1621304184,
				"y": 2.2798194076,
				"z": -2.6960098815,
				"element": "H" 
			},
			{
				"x": 1.9275558577,
				"y": 2.9513497691,
				"z": -1.0733825879,
				"element": "H" 
			},
			{
				"x": 0.4085266995,
				"y": 0.2059878785,
				"z": -3.189534868,
				"element": "H" 
			},
			{
				"x": 0.0079123082,
				"y": 1.7299573491,
				"z": -3.9325084309,
				"element": "H" 
			},
			{
				"x": -1.92540604,
				"y": 0.0681449278,
				"z": -2.1904613323,
				"element": "H" 
			},
			{
				"x": -2.0042795607,
				"y": 0.2377846303,
				"z": -3.9538931732,
				"element": "H" 
			},
			{
				"x": -2.3165852621,
				"y": 1.6316812637,
				"z": -2.8977307019,
				"element": "H" 
			}
		],
		 "valence_orbital": [ 
			{
				"type": "occ",
				"energy": -0.31861,
				"method": "rhf"
			},
			{
				"type": "occ",
				"energy": -0.30561,
				"method": "rhf"
			},
			{
				"type": "occ",
				"energy": -0.29755,
				"method": "rhf"
			},
			{
				"type": "occ",
				"energy": -0.29648,
				"method": "rhf"
			},
			{
				"type": "occ",
				"energy": -0.24093,
				"method": "rhf"
			},
			{
				"type": "unocc",
				"energy": -0.01355,
				"method": "rhf"
			},
			{
				"type": "unocc",
				"energy": 0.06927,
				"method": "rhf"
			},
			{
				"type": "unocc",
				"energy": 0.09654,
				"method": "rhf"
			},
			{
				"type": "unocc",
				"energy": 0.10292,
				"method": "rhf"
			},
			{
				"type": "unocc",
				"energy": 0.11813,
				"method": "rhf"
			}
		],
		"cosmo_sigma_profile": { 
			"-0.025": 0.0,
			"-0.024": 0.0,
			"-0.023": 0.0,
			"-0.022": 0.0,
			"-0.021": 0.0,
			"-0.02": 0.0,
			"-0.019": 0.0,
			"-0.018": 0.0,
			"-0.017": 0.0,
			"-0.016": 0.0,
			"-0.015": 0.0,
			"-0.014": 0.0,
			"-0.013": 0.0,
			"-0.012": 0.0,
			"-0.011": 0.0,
			"-0.01": 0.0,
			"-0.009": 0.0,
			"-0.008": 0.0,
			"-0.007": 0.0,
			"-0.006": 1.77427814716,
			"-0.005": 8.64739344745,
			"-0.004": 11.4796430072,
			"-0.003": 18.6222459162,
			"-0.002": 37.6481925364,
			"-0.001": 48.1781717776,
			"0.0": 48.1413144943,
			"0.001": 41.2634629595,
			"0.002": 19.0422320035,
			"0.003": 3.82741928947,
			"0.004": 3.17972767048,
			"0.005": 2.67089288328,
			"0.006": 2.72425384693,
			"0.007": 1.64181957074,
			"0.008": 1.91423074637,
			"0.009": 1.58654143269,
			"0.01": 2.12594770566,
			"0.011": 1.71760648417,
			"0.012": 3.16251289107,
			"0.013": 2.09377567211,
			"0.014": 0.0307580036775,
			"0.015": 0.0,
			"0.016": 0.0,
			"0.017": 0.0,
			"0.018": 0.0,
			"0.019": 0.0,
			"0.02": 0.0,
			"0.021": 0.0,
			"0.022": 0.0,
			"0.023": 0.0,
			"0.024": 0.0,
			"0.025": 0.0
		}
	}
}
