{
	 "smiles": "OC(=O)CC1=CC=C(NC(=O)C2CCCC2)C=C1", 
	 "Tm": 447.15, 
	 "num_atms": 35, 
	 "gaussian": { 
		 "optdone": 1, 
		 "sigma_profile": "yes", 
		 "theory": "DFT", 
		 "functional": "B3LYP", 
		 "basiset": "6-31G**", 
		 "properties": { 
			 "R2extent": 5938.5636, 
			 "electric_dipole_moment_norm": 5.28414660186, 
			 "electric_quadrupole_moment_norm": 37.7909664309, 
			 "total_energy": -824.179647253, 
			 "HOMO_LUMO_gap": 0.20758, 
			 "cosmo_polarized_energy": -23.41, 
			 "cosmo_cavitation_energy": 37.2, 
			 "cosmo_dispersion_energy": -25.73, 
			 "cosmo_repulsion_energy": 2.02, 
			 "cosmo_total_nonelectrostatic_energy": 13.49, 
			 "SMD_solvation_energy": 7.36 
		},
		"coords": [
			{
				"x": -0.5926646842,
				"y": 4.9034308298,
				"z": -3.4403718716,
				"element": "O" 
			},
			{
				"x": -0.7223192044,
				"y": 3.8466646522,
				"z": -2.5929337242,
				"element": "C" 
			},
			{
				"x": -0.8844364053,
				"y": 2.7382747894,
				"z": -3.0315142041,
				"element": "O" 
			},
			{
				"x": -0.6909983922,
				"y": 4.217336546,
				"z": -1.1046939346,
				"element": "C" 
			},
			{
				"x": -0.5519891344,
				"y": 3.0435135199,
				"z": -0.1657948022,
				"element": "C" 
			},
			{
				"x": 0.5356571816,
				"y": 2.9549101541,
				"z": 0.7091367766,
				"element": "C" 
			},
			{
				"x": 0.67264921,
				"y": 1.8744892525,
				"z": 1.578742332,
				"element": "C" 
			},
			{
				"x": -0.2878821546,
				"y": 0.8546231365,
				"z": 1.6006065013,
				"element": "C" 
			},
			{
				"x": -0.1480098917,
				"y": -0.1986377001,
				"z": 2.5418655202,
				"element": "N" 
			},
			{
				"x": -0.085626569,
				"y": -1.5852677344,
				"z": 2.4469013139,
				"element": "C" 
			},
			{
				"x": 0.0348309271,
				"y": -2.2196703566,
				"z": 3.4885197517,
				"element": "O" 
			},
			{
				"x": -0.1314577773,
				"y": -2.3157192613,
				"z": 1.1067221957,
				"element": "C" 
			},
			{
				"x": -1.5649747669,
				"y": -2.5329420949,
				"z": 0.5040056615,
				"element": "C" 
			},
			{
				"x": -1.4177006744,
				"y": -2.2970382509,
				"z": -1.0203262227,
				"element": "C" 
			},
			{
				"x": 0.089918176,
				"y": -2.4352021135,
				"z": -1.2981430588,
				"element": "C" 
			},
			{
				"x": 0.7363476174,
				"y": -1.7873325271,
				"z": -0.0623222677,
				"element": "C" 
			},
			{
				"x": -1.3968376045,
				"y": 0.9559084263,
				"z": 0.7492061867,
				"element": "C" 
			},
			{
				"x": -1.5149560642,
				"y": 2.0268415452,
				"z": -0.1326821822,
				"element": "C" 
			},
			{
				"x": -0.4621157416,
				"y": 5.7237353762,
				"z": -2.9439020963,
				"element": "H" 
			},
			{
				"x": 0.1215358791,
				"y": 4.9341502726,
				"z": -0.9332949256,
				"element": "H" 
			},
			{
				"x": -1.6245329224,
				"y": 4.7646129963,
				"z": -0.9049779772,
				"element": "H" 
			},
			{
				"x": 1.2948569828,
				"y": 3.7332579191,
				"z": 0.7063212369,
				"element": "H" 
			},
			{
				"x": 1.5335414778,
				"y": 1.8083717311,
				"z": 2.2377167973,
				"element": "H" 
			},
			{
				"x": 0.0371054113,
				"y": 0.0843503215,
				"z": 3.4972100973,
				"element": "H" 
			},
			{
				"x": 0.2523379008,
				"y": -3.3014558666,
				"z": 1.3818648379,
				"element": "H" 
			},
			{
				"x": -2.3143137524,
				"y": -1.8748541019,
				"z": 0.9529828906,
				"element": "H" 
			},
			{
				"x": -1.89368267,
				"y": -3.5540454703,
				"z": 0.7178554889,
				"element": "H" 
			},
			{
				"x": -2.0283311898,
				"y": -2.9875720939,
				"z": -1.6101821611,
				"element": "H" 
			},
			{
				"x": -1.7379617722,
				"y": -1.2812839837,
				"z": -1.2783957825,
				"element": "H" 
			},
			{
				"x": 0.3961266631,
				"y": -1.9632397744,
				"z": -2.2367301995,
				"element": "H" 
			},
			{
				"x": 0.3695299472,
				"y": -3.4952843335,
				"z": -1.355165084,
				"element": "H" 
			},
			{
				"x": 1.7906827114,
				"y": -2.0523968616,
				"z": 0.065667884,
				"element": "H" 
			},
			{
				"x": 0.680020382,
				"y": -0.6997912973,
				"z": -0.1504617264,
				"element": "H" 
			},
			{
				"x": -2.1741797411,
				"y": 0.2027877639,
				"z": 0.7910473172,
				"element": "H" 
			},
			{
				"x": -2.3704693551,
				"y": 2.0753745894,
				"z": -0.7983805691,
				"element": "H" 
			}
		],
		 "valence_orbital": [ 
			{
				"type": "occ",
				"energy": -0.28558,
				"method": "rhf"
			},
			{
				"type": "occ",
				"energy": -0.27906,
				"method": "rhf"
			},
			{
				"type": "occ",
				"energy": -0.26245,
				"method": "rhf"
			},
			{
				"type": "occ",
				"energy": -0.24166,
				"method": "rhf"
			},
			{
				"type": "occ",
				"energy": -0.22989,
				"method": "rhf"
			},
			{
				"type": "unocc",
				"energy": -0.02231,
				"method": "rhf"
			},
			{
				"type": "unocc",
				"energy": -0.01519,
				"method": "rhf"
			},
			{
				"type": "unocc",
				"energy": 0.00283,
				"method": "rhf"
			},
			{
				"type": "unocc",
				"energy": 0.03022,
				"method": "rhf"
			},
			{
				"type": "unocc",
				"energy": 0.04619,
				"method": "rhf"
			}
		],
		"cosmo_sigma_profile": { 
			"-0.025": 0.0,
			"-0.024": 0.0,
			"-0.023": 0.0,
			"-0.022": 0.0,
			"-0.021": 0.0,
			"-0.02": 0.0402312933788,
			"-0.019": 0.674299870582,
			"-0.018": 1.27148286753,
			"-0.017": 1.09949148852,
			"-0.016": 1.12652752792,
			"-0.015": 1.32970337866,
			"-0.014": 0.979340286397,
			"-0.013": 1.95510734957,
			"-0.012": 2.42923065129,
			"-0.011": 1.97284771101,
			"-0.01": 2.01360175429,
			"-0.009": 3.13459420349,
			"-0.008": 5.29978159461,
			"-0.007": 8.69891507637,
			"-0.006": 12.1412115599,
			"-0.005": 13.5108979599,
			"-0.004": 13.088645975,
			"-0.003": 23.2104524135,
			"-0.002": 26.8666936391,
			"-0.001": 27.1443086081,
			"0.0": 28.543002494,
			"0.001": 26.0100941106,
			"0.002": 12.6458415721,
			"0.003": 11.1230873745,
			"0.004": 9.10223645096,
			"0.005": 7.3135811649,
			"0.006": 4.17383575132,
			"0.007": 3.78694814081,
			"0.008": 5.0249654801,
			"0.009": 4.38482779559,
			"0.01": 6.09394402026,
			"0.011": 7.52390926506,
			"0.012": 6.70388320427,
			"0.013": 5.29472011071,
			"0.014": 5.29839355483,
			"0.015": 1.30377165444,
			"0.016": 0.00625796257491,
			"0.017": 0.0,
			"0.018": 0.0,
			"0.019": 0.0,
			"0.02": 0.0,
			"0.021": 0.0,
			"0.022": 0.0,
			"0.023": 0.0,
			"0.024": 0.0,
			"0.025": 0.0
		}
	}
}
