{
	 "smiles": "NC1=CC2=C(NC3=C2CCCC3)C=C1", 
	 "Tm": 448.15, 
	 "num_atms": 28, 
	 "gaussian": { 
		 "optdone": 1, 
		 "sigma_profile": "yes", 
		 "theory": "DFT", 
		 "functional": "B3LYP", 
		 "basiset": "6-31G**", 
		 "properties": { 
			 "R2extent": 3405.5965, 
			 "electric_dipole_moment_norm": 1.78556509262, 
			 "electric_quadrupole_moment_norm": 11.893591828, 
			 "total_energy": -575.242005396, 
			 "HOMO_LUMO_gap": 0.178, 
			 "cosmo_polarized_energy": -11.93, 
			 "cosmo_cavitation_energy": 29.5, 
			 "cosmo_dispersion_energy": -22.31, 
			 "cosmo_repulsion_energy": 1.76, 
			 "cosmo_total_nonelectrostatic_energy": 8.96, 
			 "SMD_solvation_energy": 3.56 
		},
		"coords": [
			{
				"x": 3.6113337751,
				"y": -3.3518506989,
				"z": 1.24581326,
				"element": "N" 
			},
			{
				"x": 2.6160295526,
				"y": -2.5893777089,
				"z": 0.5998892903,
				"element": "C" 
			},
			{
				"x": 2.1638761875,
				"y": -1.3884854719,
				"z": 1.1509597839,
				"element": "C" 
			},
			{
				"x": 1.1241541118,
				"y": -0.6839877557,
				"z": 0.521304899,
				"element": "C" 
			},
			{
				"x": 0.5541912447,
				"y": -1.2042368739,
				"z": -0.6729364891,
				"element": "C" 
			},
			{
				"x": -0.4328622895,
				"y": -0.3197493291,
				"z": -1.0818542463,
				"element": "N" 
			},
			{
				"x": -0.4970951889,
				"y": 0.731100773,
				"z": -0.1843069258,
				"element": "C" 
			},
			{
				"x": 0.4342140362,
				"y": 0.5461409924,
				"z": 0.8106816984,
				"element": "C" 
			},
			{
				"x": 0.6161017107,
				"y": 1.5158711552,
				"z": 1.9442912094,
				"element": "C" 
			},
			{
				"x": -0.59021412,
				"y": 2.4722577293,
				"z": 2.0352551107,
				"element": "C" 
			},
			{
				"x": -1.0009509674,
				"y": 3.0111760436,
				"z": 0.6540988888,
				"element": "C" 
			},
			{
				"x": -1.4540059156,
				"y": 1.8777230124,
				"z": -0.2889153834,
				"element": "C" 
			},
			{
				"x": 1.0010848391,
				"y": -2.4013208872,
				"z": -1.2334253358,
				"element": "C" 
			},
			{
				"x": 2.0274613089,
				"y": -3.0836263651,
				"z": -0.5898612,
				"element": "C" 
			},
			{
				"x": 4.1710722249,
				"y": -3.9067087434,
				"z": 0.61052356,
				"element": "H" 
			},
			{
				"x": 4.2111581111,
				"y": -2.8020691147,
				"z": 1.8479906492,
				"element": "H" 
			},
			{
				"x": 2.6140413275,
				"y": -1.0072597987,
				"z": 2.064806209,
				"element": "H" 
			},
			{
				"x": -1.0099229182,
				"y": -0.4233198385,
				"z": -1.9000358041,
				"element": "H" 
			},
			{
				"x": 1.5391619916,
				"y": 2.1002611685,
				"z": 1.8075410831,
				"element": "H" 
			},
			{
				"x": 0.7390770948,
				"y": 0.9824069231,
				"z": 2.8960755469,
				"element": "H" 
			},
			{
				"x": -0.3583897993,
				"y": 3.3056202297,
				"z": 2.7083488148,
				"element": "H" 
			},
			{
				"x": -1.4420120063,
				"y": 1.9374547216,
				"z": 2.4765396102,
				"element": "H" 
			},
			{
				"x": -0.1467519487,
				"y": 3.5327260069,
				"z": 0.202951095,
				"element": "H" 
			},
			{
				"x": -1.8047621501,
				"y": 3.7488754026,
				"z": 0.756070796,
				"element": "H" 
			},
			{
				"x": -1.5163114478,
				"y": 2.2455261238,
				"z": -1.3223157288,
				"element": "H" 
			},
			{
				"x": -2.4704409954,
				"y": 1.5524717851,
				"z": -0.0187033286,
				"element": "H" 
			},
			{
				"x": 0.5658748994,
				"y": -2.797594043,
				"z": -2.1470665552,
				"element": "H" 
			},
			{
				"x": 2.3847873315,
				"y": -4.0243254381,
				"z": -1.0013205075,
				"element": "H" 
			}
		],
		 "valence_orbital": [ 
			{
				"type": "occ",
				"energy": -0.30686,
				"method": "rhf"
			},
			{
				"type": "occ",
				"energy": -0.26877,
				"method": "rhf"
			},
			{
				"type": "occ",
				"energy": -0.25265,
				"method": "rhf"
			},
			{
				"type": "occ",
				"energy": -0.18414,
				"method": "rhf"
			},
			{
				"type": "occ",
				"energy": -0.17286,
				"method": "rhf"
			},
			{
				"type": "unocc",
				"energy": 0.00514,
				"method": "rhf"
			},
			{
				"type": "unocc",
				"energy": 0.05094,
				"method": "rhf"
			},
			{
				"type": "unocc",
				"energy": 0.078,
				"method": "rhf"
			},
			{
				"type": "unocc",
				"energy": 0.08978,
				"method": "rhf"
			},
			{
				"type": "unocc",
				"energy": 0.09763,
				"method": "rhf"
			}
		],
		"cosmo_sigma_profile": { 
			"-0.025": 0.0,
			"-0.024": 0.0,
			"-0.023": 0.0,
			"-0.022": 0.0,
			"-0.021": 0.0,
			"-0.02": 0.0,
			"-0.019": 0.0,
			"-0.018": 0.0,
			"-0.017": 0.0,
			"-0.016": 0.0,
			"-0.015": 0.273873201791,
			"-0.014": 1.3671117125,
			"-0.013": 1.18836924229,
			"-0.012": 1.33793104573,
			"-0.011": 3.17825219273,
			"-0.01": 3.46703988488,
			"-0.009": 4.13836549029,
			"-0.008": 5.31749086088,
			"-0.007": 4.12575438733,
			"-0.006": 4.61995245128,
			"-0.005": 7.78534089998,
			"-0.004": 9.24269663314,
			"-0.003": 15.5834498868,
			"-0.002": 25.9818787706,
			"-0.001": 27.9931819059,
			"0.0": 25.231505923,
			"0.001": 18.1976423067,
			"0.002": 7.92063387028,
			"0.003": 6.07713922472,
			"0.004": 7.46085911558,
			"0.005": 8.0496494811,
			"0.006": 11.4535818589,
			"0.007": 12.7634597732,
			"0.008": 10.7050678005,
			"0.009": 2.69335965429,
			"0.01": 0.347806771657,
			"0.011": 0.737633321921,
			"0.012": 1.06189302201,
			"0.013": 0.794425341744,
			"0.014": 0.700236357533,
			"0.015": 0.448441781371,
			"0.016": 0.722752273106,
			"0.017": 0.399400676298,
			"0.018": 0.0,
			"0.019": 0.0,
			"0.02": 0.0,
			"0.021": 0.0,
			"0.022": 0.0,
			"0.023": 0.0,
			"0.024": 0.0,
			"0.025": 0.0
		}
	}
}
