{
	 "smiles": "OC(=O)C1=C(C2CC2)N(N=C1)C1=CC(=CC=C1)C(F)(F)F", 
	 "Tm": 446.15, 
	 "num_atms": 32, 
	 "gaussian": { 
		 "optdone": 1, 
		 "sigma_profile": "yes", 
		 "theory": "DFT", 
		 "functional": "B3LYP", 
		 "basiset": "6-31G**", 
		 "properties": { 
			 "R2extent": 8448.742, 
			 "electric_dipole_moment_norm": 5.07905983623, 
			 "electric_quadrupole_moment_norm": 16.058740468, 
			 "total_energy": -1099.56449833, 
			 "HOMO_LUMO_gap": 0.19936, 
			 "cosmo_polarized_energy": -14.35, 
			 "cosmo_cavitation_energy": 38.03, 
			 "cosmo_dispersion_energy": -25.97, 
			 "cosmo_repulsion_energy": 1.93, 
			 "cosmo_total_nonelectrostatic_energy": 14.0, 
			 "SMD_solvation_energy": 7.69 
		},
		"coords": [
			{
				"x": -0.1205129652,
				"y": -2.7419267396,
				"z": -4.6564753446,
				"element": "O" 
			},
			{
				"x": -0.5496533807,
				"y": -3.6395596702,
				"z": -3.7303460052,
				"element": "C" 
			},
			{
				"x": -0.9923784554,
				"y": -4.7276958334,
				"z": -4.0486484899,
				"element": "O" 
			},
			{
				"x": -0.4085411005,
				"y": -3.1848475918,
				"z": -2.3454875503,
				"element": "C" 
			},
			{
				"x": -0.001494273,
				"y": -1.9595111605,
				"z": -1.8095809248,
				"element": "C" 
			},
			{
				"x": 0.3455990259,
				"y": -0.6792901911,
				"z": -2.4770953259,
				"element": "C" 
			},
			{
				"x": -0.3145299197,
				"y": 0.6246579938,
				"z": -2.0695304349,
				"element": "C" 
			},
			{
				"x": -0.6538621433,
				"y": -0.0057593217,
				"z": -3.3900015158,
				"element": "C" 
			},
			{
				"x": -0.0246164028,
				"y": -2.138460909,
				"z": -0.4481868862,
				"element": "N" 
			},
			{
				"x": -0.4488780314,
				"y": -3.3894246474,
				"z": -0.0858602512,
				"element": "N" 
			},
			{
				"x": -0.675798163,
				"y": -4.0123091236,
				"z": -1.2265965425,
				"element": "C" 
			},
			{
				"x": 0.3267497042,
				"y": -1.2347514317,
				"z": 0.5945718388,
				"element": "C" 
			},
			{
				"x": -0.4540047362,
				"y": -1.2199187002,
				"z": 1.7538096506,
				"element": "C" 
			},
			{
				"x": -0.1104061319,
				"y": -0.364148557,
				"z": 2.7985935519,
				"element": "C" 
			},
			{
				"x": 1.0009818155,
				"y": 0.4779789213,
				"z": 2.695673226,
				"element": "C" 
			},
			{
				"x": 1.7776676899,
				"y": 0.447040252,
				"z": 1.5395786734,
				"element": "C" 
			},
			{
				"x": 1.4522883525,
				"y": -0.4125679199,
				"z": 0.4902642067,
				"element": "C" 
			},
			{
				"x": -0.9834796675,
				"y": -0.2977581429,
				"z": 4.0248436232,
				"element": "C" 
			},
			{
				"x": -1.9176490606,
				"y": 0.6754955144,
				"z": 3.9123469828,
				"element": "F" 
			},
			{
				"x": -1.6422659106,
				"y": -1.4548242169,
				"z": 4.2406001679,
				"element": "F" 
			},
			{
				"x": -0.2634136316,
				"y": -0.02204511,
				"z": 5.1345948909,
				"element": "F" 
			},
			{
				"x": -0.2681857239,
				"y": -3.1733831312,
				"z": -5.5147887301,
				"element": "H" 
			},
			{
				"x": 1.3821579021,
				"y": -0.607908848,
				"z": -2.8024760377,
				"element": "H" 
			},
			{
				"x": 0.3029467124,
				"y": 1.5172576688,
				"z": -2.0546713219,
				"element": "H" 
			},
			{
				"x": -1.0626404111,
				"y": 0.5898445847,
				"z": -1.2841257622,
				"element": "H" 
			},
			{
				"x": -1.6272942857,
				"y": -0.4724165948,
				"z": -3.4955706905,
				"element": "H" 
			},
			{
				"x": -0.2706634446,
				"y": 0.4404754942,
				"z": -4.3015146013,
				"element": "H" 
			},
			{
				"x": -1.0171209745,
				"y": -5.0379714862,
				"z": -1.2399327451,
				"element": "H" 
			},
			{
				"x": -1.3025555105,
				"y": -1.887314512,
				"z": 1.8333067412,
				"element": "H" 
			},
			{
				"x": 1.2604878153,
				"y": 1.1347455319,
				"z": 3.5185039651,
				"element": "H" 
			},
			{
				"x": 2.6544708293,
				"y": 1.0816892857,
				"z": 1.4588859841,
				"element": "H" 
			},
			{
				"x": 2.0776944765,
				"y": -0.4581914077,
				"z": -0.3928843423,
				"element": "H" 
			}
		],
		 "valence_orbital": [ 
			{
				"type": "occ",
				"energy": -0.29351,
				"method": "rhf"
			},
			{
				"type": "occ",
				"energy": -0.27948,
				"method": "rhf"
			},
			{
				"type": "occ",
				"energy": -0.27563,
				"method": "rhf"
			},
			{
				"type": "occ",
				"energy": -0.25789,
				"method": "rhf"
			},
			{
				"type": "occ",
				"energy": -0.2487,
				"method": "rhf"
			},
			{
				"type": "unocc",
				"energy": -0.04934,
				"method": "rhf"
			},
			{
				"type": "unocc",
				"energy": -0.03591,
				"method": "rhf"
			},
			{
				"type": "unocc",
				"energy": -0.01573,
				"method": "rhf"
			},
			{
				"type": "unocc",
				"energy": 0.01501,
				"method": "rhf"
			},
			{
				"type": "unocc",
				"energy": 0.07084,
				"method": "rhf"
			}
		],
		"cosmo_sigma_profile": { 
			"-0.025": 0.0,
			"-0.024": 0.0,
			"-0.023": 0.0,
			"-0.022": 0.0,
			"-0.021": 0.0,
			"-0.02": 0.0,
			"-0.019": 0.0,
			"-0.018": 0.524845070822,
			"-0.017": 0.921182272862,
			"-0.016": 0.463568097347,
			"-0.015": 1.4421109863,
			"-0.014": 0.433243488969,
			"-0.013": 0.372332424127,
			"-0.012": 0.43888480167,
			"-0.011": 1.24701872045,
			"-0.01": 0.739426200166,
			"-0.009": 0.588743440035,
			"-0.008": 3.5449340653,
			"-0.007": 9.88600601777,
			"-0.006": 13.1419084217,
			"-0.005": 18.9923595833,
			"-0.004": 19.8650204737,
			"-0.003": 17.0162144905,
			"-0.002": 19.1698771161,
			"-0.001": 22.2811548068,
			"0.0": 26.0784101743,
			"0.001": 28.1660851128,
			"0.002": 38.6916004656,
			"0.003": 36.4939700312,
			"0.004": 7.85213166457,
			"0.005": 4.59081783966,
			"0.006": 5.0768831095,
			"0.007": 3.73952859063,
			"0.008": 4.23117052978,
			"0.009": 3.05113771803,
			"0.01": 3.22905041629,
			"0.011": 3.20784651013,
			"0.012": 6.7178271204,
			"0.013": 1.64783941496,
			"0.014": 0.28929585318,
			"0.015": 0.0,
			"0.016": 0.0,
			"0.017": 0.0,
			"0.018": 0.0,
			"0.019": 0.0,
			"0.02": 0.0,
			"0.021": 0.0,
			"0.022": 0.0,
			"0.023": 0.0,
			"0.024": 0.0,
			"0.025": 0.0
		}
	}
}
