{
	 "smiles": "CC1=CC(I)=CC=C1N", 
	 "Tm": 359.15, 
	 "num_atms": 17, 
	 "gaussian": { 
		 "optdone": 1, 
		 "sigma_profile": "yes", 
		 "theory": "DFT", 
		 "functional": "B3LYP", 
		 "basiset": "6-31G**", 
		 "properties": { 
			 "R2extent": 1823.5756, 
			 "electric_dipole_moment_norm": 3.82464684121, 
			 "electric_quadrupole_moment_norm": 8.17432272669, 
			 "total_energy": -337.714046043, 
			 "HOMO_LUMO_gap": 0.17431, 
			 "cosmo_polarized_energy": -8.69, 
			 "cosmo_cavitation_energy": 23.41, 
			 "cosmo_dispersion_energy": -18.88, 
			 "cosmo_repulsion_energy": 1.51, 
			 "cosmo_total_nonelectrostatic_energy": 6.04, 
			 "SMD_solvation_energy": 3.04 
		},
		"coords": [
			{
				"x": 2.0944675669,
				"y": 0.9945309527,
				"z": 1.8492127819,
				"element": "C" 
			},
			{
				"x": 1.7090722372,
				"y": 0.2758309677,
				"z": 0.5800363232,
				"element": "C" 
			},
			{
				"x": 2.5877726739,
				"y": -0.6244512738,
				"z": -0.0273746791,
				"element": "C" 
			},
			{
				"x": 2.2299501773,
				"y": -1.3036435287,
				"z": -1.1927799516,
				"element": "C" 
			},
			{
				"x": 3.5974212542,
				"y": -2.6621940613,
				"z": -2.082501022,
				"element": "I" 
			},
			{
				"x": 0.9802790433,
				"y": -1.093409432,
				"z": -1.7729990857,
				"element": "C" 
			},
			{
				"x": 0.0980798769,
				"y": -0.1939351618,
				"z": -1.1793818914,
				"element": "C" 
			},
			{
				"x": 0.44188278,
				"y": 0.4980538138,
				"z": -0.0077560952,
				"element": "C" 
			},
			{
				"x": -0.4783221345,
				"y": 1.3498136589,
				"z": 0.6056096267,
				"element": "N" 
			},
			{
				"x": 3.0771473277,
				"y": 0.6724272296,
				"z": 2.2016779582,
				"element": "H" 
			},
			{
				"x": 1.3693160079,
				"y": 0.806175316,
				"z": 2.650559776,
				"element": "H" 
			},
			{
				"x": 2.1427337756,
				"y": 2.0836668015,
				"z": 1.7067117845,
				"element": "H" 
			},
			{
				"x": 3.5601325189,
				"y": -0.7924257668,
				"z": 0.4242729378,
				"element": "H" 
			},
			{
				"x": 0.6914189273,
				"y": -1.6155698707,
				"z": -2.6782428193,
				"element": "H" 
			},
			{
				"x": -0.8771896127,
				"y": -0.0273457437,
				"z": -1.6307223368,
				"element": "H" 
			},
			{
				"x": -1.2316026436,
				"y": 1.6642741005,
				"z": 0.0097644333,
				"element": "H" 
			},
			{
				"x": -0.0846597762,
				"y": 2.1070019981,
				"z": 1.1462122596,
				"element": "H" 
			}
		],
		 "valence_orbital": [ 
			{
				"type": "occ",
				"energy": -0.32699,
				"method": "rhf"
			},
			{
				"type": "occ",
				"energy": -0.26231,
				"method": "rhf"
			},
			{
				"type": "occ",
				"energy": -0.25856,
				"method": "rhf"
			},
			{
				"type": "occ",
				"energy": -0.24958,
				"method": "rhf"
			},
			{
				"type": "occ",
				"energy": -0.20244,
				"method": "rhf"
			},
			{
				"type": "unocc",
				"energy": -0.02813,
				"method": "rhf"
			},
			{
				"type": "unocc",
				"energy": -0.00378,
				"method": "rhf"
			},
			{
				"type": "unocc",
				"energy": 0.00463,
				"method": "rhf"
			},
			{
				"type": "unocc",
				"energy": 0.04779,
				"method": "rhf"
			},
			{
				"type": "unocc",
				"energy": 0.05681,
				"method": "rhf"
			}
		],
		"cosmo_sigma_profile": { 
			"-0.025": 0.0,
			"-0.024": 0.0,
			"-0.023": 0.0,
			"-0.022": 0.0,
			"-0.021": 0.0,
			"-0.02": 0.0,
			"-0.019": 0.0,
			"-0.018": 0.0,
			"-0.017": 0.0,
			"-0.016": 0.0,
			"-0.015": 0.0,
			"-0.014": 0.0,
			"-0.013": 0.216285356275,
			"-0.012": 1.88676717964,
			"-0.011": 2.7056699675,
			"-0.01": 3.09057025582,
			"-0.009": 3.05901554323,
			"-0.008": 3.34652436712,
			"-0.007": 3.20435167637,
			"-0.006": 7.32849725704,
			"-0.005": 10.4132075293,
			"-0.004": 12.6082517238,
			"-0.003": 11.9690691548,
			"-0.002": 11.5829130105,
			"-0.001": 13.2954717656,
			"0.0": 13.6894523483,
			"0.001": 10.7371383191,
			"0.002": 10.6062254015,
			"0.003": 14.4763024818,
			"0.004": 18.5927505984,
			"0.005": 23.507560226,
			"0.006": 9.46095329059,
			"0.007": 0.780490364828,
			"0.008": 0.45805553592,
			"0.009": 0.477053758087,
			"0.01": 0.779024640373,
			"0.011": 0.906829673837,
			"0.012": 0.482924324174,
			"0.013": 0.660231435204,
			"0.014": 0.404717495348,
			"0.015": 0.0813562184962,
			"0.016": 0.0,
			"0.017": 0.0,
			"0.018": 0.0,
			"0.019": 0.0,
			"0.02": 0.0,
			"0.021": 0.0,
			"0.022": 0.0,
			"0.023": 0.0,
			"0.024": 0.0,
			"0.025": 0.0
		}
	}
}
