{
	 "smiles": "FC1=CC=C(C=C1)C1=NC(C=O)=CS1", 
	 "Tm": 373.15, 
	 "num_atms": 20, 
	 "gaussian": { 
		 "optdone": 1, 
		 "sigma_profile": "yes", 
		 "theory": "DFT", 
		 "functional": "B3LYP", 
		 "basiset": "6-31G**", 
		 "properties": { 
			 "R2extent": 4764.3233, 
			 "electric_dipole_moment_norm": 3.94188459623, 
			 "electric_quadrupole_moment_norm": 13.8086962639, 
			 "total_energy": -1012.65866245, 
			 "HOMO_LUMO_gap": 0.16602, 
			 "cosmo_polarized_energy": -12.94, 
			 "cosmo_cavitation_energy": 27.75, 
			 "cosmo_dispersion_energy": -20.62, 
			 "cosmo_repulsion_energy": 1.53, 
			 "cosmo_total_nonelectrostatic_energy": 8.66, 
			 "SMD_solvation_energy": 5.08 
		},
		"coords": [
			{
				"x": 0.6508762373,
				"y": -0.3109901816,
				"z": -5.5426833259,
				"element": "F" 
			},
			{
				"x": 0.180520394,
				"y": -0.1505199852,
				"z": -4.2917271985,
				"element": "C" 
			},
			{
				"x": 0.4492774712,
				"y": 1.0366564832,
				"z": -3.6185062229,
				"element": "C" 
			},
			{
				"x": -0.0398084876,
				"y": 1.1966878385,
				"z": -2.3251514337,
				"element": "C" 
			},
			{
				"x": -0.7899938517,
				"y": 0.1823363008,
				"z": -1.7086912258,
				"element": "C" 
			},
			{
				"x": -1.0432042373,
				"y": -1.0061975591,
				"z": -2.4188274071,
				"element": "C" 
			},
			{
				"x": -0.5596388597,
				"y": -1.1766290388,
				"z": -3.710843573,
				"element": "C" 
			},
			{
				"x": -1.3216564728,
				"y": 0.3156271311,
				"z": -0.3472114433,
				"element": "C" 
			},
			{
				"x": -2.0202616889,
				"y": -0.5994988112,
				"z": 0.2596184775,
				"element": "N" 
			},
			{
				"x": -2.3885309569,
				"y": -0.209054094,
				"z": 1.5258629784,
				"element": "C" 
			},
			{
				"x": -3.1885205324,
				"y": -1.0838687389,
				"z": 2.4082284407,
				"element": "C" 
			},
			{
				"x": -3.5849849591,
				"y": -2.1918952443,
				"z": 2.1141686517,
				"element": "O" 
			},
			{
				"x": -1.9628723105,
				"y": 1.0413460341,
				"z": 1.9071771483,
				"element": "C" 
			},
			{
				"x": -1.0597544873,
				"y": 1.7787343222,
				"z": 0.6404953228,
				"element": "S" 
			},
			{
				"x": 1.0298511713,
				"y": 1.8112370469,
				"z": -4.1069220997,
				"element": "H" 
			},
			{
				"x": 0.1692943795,
				"y": 2.1233097951,
				"z": -1.7981453487,
				"element": "H" 
			},
			{
				"x": -1.6229529099,
				"y": -1.7860192772,
				"z": -1.9379371739,
				"element": "H" 
			},
			{
				"x": -0.7460698656,
				"y": -2.0862067745,
				"z": -4.2712070677,
				"element": "H" 
			},
			{
				"x": -3.4081903445,
				"y": -0.6318511736,
				"z": 3.4010267026,
				"element": "H" 
			},
			{
				"x": -2.1346796892,
				"y": 1.5463959264,
				"z": 2.8478757981,
				"element": "H" 
			}
		],
		 "valence_orbital": [ 
			{
				"type": "occ",
				"energy": -0.28923,
				"method": "rhf"
			},
			{
				"type": "occ",
				"energy": -0.28789,
				"method": "rhf"
			},
			{
				"type": "occ",
				"energy": -0.27486,
				"method": "rhf"
			},
			{
				"type": "occ",
				"energy": -0.25724,
				"method": "rhf"
			},
			{
				"type": "occ",
				"energy": -0.23634,
				"method": "rhf"
			},
			{
				"type": "unocc",
				"energy": -0.07032,
				"method": "rhf"
			},
			{
				"type": "unocc",
				"energy": -0.05317,
				"method": "rhf"
			},
			{
				"type": "unocc",
				"energy": -0.02361,
				"method": "rhf"
			},
			{
				"type": "unocc",
				"energy": 0.00089,
				"method": "rhf"
			},
			{
				"type": "unocc",
				"energy": 0.0297,
				"method": "rhf"
			}
		],
		"cosmo_sigma_profile": { 
			"-0.025": 0.0,
			"-0.024": 0.0,
			"-0.023": 0.0,
			"-0.022": 0.0,
			"-0.021": 0.0,
			"-0.02": 0.0,
			"-0.019": 0.0,
			"-0.018": 0.0,
			"-0.017": 0.0,
			"-0.016": 0.0,
			"-0.015": 0.0,
			"-0.014": 0.0,
			"-0.013": 0.0,
			"-0.012": 0.0,
			"-0.011": 1.30920479578,
			"-0.01": 2.80175733106,
			"-0.009": 3.10170733395,
			"-0.008": 6.07058099176,
			"-0.007": 10.730393426,
			"-0.006": 11.6798006188,
			"-0.005": 11.2598955482,
			"-0.004": 10.7493155215,
			"-0.003": 10.7644382507,
			"-0.002": 13.5110348472,
			"-0.001": 19.7918989975,
			"0.0": 25.9225327536,
			"0.001": 20.8695000833,
			"0.002": 21.3313070348,
			"0.003": 14.9676850786,
			"0.004": 12.2052514604,
			"0.005": 3.41808271848,
			"0.006": 2.12610418719,
			"0.007": 2.6224378737,
			"0.008": 2.29820422439,
			"0.009": 3.11080945079,
			"0.01": 3.40289939255,
			"0.011": 5.00265846966,
			"0.012": 3.93879748278,
			"0.013": 2.30534131387,
			"0.014": 1.2824245149,
			"0.015": 0.32721205735,
			"0.016": 0.0,
			"0.017": 0.0,
			"0.018": 0.0,
			"0.019": 0.0,
			"0.02": 0.0,
			"0.021": 0.0,
			"0.022": 0.0,
			"0.023": 0.0,
			"0.024": 0.0,
			"0.025": 0.0
		}
	}
}
