{
	 "smiles": "NC(=O)C1=CC=CC=C1", 
	 "Tm": 401.15, 
	 "num_atms": 16, 
	 "gaussian": { 
		 "optdone": 1, 
		 "sigma_profile": "yes", 
		 "theory": "DFT", 
		 "functional": "B3LYP", 
		 "basiset": "6-31G**", 
		 "properties": { 
			 "R2extent": 1566.4025, 
			 "electric_dipole_moment_norm": 3.49150409566, 
			 "electric_quadrupole_moment_norm": 14.1380456386, 
			 "total_energy": -400.957436797, 
			 "HOMO_LUMO_gap": 0.2104, 
			 "cosmo_polarized_energy": -12.46, 
			 "cosmo_cavitation_energy": 20.09, 
			 "cosmo_dispersion_energy": -15.08, 
			 "cosmo_repulsion_energy": 1.24, 
			 "cosmo_total_nonelectrostatic_energy": 6.25, 
			 "SMD_solvation_energy": 4.3 
		},
		"coords": [
			{
				"x": 1.4811148918,
				"y": 3.3517620926,
				"z": 0.9901125243,
				"element": "N" 
			},
			{
				"x": 0.4677105379,
				"y": 2.9325338835,
				"z": 0.1590698672,
				"element": "C" 
			},
			{
				"x": -0.1560293787,
				"y": 3.7199973591,
				"z": -0.5419224532,
				"element": "O" 
			},
			{
				"x": 0.1541785933,
				"y": 1.4628085867,
				"z": 0.1795230462,
				"element": "C" 
			},
			{
				"x": 0.5569634764,
				"y": 0.6022431869,
				"z": 1.2106767782,
				"element": "C" 
			},
			{
				"x": 0.2273050942,
				"y": -0.7526223109,
				"z": 1.1654914969,
				"element": "C" 
			},
			{
				"x": -0.5063501641,
				"y": -1.2581784846,
				"z": 0.0904740032,
				"element": "C" 
			},
			{
				"x": -0.9209516785,
				"y": -0.402863842,
				"z": -0.9340659739,
				"element": "C" 
			},
			{
				"x": -0.5980977891,
				"y": 0.9511025806,
				"z": -0.8860476274,
				"element": "C" 
			},
			{
				"x": 1.7604847742,
				"y": 4.315159071,
				"z": 0.8724239097,
				"element": "H" 
			},
			{
				"x": 2.1942475567,
				"y": 2.7051673763,
				"z": 1.2890983136,
				"element": "H" 
			},
			{
				"x": 1.0970723581,
				"y": 0.9898828181,
				"z": 2.0697014523,
				"element": "H" 
			},
			{
				"x": 0.5356834832,
				"y": -1.4107109486,
				"z": 1.9726670751,
				"element": "H" 
			},
			{
				"x": -0.7607363722,
				"y": -2.3136824664,
				"z": 0.0552417465,
				"element": "H" 
			},
			{
				"x": -1.4981639831,
				"y": -0.792427933,
				"z": -1.7676098623,
				"element": "H" 
			},
			{
				"x": -0.9181314002,
				"y": 1.6376290306,
				"z": -1.6625342964,
				"element": "H" 
			}
		],
		 "valence_orbital": [ 
			{
				"type": "occ",
				"energy": -0.34794,
				"method": "rhf"
			},
			{
				"type": "occ",
				"energy": -0.27188,
				"method": "rhf"
			},
			{
				"type": "occ",
				"energy": -0.25894,
				"method": "rhf"
			},
			{
				"type": "occ",
				"energy": -0.25827,
				"method": "rhf"
			},
			{
				"type": "occ",
				"energy": -0.24687,
				"method": "rhf"
			},
			{
				"type": "unocc",
				"energy": -0.03647,
				"method": "rhf"
			},
			{
				"type": "unocc",
				"energy": -0.0087,
				"method": "rhf"
			},
			{
				"type": "unocc",
				"energy": 0.05891,
				"method": "rhf"
			},
			{
				"type": "unocc",
				"energy": 0.07753,
				"method": "rhf"
			},
			{
				"type": "unocc",
				"energy": 0.10305,
				"method": "rhf"
			}
		],
		"cosmo_sigma_profile": { 
			"-0.025": 0.0,
			"-0.024": 0.0,
			"-0.023": 0.0,
			"-0.022": 0.0,
			"-0.021": 0.0,
			"-0.02": 0.0,
			"-0.019": 0.0,
			"-0.018": 0.0,
			"-0.017": 0.0,
			"-0.016": 0.0,
			"-0.015": 0.00542559969842,
			"-0.014": 1.21491300388,
			"-0.013": 2.33634082889,
			"-0.012": 2.30643670781,
			"-0.011": 2.89709076219,
			"-0.01": 2.6374943764,
			"-0.009": 2.4394069762,
			"-0.008": 1.94929563088,
			"-0.007": 3.220398955,
			"-0.006": 8.65690832822,
			"-0.005": 9.97304462147,
			"-0.004": 12.7831269232,
			"-0.003": 8.70347583671,
			"-0.002": 8.28674996192,
			"-0.001": 8.11898871588,
			"0.0": 9.80599879845,
			"0.001": 10.1300745444,
			"0.002": 8.88617400899,
			"0.003": 11.2337792086,
			"0.004": 14.4379821927,
			"0.005": 8.88689009251,
			"0.006": 1.57481725241,
			"0.007": 2.19032404837,
			"0.008": 2.37973178806,
			"0.009": 1.36267571488,
			"0.01": 1.51316393295,
			"0.011": 1.49506710195,
			"0.012": 2.02813448916,
			"0.013": 4.39538595385,
			"0.014": 4.19736587391,
			"0.015": 0.271256904445,
			"0.016": 0.0,
			"0.017": 0.0,
			"0.018": 0.0,
			"0.019": 0.0,
			"0.02": 0.0,
			"0.021": 0.0,
			"0.022": 0.0,
			"0.023": 0.0,
			"0.024": 0.0,
			"0.025": 0.0
		}
	}
}
