{
	 "smiles": "O1C(C1C1=CC=CC=C1)C1=CC=CC=C1", 
	 "Tm": 341.65, 
	 "num_atms": 27, 
	 "gaussian": { 
		 "optdone": 1, 
		 "sigma_profile": "yes", 
		 "theory": "DFT", 
		 "functional": "B3LYP", 
		 "basiset": "6-31G**", 
		 "properties": { 
			 "R2extent": 3208.3036, 
			 "electric_dipole_moment_norm": 1.70195761698, 
			 "electric_quadrupole_moment_norm": 7.25053157913, 
			 "total_energy": -615.907394035, 
			 "HOMO_LUMO_gap": 0.22182, 
			 "cosmo_polarized_energy": -8.09, 
			 "cosmo_cavitation_energy": 30.66, 
			 "cosmo_dispersion_energy": -21.59, 
			 "cosmo_repulsion_energy": 1.71, 
			 "cosmo_total_nonelectrostatic_energy": 10.78, 
			 "SMD_solvation_energy": 4.69 
		},
		"coords": [
			{
				"x": 0.7155177325,
				"y": 1.4999525128,
				"z": -2.1593522491,
				"element": "O" 
			},
			{
				"x": -0.5475398906,
				"y": 0.8706165988,
				"z": -1.9231366812,
				"element": "C" 
			},
			{
				"x": 0.6785415502,
				"y": 0.0708690808,
				"z": -2.2184457313,
				"element": "C" 
			},
			{
				"x": 1.4442975676,
				"y": -0.7099422914,
				"z": -1.2031569682,
				"element": "C" 
			},
			{
				"x": 2.2720596192,
				"y": -0.0842737636,
				"z": -0.2648052516,
				"element": "C" 
			},
			{
				"x": 2.9874169035,
				"y": -0.8457132938,
				"z": 0.6608601532,
				"element": "C" 
			},
			{
				"x": 2.8839462398,
				"y": -2.2374068899,
				"z": 0.6575750645,
				"element": "C" 
			},
			{
				"x": 2.0661095384,
				"y": -2.8682876414,
				"z": -0.283380123,
				"element": "C" 
			},
			{
				"x": 1.3555945713,
				"y": -2.1089397498,
				"z": -1.2114412072,
				"element": "C" 
			},
			{
				"x": -1.1709987883,
				"y": 0.9960434458,
				"z": -0.5731216664,
				"element": "C" 
			},
			{
				"x": -0.606273352,
				"y": 1.7952474813,
				"z": 0.4266174323,
				"element": "C" 
			},
			{
				"x": -1.2241980909,
				"y": 1.9037465056,
				"z": 1.6735409963,
				"element": "C" 
			},
			{
				"x": -2.4108672295,
				"y": 1.2168316848,
				"z": 1.9332711408,
				"element": "C" 
			},
			{
				"x": -2.984479147,
				"y": 0.4246241637,
				"z": 0.9354525848,
				"element": "C" 
			},
			{
				"x": -2.3709259831,
				"y": 0.3200598065,
				"z": -0.3116889403,
				"element": "C" 
			},
			{
				"x": -1.2504016745,
				"y": 0.9733169508,
				"z": -2.7544314121,
				"element": "H" 
			},
			{
				"x": 0.7436373341,
				"y": -0.3273619078,
				"z": -3.2347021108,
				"element": "H" 
			},
			{
				"x": 2.3601305218,
				"y": 0.9962528753,
				"z": -0.2794049029,
				"element": "H" 
			},
			{
				"x": 3.6301273796,
				"y": -0.3499752148,
				"z": 1.3829822175,
				"element": "H" 
			},
			{
				"x": 3.44119043,
				"y": -2.8283972963,
				"z": 1.3787547337,
				"element": "H" 
			},
			{
				"x": 1.9849726112,
				"y": -3.951515006,
				"z": -0.2963516121,
				"element": "H" 
			},
			{
				"x": 0.725389586,
				"y": -2.6037507782,
				"z": -1.946954608,
				"element": "H" 
			},
			{
				"x": 0.3068513971,
				"y": 2.3388756715,
				"z": 0.2116595536,
				"element": "H" 
			},
			{
				"x": -0.7790976543,
				"y": 2.5299125997,
				"z": 2.4417180138,
				"element": "H" 
			},
			{
				"x": -2.8902491692,
				"y": 1.3021679778,
				"z": 2.9042505656,
				"element": "H" 
			},
			{
				"x": -3.9112966078,
				"y": -0.1084152863,
				"z": 1.1278370698,
				"element": "H" 
			},
			{
				"x": -2.8239553952,
				"y": -0.2919382358,
				"z": -1.0883460619,
				"element": "H" 
			}
		],
		 "valence_orbital": [ 
			{
				"type": "occ",
				"energy": -0.27884,
				"method": "rhf"
			},
			{
				"type": "occ",
				"energy": -0.25224,
				"method": "rhf"
			},
			{
				"type": "occ",
				"energy": -0.24908,
				"method": "rhf"
			},
			{
				"type": "occ",
				"energy": -0.24452,
				"method": "rhf"
			},
			{
				"type": "occ",
				"energy": -0.23207,
				"method": "rhf"
			},
			{
				"type": "unocc",
				"energy": -0.01025,
				"method": "rhf"
			},
			{
				"type": "unocc",
				"energy": -0.00631,
				"method": "rhf"
			},
			{
				"type": "unocc",
				"energy": 0.00016,
				"method": "rhf"
			},
			{
				"type": "unocc",
				"energy": 0.00615,
				"method": "rhf"
			},
			{
				"type": "unocc",
				"energy": 0.09258,
				"method": "rhf"
			}
		],
		"cosmo_sigma_profile": { 
			"-0.025": 0.0,
			"-0.024": 0.0,
			"-0.023": 0.0,
			"-0.022": 0.0,
			"-0.021": 0.0,
			"-0.02": 0.0,
			"-0.019": 0.0,
			"-0.018": 0.0,
			"-0.017": 0.0,
			"-0.016": 0.0,
			"-0.015": 0.0,
			"-0.014": 0.0,
			"-0.013": 0.0,
			"-0.012": 0.0,
			"-0.011": 0.0,
			"-0.01": 0.0,
			"-0.009": 0.0,
			"-0.008": 0.0,
			"-0.007": 1.79422556438,
			"-0.006": 17.0651133805,
			"-0.005": 23.8604117061,
			"-0.004": 24.9191906601,
			"-0.003": 22.6255454799,
			"-0.002": 16.2720715972,
			"-0.001": 15.1208166163,
			"0.0": 13.9408400866,
			"0.001": 14.2307994289,
			"0.002": 16.3960093632,
			"0.003": 16.6008857864,
			"0.004": 17.1129470984,
			"0.005": 18.8954961918,
			"0.006": 17.2897934666,
			"0.007": 1.54441556407,
			"0.008": 1.04863125295,
			"0.009": 1.79599227159,
			"0.01": 1.48553004393,
			"0.011": 2.2343045779,
			"0.012": 0.889208267924,
			"0.013": 0.0281618141202,
			"0.014": 0.0,
			"0.015": 0.0,
			"0.016": 0.0,
			"0.017": 0.0,
			"0.018": 0.0,
			"0.019": 0.0,
			"0.02": 0.0,
			"0.021": 0.0,
			"0.022": 0.0,
			"0.023": 0.0,
			"0.024": 0.0,
			"0.025": 0.0
		}
	}
}
