{
	 "smiles": "C=CS(=O)(=O)OC1=CC=CC=C1", 
	 "Tm": 313.65, 
	 "num_atms": 20, 
	 "gaussian": { 
		 "optdone": 1, 
		 "sigma_profile": "yes", 
		 "theory": "DFT", 
		 "functional": "B3LYP", 
		 "basiset": "6-31G**", 
		 "properties": { 
			 "R2extent": 2586.2693, 
			 "electric_dipole_moment_norm": 4.89298078782, 
			 "electric_quadrupole_moment_norm": 9.3474378329, 
			 "total_energy": -933.42633879, 
			 "HOMO_LUMO_gap": 0.20326, 
			 "cosmo_polarized_energy": -12.33, 
			 "cosmo_cavitation_energy": 26.22, 
			 "cosmo_dispersion_energy": -19.08, 
			 "cosmo_repulsion_energy": 1.49, 
			 "cosmo_total_nonelectrostatic_energy": 8.63, 
			 "SMD_solvation_energy": 4.56 
		},
		"coords": [
			{
				"x": 1.5602412723,
				"y": 0.6373509808,
				"z": 1.6194826432,
				"element": "C" 
			},
			{
				"x": 0.3346296397,
				"y": 1.0847997944,
				"z": 1.3657040685,
				"element": "C" 
			},
			{
				"x": -0.8868831529,
				"y": 0.0233269962,
				"z": 0.6319073727,
				"element": "S" 
			},
			{
				"x": -0.3125027006,
				"y": -1.2995774825,
				"z": 0.4096651845,
				"element": "O" 
			},
			{
				"x": -2.1515450576,
				"y": 0.2141107885,
				"z": 1.3229088404,
				"element": "O" 
			},
			{
				"x": -1.130377994,
				"y": 0.7775430038,
				"z": -0.8336233766,
				"element": "O" 
			},
			{
				"x": -0.209318887,
				"y": 0.5941819122,
				"z": -1.8745771887,
				"element": "C" 
			},
			{
				"x": -0.1376563656,
				"y": -0.6223597693,
				"z": -2.5527806071,
				"element": "C" 
			},
			{
				"x": 0.7379320406,
				"y": -0.7377013855,
				"z": -3.6329019858,
				"element": "C" 
			},
			{
				"x": 1.5195182719,
				"y": 0.3494396527,
				"z": -4.0315144404,
				"element": "C" 
			},
			{
				"x": 1.4285837927,
				"y": 1.5622378565,
				"z": -3.3453023657,
				"element": "C" 
			},
			{
				"x": 0.5638850583,
				"y": 1.6892226372,
				"z": -2.2573590047,
				"element": "C" 
			},
			{
				"x": 1.8493748922,
				"y": -0.3780114588,
				"z": 1.3680627073,
				"element": "H" 
			},
			{
				"x": 2.2981565997,
				"y": 1.279068714,
				"z": 2.0911679756,
				"element": "H" 
			},
			{
				"x": -0.0344122964,
				"y": 2.0790177261,
				"z": 1.5949755326,
				"element": "H" 
			},
			{
				"x": -0.7528442629,
				"y": -1.4535634604,
				"z": -2.2305092021,
				"element": "H" 
			},
			{
				"x": 0.8035533256,
				"y": -1.680585953,
				"z": -4.1674635947,
				"element": "H" 
			},
			{
				"x": 2.1939973961,
				"y": 0.2527221286,
				"z": -4.8769082097,
				"element": "H" 
			},
			{
				"x": 2.0294634722,
				"y": 2.412070219,
				"z": -3.6551090308,
				"element": "H" 
			},
			{
				"x": 0.4700049557,
				"y": 2.6234070993,
				"z": -1.7139253185,
				"element": "H" 
			}
		],
		 "valence_orbital": [ 
			{
				"type": "occ",
				"energy": -0.32714,
				"method": "rhf"
			},
			{
				"type": "occ",
				"energy": -0.31699,
				"method": "rhf"
			},
			{
				"type": "occ",
				"energy": -0.30336,
				"method": "rhf"
			},
			{
				"type": "occ",
				"energy": -0.26298,
				"method": "rhf"
			},
			{
				"type": "occ",
				"energy": -0.25395,
				"method": "rhf"
			},
			{
				"type": "unocc",
				"energy": -0.05069,
				"method": "rhf"
			},
			{
				"type": "unocc",
				"energy": -0.01568,
				"method": "rhf"
			},
			{
				"type": "unocc",
				"energy": -0.01278,
				"method": "rhf"
			},
			{
				"type": "unocc",
				"energy": 0.04841,
				"method": "rhf"
			},
			{
				"type": "unocc",
				"energy": 0.06845,
				"method": "rhf"
			}
		],
		"cosmo_sigma_profile": { 
			"-0.025": 0.0,
			"-0.024": 0.0,
			"-0.023": 0.0,
			"-0.022": 0.0,
			"-0.021": 0.0,
			"-0.02": 0.0,
			"-0.019": 0.0,
			"-0.018": 0.0,
			"-0.017": 0.0,
			"-0.016": 0.0,
			"-0.015": 0.0,
			"-0.014": 0.0,
			"-0.013": 0.0,
			"-0.012": 0.0,
			"-0.011": 0.557463099995,
			"-0.01": 1.7078037693,
			"-0.009": 3.57153112865,
			"-0.008": 5.17028161953,
			"-0.007": 8.17773377885,
			"-0.006": 14.9546746154,
			"-0.005": 15.0359657884,
			"-0.004": 16.4458393996,
			"-0.003": 13.0564151553,
			"-0.002": 12.9445568482,
			"-0.001": 12.1113396163,
			"0.0": 12.4251568887,
			"0.001": 12.7746226914,
			"0.002": 13.3146122774,
			"0.003": 13.1184775486,
			"0.004": 13.4584477684,
			"0.005": 6.8318051033,
			"0.006": 4.57668629006,
			"0.007": 5.38963709661,
			"0.008": 5.88550813779,
			"0.009": 8.71135624457,
			"0.01": 9.48440354742,
			"0.011": 1.04097638023,
			"0.012": 0.0,
			"0.013": 0.0,
			"0.014": 0.0,
			"0.015": 0.0,
			"0.016": 0.0,
			"0.017": 0.0,
			"0.018": 0.0,
			"0.019": 0.0,
			"0.02": 0.0,
			"0.021": 0.0,
			"0.022": 0.0,
			"0.023": 0.0,
			"0.024": 0.0,
			"0.025": 0.0
		}
	}
}
