{
	 "smiles": "N#CC1=CC=C(C=C1)C1CCCC2=CN=CN12", 
	 "Tm": 390.15, 
	 "num_atms": 30, 
	 "gaussian": { 
		 "optdone": 1, 
		 "sigma_profile": "yes", 
		 "theory": "DFT", 
		 "functional": "B3LYP", 
		 "basiset": "6-31G**", 
		 "properties": { 
			 "R2extent": 5328.8738, 
			 "electric_dipole_moment_norm": 5.494187515, 
			 "electric_quadrupole_moment_norm": 23.8957170985, 
			 "total_energy": -705.567780601, 
			 "HOMO_LUMO_gap": 0.16135, 
			 "cosmo_polarized_energy": -17.22, 
			 "cosmo_cavitation_energy": 33.35, 
			 "cosmo_dispersion_energy": -23.3, 
			 "cosmo_repulsion_energy": 1.79, 
			 "cosmo_total_nonelectrostatic_energy": 11.85, 
			 "SMD_solvation_energy": 4.84 
		},
		"coords": [
			{
				"x": 1.8315815727,
				"y": 4.7811451989,
				"z": 3.3444065172,
				"element": "N" 
			},
			{
				"x": 1.7126479868,
				"y": 3.8122142994,
				"z": 2.7116968233,
				"element": "C" 
			},
			{
				"x": 1.5622567704,
				"y": 2.6171972523,
				"z": 1.9334928435,
				"element": "C" 
			},
			{
				"x": 1.8068254856,
				"y": 2.6369726245,
				"z": 0.5512641548,
				"element": "C" 
			},
			{
				"x": 1.6604024495,
				"y": 1.4735433022,
				"z": -0.2001267044,
				"element": "C" 
			},
			{
				"x": 1.2655750484,
				"y": 0.2751656271,
				"z": 0.4074304414,
				"element": "C" 
			},
			{
				"x": 1.0318986014,
				"y": 0.2628502336,
				"z": 1.7903427657,
				"element": "C" 
			},
			{
				"x": 1.1742669561,
				"y": 1.4165367435,
				"z": 2.552468995,
				"element": "C" 
			},
			{
				"x": 1.0558990076,
				"y": -1.0140130205,
				"z": -0.3858264539,
				"element": "C" 
			},
			{
				"x": -0.4413572251,
				"y": -1.2823375114,
				"z": -0.6756200023,
				"element": "C" 
			},
			{
				"x": -0.9704805933,
				"y": -0.3952412834,
				"z": -1.8097469627,
				"element": "C" 
			},
			{
				"x": -0.230020958,
				"y": -0.7087128588,
				"z": -3.1215571112,
				"element": "C" 
			},
			{
				"x": 1.2539063255,
				"y": -0.7738811648,
				"z": -2.9083463727,
				"element": "C" 
			},
			{
				"x": 2.3407148878,
				"y": -0.7244862108,
				"z": -3.7509724965,
				"element": "C" 
			},
			{
				"x": 3.5161667711,
				"y": -0.921146405,
				"z": -3.0601110504,
				"element": "N" 
			},
			{
				"x": 3.1531284334,
				"y": -1.0870865255,
				"z": -1.8080337843,
				"element": "C" 
			},
			{
				"x": 1.7919087382,
				"y": -1.0169121542,
				"z": -1.6494483491,
				"element": "N" 
			},
			{
				"x": 2.1137111657,
				"y": 3.5616831218,
				"z": 0.0742122072,
				"element": "H" 
			},
			{
				"x": 1.8645283452,
				"y": 1.4959503375,
				"z": -1.2655159331,
				"element": "H" 
			},
			{
				"x": 0.7394053547,
				"y": -0.663471004,
				"z": 2.2787871514,
				"element": "H" 
			},
			{
				"x": 0.9952413652,
				"y": 1.3969139496,
				"z": 3.6222370217,
				"element": "H" 
			},
			{
				"x": 1.4406612792,
				"y": -1.8424769603,
				"z": 0.2208934472,
				"element": "H" 
			},
			{
				"x": -1.0082330212,
				"y": -1.1220244113,
				"z": 0.2462887876,
				"element": "H" 
			},
			{
				"x": -0.5591262558,
				"y": -2.338011204,
				"z": -0.9505658523,
				"element": "H" 
			},
			{
				"x": -2.0452094924,
				"y": -0.5579068391,
				"z": -1.939158267,
				"element": "H" 
			},
			{
				"x": -0.8387003437,
				"y": 0.6603493458,
				"z": -1.5439528976,
				"element": "H" 
			},
			{
				"x": -0.5895907563,
				"y": -1.6738244133,
				"z": -3.5074951235,
				"element": "H" 
			},
			{
				"x": -0.4654865631,
				"y": 0.0349361255,
				"z": -3.8902006052,
				"element": "H" 
			},
			{
				"x": 2.3364804733,
				"y": -0.5688378767,
				"z": -4.8216853558,
				"element": "H" 
			},
			{
				"x": 3.8173981911,
				"y": -1.2516883187,
				"z": -0.9697578339,
				"element": "H" 
			}
		],
		 "valence_orbital": [ 
			{
				"type": "occ",
				"energy": -0.28249,
				"method": "rhf"
			},
			{
				"type": "occ",
				"energy": -0.27359,
				"method": "rhf"
			},
			{
				"type": "occ",
				"energy": -0.26634,
				"method": "rhf"
			},
			{
				"type": "occ",
				"energy": -0.26229,
				"method": "rhf"
			},
			{
				"type": "occ",
				"energy": -0.21985,
				"method": "rhf"
			},
			{
				"type": "unocc",
				"energy": -0.0585,
				"method": "rhf"
			},
			{
				"type": "unocc",
				"energy": -0.0331,
				"method": "rhf"
			},
			{
				"type": "unocc",
				"energy": 0.02165,
				"method": "rhf"
			},
			{
				"type": "unocc",
				"energy": 0.03342,
				"method": "rhf"
			},
			{
				"type": "unocc",
				"energy": 0.05632,
				"method": "rhf"
			}
		],
		"cosmo_sigma_profile": { 
			"-0.025": 0.0,
			"-0.024": 0.0,
			"-0.023": 0.0,
			"-0.022": 0.0,
			"-0.021": 0.0,
			"-0.02": 0.0,
			"-0.019": 0.0,
			"-0.018": 0.0,
			"-0.017": 0.0,
			"-0.016": 0.0,
			"-0.015": 0.0,
			"-0.014": 0.0,
			"-0.013": 0.0,
			"-0.012": 0.0,
			"-0.011": 0.0,
			"-0.01": 0.0,
			"-0.009": 0.229721849877,
			"-0.008": 7.28834822882,
			"-0.007": 13.042485228,
			"-0.006": 12.9820688846,
			"-0.005": 15.7140634748,
			"-0.004": 23.3193717157,
			"-0.003": 26.1683688282,
			"-0.002": 28.6970339558,
			"-0.001": 27.0936085874,
			"0.0": 17.392540101,
			"0.001": 13.9891835876,
			"0.002": 17.1866415408,
			"0.003": 8.61593923635,
			"0.004": 5.76888270625,
			"0.005": 5.67677561348,
			"0.006": 6.15355586519,
			"0.007": 4.81541273966,
			"0.008": 5.13940716701,
			"0.009": 5.07223968322,
			"0.01": 5.09201035185,
			"0.011": 4.08723289804,
			"0.012": 3.81040620226,
			"0.013": 2.78730800643,
			"0.014": 1.82179253573,
			"0.015": 1.03095380847,
			"0.016": 0.939797142988,
			"0.017": 1.33207313469,
			"0.018": 1.04554730695,
			"0.019": 0.161375319872,
			"0.02": 0.0,
			"0.021": 0.0,
			"0.022": 0.0,
			"0.023": 0.0,
			"0.024": 0.0,
			"0.025": 0.0
		}
	}
}
