{
	 "smiles": "NCCCN1C(=O)NC2(CCCCC2)C1=O", 
	 "Tm": 398.15, 
	 "num_atms": 35, 
	 "gaussian": { 
		 "optdone": 1, 
		 "sigma_profile": "yes", 
		 "theory": "DFT", 
		 "functional": "B3LYP", 
		 "basiset": "6-31G**", 
		 "properties": { 
			 "R2extent": 4639.9388, 
			 "electric_dipole_moment_norm": 2.65159262897, 
			 "electric_quadrupole_moment_norm": 21.5324382272, 
			 "total_energy": -745.377906901, 
			 "HOMO_LUMO_gap": 0.22854, 
			 "cosmo_polarized_energy": -17.22, 
			 "cosmo_cavitation_energy": 35.42, 
			 "cosmo_dispersion_energy": -24.79, 
			 "cosmo_repulsion_energy": 1.96, 
			 "cosmo_total_nonelectrostatic_energy": 12.59, 
			 "SMD_solvation_energy": 5.06 
		},
		"coords": [
			{
				"x": -2.3007435235,
				"y": 0.6435096836,
				"z": 3.0151836591,
				"element": "N" 
			},
			{
				"x": -1.2484565465,
				"y": -0.3779820247,
				"z": 2.9999865228,
				"element": "C" 
			},
			{
				"x": -1.8171085121,
				"y": -1.7121063566,
				"z": 2.4993056194,
				"element": "C" 
			},
			{
				"x": -2.2510073692,
				"y": -1.665534723,
				"z": 1.0281377825,
				"element": "C" 
			},
			{
				"x": -1.1257930686,
				"y": -1.7474577229,
				"z": 0.0957674964,
				"element": "N" 
			},
			{
				"x": -0.5642502809,
				"y": -2.984063335,
				"z": -0.2984363756,
				"element": "C" 
			},
			{
				"x": -0.8876540944,
				"y": -4.0728192905,
				"z": 0.1368206221,
				"element": "O" 
			},
			{
				"x": 0.3767889012,
				"y": -2.6939035318,
				"z": -1.2533042503,
				"element": "N" 
			},
			{
				"x": 0.6006709374,
				"y": -1.2597113747,
				"z": -1.4299800653,
				"element": "C" 
			},
			{
				"x": 0.4047705342,
				"y": -0.7769566009,
				"z": -2.8941057168,
				"element": "C" 
			},
			{
				"x": 1.7363233445,
				"y": -0.660371629,
				"z": -3.6452858104,
				"element": "C" 
			},
			{
				"x": 2.6462570882,
				"y": 0.4139450799,
				"z": -3.0037450196,
				"element": "C" 
			},
			{
				"x": 2.4361718292,
				"y": 0.5139237358,
				"z": -1.4729500463,
				"element": "C" 
			},
			{
				"x": 1.9958511261,
				"y": -0.8325921937,
				"z": -0.8870680252,
				"element": "C" 
			},
			{
				"x": -0.5169143655,
				"y": -0.6854348748,
				"z": -0.5349741712,
				"element": "C" 
			},
			{
				"x": -0.7953517277,
				"y": 0.4943582097,
				"z": -0.4101155687,
				"element": "O" 
			},
			{
				"x": -2.8818359969,
				"y": 0.5387525935,
				"z": 3.8430918342,
				"element": "H" 
			},
			{
				"x": -1.8977190124,
				"y": 1.5745558143,
				"z": 3.0523038389,
				"element": "H" 
			},
			{
				"x": -0.7649275059,
				"y": -0.5370956176,
				"z": 3.9791974292,
				"element": "H" 
			},
			{
				"x": -0.4647276506,
				"y": -0.0356990145,
				"z": 2.315423556,
				"element": "H" 
			},
			{
				"x": -1.090821365,
				"y": -2.5205774267,
				"z": 2.6389942658,
				"element": "H" 
			},
			{
				"x": -2.6944620502,
				"y": -1.9736506065,
				"z": 3.1058090113,
				"element": "H" 
			},
			{
				"x": -2.7705631933,
				"y": -0.7254436612,
				"z": 0.8287844136,
				"element": "H" 
			},
			{
				"x": -2.9096144377,
				"y": -2.5063830389,
				"z": 0.7980515932,
				"element": "H" 
			},
			{
				"x": 1.0511379725,
				"y": -3.4003103843,
				"z": -1.5059852934,
				"element": "H" 
			},
			{
				"x": -0.2831615135,
				"y": -1.4635592569,
				"z": -3.3970199889,
				"element": "H" 
			},
			{
				"x": -0.0804933488,
				"y": 0.2052125864,
				"z": -2.861318898,
				"element": "H" 
			},
			{
				"x": 2.2433295836,
				"y": -1.6345509158,
				"z": -3.6413518529,
				"element": "H" 
			},
			{
				"x": 1.5523776151,
				"y": -0.4240979403,
				"z": -4.6987134789,
				"element": "H" 
			},
			{
				"x": 2.4451389617,
				"y": 1.3899344101,
				"z": -3.4597116349,
				"element": "H" 
			},
			{
				"x": 3.6940852821,
				"y": 0.1803242619,
				"z": -3.2260225814,
				"element": "H" 
			},
			{
				"x": 3.3556626135,
				"y": 0.8521659786,
				"z": -0.9835947481,
				"element": "H" 
			},
			{
				"x": 1.6660002138,
				"y": 1.2563224735,
				"z": -1.2395234703,
				"element": "H" 
			},
			{
				"x": 2.7198816513,
				"y": -1.6107632881,
				"z": -1.1639492776,
				"element": "H" 
			},
			{
				"x": 1.9742579081,
				"y": -0.8072400188,
				"z": 0.2077986293,
				"element": "H" 
			}
		],
		 "valence_orbital": [ 
			{
				"type": "occ",
				"energy": -0.27761,
				"method": "rhf"
			},
			{
				"type": "occ",
				"energy": -0.26655,
				"method": "rhf"
			},
			{
				"type": "occ",
				"energy": -0.25717,
				"method": "rhf"
			},
			{
				"type": "occ",
				"energy": -0.25105,
				"method": "rhf"
			},
			{
				"type": "occ",
				"energy": -0.22982,
				"method": "rhf"
			},
			{
				"type": "unocc",
				"energy": -0.00128,
				"method": "rhf"
			},
			{
				"type": "unocc",
				"energy": 0.06271,
				"method": "rhf"
			},
			{
				"type": "unocc",
				"energy": 0.06652,
				"method": "rhf"
			},
			{
				"type": "unocc",
				"energy": 0.08325,
				"method": "rhf"
			},
			{
				"type": "unocc",
				"energy": 0.0954,
				"method": "rhf"
			}
		],
		"cosmo_sigma_profile": { 
			"-0.025": 0.0,
			"-0.024": 0.0,
			"-0.023": 0.0,
			"-0.022": 0.0,
			"-0.021": 0.0,
			"-0.02": 0.0,
			"-0.019": 0.0,
			"-0.018": 0.0,
			"-0.017": 0.0,
			"-0.016": 0.0,
			"-0.015": 0.421996486895,
			"-0.014": 1.11286002107,
			"-0.013": 1.49573336795,
			"-0.012": 0.277320558763,
			"-0.011": 0.940547197303,
			"-0.01": 2.57523360034,
			"-0.009": 4.23841304869,
			"-0.008": 4.24402405393,
			"-0.007": 3.94205090709,
			"-0.006": 5.22568411361,
			"-0.005": 9.35219315387,
			"-0.004": 15.1412260926,
			"-0.003": 28.9463249005,
			"-0.002": 44.0879269115,
			"-0.001": 44.0494756933,
			"0.0": 27.9698860202,
			"0.001": 15.5119481429,
			"0.002": 5.65026656828,
			"0.003": 5.29285824201,
			"0.004": 5.43898328742,
			"0.005": 5.44520200209,
			"0.006": 3.84819928118,
			"0.007": 2.74312815578,
			"0.008": 3.53688676846,
			"0.009": 3.85625311762,
			"0.01": 4.38495201423,
			"0.011": 5.24540712453,
			"0.012": 7.53752586159,
			"0.013": 8.40292873814,
			"0.014": 1.95467491746,
			"0.015": 0.430119782362,
			"0.016": 0.614786587152,
			"0.017": 0.0502273542311,
			"0.018": 0.0,
			"0.019": 0.0,
			"0.02": 0.0,
			"0.021": 0.0,
			"0.022": 0.0,
			"0.023": 0.0,
			"0.024": 0.0,
			"0.025": 0.0
		}
	}
}
