{
	 "smiles": "OC(=O)C1=CC=C(C=C1)N1CCCC2=C1C=CC=C2", 
	 "Tm": 488.15, 
	 "num_atms": 34, 
	 "gaussian": { 
		 "optdone": 1, 
		 "sigma_profile": "yes", 
		 "theory": "DFT", 
		 "functional": "B3LYP", 
		 "basiset": "6-31G**", 
		 "properties": { 
			 "R2extent": 6880.0759, 
			 "electric_dipole_moment_norm": 4.08190425414, 
			 "electric_quadrupole_moment_norm": 12.7488181962, 
			 "total_energy": -823.971487952, 
			 "HOMO_LUMO_gap": 0.15589, 
			 "cosmo_polarized_energy": -12.11, 
			 "cosmo_cavitation_energy": 36.34, 
			 "cosmo_dispersion_energy": -26.53, 
			 "cosmo_repulsion_energy": 2.02, 
			 "cosmo_total_nonelectrostatic_energy": 11.83, 
			 "SMD_solvation_energy": 6.32 
		},
		"coords": [
			{
				"x": 5.9227979675,
				"y": 0.6526826935,
				"z": -1.8000259636,
				"element": "O" 
			},
			{
				"x": 5.2747819598,
				"y": 1.3604251292,
				"z": -0.8339434876,
				"element": "C" 
			},
			{
				"x": 5.8540399954,
				"y": 2.1915974933,
				"z": -0.1580822783,
				"element": "O" 
			},
			{
				"x": 3.8460026794,
				"y": 1.0089721983,
				"z": -0.7133925156,
				"element": "C" 
			},
			{
				"x": 3.2277951171,
				"y": 0.0485920004,
				"z": -1.5235023664,
				"element": "C" 
			},
			{
				"x": 1.8779152023,
				"y": -0.247471304,
				"z": -1.3743201544,
				"element": "C" 
			},
			{
				"x": 1.092326455,
				"y": 0.412269751,
				"z": -0.403212367,
				"element": "C" 
			},
			{
				"x": 1.7286289869,
				"y": 1.3728873447,
				"z": 0.4193756369,
				"element": "C" 
			},
			{
				"x": 3.072613673,
				"y": 1.6615937362,
				"z": 0.2611346994,
				"element": "C" 
			},
			{
				"x": -0.2526999477,
				"y": 0.0742222779,
				"z": -0.2263566798,
				"element": "N" 
			},
			{
				"x": -0.694995287,
				"y": -1.2590396257,
				"z": -0.6803067531,
				"element": "C" 
			},
			{
				"x": -2.0582432168,
				"y": -1.6689722175,
				"z": -0.105308389,
				"element": "C" 
			},
			{
				"x": -2.2419986645,
				"y": -1.0941083301,
				"z": 1.3075630151,
				"element": "C" 
			},
			{
				"x": -2.200910481,
				"y": 0.4063442891,
				"z": 1.1850761517,
				"element": "C" 
			},
			{
				"x": -1.1948595689,
				"y": 0.9544107248,
				"z": 0.3625361461,
				"element": "C" 
			},
			{
				"x": -1.1754825819,
				"y": 2.337472539,
				"z": 0.122673958,
				"element": "C" 
			},
			{
				"x": -2.1141062199,
				"y": 3.1684359443,
				"z": 0.7312986232,
				"element": "C" 
			},
			{
				"x": -3.1031844244,
				"y": 2.6321639579,
				"z": 1.5580073905,
				"element": "C" 
			},
			{
				"x": -3.147881199,
				"y": 1.2526440834,
				"z": 1.7636191253,
				"element": "C" 
			},
			{
				"x": 6.8392003873,
				"y": 0.9726327444,
				"z": -1.7798680229,
				"element": "H" 
			},
			{
				"x": 3.8078581854,
				"y": -0.4644987886,
				"z": -2.2825730164,
				"element": "H" 
			},
			{
				"x": 1.4302852156,
				"y": -0.9824956445,
				"z": -2.0316272299,
				"element": "H" 
			},
			{
				"x": 1.1619413333,
				"y": 1.8735030524,
				"z": 1.1948270754,
				"element": "H" 
			},
			{
				"x": 3.5567138242,
				"y": 2.3909253589,
				"z": 0.9022790154,
				"element": "H" 
			},
			{
				"x": 0.0694017539,
				"y": -1.9793892657,
				"z": -0.3660122125,
				"element": "H" 
			},
			{
				"x": -0.7394733766,
				"y": -1.294902391,
				"z": -1.7781369614,
				"element": "H" 
			},
			{
				"x": -2.8671795465,
				"y": -1.2950601179,
				"z": -0.7422946215,
				"element": "H" 
			},
			{
				"x": -2.1217427159,
				"y": -2.7623700451,
				"z": -0.1124872911,
				"element": "H" 
			},
			{
				"x": -1.4332919371,
				"y": -1.4570769117,
				"z": 1.9580541892,
				"element": "H" 
			},
			{
				"x": -3.1869020323,
				"y": -1.4235502686,
				"z": 1.7504682236,
				"element": "H" 
			},
			{
				"x": -0.4247599669,
				"y": 2.7570450871,
				"z": -0.538062582,
				"element": "H" 
			},
			{
				"x": -2.0802488368,
				"y": 4.2375683568,
				"z": 0.542407964,
				"element": "H" 
			},
			{
				"x": -3.839086512,
				"y": 3.2788002217,
				"z": 2.0260333345,
				"element": "H" 
			},
			{
				"x": -3.9268562211,
				"y": 0.8200459261,
				"z": 2.3869583441,
				"element": "H" 
			}
		],
		 "valence_orbital": [ 
			{
				"type": "occ",
				"energy": -0.26429,
				"method": "rhf"
			},
			{
				"type": "occ",
				"energy": -0.25748,
				"method": "rhf"
			},
			{
				"type": "occ",
				"energy": -0.25382,
				"method": "rhf"
			},
			{
				"type": "occ",
				"energy": -0.24591,
				"method": "rhf"
			},
			{
				"type": "occ",
				"energy": -0.19327,
				"method": "rhf"
			},
			{
				"type": "unocc",
				"energy": -0.03738,
				"method": "rhf"
			},
			{
				"type": "unocc",
				"energy": -0.00724,
				"method": "rhf"
			},
			{
				"type": "unocc",
				"energy": 0.00273,
				"method": "rhf"
			},
			{
				"type": "unocc",
				"energy": 0.00504,
				"method": "rhf"
			},
			{
				"type": "unocc",
				"energy": 0.0717,
				"method": "rhf"
			}
		],
		"cosmo_sigma_profile": { 
			"-0.025": 0.0,
			"-0.024": 0.0,
			"-0.023": 0.0,
			"-0.022": 0.0,
			"-0.021": 0.0,
			"-0.02": 0.0,
			"-0.019": 0.0,
			"-0.018": 0.419363763446,
			"-0.017": 0.745758967523,
			"-0.016": 1.39334488778,
			"-0.015": 0.405696541394,
			"-0.014": 0.190060240856,
			"-0.013": 0.589910710143,
			"-0.012": 0.976311858296,
			"-0.011": 1.01944494444,
			"-0.01": 0.588906965956,
			"-0.009": 0.716364960187,
			"-0.008": 0.258195980506,
			"-0.007": 1.06116624354,
			"-0.006": 7.08888601484,
			"-0.005": 17.7016984172,
			"-0.004": 29.7007589681,
			"-0.003": 30.4839607901,
			"-0.002": 27.0826767377,
			"-0.001": 26.0723029689,
			"0.0": 20.7441150897,
			"0.001": 18.2738735224,
			"0.002": 19.930030146,
			"0.003": 20.0213225447,
			"0.004": 19.873273282,
			"0.005": 13.1663095599,
			"0.006": 10.0971267842,
			"0.007": 4.20765715252,
			"0.008": 2.97720247868,
			"0.009": 1.73663834882,
			"0.01": 1.46497981549,
			"0.011": 2.54373537806,
			"0.012": 5.02571205905,
			"0.013": 2.15728732547,
			"0.014": 0.0,
			"0.015": 0.0,
			"0.016": 0.0,
			"0.017": 0.0,
			"0.018": 0.0,
			"0.019": 0.0,
			"0.02": 0.0,
			"0.021": 0.0,
			"0.022": 0.0,
			"0.023": 0.0,
			"0.024": 0.0,
			"0.025": 0.0
		}
	}
}
