{
	 "smiles": "O=C(CC1=NC2=C(N1)C=CC=C2)NCC1=NC=CC=C1", 
	 "Tm": 450.15, 
	 "num_atms": 34, 
	 "gaussian": { 
		 "optdone": 1, 
		 "sigma_profile": "yes", 
		 "theory": "DFT", 
		 "functional": "B3LYP", 
		 "basiset": "6-31G**", 
		 "properties": { 
			 "R2extent": 7285.8562, 
			 "electric_dipole_moment_norm": 5.01957964973, 
			 "electric_quadrupole_moment_norm": 19.7055988356, 
			 "total_energy": -874.299693196, 
			 "HOMO_LUMO_gap": 0.20263, 
			 "cosmo_polarized_energy": -20.25, 
			 "cosmo_cavitation_energy": 38.89, 
			 "cosmo_dispersion_energy": -27.46, 
			 "cosmo_repulsion_energy": 2.14, 
			 "cosmo_total_nonelectrostatic_energy": 13.56, 
			 "SMD_solvation_energy": 3.89 
		},
		"coords": [
			{
				"x": -2.5266517092,
				"y": 2.0197168513,
				"z": 2.6773244746,
				"element": "O" 
			},
			{
				"x": -1.5836871339,
				"y": 1.7912362109,
				"z": 1.9286928994,
				"element": "C" 
			},
			{
				"x": -1.6800588662,
				"y": 2.204108199,
				"z": 0.4435271832,
				"element": "C" 
			},
			{
				"x": -0.922410359,
				"y": 1.3857376632,
				"z": -0.5568446308,
				"element": "C" 
			},
			{
				"x": 0.3187104811,
				"y": 0.969501511,
				"z": -0.4280584807,
				"element": "N" 
			},
			{
				"x": 0.6065845524,
				"y": 0.2784816477,
				"z": -1.5981651344,
				"element": "C" 
			},
			{
				"x": -0.5170178853,
				"y": 0.2948786747,
				"z": -2.4580311471,
				"element": "C" 
			},
			{
				"x": -1.4775936298,
				"y": 1.0098972847,
				"z": -1.759400118,
				"element": "N" 
			},
			{
				"x": -0.5140904581,
				"y": -0.3220818869,
				"z": -3.7099310547,
				"element": "C" 
			},
			{
				"x": 0.6619807843,
				"y": -0.9669627488,
				"z": -4.0860702468,
				"element": "C" 
			},
			{
				"x": 1.7901929835,
				"y": -0.9936277552,
				"z": -3.2418809623,
				"element": "C" 
			},
			{
				"x": 1.7787948092,
				"y": -0.3763197991,
				"z": -1.9949635484,
				"element": "C" 
			},
			{
				"x": -0.3998329263,
				"y": 1.2504629132,
				"z": 2.3151758683,
				"element": "N" 
			},
			{
				"x": -0.1307923955,
				"y": 0.8901264173,
				"z": 3.6946348504,
				"element": "C" 
			},
			{
				"x": 0.1812580969,
				"y": -0.580980438,
				"z": 3.9113460688,
				"element": "C" 
			},
			{
				"x": 0.8922826523,
				"y": -0.8504878009,
				"z": 5.0179578523,
				"element": "N" 
			},
			{
				"x": 1.1695223237,
				"y": -2.1302799509,
				"z": 5.2896171439,
				"element": "C" 
			},
			{
				"x": 0.7697742366,
				"y": -3.1975809907,
				"z": 4.4845198303,
				"element": "C" 
			},
			{
				"x": 0.0376117392,
				"y": -2.9101581627,
				"z": 3.3334828181,
				"element": "C" 
			},
			{
				"x": -0.2641294567,
				"y": -1.5815962471,
				"z": 3.0402424607,
				"element": "C" 
			},
			{
				"x": -1.333518239,
				"y": 3.2454231077,
				"z": 0.3912862189,
				"element": "H" 
			},
			{
				"x": -2.7460754325,
				"y": 2.2182878773,
				"z": 0.2054377516,
				"element": "H" 
			},
			{
				"x": -2.4151798378,
				"y": 1.219282505,
				"z": -2.0656694046,
				"element": "H" 
			},
			{
				"x": -1.3818091352,
				"y": -0.3037806665,
				"z": -4.3623758923,
				"element": "H" 
			},
			{
				"x": 0.709992093,
				"y": -1.4601102409,
				"z": -5.0522496886,
				"element": "H" 
			},
			{
				"x": 2.6864744845,
				"y": -1.5076983193,
				"z": -3.5756969666,
				"element": "H" 
			},
			{
				"x": 2.6451926731,
				"y": -0.3935840706,
				"z": -1.3418469524,
				"element": "H" 
			},
			{
				"x": 0.2979617512,
				"y": 1.0816388587,
				"z": 1.5916850588,
				"element": "H" 
			},
			{
				"x": -1.0216709897,
				"y": 1.1678113965,
				"z": 4.2675905463,
				"element": "H" 
			},
			{
				"x": 0.7070658084,
				"y": 1.4722592659,
				"z": 4.0944200172,
				"element": "H" 
			},
			{
				"x": 1.7466273989,
				"y": -2.3109914776,
				"z": 6.19538207,
				"element": "H" 
			},
			{
				"x": 1.0295737411,
				"y": -4.2169208352,
				"z": 4.751985956,
				"element": "H" 
			},
			{
				"x": -0.2937494779,
				"y": -3.7070094834,
				"z": 2.6733478267,
				"element": "H" 
			},
			{
				"x": -0.8277326772,
				"y": -1.3164795102,
				"z": 2.1526273323,
				"element": "H" 
			}
		],
		 "valence_orbital": [ 
			{
				"type": "occ",
				"energy": -0.25302,
				"method": "rhf"
			},
			{
				"type": "occ",
				"energy": -0.24841,
				"method": "rhf"
			},
			{
				"type": "occ",
				"energy": -0.24174,
				"method": "rhf"
			},
			{
				"type": "occ",
				"energy": -0.2373,
				"method": "rhf"
			},
			{
				"type": "occ",
				"energy": -0.22811,
				"method": "rhf"
			},
			{
				"type": "unocc",
				"energy": -0.02548,
				"method": "rhf"
			},
			{
				"type": "unocc",
				"energy": -0.01978,
				"method": "rhf"
			},
			{
				"type": "unocc",
				"energy": -0.00511,
				"method": "rhf"
			},
			{
				"type": "unocc",
				"energy": 0.0128,
				"method": "rhf"
			},
			{
				"type": "unocc",
				"energy": 0.02932,
				"method": "rhf"
			}
		],
		"cosmo_sigma_profile": { 
			"-0.025": 0.0,
			"-0.024": 0.0,
			"-0.023": 0.0,
			"-0.022": 0.0,
			"-0.021": 0.0,
			"-0.02": 0.0,
			"-0.019": 0.0,
			"-0.018": 0.0,
			"-0.017": 0.464248810499,
			"-0.016": 1.60002729304,
			"-0.015": 1.67382289006,
			"-0.014": 1.55545866531,
			"-0.013": 1.42097126398,
			"-0.012": 1.36903250784,
			"-0.011": 1.77176304436,
			"-0.01": 1.31778254244,
			"-0.009": 1.21559483677,
			"-0.008": 4.27376093047,
			"-0.007": 8.9083204548,
			"-0.006": 16.2187909473,
			"-0.005": 24.5110937469,
			"-0.004": 25.2159394638,
			"-0.003": 22.2719209554,
			"-0.002": 18.2685601766,
			"-0.001": 19.3883625457,
			"0.0": 17.9752782182,
			"0.001": 20.6196695436,
			"0.002": 22.3726741351,
			"0.003": 24.2667995954,
			"0.004": 16.7634137955,
			"0.005": 14.8905979371,
			"0.006": 11.1617211778,
			"0.007": 3.45242703131,
			"0.008": 3.98526773596,
			"0.009": 4.04295262488,
			"0.01": 2.53729180997,
			"0.011": 2.98522607896,
			"0.012": 2.74791655226,
			"0.013": 4.53110058055,
			"0.014": 5.65159646444,
			"0.015": 1.32648547045,
			"0.016": 0.555414350165,
			"0.017": 0.0,
			"0.018": 0.0,
			"0.019": 0.0,
			"0.02": 0.0,
			"0.021": 0.0,
			"0.022": 0.0,
			"0.023": 0.0,
			"0.024": 0.0,
			"0.025": 0.0
		}
	}
}
