{
	 "smiles": "O=C1CCCCCN1CC1=CC=CC=C1", 
	 "Tm": 329.65, 
	 "num_atms": 32, 
	 "gaussian": { 
		 "optdone": 1, 
		 "sigma_profile": "yes", 
		 "theory": "DFT", 
		 "functional": "B3LYP", 
		 "basiset": "6-31G**", 
		 "properties": { 
			 "R2extent": 3366.6606, 
			 "electric_dipole_moment_norm": 3.48297983198, 
			 "electric_quadrupole_moment_norm": 9.37247886687, 
			 "total_energy": -635.625472167, 
			 "HOMO_LUMO_gap": 0.22548, 
			 "cosmo_polarized_energy": -10.41, 
			 "cosmo_cavitation_energy": 32.36, 
			 "cosmo_dispersion_energy": -22.9, 
			 "cosmo_repulsion_energy": 1.78, 
			 "cosmo_total_nonelectrostatic_energy": 11.24, 
			 "SMD_solvation_energy": 4.66 
		},
		"coords": [
			{
				"x": 1.91893928,
				"y": -0.8254951005,
				"z": 2.245709057,
				"element": "O" 
			},
			{
				"x": 0.8452082607,
				"y": -0.2464905033,
				"z": 2.0887073487,
				"element": "C" 
			},
			{
				"x": 0.4656674045,
				"y": 0.9822031001,
				"z": 2.9150557209,
				"element": "C" 
			},
			{
				"x": 0.4197067642,
				"y": 2.3164543235,
				"z": 2.1094686648,
				"element": "C" 
			},
			{
				"x": 0.2477714883,
				"y": 2.1628203091,
				"z": 0.5883151197,
				"element": "C" 
			},
			{
				"x": -1.0305049265,
				"y": 1.4405820429,
				"z": 0.1342551825,
				"element": "C" 
			},
			{
				"x": -1.2931750956,
				"y": 0.1194373622,
				"z": 0.8892793294,
				"element": "C" 
			},
			{
				"x": -0.0905388363,
				"y": -0.6670474179,
				"z": 1.1704554384,
				"element": "N" 
			},
			{
				"x": 0.2159415914,
				"y": -1.835839227,
				"z": 0.3357492812,
				"element": "C" 
			},
			{
				"x": 0.768035585,
				"y": -1.4962490996,
				"z": -1.0374373909,
				"element": "C" 
			},
			{
				"x": 2.0761323459,
				"y": -1.0029699081,
				"z": -1.1681059434,
				"element": "C" 
			},
			{
				"x": 2.5862784874,
				"y": -0.6788450489,
				"z": -2.4246855696,
				"element": "C" 
			},
			{
				"x": 1.8007640196,
				"y": -0.8457903956,
				"z": -3.569151984,
				"element": "C" 
			},
			{
				"x": 0.5025329011,
				"y": -1.3417097742,
				"z": -3.449650754,
				"element": "C" 
			},
			{
				"x": -0.0082828314,
				"y": -1.6648196329,
				"z": -2.1895529397,
				"element": "C" 
			},
			{
				"x": 1.2114854711,
				"y": 1.0444508891,
				"z": 3.70908934,
				"element": "H" 
			},
			{
				"x": -0.5010524595,
				"y": 0.800154352,
				"z": 3.3979537761,
				"element": "H" 
			},
			{
				"x": 1.3547871943,
				"y": 2.8588753131,
				"z": 2.2848320081,
				"element": "H" 
			},
			{
				"x": -0.3805077276,
				"y": 2.9492820638,
				"z": 2.5124980603,
				"element": "H" 
			},
			{
				"x": 1.1145523512,
				"y": 1.6239841517,
				"z": 0.1879524206,
				"element": "H" 
			},
			{
				"x": 0.2746616982,
				"y": 3.1571409924,
				"z": 0.1270691096,
				"element": "H" 
			},
			{
				"x": -0.9544162831,
				"y": 1.241101875,
				"z": -0.9402887079,
				"element": "H" 
			},
			{
				"x": -1.9059127243,
				"y": 2.0880944034,
				"z": 0.2762116243,
				"element": "H" 
			},
			{
				"x": -1.9723282365,
				"y": -0.5131548226,
				"z": 0.3106830916,
				"element": "H" 
			},
			{
				"x": -1.8067729873,
				"y": 0.3300807905,
				"z": 1.833657743,
				"element": "H" 
			},
			{
				"x": 0.9442389333,
				"y": -2.4255059481,
				"z": 0.8958561525,
				"element": "H" 
			},
			{
				"x": -0.7011059519,
				"y": -2.4267519118,
				"z": 0.2316098,
				"element": "H" 
			},
			{
				"x": 2.6839878293,
				"y": -0.8843549994,
				"z": -0.2756433952,
				"element": "H" 
			},
			{
				"x": 3.6015029905,
				"y": -0.301885217,
				"z": -2.5132725445,
				"element": "H" 
			},
			{
				"x": 2.2014714991,
				"y": -0.5956598671,
				"z": -4.547423965,
				"element": "H" 
			},
			{
				"x": -0.1124268036,
				"y": -1.4804461812,
				"z": -4.3346039755,
				"element": "H" 
			},
			{
				"x": -1.0185412314,
				"y": -2.0591469136,
				"z": -2.1024910989,
				"element": "H" 
			}
		],
		 "valence_orbital": [ 
			{
				"type": "occ",
				"energy": -0.31885,
				"method": "rhf"
			},
			{
				"type": "occ",
				"energy": -0.25146,
				"method": "rhf"
			},
			{
				"type": "occ",
				"energy": -0.24822,
				"method": "rhf"
			},
			{
				"type": "occ",
				"energy": -0.23413,
				"method": "rhf"
			},
			{
				"type": "occ",
				"energy": -0.22981,
				"method": "rhf"
			},
			{
				"type": "unocc",
				"energy": -0.00433,
				"method": "rhf"
			},
			{
				"type": "unocc",
				"energy": 0.00024,
				"method": "rhf"
			},
			{
				"type": "unocc",
				"energy": 0.03028,
				"method": "rhf"
			},
			{
				"type": "unocc",
				"energy": 0.07457,
				"method": "rhf"
			},
			{
				"type": "unocc",
				"energy": 0.0893,
				"method": "rhf"
			}
		],
		"cosmo_sigma_profile": { 
			"-0.025": 0.0,
			"-0.024": 0.0,
			"-0.023": 0.0,
			"-0.022": 0.0,
			"-0.021": 0.0,
			"-0.02": 0.0,
			"-0.019": 0.0,
			"-0.018": 0.0,
			"-0.017": 0.0,
			"-0.016": 0.0,
			"-0.015": 0.0,
			"-0.014": 0.0,
			"-0.013": 0.0,
			"-0.012": 0.0,
			"-0.011": 0.0,
			"-0.01": 0.0,
			"-0.009": 0.0,
			"-0.008": 0.0,
			"-0.007": 0.228936837865,
			"-0.006": 7.65798937609,
			"-0.005": 17.7901311682,
			"-0.004": 19.1528758179,
			"-0.003": 31.5018151601,
			"-0.002": 32.1811082493,
			"-0.001": 34.7716223792,
			"0.0": 25.1929348903,
			"0.001": 18.4412055361,
			"0.002": 12.1688599366,
			"0.003": 10.807294711,
			"0.004": 8.99149447353,
			"0.005": 9.95741110392,
			"0.006": 7.98086989746,
			"0.007": 1.59957130072,
			"0.008": 1.63023576691,
			"0.009": 1.09960617841,
			"0.01": 1.10142879253,
			"0.011": 1.51976016179,
			"0.012": 1.59535796317,
			"0.013": 2.07570379511,
			"0.014": 3.61172784979,
			"0.015": 2.24000111937,
			"0.016": 0.307090993695,
			"0.017": 0.0,
			"0.018": 0.0,
			"0.019": 0.0,
			"0.02": 0.0,
			"0.021": 0.0,
			"0.022": 0.0,
			"0.023": 0.0,
			"0.024": 0.0,
			"0.025": 0.0
		}
	}
}
