{
	 "smiles": "COC1=CC=C(NN=C2C(=O)N(CO)N=C2C(F)(F)F)C=C1", 
	 "Tm": 415.15, 
	 "num_atms": 33, 
	 "gaussian": { 
		 "optdone": 1, 
		 "sigma_profile": "yes", 
		 "theory": "DFT", 
		 "functional": "B3LYP", 
		 "basiset": "6-31G**", 
		 "properties": { 
			 "R2extent": 10868.7926, 
			 "electric_dipole_moment_norm": 5.94528046941, 
			 "electric_quadrupole_moment_norm": 15.9394272331, 
			 "total_energy": -1208.02714062, 
			 "HOMO_LUMO_gap": 0.11353, 
			 "cosmo_polarized_energy": -20.15, 
			 "cosmo_cavitation_energy": 40.54, 
			 "cosmo_dispersion_energy": -28.31, 
			 "cosmo_repulsion_energy": 2.11, 
			 "cosmo_total_nonelectrostatic_energy": 14.34, 
			 "SMD_solvation_energy": 7.98 
		},
		"coords": [
			{
				"x": 1.0533366955,
				"y": -2.5484341618,
				"z": -5.7542100969,
				"element": "C" 
			},
			{
				"x": 0.2583224378,
				"y": -1.6148755375,
				"z": -5.0387490319,
				"element": "O" 
			},
			{
				"x": 0.5157008104,
				"y": -1.4270076149,
				"z": -3.7148380469,
				"element": "C" 
			},
			{
				"x": 1.5154029466,
				"y": -2.0894847044,
				"z": -2.9929208365,
				"element": "C" 
			},
			{
				"x": 1.6860220078,
				"y": -1.8139711623,
				"z": -1.6354674353,
				"element": "C" 
			},
			{
				"x": 0.8674216757,
				"y": -0.8829009366,
				"z": -0.9935957067,
				"element": "C" 
			},
			{
				"x": 1.0758950735,
				"y": -0.6389957765,
				"z": 0.3782454089,
				"element": "N" 
			},
			{
				"x": 0.3647864982,
				"y": 0.2410871492,
				"z": 1.0271463307,
				"element": "N" 
			},
			{
				"x": 0.5307708401,
				"y": 0.483171805,
				"z": 2.3032952672,
				"element": "C" 
			},
			{
				"x": -0.2825711847,
				"y": 1.5451239722,
				"z": 2.958538643,
				"element": "C" 
			},
			{
				"x": -1.1469115889,
				"y": 2.284244845,
				"z": 2.5252417859,
				"element": "O" 
			},
			{
				"x": 0.209895853,
				"y": 1.5414984103,
				"z": 4.2777589868,
				"element": "N" 
			},
			{
				"x": -0.3416675937,
				"y": 2.2714073187,
				"z": 5.4030728362,
				"element": "C" 
			},
			{
				"x": -1.1813368428,
				"y": 1.4932941764,
				"z": 6.2157255749,
				"element": "O" 
			},
			{
				"x": 1.1472435485,
				"y": 0.5804181974,
				"z": 4.5024240652,
				"element": "N" 
			},
			{
				"x": 1.3704005756,
				"y": -0.0361691616,
				"z": 3.3723648837,
				"element": "C" 
			},
			{
				"x": 2.333099245,
				"y": -1.1760616443,
				"z": 3.3379124137,
				"element": "C" 
			},
			{
				"x": 2.9916762583,
				"y": -1.3435722455,
				"z": 4.4828820981,
				"element": "F" 
			},
			{
				"x": 1.7045142893,
				"y": -2.338984957,
				"z": 3.0300651618,
				"element": "F" 
			},
			{
				"x": 3.2609975699,
				"y": -0.9956476381,
				"z": 2.3437750584,
				"element": "F" 
			},
			{
				"x": -0.1374734969,
				"y": -0.217616352,
				"z": -1.7138068484,
				"element": "C" 
			},
			{
				"x": -0.3053461327,
				"y": -0.4912412117,
				"z": -3.060900596,
				"element": "C" 
			},
			{
				"x": 0.6796856164,
				"y": -2.5388653849,
				"z": -6.7789111784,
				"element": "H" 
			},
			{
				"x": 0.9548462021,
				"y": -3.5615047602,
				"z": -5.343531158,
				"element": "H" 
			},
			{
				"x": 2.1126718325,
				"y": -2.2612135333,
				"z": -5.7536062085,
				"element": "H" 
			},
			{
				"x": 2.1630176334,
				"y": -2.8157252541,
				"z": -3.4683478239,
				"element": "H" 
			},
			{
				"x": 2.4636083082,
				"y": -2.3317283328,
				"z": -1.0792125458,
				"element": "H" 
			},
			{
				"x": 1.8398037828,
				"y": -1.1392129868,
				"z": 0.828584363,
				"element": "H" 
			},
			{
				"x": -0.9498223625,
				"y": 3.0688029708,
				"z": 4.9737351065,
				"element": "H" 
			},
			{
				"x": 0.4985355435,
				"y": 2.6966109698,
				"z": 5.9658035389,
				"element": "H" 
			},
			{
				"x": -0.6317465528,
				"y": 0.8252522177,
				"z": 6.647940526,
				"element": "H" 
			},
			{
				"x": -0.7680892362,
				"y": 0.5025336588,
				"z": -1.2064190563,
				"element": "H" 
			},
			{
				"x": -1.0746902528,
				"y": 0.0109676652,
				"z": -3.6376954795,
				"element": "H" 
			}
		],
		 "valence_orbital": [ 
			{
				"type": "occ",
				"energy": -0.28906,
				"method": "rhf"
			},
			{
				"type": "occ",
				"energy": -0.2702,
				"method": "rhf"
			},
			{
				"type": "occ",
				"energy": -0.25498,
				"method": "rhf"
			},
			{
				"type": "occ",
				"energy": -0.24683,
				"method": "rhf"
			},
			{
				"type": "occ",
				"energy": -0.2086,
				"method": "rhf"
			},
			{
				"type": "unocc",
				"energy": -0.09507,
				"method": "rhf"
			},
			{
				"type": "unocc",
				"energy": -0.02004,
				"method": "rhf"
			},
			{
				"type": "unocc",
				"energy": -0.00055,
				"method": "rhf"
			},
			{
				"type": "unocc",
				"energy": 0.01864,
				"method": "rhf"
			},
			{
				"type": "unocc",
				"energy": 0.07636,
				"method": "rhf"
			}
		],
		"cosmo_sigma_profile": { 
			"-0.025": 0.0,
			"-0.024": 0.0,
			"-0.023": 0.0,
			"-0.022": 0.0,
			"-0.021": 0.0,
			"-0.02": 0.0,
			"-0.019": 0.0,
			"-0.018": 0.0,
			"-0.017": 0.00578354954776,
			"-0.016": 0.659943745548,
			"-0.015": 0.789538689628,
			"-0.014": 1.29837021359,
			"-0.013": 2.13743726156,
			"-0.012": 1.27369959293,
			"-0.011": 1.42105795357,
			"-0.01": 2.41096892069,
			"-0.009": 2.3694222575,
			"-0.008": 2.79813072077,
			"-0.007": 10.9739555041,
			"-0.006": 19.4466967419,
			"-0.005": 21.8089939064,
			"-0.004": 21.2687050897,
			"-0.003": 23.0719499617,
			"-0.002": 22.3072002615,
			"-0.001": 21.2343921016,
			"0.0": 20.2505543992,
			"0.001": 27.1435131514,
			"0.002": 34.4534680835,
			"0.003": 22.8161552602,
			"0.004": 14.1461954749,
			"0.005": 6.32801916727,
			"0.006": 4.85366279761,
			"0.007": 5.91984475027,
			"0.008": 4.00633739141,
			"0.009": 5.51501311647,
			"0.01": 5.33145663176,
			"0.011": 4.75953684906,
			"0.012": 7.07421543588,
			"0.013": 5.85046598738,
			"0.014": 0.986019511583,
			"0.015": 0.0,
			"0.016": 0.0,
			"0.017": 0.0,
			"0.018": 0.0,
			"0.019": 0.0,
			"0.02": 0.0,
			"0.021": 0.0,
			"0.022": 0.0,
			"0.023": 0.0,
			"0.024": 0.0,
			"0.025": 0.0
		}
	}
}
