{
	 "smiles": "COC1=CC(=CC(OC)=C1OC)N=C=O", 
	 "Tm": 313.15, 
	 "num_atms": 26, 
	 "gaussian": { 
		 "optdone": 1, 
		 "sigma_profile": "yes", 
		 "theory": "DFT", 
		 "functional": "B3LYP", 
		 "basiset": "6-31G**", 
		 "properties": { 
			 "R2extent": 4576.5393, 
			 "electric_dipole_moment_norm": 3.6621923666, 
			 "electric_quadrupole_moment_norm": 12.8921944788, 
			 "total_energy": -743.285965868, 
			 "HOMO_LUMO_gap": 0.20439, 
			 "cosmo_polarized_energy": -7.74, 
			 "cosmo_cavitation_energy": 31.51, 
			 "cosmo_dispersion_energy": -21.68, 
			 "cosmo_repulsion_energy": 1.73, 
			 "cosmo_total_nonelectrostatic_energy": 11.57, 
			 "SMD_solvation_energy": 10.15 
		},
		"coords": [
			{
				"x": -1.50468005,
				"y": -0.5975262625,
				"z": -2.7716785742,
				"element": "C" 
			},
			{
				"x": -0.0729161976,
				"y": -0.6124531985,
				"z": -2.7104733962,
				"element": "O" 
			},
			{
				"x": 0.4652069327,
				"y": -1.0101503873,
				"z": -1.5112551323,
				"element": "C" 
			},
			{
				"x": 1.211484097,
				"y": -2.1880221154,
				"z": -1.4765728943,
				"element": "C" 
			},
			{
				"x": 1.8371275502,
				"y": -2.5789427704,
				"z": -0.2888113332,
				"element": "C" 
			},
			{
				"x": 1.698030601,
				"y": -1.8059419233,
				"z": 0.8711338129,
				"element": "C" 
			},
			{
				"x": 0.9548680376,
				"y": -0.6257087474,
				"z": 0.8332817604,
				"element": "C" 
			},
			{
				"x": 0.9132005623,
				"y": 0.1485970939,
				"z": 1.9644551089,
				"element": "O" 
			},
			{
				"x": -0.3780478389,
				"y": 0.3177374268,
				"z": 2.5621813743,
				"element": "C" 
			},
			{
				"x": 0.3349042365,
				"y": -0.2136422012,
				"z": -0.3601566424,
				"element": "C" 
			},
			{
				"x": -0.3866876283,
				"y": 0.959795093,
				"z": -0.3966104252,
				"element": "O" 
			},
			{
				"x": 0.366084964,
				"y": 2.083412506,
				"z": -0.8766553614,
				"element": "C" 
			},
			{
				"x": 2.5820588531,
				"y": -3.7622340646,
				"z": -0.2972281874,
				"element": "N" 
			},
			{
				"x": 3.2475348981,
				"y": -4.4469150884,
				"z": 0.444817741,
				"element": "C" 
			},
			{
				"x": 3.9152595909,
				"y": -5.2011352474,
				"z": 1.0574948836,
				"element": "O" 
			},
			{
				"x": -1.9278593575,
				"y": 0.0948551004,
				"z": -2.0387009108,
				"element": "H" 
			},
			{
				"x": -1.7603392973,
				"y": -0.2697375649,
				"z": -3.7811780074,
				"element": "H" 
			},
			{
				"x": -1.9094652996,
				"y": -1.6038038925,
				"z": -2.6057586987,
				"element": "H" 
			},
			{
				"x": 1.311577639,
				"y": -2.7832583504,
				"z": -2.3761758855,
				"element": "H" 
			},
			{
				"x": 2.1737670059,
				"y": -2.0944587947,
				"z": 1.8020004308,
				"element": "H" 
			},
			{
				"x": -1.0724337981,
				"y": 0.8127202848,
				"z": 1.8783562465,
				"element": "H" 
			},
			{
				"x": -0.7909497373,
				"y": -0.6506064753,
				"z": 2.8722377137,
				"element": "H" 
			},
			{
				"x": -0.2212391483,
				"y": 0.9399137623,
				"z": 3.4454805577,
				"element": "H" 
			},
			{
				"x": 1.2241876148,
				"y": 2.2816765075,
				"z": -0.2246573949,
				"element": "H" 
			},
			{
				"x": -0.3121205891,
				"y": 2.9389980436,
				"z": -0.8570936576,
				"element": "H" 
			},
			{
				"x": 0.7104463591,
				"y": 1.910531266,
				"z": -1.9018331282,
				"element": "H" 
			}
		],
		 "valence_orbital": [ 
			{
				"type": "occ",
				"energy": -0.29992,
				"method": "rhf"
			},
			{
				"type": "occ",
				"energy": -0.28151,
				"method": "rhf"
			},
			{
				"type": "occ",
				"energy": -0.26737,
				"method": "rhf"
			},
			{
				"type": "occ",
				"energy": -0.23909,
				"method": "rhf"
			},
			{
				"type": "occ",
				"energy": -0.22554,
				"method": "rhf"
			},
			{
				"type": "unocc",
				"energy": -0.02115,
				"method": "rhf"
			},
			{
				"type": "unocc",
				"energy": -0.00442,
				"method": "rhf"
			},
			{
				"type": "unocc",
				"energy": 0.01334,
				"method": "rhf"
			},
			{
				"type": "unocc",
				"energy": 0.07101,
				"method": "rhf"
			},
			{
				"type": "unocc",
				"energy": 0.0791,
				"method": "rhf"
			}
		],
		"cosmo_sigma_profile": { 
			"-0.025": 0.0,
			"-0.024": 0.0,
			"-0.023": 0.0,
			"-0.022": 0.0,
			"-0.021": 0.0,
			"-0.02": 0.0,
			"-0.019": 0.0,
			"-0.018": 0.0,
			"-0.017": 0.0,
			"-0.016": 0.0,
			"-0.015": 0.0,
			"-0.014": 0.0,
			"-0.013": 0.0,
			"-0.012": 0.0,
			"-0.011": 0.0,
			"-0.01": 0.0,
			"-0.009": 0.0826891255691,
			"-0.008": 2.10867163466,
			"-0.007": 2.86017515719,
			"-0.006": 7.23740829168,
			"-0.005": 14.9216972242,
			"-0.004": 22.6129865909,
			"-0.003": 31.4467121051,
			"-0.002": 31.0110202117,
			"-0.001": 18.6354517319,
			"0.0": 16.4318030638,
			"0.001": 17.1703142661,
			"0.002": 22.5692225059,
			"0.003": 18.4554506684,
			"0.004": 9.47353381553,
			"0.005": 7.92011054342,
			"0.006": 6.50052283461,
			"0.007": 8.6271346108,
			"0.008": 5.81528899308,
			"0.009": 3.1904217081,
			"0.01": 1.57791643495,
			"0.011": 2.53723651364,
			"0.012": 0.624436414812,
			"0.013": 0.0,
			"0.014": 0.0,
			"0.015": 0.0,
			"0.016": 0.0,
			"0.017": 0.0,
			"0.018": 0.0,
			"0.019": 0.0,
			"0.02": 0.0,
			"0.021": 0.0,
			"0.022": 0.0,
			"0.023": 0.0,
			"0.024": 0.0,
			"0.025": 0.0
		}
	}
}
