{
	 "smiles": "CC1=NC2=C(C=CC=C2)N1CC#C", 
	 "Tm": 341.15, 
	 "num_atms": 23, 
	 "gaussian": { 
		 "optdone": 1, 
		 "sigma_profile": "yes", 
		 "theory": "DFT", 
		 "functional": "B3LYP", 
		 "basiset": "6-31G**", 
		 "properties": { 
			 "R2extent": 2609.6582, 
			 "electric_dipole_moment_norm": 3.45325444907, 
			 "electric_quadrupole_moment_norm": 8.05295533702, 
			 "total_energy": -534.637955779, 
			 "HOMO_LUMO_gap": 0.20671, 
			 "cosmo_polarized_energy": -12.62, 
			 "cosmo_cavitation_energy": 27.86, 
			 "cosmo_dispersion_energy": -19.31, 
			 "cosmo_repulsion_energy": 1.51, 
			 "cosmo_total_nonelectrostatic_energy": 10.05, 
			 "SMD_solvation_energy": 3.92 
		},
		"coords": [
			{
				"x": 0.7567260921,
				"y": -1.6337815068,
				"z": 2.8644088994,
				"element": "C" 
			},
			{
				"x": 0.5675090277,
				"y": -0.4468093373,
				"z": 1.9772357313,
				"element": "C" 
			},
			{
				"x": 0.4578135543,
				"y": 0.7903169447,
				"z": 2.3968843282,
				"element": "N" 
			},
			{
				"x": 0.311164731,
				"y": 1.5567557842,
				"z": 1.2483513905,
				"element": "C" 
			},
			{
				"x": 0.3388691199,
				"y": 0.7315977507,
				"z": 0.1000448875,
				"element": "C" 
			},
			{
				"x": 0.2232070472,
				"y": 1.2407692957,
				"z": -1.1942845859,
				"element": "C" 
			},
			{
				"x": 0.0651992809,
				"y": 2.6208268311,
				"z": -1.3127236301,
				"element": "C" 
			},
			{
				"x": 0.0282682228,
				"y": 3.4573151605,
				"z": -0.1800767676,
				"element": "C" 
			},
			{
				"x": 0.1507940933,
				"y": 2.93999577,
				"z": 1.1066346014,
				"element": "C" 
			},
			{
				"x": 0.4871204808,
				"y": -0.5584024461,
				"z": 0.5941512182,
				"element": "N" 
			},
			{
				"x": 0.6252403493,
				"y": -1.7708663975,
				"z": -0.2007090448,
				"element": "C" 
			},
			{
				"x": 2.0087611214,
				"y": -2.0774631267,
				"z": -0.5848560434,
				"element": "C" 
			},
			{
				"x": 3.1449097869,
				"y": -2.3408080594,
				"z": -0.8949508317,
				"element": "C" 
			},
			{
				"x": 0.8264134871,
				"y": -1.2820173379,
				"z": 3.8939721479,
				"element": "H" 
			},
			{
				"x": -0.0834985929,
				"y": -2.3355673815,
				"z": 2.7954856197,
				"element": "H" 
			},
			{
				"x": 1.6714322616,
				"y": -2.1835189529,
				"z": 2.6153242162,
				"element": "H" 
			},
			{
				"x": 0.2648304506,
				"y": 0.6041126481,
				"z": -2.0730221726,
				"element": "H" 
			},
			{
				"x": -0.0266775285,
				"y": 3.0602603001,
				"z": -2.3016332644,
				"element": "H" 
			},
			{
				"x": -0.0953066606,
				"y": 4.5274667317,
				"z": -0.3178823745,
				"element": "H" 
			},
			{
				"x": 0.1260838161,
				"y": 3.5788173969,
				"z": 1.9836441687,
				"element": "H" 
			},
			{
				"x": 0.0025098729,
				"y": -1.6618835991,
				"z": -1.0960449027,
				"element": "H" 
			},
			{
				"x": 0.2049098426,
				"y": -2.6078498069,
				"z": 0.3668490618,
				"element": "H" 
			},
			{
				"x": 4.1512201434,
				"y": -2.5597666616,
				"z": -1.1692026531,
				"element": "H" 
			}
		],
		 "valence_orbital": [ 
			{
				"type": "occ",
				"energy": -0.28715,
				"method": "rhf"
			},
			{
				"type": "occ",
				"energy": -0.28323,
				"method": "rhf"
			},
			{
				"type": "occ",
				"energy": -0.26304,
				"method": "rhf"
			},
			{
				"type": "occ",
				"energy": -0.22071,
				"method": "rhf"
			},
			{
				"type": "occ",
				"energy": -0.21662,
				"method": "rhf"
			},
			{
				"type": "unocc",
				"energy": -0.00991,
				"method": "rhf"
			},
			{
				"type": "unocc",
				"energy": 0.01925,
				"method": "rhf"
			},
			{
				"type": "unocc",
				"energy": 0.02994,
				"method": "rhf"
			},
			{
				"type": "unocc",
				"energy": 0.03875,
				"method": "rhf"
			},
			{
				"type": "unocc",
				"energy": 0.06026,
				"method": "rhf"
			}
		],
		"cosmo_sigma_profile": { 
			"-0.025": 0.0,
			"-0.024": 0.0,
			"-0.023": 0.0,
			"-0.022": 0.0,
			"-0.021": 0.0,
			"-0.02": 0.0,
			"-0.019": 0.0,
			"-0.018": 0.0,
			"-0.017": 0.0,
			"-0.016": 0.0,
			"-0.015": 0.0,
			"-0.014": 0.0,
			"-0.013": 0.0169676721664,
			"-0.012": 0.876268472832,
			"-0.011": 1.37075256311,
			"-0.01": 1.10880397594,
			"-0.009": 3.42584573112,
			"-0.008": 7.96020813457,
			"-0.007": 7.15196427086,
			"-0.006": 10.9927409887,
			"-0.005": 16.8998786427,
			"-0.004": 15.3584249812,
			"-0.003": 16.4975975909,
			"-0.002": 17.2422364439,
			"-0.001": 13.5745993436,
			"0.0": 9.84848992007,
			"0.001": 12.4829788111,
			"0.002": 13.3168634607,
			"0.003": 12.2617377153,
			"0.004": 13.6860203664,
			"0.005": 18.2364515856,
			"0.006": 16.0638718042,
			"0.007": 4.11301004282,
			"0.008": 1.32716735661,
			"0.009": 1.34159316754,
			"0.01": 1.28123670902,
			"0.011": 1.45513667449,
			"0.012": 0.889665025774,
			"0.013": 1.17732256827,
			"0.014": 0.986424926687,
			"0.015": 0.457840623538,
			"0.016": 1.4894514877,
			"0.017": 0.785891465164,
			"0.018": 0.326504429203,
			"0.019": 0.0,
			"0.02": 0.0,
			"0.021": 0.0,
			"0.022": 0.0,
			"0.023": 0.0,
			"0.024": 0.0,
			"0.025": 0.0
		}
	}
}
