{
	 "smiles": "CCCCCCCCC(O)C(O)CCCCCCCC(O)=O", 
	 "Tm": 363.15, 
	 "num_atms": 58, 
	 "gaussian": { 
		 "optdone": 1, 
		 "sigma_profile": "yes", 
		 "theory": "DFT", 
		 "functional": "B3LYP", 
		 "basiset": "6-31G**", 
		 "properties": { 
			 "R2extent": 15137.1855, 
			 "electric_dipole_moment_norm": 4.14957476014, 
			 "electric_quadrupole_moment_norm": 5.56757001123, 
			 "total_energy": -1008.54831233, 
			 "HOMO_LUMO_gap": 0.2653, 
			 "cosmo_polarized_energy": -15.36, 
			 "cosmo_cavitation_energy": 56.18, 
			 "cosmo_dispersion_energy": -37.06, 
			 "cosmo_repulsion_energy": 2.94, 
			 "cosmo_total_nonelectrostatic_energy": 22.06, 
			 "SMD_solvation_energy": 8.55 
		},
		"coords": [
			{
				"x": -4.4582995721,
				"y": -2.3139228664,
				"z": -3.9575796418,
				"element": "C" 
			},
			{
				"x": -5.6245274866,
				"y": -1.7093105979,
				"z": -3.1664452205,
				"element": "C" 
			},
			{
				"x": -5.501074507,
				"y": -1.7737660167,
				"z": -1.6331222578,
				"element": "C" 
			},
			{
				"x": -5.4424618856,
				"y": -3.1943296292,
				"z": -1.028740667,
				"element": "C" 
			},
			{
				"x": -4.0389545959,
				"y": -3.8496437052,
				"z": -0.9454440179,
				"element": "C" 
			},
			{
				"x": -3.4043506611,
				"y": -3.8298982402,
				"z": 0.45838242,
				"element": "C" 
			},
			{
				"x": -3.0452609413,
				"y": -2.4570499299,
				"z": 1.0693482465,
				"element": "C" 
			},
			{
				"x": -1.6648683714,
				"y": -1.8598443296,
				"z": 0.7208009327,
				"element": "C" 
			},
			{
				"x": -1.487256852,
				"y": -1.2491551474,
				"z": -0.6697923239,
				"element": "C" 
			},
			{
				"x": -1.3098334129,
				"y": -2.2860246901,
				"z": -1.6317018597,
				"element": "O" 
			},
			{
				"x": -0.2995817049,
				"y": -0.2692306368,
				"z": -0.7641986726,
				"element": "C" 
			},
			{
				"x": -0.3325182524,
				"y": 0.1628777978,
				"z": -2.1332706719,
				"element": "O" 
			},
			{
				"x": 1.0509537514,
				"y": -0.9011007204,
				"z": -0.3987204757,
				"element": "C" 
			},
			{
				"x": 2.2821659887,
				"y": -0.0145761059,
				"z": -0.6638724857,
				"element": "C" 
			},
			{
				"x": 2.3280360345,
				"y": 1.3287837767,
				"z": 0.0878814442,
				"element": "C" 
			},
			{
				"x": 2.395176545,
				"y": 1.1924657597,
				"z": 1.6167534555,
				"element": "C" 
			},
			{
				"x": 2.6133640115,
				"y": 2.5186652033,
				"z": 2.3640516426,
				"element": "C" 
			},
			{
				"x": 1.4489223385,
				"y": 3.5109133443,
				"z": 2.2455592027,
				"element": "C" 
			},
			{
				"x": 1.6768865173,
				"y": 4.7806737213,
				"z": 3.0671770008,
				"element": "C" 
			},
			{
				"x": 0.5504867635,
				"y": 5.782553912,
				"z": 2.9378170414,
				"element": "C" 
			},
			{
				"x": 0.7575113069,
				"y": 6.8678682543,
				"z": 3.7250361235,
				"element": "O" 
			},
			{
				"x": -0.4266387624,
				"y": 5.670398432,
				"z": 2.2303726018,
				"element": "O" 
			},
			{
				"x": -4.5831854538,
				"y": -2.1357847964,
				"z": -5.0313391095,
				"element": "H" 
			},
			{
				"x": -4.3838385594,
				"y": -3.3958209497,
				"z": -3.8105302338,
				"element": "H" 
			},
			{
				"x": -3.5008368757,
				"y": -1.8767850431,
				"z": -3.6531334011,
				"element": "H" 
			},
			{
				"x": -5.7408663458,
				"y": -0.6564644741,
				"z": -3.4563730125,
				"element": "H" 
			},
			{
				"x": -6.5574371021,
				"y": -2.2078889809,
				"z": -3.4655398181,
				"element": "H" 
			},
			{
				"x": -4.6185061069,
				"y": -1.2006404772,
				"z": -1.3202755465,
				"element": "H" 
			},
			{
				"x": -6.3666534915,
				"y": -1.2453655918,
				"z": -1.2118527811,
				"element": "H" 
			},
			{
				"x": -6.1145991521,
				"y": -3.8385021215,
				"z": -1.6117576902,
				"element": "H" 
			},
			{
				"x": -5.8771957392,
				"y": -3.1669048279,
				"z": -0.0203615301,
				"element": "H" 
			},
			{
				"x": -3.3488320356,
				"y": -3.3858150723,
				"z": -1.6527386413,
				"element": "H" 
			},
			{
				"x": -4.1196923433,
				"y": -4.9028774781,
				"z": -1.2441430247,
				"element": "H" 
			},
			{
				"x": -2.4992258198,
				"y": -4.4516591319,
				"z": 0.4455645882,
				"element": "H" 
			},
			{
				"x": -4.1008784457,
				"y": -4.3295619658,
				"z": 1.1464048935,
				"element": "H" 
			},
			{
				"x": -3.8290013577,
				"y": -1.7220089398,
				"z": 0.8442507229,
				"element": "H" 
			},
			{
				"x": -3.0607935242,
				"y": -2.5704952724,
				"z": 2.1610247691,
				"element": "H" 
			},
			{
				"x": -1.4598834818,
				"y": -1.0642474275,
				"z": 1.4505890271,
				"element": "H" 
			},
			{
				"x": -0.8906344801,
				"y": -2.6237026357,
				"z": 0.8655110627,
				"element": "H" 
			},
			{
				"x": -2.3851735065,
				"y": -0.659365565,
				"z": -0.9188798487,
				"element": "H" 
			},
			{
				"x": -1.0611954227,
				"y": -1.8306984145,
				"z": -2.4512428765,
				"element": "H" 
			},
			{
				"x": -0.5093268887,
				"y": 0.5852771942,
				"z": -0.1013016724,
				"element": "H" 
			},
			{
				"x": 0.4389239109,
				"y": 0.7155339948,
				"z": -2.3054615521,
				"element": "H" 
			},
			{
				"x": 1.0258500437,
				"y": -1.182807829,
				"z": 0.6599649047,
				"element": "H" 
			},
			{
				"x": 1.1498682345,
				"y": -1.8324152058,
				"z": -0.9667415072,
				"element": "H" 
			},
			{
				"x": 2.3671590841,
				"y": 0.1765349585,
				"z": -1.7435972073,
				"element": "H" 
			},
			{
				"x": 3.1797350956,
				"y": -0.593025154,
				"z": -0.4095436727,
				"element": "H" 
			},
			{
				"x": 1.4627926683,
				"y": 1.9435477736,
				"z": -0.192933602,
				"element": "H" 
			},
			{
				"x": 3.2118910816,
				"y": 1.8846810453,
				"z": -0.2541354999,
				"element": "H" 
			},
			{
				"x": 3.2150662276,
				"y": 0.5069674745,
				"z": 1.8711209076,
				"element": "H" 
			},
			{
				"x": 1.4778909829,
				"y": 0.7200711431,
				"z": 1.9926021499,
				"element": "H" 
			},
			{
				"x": 3.5362713438,
				"y": 2.9923032246,
				"z": 1.998985735,
				"element": "H" 
			},
			{
				"x": 2.7870655293,
				"y": 2.2982455803,
				"z": 3.4261544559,
				"element": "H" 
			},
			{
				"x": 1.2852357742,
				"y": 3.7940916741,
				"z": 1.2005892214,
				"element": "H" 
			},
			{
				"x": 0.5182084703,
				"y": 3.0329589631,
				"z": 2.575363027,
				"element": "H" 
			},
			{
				"x": 1.8028812316,
				"y": 4.5528463471,
				"z": 4.1333396246,
				"element": "H" 
			},
			{
				"x": 2.6041345761,
				"y": 5.2871933734,
				"z": 2.7676534168,
				"element": "H" 
			},
			{
				"x": -0.0024943737,
				"y": 7.4555370221,
				"z": 3.5772719037,
				"element": "H" 
			}
		],
		 "valence_orbital": [ 
			{
				"type": "occ",
				"energy": -0.28832,
				"method": "rhf"
			},
			{
				"type": "occ",
				"energy": -0.28627,
				"method": "rhf"
			},
			{
				"type": "occ",
				"energy": -0.27681,
				"method": "rhf"
			},
			{
				"type": "occ",
				"energy": -0.27477,
				"method": "rhf"
			},
			{
				"type": "occ",
				"energy": -0.25638,
				"method": "rhf"
			},
			{
				"type": "unocc",
				"energy": 0.00892,
				"method": "rhf"
			},
			{
				"type": "unocc",
				"energy": 0.05245,
				"method": "rhf"
			},
			{
				"type": "unocc",
				"energy": 0.07597,
				"method": "rhf"
			},
			{
				"type": "unocc",
				"energy": 0.07779,
				"method": "rhf"
			},
			{
				"type": "unocc",
				"energy": 0.08381,
				"method": "rhf"
			}
		],
		"cosmo_sigma_profile": { 
			"-0.025": 0.0,
			"-0.024": 0.0,
			"-0.023": 0.0,
			"-0.022": 0.0,
			"-0.021": 0.0,
			"-0.02": 0.0,
			"-0.019": 0.0,
			"-0.018": 0.319612492327,
			"-0.017": 1.03877945434,
			"-0.016": 0.755747126642,
			"-0.015": 1.09416390326,
			"-0.014": 1.090593422,
			"-0.013": 1.54395317108,
			"-0.012": 0.855520859267,
			"-0.011": 1.33431073994,
			"-0.01": 3.02358383269,
			"-0.009": 2.43514575986,
			"-0.008": 1.75505757077,
			"-0.007": 2.52364937756,
			"-0.006": 5.21636682952,
			"-0.005": 8.42445630101,
			"-0.004": 9.7482656653,
			"-0.003": 29.0477576896,
			"-0.002": 60.9605721438,
			"-0.001": 73.614238685,
			"0.0": 77.1408939965,
			"0.001": 58.0648907554,
			"0.002": 27.871550147,
			"0.003": 7.79102916945,
			"0.004": 6.9611555001,
			"0.005": 6.49463886577,
			"0.006": 5.20741016036,
			"0.007": 5.47881980543,
			"0.008": 4.33725611535,
			"0.009": 5.46522440834,
			"0.01": 5.17312141288,
			"0.011": 4.68487393807,
			"0.012": 6.90740226812,
			"0.013": 2.75894727676,
			"0.014": 1.0634266279,
			"0.015": 0.0321879694985,
			"0.016": 0.0,
			"0.017": 0.0,
			"0.018": 0.0,
			"0.019": 0.0,
			"0.02": 0.0,
			"0.021": 0.0,
			"0.022": 0.0,
			"0.023": 0.0,
			"0.024": 0.0,
			"0.025": 0.0
		}
	}
}
