{
	 "smiles": "COC1=CC(=CC(OC)=C1OC)C1=NNC(=S)N1N=CC1=C(O)C=CC(Br)=C1", 
	 "Tm": 503.15, 
	 "num_atms": 45, 
	 "gaussian": { 
		 "optdone": 1, 
		 "sigma_profile": "yes", 
		 "theory": "DFT", 
		 "functional": "B3LYP", 
		 "basiset": "6-31G**", 
		 "properties": { 
			 "R2extent": 21975.7953, 
			 "electric_dipole_moment_norm": 3.94169706979, 
			 "electric_quadrupole_moment_norm": 33.4778181257, 
			 "total_energy": -4185.55624639, 
			 "HOMO_LUMO_gap": 0.13171, 
			 "cosmo_polarized_energy": -26.51, 
			 "cosmo_cavitation_energy": 54.03, 
			 "cosmo_dispersion_energy": -37.59, 
			 "cosmo_repulsion_energy": 2.8, 
			 "cosmo_total_nonelectrostatic_energy": 19.24, 
			 "SMD_solvation_energy": 8.81 
		},
		"coords": [
			{
				"x": 2.9089717075,
				"y": 2.2284783712,
				"z": 4.6950625048,
				"element": "C" 
			},
			{
				"x": 3.2292133946,
				"y": 2.215394779,
				"z": 3.3118895731,
				"element": "O" 
			},
			{
				"x": 2.3989699929,
				"y": 1.5385040829,
				"z": 2.4677472634,
				"element": "C" 
			},
			{
				"x": 1.2409505931,
				"y": 0.8699354023,
				"z": 2.8665033809,
				"element": "C" 
			},
			{
				"x": 0.4613877758,
				"y": 0.1962556835,
				"z": 1.9117784561,
				"element": "C" 
			},
			{
				"x": 0.8315702121,
				"y": 0.198999188,
				"z": 0.561438532,
				"element": "C" 
			},
			{
				"x": 1.9886551143,
				"y": 0.8785202444,
				"z": 0.1651516003,
				"element": "C" 
			},
			{
				"x": 2.4274708168,
				"y": 0.9566314583,
				"z": -1.1226760183,
				"element": "O" 
			},
			{
				"x": 1.6399323113,
				"y": 0.3431519856,
				"z": -2.1323479678,
				"element": "C" 
			},
			{
				"x": 2.7879342107,
				"y": 1.5402913799,
				"z": 1.1140543608,
				"element": "C" 
			},
			{
				"x": 3.9585361894,
				"y": 2.1277828427,
				"z": 0.7191046912,
				"element": "O" 
			},
			{
				"x": 3.9080717997,
				"y": 3.550474265,
				"z": 0.5886802843,
				"element": "C" 
			},
			{
				"x": -0.7769000706,
				"y": -0.4329192515,
				"z": 2.3917580404,
				"element": "C" 
			},
			{
				"x": -1.4084399211,
				"y": -0.0129252455,
				"z": 3.4583281062,
				"element": "N" 
			},
			{
				"x": -2.48199749,
				"y": -0.8435143491,
				"z": 3.5727925974,
				"element": "N" 
			},
			{
				"x": -2.5910299686,
				"y": -1.7856547509,
				"z": 2.6037928497,
				"element": "C" 
			},
			{
				"x": -3.7973104689,
				"y": -2.9462006265,
				"z": 2.5048213968,
				"element": "S" 
			},
			{
				"x": -1.4626494445,
				"y": -1.5128658986,
				"z": 1.815020116,
				"element": "N" 
			},
			{
				"x": -0.8871279283,
				"y": -2.216353479,
				"z": 0.7786585848,
				"element": "N" 
			},
			{
				"x": -1.6022823051,
				"y": -3.076454599,
				"z": 0.1368047925,
				"element": "C" 
			},
			{
				"x": -1.0659530603,
				"y": -3.8982445769,
				"z": -0.9494736612,
				"element": "C" 
			},
			{
				"x": 0.2777329468,
				"y": -3.9150175027,
				"z": -1.3983262455,
				"element": "C" 
			},
			{
				"x": 1.1767938187,
				"y": -3.0793374886,
				"z": -0.8161169872,
				"element": "O" 
			},
			{
				"x": 0.6553022191,
				"y": -4.7811669034,
				"z": -2.4303813906,
				"element": "C" 
			},
			{
				"x": -0.2670072875,
				"y": -5.6308359829,
				"z": -3.0347533765,
				"element": "C" 
			},
			{
				"x": -1.5914474554,
				"y": -5.6143799155,
				"z": -2.6006784949,
				"element": "C" 
			},
			{
				"x": -2.8714113795,
				"y": -6.7701610408,
				"z": -3.4193385947,
				"element": "Br" 
			},
			{
				"x": -1.9823153492,
				"y": -4.7661312454,
				"z": -1.5740008107,
				"element": "C" 
			},
			{
				"x": 2.8949557016,
				"y": 1.2149704992,
				"z": 5.1151193858,
				"element": "H" 
			},
			{
				"x": 1.9397531441,
				"y": 2.70767393,
				"z": 4.8830218779,
				"element": "H" 
			},
			{
				"x": 3.6971300624,
				"y": 2.807204917,
				"z": 5.1789491775,
				"element": "H" 
			},
			{
				"x": 0.9261991849,
				"y": 0.8580643742,
				"z": 3.9008256573,
				"element": "H" 
			},
			{
				"x": 0.2304269951,
				"y": -0.3325326122,
				"z": -0.1585699778,
				"element": "H" 
			},
			{
				"x": 0.6401425787,
				"y": 0.7925675847,
				"z": -2.1952323351,
				"element": "H" 
			},
			{
				"x": 2.1700718413,
				"y": 0.5172936057,
				"z": -3.0702759045,
				"element": "H" 
			},
			{
				"x": 1.5328639394,
				"y": -0.7350620703,
				"z": -1.9636507199,
				"element": "H" 
			},
			{
				"x": 3.1702373221,
				"y": 3.8497256645,
				"z": -0.1659249696,
				"element": "H" 
			},
			{
				"x": 3.6726993017,
				"y": 4.0286731755,
				"z": 1.5455832305,
				"element": "H" 
			},
			{
				"x": 4.902407851,
				"y": 3.8626669347,
				"z": 0.2625824113,
				"element": "H" 
			},
			{
				"x": -3.1511601138,
				"y": -0.724203635,
				"z": 4.318104463,
				"element": "H" 
			},
			{
				"x": -2.6468807403,
				"y": -3.2512919135,
				"z": 0.3853426246,
				"element": "H" 
			},
			{
				"x": 2.0592050972,
				"y": -3.2689226513,
				"z": -1.1637275072,
				"element": "H" 
			},
			{
				"x": 1.6898650175,
				"y": -4.7880641224,
				"z": -2.7667352947,
				"element": "H" 
			},
			{
				"x": 0.04212154,
				"y": -6.2951521684,
				"z": -3.8334511265,
				"element": "H" 
			},
			{
				"x": -3.0125596967,
				"y": -4.7697683391,
				"z": -1.2349545758,
				"element": "H" 
			}
		],
		 "valence_orbital": [ 
			{
				"type": "occ",
				"energy": -0.23581,
				"method": "rhf"
			},
			{
				"type": "occ",
				"energy": -0.22215,
				"method": "rhf"
			},
			{
				"type": "occ",
				"energy": -0.22149,
				"method": "rhf"
			},
			{
				"type": "occ",
				"energy": -0.21401,
				"method": "rhf"
			},
			{
				"type": "occ",
				"energy": -0.20255,
				"method": "rhf"
			},
			{
				"type": "unocc",
				"energy": -0.07084,
				"method": "rhf"
			},
			{
				"type": "unocc",
				"energy": -0.03304,
				"method": "rhf"
			},
			{
				"type": "unocc",
				"energy": -0.01875,
				"method": "rhf"
			},
			{
				"type": "unocc",
				"energy": -0.00304,
				"method": "rhf"
			},
			{
				"type": "unocc",
				"energy": -6e-05,
				"method": "rhf"
			}
		],
		"cosmo_sigma_profile": { 
			"-0.025": 0.0,
			"-0.024": 0.0,
			"-0.023": 0.0,
			"-0.022": 0.0,
			"-0.021": 0.0,
			"-0.02": 0.0,
			"-0.019": 0.359626666304,
			"-0.018": 1.43097042363,
			"-0.017": 2.50244242655,
			"-0.016": 2.86172096812,
			"-0.015": 1.48329186017,
			"-0.014": 1.12323491329,
			"-0.013": 2.26306137672,
			"-0.012": 2.02980051378,
			"-0.011": 1.62570109521,
			"-0.01": 1.96718381253,
			"-0.009": 2.26668450894,
			"-0.008": 5.58971743233,
			"-0.007": 7.76269279214,
			"-0.006": 17.0395269768,
			"-0.005": 26.0179917759,
			"-0.004": 33.4864960322,
			"-0.003": 39.6412360203,
			"-0.002": 30.599344002,
			"-0.001": 25.7851628368,
			"0.0": 28.2141786199,
			"0.001": 33.2377620477,
			"0.002": 38.7335207998,
			"0.003": 27.3527359328,
			"0.004": 25.4459539004,
			"0.005": 16.8236123901,
			"0.006": 10.3394228507,
			"0.007": 9.3578357058,
			"0.008": 8.72796477793,
			"0.009": 9.20247197244,
			"0.01": 10.2355021293,
			"0.011": 7.19141939283,
			"0.012": 4.51697603356,
			"0.013": 2.08064945813,
			"0.014": 1.01085277914,
			"0.015": 0.212354874764,
			"0.016": 0.0,
			"0.017": 0.0,
			"0.018": 0.0,
			"0.019": 0.0,
			"0.02": 0.0,
			"0.021": 0.0,
			"0.022": 0.0,
			"0.023": 0.0,
			"0.024": 0.0,
			"0.025": 0.0
		}
	}
}
