{
	 "smiles": "CC(=CC1=CC=C(F)C=C1)[N+]([O-])=O", 
	 "Tm": 338.65, 
	 "num_atms": 21, 
	 "gaussian": { 
		 "optdone": 1, 
		 "sigma_profile": "yes", 
		 "theory": "DFT", 
		 "functional": "B3LYP", 
		 "basiset": "6-31G**", 
		 "properties": { 
			 "R2extent": 3112.9565, 
			 "electric_dipole_moment_norm": 3.94697540656, 
			 "electric_quadrupole_moment_norm": 11.7281573122, 
			 "total_energy": -652.69491788, 
			 "HOMO_LUMO_gap": 0.14679, 
			 "cosmo_polarized_energy": -9.71, 
			 "cosmo_cavitation_energy": 26.34, 
			 "cosmo_dispersion_energy": -19.09, 
			 "cosmo_repulsion_energy": 1.48, 
			 "cosmo_total_nonelectrostatic_energy": 8.72, 
			 "SMD_solvation_energy": 7.21 
		},
		"coords": [
			{
				"x": -1.1627852427,
				"y": -1.5802284941,
				"z": 3.1126562873,
				"element": "C" 
			},
			{
				"x": -0.9841642923,
				"y": -0.570621218,
				"z": 2.0120481268,
				"element": "C" 
			},
			{
				"x": -0.2506174802,
				"y": -0.821111336,
				"z": 0.9016465064,
				"element": "C" 
			},
			{
				"x": 0.2138463192,
				"y": -0.1096834361,
				"z": -0.293178993,
				"element": "C" 
			},
			{
				"x": 0.2828791414,
				"y": 1.2882964264,
				"z": -0.4717349757,
				"element": "C" 
			},
			{
				"x": 0.8130570985,
				"y": 1.8348017806,
				"z": -1.634666101,
				"element": "C" 
			},
			{
				"x": 1.2672301238,
				"y": 0.9872643276,
				"z": -2.6410070226,
				"element": "C" 
			},
			{
				"x": 1.7676383872,
				"y": 1.5208250592,
				"z": -3.7696620316,
				"element": "F" 
			},
			{
				"x": 1.2252589537,
				"y": -0.3960869025,
				"z": -2.5079600219,
				"element": "C" 
			},
			{
				"x": 0.7141699225,
				"y": -0.9285247677,
				"z": -1.3302773745,
				"element": "C" 
			},
			{
				"x": -1.6855291617,
				"y": 0.6873331266,
				"z": 2.2757840549,
				"element": "N" 
			},
			{
				"x": -2.0824307312,
				"y": 0.862439452,
				"z": 3.4309065335,
				"element": "O" 
			},
			{
				"x": -1.8827162538,
				"y": 1.48286066,
				"z": 1.3535301466,
				"element": "O" 
			},
			{
				"x": -0.6971996309,
				"y": -2.5266147614,
				"z": 2.8302632945,
				"element": "H" 
			},
			{
				"x": -0.7109037661,
				"y": -1.2302210051,
				"z": 4.0453318564,
				"element": "H" 
			},
			{
				"x": -2.2223481596,
				"y": -1.7552488205,
				"z": 3.322697057,
				"element": "H" 
			},
			{
				"x": 0.1151979519,
				"y": -1.8468741953,
				"z": 0.90880758,
				"element": "H" 
			},
			{
				"x": -0.0831663656,
				"y": 1.9490981029,
				"z": 0.2994646436,
				"element": "H" 
			},
			{
				"x": 0.8730248817,
				"y": 2.9086500558,
				"z": -1.7737816219,
				"element": "H" 
			},
			{
				"x": 1.5963877722,
				"y": -1.0278063752,
				"z": -3.3072252136,
				"element": "H" 
			},
			{
				"x": 0.6947705318,
				"y": -2.0081476791,
				"z": -1.2086427312,
				"element": "H" 
			}
		],
		 "valence_orbital": [ 
			{
				"type": "occ",
				"energy": -0.30349,
				"method": "rhf"
			},
			{
				"type": "occ",
				"energy": -0.30089,
				"method": "rhf"
			},
			{
				"type": "occ",
				"energy": -0.28469,
				"method": "rhf"
			},
			{
				"type": "occ",
				"energy": -0.27223,
				"method": "rhf"
			},
			{
				"type": "occ",
				"energy": -0.24215,
				"method": "rhf"
			},
			{
				"type": "unocc",
				"energy": -0.09536,
				"method": "rhf"
			},
			{
				"type": "unocc",
				"energy": -0.02247,
				"method": "rhf"
			},
			{
				"type": "unocc",
				"energy": -0.02155,
				"method": "rhf"
			},
			{
				"type": "unocc",
				"energy": 0.04962,
				"method": "rhf"
			},
			{
				"type": "unocc",
				"energy": 0.06696,
				"method": "rhf"
			}
		],
		"cosmo_sigma_profile": { 
			"-0.025": 0.0,
			"-0.024": 0.0,
			"-0.023": 0.0,
			"-0.022": 0.0,
			"-0.021": 0.0,
			"-0.02": 0.0,
			"-0.019": 0.0,
			"-0.018": 0.0,
			"-0.017": 0.0,
			"-0.016": 0.0,
			"-0.015": 0.0,
			"-0.014": 0.0,
			"-0.013": 0.0,
			"-0.012": 0.0,
			"-0.011": 0.0,
			"-0.01": 0.0,
			"-0.009": 1.93850635688,
			"-0.008": 6.14824911127,
			"-0.007": 8.33817963436,
			"-0.006": 9.39206503204,
			"-0.005": 15.446464515,
			"-0.004": 12.7636452019,
			"-0.003": 13.6075296071,
			"-0.002": 13.784081315,
			"-0.001": 18.3616787425,
			"0.0": 18.3063868916,
			"0.001": 16.4655200002,
			"0.002": 16.4823159946,
			"0.003": 16.0354536591,
			"0.004": 12.5585503883,
			"0.005": 3.53355237309,
			"0.006": 3.73271622044,
			"0.007": 4.69210840086,
			"0.008": 8.0815230095,
			"0.009": 5.88488697252,
			"0.01": 3.79451999187,
			"0.011": 1.72018110776,
			"0.012": 0.0,
			"0.013": 0.0,
			"0.014": 0.0,
			"0.015": 0.0,
			"0.016": 0.0,
			"0.017": 0.0,
			"0.018": 0.0,
			"0.019": 0.0,
			"0.02": 0.0,
			"0.021": 0.0,
			"0.022": 0.0,
			"0.023": 0.0,
			"0.024": 0.0,
			"0.025": 0.0
		}
	}
}
