{
	 "smiles": "CC(C)C1=C(C=C(C)C(=C1)N=NC1=CC=C(C)C=C1)N=NC1=CC=C(C)C=C1", 
	 "Tm": 413.15, 
	 "num_atms": 54, 
	 "gaussian": { 
		 "optdone": 1, 
		 "sigma_profile": "yes", 
		 "theory": "DFT", 
		 "functional": "B3LYP", 
		 "basiset": "6-31G**", 
		 "properties": { 
			 "R2extent": 21046.9903, 
			 "electric_dipole_moment_norm": 0.424414820665, 
			 "electric_quadrupole_moment_norm": 36.7175908341, 
			 "total_energy": -1149.17814269, 
			 "HOMO_LUMO_gap": 0.11775, 
			 "cosmo_polarized_energy": -9.17, 
			 "cosmo_cavitation_energy": 57.64, 
			 "cosmo_dispersion_energy": -39.71, 
			 "cosmo_repulsion_energy": 3.0, 
			 "cosmo_total_nonelectrostatic_energy": 20.93, 
			 "SMD_solvation_energy": 7.99 
		},
		"coords": [
			{
				"x": -1.3471700552,
				"y": -2.3512495114,
				"z": -1.7977548472,
				"element": "C" 
			},
			{
				"x": 0.1454332164,
				"y": -2.0246151257,
				"z": -1.5923792149,
				"element": "C" 
			},
			{
				"x": 0.9269571772,
				"y": -3.2795507165,
				"z": -1.1633189176,
				"element": "C" 
			},
			{
				"x": 0.3161270857,
				"y": -0.8553662046,
				"z": -0.6278064485,
				"element": "C" 
			},
			{
				"x": 0.47103203,
				"y": 0.4997689839,
				"z": -1.0248100255,
				"element": "C" 
			},
			{
				"x": 0.6980922258,
				"y": 1.4948225289,
				"z": -0.0540159071,
				"element": "C" 
			},
			{
				"x": 0.7100011592,
				"y": 1.2620682794,
				"z": 1.3166199071,
				"element": "C" 
			},
			{
				"x": 0.9351604339,
				"y": 2.4220983782,
				"z": 2.2526854565,
				"element": "C" 
			},
			{
				"x": 0.5188328562,
				"y": -0.0880054898,
				"z": 1.7200878128,
				"element": "C" 
			},
			{
				"x": 0.3513962216,
				"y": -1.0886961653,
				"z": 0.7459006527,
				"element": "C" 
			},
			{
				"x": 0.4898284505,
				"y": -0.6117722685,
				"z": 3.0293016063,
				"element": "N" 
			},
			{
				"x": 0.5966746298,
				"y": 0.213108611,
				"z": 3.9813862798,
				"element": "N" 
			},
			{
				"x": 0.5594045699,
				"y": -0.3733045357,
				"z": 5.2703352323,
				"element": "C" 
			},
			{
				"x": 0.6658209547,
				"y": 0.5156435544,
				"z": 6.3469541335,
				"element": "C" 
			},
			{
				"x": 0.6395939128,
				"y": 0.0430418769,
				"z": 7.657718911,
				"element": "C" 
			},
			{
				"x": 0.5075735036,
				"y": -1.3244960893,
				"z": 7.9257726457,
				"element": "C" 
			},
			{
				"x": 0.4825140853,
				"y": -1.8482346535,
				"z": 9.3410756322,
				"element": "C" 
			},
			{
				"x": 0.4011571001,
				"y": -2.2091120578,
				"z": 6.8352446121,
				"element": "C" 
			},
			{
				"x": 0.4258673726,
				"y": -1.7505923647,
				"z": 5.5266203328,
				"element": "C" 
			},
			{
				"x": 0.4928206345,
				"y": 1.0239036007,
				"z": -2.3361203618,
				"element": "N" 
			},
			{
				"x": -0.137932024,
				"y": 0.3810880034,
				"z": -3.2209210891,
				"element": "N" 
			},
			{
				"x": -0.0592243069,
				"y": 0.9384141616,
				"z": -4.5224567758,
				"element": "C" 
			},
			{
				"x": 0.6982735791,
				"y": 2.0727094248,
				"z": -4.8672557233,
				"element": "C" 
			},
			{
				"x": 0.6981712426,
				"y": 2.5280079631,
				"z": -6.1772401029,
				"element": "C" 
			},
			{
				"x": -0.0464943567,
				"y": 1.8780604281,
				"z": -7.1804434026,
				"element": "C" 
			},
			{
				"x": -0.0249215567,
				"y": 2.3886500875,
				"z": -8.6005438444,
				"element": "C" 
			},
			{
				"x": -0.7955810072,
				"y": 0.7506697046,
				"z": -6.8236491495,
				"element": "C" 
			},
			{
				"x": -0.8028703665,
				"y": 0.2829704209,
				"z": -5.5107663103,
				"element": "C" 
			},
			{
				"x": -1.4643986001,
				"y": -3.1751953438,
				"z": -2.5110963468,
				"element": "H" 
			},
			{
				"x": -1.8150043675,
				"y": -2.6535246543,
				"z": -0.8537527383,
				"element": "H" 
			},
			{
				"x": -1.8819351585,
				"y": -1.4814267533,
				"z": -2.1862698045,
				"element": "H" 
			},
			{
				"x": 0.536062895,
				"y": -1.7078462237,
				"z": -2.5625160042,
				"element": "H" 
			},
			{
				"x": 0.8790004098,
				"y": -4.0323265626,
				"z": -1.9573523315,
				"element": "H" 
			},
			{
				"x": 0.5144188183,
				"y": -3.7406523612,
				"z": -0.2596824471,
				"element": "H" 
			},
			{
				"x": 1.9812259548,
				"y": -3.0533277331,
				"z": -0.974828768,
				"element": "H" 
			},
			{
				"x": 0.8548584595,
				"y": 2.5027926122,
				"z": -0.4266989631,
				"element": "H" 
			},
			{
				"x": 1.7996191479,
				"y": 2.2552668905,
				"z": 2.9012690069,
				"element": "H" 
			},
			{
				"x": 1.0935210992,
				"y": 3.3393241103,
				"z": 1.6773558148,
				"element": "H" 
			},
			{
				"x": 0.0849325544,
				"y": 2.5677066303,
				"z": 2.924865235,
				"element": "H" 
			},
			{
				"x": 0.2426386918,
				"y": -2.0973345801,
				"z": 1.1286733647,
				"element": "H" 
			},
			{
				"x": 0.7675034093,
				"y": 1.5750137221,
				"z": 6.132946563,
				"element": "H" 
			},
			{
				"x": 0.7224667035,
				"y": 0.7445300702,
				"z": 8.4837602281,
				"element": "H" 
			},
			{
				"x": -0.4306486546,
				"y": -2.4220196561,
				"z": 9.5370523987,
				"element": "H" 
			},
			{
				"x": 1.3282387775,
				"y": -2.519783022,
				"z": 9.5311419324,
				"element": "H" 
			},
			{
				"x": 0.5312170749,
				"y": -1.035428369,
				"z": 10.0705763356,
				"element": "H" 
			},
			{
				"x": 0.2972683415,
				"y": -3.2749414576,
				"z": 7.0260405113,
				"element": "H" 
			},
			{
				"x": 0.3436931484,
				"y": -2.4316713734,
				"z": 4.687440882,
				"element": "H" 
			},
			{
				"x": 1.271266487,
				"y": 2.5728565468,
				"z": -4.0948413813,
				"element": "H" 
			},
			{
				"x": 1.2858233654,
				"y": 3.4053008747,
				"z": -6.4381226041,
				"element": "H" 
			},
			{
				"x": 0.9826906067,
				"y": 2.3277676517,
				"z": -9.0288143484,
				"element": "H" 
			},
			{
				"x": -0.3295324334,
				"y": 3.4403383189,
				"z": -8.6498231103,
				"element": "H" 
			},
			{
				"x": -0.6962047913,
				"y": 1.8137463992,
				"z": -9.2439434162,
				"element": "H" 
			},
			{
				"x": -1.3785742014,
				"y": 0.2339533644,
				"z": -7.5814668872,
				"element": "H" 
			},
			{
				"x": -1.3819865062,
				"y": -0.5904499258,
				"z": -5.2276342157,
				"element": "H" 
			}
		],
		 "valence_orbital": [ 
			{
				"type": "occ",
				"energy": -0.24016,
				"method": "rhf"
			},
			{
				"type": "occ",
				"energy": -0.23907,
				"method": "rhf"
			},
			{
				"type": "occ",
				"energy": -0.22318,
				"method": "rhf"
			},
			{
				"type": "occ",
				"energy": -0.21701,
				"method": "rhf"
			},
			{
				"type": "occ",
				"energy": -0.20801,
				"method": "rhf"
			},
			{
				"type": "unocc",
				"energy": -0.09026,
				"method": "rhf"
			},
			{
				"type": "unocc",
				"energy": -0.05325,
				"method": "rhf"
			},
			{
				"type": "unocc",
				"energy": -0.00485,
				"method": "rhf"
			},
			{
				"type": "unocc",
				"energy": -0.00247,
				"method": "rhf"
			},
			{
				"type": "unocc",
				"energy": 0.00291,
				"method": "rhf"
			}
		],
		"cosmo_sigma_profile": { 
			"-0.025": 0.0,
			"-0.024": 0.0,
			"-0.023": 0.0,
			"-0.022": 0.0,
			"-0.021": 0.0,
			"-0.02": 0.0,
			"-0.019": 0.0,
			"-0.018": 0.0,
			"-0.017": 0.0,
			"-0.016": 0.0,
			"-0.015": 0.0,
			"-0.014": 0.0,
			"-0.013": 0.0,
			"-0.012": 0.0,
			"-0.011": 0.0,
			"-0.01": 0.0,
			"-0.009": 0.0,
			"-0.008": 0.0,
			"-0.007": 0.0337391243432,
			"-0.006": 8.16328969749,
			"-0.005": 23.9492969168,
			"-0.004": 34.2287697455,
			"-0.003": 42.279368434,
			"-0.002": 43.3264257933,
			"-0.001": 46.9537879782,
			"0.0": 51.2622147398,
			"0.001": 49.4337470492,
			"0.002": 49.9972394309,
			"0.003": 47.811190708,
			"0.004": 35.5524366211,
			"0.005": 14.7784094857,
			"0.006": 4.85908697496,
			"0.007": 3.63788244736,
			"0.008": 0.993775978439,
			"0.009": 0.0,
			"0.01": 0.0,
			"0.011": 0.0,
			"0.012": 0.0,
			"0.013": 0.0,
			"0.014": 0.0,
			"0.015": 0.0,
			"0.016": 0.0,
			"0.017": 0.0,
			"0.018": 0.0,
			"0.019": 0.0,
			"0.02": 0.0,
			"0.021": 0.0,
			"0.022": 0.0,
			"0.023": 0.0,
			"0.024": 0.0,
			"0.025": 0.0
		}
	}
}
