{
	 "smiles": "CC1=NN(CC2=CC=CC=C2)C(Cl)=C1CCl", 
	 "Tm": 327.15, 
	 "num_atms": 28, 
	 "gaussian": { 
		 "optdone": 1, 
		 "sigma_profile": "yes", 
		 "theory": "DFT", 
		 "functional": "B3LYP", 
		 "basiset": "6-31G**", 
		 "properties": { 
			 "R2extent": 5542.8067, 
			 "electric_dipole_moment_norm": 2.38335251694, 
			 "electric_quadrupole_moment_norm": 10.7848527403, 
			 "total_energy": -1494.388708, 
			 "HOMO_LUMO_gap": 0.2317, 
			 "cosmo_polarized_energy": -9.52, 
			 "cosmo_cavitation_energy": 35.78, 
			 "cosmo_dispersion_energy": -24.57, 
			 "cosmo_repulsion_energy": 1.95, 
			 "cosmo_total_nonelectrostatic_energy": 13.17, 
			 "SMD_solvation_energy": 4.51 
		},
		"coords": [
			{
				"x": 0.8020912549,
				"y": 3.3345221266,
				"z": 3.0694575722,
				"element": "C" 
			},
			{
				"x": -0.0390677705,
				"y": 2.3293985207,
				"z": 2.3465150956,
				"element": "C" 
			},
			{
				"x": -0.6123774991,
				"y": 2.6332714669,
				"z": 1.1834562786,
				"element": "N" 
			},
			{
				"x": -1.2940726962,
				"y": 1.5188741627,
				"z": 0.8026571878,
				"element": "N" 
			},
			{
				"x": -1.9839334688,
				"y": 1.4980852865,
				"z": -0.485051129,
				"element": "C" 
			},
			{
				"x": -1.1429801807,
				"y": 0.9479200095,
				"z": -1.6236241138,
				"element": "C" 
			},
			{
				"x": 0.1189183226,
				"y": 1.4906628651,
				"z": -1.901217827,
				"element": "C" 
			},
			{
				"x": 0.8753675385,
				"y": 1.0007929249,
				"z": -2.9645887632,
				"element": "C" 
			},
			{
				"x": 0.3781738894,
				"y": -0.0310067603,
				"z": -3.7657082284,
				"element": "C" 
			},
			{
				"x": -0.8779481896,
				"y": -0.5735098786,
				"z": -3.495384453,
				"element": "C" 
			},
			{
				"x": -1.6329573287,
				"y": -0.0872174296,
				"z": -2.4255842006,
				"element": "C" 
			},
			{
				"x": -1.1385827302,
				"y": 0.5245840292,
				"z": 1.7101068682,
				"element": "C" 
			},
			{
				"x": -1.8848394605,
				"y": -1.0212131179,
				"z": 1.5287063702,
				"element": "Cl" 
			},
			{
				"x": -0.3425519034,
				"y": 0.9974965409,
				"z": 2.7427679628,
				"element": "C" 
			},
			{
				"x": 0.0763034539,
				"y": 0.2791128936,
				"z": 3.9645128395,
				"element": "C" 
			},
			{
				"x": 1.7882100019,
				"y": -0.4108731634,
				"z": 3.8489048202,
				"element": "Cl" 
			},
			{
				"x": 0.8336631009,
				"y": 4.26519694,
				"z": 2.4990797352,
				"element": "H" 
			},
			{
				"x": 0.3993972623,
				"y": 3.5544378614,
				"z": 4.065067763,
				"element": "H" 
			},
			{
				"x": 1.8256286859,
				"y": 2.9690090491,
				"z": 3.2040115571,
				"element": "H" 
			},
			{
				"x": -2.9011925073,
				"y": 0.9150389378,
				"z": -0.3721114066,
				"element": "H" 
			},
			{
				"x": -2.2643136452,
				"y": 2.5380308165,
				"z": -0.6717555188,
				"element": "H" 
			},
			{
				"x": 0.50343581,
				"y": 2.2906140851,
				"z": -1.2749929689,
				"element": "H" 
			},
			{
				"x": 1.8537546271,
				"y": 1.4255204395,
				"z": -3.1703016415,
				"element": "H" 
			},
			{
				"x": 0.9690221709,
				"y": -0.4103860351,
				"z": -4.5944320687,
				"element": "H" 
			},
			{
				"x": -1.2691444906,
				"y": -1.3788751044,
				"z": -4.1103738714,
				"element": "H" 
			},
			{
				"x": -2.6085171262,
				"y": -0.5175753631,
				"z": -2.2127058473,
				"element": "H" 
			},
			{
				"x": -0.5628220734,
				"y": -0.5780713619,
				"z": 4.1732908919,
				"element": "H" 
			},
			{
				"x": 0.1037349521,
				"y": 0.9328592582,
				"z": 4.8361970962,
				"element": "H" 
			}
		],
		 "valence_orbital": [ 
			{
				"type": "occ",
				"energy": -0.28804,
				"method": "rhf"
			},
			{
				"type": "occ",
				"energy": -0.25648,
				"method": "rhf"
			},
			{
				"type": "occ",
				"energy": -0.25447,
				"method": "rhf"
			},
			{
				"type": "occ",
				"energy": -0.24614,
				"method": "rhf"
			},
			{
				"type": "occ",
				"energy": -0.24577,
				"method": "rhf"
			},
			{
				"type": "unocc",
				"energy": -0.01407,
				"method": "rhf"
			},
			{
				"type": "unocc",
				"energy": -0.00843,
				"method": "rhf"
			},
			{
				"type": "unocc",
				"energy": -0.00465,
				"method": "rhf"
			},
			{
				"type": "unocc",
				"energy": 0.01597,
				"method": "rhf"
			},
			{
				"type": "unocc",
				"energy": 0.02552,
				"method": "rhf"
			}
		],
		"cosmo_sigma_profile": { 
			"-0.025": 0.0,
			"-0.024": 0.0,
			"-0.023": 0.0,
			"-0.022": 0.0,
			"-0.021": 0.0,
			"-0.02": 0.0,
			"-0.019": 0.0,
			"-0.018": 0.0,
			"-0.017": 0.0,
			"-0.016": 0.0,
			"-0.015": 0.0,
			"-0.014": 0.0,
			"-0.013": 0.0,
			"-0.012": 0.0,
			"-0.011": 0.0,
			"-0.01": 0.0,
			"-0.009": 0.0,
			"-0.008": 1.11461976811,
			"-0.007": 8.52313115627,
			"-0.006": 14.1855959434,
			"-0.005": 19.5263117978,
			"-0.004": 25.4894441589,
			"-0.003": 22.9778963131,
			"-0.002": 20.0443412913,
			"-0.001": 22.5872468228,
			"0.0": 25.452482042,
			"0.001": 24.1140377912,
			"0.002": 24.6024594102,
			"0.003": 20.4910988247,
			"0.004": 16.0940544472,
			"0.005": 16.5468863379,
			"0.006": 13.7956977804,
			"0.007": 8.52371978396,
			"0.008": 1.02528281566,
			"0.009": 0.83603191915,
			"0.01": 0.962444159151,
			"0.011": 0.965922779977,
			"0.012": 0.70855344786,
			"0.013": 0.52650615902,
			"0.014": 0.582479571104,
			"0.015": 0.099580912865,
			"0.016": 0.0,
			"0.017": 0.0,
			"0.018": 0.0,
			"0.019": 0.0,
			"0.02": 0.0,
			"0.021": 0.0,
			"0.022": 0.0,
			"0.023": 0.0,
			"0.024": 0.0,
			"0.025": 0.0
		}
	}
}
