{
	 "smiles": "OCC1CCN(CC1)C1=C(C=CC=N1)[N+]([O-])=O", 
	 "Tm": 345.15, 
	 "num_atms": 32, 
	 "gaussian": { 
		 "optdone": 1, 
		 "sigma_profile": "yes", 
		 "theory": "DFT", 
		 "functional": "B3LYP", 
		 "basiset": "6-31G**", 
		 "properties": { 
			 "R2extent": 4163.9709, 
			 "electric_dipole_moment_norm": 3.09340390024, 
			 "electric_quadrupole_moment_norm": 23.6491647354, 
			 "total_energy": -818.016317806, 
			 "HOMO_LUMO_gap": 0.14143, 
			 "cosmo_polarized_energy": -14.45, 
			 "cosmo_cavitation_energy": 33.53, 
			 "cosmo_dispersion_energy": -23.91, 
			 "cosmo_repulsion_energy": 1.86, 
			 "cosmo_total_nonelectrostatic_energy": 11.48, 
			 "SMD_solvation_energy": 6.18 
		},
		"coords": [
			{
				"x": -0.2541957458,
				"y": 1.9352923026,
				"z": 3.2281487872,
				"element": "O" 
			},
			{
				"x": -0.7698766811,
				"y": 0.8552148575,
				"z": 2.459238508,
				"element": "C" 
			},
			{
				"x": -1.4654881911,
				"y": 1.4496966202,
				"z": 1.2311924307,
				"element": "C" 
			},
			{
				"x": -0.4644860825,
				"y": 2.2026188386,
				"z": 0.3078325744,
				"element": "C" 
			},
			{
				"x": -0.1811844159,
				"y": 1.4238000639,
				"z": -0.9871670464,
				"element": "C" 
			},
			{
				"x": -0.0623172375,
				"y": -0.0182548137,
				"z": -0.7320769678,
				"element": "N" 
			},
			{
				"x": -1.2833937314,
				"y": -0.6594430149,
				"z": -0.2300453373,
				"element": "C" 
			},
			{
				"x": -2.2194176336,
				"y": 0.3754352872,
				"z": 0.4268492846,
				"element": "C" 
			},
			{
				"x": 1.1625082563,
				"y": -0.6155215464,
				"z": -0.6894805509,
				"element": "C" 
			},
			{
				"x": 1.3817420035,
				"y": -2.0274109512,
				"z": -0.6037683758,
				"element": "C" 
			},
			{
				"x": 2.6509161823,
				"y": -2.5078489104,
				"z": -0.2696144125,
				"element": "C" 
			},
			{
				"x": 3.7108912482,
				"y": -1.6238063751,
				"z": -0.1501983978,
				"element": "C" 
			},
			{
				"x": 3.4453648885,
				"y": -0.2765147867,
				"z": -0.427152832,
				"element": "C" 
			},
			{
				"x": 2.2359510459,
				"y": 0.2099030718,
				"z": -0.6672746235,
				"element": "N" 
			},
			{
				"x": 0.4062260593,
				"y": -3.0281982952,
				"z": -1.0088953374,
				"element": "N" 
			},
			{
				"x": -0.4148196009,
				"y": -2.7165420797,
				"z": -1.8786766042,
				"element": "O" 
			},
			{
				"x": 0.4903610338,
				"y": -4.1543724203,
				"z": -0.5077818396,
				"element": "O" 
			},
			{
				"x": 0.2963024325,
				"y": 1.5708977127,
				"z": 3.931656773,
				"element": "H" 
			},
			{
				"x": 0.0371808351,
				"y": 0.1728032129,
				"z": 2.1497526488,
				"element": "H" 
			},
			{
				"x": -1.4970996427,
				"y": 0.2656567873,
				"z": 3.0422414412,
				"element": "H" 
			},
			{
				"x": -2.1987473214,
				"y": 2.1646138823,
				"z": 1.622326467,
				"element": "H" 
			},
			{
				"x": -0.8582019758,
				"y": 3.1892036589,
				"z": 0.0388767571,
				"element": "H" 
			},
			{
				"x": 0.4687215891,
				"y": 2.3760329528,
				"z": 0.8508572498,
				"element": "H" 
			},
			{
				"x": 0.7371005181,
				"y": 1.7673059611,
				"z": -1.4579664256,
				"element": "H" 
			},
			{
				"x": -1.0007651648,
				"y": 1.5561587862,
				"z": -1.7040278912,
				"element": "H" 
			},
			{
				"x": -0.987832655,
				"y": -1.4148530855,
				"z": 0.5074534891,
				"element": "H" 
			},
			{
				"x": -1.8049501176,
				"y": -1.1944475104,
				"z": -1.0311702228,
				"element": "H" 
			},
			{
				"x": -2.8214763549,
				"y": 0.8690669749,
				"z": -0.3439927276,
				"element": "H" 
			},
			{
				"x": -2.9289869088,
				"y": -0.1660591405,
				"z": 1.0629414857,
				"element": "H" 
			},
			{
				"x": 2.7770162044,
				"y": -3.5791339462,
				"z": -0.1648361545,
				"element": "H" 
			},
			{
				"x": 4.7128156918,
				"y": -1.9628110606,
				"z": 0.0855029951,
				"element": "H" 
			},
			{
				"x": 4.2575414719,
				"y": 0.4491169661,
				"z": -0.4481451449,
				"element": "H" 
			}
		],
		 "valence_orbital": [ 
			{
				"type": "occ",
				"energy": -0.29413,
				"method": "rhf"
			},
			{
				"type": "occ",
				"energy": -0.27607,
				"method": "rhf"
			},
			{
				"type": "occ",
				"energy": -0.27205,
				"method": "rhf"
			},
			{
				"type": "occ",
				"energy": -0.26842,
				"method": "rhf"
			},
			{
				"type": "occ",
				"energy": -0.21801,
				"method": "rhf"
			},
			{
				"type": "unocc",
				"energy": -0.07658,
				"method": "rhf"
			},
			{
				"type": "unocc",
				"energy": -0.02461,
				"method": "rhf"
			},
			{
				"type": "unocc",
				"energy": -0.00224,
				"method": "rhf"
			},
			{
				"type": "unocc",
				"energy": 0.07017,
				"method": "rhf"
			},
			{
				"type": "unocc",
				"energy": 0.07232,
				"method": "rhf"
			}
		],
		"cosmo_sigma_profile": { 
			"-0.025": 0.0,
			"-0.024": 0.0,
			"-0.023": 0.0,
			"-0.022": 0.0,
			"-0.021": 0.0,
			"-0.02": 0.0,
			"-0.019": 0.0,
			"-0.018": 0.0,
			"-0.017": 0.0,
			"-0.016": 0.236425993194,
			"-0.015": 1.1669927548,
			"-0.014": 1.05932154168,
			"-0.013": 0.814707089398,
			"-0.012": 0.83709621733,
			"-0.011": 0.892882020272,
			"-0.01": 0.842128611031,
			"-0.009": 0.444676622963,
			"-0.008": 1.7096617611,
			"-0.007": 6.78762189298,
			"-0.006": 10.8885447048,
			"-0.005": 14.9803051724,
			"-0.004": 23.6710855739,
			"-0.003": 30.7798219883,
			"-0.002": 28.8102503101,
			"-0.001": 22.0189521602,
			"0.0": 18.2641446113,
			"0.001": 17.1183005046,
			"0.002": 11.8551128381,
			"0.003": 10.1482166688,
			"0.004": 6.44906687181,
			"0.005": 4.97692216908,
			"0.006": 6.63435755993,
			"0.007": 6.63787432601,
			"0.008": 11.0172929655,
			"0.009": 9.50818737554,
			"0.01": 6.26140145551,
			"0.011": 3.84010401485,
			"0.012": 1.14598608139,
			"0.013": 1.7601823305,
			"0.014": 1.29721950519,
			"0.015": 0.415902485522,
			"0.016": 0.0,
			"0.017": 0.0,
			"0.018": 0.0,
			"0.019": 0.0,
			"0.02": 0.0,
			"0.021": 0.0,
			"0.022": 0.0,
			"0.023": 0.0,
			"0.024": 0.0,
			"0.025": 0.0
		}
	}
}
