{
	 "smiles": "OC(=O)C1=CC=C(C=C1)C1=CN=CO1", 
	 "Tm": 573.15, 
	 "num_atms": 21, 
	 "gaussian": { 
		 "optdone": 1, 
		 "sigma_profile": "yes", 
		 "theory": "DFT", 
		 "functional": "B3LYP", 
		 "basiset": "6-31G**", 
		 "properties": { 
			 "R2extent": 3953.0714, 
			 "electric_dipole_moment_norm": 4.03966804205, 
			 "electric_quadrupole_moment_norm": 22.6255145464, 
			 "total_energy": -665.69782165, 
			 "HOMO_LUMO_gap": 0.16409, 
			 "cosmo_polarized_energy": -17.46, 
			 "cosmo_cavitation_energy": 26.63, 
			 "cosmo_dispersion_energy": -19.72, 
			 "cosmo_repulsion_energy": 1.5, 
			 "cosmo_total_nonelectrostatic_energy": 8.42, 
			 "SMD_solvation_energy": 5.04 
		},
		"coords": [
			{
				"x": 3.9444224305,
				"y": -0.5772977015,
				"z": 1.9975911311,
				"element": "O" 
			},
			{
				"x": 2.8247160747,
				"y": 0.1950769426,
				"z": 1.9753754653,
				"element": "C" 
			},
			{
				"x": 2.6388766743,
				"y": 1.0130372425,
				"z": 2.8458427029,
				"element": "O" 
			},
			{
				"x": 1.8715557488,
				"y": -0.026400695,
				"z": 0.8413268582,
				"element": "C" 
			},
			{
				"x": 1.8413280472,
				"y": -1.1999728595,
				"z": 0.0750243534,
				"element": "C" 
			},
			{
				"x": 0.9207573609,
				"y": -1.3526370404,
				"z": -0.9566673368,
				"element": "C" 
			},
			{
				"x": 0.0040084212,
				"y": -0.3280806414,
				"z": -1.2489945622,
				"element": "C" 
			},
			{
				"x": 0.0268564604,
				"y": 0.844232666,
				"z": -0.4681273366,
				"element": "C" 
			},
			{
				"x": 0.9404401976,
				"y": 0.9863738873,
				"z": 0.5652500022,
				"element": "C" 
			},
			{
				"x": -0.9573939502,
				"y": -0.4719361618,
				"z": -2.3300206068,
				"element": "C" 
			},
			{
				"x": -1.9536564945,
				"y": 0.3069433966,
				"z": -2.8525029594,
				"element": "C" 
			},
			{
				"x": -2.5645178917,
				"y": -0.3523907547,
				"z": -3.9058639249,
				"element": "N" 
			},
			{
				"x": -1.9312440261,
				"y": -1.4802248936,
				"z": -3.9817866799,
				"element": "C" 
			},
			{
				"x": -0.9432899303,
				"y": -1.6369399336,
				"z": -3.0671127394,
				"element": "O" 
			},
			{
				"x": 4.0382244758,
				"y": -1.0566959505,
				"z": 1.1630565156,
				"element": "H" 
			},
			{
				"x": 2.5098554504,
				"y": -2.0283516281,
				"z": 0.297516565,
				"element": "H" 
			},
			{
				"x": 0.9012382015,
				"y": -2.2683807044,
				"z": -1.536547009,
				"element": "H" 
			},
			{
				"x": -0.6778459588,
				"y": 1.6440982498,
				"z": -0.6724701088,
				"element": "H" 
			},
			{
				"x": 0.9552448838,
				"y": 1.8807499975,
				"z": 1.1784598089,
				"element": "H" 
			},
			{
				"x": -2.2729014482,
				"y": 1.2918734719,
				"z": -2.5453081742,
				"element": "H" 
			},
			{
				"x": -2.0903747272,
				"y": -2.2961768899,
				"z": -4.6712419646,
				"element": "H" 
			}
		],
		 "valence_orbital": [ 
			{
				"type": "occ",
				"energy": -0.30665,
				"method": "rhf"
			},
			{
				"type": "occ",
				"energy": -0.30314,
				"method": "rhf"
			},
			{
				"type": "occ",
				"energy": -0.28031,
				"method": "rhf"
			},
			{
				"type": "occ",
				"energy": -0.27515,
				"method": "rhf"
			},
			{
				"type": "occ",
				"energy": -0.23758,
				"method": "rhf"
			},
			{
				"type": "unocc",
				"energy": -0.07349,
				"method": "rhf"
			},
			{
				"type": "unocc",
				"energy": -0.0295,
				"method": "rhf"
			},
			{
				"type": "unocc",
				"energy": -0.00505,
				"method": "rhf"
			},
			{
				"type": "unocc",
				"energy": 0.02834,
				"method": "rhf"
			},
			{
				"type": "unocc",
				"energy": 0.05598,
				"method": "rhf"
			}
		],
		"cosmo_sigma_profile": { 
			"-0.025": 0.0,
			"-0.024": 0.0,
			"-0.023": 0.0,
			"-0.022": 0.0,
			"-0.021": 0.0,
			"-0.02": 0.0,
			"-0.019": 0.282286861813,
			"-0.018": 0.992543254899,
			"-0.017": 1.10885177723,
			"-0.016": 0.796617331213,
			"-0.015": 0.858882688604,
			"-0.014": 0.699975529681,
			"-0.013": 1.66998536879,
			"-0.012": 1.36912986551,
			"-0.011": 2.66454343919,
			"-0.01": 2.92106984244,
			"-0.009": 5.52140806823,
			"-0.008": 6.13162166866,
			"-0.007": 7.52856765673,
			"-0.006": 9.94934476959,
			"-0.005": 8.61252390096,
			"-0.004": 9.12311669222,
			"-0.003": 8.87142325284,
			"-0.002": 12.9760612799,
			"-0.001": 15.536811797,
			"0.0": 17.0209918992,
			"0.001": 19.1593746771,
			"0.002": 19.9938861406,
			"0.003": 12.4055197421,
			"0.004": 5.34796039875,
			"0.005": 4.78015832677,
			"0.006": 3.690894948,
			"0.007": 3.67759898772,
			"0.008": 3.93761502163,
			"0.009": 4.35349747115,
			"0.01": 5.94196772826,
			"0.011": 6.18973931808,
			"0.012": 6.32842891036,
			"0.013": 2.61124078164,
			"0.014": 0.760434477108,
			"0.015": 1.1948946776,
			"0.016": 0.198774372495,
			"0.017": 0.0,
			"0.018": 0.0,
			"0.019": 0.0,
			"0.02": 0.0,
			"0.021": 0.0,
			"0.022": 0.0,
			"0.023": 0.0,
			"0.024": 0.0,
			"0.025": 0.0
		}
	}
}
