{
	 "smiles": "O=C(N1CCCNCC1)C1=CC=CN1", 
	 "Tm": 417.15, 
	 "num_atms": 29, 
	 "gaussian": { 
		 "optdone": 1, 
		 "sigma_profile": "yes", 
		 "theory": "DFT", 
		 "functional": "B3LYP", 
		 "basiset": "6-31G**", 
		 "properties": { 
			 "R2extent": 3211.9132, 
			 "electric_dipole_moment_norm": 2.2119912545, 
			 "electric_quadrupole_moment_norm": 10.2240245843, 
			 "total_energy": -629.578994116, 
			 "HOMO_LUMO_gap": 0.19686, 
			 "cosmo_polarized_energy": -12.67, 
			 "cosmo_cavitation_energy": 29.59, 
			 "cosmo_dispersion_energy": -22.08, 
			 "cosmo_repulsion_energy": 1.71, 
			 "cosmo_total_nonelectrostatic_energy": 9.21, 
			 "SMD_solvation_energy": 2.87 
		},
		"coords": [
			{
				"x": -0.7892271424,
				"y": -2.0193477149,
				"z": 1.8904396171,
				"element": "O" 
			},
			{
				"x": -0.1199833757,
				"y": -1.2361960865,
				"z": 1.1979258417,
				"element": "C" 
			},
			{
				"x": -0.596859854,
				"y": 0.010110268,
				"z": 0.8756292442,
				"element": "N" 
			},
			{
				"x": 0.1171278169,
				"y": 1.0370826899,
				"z": 0.1216733446,
				"element": "C" 
			},
			{
				"x": -0.1477662019,
				"y": 1.0441966821,
				"z": -1.3990077104,
				"element": "C" 
			},
			{
				"x": -1.5846188362,
				"y": 0.6430721123,
				"z": -1.8133157298,
				"element": "C" 
			},
			{
				"x": -2.6991494564,
				"y": 1.1213159665,
				"z": -0.9994993448,
				"element": "N" 
			},
			{
				"x": -2.9881736415,
				"y": 0.3512269244,
				"z": 0.206115551,
				"element": "C" 
			},
			{
				"x": -1.940036183,
				"y": 0.3769890268,
				"z": 1.3337340101,
				"element": "C" 
			},
			{
				"x": 1.216676734,
				"y": -1.6942092048,
				"z": 0.7468212219,
				"element": "C" 
			},
			{
				"x": 2.2486506067,
				"y": -1.3053245878,
				"z": -0.1096259952,
				"element": "C" 
			},
			{
				"x": 3.2493507173,
				"y": -2.3057551307,
				"z": -0.0609578324,
				"element": "C" 
			},
			{
				"x": 2.8116332803,
				"y": -3.2841709307,
				"z": 0.8168796566,
				"element": "C" 
			},
			{
				"x": 1.5954339326,
				"y": -2.9033709576,
				"z": 1.2883924727,
				"element": "N" 
			},
			{
				"x": 1.1863757977,
				"y": 0.9626164029,
				"z": 0.328696049,
				"element": "H" 
			},
			{
				"x": -0.2032960562,
				"y": 1.9974740086,
				"z": 0.5406453796,
				"element": "H" 
			},
			{
				"x": 0.5452965903,
				"y": 0.3671152997,
				"z": -1.9126075421,
				"element": "H" 
			},
			{
				"x": 0.0821976747,
				"y": 2.0532476941,
				"z": -1.7666872583,
				"element": "H" 
			},
			{
				"x": -1.7386531703,
				"y": 0.9710751752,
				"z": -2.8498876434,
				"element": "H" 
			},
			{
				"x": -1.6570909815,
				"y": -0.4501382845,
				"z": -1.8270888256,
				"element": "H" 
			},
			{
				"x": -2.6272848181,
				"y": 2.1159803547,
				"z": -0.8036865616,
				"element": "H" 
			},
			{
				"x": -3.1407348081,
				"y": -0.6908861532,
				"z": -0.0996771412,
				"element": "H" 
			},
			{
				"x": -3.9430271847,
				"y": 0.7009502257,
				"z": 0.6202156761,
				"element": "H" 
			},
			{
				"x": -1.8825613846,
				"y": 1.3855572525,
				"z": 1.7660332168,
				"element": "H" 
			},
			{
				"x": -2.224833541,
				"y": -0.3206794343,
				"z": 2.1229316908,
				"element": "H" 
			},
			{
				"x": 2.2849815759,
				"y": -0.4210806201,
				"z": -0.7252965149,
				"element": "H" 
			},
			{
				"x": 4.1821465927,
				"y": -2.312147384,
				"z": -0.6070351809,
				"element": "H" 
			},
			{
				"x": 3.274435399,
				"y": -4.2081809502,
				"z": 1.1309769759,
				"element": "H" 
			},
			{
				"x": 0.9716899178,
				"y": -3.3895226439,
				"z": 1.9186633326,
				"element": "H" 
			}
		],
		 "valence_orbital": [ 
			{
				"type": "occ",
				"energy": -0.25054,
				"method": "rhf"
			},
			{
				"type": "occ",
				"energy": -0.24673,
				"method": "rhf"
			},
			{
				"type": "occ",
				"energy": -0.23927,
				"method": "rhf"
			},
			{
				"type": "occ",
				"energy": -0.21797,
				"method": "rhf"
			},
			{
				"type": "occ",
				"energy": -0.20841,
				"method": "rhf"
			},
			{
				"type": "unocc",
				"energy": -0.01155,
				"method": "rhf"
			},
			{
				"type": "unocc",
				"energy": 0.06408,
				"method": "rhf"
			},
			{
				"type": "unocc",
				"energy": 0.07452,
				"method": "rhf"
			},
			{
				"type": "unocc",
				"energy": 0.09163,
				"method": "rhf"
			},
			{
				"type": "unocc",
				"energy": 0.11066,
				"method": "rhf"
			}
		],
		"cosmo_sigma_profile": { 
			"-0.025": 0.0,
			"-0.024": 0.0,
			"-0.023": 0.0,
			"-0.022": 0.0,
			"-0.021": 0.0,
			"-0.02": 0.0,
			"-0.019": 0.0,
			"-0.018": 0.0,
			"-0.017": 0.0,
			"-0.016": 0.0,
			"-0.015": 0.0,
			"-0.014": 0.231846819246,
			"-0.013": 0.87753449136,
			"-0.012": 0.866348323032,
			"-0.011": 0.450011537884,
			"-0.01": 1.50841432214,
			"-0.009": 2.29359378575,
			"-0.008": 3.7006198159,
			"-0.007": 5.73687838664,
			"-0.006": 9.19628433037,
			"-0.005": 12.3102139614,
			"-0.004": 16.1324987197,
			"-0.003": 27.5775320383,
			"-0.002": 28.0279111384,
			"-0.001": 22.8067064173,
			"0.0": 16.1262983539,
			"0.001": 12.4788593476,
			"0.002": 10.6854990257,
			"0.003": 8.70990276999,
			"0.004": 8.63705198605,
			"0.005": 8.65180734957,
			"0.006": 7.69121211709,
			"0.007": 6.32357035313,
			"0.008": 3.51282122801,
			"0.009": 1.8482127836,
			"0.01": 2.19123836214,
			"0.011": 2.01554323642,
			"0.012": 2.09903963784,
			"0.013": 2.92892966072,
			"0.014": 4.52076284372,
			"0.015": 0.765574176936,
			"0.016": 0.0981736428269,
			"0.017": 0.893010516592,
			"0.018": 0.269954248582,
			"0.019": 0.0,
			"0.02": 0.0,
			"0.021": 0.0,
			"0.022": 0.0,
			"0.023": 0.0,
			"0.024": 0.0,
			"0.025": 0.0
		}
	}
}
