{
	 "smiles": "OC(=O)C1=CC=C(O1)SC1=CC=C(Cl)C=C1", 
	 "Tm": 435.15, 
	 "num_atms": 23, 
	 "gaussian": { 
		 "optdone": 1, 
		 "sigma_profile": "yes", 
		 "theory": "DFT", 
		 "functional": "B3LYP", 
		 "basiset": "6-31G**", 
		 "properties": { 
			 "R2extent": 7230.4045, 
			 "electric_dipole_moment_norm": 0.938061671747, 
			 "electric_quadrupole_moment_norm": 11.9268625468, 
			 "total_energy": -1507.42330926, 
			 "HOMO_LUMO_gap": 0.17731, 
			 "cosmo_polarized_energy": -11.66, 
			 "cosmo_cavitation_energy": 32.93, 
			 "cosmo_dispersion_energy": -23.89, 
			 "cosmo_repulsion_energy": 1.84, 
			 "cosmo_total_nonelectrostatic_energy": 10.88, 
			 "SMD_solvation_energy": 6.78 
		},
		"coords": [
			{
				"x": 1.3791963324,
				"y": -4.7392169416,
				"z": -0.1633368031,
				"element": "O" 
			},
			{
				"x": 0.0632938627,
				"y": -4.5114588065,
				"z": -0.3763334206,
				"element": "C" 
			},
			{
				"x": -0.6353959177,
				"y": -5.2102787159,
				"z": -1.0838424315,
				"element": "O" 
			},
			{
				"x": -0.4363462756,
				"y": -3.3311463993,
				"z": 0.3313292394,
				"element": "C" 
			},
			{
				"x": -1.6856023722,
				"y": -2.7671478436,
				"z": 0.322189415,
				"element": "C" 
			},
			{
				"x": -1.6112720697,
				"y": -1.6205243853,
				"z": 1.1584395357,
				"element": "C" 
			},
			{
				"x": -0.3217140157,
				"y": -1.5637439232,
				"z": 1.6281436392,
				"element": "C" 
			},
			{
				"x": 0.4022718918,
				"y": -2.6132586107,
				"z": 1.1368599341,
				"element": "O" 
			},
			{
				"x": 0.4425046456,
				"y": -0.4834518344,
				"z": 2.7810896204,
				"element": "S" 
			},
			{
				"x": 1.5875537901,
				"y": 0.4591836783,
				"z": 1.7536572403,
				"element": "C" 
			},
			{
				"x": 1.5767319394,
				"y": 1.8532722085,
				"z": 1.869980386,
				"element": "C" 
			},
			{
				"x": 2.4899330657,
				"y": 2.6269698665,
				"z": 1.1528401052,
				"element": "C" 
			},
			{
				"x": 3.398396401,
				"y": 1.9951096458,
				"z": 0.3054137575,
				"element": "C" 
			},
			{
				"x": 4.5405846794,
				"y": 2.9629301625,
				"z": -0.612632384,
				"element": "Cl" 
			},
			{
				"x": 3.4161378509,
				"y": 0.6059006568,
				"z": 0.1747126132,
				"element": "C" 
			},
			{
				"x": 2.5179867832,
				"y": -0.1635013025,
				"z": 0.9127268167,
				"element": "C" 
			},
			{
				"x": 1.5937012006,
				"y": -5.5378941637,
				"z": -0.6734607402,
				"element": "H" 
			},
			{
				"x": -2.5350255234,
				"y": -3.1384290938,
				"z": -0.2318240611,
				"element": "H" 
			},
			{
				"x": -2.39629517,
				"y": -0.9149382461,
				"z": 1.3859187992,
				"element": "H" 
			},
			{
				"x": 0.8512248088,
				"y": 2.3384377636,
				"z": 2.5151587759,
				"element": "H" 
			},
			{
				"x": 2.4861478391,
				"y": 3.7077543992,
				"z": 1.2402570144,
				"element": "H" 
			},
			{
				"x": 4.1335072349,
				"y": 0.1311587424,
				"z": -0.4855052069,
				"element": "H" 
			},
			{
				"x": 2.5391790188,
				"y": -1.244426857,
				"z": 0.8285181553,
				"element": "H" 
			}
		],
		 "valence_orbital": [ 
			{
				"type": "occ",
				"energy": -0.291,
				"method": "rhf"
			},
			{
				"type": "occ",
				"energy": -0.28307,
				"method": "rhf"
			},
			{
				"type": "occ",
				"energy": -0.27424,
				"method": "rhf"
			},
			{
				"type": "occ",
				"energy": -0.25184,
				"method": "rhf"
			},
			{
				"type": "occ",
				"energy": -0.23719,
				"method": "rhf"
			},
			{
				"type": "unocc",
				"energy": -0.05988,
				"method": "rhf"
			},
			{
				"type": "unocc",
				"energy": -0.03138,
				"method": "rhf"
			},
			{
				"type": "unocc",
				"energy": -0.02528,
				"method": "rhf"
			},
			{
				"type": "unocc",
				"energy": 0.0077,
				"method": "rhf"
			},
			{
				"type": "unocc",
				"energy": 0.02459,
				"method": "rhf"
			}
		],
		"cosmo_sigma_profile": { 
			"-0.025": 0.0,
			"-0.024": 0.0,
			"-0.023": 0.0,
			"-0.022": 0.0,
			"-0.021": 0.0,
			"-0.02": 0.0,
			"-0.019": 0.140099883955,
			"-0.018": 1.32424155374,
			"-0.017": 0.482487352953,
			"-0.016": 0.899630296113,
			"-0.015": 1.0008716245,
			"-0.014": 0.717019986322,
			"-0.013": 0.500482867884,
			"-0.012": 0.71715003101,
			"-0.011": 0.899747256375,
			"-0.01": 0.596418196365,
			"-0.009": 2.02091338083,
			"-0.008": 6.13450649509,
			"-0.007": 10.2457008299,
			"-0.006": 11.4575520108,
			"-0.005": 10.5046280898,
			"-0.004": 11.4047536798,
			"-0.003": 13.2812024704,
			"-0.002": 15.1393136775,
			"-0.001": 23.6623198337,
			"0.0": 23.9688667545,
			"0.001": 30.430309426,
			"0.002": 30.602529056,
			"0.003": 21.0890075721,
			"0.004": 16.4841050409,
			"0.005": 9.66731924353,
			"0.006": 4.78001911003,
			"0.007": 4.39841289635,
			"0.008": 3.43444136962,
			"0.009": 3.42755685409,
			"0.01": 2.23732567264,
			"0.011": 4.79961574618,
			"0.012": 3.34033920582,
			"0.013": 0.0140622691685,
			"0.014": 0.0,
			"0.015": 0.0,
			"0.016": 0.0,
			"0.017": 0.0,
			"0.018": 0.0,
			"0.019": 0.0,
			"0.02": 0.0,
			"0.021": 0.0,
			"0.022": 0.0,
			"0.023": 0.0,
			"0.024": 0.0,
			"0.025": 0.0
		}
	}
}
