{
	 "smiles": "OC1=C(C=O)C=CC=C1C(F)(F)F", 
	 "Tm": 330.15, 
	 "num_atms": 18, 
	 "gaussian": { 
		 "optdone": 1, 
		 "sigma_profile": "yes", 
		 "theory": "DFT", 
		 "functional": "B3LYP", 
		 "basiset": "6-31G**", 
		 "properties": { 
			 "R2extent": 3002.009, 
			 "electric_dipole_moment_norm": 4.36992405426, 
			 "electric_quadrupole_moment_norm": 11.6240516667, 
			 "total_energy": -757.83830741, 
			 "HOMO_LUMO_gap": 0.16577, 
			 "cosmo_polarized_energy": -8.57, 
			 "cosmo_cavitation_energy": 23.84, 
			 "cosmo_dispersion_energy": -17.35, 
			 "cosmo_repulsion_energy": 1.29, 
			 "cosmo_total_nonelectrostatic_energy": 7.78, 
			 "SMD_solvation_energy": 6.49 
		},
		"coords": [
			{
				"x": 0.3827570638,
				"y": -0.3245440125,
				"z": 0.0364453757,
				"element": "O" 
			},
			{
				"x": -0.388122369,
				"y": -0.2409271751,
				"z": -1.0472706238,
				"element": "C" 
			},
			{
				"x": -1.1459145055,
				"y": -1.3517978102,
				"z": -1.5091064094,
				"element": "C" 
			},
			{
				"x": -1.0820539803,
				"y": -2.6123517435,
				"z": -0.7856664389,
				"element": "C" 
			},
			{
				"x": -0.4008892917,
				"y": -2.7958081544,
				"z": 0.2268730251,
				"element": "O" 
			},
			{
				"x": -1.9487590266,
				"y": -1.2259762752,
				"z": -2.6570486723,
				"element": "C" 
			},
			{
				"x": -2.0125800252,
				"y": -0.0279923187,
				"z": -3.3490579543,
				"element": "C" 
			},
			{
				"x": -1.2635332218,
				"y": 1.0649017087,
				"z": -2.8900763492,
				"element": "C" 
			},
			{
				"x": -0.4588331772,
				"y": 0.9764114408,
				"z": -1.7583914691,
				"element": "C" 
			},
			{
				"x": 0.3377640269,
				"y": 2.1648435269,
				"z": -1.2834141539,
				"element": "C" 
			},
			{
				"x": 1.6617946556,
				"y": 1.9105047826,
				"z": -1.2735921709,
				"element": "F" 
			},
			{
				"x": -0.0102800287,
				"y": 2.5362161507,
				"z": -0.0349044288,
				"element": "F" 
			},
			{
				"x": 0.1435902263,
				"y": 3.2375440411,
				"z": -2.0873976772,
				"element": "F" 
			},
			{
				"x": 0.2952174322,
				"y": -1.2489543012,
				"z": 0.3863030007,
				"element": "H" 
			},
			{
				"x": -1.6936376042,
				"y": -3.4406057366,
				"z": -1.1921861456,
				"element": "H" 
			},
			{
				"x": -2.5193838089,
				"y": -2.0894175399,
				"z": -2.9911737506,
				"element": "H" 
			},
			{
				"x": -2.6310474854,
				"y": 0.0705220137,
				"z": -4.2342175016,
				"element": "H" 
			},
			{
				"x": -1.3037888802,
				"y": 2.0088314025,
				"z": -3.421917656,
				"element": "H" 
			}
		],
		 "valence_orbital": [ 
			{
				"type": "occ",
				"energy": -0.36229,
				"method": "rhf"
			},
			{
				"type": "occ",
				"energy": -0.36174,
				"method": "rhf"
			},
			{
				"type": "occ",
				"energy": -0.28851,
				"method": "rhf"
			},
			{
				"type": "occ",
				"energy": -0.28457,
				"method": "rhf"
			},
			{
				"type": "occ",
				"energy": -0.25049,
				"method": "rhf"
			},
			{
				"type": "unocc",
				"energy": -0.08472,
				"method": "rhf"
			},
			{
				"type": "unocc",
				"energy": -0.02876,
				"method": "rhf"
			},
			{
				"type": "unocc",
				"energy": 0.01684,
				"method": "rhf"
			},
			{
				"type": "unocc",
				"energy": 0.08067,
				"method": "rhf"
			},
			{
				"type": "unocc",
				"energy": 0.10577,
				"method": "rhf"
			}
		],
		"cosmo_sigma_profile": { 
			"-0.025": 0.0,
			"-0.024": 0.0,
			"-0.023": 0.0,
			"-0.022": 0.0,
			"-0.021": 0.0,
			"-0.02": 0.0,
			"-0.019": 0.0,
			"-0.018": 0.0,
			"-0.017": 0.0,
			"-0.016": 0.0,
			"-0.015": 0.0,
			"-0.014": 0.0,
			"-0.013": 0.0,
			"-0.012": 0.0,
			"-0.011": 0.0,
			"-0.01": 0.361758588798,
			"-0.009": 2.29601843397,
			"-0.008": 7.01473604898,
			"-0.007": 8.07418007382,
			"-0.006": 9.13931240934,
			"-0.005": 10.0638659165,
			"-0.004": 9.46802255918,
			"-0.003": 11.0028989136,
			"-0.002": 11.4780377438,
			"-0.001": 12.3272300288,
			"0.0": 15.49719446,
			"0.001": 14.7602412723,
			"0.002": 23.246862987,
			"0.003": 28.2466961203,
			"0.004": 5.33005453414,
			"0.005": 4.32458781079,
			"0.006": 4.44658202987,
			"0.007": 3.44039493766,
			"0.008": 4.50135870718,
			"0.009": 3.02957185984,
			"0.01": 1.84462704677,
			"0.011": 1.4648151822,
			"0.012": 0.829524974163,
			"0.013": 0.0,
			"0.014": 0.0,
			"0.015": 0.0,
			"0.016": 0.0,
			"0.017": 0.0,
			"0.018": 0.0,
			"0.019": 0.0,
			"0.02": 0.0,
			"0.021": 0.0,
			"0.022": 0.0,
			"0.023": 0.0,
			"0.024": 0.0,
			"0.025": 0.0
		}
	}
}
