{
	 "smiles": "CC1=NC(=CN1)C(O)=O", 
	 "Tm": 513.15, 
	 "num_atms": 15, 
	 "gaussian": { 
		 "optdone": 1, 
		 "sigma_profile": "yes", 
		 "theory": "DFT", 
		 "functional": "B3LYP", 
		 "basiset": "6-31G**", 
		 "properties": { 
			 "R2extent": 1356.9856, 
			 "electric_dipole_moment_norm": 7.51620223318, 
			 "electric_quadrupole_moment_norm": 9.83110065456, 
			 "total_energy": -454.120430294, 
			 "HOMO_LUMO_gap": 0.22514, 
			 "cosmo_polarized_energy": -18.77, 
			 "cosmo_cavitation_energy": 19.78, 
			 "cosmo_dispersion_energy": -14.92, 
			 "cosmo_repulsion_energy": 1.25, 
			 "cosmo_total_nonelectrostatic_energy": 6.11, 
			 "SMD_solvation_energy": 3.91 
		},
		"coords": [
			{
				"x": -1.3769445858,
				"y": 2.4980379533,
				"z": 0.6345828324,
				"element": "C" 
			},
			{
				"x": -0.7224133818,
				"y": 1.3470851939,
				"z": -0.0561844817,
				"element": "C" 
			},
			{
				"x": 0.4488561277,
				"y": 0.8234804938,
				"z": 0.237263802,
				"element": "N" 
			},
			{
				"x": 0.6425900277,
				"y": -0.2113767751,
				"z": -0.6584481812,
				"element": "C" 
			},
			{
				"x": -0.4285763632,
				"y": -0.3180139188,
				"z": -1.5099931584,
				"element": "C" 
			},
			{
				"x": -1.2898781693,
				"y": 0.6781848836,
				"z": -1.1171182884,
				"element": "N" 
			},
			{
				"x": 1.8720722365,
				"y": -1.0318942982,
				"z": -0.6200369723,
				"element": "C" 
			},
			{
				"x": 2.7347854378,
				"y": -0.6595298455,
				"z": 0.3511316179,
				"element": "O" 
			},
			{
				"x": 2.1000251429,
				"y": -1.9503862024,
				"z": -1.3760391844,
				"element": "O" 
			},
			{
				"x": -1.5559731801,
				"y": 3.3348326023,
				"z": -0.0501533266,
				"element": "H" 
			},
			{
				"x": -2.3391374857,
				"y": 2.2137968023,
				"z": 1.0756388014,
				"element": "H" 
			},
			{
				"x": -0.7206446946,
				"y": 2.8428032282,
				"z": 1.4344442958,
				"element": "H" 
			},
			{
				"x": -0.6334602736,
				"y": -0.9932896618,
				"z": -2.325044963,
				"element": "H" 
			},
			{
				"x": -2.1852692122,
				"y": 0.8834240906,
				"z": -1.5357187782,
				"element": "H" 
			},
			{
				"x": 2.3313683737,
				"y": 0.0945454538,
				"z": 0.8213759846,
				"element": "H" 
			}
		],
		 "valence_orbital": [ 
			{
				"type": "occ",
				"energy": -0.3053,
				"method": "rhf"
			},
			{
				"type": "occ",
				"energy": -0.30285,
				"method": "rhf"
			},
			{
				"type": "occ",
				"energy": -0.29594,
				"method": "rhf"
			},
			{
				"type": "occ",
				"energy": -0.25701,
				"method": "rhf"
			},
			{
				"type": "occ",
				"energy": -0.24401,
				"method": "rhf"
			},
			{
				"type": "unocc",
				"energy": -0.01887,
				"method": "rhf"
			},
			{
				"type": "unocc",
				"energy": 0.01111,
				"method": "rhf"
			},
			{
				"type": "unocc",
				"energy": 0.05353,
				"method": "rhf"
			},
			{
				"type": "unocc",
				"energy": 0.10436,
				"method": "rhf"
			},
			{
				"type": "unocc",
				"energy": 0.12076,
				"method": "rhf"
			}
		],
		"cosmo_sigma_profile": { 
			"-0.025": 0.0,
			"-0.024": 0.0,
			"-0.023": 0.0,
			"-0.022": 0.0,
			"-0.021": 0.0,
			"-0.02": 0.0,
			"-0.019": 0.0,
			"-0.018": 0.0433587624407,
			"-0.017": 1.46646788763,
			"-0.016": 1.63854228901,
			"-0.015": 1.57430644212,
			"-0.014": 1.19934872743,
			"-0.013": 1.42769401768,
			"-0.012": 2.01870550008,
			"-0.011": 1.1971712391,
			"-0.01": 3.53234227437,
			"-0.009": 3.87352865433,
			"-0.008": 3.24994631603,
			"-0.007": 3.70893526737,
			"-0.006": 7.09941191609,
			"-0.005": 8.20823886604,
			"-0.004": 8.513333114,
			"-0.003": 8.9128252763,
			"-0.002": 12.4610628119,
			"-0.001": 10.3801541986,
			"0.0": 7.15944255117,
			"0.001": 9.93360363263,
			"0.002": 9.48303948259,
			"0.003": 5.55948611951,
			"0.004": 3.81846419721,
			"0.005": 3.35020423677,
			"0.006": 5.1236344143,
			"0.007": 3.64114378208,
			"0.008": 2.7958135848,
			"0.009": 4.4661740085,
			"0.01": 5.41346468802,
			"0.011": 5.5494415688,
			"0.012": 5.72003064852,
			"0.013": 4.13201224732,
			"0.014": 1.03056327132,
			"0.015": 0.0,
			"0.016": 0.0,
			"0.017": 0.0,
			"0.018": 0.0,
			"0.019": 0.0,
			"0.02": 0.0,
			"0.021": 0.0,
			"0.022": 0.0,
			"0.023": 0.0,
			"0.024": 0.0,
			"0.025": 0.0
		}
	}
}
