{
	 "smiles": "COC1=C(C=C(CCNC(C)=O)C=C1)S(Cl)(=O)=O", 
	 "Tm": 350.15, 
	 "num_atms": 32, 
	 "gaussian": { 
		 "optdone": 1, 
		 "sigma_profile": "yes", 
		 "theory": "DFT", 
		 "functional": "B3LYP", 
		 "basiset": "6-31G**", 
		 "properties": { 
			 "R2extent": 6608.7073, 
			 "electric_dipole_moment_norm": 8.23136837348, 
			 "electric_quadrupole_moment_norm": 22.8754929365, 
			 "total_energy": -1641.56210496, 
			 "HOMO_LUMO_gap": 0.16715, 
			 "cosmo_polarized_energy": -23.26, 
			 "cosmo_cavitation_energy": 39.34, 
			 "cosmo_dispersion_energy": -26.18, 
			 "cosmo_repulsion_energy": 2.03, 
			 "cosmo_total_nonelectrostatic_energy": 15.18, 
			 "SMD_solvation_energy": 6.74 
		},
		"coords": [
			{
				"x": -2.0910279427,
				"y": -0.8428581725,
				"z": -4.1804227285,
				"element": "C" 
			},
			{
				"x": -0.7074260128,
				"y": -0.4611119282,
				"z": -4.1396198739,
				"element": "O" 
			},
			{
				"x": -0.0714025081,
				"y": -0.5963360247,
				"z": -2.9415878778,
				"element": "C" 
			},
			{
				"x": 0.3829022275,
				"y": 0.5505257321,
				"z": -2.2689107271,
				"element": "C" 
			},
			{
				"x": 1.1395115477,
				"y": 0.455560081,
				"z": -1.1017956717,
				"element": "C" 
			},
			{
				"x": 1.4408107543,
				"y": -0.7984227421,
				"z": -0.5582514077,
				"element": "C" 
			},
			{
				"x": 2.2375233619,
				"y": -0.9196289652,
				"z": 0.7212824418,
				"element": "C" 
			},
			{
				"x": 1.369248427,
				"y": -1.0537047053,
				"z": 1.9954429855,
				"element": "C" 
			},
			{
				"x": 0.5841980907,
				"y": 0.12834791,
				"z": 2.2948019682,
				"element": "N" 
			},
			{
				"x": -0.7839216272,
				"y": 0.2887043681,
				"z": 2.3136187606,
				"element": "C" 
			},
			{
				"x": -1.6357848473,
				"y": -0.8995320336,
				"z": 1.8924851743,
				"element": "C" 
			},
			{
				"x": -1.2778713085,
				"y": 1.3513259452,
				"z": 2.6623949317,
				"element": "O" 
			},
			{
				"x": 0.9677947688,
				"y": -1.9410391066,
				"z": -1.2203356727,
				"element": "C" 
			},
			{
				"x": 0.224409274,
				"y": -1.8477541401,
				"z": -2.3936398451,
				"element": "C" 
			},
			{
				"x": -0.0419263443,
				"y": 2.1141319103,
				"z": -3.0655285924,
				"element": "S" 
			},
			{
				"x": 0.4961743159,
				"y": 3.5483806294,
				"z": -1.5668212256,
				"element": "Cl" 
			},
			{
				"x": -1.4906406116,
				"y": 2.2120326872,
				"z": -3.1912928316,
				"element": "O" 
			},
			{
				"x": 0.8480706148,
				"y": 2.3635746393,
				"z": -4.1905126434,
				"element": "O" 
			},
			{
				"x": -2.6882615789,
				"y": -0.1642054762,
				"z": -3.5640306792,
				"element": "H" 
			},
			{
				"x": -2.2295100972,
				"y": -1.8773881823,
				"z": -3.8465540251,
				"element": "H" 
			},
			{
				"x": -2.394064427,
				"y": -0.7540251429,
				"z": -5.2238972525,
				"element": "H" 
			},
			{
				"x": 1.488186691,
				"y": 1.3554145533,
				"z": -0.6110449006,
				"element": "H" 
			},
			{
				"x": 2.8897340599,
				"y": -1.7998379667,
				"z": 0.667548952,
				"element": "H" 
			},
			{
				"x": 2.8959520644,
				"y": -0.050708944,
				"z": 0.8344481837,
				"element": "H" 
			},
			{
				"x": 0.6949288773,
				"y": -1.906377145,
				"z": 1.8911677801,
				"element": "H" 
			},
			{
				"x": 2.0311672438,
				"y": -1.2790717736,
				"z": 2.842363701,
				"element": "H" 
			},
			{
				"x": 1.074633028,
				"y": 0.9528268043,
				"z": 2.6187992714,
				"element": "H" 
			},
			{
				"x": -2.674128203,
				"y": -0.5698156704,
				"z": 1.8835960767,
				"element": "H" 
			},
			{
				"x": -1.535523674,
				"y": -1.7304440337,
				"z": 2.5997390963,
				"element": "H" 
			},
			{
				"x": -1.3627331168,
				"y": -1.2675606683,
				"z": 0.8988665394,
				"element": "H" 
			},
			{
				"x": 1.2043573598,
				"y": -2.9246929412,
				"z": -0.8219655306,
				"element": "H" 
			},
			{
				"x": -0.1039804074,
				"y": -2.7400094976,
				"z": -2.9168443771,
				"element": "H" 
			}
		],
		 "valence_orbital": [ 
			{
				"type": "occ",
				"energy": -0.30365,
				"method": "rhf"
			},
			{
				"type": "occ",
				"energy": -0.28822,
				"method": "rhf"
			},
			{
				"type": "occ",
				"energy": -0.26418,
				"method": "rhf"
			},
			{
				"type": "occ",
				"energy": -0.25206,
				"method": "rhf"
			},
			{
				"type": "occ",
				"energy": -0.24642,
				"method": "rhf"
			},
			{
				"type": "unocc",
				"energy": -0.07927,
				"method": "rhf"
			},
			{
				"type": "unocc",
				"energy": -0.05225,
				"method": "rhf"
			},
			{
				"type": "unocc",
				"energy": -0.03432,
				"method": "rhf"
			},
			{
				"type": "unocc",
				"energy": 0.02619,
				"method": "rhf"
			},
			{
				"type": "unocc",
				"energy": 0.04173,
				"method": "rhf"
			}
		],
		"cosmo_sigma_profile": { 
			"-0.025": 0.0,
			"-0.024": 0.0,
			"-0.023": 0.0,
			"-0.022": 0.0,
			"-0.021": 0.0,
			"-0.02": 0.0,
			"-0.019": 0.0,
			"-0.018": 0.0,
			"-0.017": 0.0,
			"-0.016": 0.0,
			"-0.015": 0.0,
			"-0.014": 0.0,
			"-0.013": 0.630405979478,
			"-0.012": 1.26300657288,
			"-0.011": 0.90758814467,
			"-0.01": 1.09955271784,
			"-0.009": 1.25599668767,
			"-0.008": 3.33620380276,
			"-0.007": 9.97031393612,
			"-0.006": 20.6730718038,
			"-0.005": 27.2939141853,
			"-0.004": 27.1857544037,
			"-0.003": 27.8537811938,
			"-0.002": 22.5712888889,
			"-0.001": 24.975113834,
			"0.0": 24.0859917641,
			"0.001": 18.9678235641,
			"0.002": 16.0130181488,
			"0.003": 14.6334198375,
			"0.004": 10.9607171054,
			"0.005": 7.53980896011,
			"0.006": 6.91122924868,
			"0.007": 6.81036200847,
			"0.008": 14.1074176167,
			"0.009": 8.49008339837,
			"0.01": 2.01449996733,
			"0.011": 0.550968264213,
			"0.012": 2.02230830116,
			"0.013": 2.48811411414,
			"0.014": 5.90683827854,
			"0.015": 3.14550234507,
			"0.016": 0.317672320362,
			"0.017": 0.0,
			"0.018": 0.0,
			"0.019": 0.0,
			"0.02": 0.0,
			"0.021": 0.0,
			"0.022": 0.0,
			"0.023": 0.0,
			"0.024": 0.0,
			"0.025": 0.0
		}
	}
}
