{
	 "smiles": "CC(=O)C1=C(C)N=C(SCC(O)=O)C(=C1)C#N", 
	 "Tm": 461.15, 
	 "num_atms": 27, 
	 "gaussian": { 
		 "optdone": 1, 
		 "sigma_profile": "yes", 
		 "theory": "DFT", 
		 "functional": "B3LYP", 
		 "basiset": "6-31G**", 
		 "properties": { 
			 "R2extent": 5249.396, 
			 "electric_dipole_moment_norm": 1.33354209157, 
			 "electric_quadrupole_moment_norm": 15.6066449011, 
			 "total_energy": -1158.55051169, 
			 "HOMO_LUMO_gap": 0.16482, 
			 "cosmo_polarized_energy": -19.04, 
			 "cosmo_cavitation_energy": 34.17, 
			 "cosmo_dispersion_energy": -24.14, 
			 "cosmo_repulsion_energy": 1.85, 
			 "cosmo_total_nonelectrostatic_energy": 11.87, 
			 "SMD_solvation_energy": 7.01 
		},
		"coords": [
			{
				"x": -2.1697785801,
				"y": -1.7142741434,
				"z": -2.7600177735,
				"element": "C" 
			},
			{
				"x": -2.4352210764,
				"y": -1.4461320679,
				"z": -1.2851023468,
				"element": "C" 
			},
			{
				"x": -3.5251231068,
				"y": -1.7190615593,
				"z": -0.8040853488,
				"element": "O" 
			},
			{
				"x": -1.3417519908,
				"y": -0.8464497935,
				"z": -0.4564755638,
				"element": "C" 
			},
			{
				"x": -1.4941362218,
				"y": -0.567338154,
				"z": 0.9319969384,
				"element": "C" 
			},
			{
				"x": -2.7343210573,
				"y": -0.8789091717,
				"z": 1.7221818504,
				"element": "C" 
			},
			{
				"x": -0.5114334578,
				"y": 0.012943886,
				"z": 1.6296334134,
				"element": "N" 
			},
			{
				"x": 0.6573848072,
				"y": 0.3323672056,
				"z": 1.0707748679,
				"element": "C" 
			},
			{
				"x": 1.7105189573,
				"y": 1.0740782604,
				"z": 2.294175311,
				"element": "S" 
			},
			{
				"x": 3.0694608774,
				"y": 1.9549323964,
				"z": 1.4547451992,
				"element": "C" 
			},
			{
				"x": 2.6311493497,
				"y": 3.0984843559,
				"z": 0.5552954773,
				"element": "C" 
			},
			{
				"x": 3.6656878715,
				"y": 3.9375465322,
				"z": 0.3358619516,
				"element": "O" 
			},
			{
				"x": 1.5344768494,
				"y": 3.2468652839,
				"z": 0.0701591532,
				"element": "O" 
			},
			{
				"x": 0.9326694692,
				"y": 0.0240602651,
				"z": -0.2822809334,
				"element": "C" 
			},
			{
				"x": -0.1044321385,
				"y": -0.5488637053,
				"z": -1.0283121769,
				"element": "C" 
			},
			{
				"x": 2.1963170013,
				"y": 0.2169463716,
				"z": -0.9186623167,
				"element": "C" 
			},
			{
				"x": 3.2207261022,
				"y": 0.3354827251,
				"z": -1.4587369637,
				"element": "N" 
			},
			{
				"x": -1.9162318288,
				"y": -0.7930298212,
				"z": -3.2958085373,
				"element": "H" 
			},
			{
				"x": -1.3397971227,
				"y": -2.4161896904,
				"z": -2.8970809408,
				"element": "H" 
			},
			{
				"x": -3.0742110197,
				"y": -2.142340173,
				"z": -3.1923116902,
				"element": "H" 
			},
			{
				"x": -2.5650641325,
				"y": -0.5917005784,
				"z": 2.7604844256,
				"element": "H" 
			},
			{
				"x": -2.9892782857,
				"y": -1.9400000551,
				"z": 1.6569862577,
				"element": "H" 
			},
			{
				"x": -3.5994211401,
				"y": -0.3439194442,
				"z": 1.3205969345,
				"element": "H" 
			},
			{
				"x": 3.7151842533,
				"y": 1.2873741095,
				"z": 0.8809861678,
				"element": "H" 
			},
			{
				"x": 3.6704630861,
				"y": 2.3519045463,
				"z": 2.2781924551,
				"element": "H" 
			},
			{
				"x": 3.3467613978,
				"y": 4.6140594966,
				"z": -0.2855066916,
				"element": "H" 
			},
			{
				"x": 0.0864011365,
				"y": -0.7688370775,
				"z": -2.0721891195,
				"element": "H" 
			}
		],
		 "valence_orbital": [ 
			{
				"type": "occ",
				"energy": -0.29617,
				"method": "rhf"
			},
			{
				"type": "occ",
				"energy": -0.28906,
				"method": "rhf"
			},
			{
				"type": "occ",
				"energy": -0.28329,
				"method": "rhf"
			},
			{
				"type": "occ",
				"energy": -0.25954,
				"method": "rhf"
			},
			{
				"type": "occ",
				"energy": -0.24428,
				"method": "rhf"
			},
			{
				"type": "unocc",
				"energy": -0.07946,
				"method": "rhf"
			},
			{
				"type": "unocc",
				"energy": -0.06508,
				"method": "rhf"
			},
			{
				"type": "unocc",
				"energy": -0.00945,
				"method": "rhf"
			},
			{
				"type": "unocc",
				"energy": -0.00063,
				"method": "rhf"
			},
			{
				"type": "unocc",
				"energy": 0.01112,
				"method": "rhf"
			}
		],
		"cosmo_sigma_profile": { 
			"-0.025": 0.0,
			"-0.024": 0.0,
			"-0.023": 0.0,
			"-0.022": 0.0,
			"-0.021": 0.0,
			"-0.02": 0.0,
			"-0.019": 0.506536450872,
			"-0.018": 1.09313565931,
			"-0.017": 0.776651185381,
			"-0.016": 0.801923201345,
			"-0.015": 0.878409006734,
			"-0.014": 0.73599916467,
			"-0.013": 0.914456562569,
			"-0.012": 0.663765111301,
			"-0.011": 0.930826502253,
			"-0.01": 3.36205476115,
			"-0.009": 5.41835834342,
			"-0.008": 7.92741056018,
			"-0.007": 10.7473360311,
			"-0.006": 11.6222680398,
			"-0.005": 12.8840607123,
			"-0.004": 17.9759431919,
			"-0.003": 23.2429733296,
			"-0.002": 24.6581545765,
			"-0.001": 22.0099902534,
			"0.0": 14.2165543775,
			"0.001": 10.5108002647,
			"0.002": 10.8977177358,
			"0.003": 13.1094462348,
			"0.004": 9.80634587835,
			"0.005": 10.6228519163,
			"0.006": 10.8230549734,
			"0.007": 10.0969020238,
			"0.008": 7.97715941569,
			"0.009": 8.05183379487,
			"0.01": 8.04371925857,
			"0.011": 8.46698096535,
			"0.012": 4.4974863782,
			"0.013": 0.854249271873,
			"0.014": 0.0,
			"0.015": 0.0,
			"0.016": 0.0,
			"0.017": 0.0,
			"0.018": 0.0,
			"0.019": 0.0,
			"0.02": 0.0,
			"0.021": 0.0,
			"0.022": 0.0,
			"0.023": 0.0,
			"0.024": 0.0,
			"0.025": 0.0
		}
	}
}
