{
	 "smiles": "CC1=CC2=C(SC(=N2)C2=CC=C(CCl)C=C2)C=C1", 
	 "Tm": 423.15, 
	 "num_atms": 30, 
	 "gaussian": { 
		 "optdone": 1, 
		 "sigma_profile": "yes", 
		 "theory": "DFT", 
		 "functional": "B3LYP", 
		 "basiset": "6-31G**", 
		 "properties": { 
			 "R2extent": 9125.0806, 
			 "electric_dipole_moment_norm": 2.72210930346, 
			 "electric_quadrupole_moment_norm": 15.0411481543, 
			 "total_energy": -1491.99075258, 
			 "HOMO_LUMO_gap": 0.15507, 
			 "cosmo_polarized_energy": -9.84, 
			 "cosmo_cavitation_energy": 37.55, 
			 "cosmo_dispersion_energy": -28.0, 
			 "cosmo_repulsion_energy": 2.1, 
			 "cosmo_total_nonelectrostatic_energy": 11.66, 
			 "SMD_solvation_energy": 3.93 
		},
		"coords": [
			{
				"x": -1.9178857374,
				"y": -1.4688888069,
				"z": 5.3959555672,
				"element": "C" 
			},
			{
				"x": -1.8294634675,
				"y": -0.849898499,
				"z": 4.0201769949,
				"element": "C" 
			},
			{
				"x": -0.6386924162,
				"y": -0.8680673057,
				"z": 3.299825021,
				"element": "C" 
			},
			{
				"x": -0.5811433078,
				"y": -0.2869855966,
				"z": 2.0225484071,
				"element": "C" 
			},
			{
				"x": -1.7380900275,
				"y": 0.3154740581,
				"z": 1.4742266432,
				"element": "C" 
			},
			{
				"x": -1.3641455807,
				"y": 0.9469799679,
				"z": -0.1139785848,
				"element": "S" 
			},
			{
				"x": 0.3102427773,
				"y": 0.3515341135,
				"z": 0.090953596,
				"element": "C" 
			},
			{
				"x": 0.5424647285,
				"y": -0.2468764982,
				"z": 1.2209434126,
				"element": "N" 
			},
			{
				"x": 1.3233243897,
				"y": 0.538067062,
				"z": -0.9559274861,
				"element": "C" 
			},
			{
				"x": 2.6206283739,
				"y": 0.0359122868,
				"z": -0.7466559693,
				"element": "C" 
			},
			{
				"x": 3.6023142816,
				"y": 0.199436313,
				"z": -1.7155512869,
				"element": "C" 
			},
			{
				"x": 3.3237550207,
				"y": 0.8668830837,
				"z": -2.9172665917,
				"element": "C" 
			},
			{
				"x": 4.3875741837,
				"y": 1.0456523965,
				"z": -3.9569056982,
				"element": "C" 
			},
			{
				"x": 4.4337142773,
				"y": -0.3473679169,
				"z": -5.1563265735,
				"element": "Cl" 
			},
			{
				"x": 2.0313214808,
				"y": 1.3650342113,
				"z": -3.1253383035,
				"element": "C" 
			},
			{
				"x": 1.0431912888,
				"y": 1.2046154794,
				"z": -2.1594187882,
				"element": "C" 
			},
			{
				"x": -2.9403561577,
				"y": 0.3415884786,
				"z": 2.185318615,
				"element": "C" 
			},
			{
				"x": -2.9693114618,
				"y": -0.2409853743,
				"z": 3.4474622108,
				"element": "C" 
			},
			{
				"x": -2.6657109161,
				"y": -2.2698227924,
				"z": 5.4252095851,
				"element": "H" 
			},
			{
				"x": -0.9595906043,
				"y": -1.8955199221,
				"z": 5.7034183726,
				"element": "H" 
			},
			{
				"x": -2.2114299177,
				"y": -0.727774009,
				"z": 6.1483818328,
				"element": "H" 
			},
			{
				"x": 0.2570297119,
				"y": -1.3267987635,
				"z": 3.7072468904,
				"element": "H" 
			},
			{
				"x": 2.8345641286,
				"y": -0.4765873081,
				"z": 0.1843052842,
				"element": "H" 
			},
			{
				"x": 4.5993850997,
				"y": -0.1964071436,
				"z": -1.5412835157,
				"element": "H" 
			},
			{
				"x": 5.3852925081,
				"y": 1.0805718124,
				"z": -3.519241798,
				"element": "H" 
			},
			{
				"x": 4.2245889025,
				"y": 1.9386648162,
				"z": -4.5603966092,
				"element": "H" 
			},
			{
				"x": 1.7969945759,
				"y": 1.8811860287,
				"z": -4.0523747097,
				"element": "H" 
			},
			{
				"x": 0.0506353761,
				"y": 1.6045211966,
				"z": -2.3454744737,
				"element": "H" 
			},
			{
				"x": -3.8306694295,
				"y": 0.8022242612,
				"z": 1.7693488283,
				"element": "H" 
			},
			{
				"x": -3.898332081,
				"y": -0.2279656295,
				"z": 4.0118191272,
				"element": "H" 
			}
		],
		 "valence_orbital": [ 
			{
				"type": "occ",
				"energy": -0.27777,
				"method": "rhf"
			},
			{
				"type": "occ",
				"energy": -0.27281,
				"method": "rhf"
			},
			{
				"type": "occ",
				"energy": -0.26514,
				"method": "rhf"
			},
			{
				"type": "occ",
				"energy": -0.23334,
				"method": "rhf"
			},
			{
				"type": "occ",
				"energy": -0.22308,
				"method": "rhf"
			},
			{
				"type": "unocc",
				"energy": -0.06801,
				"method": "rhf"
			},
			{
				"type": "unocc",
				"energy": -0.01558,
				"method": "rhf"
			},
			{
				"type": "unocc",
				"energy": -0.0075,
				"method": "rhf"
			},
			{
				"type": "unocc",
				"energy": -0.00349,
				"method": "rhf"
			},
			{
				"type": "unocc",
				"energy": 0.01066,
				"method": "rhf"
			}
		],
		"cosmo_sigma_profile": { 
			"-0.025": 0.0,
			"-0.024": 0.0,
			"-0.023": 0.0,
			"-0.022": 0.0,
			"-0.021": 0.0,
			"-0.02": 0.0,
			"-0.019": 0.0,
			"-0.018": 0.0,
			"-0.017": 0.0,
			"-0.016": 0.0,
			"-0.015": 0.0,
			"-0.014": 0.0,
			"-0.013": 0.0,
			"-0.012": 0.0,
			"-0.011": 0.0,
			"-0.01": 0.0,
			"-0.009": 0.0,
			"-0.008": 3.66968053494,
			"-0.007": 13.366303874,
			"-0.006": 15.7104286572,
			"-0.005": 19.2246330876,
			"-0.004": 21.4268490938,
			"-0.003": 20.5121983978,
			"-0.002": 17.7948938627,
			"-0.001": 20.0445787099,
			"0.0": 27.1139894428,
			"0.001": 24.6408133789,
			"0.002": 27.150396777,
			"0.003": 32.0147773987,
			"0.004": 25.9731686013,
			"0.005": 12.8022764033,
			"0.006": 11.1202886696,
			"0.007": 7.52494438928,
			"0.008": 1.8635375061,
			"0.009": 0.85110313213,
			"0.01": 1.23163339762,
			"0.011": 1.126766199,
			"0.012": 0.208583363287,
			"0.013": 0.0,
			"0.014": 0.0,
			"0.015": 0.0,
			"0.016": 0.0,
			"0.017": 0.0,
			"0.018": 0.0,
			"0.019": 0.0,
			"0.02": 0.0,
			"0.021": 0.0,
			"0.022": 0.0,
			"0.023": 0.0,
			"0.024": 0.0,
			"0.025": 0.0
		}
	}
}
