{
	 "smiles": "OC(=O)C1=C(SC2=NC=C(Br)C=C2)C=CC=C1", 
	 "Tm": 457.15, 
	 "num_atms": 25, 
	 "gaussian": { 
		 "optdone": 1, 
		 "sigma_profile": "yes", 
		 "theory": "DFT", 
		 "functional": "B3LYP", 
		 "basiset": "6-31G**", 
		 "properties": { 
			 "R2extent": 7829.4204, 
			 "electric_dipole_moment_norm": 6.61458117041, 
			 "electric_quadrupole_moment_norm": 19.0030850269, 
			 "total_energy": -3636.89206027, 
			 "HOMO_LUMO_gap": 0.17851, 
			 "cosmo_polarized_energy": -15.22, 
			 "cosmo_cavitation_energy": 33.92, 
			 "cosmo_dispersion_energy": -25.01, 
			 "cosmo_repulsion_energy": 1.89, 
			 "cosmo_total_nonelectrostatic_energy": 10.8, 
			 "SMD_solvation_energy": 5.12 
		},
		"coords": [
			{
				"x": 0.4144380036,
				"y": -0.334791177,
				"z": -2.420816898,
				"element": "O" 
			},
			{
				"x": 1.5076456996,
				"y": -0.9852963301,
				"z": -2.0118699613,
				"element": "C" 
			},
			{
				"x": 2.4147259175,
				"y": -1.2460247698,
				"z": -2.7725075846,
				"element": "O" 
			},
			{
				"x": 1.546224394,
				"y": -1.4563887845,
				"z": -0.5729187744,
				"element": "C" 
			},
			{
				"x": 1.2314251592,
				"y": -0.6829366341,
				"z": 0.5616124616,
				"element": "C" 
			},
			{
				"x": 0.8750068812,
				"y": 1.0867785056,
				"z": 0.4890528889,
				"element": "S" 
			},
			{
				"x": -0.9060443786,
				"y": 1.1227762077,
				"z": 0.3201190464,
				"element": "C" 
			},
			{
				"x": -1.4867171714,
				"y": 0.2542000929,
				"z": -0.5169562715,
				"element": "N" 
			},
			{
				"x": -2.8152266129,
				"y": 0.2845156646,
				"z": -0.6761777197,
				"element": "C" 
			},
			{
				"x": -3.6164545967,
				"y": 1.2127956941,
				"z": -0.0155329469,
				"element": "C" 
			},
			{
				"x": -5.4962782677,
				"y": 1.2087726137,
				"z": -0.2912357276,
				"element": "Br" 
			},
			{
				"x": -3.0202083377,
				"y": 2.1392929888,
				"z": 0.8409136387,
				"element": "C" 
			},
			{
				"x": -1.6420289042,
				"y": 2.0884462754,
				"z": 1.0204840809,
				"element": "C" 
			},
			{
				"x": 1.334426856,
				"y": -1.2472037684,
				"z": 1.8411430826,
				"element": "C" 
			},
			{
				"x": 1.7246595866,
				"y": -2.5748826824,
				"z": 2.0043702296,
				"element": "C" 
			},
			{
				"x": 2.0498243386,
				"y": -3.3419855864,
				"z": 0.8848076853,
				"element": "C" 
			},
			{
				"x": 1.9746009461,
				"y": -2.7791280791,
				"z": -0.385891819,
				"element": "C" 
			},
			{
				"x": -0.2818006333,
				"y": -0.2808484482,
				"z": -1.716638277,
				"element": "H" 
			},
			{
				"x": -3.2458492186,
				"y": -0.4416632176,
				"z": -1.3588739205,
				"element": "H" 
			},
			{
				"x": -3.6234333545,
				"y": 2.8712164868,
				"z": 1.3666961253,
				"element": "H" 
			},
			{
				"x": -1.1438587356,
				"y": 2.7712186198,
				"z": 1.6998081235,
				"element": "H" 
			},
			{
				"x": 1.1164703369,
				"y": -0.6312192449,
				"z": 2.7073085855,
				"element": "H" 
			},
			{
				"x": 1.7895132672,
				"y": -2.9998561204,
				"z": 3.0015480602,
				"element": "H" 
			},
			{
				"x": 2.3728641187,
				"y": -4.3721101127,
				"z": 1.0016008709,
				"element": "H" 
			},
			{
				"x": 2.2517747057,
				"y": -3.3522781936,
				"z": -1.2641449788,
				"element": "H" 
			}
		],
		 "valence_orbital": [ 
			{
				"type": "occ",
				"energy": -0.28842,
				"method": "rhf"
			},
			{
				"type": "occ",
				"energy": -0.27503,
				"method": "rhf"
			},
			{
				"type": "occ",
				"energy": -0.26974,
				"method": "rhf"
			},
			{
				"type": "occ",
				"energy": -0.24951,
				"method": "rhf"
			},
			{
				"type": "occ",
				"energy": -0.24611,
				"method": "rhf"
			},
			{
				"type": "unocc",
				"energy": -0.0676,
				"method": "rhf"
			},
			{
				"type": "unocc",
				"energy": -0.05237,
				"method": "rhf"
			},
			{
				"type": "unocc",
				"energy": -0.0429,
				"method": "rhf"
			},
			{
				"type": "unocc",
				"energy": -0.02716,
				"method": "rhf"
			},
			{
				"type": "unocc",
				"energy": -0.01548,
				"method": "rhf"
			}
		],
		"cosmo_sigma_profile": { 
			"-0.025": 0.0,
			"-0.024": 0.0,
			"-0.023": 0.0,
			"-0.022": 0.0,
			"-0.021": 0.0,
			"-0.02": 0.0,
			"-0.019": 0.0,
			"-0.018": 0.0,
			"-0.017": 0.0,
			"-0.016": 0.0,
			"-0.015": 0.0,
			"-0.014": 0.0,
			"-0.013": 0.0,
			"-0.012": 0.0,
			"-0.011": 0.0,
			"-0.01": 0.0241712829454,
			"-0.009": 3.64401819784,
			"-0.008": 7.20736403572,
			"-0.007": 11.5803640185,
			"-0.006": 14.5026038438,
			"-0.005": 16.3777409405,
			"-0.004": 15.6195719671,
			"-0.003": 16.8991847007,
			"-0.002": 22.3162050018,
			"-0.001": 31.4851350451,
			"0.0": 23.6569462458,
			"0.001": 18.408431614,
			"0.002": 22.1490517886,
			"0.003": 26.694243459,
			"0.004": 12.0368961703,
			"0.005": 4.65716857391,
			"0.006": 4.85148223963,
			"0.007": 2.36534334013,
			"0.008": 2.69604319797,
			"0.009": 3.36767312945,
			"0.01": 3.38226360215,
			"0.011": 5.09729513415,
			"0.012": 6.71372222283,
			"0.013": 2.97962586213,
			"0.014": 0.42340603807,
			"0.015": 0.0,
			"0.016": 0.0,
			"0.017": 0.0,
			"0.018": 0.0,
			"0.019": 0.0,
			"0.02": 0.0,
			"0.021": 0.0,
			"0.022": 0.0,
			"0.023": 0.0,
			"0.024": 0.0,
			"0.025": 0.0
		}
	}
}
