{
	 "smiles": "CS(=O)(=O)CCO", 
	 "Tm": 305.15, 
	 "num_atms": 15, 
	 "gaussian": { 
		 "optdone": 1, 
		 "sigma_profile": "yes", 
		 "theory": "DFT", 
		 "functional": "B3LYP", 
		 "basiset": "6-31G**", 
		 "properties": { 
			 "R2extent": 1611.6575, 
			 "electric_dipole_moment_norm": 4.66323150401, 
			 "electric_quadrupole_moment_norm": 10.769645484, 
			 "total_energy": -742.930736011, 
			 "HOMO_LUMO_gap": 0.32373, 
			 "cosmo_polarized_energy": -17.12, 
			 "cosmo_cavitation_energy": 19.04, 
			 "cosmo_dispersion_energy": -14.94, 
			 "cosmo_repulsion_energy": 1.21, 
			 "cosmo_total_nonelectrostatic_energy": 5.31, 
			 "SMD_solvation_energy": 3.05 
		},
		"coords": [
			{
				"x": -2.0876499552,
				"y": 0.8418811535,
				"z": 1.4724478271,
				"element": "C" 
			},
			{
				"x": -1.8933017917,
				"y": -0.8357593836,
				"z": 0.8262836334,
				"element": "S" 
			},
			{
				"x": -2.9908974431,
				"y": -1.0585391122,
				"z": -0.1429397026,
				"element": "O" 
			},
			{
				"x": -1.7167296779,
				"y": -1.7425658526,
				"z": 1.9679484089,
				"element": "O" 
			},
			{
				"x": -0.3409065409,
				"y": -0.7843644944,
				"z": -0.1221883886,
				"element": "C" 
			},
			{
				"x": -0.5002943833,
				"y": -0.1352224378,
				"z": -1.5053768916,
				"element": "C" 
			},
			{
				"x": -1.2695507035,
				"y": -0.9114696798,
				"z": -2.3868437095,
				"element": "O" 
			},
			{
				"x": -1.280659536,
				"y": 1.0534324933,
				"z": 2.1754057359,
				"element": "H" 
			},
			{
				"x": -2.0985996585,
				"y": 1.5575817953,
				"z": 0.6490364506,
				"element": "H" 
			},
			{
				"x": -3.0496412507,
				"y": 0.8512083904,
				"z": 1.9880590098,
				"element": "H" 
			},
			{
				"x": 0.4020244749,
				"y": -0.2817455048,
				"z": 0.5052063103,
				"element": "H" 
			},
			{
				"x": -0.0601507203,
				"y": -1.8366035753,
				"z": -0.2258648081,
				"element": "H" 
			},
			{
				"x": 0.4981372667,
				"y": -0.0414571828,
				"z": -1.9461709485,
				"element": "H" 
			},
			{
				"x": -0.8935172919,
				"y": 0.8904359324,
				"z": -1.3951147623,
				"element": "H" 
			},
			{
				"x": -2.1325627885,
				"y": -1.0491125417,
				"z": -1.9604881647,
				"element": "H" 
			}
		],
		 "valence_orbital": [ 
			{
				"type": "occ",
				"energy": -0.332,
				"method": "rhf"
			},
			{
				"type": "occ",
				"energy": -0.32299,
				"method": "rhf"
			},
			{
				"type": "occ",
				"energy": -0.30814,
				"method": "rhf"
			},
			{
				"type": "occ",
				"energy": -0.29256,
				"method": "rhf"
			},
			{
				"type": "occ",
				"energy": -0.27578,
				"method": "rhf"
			},
			{
				"type": "unocc",
				"energy": 0.04795,
				"method": "rhf"
			},
			{
				"type": "unocc",
				"energy": 0.0578,
				"method": "rhf"
			},
			{
				"type": "unocc",
				"energy": 0.06707,
				"method": "rhf"
			},
			{
				"type": "unocc",
				"energy": 0.07897,
				"method": "rhf"
			},
			{
				"type": "unocc",
				"energy": 0.08044,
				"method": "rhf"
			}
		],
		"cosmo_sigma_profile": { 
			"-0.025": 0.0,
			"-0.024": 0.0,
			"-0.023": 0.0,
			"-0.022": 0.0,
			"-0.021": 0.0,
			"-0.02": 0.0,
			"-0.019": 0.0,
			"-0.018": 0.0,
			"-0.017": 0.0,
			"-0.016": 0.0,
			"-0.015": 0.0,
			"-0.014": 0.0,
			"-0.013": 0.0,
			"-0.012": 0.175813985685,
			"-0.011": 1.02990086544,
			"-0.01": 1.5348606868,
			"-0.009": 7.37765258801,
			"-0.008": 11.7619219413,
			"-0.007": 10.1161413577,
			"-0.006": 12.8606667647,
			"-0.005": 12.2901879126,
			"-0.004": 12.8642418603,
			"-0.003": 8.08966616649,
			"-0.002": 5.02043469851,
			"-0.001": 4.29198378989,
			"0.0": 3.49926901804,
			"0.001": 4.30774166319,
			"0.002": 2.41580257613,
			"0.003": 2.90611306244,
			"0.004": 2.89737809431,
			"0.005": 2.93448186283,
			"0.006": 2.85264435482,
			"0.007": 3.63835170197,
			"0.008": 3.10453666223,
			"0.009": 4.60420835698,
			"0.01": 5.75667898482,
			"0.011": 8.72824756607,
			"0.012": 9.3195028887,
			"0.013": 2.14100534385,
			"0.014": 2.38344527114,
			"0.015": 0.413349792084,
			"0.016": 0.0,
			"0.017": 0.0,
			"0.018": 0.0,
			"0.019": 0.0,
			"0.02": 0.0,
			"0.021": 0.0,
			"0.022": 0.0,
			"0.023": 0.0,
			"0.024": 0.0,
			"0.025": 0.0
		}
	}
}
