{
	 "smiles": "CC1C=CC2C(C1C(O)=O)C(=O)N(CC1=CC=CC=C1)C2=O", 
	 "Tm": 478.15, 
	 "num_atms": 39, 
	 "gaussian": { 
		 "optdone": 1, 
		 "sigma_profile": "yes", 
		 "theory": "DFT", 
		 "functional": "B3LYP", 
		 "basiset": "6-31G**", 
		 "properties": { 
			 "R2extent": 7558.7999, 
			 "electric_dipole_moment_norm": 2.13932263345, 
			 "electric_quadrupole_moment_norm": 7.82061263649, 
			 "total_energy": -1013.74263404, 
			 "HOMO_LUMO_gap": 0.21818, 
			 "cosmo_polarized_energy": -17.5, 
			 "cosmo_cavitation_energy": 41.66, 
			 "cosmo_dispersion_energy": -27.89, 
			 "cosmo_repulsion_energy": 2.13, 
			 "cosmo_total_nonelectrostatic_energy": 15.9, 
			 "SMD_solvation_energy": 8.52 
		},
		"coords": [
			{
				"x": -0.5382356339,
				"y": -1.207495544,
				"z": 4.1247124604,
				"element": "C" 
			},
			{
				"x": 0.0492603227,
				"y": -0.8429201175,
				"z": 2.7481119894,
				"element": "C" 
			},
			{
				"x": -1.0619968629,
				"y": -0.3931433561,
				"z": 1.8230476183,
				"element": "C" 
			},
			{
				"x": -0.9869277495,
				"y": 0.6084326857,
				"z": 0.9430482429,
				"element": "C" 
			},
			{
				"x": 0.2788723115,
				"y": 1.3874833924,
				"z": 0.6644501938,
				"element": "C" 
			},
			{
				"x": 1.4798840724,
				"y": 0.8840043857,
				"z": 1.4847863641,
				"element": "C" 
			},
			{
				"x": 1.1267337912,
				"y": 0.2549702324,
				"z": 2.8496675699,
				"element": "C" 
			},
			{
				"x": 2.4336208758,
				"y": -0.1162757298,
				"z": 3.5494678206,
				"element": "C" 
			},
			{
				"x": 2.5253917404,
				"y": -1.4122254124,
				"z": 3.9133030912,
				"element": "O" 
			},
			{
				"x": 3.3090044249,
				"y": 0.6904935828,
				"z": 3.7779041934,
				"element": "O" 
			},
			{
				"x": 2.2073230499,
				"y": -0.0622399575,
				"z": 0.5266168762,
				"element": "C" 
			},
			{
				"x": 3.056706859,
				"y": -0.887147289,
				"z": 0.8041668067,
				"element": "O" 
			},
			{
				"x": 1.7638846654,
				"y": 0.2192649056,
				"z": -0.7609487611,
				"element": "N" 
			},
			{
				"x": 2.3173817487,
				"y": -0.412913948,
				"z": -1.9651045562,
				"element": "C" 
			},
			{
				"x": 1.5992653756,
				"y": -1.6918603189,
				"z": -2.3487701462,
				"element": "C" 
			},
			{
				"x": 2.0011986558,
				"y": -2.9192014764,
				"z": -1.8058349772,
				"element": "C" 
			},
			{
				"x": 1.335192257,
				"y": -4.0950069772,
				"z": -2.1534812012,
				"element": "C" 
			},
			{
				"x": 0.2612008301,
				"y": -4.0547578773,
				"z": -3.0454363496,
				"element": "C" 
			},
			{
				"x": -0.1472770061,
				"y": -2.8336979549,
				"z": -3.5855823668,
				"element": "C" 
			},
			{
				"x": 0.5181683227,
				"y": -1.6570129371,
				"z": -3.2384499381,
				"element": "C" 
			},
			{
				"x": 0.6870627184,
				"y": 1.103626319,
				"z": -0.7898893124,
				"element": "C" 
			},
			{
				"x": 0.158166594,
				"y": 1.5204358299,
				"z": -1.7992384355,
				"element": "O" 
			},
			{
				"x": -1.0148189914,
				"y": -0.3353309794,
				"z": 4.587239693,
				"element": "H" 
			},
			{
				"x": -1.3014666588,
				"y": -1.9856236107,
				"z": 4.0202378604,
				"element": "H" 
			},
			{
				"x": 0.2341883266,
				"y": -1.5817225966,
				"z": 4.7990001024,
				"element": "H" 
			},
			{
				"x": 0.5125295939,
				"y": -1.7475419951,
				"z": 2.329811794,
				"element": "H" 
			},
			{
				"x": -2.0036720412,
				"y": -0.9317892399,
				"z": 1.918066864,
				"element": "H" 
			},
			{
				"x": -1.8455709448,
				"y": 0.8696145383,
				"z": 0.3297413503,
				"element": "H" 
			},
			{
				"x": 0.0998956436,
				"y": 2.4635150448,
				"z": 0.7672842178,
				"element": "H" 
			},
			{
				"x": 2.1794742457,
				"y": 1.7062413954,
				"z": 1.6762393018,
				"element": "H" 
			},
			{
				"x": 0.7143226879,
				"y": 1.0728865773,
				"z": 3.4562810968,
				"element": "H" 
			},
			{
				"x": 3.4099721192,
				"y": -1.5170904489,
				"z": 4.3030340404,
				"element": "H" 
			},
			{
				"x": 2.2417912443,
				"y": 0.3275408553,
				"z": -2.7644661483,
				"element": "H" 
			},
			{
				"x": 3.3712562928,
				"y": -0.6083660222,
				"z": -1.7552723404,
				"element": "H" 
			},
			{
				"x": 2.8296940277,
				"y": -2.9440159971,
				"z": -1.1036215022,
				"element": "H" 
			},
			{
				"x": 1.656497812,
				"y": -5.0425394983,
				"z": -1.7301759206,
				"element": "H" 
			},
			{
				"x": -0.254417594,
				"y": -4.9710643747,
				"z": -3.3188281559,
				"element": "H" 
			},
			{
				"x": -0.9825982402,
				"y": -2.7967390397,
				"z": -4.2791438112,
				"element": "H" 
			},
			{
				"x": 0.1963411134,
				"y": -0.703887046,
				"z": -3.6485756248,
				"element": "H" 
			}
		],
		 "valence_orbital": [ 
			{
				"type": "occ",
				"energy": -0.27403,
				"method": "rhf"
			},
			{
				"type": "occ",
				"energy": -0.27013,
				"method": "rhf"
			},
			{
				"type": "occ",
				"energy": -0.25473,
				"method": "rhf"
			},
			{
				"type": "occ",
				"energy": -0.25013,
				"method": "rhf"
			},
			{
				"type": "occ",
				"energy": -0.24652,
				"method": "rhf"
			},
			{
				"type": "unocc",
				"energy": -0.02834,
				"method": "rhf"
			},
			{
				"type": "unocc",
				"energy": -0.00991,
				"method": "rhf"
			},
			{
				"type": "unocc",
				"energy": -0.00205,
				"method": "rhf"
			},
			{
				"type": "unocc",
				"energy": 0.00262,
				"method": "rhf"
			},
			{
				"type": "unocc",
				"energy": 0.00771,
				"method": "rhf"
			}
		],
		"cosmo_sigma_profile": { 
			"-0.025": 0.0,
			"-0.024": 0.0,
			"-0.023": 0.0,
			"-0.022": 0.0,
			"-0.021": 0.0,
			"-0.02": 0.0,
			"-0.019": 0.128588239131,
			"-0.018": 0.836955896006,
			"-0.017": 1.02453301092,
			"-0.016": 0.687299102336,
			"-0.015": 1.03055339754,
			"-0.014": 0.586798058805,
			"-0.013": 0.129516985259,
			"-0.012": 0.295641720901,
			"-0.011": 1.03756947562,
			"-0.01": 0.574942370157,
			"-0.009": 1.15463006309,
			"-0.008": 4.08947178678,
			"-0.007": 8.69377652952,
			"-0.006": 17.0974185933,
			"-0.005": 23.00070801,
			"-0.004": 31.5799695425,
			"-0.003": 31.1493798246,
			"-0.002": 24.124838699,
			"-0.001": 21.9168518214,
			"0.0": 21.7728183553,
			"0.001": 21.8238084241,
			"0.002": 16.2696664584,
			"0.003": 16.9492816829,
			"0.004": 16.65461266,
			"0.005": 17.039700088,
			"0.006": 8.90601278746,
			"0.007": 5.62016029757,
			"0.008": 5.7622190369,
			"0.009": 5.79783445971,
			"0.01": 6.57961890944,
			"0.011": 9.35558900548,
			"0.012": 6.84141728849,
			"0.013": 0.597881712233,
			"0.014": 0.0,
			"0.015": 0.0,
			"0.016": 0.0,
			"0.017": 0.0,
			"0.018": 0.0,
			"0.019": 0.0,
			"0.02": 0.0,
			"0.021": 0.0,
			"0.022": 0.0,
			"0.023": 0.0,
			"0.024": 0.0,
			"0.025": 0.0
		}
	}
}
