{
	 "smiles": "BrC1=COC2=C1C=CC=C2", 
	 "Tm": 309.65, 
	 "num_atms": 15, 
	 "gaussian": { 
		 "optdone": 1, 
		 "sigma_profile": "yes", 
		 "theory": "DFT", 
		 "functional": "B3LYP", 
		 "basiset": "6-31G**", 
		 "properties": { 
			 "R2extent": 2802.8674, 
			 "electric_dipole_moment_norm": 0.862558415413, 
			 "electric_quadrupole_moment_norm": 5.81352443531, 
			 "total_energy": -2954.47365492, 
			 "HOMO_LUMO_gap": 0.19646, 
			 "cosmo_polarized_energy": -4.2, 
			 "cosmo_cavitation_energy": 21.65, 
			 "cosmo_dispersion_energy": -16.74, 
			 "cosmo_repulsion_energy": 1.34, 
			 "cosmo_total_nonelectrostatic_energy": 6.24, 
			 "SMD_solvation_energy": 3.27 
		},
		"coords": [
			{
				"x": -1.3295203801,
				"y": -1.8039732792,
				"z": 2.9163266416,
				"element": "Br" 
			},
			{
				"x": -1.1629943813,
				"y": -0.6383670375,
				"z": 1.4483934865,
				"element": "C" 
			},
			{
				"x": -1.6348596379,
				"y": 0.631059023,
				"z": 1.373019342,
				"element": "C" 
			},
			{
				"x": -1.3419696744,
				"y": 1.2019472325,
				"z": 0.161025355,
				"element": "O" 
			},
			{
				"x": -0.6577732871,
				"y": 0.2538721419,
				"z": -0.5562482874,
				"element": "C" 
			},
			{
				"x": -0.5115559505,
				"y": -0.926124278,
				"z": 0.1959072265,
				"element": "C" 
			},
			{
				"x": 0.1626020622,
				"y": -2.0194788103,
				"z": -0.3632911097,
				"element": "C" 
			},
			{
				"x": 0.6641143939,
				"y": -1.8881825983,
				"z": -1.6543736083,
				"element": "C" 
			},
			{
				"x": 0.5038817858,
				"y": -0.6950647569,
				"z": -2.3859771819,
				"element": "C" 
			},
			{
				"x": -0.1637128991,
				"y": 0.4033556507,
				"z": -1.8467804217,
				"element": "C" 
			},
			{
				"x": -2.1788978162,
				"y": 1.246208267,
				"z": 2.0719555931,
				"element": "H" 
			},
			{
				"x": 0.2859525536,
				"y": -2.9386044329,
				"z": 0.2005254773,
				"element": "H" 
			},
			{
				"x": 1.1905468807,
				"y": -2.7211942974,
				"z": -2.1103014922,
				"element": "H" 
			},
			{
				"x": 0.9086708166,
				"y": -0.6289316853,
				"z": -3.3911779654,
				"element": "H" 
			},
			{
				"x": -0.2956844662,
				"y": 1.3288788608,
				"z": -2.3964030554,
				"element": "H" 
			}
		],
		 "valence_orbital": [ 
			{
				"type": "occ",
				"energy": -0.34255,
				"method": "rhf"
			},
			{
				"type": "occ",
				"energy": -0.2943,
				"method": "rhf"
			},
			{
				"type": "occ",
				"energy": -0.27655,
				"method": "rhf"
			},
			{
				"type": "occ",
				"energy": -0.24625,
				"method": "rhf"
			},
			{
				"type": "occ",
				"energy": -0.22524,
				"method": "rhf"
			},
			{
				"type": "unocc",
				"energy": -0.02878,
				"method": "rhf"
			},
			{
				"type": "unocc",
				"energy": 0.00539,
				"method": "rhf"
			},
			{
				"type": "unocc",
				"energy": 0.01028,
				"method": "rhf"
			},
			{
				"type": "unocc",
				"energy": 0.04399,
				"method": "rhf"
			},
			{
				"type": "unocc",
				"energy": 0.09366,
				"method": "rhf"
			}
		],
		"cosmo_sigma_profile": { 
			"-0.025": 0.0,
			"-0.024": 0.0,
			"-0.023": 0.0,
			"-0.022": 0.0,
			"-0.021": 0.0,
			"-0.02": 0.0,
			"-0.019": 0.0,
			"-0.018": 0.0,
			"-0.017": 0.0,
			"-0.016": 0.0,
			"-0.015": 0.0,
			"-0.014": 0.0,
			"-0.013": 0.0,
			"-0.012": 0.0,
			"-0.011": 0.0884749905617,
			"-0.01": 1.74851026759,
			"-0.009": 1.71899763548,
			"-0.008": 1.91429006608,
			"-0.007": 3.49859410507,
			"-0.006": 8.07913285146,
			"-0.005": 10.3368765505,
			"-0.004": 11.3082567508,
			"-0.003": 9.60924116548,
			"-0.002": 9.91523246994,
			"-0.001": 10.313760072,
			"0.0": 14.4145195909,
			"0.001": 21.1505686245,
			"0.002": 21.1058526563,
			"0.003": 20.5749671274,
			"0.004": 19.4616996227,
			"0.005": 8.92234475839,
			"0.006": 1.57788278229,
			"0.007": 1.55099687744,
			"0.008": 1.00233192713,
			"0.009": 0.0611743679337,
			"0.01": 0.0,
			"0.011": 0.0,
			"0.012": 0.0,
			"0.013": 0.0,
			"0.014": 0.0,
			"0.015": 0.0,
			"0.016": 0.0,
			"0.017": 0.0,
			"0.018": 0.0,
			"0.019": 0.0,
			"0.02": 0.0,
			"0.021": 0.0,
			"0.022": 0.0,
			"0.023": 0.0,
			"0.024": 0.0,
			"0.025": 0.0
		}
	}
}
