{
	 "smiles": "CN1C=CC(=N1)C1=CC=C(CCl)C=C1", 
	 "Tm": 352.15, 
	 "num_atms": 25, 
	 "gaussian": { 
		 "optdone": 1, 
		 "sigma_profile": "yes", 
		 "theory": "DFT", 
		 "functional": "B3LYP", 
		 "basiset": "6-31G**", 
		 "properties": { 
			 "R2extent": 6130.8985, 
			 "electric_dipole_moment_norm": 4.9020316482, 
			 "electric_quadrupole_moment_norm": 17.5946960323, 
			 "total_energy": -995.48870436, 
			 "HOMO_LUMO_gap": 0.18104, 
			 "cosmo_polarized_energy": -12.09, 
			 "cosmo_cavitation_energy": 31.0, 
			 "cosmo_dispersion_energy": -22.66, 
			 "cosmo_repulsion_energy": 1.78, 
			 "cosmo_total_nonelectrostatic_energy": 10.12, 
			 "SMD_solvation_energy": 4.45 
		},
		"coords": [
			{
				"x": -2.384893641,
				"y": -0.9660187709,
				"z": -2.2424568268,
				"element": "C" 
			},
			{
				"x": -0.9753784997,
				"y": -0.7564628096,
				"z": -1.9730728931,
				"element": "N" 
			},
			{
				"x": 0.07280758,
				"y": -0.8870371758,
				"z": -2.8309178143,
				"element": "C" 
			},
			{
				"x": 1.2127713566,
				"y": -0.5845596986,
				"z": -2.116569298,
				"element": "C" 
			},
			{
				"x": 0.7515298437,
				"y": -0.2757584918,
				"z": -0.8092800814,
				"element": "C" 
			},
			{
				"x": -0.5840593505,
				"y": -0.386199047,
				"z": -0.740862999,
				"element": "N" 
			},
			{
				"x": 1.5291824117,
				"y": 0.1222520494,
				"z": 0.3742154884,
				"element": "C" 
			},
			{
				"x": 0.8802349139,
				"y": 0.4296683557,
				"z": 1.582936899,
				"element": "C" 
			},
			{
				"x": 1.6100176225,
				"y": 0.8039119828,
				"z": 2.7048709798,
				"element": "C" 
			},
			{
				"x": 3.0093720541,
				"y": 0.8831095848,
				"z": 2.6612879017,
				"element": "C" 
			},
			{
				"x": 3.7923522254,
				"y": 1.2796513837,
				"z": 3.8730406409,
				"element": "C" 
			},
			{
				"x": 4.0624586261,
				"y": 3.1013561172,
				"z": 3.9806784682,
				"element": "Cl" 
			},
			{
				"x": 3.6573586208,
				"y": 0.5780765794,
				"z": 1.457827557,
				"element": "C" 
			},
			{
				"x": 2.9303031933,
				"y": 0.202716267,
				"z": 0.3320620978,
				"element": "C" 
			},
			{
				"x": -2.7778965443,
				"y": -1.7585088147,
				"z": -1.5999975225,
				"element": "H" 
			},
			{
				"x": -2.9449267689,
				"y": -0.0464027968,
				"z": -2.0534032003,
				"element": "H" 
			},
			{
				"x": -2.5062078433,
				"y": -1.2546703697,
				"z": -3.2877554152,
				"element": "H" 
			},
			{
				"x": -0.0721174764,
				"y": -1.1780487478,
				"z": -3.8612104424,
				"element": "H" 
			},
			{
				"x": 2.2252842344,
				"y": -0.5837121079,
				"z": -2.4897846464,
				"element": "H" 
			},
			{
				"x": -0.2015669361,
				"y": 0.367761561,
				"z": 1.6248317335,
				"element": "H" 
			},
			{
				"x": 1.0893383123,
				"y": 1.0408879903,
				"z": 3.6294029351,
				"element": "H" 
			},
			{
				"x": 3.2793448778,
				"y": 1.0165948836,
				"z": 4.7981358365,
				"element": "H" 
			},
			{
				"x": 4.7927612159,
				"y": 0.8467366704,
				"z": 3.8765491957,
				"element": "H" 
			},
			{
				"x": 4.7414499411,
				"y": 0.636572464,
				"z": 1.4022763715,
				"element": "H" 
			},
			{
				"x": 3.4593800305,
				"y": -0.0337170589,
				"z": -0.5859049659,
				"element": "H" 
			}
		],
		 "valence_orbital": [ 
			{
				"type": "occ",
				"energy": -0.28529,
				"method": "rhf"
			},
			{
				"type": "occ",
				"energy": -0.27937,
				"method": "rhf"
			},
			{
				"type": "occ",
				"energy": -0.25258,
				"method": "rhf"
			},
			{
				"type": "occ",
				"energy": -0.24666,
				"method": "rhf"
			},
			{
				"type": "occ",
				"energy": -0.21613,
				"method": "rhf"
			},
			{
				"type": "unocc",
				"energy": -0.03509,
				"method": "rhf"
			},
			{
				"type": "unocc",
				"energy": -0.00192,
				"method": "rhf"
			},
			{
				"type": "unocc",
				"energy": 0.02048,
				"method": "rhf"
			},
			{
				"type": "unocc",
				"energy": 0.04199,
				"method": "rhf"
			},
			{
				"type": "unocc",
				"energy": 0.0871,
				"method": "rhf"
			}
		],
		"cosmo_sigma_profile": { 
			"-0.025": 0.0,
			"-0.024": 0.0,
			"-0.023": 0.0,
			"-0.022": 0.0,
			"-0.021": 0.0,
			"-0.02": 0.0,
			"-0.019": 0.0,
			"-0.018": 0.0,
			"-0.017": 0.0,
			"-0.016": 0.0,
			"-0.015": 0.0,
			"-0.014": 0.0,
			"-0.013": 0.0,
			"-0.012": 0.0,
			"-0.011": 0.0,
			"-0.01": 0.0,
			"-0.009": 2.25014736443,
			"-0.008": 5.09808648048,
			"-0.007": 13.5600040329,
			"-0.006": 17.6760387814,
			"-0.005": 18.7531191794,
			"-0.004": 20.3045608804,
			"-0.003": 19.6165433009,
			"-0.002": 12.9967035126,
			"-0.001": 10.3128347449,
			"0.0": 9.60328792645,
			"0.001": 12.9371900289,
			"0.002": 12.2318180097,
			"0.003": 17.1709257012,
			"0.004": 23.2208150855,
			"0.005": 22.5677388231,
			"0.006": 11.9940244048,
			"0.007": 11.5471160607,
			"0.008": 2.23314467964,
			"0.009": 1.35332332112,
			"0.01": 1.32616744928,
			"0.011": 1.35106581961,
			"0.012": 0.777405222489,
			"0.013": 0.896277762685,
			"0.014": 0.155142595325,
			"0.015": 0.0,
			"0.016": 0.0,
			"0.017": 0.0,
			"0.018": 0.0,
			"0.019": 0.0,
			"0.02": 0.0,
			"0.021": 0.0,
			"0.022": 0.0,
			"0.023": 0.0,
			"0.024": 0.0,
			"0.025": 0.0
		}
	}
}
