{
	 "smiles": "COC(=O)[C@H](CC1=CC=C(O)C=C1)NC(=O)OC(C)(C)C", 
	 "Tm": 380.15, 
	 "num_atms": 42, 
	 "gaussian": { 
		 "optdone": 1, 
		 "sigma_profile": "yes", 
		 "theory": "DFT", 
		 "functional": "B3LYP", 
		 "basiset": "6-31G**", 
		 "properties": { 
			 "R2extent": 8623.2467, 
			 "electric_dipole_moment_norm": 1.87644705494, 
			 "electric_quadrupole_moment_norm": 23.6460566292, 
			 "total_energy": -1015.1673, 
			 "HOMO_LUMO_gap": 0.20962, 
			 "cosmo_polarized_energy": -19.09, 
			 "cosmo_cavitation_energy": 45.93, 
			 "cosmo_dispersion_energy": -29.61, 
			 "cosmo_repulsion_energy": 2.31, 
			 "cosmo_total_nonelectrostatic_energy": 18.63, 
			 "SMD_solvation_energy": 10.02 
		},
		"coords": [
			{
				"x": -0.8715850163,
				"y": -4.9025131169,
				"z": 1.4294238828,
				"element": "C" 
			},
			{
				"x": -0.6766678936,
				"y": -3.6923474848,
				"z": 0.6750419225,
				"element": "O" 
			},
			{
				"x": -0.2079824637,
				"y": -2.6359926277,
				"z": 1.3840230251,
				"element": "C" 
			},
			{
				"x": 0.0189148415,
				"y": -2.6706167998,
				"z": 2.5700646646,
				"element": "O" 
			},
			{
				"x": -0.023683162,
				"y": -1.4194401931,
				"z": 0.479971226,
				"element": "C" 
			},
			{
				"x": -1.3876701522,
				"y": -0.8394058123,
				"z": 0.0096235403,
				"element": "C" 
			},
			{
				"x": -2.3020690086,
				"y": -0.4193707636,
				"z": 1.1381121414,
				"element": "C" 
			},
			{
				"x": -2.1110408892,
				"y": 0.7972313463,
				"z": 1.8050184492,
				"element": "C" 
			},
			{
				"x": -2.9334949775,
				"y": 1.1810229596,
				"z": 2.862860526,
				"element": "C" 
			},
			{
				"x": -3.9749989246,
				"y": 0.3430668818,
				"z": 3.2758946981,
				"element": "C" 
			},
			{
				"x": -4.818876073,
				"y": 0.6619677016,
				"z": 4.3023263477,
				"element": "O" 
			},
			{
				"x": -4.1849466859,
				"y": -0.8744162631,
				"z": 2.6206144444,
				"element": "C" 
			},
			{
				"x": -3.3530365193,
				"y": -1.2430013913,
				"z": 1.5670859472,
				"element": "C" 
			},
			{
				"x": 0.8288935124,
				"y": -1.7961593015,
				"z": -0.6412827918,
				"element": "N" 
			},
			{
				"x": 1.6529058436,
				"y": -0.9592536146,
				"z": -1.3491105878,
				"element": "C" 
			},
			{
				"x": 2.2406819199,
				"y": -1.3073682785,
				"z": -2.3600656274,
				"element": "O" 
			},
			{
				"x": 1.7170976545,
				"y": 0.2605638532,
				"z": -0.7617397288,
				"element": "O" 
			},
			{
				"x": 2.6027878572,
				"y": 1.3084507678,
				"z": -1.2965392203,
				"element": "C" 
			},
			{
				"x": 4.0602864921,
				"y": 0.8383480148,
				"z": -1.2463430166,
				"element": "C" 
			},
			{
				"x": 2.1637178544,
				"y": 1.6918849715,
				"z": -2.7136417845,
				"element": "C" 
			},
			{
				"x": 2.3722509132,
				"y": 2.4673454604,
				"z": -0.3232003628,
				"element": "C" 
			},
			{
				"x": -1.59476735,
				"y": -4.7383364576,
				"z": 2.2315112991,
				"element": "H" 
			},
			{
				"x": -1.2458265949,
				"y": -5.6374958372,
				"z": 0.7171567157,
				"element": "H" 
			},
			{
				"x": 0.0723573956,
				"y": -5.2363200596,
				"z": 1.866855532,
				"element": "H" 
			},
			{
				"x": 0.5019235555,
				"y": -0.6742298923,
				"z": 1.0761572536,
				"element": "H" 
			},
			{
				"x": -1.1500572025,
				"y": 0.0164130685,
				"z": -0.6313400956,
				"element": "H" 
			},
			{
				"x": -1.8782497063,
				"y": -1.5898362389,
				"z": -0.6189271706,
				"element": "H" 
			},
			{
				"x": -1.3085864179,
				"y": 1.4609210548,
				"z": 1.4915419792,
				"element": "H" 
			},
			{
				"x": -2.7689144544,
				"y": 2.1326391405,
				"z": 3.3645046054,
				"element": "H" 
			},
			{
				"x": -4.5586286082,
				"y": 1.515402474,
				"z": 4.6722791734,
				"element": "H" 
			},
			{
				"x": -5.0000036585,
				"y": -1.5120911322,
				"z": 2.9466644411,
				"element": "H" 
			},
			{
				"x": -3.5272071771,
				"y": -2.1900477059,
				"z": 1.0620553499,
				"element": "H" 
			},
			{
				"x": 0.6427910831,
				"y": -2.6767505393,
				"z": -1.0992412036,
				"element": "H" 
			},
			{
				"x": 4.3258716908,
				"y": 0.5322546223,
				"z": -0.2294983252,
				"element": "H" 
			},
			{
				"x": 4.7212256329,
				"y": 1.6614207574,
				"z": -1.5369232291,
				"element": "H" 
			},
			{
				"x": 4.2229002429,
				"y": -0.0008032334,
				"z": -1.9229254344,
				"element": "H" 
			},
			{
				"x": 1.1088580136,
				"y": 1.9850291623,
				"z": -2.7185762786,
				"element": "H" 
			},
			{
				"x": 2.3030612266,
				"y": 0.8590309905,
				"z": -3.4028715809,
				"element": "H" 
			},
			{
				"x": 2.7541005195,
				"y": 2.5453485865,
				"z": -3.0627198526,
				"element": "H" 
			},
			{
				"x": 1.3218003952,
				"y": 2.773718492,
				"z": -0.3284127822,
				"element": "H" 
			},
			{
				"x": 2.9834721111,
				"y": 3.3274770622,
				"z": -0.6120749732,
				"element": "H" 
			},
			{
				"x": 2.6432941802,
				"y": 2.1765593754,
				"z": 0.695946881,
				"element": "H" 
			}
		],
		 "valence_orbital": [ 
			{
				"type": "occ",
				"energy": -0.28397,
				"method": "rhf"
			},
			{
				"type": "occ",
				"energy": -0.26147,
				"method": "rhf"
			},
			{
				"type": "occ",
				"energy": -0.25324,
				"method": "rhf"
			},
			{
				"type": "occ",
				"energy": -0.24994,
				"method": "rhf"
			},
			{
				"type": "occ",
				"energy": -0.21682,
				"method": "rhf"
			},
			{
				"type": "unocc",
				"energy": -0.0072,
				"method": "rhf"
			},
			{
				"type": "unocc",
				"energy": 0.00404,
				"method": "rhf"
			},
			{
				"type": "unocc",
				"energy": 0.00894,
				"method": "rhf"
			},
			{
				"type": "unocc",
				"energy": 0.05729,
				"method": "rhf"
			},
			{
				"type": "unocc",
				"energy": 0.0695,
				"method": "rhf"
			}
		],
		"cosmo_sigma_profile": { 
			"-0.025": 0.0,
			"-0.024": 0.0,
			"-0.023": 0.0,
			"-0.022": 0.0,
			"-0.021": 0.0,
			"-0.02": 0.0,
			"-0.019": 0.0,
			"-0.018": 0.270853708635,
			"-0.017": 1.06315608291,
			"-0.016": 1.1491657812,
			"-0.015": 1.00691595553,
			"-0.014": 1.12680811127,
			"-0.013": 1.18248442092,
			"-0.012": 1.02356641555,
			"-0.011": 1.34907630509,
			"-0.01": 2.20590434185,
			"-0.009": 2.11186344031,
			"-0.008": 1.43083741183,
			"-0.007": 3.42610910159,
			"-0.006": 9.32750748007,
			"-0.005": 18.0657460128,
			"-0.004": 36.1302289838,
			"-0.003": 37.4700114953,
			"-0.002": 33.5619007788,
			"-0.001": 32.3507838554,
			"0.0": 36.5456805526,
			"0.001": 29.9368556393,
			"0.002": 13.4374613199,
			"0.003": 16.2576937103,
			"0.004": 16.3011693166,
			"0.005": 14.932321636,
			"0.006": 11.1136258717,
			"0.007": 4.765095947,
			"0.008": 4.39392397275,
			"0.009": 3.91885927845,
			"0.01": 5.68168869852,
			"0.011": 7.83917638592,
			"0.012": 5.43564406743,
			"0.013": 3.57175965713,
			"0.014": 1.72726894071,
			"0.015": 0.0,
			"0.016": 0.0,
			"0.017": 0.0,
			"0.018": 0.0,
			"0.019": 0.0,
			"0.02": 0.0,
			"0.021": 0.0,
			"0.022": 0.0,
			"0.023": 0.0,
			"0.024": 0.0,
			"0.025": 0.0
		}
	}
}
