{
	 "smiles": "CC(C)C1CCC(C)CC1OC(=O)C(CC1=CC=CC=C1)CC1=CC=CC=C1", 
	 "Tm": 316.15, 
	 "num_atms": 62, 
	 "gaussian": { 
		 "optdone": 1, 
		 "sigma_profile": "yes", 
		 "theory": "DFT", 
		 "functional": "B3LYP", 
		 "basiset": "6-31G**", 
		 "properties": { 
			 "R2extent": 11703.4862, 
			 "electric_dipole_moment_norm": 1.61373383183, 
			 "electric_quadrupole_moment_norm": 9.42977189756, 
			 "total_energy": -1161.75288475, 
			 "HOMO_LUMO_gap": 0.22908, 
			 "cosmo_polarized_energy": -11.17, 
			 "cosmo_cavitation_energy": 60.16, 
			 "cosmo_dispersion_energy": -36.59, 
			 "cosmo_repulsion_energy": 2.75, 
			 "cosmo_total_nonelectrostatic_energy": 26.32, 
			 "SMD_solvation_energy": 9.01 
		},
		"coords": [
			{
				"x": 3.1271964729,
				"y": 0.2700828645,
				"z": -2.6819418488,
				"element": "C" 
			},
			{
				"x": 2.6520452726,
				"y": -1.1885560489,
				"z": -2.7779817215,
				"element": "C" 
			},
			{
				"x": 2.989950519,
				"y": -1.9574672714,
				"z": -1.4889187079,
				"element": "C" 
			},
			{
				"x": 1.1781364756,
				"y": -1.2917936052,
				"z": -3.2656350501,
				"element": "C" 
			},
			{
				"x": 0.6987765944,
				"y": -2.7570467807,
				"z": -3.4959051399,
				"element": "C" 
			},
			{
				"x": -0.365499822,
				"y": -3.2093053066,
				"z": -2.4859044807,
				"element": "C" 
			},
			{
				"x": -1.6386325457,
				"y": -2.3252596875,
				"z": -2.5435301412,
				"element": "C" 
			},
			{
				"x": -2.6919335052,
				"y": -2.8858005051,
				"z": -3.5094056702,
				"element": "C" 
			},
			{
				"x": -1.2849611668,
				"y": -0.861431786,
				"z": -2.9159701118,
				"element": "C" 
			},
			{
				"x": 0.1299031966,
				"y": -0.458197988,
				"z": -2.4961213803,
				"element": "C" 
			},
			{
				"x": 0.2766621726,
				"y": -0.6499053745,
				"z": -1.0523850813,
				"element": "O" 
			},
			{
				"x": -0.0913861626,
				"y": 0.3782467919,
				"z": -0.2538255391,
				"element": "C" 
			},
			{
				"x": -0.5354001103,
				"y": 1.4309444188,
				"z": -0.6661200298,
				"element": "O" 
			},
			{
				"x": 0.1010230528,
				"y": 0.0247285794,
				"z": 1.2163496432,
				"element": "C" 
			},
			{
				"x": -1.1393631331,
				"y": -0.756902617,
				"z": 1.7580336345,
				"element": "C" 
			},
			{
				"x": -2.4285663023,
				"y": 0.0290594826,
				"z": 1.8807667619,
				"element": "C" 
			},
			{
				"x": -3.3031331432,
				"y": 0.1607663679,
				"z": 0.7927694554,
				"element": "C" 
			},
			{
				"x": -4.4905961098,
				"y": 0.8831228829,
				"z": 0.9088712733,
				"element": "C" 
			},
			{
				"x": -4.8285485131,
				"y": 1.4877381112,
				"z": 2.1210039103,
				"element": "C" 
			},
			{
				"x": -3.9725005019,
				"y": 1.3590079495,
				"z": 3.2155276392,
				"element": "C" 
			},
			{
				"x": -2.7863198836,
				"y": 0.633642606,
				"z": 3.0942774318,
				"element": "C" 
			},
			{
				"x": 0.4319784209,
				"y": 1.282017354,
				"z": 2.0486322318,
				"element": "C" 
			},
			{
				"x": 1.8080249609,
				"y": 1.8501923992,
				"z": 1.7629036951,
				"element": "C" 
			},
			{
				"x": 2.9322084721,
				"y": 1.3644406934,
				"z": 2.4463874019,
				"element": "C" 
			},
			{
				"x": 4.2073269648,
				"y": 1.8655699012,
				"z": 2.1818635085,
				"element": "C" 
			},
			{
				"x": 4.3799176608,
				"y": 2.867042532,
				"z": 1.2245180841,
				"element": "C" 
			},
			{
				"x": 3.2692525002,
				"y": 3.3608583295,
				"z": 0.5377913937,
				"element": "C" 
			},
			{
				"x": 1.9943617161,
				"y": 2.8574587776,
				"z": 0.8047333002,
				"element": "C" 
			},
			{
				"x": 2.9224960466,
				"y": 0.8218496227,
				"z": -3.6069617848,
				"element": "H" 
			},
			{
				"x": 4.2069847789,
				"y": 0.3118005669,
				"z": -2.5036734419,
				"element": "H" 
			},
			{
				"x": 2.6442030702,
				"y": 0.8039552911,
				"z": -1.8570262177,
				"element": "H" 
			},
			{
				"x": 3.2337146522,
				"y": -1.6622986452,
				"z": -3.5834299401,
				"element": "H" 
			},
			{
				"x": 2.6523616387,
				"y": -2.9980236794,
				"z": -1.5301282347,
				"element": "H" 
			},
			{
				"x": 2.5374643021,
				"y": -1.4921861115,
				"z": -0.6114788945,
				"element": "H" 
			},
			{
				"x": 4.0755129309,
				"y": -1.9725208186,
				"z": -1.3401116798,
				"element": "H" 
			},
			{
				"x": 1.1842337316,
				"y": -0.8060205287,
				"z": -4.2522949669,
				"element": "H" 
			},
			{
				"x": 0.2855677526,
				"y": -2.8458465399,
				"z": -4.508658769,
				"element": "H" 
			},
			{
				"x": 1.5554082386,
				"y": -3.4392911986,
				"z": -3.4672711011,
				"element": "H" 
			},
			{
				"x": 0.0605795714,
				"y": -3.1636891282,
				"z": -1.4786681571,
				"element": "H" 
			},
			{
				"x": -0.6336742893,
				"y": -4.2573056234,
				"z": -2.667366089,
				"element": "H" 
			},
			{
				"x": -2.0825020267,
				"y": -2.3212792192,
				"z": -1.5398990097,
				"element": "H" 
			},
			{
				"x": -3.5685538917,
				"y": -2.2305790694,
				"z": -3.5683873038,
				"element": "H" 
			},
			{
				"x": -3.0349847497,
				"y": -3.8762108874,
				"z": -3.1911877957,
				"element": "H" 
			},
			{
				"x": -2.2859901425,
				"y": -2.9833909295,
				"z": -4.523784438,
				"element": "H" 
			},
			{
				"x": -2.0114323158,
				"y": -0.1635137299,
				"z": -2.4877942332,
				"element": "H" 
			},
			{
				"x": -1.3422936121,
				"y": -0.7339387477,
				"z": -4.0056554529,
				"element": "H" 
			},
			{
				"x": 0.284142002,
				"y": 0.6061540847,
				"z": -2.683302261,
				"element": "H" 
			},
			{
				"x": 0.9442419523,
				"y": -0.6726698698,
				"z": 1.2690176434,
				"element": "H" 
			},
			{
				"x": -1.2945832941,
				"y": -1.6280019729,
				"z": 1.1115037914,
				"element": "H" 
			},
			{
				"x": -0.8608548261,
				"y": -1.1461563779,
				"z": 2.743994354,
				"element": "H" 
			},
			{
				"x": -3.0560875336,
				"y": -0.3132535295,
				"z": -0.1532563217,
				"element": "H" 
			},
			{
				"x": -5.1536891902,
				"y": 0.9709939781,
				"z": 0.0528178954,
				"element": "H" 
			},
			{
				"x": -5.7541926389,
				"y": 2.0486028281,
				"z": 2.2131676984,
				"element": "H" 
			},
			{
				"x": -4.2297037421,
				"y": 1.8174312067,
				"z": 4.1663762253,
				"element": "H" 
			},
			{
				"x": -2.1319074364,
				"y": 0.5283570453,
				"z": 3.9561977649,
				"element": "H" 
			},
			{
				"x": 0.3684207977,
				"y": 1.0102967179,
				"z": 3.1089327307,
				"element": "H" 
			},
			{
				"x": -0.3372105902,
				"y": 2.035717328,
				"z": 1.8617266941,
				"element": "H" 
			},
			{
				"x": 2.8051273264,
				"y": 0.5903525826,
				"z": 3.2004447253,
				"element": "H" 
			},
			{
				"x": 5.0640229616,
				"y": 1.4783544994,
				"z": 2.7267636465,
				"element": "H" 
			},
			{
				"x": 5.3708070172,
				"y": 3.2621239284,
				"z": 1.0190211508,
				"element": "H" 
			},
			{
				"x": 3.3931212945,
				"y": 4.1440035393,
				"z": -0.2052338067,
				"element": "H" 
			},
			{
				"x": 1.1329266607,
				"y": 3.238530317,
				"z": 0.2650211171,
				"element": "H" 
			}
		],
		 "valence_orbital": [ 
			{
				"type": "occ",
				"energy": -0.26537,
				"method": "rhf"
			},
			{
				"type": "occ",
				"energy": -0.24596,
				"method": "rhf"
			},
			{
				"type": "occ",
				"energy": -0.24252,
				"method": "rhf"
			},
			{
				"type": "occ",
				"energy": -0.24182,
				"method": "rhf"
			},
			{
				"type": "occ",
				"energy": -0.23295,
				"method": "rhf"
			},
			{
				"type": "unocc",
				"energy": -0.00387,
				"method": "rhf"
			},
			{
				"type": "unocc",
				"energy": 0.00157,
				"method": "rhf"
			},
			{
				"type": "unocc",
				"energy": 0.00404,
				"method": "rhf"
			},
			{
				"type": "unocc",
				"energy": 0.00612,
				"method": "rhf"
			},
			{
				"type": "unocc",
				"energy": 0.01602,
				"method": "rhf"
			}
		],
		"cosmo_sigma_profile": { 
			"-0.025": 0.0,
			"-0.024": 0.0,
			"-0.023": 0.0,
			"-0.022": 0.0,
			"-0.021": 0.0,
			"-0.02": 0.0,
			"-0.019": 0.0,
			"-0.018": 0.0,
			"-0.017": 0.0,
			"-0.016": 0.0,
			"-0.015": 0.0,
			"-0.014": 0.0,
			"-0.013": 0.0,
			"-0.012": 0.0,
			"-0.011": 0.0,
			"-0.01": 0.0,
			"-0.009": 0.0,
			"-0.008": 0.0,
			"-0.007": 0.0,
			"-0.006": 3.02846979433,
			"-0.005": 22.0326869991,
			"-0.004": 34.1319080456,
			"-0.003": 52.9401540031,
			"-0.002": 62.4555680935,
			"-0.001": 60.5280867226,
			"0.0": 56.0420322558,
			"0.001": 48.6041757731,
			"0.002": 38.1109155748,
			"0.003": 21.1501150982,
			"0.004": 18.7378966891,
			"0.005": 17.6664161779,
			"0.006": 16.9307948005,
			"0.007": 5.72513739641,
			"0.008": 2.09255160876,
			"0.009": 2.09210593482,
			"0.01": 1.65712787176,
			"0.011": 1.80955439084,
			"0.012": 2.71316332721,
			"0.013": 0.317145542562,
			"0.014": 0.0,
			"0.015": 0.0,
			"0.016": 0.0,
			"0.017": 0.0,
			"0.018": 0.0,
			"0.019": 0.0,
			"0.02": 0.0,
			"0.021": 0.0,
			"0.022": 0.0,
			"0.023": 0.0,
			"0.024": 0.0,
			"0.025": 0.0
		}
	}
}
