{
	 "smiles": "COC(=O)C1=C(N)C=C(OC)C(OC)=C1", 
	 "Tm": 402.15, 
	 "num_atms": 28, 
	 "gaussian": { 
		 "optdone": 1, 
		 "sigma_profile": "yes", 
		 "theory": "DFT", 
		 "functional": "B3LYP", 
		 "basiset": "6-31G**", 
		 "properties": { 
			 "R2extent": 4282.4897, 
			 "electric_dipole_moment_norm": 2.2463500907, 
			 "electric_quadrupole_moment_norm": 16.2543042629, 
			 "total_energy": -744.529767201, 
			 "HOMO_LUMO_gap": 0.15785, 
			 "cosmo_polarized_energy": -13.14, 
			 "cosmo_cavitation_energy": 31.58, 
			 "cosmo_dispersion_energy": -23.04, 
			 "cosmo_repulsion_energy": 1.82, 
			 "cosmo_total_nonelectrostatic_energy": 10.36, 
			 "SMD_solvation_energy": 8.42 
		},
		"coords": [
			{
				"x": 1.6579631992,
				"y": 0.8961574881,
				"z": 3.5017471599,
				"element": "C" 
			},
			{
				"x": 1.2382508255,
				"y": -0.0629737516,
				"z": 2.5188716458,
				"element": "O" 
			},
			{
				"x": 0.905782121,
				"y": 0.4649312397,
				"z": 1.3004763993,
				"element": "C" 
			},
			{
				"x": 0.9817804308,
				"y": 1.6638415457,
				"z": 1.0960155897,
				"element": "O" 
			},
			{
				"x": 0.4763730776,
				"y": -0.5362131861,
				"z": 0.302584197,
				"element": "C" 
			},
			{
				"x": 0.3419792066,
				"y": -1.9314290631,
				"z": 0.5203097597,
				"element": "C" 
			},
			{
				"x": 0.5270145988,
				"y": -2.5461485683,
				"z": 1.7421456563,
				"element": "N" 
			},
			{
				"x": -0.044509946,
				"y": -2.7270572501,
				"z": -0.5797557002,
				"element": "C" 
			},
			{
				"x": -0.3158982277,
				"y": -2.1952440303,
				"z": -1.8294049587,
				"element": "C" 
			},
			{
				"x": -0.7446945099,
				"y": -3.0557421577,
				"z": -2.8018935964,
				"element": "O" 
			},
			{
				"x": 0.0260946773,
				"y": -3.1178858017,
				"z": -4.0066593206,
				"element": "C" 
			},
			{
				"x": -0.2148486387,
				"y": -0.793880845,
				"z": -2.0364607736,
				"element": "C" 
			},
			{
				"x": -0.5470901449,
				"y": -0.3298810828,
				"z": -3.2842907018,
				"element": "O" 
			},
			{
				"x": -0.5030494034,
				"y": 1.0721521184,
				"z": -3.4932344859,
				"element": "C" 
			},
			{
				"x": 0.1853061756,
				"y": -0.0040592838,
				"z": -0.9754988266,
				"element": "C" 
			},
			{
				"x": 2.551704141,
				"y": 1.4273733693,
				"z": 3.1656071812,
				"element": "H" 
			},
			{
				"x": 0.866512723,
				"y": 1.6252409466,
				"z": 3.6899367358,
				"element": "H" 
			},
			{
				"x": 1.8704203371,
				"y": 0.320482762,
				"z": 4.4031136099,
				"element": "H" 
			},
			{
				"x": 1.0230296789,
				"y": -2.0198842924,
				"z": 2.4445987095,
				"element": "H" 
			},
			{
				"x": 0.6988936438,
				"y": -3.5392941453,
				"z": 1.7227667891,
				"element": "H" 
			},
			{
				"x": -0.1543125343,
				"y": -3.8007179117,
				"z": -0.4595530519,
				"element": "H" 
			},
			{
				"x": 1.0638020506,
				"y": -3.4010156759,
				"z": -3.7878598718,
				"element": "H" 
			},
			{
				"x": 0.0111787308,
				"y": -2.1681926088,
				"z": -4.5455418819,
				"element": "H" 
			},
			{
				"x": -0.436364746,
				"y": -3.8973276302,
				"z": -4.6154004063,
				"element": "H" 
			},
			{
				"x": -0.8213050606,
				"y": 1.2339591373,
				"z": -4.5244338851,
				"element": "H" 
			},
			{
				"x": -1.1848367986,
				"y": 1.6016018932,
				"z": -2.8154119224,
				"element": "H" 
			},
			{
				"x": 0.5108481417,
				"y": 1.4718001188,
				"z": -3.3597732261,
				"element": "H" 
			},
			{
				"x": 0.284976251,
				"y": 1.0686066654,
				"z": -1.0796008239,
				"element": "H" 
			}
		],
		 "valence_orbital": [ 
			{
				"type": "occ",
				"energy": -0.28045,
				"method": "rhf"
			},
			{
				"type": "occ",
				"energy": -0.2718,
				"method": "rhf"
			},
			{
				"type": "occ",
				"energy": -0.26719,
				"method": "rhf"
			},
			{
				"type": "occ",
				"energy": -0.23249,
				"method": "rhf"
			},
			{
				"type": "occ",
				"energy": -0.18785,
				"method": "rhf"
			},
			{
				"type": "unocc",
				"energy": -0.03,
				"method": "rhf"
			},
			{
				"type": "unocc",
				"energy": 0.02286,
				"method": "rhf"
			},
			{
				"type": "unocc",
				"energy": 0.07076,
				"method": "rhf"
			},
			{
				"type": "unocc",
				"energy": 0.08788,
				"method": "rhf"
			},
			{
				"type": "unocc",
				"energy": 0.10332,
				"method": "rhf"
			}
		],
		"cosmo_sigma_profile": { 
			"-0.025": 0.0,
			"-0.024": 0.0,
			"-0.023": 0.0,
			"-0.022": 0.0,
			"-0.021": 0.0,
			"-0.02": 0.0,
			"-0.019": 0.0,
			"-0.018": 0.0,
			"-0.017": 0.0,
			"-0.016": 0.0,
			"-0.015": 0.0,
			"-0.014": 0.0358663672563,
			"-0.013": 0.990394184549,
			"-0.012": 1.27917266232,
			"-0.011": 1.43589307949,
			"-0.01": 1.41344156695,
			"-0.009": 2.65485602267,
			"-0.008": 2.09499656905,
			"-0.007": 3.32510744921,
			"-0.006": 9.95780010529,
			"-0.005": 22.1676453035,
			"-0.004": 24.1825698539,
			"-0.003": 28.3849790955,
			"-0.002": 19.4705804338,
			"-0.001": 13.7837836974,
			"0.0": 13.2621717679,
			"0.001": 13.0163617343,
			"0.002": 13.5029566767,
			"0.003": 18.5903638319,
			"0.004": 17.8828693974,
			"0.005": 8.00684214613,
			"0.006": 3.95267044903,
			"0.007": 6.07194956744,
			"0.008": 4.26596558838,
			"0.009": 4.81205574292,
			"0.01": 3.84568963378,
			"0.011": 5.03643857193,
			"0.012": 4.45257070074,
			"0.013": 2.2485410644,
			"0.014": 0.0,
			"0.015": 0.0,
			"0.016": 0.0,
			"0.017": 0.0,
			"0.018": 0.0,
			"0.019": 0.0,
			"0.02": 0.0,
			"0.021": 0.0,
			"0.022": 0.0,
			"0.023": 0.0,
			"0.024": 0.0,
			"0.025": 0.0
		}
	}
}
