{
	 "smiles": "CC1=CC(C)=C(C)C=C1C1OC2=C(Cl)C(Cl)=C(Cl)C(Cl)=C2O1", 
	 "Tm": 461.15, 
	 "num_atms": 34, 
	 "gaussian": { 
		 "optdone": 1, 
		 "sigma_profile": "yes", 
		 "theory": "DFT", 
		 "functional": "B3LYP", 
		 "basiset": "6-31G**", 
		 "properties": { 
			 "R2extent": 15488.4671, 
			 "electric_dipole_moment_norm": 4.58556999838, 
			 "electric_quadrupole_moment_norm": 10.8601159253, 
			 "total_energy": -2608.13344952, 
			 "HOMO_LUMO_gap": 0.1947, 
			 "cosmo_polarized_energy": -7.05, 
			 "cosmo_cavitation_energy": 44.62, 
			 "cosmo_dispersion_energy": -31.96, 
			 "cosmo_repulsion_energy": 2.45, 
			 "cosmo_total_nonelectrostatic_energy": 15.1, 
			 "SMD_solvation_energy": 6.65 
		},
		"coords": [
			{
				"x": 0.9071067614,
				"y": -1.4554513488,
				"z": 2.4377012927,
				"element": "C" 
			},
			{
				"x": 0.3417206861,
				"y": -0.2341516021,
				"z": 1.7478005706,
				"element": "C" 
			},
			{
				"x": 0.7651285317,
				"y": 1.0449136855,
				"z": 2.1199727131,
				"element": "C" 
			},
			{
				"x": 0.2836228252,
				"y": 2.2109792125,
				"z": 1.5153254051,
				"element": "C" 
			},
			{
				"x": 0.7812999749,
				"y": 3.5614858541,
				"z": 1.9699890669,
				"element": "C" 
			},
			{
				"x": -0.6690504827,
				"y": 2.1004644484,
				"z": 0.4823792459,
				"element": "C" 
			},
			{
				"x": -1.2245108292,
				"y": 3.325751063,
				"z": -0.2030043582,
				"element": "C" 
			},
			{
				"x": -1.0951326949,
				"y": 0.8262239637,
				"z": 0.0998015678,
				"element": "C" 
			},
			{
				"x": -0.6073765281,
				"y": -0.3299567922,
				"z": 0.7135635661,
				"element": "C" 
			},
			{
				"x": -1.0774637743,
				"y": -1.6849854787,
				"z": 0.2656678749,
				"element": "C" 
			},
			{
				"x": -2.2555465639,
				"y": -1.6138299699,
				"z": -0.5618106858,
				"element": "O" 
			},
			{
				"x": -2.0288574603,
				"y": -2.4345180252,
				"z": -1.626111889,
				"element": "C" 
			},
			{
				"x": -2.9085405233,
				"y": -2.7886749395,
				"z": -2.6300665872,
				"element": "C" 
			},
			{
				"x": -4.5364940736,
				"y": -2.1901822549,
				"z": -2.5924942122,
				"element": "Cl" 
			},
			{
				"x": -2.4220523531,
				"y": -3.6342964937,
				"z": -3.6567293661,
				"element": "C" 
			},
			{
				"x": -3.4996118431,
				"y": -4.1170682409,
				"z": -4.9319795637,
				"element": "Cl" 
			},
			{
				"x": -1.0904382613,
				"y": -4.0811311944,
				"z": -3.6441002749,
				"element": "C" 
			},
			{
				"x": -0.5033290657,
				"y": -5.1244391346,
				"z": -4.9039678024,
				"element": "Cl" 
			},
			{
				"x": -0.2083903028,
				"y": -3.6962566097,
				"z": -2.605210232,
				"element": "C" 
			},
			{
				"x": 1.4482516255,
				"y": -4.2062664332,
				"z": -2.5373934365,
				"element": "Cl" 
			},
			{
				"x": -0.7094063536,
				"y": -2.87604959,
				"z": -1.6115651163,
				"element": "C" 
			},
			{
				"x": -0.0571306332,
				"y": -2.3575431624,
				"z": -0.5389505353,
				"element": "O" 
			},
			{
				"x": 0.130913479,
				"y": -2.0177941995,
				"z": 2.972528229,
				"element": "H" 
			},
			{
				"x": 1.6638502451,
				"y": -1.168535709,
				"z": 3.171884931,
				"element": "H" 
			},
			{
				"x": 1.371979549,
				"y": -2.1442723132,
				"z": 1.7251997169,
				"element": "H" 
			},
			{
				"x": 1.5014731938,
				"y": 1.1364125244,
				"z": 2.9153466962,
				"element": "H" 
			},
			{
				"x": -0.0388489667,
				"y": 4.1909557968,
				"z": 2.3359556476,
				"element": "H" 
			},
			{
				"x": 1.2575442623,
				"y": 4.1121766557,
				"z": 1.1498494438,
				"element": "H" 
			},
			{
				"x": 1.5129146384,
				"y": 3.4636190826,
				"z": 2.7759830735,
				"element": "H" 
			},
			{
				"x": -1.9495913036,
				"y": 3.0515060119,
				"z": -0.9733375862,
				"element": "H" 
			},
			{
				"x": -0.4335206992,
				"y": 3.9146290253,
				"z": -0.6831200232,
				"element": "H" 
			},
			{
				"x": -1.7275736748,
				"y": 3.9939145133,
				"z": 0.5065534082,
				"element": "H" 
			},
			{
				"x": -1.8362593035,
				"y": 0.7273721908,
				"z": -0.6864145395,
				"element": "H" 
			},
			{
				"x": -1.3003800818,
				"y": -2.3496005358,
				"z": 1.110753759,
				"element": "H" 
			}
		],
		 "valence_orbital": [ 
			{
				"type": "occ",
				"energy": -0.2971,
				"method": "rhf"
			},
			{
				"type": "occ",
				"energy": -0.25443,
				"method": "rhf"
			},
			{
				"type": "occ",
				"energy": -0.24922,
				"method": "rhf"
			},
			{
				"type": "occ",
				"energy": -0.24076,
				"method": "rhf"
			},
			{
				"type": "occ",
				"energy": -0.2278,
				"method": "rhf"
			},
			{
				"type": "unocc",
				"energy": -0.0331,
				"method": "rhf"
			},
			{
				"type": "unocc",
				"energy": -0.0311,
				"method": "rhf"
			},
			{
				"type": "unocc",
				"energy": -0.02506,
				"method": "rhf"
			},
			{
				"type": "unocc",
				"energy": -0.02265,
				"method": "rhf"
			},
			{
				"type": "unocc",
				"energy": -0.00449,
				"method": "rhf"
			}
		],
		"cosmo_sigma_profile": { 
			"-0.025": 0.0,
			"-0.024": 0.0,
			"-0.023": 0.0,
			"-0.022": 0.0,
			"-0.021": 0.0,
			"-0.02": 0.0,
			"-0.019": 0.0,
			"-0.018": 0.0,
			"-0.017": 0.0,
			"-0.016": 0.0,
			"-0.015": 0.0,
			"-0.014": 0.0,
			"-0.013": 0.0,
			"-0.012": 0.0,
			"-0.011": 0.0,
			"-0.01": 0.0,
			"-0.009": 0.526510613933,
			"-0.008": 3.92883633638,
			"-0.007": 2.91601772264,
			"-0.006": 2.83968577185,
			"-0.005": 10.4574293698,
			"-0.004": 27.1907416012,
			"-0.003": 32.0145295749,
			"-0.002": 38.7249407035,
			"-0.001": 48.7214171913,
			"0.0": 41.7028064508,
			"0.001": 31.0757029776,
			"0.002": 30.6195949368,
			"0.003": 43.1795568574,
			"0.004": 29.4362797733,
			"0.005": 13.9779520246,
			"0.006": 5.11026908153,
			"0.007": 2.18237546447,
			"0.008": 0.344281630893,
			"0.009": 0.0,
			"0.01": 0.0,
			"0.011": 0.0,
			"0.012": 0.0,
			"0.013": 0.0,
			"0.014": 0.0,
			"0.015": 0.0,
			"0.016": 0.0,
			"0.017": 0.0,
			"0.018": 0.0,
			"0.019": 0.0,
			"0.02": 0.0,
			"0.021": 0.0,
			"0.022": 0.0,
			"0.023": 0.0,
			"0.024": 0.0,
			"0.025": 0.0
		}
	}
}
