{
	 "smiles": "OC(=O)CNC(=O)C=CC1=CN=CC=C1", 
	 "Tm": 538.15, 
	 "num_atms": 25, 
	 "gaussian": { 
		 "optdone": 1, 
		 "sigma_profile": "yes", 
		 "theory": "DFT", 
		 "functional": "B3LYP", 
		 "basiset": "6-31G**", 
		 "properties": { 
			 "R2extent": 5004.4828, 
			 "electric_dipole_moment_norm": 3.02811962941, 
			 "electric_quadrupole_moment_norm": 15.1972514222, 
			 "total_energy": -722.258117167, 
			 "HOMO_LUMO_gap": 0.1694, 
			 "cosmo_polarized_energy": -21.02, 
			 "cosmo_cavitation_energy": 30.26, 
			 "cosmo_dispersion_energy": -21.97, 
			 "cosmo_repulsion_energy": 1.72, 
			 "cosmo_total_nonelectrostatic_energy": 10.01, 
			 "SMD_solvation_energy": 5.71 
		},
		"coords": [
			{
				"x": -2.524023494,
				"y": 3.0796788932,
				"z": 1.0118224978,
				"element": "O" 
			},
			{
				"x": -1.5157149409,
				"y": 3.4214327331,
				"z": 0.1898008517,
				"element": "C" 
			},
			{
				"x": -1.6614943733,
				"y": 4.1435391475,
				"z": -0.7641374385,
				"element": "O" 
			},
			{
				"x": -0.146144923,
				"y": 2.8213939593,
				"z": 0.5543729062,
				"element": "C" 
			},
			{
				"x": -0.1725437829,
				"y": 1.9235831047,
				"z": 1.7084629745,
				"element": "N" 
			},
			{
				"x": -0.1278269035,
				"y": 0.5228924155,
				"z": 1.6480628903,
				"element": "C" 
			},
			{
				"x": 0.3251348004,
				"y": -0.0885714093,
				"z": 2.6105777005,
				"element": "O" 
			},
			{
				"x": -0.7208226077,
				"y": -0.0693558278,
				"z": 0.4307617064,
				"element": "C" 
			},
			{
				"x": -0.5997755275,
				"y": -1.3184665105,
				"z": -0.0816730978,
				"element": "C" 
			},
			{
				"x": 0.136694178,
				"y": -2.5283229739,
				"z": 0.2812595475,
				"element": "C" 
			},
			{
				"x": 0.1368377947,
				"y": -3.5663664422,
				"z": -0.6770786879,
				"element": "C" 
			},
			{
				"x": 0.7561837961,
				"y": -4.7368963484,
				"z": -0.5362398012,
				"element": "N" 
			},
			{
				"x": 1.4212898533,
				"y": -4.937933385,
				"z": 0.6100745573,
				"element": "C" 
			},
			{
				"x": 1.4841233631,
				"y": -3.9940148506,
				"z": 1.6365469503,
				"element": "C" 
			},
			{
				"x": 0.8348735961,
				"y": -2.7739256603,
				"z": 1.4796762849,
				"element": "C" 
			},
			{
				"x": -2.1459363378,
				"y": 2.5083091218,
				"z": 1.7079049505,
				"element": "H" 
			},
			{
				"x": 0.24465991,
				"y": 2.3239228811,
				"z": -0.3372656127,
				"element": "H" 
			},
			{
				"x": 0.5263742617,
				"y": 3.658472528,
				"z": 0.7625427056,
				"element": "H" 
			},
			{
				"x": 0.3109750236,
				"y": 2.2497736347,
				"z": 2.5374858407,
				"element": "H" 
			},
			{
				"x": -1.3581003143,
				"y": 0.6024391981,
				"z": -0.1374131491,
				"element": "H" 
			},
			{
				"x": -1.1597628889,
				"y": -1.4546591512,
				"z": -1.0072506096,
				"element": "H" 
			},
			{
				"x": -0.399681951,
				"y": -3.4235739217,
				"z": -1.6156522429,
				"element": "H" 
			},
			{
				"x": 1.91947213,
				"y": -5.9004416264,
				"z": 0.7121164295,
				"element": "H" 
			},
			{
				"x": 2.0286969162,
				"y": -4.2160764392,
				"z": 2.5490044047,
				"element": "H" 
			},
			{
				"x": 0.8442124215,
				"y": -2.0212330704,
				"z": 2.2574374414,
				"element": "H" 
			}
		],
		 "valence_orbital": [ 
			{
				"type": "occ",
				"energy": -0.28936,
				"method": "rhf"
			},
			{
				"type": "occ",
				"energy": -0.28509,
				"method": "rhf"
			},
			{
				"type": "occ",
				"energy": -0.26605,
				"method": "rhf"
			},
			{
				"type": "occ",
				"energy": -0.2618,
				"method": "rhf"
			},
			{
				"type": "occ",
				"energy": -0.25466,
				"method": "rhf"
			},
			{
				"type": "unocc",
				"energy": -0.08526,
				"method": "rhf"
			},
			{
				"type": "unocc",
				"energy": -0.02839,
				"method": "rhf"
			},
			{
				"type": "unocc",
				"energy": -0.00448,
				"method": "rhf"
			},
			{
				"type": "unocc",
				"energy": -0.00025,
				"method": "rhf"
			},
			{
				"type": "unocc",
				"energy": 0.05921,
				"method": "rhf"
			}
		],
		"cosmo_sigma_profile": { 
			"-0.025": 0.0,
			"-0.024": 0.0,
			"-0.023": 0.0,
			"-0.022": 0.0,
			"-0.021": 0.0,
			"-0.02": 0.0,
			"-0.019": 0.0,
			"-0.018": 0.0,
			"-0.017": 0.0,
			"-0.016": 0.0,
			"-0.015": 0.253770596423,
			"-0.014": 2.25015498158,
			"-0.013": 2.30255789438,
			"-0.012": 2.19224573187,
			"-0.011": 2.52034226831,
			"-0.01": 4.62924693405,
			"-0.009": 6.41108244994,
			"-0.008": 9.03258398888,
			"-0.007": 14.900956574,
			"-0.006": 15.2423359656,
			"-0.005": 13.777098864,
			"-0.004": 11.2095073127,
			"-0.003": 9.53816678308,
			"-0.002": 9.54036504196,
			"-0.001": 10.9152238529,
			"0.0": 13.6218979659,
			"0.001": 22.6355051225,
			"0.002": 18.4422663571,
			"0.003": 8.85520222555,
			"0.004": 6.50342944805,
			"0.005": 5.01633154932,
			"0.006": 5.74259507465,
			"0.007": 5.07726924444,
			"0.008": 5.10509085556,
			"0.009": 6.1186573804,
			"0.01": 7.83797460028,
			"0.011": 7.02919121056,
			"0.012": 8.7549064629,
			"0.013": 4.33085397943,
			"0.014": 0.740342700009,
			"0.015": 0.950801170378,
			"0.016": 0.707426181126,
			"0.017": 0.182650236181,
			"0.018": 0.0,
			"0.019": 0.0,
			"0.02": 0.0,
			"0.021": 0.0,
			"0.022": 0.0,
			"0.023": 0.0,
			"0.024": 0.0,
			"0.025": 0.0
		}
	}
}
