{
	 "smiles": "CN1CCC23C4OC5=C2C(CC1C3(O)CCC4=O)=CC=C5O", 
	 "Tm": 521.15, 
	 "num_atms": 41, 
	 "gaussian": { 
		 "optdone": 1, 
		 "sigma_profile": "yes", 
		 "theory": "DFT", 
		 "functional": "B3LYP", 
		 "basiset": "6-31G**", 
		 "properties": { 
			 "R2extent": 6144.192, 
			 "electric_dipole_moment_norm": 5.68449134576, 
			 "electric_quadrupole_moment_norm": 18.9852407636, 
			 "total_energy": -1014.86749206, 
			 "HOMO_LUMO_gap": 0.18599, 
			 "cosmo_polarized_energy": -21.26, 
			 "cosmo_cavitation_energy": 38.41, 
			 "cosmo_dispersion_energy": -27.74, 
			 "cosmo_repulsion_energy": 2.05, 
			 "cosmo_total_nonelectrostatic_energy": 12.72, 
			 "SMD_solvation_energy": 5.35 
		},
		"coords": [
			{
				"x": -0.0506677174,
				"y": -0.2096839838,
				"z": 3.2675599761,
				"element": "C" 
			},
			{
				"x": -0.2467072589,
				"y": 0.0481446697,
				"z": 1.8487056423,
				"element": "N" 
			},
			{
				"x": 0.8048590579,
				"y": 0.8906340614,
				"z": 1.2803651358,
				"element": "C" 
			},
			{
				"x": 0.4460736899,
				"y": 1.2866554017,
				"z": -0.1517263841,
				"element": "C" 
			},
			{
				"x": 0.0214503545,
				"y": 0.0805500344,
				"z": -1.0270280479,
				"element": "C" 
			},
			{
				"x": -0.3394277301,
				"y": 0.5378266425,
				"z": -2.4714488401,
				"element": "C" 
			},
			{
				"x": 0.7035065357,
				"y": 0.0611643784,
				"z": -3.3573274207,
				"element": "O" 
			},
			{
				"x": 1.481759104,
				"y": -0.8174388332,
				"z": -2.6290124882,
				"element": "C" 
			},
			{
				"x": 1.136171544,
				"y": -0.8797555552,
				"z": -1.2955299741,
				"element": "C" 
			},
			{
				"x": 1.5701810473,
				"y": -1.8731461011,
				"z": -0.4336341125,
				"element": "C" 
			},
			{
				"x": 0.7859524474,
				"y": -2.0924484536,
				"z": 0.8536800949,
				"element": "C" 
			},
			{
				"x": -0.4782026626,
				"y": -1.1623086816,
				"z": 1.044198929,
				"element": "C" 
			},
			{
				"x": -1.0807509053,
				"y": -0.7429480208,
				"z": -0.3272967471,
				"element": "C" 
			},
			{
				"x": -1.2763853959,
				"y": -1.9161002429,
				"z": -1.1307054496,
				"element": "O" 
			},
			{
				"x": -2.3990333333,
				"y": 0.037146243,
				"z": -0.3194329946,
				"element": "C" 
			},
			{
				"x": -2.81321221,
				"y": 0.3705482671,
				"z": -1.7894008968,
				"element": "C" 
			},
			{
				"x": -1.7485371337,
				"y": 0.0852241206,
				"z": -2.8659701364,
				"element": "C" 
			},
			{
				"x": -2.0265901979,
				"y": -0.3612180129,
				"z": -3.9560452658,
				"element": "O" 
			},
			{
				"x": 2.5633692037,
				"y": -2.7269517302,
				"z": -0.9420587921,
				"element": "C" 
			},
			{
				"x": 3.0143805568,
				"y": -2.5990592041,
				"z": -2.2626332628,
				"element": "C" 
			},
			{
				"x": 2.4542276283,
				"y": -1.6664155433,
				"z": -3.1509787605,
				"element": "C" 
			},
			{
				"x": 2.836724124,
				"y": -1.6463199972,
				"z": -4.462336064,
				"element": "O" 
			},
			{
				"x": -0.8846937973,
				"y": -0.8043203612,
				"z": 3.6542307615,
				"element": "H" 
			},
			{
				"x": 0.8875515165,
				"y": -0.742586764,
				"z": 3.5082806302,
				"element": "H" 
			},
			{
				"x": -0.0355274158,
				"y": 0.7420324595,
				"z": 3.8093990125,
				"element": "H" 
			},
			{
				"x": 0.8958525575,
				"y": 1.7916106494,
				"z": 1.897893731,
				"element": "H" 
			},
			{
				"x": 1.7933998694,
				"y": 0.3960837926,
				"z": 1.2976865959,
				"element": "H" 
			},
			{
				"x": -0.3700961351,
				"y": 2.0190508951,
				"z": -0.1290726979,
				"element": "H" 
			},
			{
				"x": 1.3039022926,
				"y": 1.7758158196,
				"z": -0.6264582131,
				"element": "H" 
			},
			{
				"x": -0.3382710978,
				"y": 1.6344788912,
				"z": -2.538546653,
				"element": "H" 
			},
			{
				"x": 0.4433676928,
				"y": -3.1331849003,
				"z": 0.8542069608,
				"element": "H" 
			},
			{
				"x": 1.4231849867,
				"y": -1.9909753699,
				"z": 1.7414556625,
				"element": "H" 
			},
			{
				"x": -1.2356441154,
				"y": -1.7478941906,
				"z": 1.5812566076,
				"element": "H" 
			},
			{
				"x": -2.098439049,
				"y": -2.3376394073,
				"z": -0.8457550195,
				"element": "H" 
			},
			{
				"x": -3.1813920191,
				"y": -0.5667804613,
				"z": 0.1594557795,
				"element": "H" 
			},
			{
				"x": -2.3019165664,
				"y": 0.936206063,
				"z": 0.2914010887,
				"element": "H" 
			},
			{
				"x": -3.7044024466,
				"y": -0.1794604557,
				"z": -2.0992739863,
				"element": "H" 
			},
			{
				"x": -3.0670162431,
				"y": 1.4362753753,
				"z": -1.8695391009,
				"element": "H" 
			},
			{
				"x": 2.9636741677,
				"y": -3.5297959137,
				"z": -0.3280789585,
				"element": "H" 
			},
			{
				"x": 3.7706619722,
				"y": -3.2736209792,
				"z": -2.6519739602,
				"element": "H" 
			},
			{
				"x": 2.2565630817,
				"y": -1.0306946012,
				"z": -4.9325123816,
				"element": "H" 
			}
		],
		 "valence_orbital": [ 
			{
				"type": "occ",
				"energy": -0.27985,
				"method": "rhf"
			},
			{
				"type": "occ",
				"energy": -0.24275,
				"method": "rhf"
			},
			{
				"type": "occ",
				"energy": -0.21959,
				"method": "rhf"
			},
			{
				"type": "occ",
				"energy": -0.21557,
				"method": "rhf"
			},
			{
				"type": "occ",
				"energy": -0.19583,
				"method": "rhf"
			},
			{
				"type": "unocc",
				"energy": -0.00984,
				"method": "rhf"
			},
			{
				"type": "unocc",
				"energy": 0.01043,
				"method": "rhf"
			},
			{
				"type": "unocc",
				"energy": 0.02068,
				"method": "rhf"
			},
			{
				"type": "unocc",
				"energy": 0.0522,
				"method": "rhf"
			},
			{
				"type": "unocc",
				"energy": 0.07508,
				"method": "rhf"
			}
		],
		"cosmo_sigma_profile": { 
			"-0.025": 0.0,
			"-0.024": 0.0,
			"-0.023": 0.0,
			"-0.022": 0.0,
			"-0.021": 0.0,
			"-0.02": 0.0,
			"-0.019": 0.0,
			"-0.018": 0.0,
			"-0.017": 0.0,
			"-0.016": 0.815737990526,
			"-0.015": 1.80110329467,
			"-0.014": 1.80889188151,
			"-0.013": 1.57718570591,
			"-0.012": 1.39672947904,
			"-0.011": 1.93285930879,
			"-0.01": 1.61434545629,
			"-0.009": 2.65335100199,
			"-0.008": 5.47849850907,
			"-0.007": 6.694133764,
			"-0.006": 8.29792562996,
			"-0.005": 16.0772489588,
			"-0.004": 27.9091717158,
			"-0.003": 31.3909454614,
			"-0.002": 31.223104368,
			"-0.001": 30.2273896871,
			"0.0": 19.9751701462,
			"0.001": 9.56893811619,
			"0.002": 10.7160044054,
			"0.003": 8.95414397804,
			"0.004": 10.7759341191,
			"0.005": 11.19882184,
			"0.006": 9.71767802121,
			"0.007": 7.86714427994,
			"0.008": 6.37781595852,
			"0.009": 7.67888340059,
			"0.01": 5.59630919978,
			"0.011": 8.46115210238,
			"0.012": 7.40053993727,
			"0.013": 3.31798244596,
			"0.014": 0.924850686614,
			"0.015": 0.0203376440179,
			"0.016": 0.0,
			"0.017": 0.0,
			"0.018": 0.0,
			"0.019": 0.0,
			"0.02": 0.0,
			"0.021": 0.0,
			"0.022": 0.0,
			"0.023": 0.0,
			"0.024": 0.0,
			"0.025": 0.0
		}
	}
}
