{
	 "smiles": "FC(F)(F)C1=CC(=CC(=C1)C(=O)C1=CC(=CC(=C1)C(F)(F)F)C(F)(F)F)C(F)(F)F", 
	 "Tm": 412.65, 
	 "num_atms": 36, 
	 "gaussian": { 
		 "optdone": 1, 
		 "sigma_profile": "yes", 
		 "theory": "DFT", 
		 "functional": "B3LYP", 
		 "basiset": "6-31G**", 
		 "properties": { 
			 "R2extent": 16634.5442, 
			 "electric_dipole_moment_norm": 0.764570735773, 
			 "electric_quadrupole_moment_norm": 10.0871623007, 
			 "total_energy": -1924.75887874, 
			 "HOMO_LUMO_gap": 0.17904, 
			 "cosmo_polarized_energy": -9.93, 
			 "cosmo_cavitation_energy": 48.65, 
			 "cosmo_dispersion_energy": -30.84, 
			 "cosmo_repulsion_energy": 2.07, 
			 "cosmo_total_nonelectrostatic_energy": 19.89, 
			 "SMD_solvation_energy": 13.19 
		},
		"coords": [
			{
				"x": -0.462515336,
				"y": -1.2248170057,
				"z": -6.4683948845,
				"element": "F" 
			},
			{
				"x": -1.4594802183,
				"y": -1.4141067484,
				"z": -5.5776479925,
				"element": "C" 
			},
			{
				"x": -2.2904372385,
				"y": -0.3557795705,
				"z": -5.6563632637,
				"element": "F" 
			},
			{
				"x": -2.15195343,
				"y": -2.5007278552,
				"z": -5.9816285012,
				"element": "F" 
			},
			{
				"x": -0.921222922,
				"y": -1.5980355944,
				"z": -4.1798865103,
				"element": "C" 
			},
			{
				"x": 0.2967577882,
				"y": -2.2589598147,
				"z": -3.9948313819,
				"element": "C" 
			},
			{
				"x": 0.7650288462,
				"y": -2.4852119613,
				"z": -2.7024307885,
				"element": "C" 
			},
			{
				"x": 0.0354074536,
				"y": -2.0400698837,
				"z": -1.5970553867,
				"element": "C" 
			},
			{
				"x": -1.1785701086,
				"y": -1.3686029795,
				"z": -1.7819077591,
				"element": "C" 
			},
			{
				"x": -1.660772464,
				"y": -1.1660258616,
				"z": -3.0837153631,
				"element": "C" 
			},
			{
				"x": -2.0553429252,
				"y": -0.9285616291,
				"z": -0.6436288122,
				"element": "C" 
			},
			{
				"x": -3.2661337172,
				"y": -0.8628908286,
				"z": -0.8035703863,
				"element": "O" 
			},
			{
				"x": -1.4615857585,
				"y": -0.5685341459,
				"z": 0.689018742,
				"element": "C" 
			},
			{
				"x": -0.1770013031,
				"y": -0.0321130255,
				"z": 0.8345005492,
				"element": "C" 
			},
			{
				"x": 0.2843547783,
				"y": 0.3479783568,
				"z": 2.0973420653,
				"element": "C" 
			},
			{
				"x": -0.5239022713,
				"y": 0.1900846106,
				"z": 3.2211197507,
				"element": "C" 
			},
			{
				"x": -1.8110378083,
				"y": -0.3354287913,
				"z": 3.0749752065,
				"element": "C" 
			},
			{
				"x": -2.2829897366,
				"y": -0.7013060114,
				"z": 1.8184847703,
				"element": "C" 
			},
			{
				"x": -2.7096010789,
				"y": -0.4424984115,
				"z": 4.2826228008,
				"element": "C" 
			},
			{
				"x": -2.0027712757,
				"y": -0.7169300427,
				"z": 5.399857508,
				"element": "F" 
			},
			{
				"x": -3.6349105786,
				"y": -1.4107746387,
				"z": 4.1307294135,
				"element": "F" 
			},
			{
				"x": -3.3700696367,
				"y": 0.7142305626,
				"z": 4.5044630748,
				"element": "F" 
			},
			{
				"x": 1.6890541718,
				"y": 0.877317433,
				"z": 2.245861396,
				"element": "C" 
			},
			{
				"x": 1.8141546707,
				"y": 1.6645818205,
				"z": 3.3332067818,
				"element": "F" 
			},
			{
				"x": 2.5797175408,
				"y": -0.1304717609,
				"z": 2.3757358154,
				"element": "F" 
			},
			{
				"x": 2.0611518043,
				"y": 1.5983796662,
				"z": 1.1670461118,
				"element": "F" 
			},
			{
				"x": 2.0956955394,
				"y": -3.1625237831,
				"z": -2.4880424799,
				"element": "C" 
			},
			{
				"x": 2.4214514166,
				"y": -3.9638902332,
				"z": -3.5221142426,
				"element": "F" 
			},
			{
				"x": 2.0913201612,
				"y": -3.9140078988,
				"z": -1.3666105527,
				"element": "F" 
			},
			{
				"x": 3.0890389842,
				"y": -2.2563707891,
				"z": -2.3540324182,
				"element": "F" 
			},
			{
				"x": 0.8701736021,
				"y": -2.5974799151,
				"z": -4.8498002881,
				"element": "H" 
			},
			{
				"x": 0.4051739933,
				"y": -2.2485699515,
				"z": -0.5998027564,
				"element": "H" 
			},
			{
				"x": -2.6145570271,
				"y": -0.6687978555,
				"z": -3.2169969733,
				"element": "H" 
			},
			{
				"x": 0.4583390876,
				"y": 0.1225729084,
				"z": -0.0298426564,
				"element": "H" 
			},
			{
				"x": -0.1590247399,
				"y": 0.4774875788,
				"z": 4.2002231985,
				"element": "H" 
			},
			{
				"x": -3.2858402637,
				"y": -1.0928459502,
				"z": 1.6931162129,
				"element": "H" 
			}
		],
		 "valence_orbital": [ 
			{
				"type": "occ",
				"energy": -0.30497,
				"method": "rhf"
			},
			{
				"type": "occ",
				"energy": -0.30365,
				"method": "rhf"
			},
			{
				"type": "occ",
				"energy": -0.30221,
				"method": "rhf"
			},
			{
				"type": "occ",
				"energy": -0.30193,
				"method": "rhf"
			},
			{
				"type": "occ",
				"energy": -0.28222,
				"method": "rhf"
			},
			{
				"type": "unocc",
				"energy": -0.10318,
				"method": "rhf"
			},
			{
				"type": "unocc",
				"energy": -0.06765,
				"method": "rhf"
			},
			{
				"type": "unocc",
				"energy": -0.05972,
				"method": "rhf"
			},
			{
				"type": "unocc",
				"energy": -0.05814,
				"method": "rhf"
			},
			{
				"type": "unocc",
				"energy": 0.00398,
				"method": "rhf"
			}
		],
		"cosmo_sigma_profile": { 
			"-0.025": 0.0,
			"-0.024": 0.0,
			"-0.023": 0.0,
			"-0.022": 0.0,
			"-0.021": 0.0,
			"-0.02": 0.0,
			"-0.019": 0.0,
			"-0.018": 0.0,
			"-0.017": 0.0,
			"-0.016": 0.0,
			"-0.015": 0.0,
			"-0.014": 0.0,
			"-0.013": 0.0,
			"-0.012": 0.0,
			"-0.011": 0.0,
			"-0.01": 0.0,
			"-0.009": 0.206515706813,
			"-0.008": 7.04482457986,
			"-0.007": 12.1697333352,
			"-0.006": 13.2465566541,
			"-0.005": 14.0158892223,
			"-0.004": 16.6065676659,
			"-0.003": 20.7681273846,
			"-0.002": 29.8819237402,
			"-0.001": 45.7707546171,
			"0.0": 30.2817881775,
			"0.001": 34.1996259374,
			"0.002": 97.7392413037,
			"0.003": 55.2620675838,
			"0.004": 2.35423913459,
			"0.005": 1.42262734219,
			"0.006": 1.29786423838,
			"0.007": 1.46962766918,
			"0.008": 1.90099128808,
			"0.009": 2.01117371524,
			"0.01": 3.35570884286,
			"0.011": 2.25910205413,
			"0.012": 0.0,
			"0.013": 0.0,
			"0.014": 0.0,
			"0.015": 0.0,
			"0.016": 0.0,
			"0.017": 0.0,
			"0.018": 0.0,
			"0.019": 0.0,
			"0.02": 0.0,
			"0.021": 0.0,
			"0.022": 0.0,
			"0.023": 0.0,
			"0.024": 0.0,
			"0.025": 0.0
		}
	}
}
