{
	 "smiles": "NCC(C1=CC=CS1)C1=CNC2=C1C=CC=C2", 
	 "Tm": 419.15, 
	 "num_atms": 31, 
	 "gaussian": { 
		 "optdone": 1, 
		 "sigma_profile": "yes", 
		 "theory": "DFT", 
		 "functional": "B3LYP", 
		 "basiset": "6-31G**", 
		 "properties": { 
			 "R2extent": 5134.1143, 
			 "electric_dipole_moment_norm": 2.40236297632, 
			 "electric_quadrupole_moment_norm": 5.74587180939, 
			 "total_energy": -1049.60459378, 
			 "HOMO_LUMO_gap": 0.18656, 
			 "cosmo_polarized_energy": -11.88, 
			 "cosmo_cavitation_energy": 35.22, 
			 "cosmo_dispersion_energy": -25.26, 
			 "cosmo_repulsion_energy": 1.93, 
			 "cosmo_total_nonelectrostatic_energy": 11.89, 
			 "SMD_solvation_energy": 4.85 
		},
		"coords": [
			{
				"x": 0.0455228169,
				"y": 3.2688640121,
				"z": 1.344824564,
				"element": "N" 
			},
			{
				"x": 1.3198940151,
				"y": 2.5631855076,
				"z": 1.1891407925,
				"element": "C" 
			},
			{
				"x": 1.1419232149,
				"y": 1.0233688008,
				"z": 1.2243501801,
				"element": "C" 
			},
			{
				"x": 0.575829281,
				"y": 0.5727360462,
				"z": 2.5610644659,
				"element": "C" 
			},
			{
				"x": -0.7069004817,
				"y": 0.2114140472,
				"z": 2.8824680126,
				"element": "C" 
			},
			{
				"x": -0.8845053022,
				"y": -0.1068059852,
				"z": 4.2654498207,
				"element": "C" 
			},
			{
				"x": 0.2661585131,
				"y": 0.0152375657,
				"z": 4.9911692322,
				"element": "C" 
			},
			{
				"x": 1.5917479962,
				"y": 0.5226033058,
				"z": 3.9899918262,
				"element": "S" 
			},
			{
				"x": 0.3609050246,
				"y": 0.4694931884,
				"z": 0.056105971,
				"element": "C" 
			},
			{
				"x": -0.602601439,
				"y": 1.0977010937,
				"z": -0.6964047343,
				"element": "C" 
			},
			{
				"x": -1.0486749068,
				"y": 0.2464198768,
				"z": -1.6910612179,
				"element": "N" 
			},
			{
				"x": -0.3826773373,
				"y": -0.9587959657,
				"z": -1.5979704624,
				"element": "C" 
			},
			{
				"x": 0.5141411759,
				"y": -0.8556046307,
				"z": -0.4988196233,
				"element": "C" 
			},
			{
				"x": 1.3219058529,
				"y": -1.9609941257,
				"z": -0.1794955574,
				"element": "C" 
			},
			{
				"x": 1.2243364946,
				"y": -3.1147847092,
				"z": -0.9479420181,
				"element": "C" 
			},
			{
				"x": 0.3296494871,
				"y": -3.1925430532,
				"z": -2.0348700253,
				"element": "C" 
			},
			{
				"x": -0.485220423,
				"y": -2.1179058882,
				"z": -2.3741425108,
				"element": "C" 
			},
			{
				"x": 0.2093216913,
				"y": 4.2717507854,
				"z": 1.3764191759,
				"element": "H" 
			},
			{
				"x": -0.3725193624,
				"y": 3.010705441,
				"z": 2.236459286,
				"element": "H" 
			},
			{
				"x": 2.0659364181,
				"y": 2.8283474796,
				"z": 1.9579851338,
				"element": "H" 
			},
			{
				"x": 1.7473009404,
				"y": 2.834284057,
				"z": 0.216929111,
				"element": "H" 
			},
			{
				"x": 2.1603734719,
				"y": 0.6167882896,
				"z": 1.1476369146,
				"element": "H" 
			},
			{
				"x": -1.4942167669,
				"y": 0.1591928414,
				"z": 2.1399688072,
				"element": "H" 
			},
			{
				"x": -1.8297048171,
				"y": -0.4199557304,
				"z": 4.6950160822,
				"element": "H" 
			},
			{
				"x": 0.4220129003,
				"y": -0.1685595199,
				"z": 6.0452133904,
				"element": "H" 
			},
			{
				"x": -0.9954547021,
				"y": 2.0966301447,
				"z": -0.5809693143,
				"element": "H" 
			},
			{
				"x": -1.748905,
				"y": 0.4756046673,
				"z": -2.3767703965,
				"element": "H" 
			},
			{
				"x": 2.008100651,
				"y": -1.9181218057,
				"z": 0.6619186049,
				"element": "H" 
			},
			{
				"x": 1.843622151,
				"y": -3.9742428846,
				"z": -0.7078409188,
				"element": "H" 
			},
			{
				"x": 0.274585475,
				"y": -4.1079895435,
				"z": -2.6168814777,
				"element": "H" 
			},
			{
				"x": -1.1757870328,
				"y": -2.1782233082,
				"z": -3.2110431145,
				"element": "H" 
			}
		],
		 "valence_orbital": [ 
			{
				"type": "occ",
				"energy": -0.24406,
				"method": "rhf"
			},
			{
				"type": "occ",
				"energy": -0.23685,
				"method": "rhf"
			},
			{
				"type": "occ",
				"energy": -0.2212,
				"method": "rhf"
			},
			{
				"type": "occ",
				"energy": -0.21139,
				"method": "rhf"
			},
			{
				"type": "occ",
				"energy": -0.19256,
				"method": "rhf"
			},
			{
				"type": "unocc",
				"energy": -0.006,
				"method": "rhf"
			},
			{
				"type": "unocc",
				"energy": -3e-05,
				"method": "rhf"
			},
			{
				"type": "unocc",
				"energy": 0.03176,
				"method": "rhf"
			},
			{
				"type": "unocc",
				"energy": 0.03624,
				"method": "rhf"
			},
			{
				"type": "unocc",
				"energy": 0.07198,
				"method": "rhf"
			}
		],
		"cosmo_sigma_profile": { 
			"-0.025": 0.0,
			"-0.024": 0.0,
			"-0.023": 0.0,
			"-0.022": 0.0,
			"-0.021": 0.0,
			"-0.02": 0.0,
			"-0.019": 0.0,
			"-0.018": 0.0,
			"-0.017": 0.0,
			"-0.016": 0.11500451206,
			"-0.015": 1.3039578803,
			"-0.014": 1.51208704617,
			"-0.013": 0.718860641143,
			"-0.012": 1.25835555334,
			"-0.011": 1.44475250791,
			"-0.01": 2.02301949147,
			"-0.009": 2.66194063153,
			"-0.008": 4.57650290817,
			"-0.007": 5.9254082576,
			"-0.006": 9.10860793949,
			"-0.005": 15.7123342691,
			"-0.004": 20.9208838756,
			"-0.003": 21.833209616,
			"-0.002": 24.3023876264,
			"-0.001": 20.0735784201,
			"0.0": 16.1332304371,
			"0.001": 16.158602165,
			"0.002": 16.7627355636,
			"0.003": 19.0381552219,
			"0.004": 20.4200390627,
			"0.005": 24.1781753775,
			"0.006": 18.3592994264,
			"0.007": 10.4004808986,
			"0.008": 3.72772259164,
			"0.009": 0.931788108815,
			"0.01": 1.12462769694,
			"0.011": 0.713123168728,
			"0.012": 0.442807690657,
			"0.013": 0.0143109659449,
			"0.014": 0.0,
			"0.015": 0.0,
			"0.016": 0.0,
			"0.017": 0.0,
			"0.018": 0.0,
			"0.019": 0.0,
			"0.02": 0.0,
			"0.021": 0.0,
			"0.022": 0.0,
			"0.023": 0.0,
			"0.024": 0.0,
			"0.025": 0.0
		}
	}
}
