{
	 "smiles": "CC(C)(C)C1=CN=C(S)S1", 
	 "Tm": 389.15, 
	 "num_atms": 21, 
	 "gaussian": { 
		 "optdone": 1, 
		 "sigma_profile": "yes", 
		 "theory": "DFT", 
		 "functional": "B3LYP", 
		 "basiset": "6-31G**", 
		 "properties": { 
			 "R2extent": 2755.7714, 
			 "electric_dipole_moment_norm": 2.89537946736, 
			 "electric_quadrupole_moment_norm": 12.797764422, 
			 "total_energy": -1124.49647591, 
			 "HOMO_LUMO_gap": 0.1972, 
			 "cosmo_polarized_energy": -7.59, 
			 "cosmo_cavitation_energy": 26.52, 
			 "cosmo_dispersion_energy": -20.0, 
			 "cosmo_repulsion_energy": 1.51, 
			 "cosmo_total_nonelectrostatic_energy": 8.04, 
			 "SMD_solvation_energy": 2.33 
		},
		"coords": [
			{
				"x": -0.5656024649,
				"y": 2.1583855111,
				"z": -1.9310039471,
				"element": "C" 
			},
			{
				"x": 0.1083990671,
				"y": 0.8957835053,
				"z": -1.3575442521,
				"element": "C" 
			},
			{
				"x": 1.3088378968,
				"y": 1.3225995995,
				"z": -0.4802283,
				"element": "C" 
			},
			{
				"x": 0.6144821238,
				"y": 0.0213629073,
				"z": -2.5289108681,
				"element": "C" 
			},
			{
				"x": -0.8945612776,
				"y": 0.1176236893,
				"z": -0.5234420112,
				"element": "C" 
			},
			{
				"x": -2.2064449569,
				"y": 0.3847969412,
				"z": -0.2477791946,
				"element": "C" 
			},
			{
				"x": -2.8867069038,
				"y": -0.5101272126,
				"z": 0.5510629595,
				"element": "N" 
			},
			{
				"x": -2.112484275,
				"y": -1.4860674131,
				"z": 0.9075676387,
				"element": "C" 
			},
			{
				"x": -2.7063132447,
				"y": -2.797924987,
				"z": 1.9407939288,
				"element": "S" 
			},
			{
				"x": -0.4665630724,
				"y": -1.3887362364,
				"z": 0.2865488513,
				"element": "S" 
			},
			{
				"x": 0.1558735149,
				"y": 2.7200674524,
				"z": -2.53272222,
				"element": "H" 
			},
			{
				"x": -1.4128102977,
				"y": 1.9033769197,
				"z": -2.5752939797,
				"element": "H" 
			},
			{
				"x": -0.9240242783,
				"y": 2.8185261456,
				"z": -1.1349758694,
				"element": "H" 
			},
			{
				"x": 0.9799455513,
				"y": 1.9417712734,
				"z": 0.3600440043,
				"element": "H" 
			},
			{
				"x": 1.8363733627,
				"y": 0.4543698878,
				"z": -0.0720748496,
				"element": "H" 
			},
			{
				"x": 2.0252349501,
				"y": 1.90111346,
				"z": -1.0737093218,
				"element": "H" 
			},
			{
				"x": -0.2153270248,
				"y": -0.2983443016,
				"z": -3.1667271198,
				"element": "H" 
			},
			{
				"x": 1.1261564773,
				"y": -0.8764965466,
				"z": -2.1673520343,
				"element": "H" 
			},
			{
				"x": 1.3234121627,
				"y": 0.5858274709,
				"z": -3.1444630676,
				"element": "H" 
			},
			{
				"x": -2.7425989952,
				"y": 1.2508027277,
				"z": -0.6151743108,
				"element": "H" 
			},
			{
				"x": -1.5488783153,
				"y": -3.486110794,
				"z": 1.9884839636,
				"element": "H" 
			}
		],
		 "valence_orbital": [ 
			{
				"type": "occ",
				"energy": -0.3304,
				"method": "rhf"
			},
			{
				"type": "occ",
				"energy": -0.29566,
				"method": "rhf"
			},
			{
				"type": "occ",
				"energy": -0.27878,
				"method": "rhf"
			},
			{
				"type": "occ",
				"energy": -0.27425,
				"method": "rhf"
			},
			{
				"type": "occ",
				"energy": -0.22016,
				"method": "rhf"
			},
			{
				"type": "unocc",
				"energy": -0.02296,
				"method": "rhf"
			},
			{
				"type": "unocc",
				"energy": -0.01521,
				"method": "rhf"
			},
			{
				"type": "unocc",
				"energy": 0.0371,
				"method": "rhf"
			},
			{
				"type": "unocc",
				"energy": 0.05295,
				"method": "rhf"
			},
			{
				"type": "unocc",
				"energy": 0.06031,
				"method": "rhf"
			}
		],
		"cosmo_sigma_profile": { 
			"-0.025": 0.0,
			"-0.024": 0.0,
			"-0.023": 0.0,
			"-0.022": 0.0,
			"-0.021": 0.0,
			"-0.02": 0.0,
			"-0.019": 0.0,
			"-0.018": 0.0,
			"-0.017": 0.0,
			"-0.016": 0.0,
			"-0.015": 0.0,
			"-0.014": 0.0,
			"-0.013": 0.0,
			"-0.012": 1.55253117629,
			"-0.011": 2.60344735556,
			"-0.01": 1.464433281,
			"-0.009": 2.12062396234,
			"-0.008": 1.51293558834,
			"-0.007": 1.91743123974,
			"-0.006": 2.99110291136,
			"-0.005": 3.88324397492,
			"-0.004": 10.4783376662,
			"-0.003": 25.3017132144,
			"-0.002": 21.554890828,
			"-0.001": 20.5169188895,
			"0.0": 24.0618837101,
			"0.001": 29.8148159787,
			"0.002": 16.4781495959,
			"0.003": 13.3500468046,
			"0.004": 10.236039282,
			"0.005": 6.14563958493,
			"0.006": 4.67953208817,
			"0.007": 4.05038883534,
			"0.008": 2.04032406047,
			"0.009": 1.08631663462,
			"0.01": 0.690477658644,
			"0.011": 1.00622345025,
			"0.012": 1.41289411498,
			"0.013": 0.691271175728,
			"0.014": 1.02851562087,
			"0.015": 0.432465549996,
			"0.016": 0.0,
			"0.017": 0.0,
			"0.018": 0.0,
			"0.019": 0.0,
			"0.02": 0.0,
			"0.021": 0.0,
			"0.022": 0.0,
			"0.023": 0.0,
			"0.024": 0.0,
			"0.025": 0.0
		}
	}
}
