{
	 "smiles": "OC(=O)C(F)(F)C(F)(F)C(F)(F)C(F)(F)C(F)(F)F", 
	 "Tm": 283.15, 
	 "num_atms": 20, 
	 "gaussian": { 
		 "optdone": 1, 
		 "sigma_profile": "yes", 
		 "theory": "DFT", 
		 "functional": "B3LYP", 
		 "basiset": "6-31G**", 
		 "properties": { 
			 "R2extent": 5125.3291, 
			 "electric_dipole_moment_norm": 2.64260425528, 
			 "electric_quadrupole_moment_norm": 18.028125727, 
			 "total_energy": -1477.88620045, 
			 "HOMO_LUMO_gap": 0.26331, 
			 "cosmo_polarized_energy": -8.84, 
			 "cosmo_cavitation_energy": 28.55, 
			 "cosmo_dispersion_energy": -19.35, 
			 "cosmo_repulsion_energy": 1.3, 
			 "cosmo_total_nonelectrostatic_energy": 10.49, 
			 "SMD_solvation_energy": 9.66 
		},
		"coords": [
			{
				"x": 3.2544363539,
				"y": -2.4734328307,
				"z": -2.1813775393,
				"element": "O" 
			},
			{
				"x": 3.4209079991,
				"y": -1.7379309193,
				"z": -1.0762077971,
				"element": "C" 
			},
			{
				"x": 4.4586635616,
				"y": -1.2352234709,
				"z": -0.7473507725,
				"element": "O" 
			},
			{
				"x": 2.144220835,
				"y": -1.5741468496,
				"z": -0.2007137395,
				"element": "C" 
			},
			{
				"x": 1.1317534556,
				"y": -2.3485763111,
				"z": -0.7148713647,
				"element": "F" 
			},
			{
				"x": 2.4148033993,
				"y": -1.997254021,
				"z": 1.0490690999,
				"element": "F" 
			},
			{
				"x": 1.6685244716,
				"y": -0.100173295,
				"z": -0.1706294237,
				"element": "C" 
			},
			{
				"x": 2.534478811,
				"y": 0.6225950961,
				"z": 0.5669838253,
				"element": "F" 
			},
			{
				"x": 1.7073919024,
				"y": 0.3416326996,
				"z": -1.4575603089,
				"element": "F" 
			},
			{
				"x": 0.2253046395,
				"y": 0.2018648584,
				"z": 0.3313661718,
				"element": "C" 
			},
			{
				"x": 0.0782645341,
				"y": 1.5455125329,
				"z": 0.2720777227,
				"element": "F" 
			},
			{
				"x": -0.6435242858,
				"y": -0.3689195388,
				"z": -0.5354058179,
				"element": "F" 
			},
			{
				"x": -0.2046850463,
				"y": -0.2617218453,
				"z": 1.7507194029,
				"element": "C" 
			},
			{
				"x": -1.4922800878,
				"y": 0.1264685512,
				"z": 1.8958769321,
				"element": "F" 
			},
			{
				"x": -0.1459279858,
				"y": -1.6140881163,
				"z": 1.797072487,
				"element": "F" 
			},
			{
				"x": 0.5767426401,
				"y": 0.2964532295,
				"z": 2.9667376395,
				"element": "C" 
			},
			{
				"x": -0.0650125659,
				"y": -0.0635623344,
				"z": 4.0842628146,
				"element": "F" 
			},
			{
				"x": 0.6415755851,
				"y": 1.631202561,
				"z": 2.9126654866,
				"element": "F" 
			},
			{
				"x": 1.8164923783,
				"y": -0.2042627459,
				"z": 3.0035068692,
				"element": "F" 
			},
			{
				"x": 2.3379694051,
				"y": -2.7901372504,
				"z": -2.2326216881,
				"element": "H" 
			}
		],
		 "valence_orbital": [ 
			{
				"type": "occ",
				"energy": -0.41314,
				"method": "rhf"
			},
			{
				"type": "occ",
				"energy": -0.38871,
				"method": "rhf"
			},
			{
				"type": "occ",
				"energy": -0.36684,
				"method": "rhf"
			},
			{
				"type": "occ",
				"energy": -0.35251,
				"method": "rhf"
			},
			{
				"type": "occ",
				"energy": -0.30865,
				"method": "rhf"
			},
			{
				"type": "unocc",
				"energy": -0.04534,
				"method": "rhf"
			},
			{
				"type": "unocc",
				"energy": 0.01356,
				"method": "rhf"
			},
			{
				"type": "unocc",
				"energy": 0.02715,
				"method": "rhf"
			},
			{
				"type": "unocc",
				"energy": 0.05521,
				"method": "rhf"
			},
			{
				"type": "unocc",
				"energy": 0.07166,
				"method": "rhf"
			}
		],
		"cosmo_sigma_profile": { 
			"-0.025": 0.0,
			"-0.024": 0.0,
			"-0.023": 0.0,
			"-0.022": 0.0,
			"-0.021": 0.0,
			"-0.02": 0.0,
			"-0.019": 0.517179311306,
			"-0.018": 0.718632152619,
			"-0.017": 1.1527007557,
			"-0.016": 0.706532076958,
			"-0.015": 0.777335650025,
			"-0.014": 1.30793981272,
			"-0.013": 1.49879962054,
			"-0.012": 1.34125873876,
			"-0.011": 1.2596178082,
			"-0.01": 1.57980169805,
			"-0.009": 1.13795136167,
			"-0.008": 1.35576633857,
			"-0.007": 1.67446569311,
			"-0.006": 1.5464589961,
			"-0.005": 1.68876677943,
			"-0.004": 3.57601994284,
			"-0.003": 7.26970386763,
			"-0.002": 12.4164683004,
			"-0.001": 23.3420050213,
			"0.0": 53.1117658828,
			"0.001": 75.7390576139,
			"0.002": 6.59175340066,
			"0.003": 2.83689425517,
			"0.004": 3.62713800884,
			"0.005": 3.12025885154,
			"0.006": 3.68676850433,
			"0.007": 4.66282255863,
			"0.008": 4.22989723094,
			"0.009": 4.49792772021,
			"0.01": 2.41417655919,
			"0.011": 0.174572548874,
			"0.012": 0.0,
			"0.013": 0.0,
			"0.014": 0.0,
			"0.015": 0.0,
			"0.016": 0.0,
			"0.017": 0.0,
			"0.018": 0.0,
			"0.019": 0.0,
			"0.02": 0.0,
			"0.021": 0.0,
			"0.022": 0.0,
			"0.023": 0.0,
			"0.024": 0.0,
			"0.025": 0.0
		}
	}
}
