{
	 "smiles": "CC1=CC=C(O1)C=CC1=NNC(S)=N1", 
	 "Tm": 549.15, 
	 "num_atms": 23, 
	 "gaussian": { 
		 "optdone": 1, 
		 "sigma_profile": "yes", 
		 "theory": "DFT", 
		 "functional": "B3LYP", 
		 "basiset": "6-31G**", 
		 "properties": { 
			 "R2extent": 4544.2871, 
			 "electric_dipole_moment_norm": 2.02092880132, 
			 "electric_quadrupole_moment_norm": 14.977629045, 
			 "total_energy": -986.00229776, 
			 "HOMO_LUMO_gap": 0.14935, 
			 "cosmo_polarized_energy": -13.6, 
			 "cosmo_cavitation_energy": 30.06, 
			 "cosmo_dispersion_energy": -22.57, 
			 "cosmo_repulsion_energy": 1.74, 
			 "cosmo_total_nonelectrostatic_energy": 9.23, 
			 "SMD_solvation_energy": 3.57 
		},
		"coords": [
			{
				"x": 2.6617796951,
				"y": -3.495570052,
				"z": 1.3131931564,
				"element": "C" 
			},
			{
				"x": 1.7457349347,
				"y": -2.3698515729,
				"z": 0.9837107847,
				"element": "C" 
			},
			{
				"x": 0.4515528902,
				"y": -2.0795222685,
				"z": 1.3242856598,
				"element": "C" 
			},
			{
				"x": 0.1229275256,
				"y": -0.8469653723,
				"z": 0.6915498428,
				"element": "C" 
			},
			{
				"x": 1.2396088486,
				"y": -0.4467595974,
				"z": -0.0061834625,
				"element": "C" 
			},
			{
				"x": 2.2377108445,
				"y": -1.3918373302,
				"z": 0.178754581,
				"element": "O" 
			},
			{
				"x": 1.6422533924,
				"y": 0.6482671952,
				"z": -0.8477531138,
				"element": "C" 
			},
			{
				"x": 1.0115610198,
				"y": 1.7651320491,
				"z": -1.2864830284,
				"element": "C" 
			},
			{
				"x": -0.3284902719,
				"y": 2.2716089284,
				"z": -1.0605294613,
				"element": "C" 
			},
			{
				"x": -0.6881388633,
				"y": 3.4265988377,
				"z": -1.6309199486,
				"element": "N" 
			},
			{
				"x": -1.9697023511,
				"y": 3.5767724199,
				"z": -1.2079034029,
				"element": "N" 
			},
			{
				"x": -2.3282685319,
				"y": 2.5369399681,
				"z": -0.4196727275,
				"element": "C" 
			},
			{
				"x": -3.9315110736,
				"y": 2.4009866478,
				"z": 0.310139952,
				"element": "S" 
			},
			{
				"x": -1.323337621,
				"y": 1.692473652,
				"z": -0.3013777466,
				"element": "N" 
			},
			{
				"x": 2.1546746797,
				"y": -4.2099383506,
				"z": 1.9656740308,
				"element": "H" 
			},
			{
				"x": 2.9867529021,
				"y": -4.0250954988,
				"z": 0.4098892356,
				"element": "H" 
			},
			{
				"x": 3.5635436694,
				"y": -3.1409320275,
				"z": 1.8259526368,
				"element": "H" 
			},
			{
				"x": -0.1880634379,
				"y": -2.6810149488,
				"z": 1.9550797844,
				"element": "H" 
			},
			{
				"x": -0.8034229997,
				"y": -0.2973076641,
				"z": 0.7231395704,
				"element": "H" 
			},
			{
				"x": 2.6688256562,
				"y": 0.5315316396,
				"z": -1.1888986554,
				"element": "H" 
			},
			{
				"x": 1.5876257034,
				"y": 2.4251941912,
				"z": -1.9280413859,
				"element": "H" 
			},
			{
				"x": -2.5056937628,
				"y": 4.3830352673,
				"z": -1.4916921934,
				"element": "H" 
			},
			{
				"x": -3.6466228485,
				"y": 1.2342538867,
				"z": 0.9158858916,
				"element": "H" 
			}
		],
		 "valence_orbital": [ 
			{
				"type": "occ",
				"energy": -0.28157,
				"method": "rhf"
			},
			{
				"type": "occ",
				"energy": -0.27786,
				"method": "rhf"
			},
			{
				"type": "occ",
				"energy": -0.26635,
				"method": "rhf"
			},
			{
				"type": "occ",
				"energy": -0.24435,
				"method": "rhf"
			},
			{
				"type": "occ",
				"energy": -0.18888,
				"method": "rhf"
			},
			{
				"type": "unocc",
				"energy": -0.03953,
				"method": "rhf"
			},
			{
				"type": "unocc",
				"energy": -0.00801,
				"method": "rhf"
			},
			{
				"type": "unocc",
				"energy": 0.01031,
				"method": "rhf"
			},
			{
				"type": "unocc",
				"energy": 0.04567,
				"method": "rhf"
			},
			{
				"type": "unocc",
				"energy": 0.05443,
				"method": "rhf"
			}
		],
		"cosmo_sigma_profile": { 
			"-0.025": 0.0,
			"-0.024": 0.0,
			"-0.023": 0.0,
			"-0.022": 0.0,
			"-0.021": 0.0,
			"-0.02": 0.0,
			"-0.019": 0.0215655359752,
			"-0.018": 1.44475360346,
			"-0.017": 1.47805383344,
			"-0.016": 1.22546849725,
			"-0.015": 1.33818684587,
			"-0.014": 0.977083873123,
			"-0.013": 1.39090151448,
			"-0.012": 2.50293757418,
			"-0.011": 2.06848663893,
			"-0.01": 2.07388536145,
			"-0.009": 2.04755587411,
			"-0.008": 2.80334506427,
			"-0.007": 2.51641958194,
			"-0.006": 6.79611973804,
			"-0.005": 14.6862960492,
			"-0.004": 12.953350561,
			"-0.003": 14.0527030341,
			"-0.002": 15.4952043812,
			"-0.001": 19.3214283663,
			"0.0": 16.494942912,
			"0.001": 15.7538957678,
			"0.002": 18.4523227518,
			"0.003": 20.0152129293,
			"0.004": 20.9136101483,
			"0.005": 19.633096652,
			"0.006": 10.7313600317,
			"0.007": 4.96472472769,
			"0.008": 4.4691180775,
			"0.009": 1.79208550426,
			"0.01": 0.624709802623,
			"0.011": 1.13006992554,
			"0.012": 1.13988965482,
			"0.013": 1.05859262679,
			"0.014": 0.887547257743,
			"0.015": 0.418040392834,
			"0.016": 0.0,
			"0.017": 0.0,
			"0.018": 0.0,
			"0.019": 0.0,
			"0.02": 0.0,
			"0.021": 0.0,
			"0.022": 0.0,
			"0.023": 0.0,
			"0.024": 0.0,
			"0.025": 0.0
		}
	}
}
