{
	 "smiles": "NS(=O)(=O)C1=CC(NC(=O)OC2=CC=CC=C2)=CC=C1", 
	 "Tm": 467.15, 
	 "num_atms": 32, 
	 "gaussian": { 
		 "optdone": 1, 
		 "sigma_profile": "yes", 
		 "theory": "DFT", 
		 "functional": "B3LYP", 
		 "basiset": "6-31G**", 
		 "properties": { 
			 "R2extent": 10120.3358, 
			 "electric_dipole_moment_norm": 5.14080830707, 
			 "electric_quadrupole_moment_norm": 20.6728784619, 
			 "total_energy": -1311.15333949, 
			 "HOMO_LUMO_gap": 0.1987, 
			 "cosmo_polarized_energy": -22.97, 
			 "cosmo_cavitation_energy": 39.04, 
			 "cosmo_dispersion_energy": -28.84, 
			 "cosmo_repulsion_energy": 2.17, 
			 "cosmo_total_nonelectrostatic_energy": 12.37, 
			 "SMD_solvation_energy": 7.19 
		},
		"coords": [
			{
				"x": 5.3333986479,
				"y": -2.2026539839,
				"z": -0.4229316326,
				"element": "N" 
			},
			{
				"x": 4.5011477522,
				"y": -2.6470112471,
				"z": 0.985773734,
				"element": "S" 
			},
			{
				"x": 5.118933463,
				"y": -3.8871740234,
				"z": 1.4660133164,
				"element": "O" 
			},
			{
				"x": 4.3869444758,
				"y": -1.4528731957,
				"z": 1.8270856189,
				"element": "O" 
			},
			{
				"x": 2.8595947386,
				"y": -3.0545609081,
				"z": 0.3797803434,
				"element": "C" 
			},
			{
				"x": 1.9529160369,
				"y": -2.0155297384,
				"z": 0.1750934729,
				"element": "C" 
			},
			{
				"x": 0.6747099727,
				"y": -2.3331443857,
				"z": -0.3040590986,
				"element": "C" 
			},
			{
				"x": -0.3173018229,
				"y": -1.3657009878,
				"z": -0.542446048,
				"element": "N" 
			},
			{
				"x": -0.1975491423,
				"y": -0.0003556926,
				"z": -0.4637442347,
				"element": "C" 
			},
			{
				"x": 0.7915661549,
				"y": 0.6301034681,
				"z": -0.1633480992,
				"element": "O" 
			},
			{
				"x": -1.4188614486,
				"y": 0.5332092332,
				"z": -0.79395428,
				"element": "O" 
			},
			{
				"x": -1.6070208451,
				"y": 1.9177372263,
				"z": -0.7883927603,
				"element": "C" 
			},
			{
				"x": -2.3112736874,
				"y": 2.43959542,
				"z": -1.8715609581,
				"element": "C" 
			},
			{
				"x": -2.6113206289,
				"y": 3.8016775266,
				"z": -1.8979154996,
				"element": "C" 
			},
			{
				"x": -2.2033779161,
				"y": 4.6304387627,
				"z": -0.851136187,
				"element": "C" 
			},
			{
				"x": -1.4984018794,
				"y": 4.0893904253,
				"z": 0.2259682779,
				"element": "C" 
			},
			{
				"x": -1.1974247435,
				"y": 2.7272691639,
				"z": 0.2706758072,
				"element": "C" 
			},
			{
				"x": 0.3409898055,
				"y": -3.6756523997,
				"z": -0.5503929406,
				"element": "C" 
			},
			{
				"x": 1.2650578341,
				"y": -4.690460221,
				"z": -0.3232005959,
				"element": "C" 
			},
			{
				"x": 2.5448391549,
				"y": -4.3915416468,
				"z": 0.145946184,
				"element": "C" 
			},
			{
				"x": 6.1574952556,
				"y": -2.7901494287,
				"z": -0.5184676303,
				"element": "H" 
			},
			{
				"x": 5.5819550048,
				"y": -1.217993563,
				"z": -0.374162362,
				"element": "H" 
			},
			{
				"x": 2.2187659952,
				"y": -0.9899282571,
				"z": 0.3896488575,
				"element": "H" 
			},
			{
				"x": -1.2245176027,
				"y": -1.7004547575,
				"z": -0.8339137036,
				"element": "H" 
			},
			{
				"x": -2.6171640409,
				"y": 1.7759358383,
				"z": -2.6735818709,
				"element": "H" 
			},
			{
				"x": -3.1618036584,
				"y": 4.2124876451,
				"z": -2.7390262013,
				"element": "H" 
			},
			{
				"x": -2.4339215597,
				"y": 5.6911555945,
				"z": -0.8736630479,
				"element": "H" 
			},
			{
				"x": -1.1791106102,
				"y": 4.7288145423,
				"z": 1.043574019,
				"element": "H" 
			},
			{
				"x": -0.6455777023,
				"y": 2.305213592,
				"z": 1.1005410382,
				"element": "H" 
			},
			{
				"x": -0.6523469535,
				"y": -3.921791586,
				"z": -0.9177675798,
				"element": "H" 
			},
			{
				"x": 0.983406989,
				"y": -5.7218766722,
				"z": -0.5111453233,
				"element": "H" 
			},
			{
				"x": 3.2766529607,
				"y": -5.165875744,
				"z": 0.3423093846,
				"element": "H" 
			}
		],
		 "valence_orbital": [ 
			{
				"type": "occ",
				"energy": -0.29334,
				"method": "rhf"
			},
			{
				"type": "occ",
				"energy": -0.2668,
				"method": "rhf"
			},
			{
				"type": "occ",
				"energy": -0.25753,
				"method": "rhf"
			},
			{
				"type": "occ",
				"energy": -0.24914,
				"method": "rhf"
			},
			{
				"type": "occ",
				"energy": -0.23606,
				"method": "rhf"
			},
			{
				"type": "unocc",
				"energy": -0.03736,
				"method": "rhf"
			},
			{
				"type": "unocc",
				"energy": -0.02497,
				"method": "rhf"
			},
			{
				"type": "unocc",
				"energy": -0.00834,
				"method": "rhf"
			},
			{
				"type": "unocc",
				"energy": -0.00272,
				"method": "rhf"
			},
			{
				"type": "unocc",
				"energy": 0.04487,
				"method": "rhf"
			}
		],
		"cosmo_sigma_profile": { 
			"-0.025": 0.0,
			"-0.024": 0.0,
			"-0.023": 0.0,
			"-0.022": 0.0,
			"-0.021": 0.0,
			"-0.02": 0.0,
			"-0.019": 0.0,
			"-0.018": 0.0,
			"-0.017": 0.0235785439367,
			"-0.016": 0.815524575553,
			"-0.015": 2.42834365774,
			"-0.014": 3.47163086846,
			"-0.013": 3.14517349678,
			"-0.012": 4.45201698529,
			"-0.011": 3.07155915669,
			"-0.01": 3.06078181907,
			"-0.009": 2.84259535142,
			"-0.008": 4.31210913483,
			"-0.007": 7.73764201213,
			"-0.006": 16.8212501557,
			"-0.005": 19.4134837992,
			"-0.004": 17.8611622843,
			"-0.003": 16.8078079265,
			"-0.002": 20.0752845823,
			"-0.001": 17.6964985142,
			"0.0": 16.798292207,
			"0.001": 22.0025751324,
			"0.002": 25.5985480114,
			"0.003": 23.1585979746,
			"0.004": 17.6341268047,
			"0.005": 14.5738589929,
			"0.006": 4.78921208595,
			"0.007": 5.61303290922,
			"0.008": 5.70128391144,
			"0.009": 6.50814828304,
			"0.01": 9.80112380808,
			"0.011": 12.7000315984,
			"0.012": 4.05557850045,
			"0.013": 0.121869381427,
			"0.014": 0.0,
			"0.015": 0.0,
			"0.016": 0.0,
			"0.017": 0.0,
			"0.018": 0.0,
			"0.019": 0.0,
			"0.02": 0.0,
			"0.021": 0.0,
			"0.022": 0.0,
			"0.023": 0.0,
			"0.024": 0.0,
			"0.025": 0.0
		}
	}
}
