{
	 "smiles": "OC(=O)C1=CC(F)=C(F)C=C1Cl", 
	 "Tm": 378.65, 
	 "num_atms": 15, 
	 "gaussian": { 
		 "optdone": 1, 
		 "sigma_profile": "yes", 
		 "theory": "DFT", 
		 "functional": "B3LYP", 
		 "basiset": "6-31G**", 
		 "properties": { 
			 "R2extent": 3162.3441, 
			 "electric_dipole_moment_norm": 1.2403332012, 
			 "electric_quadrupole_moment_norm": 3.25961137101, 
			 "total_energy": -1078.86046372, 
			 "HOMO_LUMO_gap": 0.19401, 
			 "cosmo_polarized_energy": -8.27, 
			 "cosmo_cavitation_energy": 23.1, 
			 "cosmo_dispersion_energy": -17.02, 
			 "cosmo_repulsion_energy": 1.31, 
			 "cosmo_total_nonelectrostatic_energy": 7.39, 
			 "SMD_solvation_energy": 6.09 
		},
		"coords": [
			{
				"x": 2.0977931579,
				"y": -1.5968963311,
				"z": 2.2570433462,
				"element": "O" 
			},
			{
				"x": 1.9341054678,
				"y": -0.5241646284,
				"z": 1.4621016546,
				"element": "C" 
			},
			{
				"x": 2.8565766578,
				"y": -0.0411639635,
				"z": 0.8334307713,
				"element": "O" 
			},
			{
				"x": 0.5428555331,
				"y": 0.0273583968,
				"z": 1.4085855532,
				"element": "C" 
			},
			{
				"x": 0.4083379891,
				"y": 1.148467791,
				"z": 0.5673051387,
				"element": "C" 
			},
			{
				"x": -0.8051697265,
				"y": 1.7821498783,
				"z": 0.4011878099,
				"element": "C" 
			},
			{
				"x": -0.9240305131,
				"y": 2.8489468388,
				"z": -0.401756105,
				"element": "F" 
			},
			{
				"x": -1.930720598,
				"y": 1.3091429773,
				"z": 1.0776657482,
				"element": "C" 
			},
			{
				"x": -3.1046383187,
				"y": 1.9279289206,
				"z": 0.9124133019,
				"element": "F" 
			},
			{
				"x": -1.8347741709,
				"y": 0.2085547827,
				"z": 1.9133613936,
				"element": "C" 
			},
			{
				"x": -0.6048484895,
				"y": -0.435806645,
				"z": 2.0834290266,
				"element": "C" 
			},
			{
				"x": -0.6206851441,
				"y": -1.8109542947,
				"z": 3.164768084,
				"element": "Cl" 
			},
			{
				"x": 3.0385544261,
				"y": -1.832148357,
				"z": 2.1854758471,
				"element": "H" 
			},
			{
				"x": 1.286332051,
				"y": 1.5100283541,
				"z": 0.0454117191,
				"element": "H" 
			},
			{
				"x": -2.7197883219,
				"y": -0.1429437198,
				"z": 2.4292767106,
				"element": "H" 
			}
		],
		 "valence_orbital": [ 
			{
				"type": "occ",
				"energy": -0.32723,
				"method": "rhf"
			},
			{
				"type": "occ",
				"energy": -0.32083,
				"method": "rhf"
			},
			{
				"type": "occ",
				"energy": -0.29282,
				"method": "rhf"
			},
			{
				"type": "occ",
				"energy": -0.28221,
				"method": "rhf"
			},
			{
				"type": "occ",
				"energy": -0.2608,
				"method": "rhf"
			},
			{
				"type": "unocc",
				"energy": -0.06679,
				"method": "rhf"
			},
			{
				"type": "unocc",
				"energy": -0.03405,
				"method": "rhf"
			},
			{
				"type": "unocc",
				"energy": 0.01086,
				"method": "rhf"
			},
			{
				"type": "unocc",
				"energy": 0.04306,
				"method": "rhf"
			},
			{
				"type": "unocc",
				"energy": 0.06834,
				"method": "rhf"
			}
		],
		"cosmo_sigma_profile": { 
			"-0.025": 0.0,
			"-0.024": 0.0,
			"-0.023": 0.0,
			"-0.022": 0.0,
			"-0.021": 0.0,
			"-0.02": 0.0,
			"-0.019": 0.339651856733,
			"-0.018": 0.942927719548,
			"-0.017": 1.03135843458,
			"-0.016": 0.703620465744,
			"-0.015": 0.609225739474,
			"-0.014": 0.592403899936,
			"-0.013": 0.738026601873,
			"-0.012": 0.837420046249,
			"-0.011": 0.998748617901,
			"-0.01": 1.11002771962,
			"-0.009": 1.87122633095,
			"-0.008": 2.56095172108,
			"-0.007": 3.80451686461,
			"-0.006": 3.26074240105,
			"-0.005": 3.52997549319,
			"-0.004": 6.70039865945,
			"-0.003": 15.0458500356,
			"-0.002": 19.8421561652,
			"-0.001": 22.348985324,
			"0.0": 16.7298873636,
			"0.001": 10.4721547963,
			"0.002": 16.2297704423,
			"0.003": 26.6757576068,
			"0.004": 8.60288433665,
			"0.005": 3.43511061794,
			"0.006": 3.31254797089,
			"0.007": 2.71769236273,
			"0.008": 3.9788743473,
			"0.009": 1.91131145191,
			"0.01": 2.29596645179,
			"0.011": 4.51034955229,
			"0.012": 0.983352573782,
			"0.013": 0.0,
			"0.014": 0.0,
			"0.015": 0.0,
			"0.016": 0.0,
			"0.017": 0.0,
			"0.018": 0.0,
			"0.019": 0.0,
			"0.02": 0.0,
			"0.021": 0.0,
			"0.022": 0.0,
			"0.023": 0.0,
			"0.024": 0.0,
			"0.025": 0.0
		}
	}
}
