{
	 "smiles": "NC1=NC=C(C=C1)C1=NC2=C(S1)C=CC=C2", 
	 "Tm": 461.15, 
	 "num_atms": 25, 
	 "gaussian": { 
		 "optdone": 1, 
		 "sigma_profile": "yes", 
		 "theory": "DFT", 
		 "functional": "B3LYP", 
		 "basiset": "6-31G**", 
		 "properties": { 
			 "R2extent": 5440.5145, 
			 "electric_dipole_moment_norm": 2.21953605287, 
			 "electric_quadrupole_moment_norm": 24.1462129304, 
			 "total_energy": -1025.16602708, 
			 "HOMO_LUMO_gap": 0.15486, 
			 "cosmo_polarized_energy": -12.39, 
			 "cosmo_cavitation_energy": 31.12, 
			 "cosmo_dispersion_energy": -23.93, 
			 "cosmo_repulsion_energy": 1.79, 
			 "cosmo_total_nonelectrostatic_energy": 8.98, 
			 "SMD_solvation_energy": 1.86 
		},
		"coords": [
			{
				"x": 5.3571510572,
				"y": 0.9048280973,
				"z": -1.7732524123,
				"element": "N" 
			},
			{
				"x": 4.1077925251,
				"y": 0.9104688115,
				"z": -1.202791227,
				"element": "C" 
			},
			{
				"x": 3.851183045,
				"y": -0.0794236929,
				"z": -0.3304493109,
				"element": "N" 
			},
			{
				"x": 2.6343730865,
				"y": -0.1354650796,
				"z": 0.2104383019,
				"element": "C" 
			},
			{
				"x": 1.6012225557,
				"y": 0.7711256411,
				"z": -0.0598552769,
				"element": "C" 
			},
			{
				"x": 1.891151861,
				"y": 1.8069189154,
				"z": -0.9733115207,
				"element": "C" 
			},
			{
				"x": 3.141321518,
				"y": 1.8828521539,
				"z": -1.5508077477,
				"element": "C" 
			},
			{
				"x": 0.2795506726,
				"y": 0.6856044082,
				"z": 0.5548364593,
				"element": "C" 
			},
			{
				"x": -0.6809672886,
				"y": 1.5306941202,
				"z": 0.3209144323,
				"element": "N" 
			},
			{
				"x": -1.8250699111,
				"y": 1.2192947205,
				"z": 1.0302371424,
				"element": "C" 
			},
			{
				"x": -1.7365435165,
				"y": 0.0702133124,
				"z": 1.8549619042,
				"element": "C" 
			},
			{
				"x": -0.1344028608,
				"y": -0.6232234924,
				"z": 1.7070624499,
				"element": "S" 
			},
			{
				"x": -2.8175719693,
				"y": -0.3592237551,
				"z": 2.626985059,
				"element": "C" 
			},
			{
				"x": -3.9998807759,
				"y": 0.3760422862,
				"z": 2.5677598593,
				"element": "C" 
			},
			{
				"x": -4.1017559279,
				"y": 1.5176460021,
				"z": 1.7542006926,
				"element": "C" 
			},
			{
				"x": -3.0254314968,
				"y": 1.9450185118,
				"z": 0.9857818529,
				"element": "C" 
			},
			{
				"x": 5.7111336212,
				"y": 1.7592218647,
				"z": -2.1735718105,
				"element": "H" 
			},
			{
				"x": 6.0335934649,
				"y": 0.3061715164,
				"z": -1.322562211,
				"element": "H" 
			},
			{
				"x": 2.475706424,
				"y": -0.9554784643,
				"z": 0.9102091448,
				"element": "H" 
			},
			{
				"x": 1.1175288437,
				"y": 2.530260241,
				"z": -1.2072258847,
				"element": "H" 
			},
			{
				"x": 3.3823289971,
				"y": 2.6671870554,
				"z": -2.2621541562,
				"element": "H" 
			},
			{
				"x": -2.7431196659,
				"y": -1.2402286853,
				"z": 3.2564575882,
				"element": "H" 
			},
			{
				"x": -4.8535706624,
				"y": 0.060089689,
				"z": 3.1598669382,
				"element": "H" 
			},
			{
				"x": -5.0350062907,
				"y": 2.0721709145,
				"z": 1.7268025752,
				"element": "H" 
			},
			{
				"x": -3.089417306,
				"y": 2.8242349078,
				"z": 0.3531671576,
				"element": "H" 
			}
		],
		 "valence_orbital": [ 
			{
				"type": "occ",
				"energy": -0.27143,
				"method": "rhf"
			},
			{
				"type": "occ",
				"energy": -0.2639,
				"method": "rhf"
			},
			{
				"type": "occ",
				"energy": -0.25025,
				"method": "rhf"
			},
			{
				"type": "occ",
				"energy": -0.23054,
				"method": "rhf"
			},
			{
				"type": "occ",
				"energy": -0.20552,
				"method": "rhf"
			},
			{
				"type": "unocc",
				"energy": -0.05066,
				"method": "rhf"
			},
			{
				"type": "unocc",
				"energy": -0.02111,
				"method": "rhf"
			},
			{
				"type": "unocc",
				"energy": -0.00166,
				"method": "rhf"
			},
			{
				"type": "unocc",
				"energy": 0.01603,
				"method": "rhf"
			},
			{
				"type": "unocc",
				"energy": 0.01672,
				"method": "rhf"
			}
		],
		"cosmo_sigma_profile": { 
			"-0.025": 0.0,
			"-0.024": 0.0,
			"-0.023": 0.0,
			"-0.022": 0.0,
			"-0.021": 0.0,
			"-0.02": 0.0,
			"-0.019": 0.0,
			"-0.018": 0.0,
			"-0.017": 0.0,
			"-0.016": 0.0,
			"-0.015": 0.0377755911207,
			"-0.014": 1.15503824257,
			"-0.013": 2.17130193038,
			"-0.012": 2.56317813375,
			"-0.011": 2.48602482157,
			"-0.01": 2.57156240338,
			"-0.009": 2.52926197729,
			"-0.008": 2.91191361443,
			"-0.007": 6.8252498877,
			"-0.006": 12.9246119789,
			"-0.005": 15.3102738214,
			"-0.004": 15.0445781122,
			"-0.003": 11.4973807435,
			"-0.002": 12.1117464851,
			"-0.001": 12.204824032,
			"0.0": 16.782216735,
			"0.001": 24.7394227951,
			"0.002": 28.1662672941,
			"0.003": 25.8898501417,
			"0.004": 19.0401668556,
			"0.005": 12.7290562346,
			"0.006": 4.50869322867,
			"0.007": 4.06786041957,
			"0.008": 3.21462453173,
			"0.009": 2.61054834153,
			"0.01": 2.52057587238,
			"0.011": 2.07624880183,
			"0.012": 1.93128604837,
			"0.013": 0.583053696487,
			"0.014": 0.88261173228,
			"0.015": 0.532921356871,
			"0.016": 0.0995226988495,
			"0.017": 0.0,
			"0.018": 0.0,
			"0.019": 0.0,
			"0.02": 0.0,
			"0.021": 0.0,
			"0.022": 0.0,
			"0.023": 0.0,
			"0.024": 0.0,
			"0.025": 0.0
		}
	}
}
