{
	 "smiles": "O=CC1=CC=C(S1)C1=CC=CC=N1", 
	 "Tm": 395.15, 
	 "num_atms": 20, 
	 "gaussian": { 
		 "optdone": 1, 
		 "sigma_profile": "yes", 
		 "theory": "DFT", 
		 "functional": "B3LYP", 
		 "basiset": "6-31G**", 
		 "properties": { 
			 "R2extent": 3379.477, 
			 "electric_dipole_moment_norm": 5.38794773824, 
			 "electric_quadrupole_moment_norm": 11.1293720879, 
			 "total_energy": -913.424990474, 
			 "HOMO_LUMO_gap": 0.14907, 
			 "cosmo_polarized_energy": -11.38, 
			 "cosmo_cavitation_energy": 26.8, 
			 "cosmo_dispersion_energy": -20.16, 
			 "cosmo_repulsion_energy": 1.52, 
			 "cosmo_total_nonelectrostatic_energy": 8.16, 
			 "SMD_solvation_energy": 4.33 
		},
		"coords": [
			{
				"x": -1.199352329,
				"y": -1.5356615725,
				"z": 4.5225216447,
				"element": "O" 
			},
			{
				"x": -1.0165910037,
				"y": -0.6722209674,
				"z": 3.6808721257,
				"element": "C" 
			},
			{
				"x": -0.6749172187,
				"y": -0.9613691787,
				"z": 2.2874945676,
				"element": "C" 
			},
			{
				"x": -0.50991339,
				"y": -2.2105290453,
				"z": 1.7205313267,
				"element": "C" 
			},
			{
				"x": -0.1815143036,
				"y": -2.1484145517,
				"z": 0.349880392,
				"element": "C" 
			},
			{
				"x": -0.0952407848,
				"y": -0.8525610143,
				"z": -0.1325257749,
				"element": "C" 
			},
			{
				"x": -0.4230232897,
				"y": 0.3107771596,
				"z": 1.1192953156,
				"element": "S" 
			},
			{
				"x": 0.2186706241,
				"y": -0.3778091622,
				"z": -1.482958718,
				"element": "C" 
			},
			{
				"x": 0.4936980524,
				"y": -1.2609628218,
				"z": -2.5412895592,
				"element": "C" 
			},
			{
				"x": 0.7832740782,
				"y": -0.7339489831,
				"z": -3.7958084162,
				"element": "C" 
			},
			{
				"x": 0.7921598323,
				"y": 0.6505983392,
				"z": -3.9659722237,
				"element": "C" 
			},
			{
				"x": 0.5068013132,
				"y": 1.4488877604,
				"z": -2.8562888882,
				"element": "C" 
			},
			{
				"x": 0.227369775,
				"y": 0.9594786124,
				"z": -1.6475730273,
				"element": "N" 
			},
			{
				"x": -1.1025978174,
				"y": 0.4056152019,
				"z": 3.937377394,
				"element": "H" 
			},
			{
				"x": -0.6269703732,
				"y": -3.1223767006,
				"z": 2.29380008,
				"element": "H" 
			},
			{
				"x": -0.0135447476,
				"y": -3.0251015272,
				"z": -0.2648823149,
				"element": "H" 
			},
			{
				"x": 0.4808659802,
				"y": -2.3338896636,
				"z": -2.3846329564,
				"element": "H" 
			},
			{
				"x": 0.9990262105,
				"y": -1.396238726,
				"z": -4.6291096223,
				"element": "H" 
			},
			{
				"x": 1.0129951491,
				"y": 1.1021933918,
				"z": -4.9273987337,
				"element": "H" 
			},
			{
				"x": 0.5026042425,
				"y": 2.5338334492,
				"z": -2.9432326116,
				"element": "H" 
			}
		],
		 "valence_orbital": [ 
			{
				"type": "occ",
				"energy": -0.29235,
				"method": "rhf"
			},
			{
				"type": "occ",
				"energy": -0.27135,
				"method": "rhf"
			},
			{
				"type": "occ",
				"energy": -0.26532,
				"method": "rhf"
			},
			{
				"type": "occ",
				"energy": -0.25388,
				"method": "rhf"
			},
			{
				"type": "occ",
				"energy": -0.23071,
				"method": "rhf"
			},
			{
				"type": "unocc",
				"energy": -0.08164,
				"method": "rhf"
			},
			{
				"type": "unocc",
				"energy": -0.03354,
				"method": "rhf"
			},
			{
				"type": "unocc",
				"energy": -0.02501,
				"method": "rhf"
			},
			{
				"type": "unocc",
				"energy": 0.0255,
				"method": "rhf"
			},
			{
				"type": "unocc",
				"energy": 0.03812,
				"method": "rhf"
			}
		],
		"cosmo_sigma_profile": { 
			"-0.025": 0.0,
			"-0.024": 0.0,
			"-0.023": 0.0,
			"-0.022": 0.0,
			"-0.021": 0.0,
			"-0.02": 0.0,
			"-0.019": 0.0,
			"-0.018": 0.0,
			"-0.017": 0.0,
			"-0.016": 0.0,
			"-0.015": 0.0,
			"-0.014": 0.0,
			"-0.013": 0.0,
			"-0.012": 0.0,
			"-0.011": 0.0,
			"-0.01": 0.313747369034,
			"-0.009": 2.01719889589,
			"-0.008": 5.44419553511,
			"-0.007": 13.7603031176,
			"-0.006": 15.7059732097,
			"-0.005": 14.2388642471,
			"-0.004": 10.759231786,
			"-0.003": 10.6257703207,
			"-0.002": 11.4034872641,
			"-0.001": 11.970110185,
			"0.0": 13.1260952275,
			"0.001": 27.5189915555,
			"0.002": 30.1397045073,
			"0.003": 13.8442153639,
			"0.004": 6.11965307202,
			"0.005": 4.12380672737,
			"0.006": 3.1366682901,
			"0.007": 3.51618985374,
			"0.008": 3.10274469492,
			"0.009": 2.7874547647,
			"0.01": 3.94372052483,
			"0.011": 5.34111620139,
			"0.012": 4.35027982967,
			"0.013": 1.26995157477,
			"0.014": 0.0259371189672,
			"0.015": 0.0,
			"0.016": 0.0,
			"0.017": 0.0,
			"0.018": 0.0,
			"0.019": 0.0,
			"0.02": 0.0,
			"0.021": 0.0,
			"0.022": 0.0,
			"0.023": 0.0,
			"0.024": 0.0,
			"0.025": 0.0
		}
	}
}
