{
	 "smiles": "CC1=C2C(=O)C(=O)NC2=C(Cl)C=C1", 
	 "Tm": 483.15, 
	 "num_atms": 19, 
	 "gaussian": { 
		 "optdone": 1, 
		 "sigma_profile": "yes", 
		 "theory": "DFT", 
		 "functional": "B3LYP", 
		 "basiset": "6-31G**", 
		 "properties": { 
			 "R2extent": 5301.0385, 
			 "electric_dipole_moment_norm": 4.76283610258, 
			 "electric_quadrupole_moment_norm": 22.0907016004, 
			 "total_energy": -1011.97462591, 
			 "HOMO_LUMO_gap": 0.14063, 
			 "cosmo_polarized_energy": -12.93, 
			 "cosmo_cavitation_energy": 25.81, 
			 "cosmo_dispersion_energy": -19.01, 
			 "cosmo_repulsion_energy": 1.49, 
			 "cosmo_total_nonelectrostatic_energy": 8.29, 
			 "SMD_solvation_energy": 5.37 
		},
		"coords": [
			{
				"x": 3.7165294889,
				"y": -0.2760972989,
				"z": 0.4650216003,
				"element": "C" 
			},
			{
				"x": 2.5010158315,
				"y": 0.6070435588,
				"z": 0.5496230531,
				"element": "C" 
			},
			{
				"x": 2.333911443,
				"y": 1.6987571912,
				"z": -0.3125008963,
				"element": "C" 
			},
			{
				"x": 3.1878442489,
				"y": 2.2137838292,
				"z": -1.3946315262,
				"element": "C" 
			},
			{
				"x": 4.2562122276,
				"y": 1.8174016177,
				"z": -1.8101920056,
				"element": "O" 
			},
			{
				"x": 2.4257096797,
				"y": 3.4619736479,
				"z": -1.9659391014,
				"element": "C" 
			},
			{
				"x": 2.7650465037,
				"y": 4.1911916263,
				"z": -2.8682532067,
				"element": "O" 
			},
			{
				"x": 1.2676241114,
				"y": 3.5481845947,
				"z": -1.2059445862,
				"element": "N" 
			},
			{
				"x": 1.200879898,
				"y": 2.536835063,
				"z": -0.2471417793,
				"element": "C" 
			},
			{
				"x": 0.2060860805,
				"y": 2.2954940388,
				"z": 0.6900323478,
				"element": "C" 
			},
			{
				"x": -1.2026265728,
				"y": 3.3365950508,
				"z": 0.7719620367,
				"element": "Cl" 
			},
			{
				"x": 0.3577090007,
				"y": 1.2094136521,
				"z": 1.5582888584,
				"element": "C" 
			},
			{
				"x": 1.4819131596,
				"y": 0.3833359658,
				"z": 1.4886043156,
				"element": "C" 
			},
			{
				"x": 3.8050765381,
				"y": -0.7275153616,
				"z": -0.5283985337,
				"element": "H" 
			},
			{
				"x": 4.6333622902,
				"y": 0.3028145118,
				"z": 0.6159507855,
				"element": "H" 
			},
			{
				"x": 3.676108498,
				"y": -1.0726676563,
				"z": 1.2115000905,
				"element": "H" 
			},
			{
				"x": 0.5611889221,
				"y": 4.2584770944,
				"z": -1.3344113545,
				"element": "H" 
			},
			{
				"x": -0.4165572725,
				"y": 1.0154410056,
				"z": 2.2932949335,
				"element": "H" 
			},
			{
				"x": 1.5654659233,
				"y": -0.4504621312,
				"z": 2.1789349685,
				"element": "H" 
			}
		],
		 "valence_orbital": [ 
			{
				"type": "occ",
				"energy": -0.33161,
				"method": "rhf"
			},
			{
				"type": "occ",
				"energy": -0.31488,
				"method": "rhf"
			},
			{
				"type": "occ",
				"energy": -0.27049,
				"method": "rhf"
			},
			{
				"type": "occ",
				"energy": -0.25192,
				"method": "rhf"
			},
			{
				"type": "occ",
				"energy": -0.244,
				"method": "rhf"
			},
			{
				"type": "unocc",
				"energy": -0.10337,
				"method": "rhf"
			},
			{
				"type": "unocc",
				"energy": -0.02874,
				"method": "rhf"
			},
			{
				"type": "unocc",
				"energy": -0.00116,
				"method": "rhf"
			},
			{
				"type": "unocc",
				"energy": 0.00954,
				"method": "rhf"
			},
			{
				"type": "unocc",
				"energy": 0.08021,
				"method": "rhf"
			}
		],
		"cosmo_sigma_profile": { 
			"-0.025": 0.0,
			"-0.024": 0.0,
			"-0.023": 0.0,
			"-0.022": 0.0,
			"-0.021": 0.0,
			"-0.02": 0.0,
			"-0.019": 0.0,
			"-0.018": 0.0,
			"-0.017": 0.00291584053778,
			"-0.016": 0.910762953447,
			"-0.015": 0.960384285577,
			"-0.014": 0.264815120316,
			"-0.013": 0.900057508619,
			"-0.012": 0.957089493699,
			"-0.011": 1.2701212383,
			"-0.01": 0.750842041701,
			"-0.009": 1.17430846,
			"-0.008": 4.0341634259,
			"-0.007": 6.6235050122,
			"-0.006": 8.4597871463,
			"-0.005": 11.8779675071,
			"-0.004": 12.8712729338,
			"-0.003": 15.2596113919,
			"-0.002": 19.1223038121,
			"-0.001": 20.1492522221,
			"0.0": 19.7527887618,
			"0.001": 16.8033158353,
			"0.002": 12.9357047223,
			"0.003": 10.3769871419,
			"0.004": 8.69430904268,
			"0.005": 2.88044453966,
			"0.006": 2.32522019975,
			"0.007": 2.71451416227,
			"0.008": 3.97925362437,
			"0.009": 4.95317872075,
			"0.01": 7.9182296935,
			"0.011": 7.87960782582,
			"0.012": 2.67838047302,
			"0.013": 0.0788512803378,
			"0.014": 0.0,
			"0.015": 0.0,
			"0.016": 0.0,
			"0.017": 0.0,
			"0.018": 0.0,
			"0.019": 0.0,
			"0.02": 0.0,
			"0.021": 0.0,
			"0.022": 0.0,
			"0.023": 0.0,
			"0.024": 0.0,
			"0.025": 0.0
		}
	}
}
