{
	 "smiles": "CCC(=O)C(=O)CC", 
	 "Tm": 263.15, 
	 "num_atms": 18, 
	 "gaussian": { 
		 "optdone": 1, 
		 "sigma_profile": "yes", 
		 "theory": "DFT", 
		 "functional": "B3LYP", 
		 "basiset": "6-31G**", 
		 "properties": { 
			 "R2extent": 1409.4622, 
			 "electric_dipole_moment_norm": 0.000173205080757, 
			 "electric_quadrupole_moment_norm": 8.78403826551, 
			 "total_energy": -385.11268907, 
			 "HOMO_LUMO_gap": 0.15721, 
			 "cosmo_polarized_energy": -7.0, 
			 "cosmo_cavitation_energy": 21.78, 
			 "cosmo_dispersion_energy": -15.63, 
			 "cosmo_repulsion_energy": 1.34, 
			 "cosmo_total_nonelectrostatic_energy": 7.49, 
			 "SMD_solvation_energy": 5.1 
		},
		"coords": [
			{
				"x": -2.6978729679,
				"y": 0.3117612515,
				"z": 2.1251573851,
				"element": "C" 
			},
			{
				"x": -1.5296598012,
				"y": -0.3686581192,
				"z": 1.4167179789,
				"element": "C" 
			},
			{
				"x": -1.2079724483,
				"y": 0.2430433641,
				"z": 0.0709136551,
				"element": "C" 
			},
			{
				"x": -1.8112260468,
				"y": 1.1839388653,
				"z": -0.4109704845,
				"element": "O" 
			},
			{
				"x": -0.0314931167,
				"y": -0.3908425648,
				"z": -0.7150991948,
				"element": "C" 
			},
			{
				"x": 0.5715117384,
				"y": -1.3319852927,
				"z": -0.2333864783,
				"element": "O" 
			},
			{
				"x": 0.2897975843,
				"y": 0.2204624317,
				"z": -2.0611777123,
				"element": "C" 
			},
			{
				"x": 1.4576303987,
				"y": -0.4603361524,
				"z": -2.7698804612,
				"element": "C" 
			},
			{
				"x": -2.8912274551,
				"y": -0.1643835859,
				"z": 3.090418194,
				"element": "H" 
			},
			{
				"x": -3.6091138694,
				"y": 0.2548135101,
				"z": 1.5234983048,
				"element": "H" 
			},
			{
				"x": -2.4890420745,
				"y": 1.3709852563,
				"z": 2.2984450944,
				"element": "H" 
			},
			{
				"x": -1.7129360751,
				"y": -1.4397654966,
				"z": 1.2577821699,
				"element": "H" 
			},
			{
				"x": -0.6120482451,
				"y": -0.3427728255,
				"z": 2.0195822512,
				"element": "H" 
			},
			{
				"x": -0.6280389407,
				"y": 0.1945956525,
				"z": -2.6637016029,
				"element": "H" 
			},
			{
				"x": 0.473322905,
				"y": 1.2915741302,
				"z": -1.9025667191,
				"element": "H" 
			},
			{
				"x": 2.3691056622,
				"y": -0.4033878384,
				"z": -2.1685766596,
				"element": "H" 
			},
			{
				"x": 1.2485584174,
				"y": -1.5195699894,
				"z": -2.9428195095,
				"element": "H" 
			},
			{
				"x": 1.6507043346,
				"y": 0.0155274033,
				"z": -3.7353362112,
				"element": "H" 
			}
		],
		 "valence_orbital": [ 
			{
				"type": "occ",
				"energy": -0.36677,
				"method": "rhf"
			},
			{
				"type": "occ",
				"energy": -0.35414,
				"method": "rhf"
			},
			{
				"type": "occ",
				"energy": -0.34698,
				"method": "rhf"
			},
			{
				"type": "occ",
				"energy": -0.31031,
				"method": "rhf"
			},
			{
				"type": "occ",
				"energy": -0.23962,
				"method": "rhf"
			},
			{
				"type": "unocc",
				"energy": -0.08241,
				"method": "rhf"
			},
			{
				"type": "unocc",
				"energy": 0.03955,
				"method": "rhf"
			},
			{
				"type": "unocc",
				"energy": 0.0951,
				"method": "rhf"
			},
			{
				"type": "unocc",
				"energy": 0.10405,
				"method": "rhf"
			},
			{
				"type": "unocc",
				"energy": 0.14363,
				"method": "rhf"
			}
		],
		"cosmo_sigma_profile": { 
			"-0.025": 0.0,
			"-0.024": 0.0,
			"-0.023": 0.0,
			"-0.022": 0.0,
			"-0.021": 0.0,
			"-0.02": 0.0,
			"-0.019": 0.0,
			"-0.018": 0.0,
			"-0.017": 0.0,
			"-0.016": 0.0,
			"-0.015": 0.0,
			"-0.014": 0.0,
			"-0.013": 0.0,
			"-0.012": 0.0,
			"-0.011": 0.0,
			"-0.01": 0.0,
			"-0.009": 0.0,
			"-0.008": 0.59790747513,
			"-0.007": 3.81162122772,
			"-0.006": 9.49753655662,
			"-0.005": 8.93641666805,
			"-0.004": 12.1321307881,
			"-0.003": 21.9863697181,
			"-0.002": 22.9324249135,
			"-0.001": 17.8375956658,
			"0.0": 16.8953257345,
			"0.001": 12.5871389032,
			"0.002": 4.18021853919,
			"0.003": 4.62192891095,
			"0.004": 3.09938800991,
			"0.005": 3.07016579023,
			"0.006": 3.59657073946,
			"0.007": 3.11065682011,
			"0.008": 4.16686471521,
			"0.009": 4.51614220256,
			"0.01": 6.09877334476,
			"0.011": 5.99215266919,
			"0.012": 0.661923708655,
			"0.013": 0.0,
			"0.014": 0.0,
			"0.015": 0.0,
			"0.016": 0.0,
			"0.017": 0.0,
			"0.018": 0.0,
			"0.019": 0.0,
			"0.02": 0.0,
			"0.021": 0.0,
			"0.022": 0.0,
			"0.023": 0.0,
			"0.024": 0.0,
			"0.025": 0.0
		}
	}
}
