{
	 "smiles": "OC(=O)CCN1N=C(OC1=O)C1=CC=CS1", 
	 "Tm": 420.15, 
	 "num_atms": 24, 
	 "gaussian": { 
		 "optdone": 1, 
		 "sigma_profile": "yes", 
		 "theory": "DFT", 
		 "functional": "B3LYP", 
		 "basiset": "6-31G**", 
		 "properties": { 
			 "R2extent": 5096.445, 
			 "electric_dipole_moment_norm": 5.62692982896, 
			 "electric_quadrupole_moment_norm": 28.5522638241, 
			 "total_energy": -1156.35665671, 
			 "HOMO_LUMO_gap": 0.16138, 
			 "cosmo_polarized_energy": -18.62, 
			 "cosmo_cavitation_energy": 31.27, 
			 "cosmo_dispersion_energy": -23.03, 
			 "cosmo_repulsion_energy": 1.74, 
			 "cosmo_total_nonelectrostatic_energy": 9.98, 
			 "SMD_solvation_energy": 7.29 
		},
		"coords": [
			{
				"x": 1.4980667672,
				"y": -2.2567423552,
				"z": -2.5240871495,
				"element": "O" 
			},
			{
				"x": 0.5748372593,
				"y": -3.2323422198,
				"z": -2.4668600596,
				"element": "C" 
			},
			{
				"x": 0.6986373572,
				"y": -4.2469232234,
				"z": -3.1121478029,
				"element": "O" 
			},
			{
				"x": -0.6318547916,
				"y": -3.0157836564,
				"z": -1.542009626,
				"element": "C" 
			},
			{
				"x": -1.3617696327,
				"y": -1.6624016554,
				"z": -1.6558669207,
				"element": "C" 
			},
			{
				"x": -0.8213865726,
				"y": -0.6216072031,
				"z": -0.7941318975,
				"element": "N" 
			},
			{
				"x": 0.5066701366,
				"y": -0.2474696031,
				"z": -0.8456427605,
				"element": "N" 
			},
			{
				"x": 0.6169359053,
				"y": 0.6981186766,
				"z": 0.038544217,
				"element": "C" 
			},
			{
				"x": -0.5569068105,
				"y": 0.9768656273,
				"z": 0.6689594919,
				"element": "O" 
			},
			{
				"x": -1.5227657584,
				"y": 0.1084578296,
				"z": 0.1290047459,
				"element": "C" 
			},
			{
				"x": -2.6797832076,
				"y": 0.0752766193,
				"z": 0.4569950637,
				"element": "O" 
			},
			{
				"x": 1.7935562181,
				"y": 1.4407191701,
				"z": 0.4003855994,
				"element": "C" 
			},
			{
				"x": 1.8811819181,
				"y": 2.4328538232,
				"z": 1.3542095671,
				"element": "C" 
			},
			{
				"x": 3.192920601,
				"y": 2.9655802461,
				"z": 1.467917606,
				"element": "C" 
			},
			{
				"x": 4.0784290151,
				"y": 2.3745740987,
				"z": 0.6042162406,
				"element": "C" 
			},
			{
				"x": 3.3343475797,
				"y": 1.1538592222,
				"z": -0.3697829281,
				"element": "S" 
			},
			{
				"x": 1.292170741,
				"y": -1.509620012,
				"z": -1.9205733174,
				"element": "H" 
			},
			{
				"x": -0.3185214418,
				"y": -3.1719650393,
				"z": -0.5023498117,
				"element": "H" 
			},
			{
				"x": -1.332219576,
				"y": -3.8157416931,
				"z": -1.789049986,
				"element": "H" 
			},
			{
				"x": -2.4007097481,
				"y": -1.7699647368,
				"z": -1.3371533446,
				"element": "H" 
			},
			{
				"x": -1.3660590711,
				"y": -1.3055498763,
				"z": -2.6922694412,
				"element": "H" 
			},
			{
				"x": 1.0309857683,
				"y": 2.7561888228,
				"z": 1.9423375122,
				"element": "H" 
			},
			{
				"x": 3.4677930901,
				"y": 3.7525598543,
				"z": 2.1598367554,
				"element": "H" 
			},
			{
				"x": 5.1319442534,
				"y": 2.5844572837,
				"z": 0.4797182467,
				"element": "H" 
			}
		],
		 "valence_orbital": [ 
			{
				"type": "occ",
				"energy": -0.30121,
				"method": "rhf"
			},
			{
				"type": "occ",
				"energy": -0.29425,
				"method": "rhf"
			},
			{
				"type": "occ",
				"energy": -0.28352,
				"method": "rhf"
			},
			{
				"type": "occ",
				"energy": -0.25973,
				"method": "rhf"
			},
			{
				"type": "occ",
				"energy": -0.24171,
				"method": "rhf"
			},
			{
				"type": "unocc",
				"energy": -0.08033,
				"method": "rhf"
			},
			{
				"type": "unocc",
				"energy": 0.00044,
				"method": "rhf"
			},
			{
				"type": "unocc",
				"energy": 0.00757,
				"method": "rhf"
			},
			{
				"type": "unocc",
				"energy": 0.01594,
				"method": "rhf"
			},
			{
				"type": "unocc",
				"energy": 0.0217,
				"method": "rhf"
			}
		],
		"cosmo_sigma_profile": { 
			"-0.025": 0.0,
			"-0.024": 0.0,
			"-0.023": 0.0,
			"-0.022": 0.0,
			"-0.021": 0.0,
			"-0.02": 0.0,
			"-0.019": 0.0,
			"-0.018": 0.0,
			"-0.017": 0.0,
			"-0.016": 0.0,
			"-0.015": 0.0,
			"-0.014": 0.0,
			"-0.013": 0.0,
			"-0.012": 0.0,
			"-0.011": 0.0,
			"-0.01": 0.952804474937,
			"-0.009": 2.83721613699,
			"-0.008": 11.6861533634,
			"-0.007": 19.0123248058,
			"-0.006": 19.1998254804,
			"-0.005": 18.8836236733,
			"-0.004": 15.6758814215,
			"-0.003": 13.267470128,
			"-0.002": 16.0874671569,
			"-0.001": 15.0470111436,
			"0.0": 15.066909361,
			"0.001": 17.0716949894,
			"0.002": 17.4325601695,
			"0.003": 13.0577325296,
			"0.004": 5.68700895281,
			"0.005": 5.10730841015,
			"0.006": 4.35241290672,
			"0.007": 3.43523389171,
			"0.008": 3.66181841194,
			"0.009": 4.80220102973,
			"0.01": 6.23078656053,
			"0.011": 10.90682599,
			"0.012": 9.22212242038,
			"0.013": 3.97908660094,
			"0.014": 0.729661177742,
			"0.015": 0.0,
			"0.016": 0.0,
			"0.017": 0.0,
			"0.018": 0.0,
			"0.019": 0.0,
			"0.02": 0.0,
			"0.021": 0.0,
			"0.022": 0.0,
			"0.023": 0.0,
			"0.024": 0.0,
			"0.025": 0.0
		}
	}
}
