{
	 "smiles": "CC(C)[C@@H]1CC[C@@H](C)C[C@H]1O", 
	 "Tm": 316.15, 
	 "num_atms": 31, 
	 "gaussian": { 
		 "optdone": 1, 
		 "sigma_profile": "yes", 
		 "theory": "DFT", 
		 "functional": "B3LYP", 
		 "basiset": "6-31G**", 
		 "properties": { 
			 "R2extent": 2768.2904, 
			 "electric_dipole_moment_norm": 1.55626764086, 
			 "electric_quadrupole_moment_norm": 6.51133710232, 
			 "total_energy": -468.364962091, 
			 "HOMO_LUMO_gap": 0.31382, 
			 "cosmo_polarized_energy": -5.69, 
			 "cosmo_cavitation_energy": 29.18, 
			 "cosmo_dispersion_energy": -21.17, 
			 "cosmo_repulsion_energy": 1.69, 
			 "cosmo_total_nonelectrostatic_energy": 9.7, 
			 "SMD_solvation_energy": 4.32 
		},
		"coords": [
			{
				"x": 3.4505467892,
				"y": 0.2441878841,
				"z": 1.6654862214,
				"element": "C" 
			},
			{
				"x": 2.7917606538,
				"y": -0.6731054713,
				"z": 0.6201103613,
				"element": "C" 
			},
			{
				"x": 3.3411425581,
				"y": -2.1075179254,
				"z": 0.7156319565,
				"element": "C" 
			},
			{
				"x": 1.2338046147,
				"y": -0.6234511921,
				"z": 0.6231548498,
				"element": "C" 
			},
			{
				"x": 0.7080421984,
				"y": 0.600307453,
				"z": -0.158878001,
				"element": "C" 
			},
			{
				"x": -0.8229050276,
				"y": 0.6198693519,
				"z": -0.2643019818,
				"element": "C" 
			},
			{
				"x": -1.4990339525,
				"y": 0.5534627494,
				"z": 1.1150686125,
				"element": "C" 
			},
			{
				"x": -3.0274061446,
				"y": 0.5160083655,
				"z": 1.0033107483,
				"element": "C" 
			},
			{
				"x": -0.9586199473,
				"y": -0.6501803022,
				"z": 1.9034052497,
				"element": "C" 
			},
			{
				"x": 0.5677549727,
				"y": -0.6486044798,
				"z": 2.0172290673,
				"element": "C" 
			},
			{
				"x": 0.911819197,
				"y": -1.8033155439,
				"z": 2.7896695173,
				"element": "O" 
			},
			{
				"x": 4.5340848919,
				"y": 0.2824450204,
				"z": 1.5114552939,
				"element": "H" 
			},
			{
				"x": 3.2890614313,
				"y": -0.1099682348,
				"z": 2.6916047371,
				"element": "H" 
			},
			{
				"x": 3.0729487238,
				"y": 1.2703993206,
				"z": 1.6104740809,
				"element": "H" 
			},
			{
				"x": 3.0995953363,
				"y": -0.2913012471,
				"z": -0.3642121262,
				"element": "H" 
			},
			{
				"x": 2.9647374196,
				"y": -2.7242434888,
				"z": -0.1075309973,
				"element": "H" 
			},
			{
				"x": 4.4358242212,
				"y": -2.1118833908,
				"z": 0.6632641233,
				"element": "H" 
			},
			{
				"x": 3.0423061278,
				"y": -2.6008981854,
				"z": 1.6445373896,
				"element": "H" 
			},
			{
				"x": 0.8832997784,
				"y": -1.5246038528,
				"z": 0.0978073127,
				"element": "H" 
			},
			{
				"x": 1.048746852,
				"y": 1.5243150882,
				"z": 0.3309311816,
				"element": "H" 
			},
			{
				"x": 1.1507679402,
				"y": 0.6062444499,
				"z": -1.1625042028,
				"element": "H" 
			},
			{
				"x": -1.1552697072,
				"y": -0.2402489033,
				"z": -0.8642009529,
				"element": "H" 
			},
			{
				"x": -1.1523198783,
				"y": 1.518394323,
				"z": -0.8014709728,
				"element": "H" 
			},
			{
				"x": -1.2218522298,
				"y": 1.4668203797,
				"z": 1.6651946365,
				"element": "H" 
			},
			{
				"x": -3.4991990329,
				"y": 0.498757394,
				"z": 1.9918434206,
				"element": "H" 
			},
			{
				"x": -3.3585116401,
				"y": -0.3783769925,
				"z": 0.4618498763,
				"element": "H" 
			},
			{
				"x": -3.4084389339,
				"y": 1.3908507838,
				"z": 0.4648302691,
				"element": "H" 
			},
			{
				"x": -1.2661228951,
				"y": -1.5842993088,
				"z": 1.4121952471,
				"element": "H" 
			},
			{
				"x": -1.38201022,
				"y": -0.673944769,
				"z": 2.9142510239,
				"element": "H" 
			},
			{
				"x": 0.8668610019,
				"y": 0.2623484133,
				"z": 2.5622663678,
				"element": "H" 
			},
			{
				"x": 1.8056849007,
				"y": -1.6812676889,
				"z": 3.1303276905,
				"element": "H" 
			}
		],
		 "valence_orbital": [ 
			{
				"type": "occ",
				"energy": -0.31732,
				"method": "rhf"
			},
			{
				"type": "occ",
				"energy": -0.30681,
				"method": "rhf"
			},
			{
				"type": "occ",
				"energy": -0.30162,
				"method": "rhf"
			},
			{
				"type": "occ",
				"energy": -0.29092,
				"method": "rhf"
			},
			{
				"type": "occ",
				"energy": -0.2523,
				"method": "rhf"
			},
			{
				"type": "unocc",
				"energy": 0.06152,
				"method": "rhf"
			},
			{
				"type": "unocc",
				"energy": 0.08722,
				"method": "rhf"
			},
			{
				"type": "unocc",
				"energy": 0.0972,
				"method": "rhf"
			},
			{
				"type": "unocc",
				"energy": 0.10309,
				"method": "rhf"
			},
			{
				"type": "unocc",
				"energy": 0.13259,
				"method": "rhf"
			}
		],
		"cosmo_sigma_profile": { 
			"-0.025": 0.0,
			"-0.024": 0.0,
			"-0.023": 0.0,
			"-0.022": 0.0,
			"-0.021": 0.0,
			"-0.02": 0.0,
			"-0.019": 0.0,
			"-0.018": 0.0,
			"-0.017": 0.0,
			"-0.016": 0.0,
			"-0.015": 0.0,
			"-0.014": 0.0,
			"-0.013": 0.755763555597,
			"-0.012": 0.996830325389,
			"-0.011": 1.17850045867,
			"-0.01": 1.22148005258,
			"-0.009": 0.880170046139,
			"-0.008": 1.57868955032,
			"-0.007": 0.958282724751,
			"-0.006": 1.11703898437,
			"-0.005": 1.42658266107,
			"-0.004": 1.45068552123,
			"-0.003": 7.95272940403,
			"-0.002": 38.7910469884,
			"-0.001": 48.4873584597,
			"0.0": 41.3746516893,
			"0.001": 34.9347895867,
			"0.002": 19.6554840437,
			"0.003": 2.84382101728,
			"0.004": 1.62437678217,
			"0.005": 1.06496816484,
			"0.006": 1.50499871455,
			"0.007": 1.49574778368,
			"0.008": 1.53501541951,
			"0.009": 1.48638081164,
			"0.01": 1.18920158161,
			"0.011": 1.21974892942,
			"0.012": 1.30943406336,
			"0.013": 1.71969280757,
			"0.014": 1.63472195641,
			"0.015": 1.13221419715,
			"0.016": 0.0,
			"0.017": 0.0,
			"0.018": 0.0,
			"0.019": 0.0,
			"0.02": 0.0,
			"0.021": 0.0,
			"0.022": 0.0,
			"0.023": 0.0,
			"0.024": 0.0,
			"0.025": 0.0
		}
	}
}
