{
	 "smiles": "COC1=NSC(N)=N1", 
	 "Tm": 445.15, 
	 "num_atms": 13, 
	 "gaussian": { 
		 "optdone": 1, 
		 "sigma_profile": "yes", 
		 "theory": "DFT", 
		 "functional": "B3LYP", 
		 "basiset": "6-31G**", 
		 "properties": { 
			 "R2extent": 2065.3626, 
			 "electric_dipole_moment_norm": 4.76361824037, 
			 "electric_quadrupole_moment_norm": 17.4498483799, 
			 "total_energy": -754.979525974, 
			 "HOMO_LUMO_gap": 0.2077, 
			 "cosmo_polarized_energy": -15.15, 
			 "cosmo_cavitation_energy": 19.09, 
			 "cosmo_dispersion_energy": -15.21, 
			 "cosmo_repulsion_energy": 1.24, 
			 "cosmo_total_nonelectrostatic_energy": 5.11, 
			 "SMD_solvation_energy": 1.51 
		},
		"coords": [
			{
				"x": 2.225715563,
				"y": 0.6241154354,
				"z": 0.472014153,
				"element": "C" 
			},
			{
				"x": 1.0234865327,
				"y": 0.1114697143,
				"z": 1.051440404,
				"element": "O" 
			},
			{
				"x": -0.0419535638,
				"y": 0.9258430689,
				"z": 1.0748646445,
				"element": "C" 
			},
			{
				"x": -1.1526082493,
				"y": 0.4734127104,
				"z": 1.6068842607,
				"element": "N" 
			},
			{
				"x": -2.2859985356,
				"y": 1.7216346935,
				"z": 1.4896708255,
				"element": "S" 
			},
			{
				"x": -1.1227835857,
				"y": 2.7741762482,
				"z": 0.6935917576,
				"element": "C" 
			},
			{
				"x": -1.3797379665,
				"y": 4.0594989924,
				"z": 0.3234941676,
				"element": "N" 
			},
			{
				"x": 0.042640678,
				"y": 2.1927241878,
				"z": 0.5454282057,
				"element": "N" 
			},
			{
				"x": 2.0799871248,
				"y": 0.8842634962,
				"z": -0.5806612434,
				"element": "H" 
			},
			{
				"x": 2.5795021423,
				"y": 1.5093129537,
				"z": 1.008758026,
				"element": "H" 
			},
			{
				"x": 2.9545046082,
				"y": -0.1827248944,
				"z": 0.5600231522,
				"element": "H" 
			},
			{
				"x": -0.6944612334,
				"y": 4.4821225035,
				"z": -0.2864975531,
				"element": "H" 
			},
			{
				"x": -2.3359935147,
				"y": 4.34295089,
				"z": 0.1772891997,
				"element": "H" 
			}
		],
		 "valence_orbital": [ 
			{
				"type": "occ",
				"energy": -0.31426,
				"method": "rhf"
			},
			{
				"type": "occ",
				"energy": -0.3105,
				"method": "rhf"
			},
			{
				"type": "occ",
				"energy": -0.27486,
				"method": "rhf"
			},
			{
				"type": "occ",
				"energy": -0.27348,
				"method": "rhf"
			},
			{
				"type": "occ",
				"energy": -0.2183,
				"method": "rhf"
			},
			{
				"type": "unocc",
				"energy": -0.0106,
				"method": "rhf"
			},
			{
				"type": "unocc",
				"energy": -0.00269,
				"method": "rhf"
			},
			{
				"type": "unocc",
				"energy": 0.06175,
				"method": "rhf"
			},
			{
				"type": "unocc",
				"energy": 0.07501,
				"method": "rhf"
			},
			{
				"type": "unocc",
				"energy": 0.08699,
				"method": "rhf"
			}
		],
		"cosmo_sigma_profile": { 
			"-0.025": 0.0,
			"-0.024": 0.0,
			"-0.023": 0.0,
			"-0.022": 0.0,
			"-0.021": 0.0,
			"-0.02": 0.0,
			"-0.019": 0.0,
			"-0.018": 0.0,
			"-0.017": 0.0079454349352,
			"-0.016": 0.83928027156,
			"-0.015": 2.69001589735,
			"-0.014": 2.63869489928,
			"-0.013": 2.80731223889,
			"-0.012": 2.89464363957,
			"-0.011": 2.40642617053,
			"-0.01": 1.58488664599,
			"-0.009": 1.82283397762,
			"-0.008": 1.43495248526,
			"-0.007": 2.34212631087,
			"-0.006": 4.44704727999,
			"-0.005": 8.41925625818,
			"-0.004": 8.9464448849,
			"-0.003": 10.4222883196,
			"-0.002": 8.7735824645,
			"-0.001": 10.4749844161,
			"0.0": 10.4405862223,
			"0.001": 9.58976549328,
			"0.002": 7.75074106375,
			"0.003": 9.18670703644,
			"0.004": 8.69982346938,
			"0.005": 4.63367957392,
			"0.006": 4.3591038678,
			"0.007": 3.62308335399,
			"0.008": 4.49137572152,
			"0.009": 3.3475284878,
			"0.01": 4.26831387195,
			"0.011": 4.22710027194,
			"0.012": 2.16177967717,
			"0.013": 0.952691693576,
			"0.014": 2.10000824698,
			"0.015": 1.17646258077,
			"0.016": 0.405036407289,
			"0.017": 0.0,
			"0.018": 0.0,
			"0.019": 0.0,
			"0.02": 0.0,
			"0.021": 0.0,
			"0.022": 0.0,
			"0.023": 0.0,
			"0.024": 0.0,
			"0.025": 0.0
		}
	}
}
