{
	 "smiles": "[O-][N+](=O)C1=CC=CC=C1CBr", 
	 "Tm": 320.15, 
	 "num_atms": 17, 
	 "gaussian": { 
		 "optdone": 1, 
		 "sigma_profile": "yes", 
		 "theory": "DFT", 
		 "functional": "B3LYP", 
		 "basiset": "6-31G**", 
		 "properties": { 
			 "R2extent": 2829.7555, 
			 "electric_dipole_moment_norm": 5.10146869637, 
			 "electric_quadrupole_moment_norm": 8.37523702948, 
			 "total_energy": -3046.86179039, 
			 "HOMO_LUMO_gap": 0.17255, 
			 "cosmo_polarized_energy": -10.51, 
			 "cosmo_cavitation_energy": 23.76, 
			 "cosmo_dispersion_energy": -17.8, 
			 "cosmo_repulsion_energy": 1.43, 
			 "cosmo_total_nonelectrostatic_energy": 7.38, 
			 "SMD_solvation_energy": 4.92 
		},
		"coords": [
			{
				"x": 0.3308099821,
				"y": 2.6500735563,
				"z": 2.4491920511,
				"element": "O" 
			},
			{
				"x": -0.3432815201,
				"y": 1.8466564229,
				"z": 1.8059187959,
				"element": "N" 
			},
			{
				"x": -1.5623768219,
				"y": 1.7251342084,
				"z": 1.9209615997,
				"element": "O" 
			},
			{
				"x": 0.3658392073,
				"y": 0.9845172141,
				"z": 0.8356577001,
				"element": "C" 
			},
			{
				"x": 1.7197840765,
				"y": 1.2723739083,
				"z": 0.647958612,
				"element": "C" 
			},
			{
				"x": 2.4760949192,
				"y": 0.5204698166,
				"z": -0.2435734485,
				"element": "C" 
			},
			{
				"x": 1.8737333976,
				"y": -0.5280320267,
				"z": -0.9400816994,
				"element": "C" 
			},
			{
				"x": 0.5255544491,
				"y": -0.8101934834,
				"z": -0.7389513395,
				"element": "C" 
			},
			{
				"x": -0.2724548607,
				"y": -0.068856426,
				"z": 0.1470243384,
				"element": "C" 
			},
			{
				"x": -1.7089842919,
				"y": -0.4782027307,
				"z": 0.2810654793,
				"element": "C" 
			},
			{
				"x": -2.8726766219,
				"y": 0.55179641,
				"z": -0.9694530197,
				"element": "Br" 
			},
			{
				"x": 2.1536837837,
				"y": 2.0882019703,
				"z": 1.2109955606,
				"element": "H" 
			},
			{
				"x": 3.5261405557,
				"y": 0.7517350351,
				"z": -0.3898248219,
				"element": "H" 
			},
			{
				"x": 2.451140693,
				"y": -1.1265645899,
				"z": -1.6379990686,
				"element": "H" 
			},
			{
				"x": 0.0616323074,
				"y": -1.6253830003,
				"z": -1.286474598,
				"element": "H" 
			},
			{
				"x": -2.1286595069,
				"y": -0.2961293081,
				"z": 1.2624784596,
				"element": "H" 
			},
			{
				"x": -1.8389797483,
				"y": -1.5155969771,
				"z": -0.0204946013,
				"element": "H" 
			}
		],
		 "valence_orbital": [ 
			{
				"type": "occ",
				"energy": -0.29735,
				"method": "rhf"
			},
			{
				"type": "occ",
				"energy": -0.28853,
				"method": "rhf"
			},
			{
				"type": "occ",
				"energy": -0.28546,
				"method": "rhf"
			},
			{
				"type": "occ",
				"energy": -0.27239,
				"method": "rhf"
			},
			{
				"type": "occ",
				"energy": -0.26973,
				"method": "rhf"
			},
			{
				"type": "unocc",
				"energy": -0.09718,
				"method": "rhf"
			},
			{
				"type": "unocc",
				"energy": -0.04993,
				"method": "rhf"
			},
			{
				"type": "unocc",
				"energy": -0.01165,
				"method": "rhf"
			},
			{
				"type": "unocc",
				"energy": 0.01615,
				"method": "rhf"
			},
			{
				"type": "unocc",
				"energy": 0.07023,
				"method": "rhf"
			}
		],
		"cosmo_sigma_profile": { 
			"-0.025": 0.0,
			"-0.024": 0.0,
			"-0.023": 0.0,
			"-0.022": 0.0,
			"-0.021": 0.0,
			"-0.02": 0.0,
			"-0.019": 0.0,
			"-0.018": 0.0,
			"-0.017": 0.0,
			"-0.016": 0.0,
			"-0.015": 0.0,
			"-0.014": 0.0,
			"-0.013": 0.0,
			"-0.012": 0.0,
			"-0.011": 0.0,
			"-0.01": 0.0,
			"-0.009": 1.54013578309,
			"-0.008": 5.81332676445,
			"-0.007": 13.2425438641,
			"-0.006": 14.7533976902,
			"-0.005": 11.488696426,
			"-0.004": 10.689641862,
			"-0.003": 9.99618399232,
			"-0.002": 10.3442852562,
			"-0.001": 11.4043287207,
			"0.0": 14.7602209467,
			"0.001": 15.6743364344,
			"0.002": 14.1053013454,
			"0.003": 6.91851812873,
			"0.004": 8.1514844566,
			"0.005": 10.1868736219,
			"0.006": 12.1833277831,
			"0.007": 8.53942208364,
			"0.008": 7.29690533787,
			"0.009": 4.30853927073,
			"0.01": 2.42610764847,
			"0.011": 0.0813464503528,
			"0.012": 0.0,
			"0.013": 0.0,
			"0.014": 0.0,
			"0.015": 0.0,
			"0.016": 0.0,
			"0.017": 0.0,
			"0.018": 0.0,
			"0.019": 0.0,
			"0.02": 0.0,
			"0.021": 0.0,
			"0.022": 0.0,
			"0.023": 0.0,
			"0.024": 0.0,
			"0.025": 0.0
		}
	}
}
