{
	 "smiles": "COC1=C(OC)C=C(C=C1)C(C)(NC(=O)C(F)(F)F)C#N", 
	 "Tm": 419.15, 
	 "num_atms": 34, 
	 "gaussian": { 
		 "optdone": 1, 
		 "sigma_profile": "yes", 
		 "theory": "DFT", 
		 "functional": "B3LYP", 
		 "basiset": "6-31G**", 
		 "properties": { 
			 "R2extent": 5903.222, 
			 "electric_dipole_moment_norm": 4.6861343664, 
			 "electric_quadrupole_moment_norm": 16.7952608581, 
			 "total_energy": -1137.8567425, 
			 "HOMO_LUMO_gap": 0.19683, 
			 "cosmo_polarized_energy": -18.6, 
			 "cosmo_cavitation_energy": 39.55, 
			 "cosmo_dispersion_energy": -25.5, 
			 "cosmo_repulsion_energy": 1.94, 
			 "cosmo_total_nonelectrostatic_energy": 15.98, 
			 "SMD_solvation_energy": 11.19 
		},
		"coords": [
			{
				"x": -2.2611388879,
				"y": 4.4543754518,
				"z": -1.1551292266,
				"element": "C" 
			},
			{
				"x": -2.4178422736,
				"y": 3.9051465224,
				"z": 0.1578340896,
				"element": "O" 
			},
			{
				"x": -1.7455571997,
				"y": 2.7400706847,
				"z": 0.4140769591,
				"element": "C" 
			},
			{
				"x": -2.0938466616,
				"y": 1.5214668946,
				"z": -0.2160410739,
				"element": "C" 
			},
			{
				"x": -3.1025371339,
				"y": 1.5836548472,
				"z": -1.1307763276,
				"element": "O" 
			},
			{
				"x": -3.4455851669,
				"y": 0.3987628317,
				"z": -1.8358977267,
				"element": "C" 
			},
			{
				"x": -1.4148397868,
				"y": 0.3514526189,
				"z": 0.127589593,
				"element": "C" 
			},
			{
				"x": -0.3882696918,
				"y": 0.3742924985,
				"z": 1.0822062643,
				"element": "C" 
			},
			{
				"x": -0.0520395774,
				"y": 1.5725932779,
				"z": 1.7077910182,
				"element": "C" 
			},
			{
				"x": -0.7322600878,
				"y": 2.7442686911,
				"z": 1.3666531198,
				"element": "C" 
			},
			{
				"x": 0.2595957023,
				"y": -0.9542590762,
				"z": 1.5043890556,
				"element": "C" 
			},
			{
				"x": -0.6672535714,
				"y": -1.6586742009,
				"z": 2.5323063702,
				"element": "C" 
			},
			{
				"x": 0.4240221461,
				"y": -1.9110639389,
				"z": 0.3892943717,
				"element": "N" 
			},
			{
				"x": 1.1279450761,
				"y": -1.8916921436,
				"z": -0.7894136525,
				"element": "C" 
			},
			{
				"x": 1.2466567144,
				"y": -2.8901848933,
				"z": -1.4740983195,
				"element": "O" 
			},
			{
				"x": 1.7136456733,
				"y": -0.5616989921,
				"z": -1.3263860462,
				"element": "C" 
			},
			{
				"x": 2.1665786594,
				"y": 0.2525279682,
				"z": -0.3540017018,
				"element": "F" 
			},
			{
				"x": 2.726577028,
				"y": -0.8249881128,
				"z": -2.1521505317,
				"element": "F" 
			},
			{
				"x": 0.7639091909,
				"y": 0.0993655959,
				"z": -2.0200565991,
				"element": "F" 
			},
			{
				"x": 1.5648818049,
				"y": -0.7428274417,
				"z": 2.1821629713,
				"element": "C" 
			},
			{
				"x": 2.5649627706,
				"y": -0.6282763601,
				"z": 2.7589451182,
				"element": "N" 
			},
			{
				"x": -2.8135118084,
				"y": 5.3959465761,
				"z": -1.1545582009,
				"element": "H" 
			},
			{
				"x": -2.6698948893,
				"y": 3.7895650337,
				"z": -1.9207476397,
				"element": "H" 
			},
			{
				"x": -1.2037906905,
				"y": 4.655895815,
				"z": -1.3688097305,
				"element": "H" 
			},
			{
				"x": -4.237413339,
				"y": 0.6820793987,
				"z": -2.5303775062,
				"element": "H" 
			},
			{
				"x": -2.5905364703,
				"y": 0.0041088179,
				"z": -2.3988473762,
				"element": "H" 
			},
			{
				"x": -3.8227550807,
				"y": -0.3781055468,
				"z": -1.1587484417,
				"element": "H" 
			},
			{
				"x": -1.6695765063,
				"y": -0.5841551249,
				"z": -0.3536838652,
				"element": "H" 
			},
			{
				"x": 0.744826854,
				"y": 1.6076321067,
				"z": 2.4431454778,
				"element": "H" 
			},
			{
				"x": -0.4834974272,
				"y": 3.6898712865,
				"z": 1.8370630041,
				"element": "H" 
			},
			{
				"x": -0.2270181327,
				"y": -2.5999699488,
				"z": 2.8767373568,
				"element": "H" 
			},
			{
				"x": -0.8176720863,
				"y": -1.0076985855,
				"z": 3.3945180219,
				"element": "H" 
			},
			{
				"x": -1.6373982062,
				"y": -1.8521226965,
				"z": 2.0677064051,
				"element": "H" 
			},
			{
				"x": 0.1395330556,
				"y": -2.8610598553,
				"z": 0.5993047692,
				"element": "H" 
			}
		],
		 "valence_orbital": [ 
			{
				"type": "occ",
				"energy": -0.29527,
				"method": "rhf"
			},
			{
				"type": "occ",
				"energy": -0.28924,
				"method": "rhf"
			},
			{
				"type": "occ",
				"energy": -0.28343,
				"method": "rhf"
			},
			{
				"type": "occ",
				"energy": -0.25373,
				"method": "rhf"
			},
			{
				"type": "occ",
				"energy": -0.22806,
				"method": "rhf"
			},
			{
				"type": "unocc",
				"energy": -0.03123,
				"method": "rhf"
			},
			{
				"type": "unocc",
				"energy": -0.01913,
				"method": "rhf"
			},
			{
				"type": "unocc",
				"energy": -0.00612,
				"method": "rhf"
			},
			{
				"type": "unocc",
				"energy": 0.01719,
				"method": "rhf"
			},
			{
				"type": "unocc",
				"energy": 0.02572,
				"method": "rhf"
			}
		],
		"cosmo_sigma_profile": { 
			"-0.025": 0.0,
			"-0.024": 0.0,
			"-0.023": 0.0,
			"-0.022": 0.0,
			"-0.021": 0.0,
			"-0.02": 0.0,
			"-0.019": 0.0,
			"-0.018": 0.0,
			"-0.017": 0.0,
			"-0.016": 0.289545832129,
			"-0.015": 0.777401134259,
			"-0.014": 0.949741161328,
			"-0.013": 1.49763557806,
			"-0.012": 1.32817840396,
			"-0.011": 1.154031534,
			"-0.01": 1.1539205821,
			"-0.009": 1.60507585816,
			"-0.008": 2.92757848983,
			"-0.007": 6.69059633771,
			"-0.006": 19.496262532,
			"-0.005": 24.5877407567,
			"-0.004": 25.4056301996,
			"-0.003": 29.3728758478,
			"-0.002": 22.9676233062,
			"-0.001": 18.2754570602,
			"0.0": 13.8720091137,
			"0.001": 23.7648208996,
			"0.002": 31.1175931074,
			"0.003": 19.5711382783,
			"0.004": 13.4950790426,
			"0.005": 6.05471280819,
			"0.006": 5.38666419602,
			"0.007": 6.43825822622,
			"0.008": 7.29550204496,
			"0.009": 6.71966523705,
			"0.01": 8.96010108186,
			"0.011": 9.48482597621,
			"0.012": 3.73555962295,
			"0.013": 0.325223895689,
			"0.014": 0.0,
			"0.015": 0.0,
			"0.016": 0.0,
			"0.017": 0.0,
			"0.018": 0.0,
			"0.019": 0.0,
			"0.02": 0.0,
			"0.021": 0.0,
			"0.022": 0.0,
			"0.023": 0.0,
			"0.024": 0.0,
			"0.025": 0.0
		}
	}
}
