{
	 "smiles": "NCC1(O)CCS(=O)(=O)CC1", 
	 "Tm": 449.15, 
	 "num_atms": 24, 
	 "gaussian": { 
		 "optdone": 1, 
		 "sigma_profile": "yes", 
		 "theory": "DFT", 
		 "functional": "B3LYP", 
		 "basiset": "6-31G**", 
		 "properties": { 
			 "R2extent": 2487.906, 
			 "electric_dipole_moment_norm": 6.41260338162, 
			 "electric_quadrupole_moment_norm": 22.0680049168, 
			 "total_energy": -915.024335055, 
			 "HOMO_LUMO_gap": 0.30277, 
			 "cosmo_polarized_energy": -22.0, 
			 "cosmo_cavitation_energy": 25.84, 
			 "cosmo_dispersion_energy": -19.81, 
			 "cosmo_repulsion_energy": 1.53, 
			 "cosmo_total_nonelectrostatic_energy": 7.56, 
			 "SMD_solvation_energy": 2.54 
		},
		"coords": [
			{
				"x": 1.4574340243,
				"y": -2.182383887,
				"z": -0.5755200368,
				"element": "N" 
			},
			{
				"x": 0.3037113733,
				"y": -1.2743241742,
				"z": -0.669350507,
				"element": "C" 
			},
			{
				"x": 0.4447668807,
				"y": -0.1610636603,
				"z": 0.400827365,
				"element": "C" 
			},
			{
				"x": 0.7298631934,
				"y": -0.7968906621,
				"z": 1.6364471822,
				"element": "O" 
			},
			{
				"x": -0.8791873888,
				"y": 0.5974026226,
				"z": 0.6145380419,
				"element": "C" 
			},
			{
				"x": -1.3342988078,
				"y": 1.4558260943,
				"z": -0.570731046,
				"element": "C" 
			},
			{
				"x": -0.1056809463,
				"y": 2.7301263065,
				"z": -0.9812028432,
				"element": "S" 
			},
			{
				"x": 0.0688102759,
				"y": 3.5883707276,
				"z": 0.2039779415,
				"element": "O" 
			},
			{
				"x": -0.4407875139,
				"y": 3.3147946315,
				"z": -2.2897801078,
				"element": "O" 
			},
			{
				"x": 1.3889047308,
				"y": 1.7110289468,
				"z": -1.1541783367,
				"element": "C" 
			},
			{
				"x": 1.6014274867,
				"y": 0.8219369734,
				"z": 0.0770656906,
				"element": "C" 
			},
			{
				"x": 1.2124545916,
				"y": -3.1152986359,
				"z": -0.8899888381,
				"element": "H" 
			},
			{
				"x": 2.2275564805,
				"y": -1.8672526554,
				"z": -1.1577541126,
				"element": "H" 
			},
			{
				"x": -0.5940001628,
				"y": -1.8508163052,
				"z": -0.4237003335,
				"element": "H" 
			},
			{
				"x": 0.1563909072,
				"y": -0.8569647787,
				"z": -1.6761923423,
				"element": "H" 
			},
			{
				"x": 1.3142816053,
				"y": -1.5391262226,
				"z": 1.3919764744,
				"element": "H" 
			},
			{
				"x": -1.663876275,
				"y": -0.1289538232,
				"z": 0.8539122592,
				"element": "H" 
			},
			{
				"x": -0.760054358,
				"y": 1.236521603,
				"z": 1.4948214149,
				"element": "H" 
			},
			{
				"x": -2.2488414216,
				"y": 2.0109747828,
				"z": -0.3433203077,
				"element": "H" 
			},
			{
				"x": -1.5025779064,
				"y": 0.8823362273,
				"z": -1.4867994977,
				"element": "H" 
			},
			{
				"x": 2.204198685,
				"y": 2.4278751228,
				"z": -1.2886893133,
				"element": "H" 
			},
			{
				"x": 1.2710027995,
				"y": 1.149253658,
				"z": -2.0856086961,
				"element": "H" 
			},
			{
				"x": 2.5302934017,
				"y": 0.253228356,
				"z": -0.0518929528,
				"element": "H" 
			},
			{
				"x": 1.7460083449,
				"y": 1.4554987521,
				"z": 0.9569429021,
				"element": "H" 
			}
		],
		 "valence_orbital": [ 
			{
				"type": "occ",
				"energy": -0.30593,
				"method": "rhf"
			},
			{
				"type": "occ",
				"energy": -0.28964,
				"method": "rhf"
			},
			{
				"type": "occ",
				"energy": -0.28094,
				"method": "rhf"
			},
			{
				"type": "occ",
				"energy": -0.27503,
				"method": "rhf"
			},
			{
				"type": "occ",
				"energy": -0.26254,
				"method": "rhf"
			},
			{
				"type": "unocc",
				"energy": 0.04023,
				"method": "rhf"
			},
			{
				"type": "unocc",
				"energy": 0.06716,
				"method": "rhf"
			},
			{
				"type": "unocc",
				"energy": 0.07028,
				"method": "rhf"
			},
			{
				"type": "unocc",
				"energy": 0.08048,
				"method": "rhf"
			},
			{
				"type": "unocc",
				"energy": 0.09047,
				"method": "rhf"
			}
		],
		"cosmo_sigma_profile": { 
			"-0.025": 0.0,
			"-0.024": 0.0,
			"-0.023": 0.0,
			"-0.022": 0.0,
			"-0.021": 0.0,
			"-0.02": 0.0,
			"-0.019": 0.0,
			"-0.018": 0.0,
			"-0.017": 0.0,
			"-0.016": 0.0,
			"-0.015": 0.0,
			"-0.014": 0.0,
			"-0.013": 0.0,
			"-0.012": 0.0812530535508,
			"-0.011": 1.58523081362,
			"-0.01": 4.22174638386,
			"-0.009": 5.62503900721,
			"-0.008": 12.1551729625,
			"-0.007": 12.3692043083,
			"-0.006": 11.1855279537,
			"-0.005": 16.806566565,
			"-0.004": 20.170679375,
			"-0.003": 13.3947576673,
			"-0.002": 12.1051557425,
			"-0.001": 9.39813218239,
			"0.0": 6.41099255787,
			"0.001": 5.08636720426,
			"0.002": 5.61046320832,
			"0.003": 5.15121643899,
			"0.004": 3.36715779538,
			"0.005": 3.57210767595,
			"0.006": 4.41870045793,
			"0.007": 3.74381705825,
			"0.008": 3.50695722703,
			"0.009": 4.62435611278,
			"0.01": 5.63753471474,
			"0.011": 9.1788333209,
			"0.012": 12.2071269049,
			"0.013": 5.26946336609,
			"0.014": 2.36180243336,
			"0.015": 0.609907435232,
			"0.016": 0.0,
			"0.017": 0.0,
			"0.018": 0.0,
			"0.019": 0.0,
			"0.02": 0.0,
			"0.021": 0.0,
			"0.022": 0.0,
			"0.023": 0.0,
			"0.024": 0.0,
			"0.025": 0.0
		}
	}
}
