{
	 "smiles": "CC12CCC3C(CCC4CCCCC34C)C1CCC2(O)C#C", 
	 "Tm": 428.15, 
	 "num_atms": 54, 
	 "gaussian": { 
		 "optdone": 1, 
		 "sigma_profile": "yes", 
		 "theory": "DFT", 
		 "functional": "B3LYP", 
		 "basiset": "6-31G**", 
		 "properties": { 
			 "R2extent": 7553.8247, 
			 "electric_dipole_moment_norm": 1.18115361406, 
			 "electric_quadrupole_moment_norm": 8.60529025251, 
			 "total_energy": -894.676742774, 
			 "HOMO_LUMO_gap": 0.28787, 
			 "cosmo_polarized_energy": -7.03, 
			 "cosmo_cavitation_energy": 45.53, 
			 "cosmo_dispersion_energy": -31.67, 
			 "cosmo_repulsion_energy": 2.32, 
			 "cosmo_total_nonelectrostatic_energy": 16.19, 
			 "SMD_solvation_energy": 7.29 
		},
		"coords": [
			{
				"x": -0.7862845675,
				"y": 2.9241093465,
				"z": -0.3486152833,
				"element": "C" 
			},
			{
				"x": -1.1688856895,
				"y": 1.7512818333,
				"z": -1.2790940276,
				"element": "C" 
			},
			{
				"x": -2.1978720137,
				"y": 0.8281605137,
				"z": -0.5631677313,
				"element": "C" 
			},
			{
				"x": -1.5782268075,
				"y": -0.5102459194,
				"z": -0.0874862797,
				"element": "C" 
			},
			{
				"x": -0.1578921947,
				"y": -0.3079686655,
				"z": 0.4739946919,
				"element": "C" 
			},
			{
				"x": 0.8107966151,
				"y": 0.1539983134,
				"z": -0.652448566,
				"element": "C" 
			},
			{
				"x": 2.0364989968,
				"y": 0.8538498842,
				"z": -0.0273649029,
				"element": "C" 
			},
			{
				"x": 2.3650523944,
				"y": 0.2563398194,
				"z": 1.3573155421,
				"element": "C" 
			},
			{
				"x": 2.0027299723,
				"y": -1.2356323407,
				"z": 1.5032930502,
				"element": "C" 
			},
			{
				"x": 2.4952013586,
				"y": -1.7310022209,
				"z": 2.886481974,
				"element": "C" 
			},
			{
				"x": 1.8202199728,
				"y": -3.0216838228,
				"z": 3.3605645473,
				"element": "C" 
			},
			{
				"x": 0.2861072776,
				"y": -2.8382171063,
				"z": 3.4779434669,
				"element": "C" 
			},
			{
				"x": -0.2360915572,
				"y": -1.6560200938,
				"z": 2.6325181744,
				"element": "C" 
			},
			{
				"x": 0.4601975571,
				"y": -1.5137404149,
				"z": 1.2575911711,
				"element": "C" 
			},
			{
				"x": 0.2842933347,
				"y": -2.8199218291,
				"z": 0.4513127673,
				"element": "C" 
			},
			{
				"x": 0.0466397607,
				"y": 0.9170813118,
				"z": -1.7596622149,
				"element": "C" 
			},
			{
				"x": 0.8141322872,
				"y": 1.8462919668,
				"z": -2.7237079867,
				"element": "C" 
			},
			{
				"x": -0.2858539577,
				"y": 2.7514578351,
				"z": -3.3475173154,
				"element": "C" 
			},
			{
				"x": -1.6353953432,
				"y": 2.3560968842,
				"z": -2.6535420944,
				"element": "C" 
			},
			{
				"x": -2.4897625526,
				"y": 3.4776680271,
				"z": -2.4181923191,
				"element": "O" 
			},
			{
				"x": -2.3538996771,
				"y": 1.3719720314,
				"z": -3.485085348,
				"element": "C" 
			},
			{
				"x": -2.951907496,
				"y": 0.6152659321,
				"z": -4.2147633267,
				"element": "C" 
			},
			{
				"x": -0.0158756644,
				"y": 3.5736036991,
				"z": -0.7738981238,
				"element": "H" 
			},
			{
				"x": -0.4172549224,
				"y": 2.5530864159,
				"z": 0.6101233427,
				"element": "H" 
			},
			{
				"x": -1.6660518268,
				"y": 3.5423685664,
				"z": -0.1561761255,
				"element": "H" 
			},
			{
				"x": -2.6103446413,
				"y": 1.3587214928,
				"z": 0.3026131231,
				"element": "H" 
			},
			{
				"x": -3.0442255695,
				"y": 0.6136625946,
				"z": -1.2228678744,
				"element": "H" 
			},
			{
				"x": -2.2386015804,
				"y": -0.9549629369,
				"z": 0.6653005677,
				"element": "H" 
			},
			{
				"x": -1.5500228018,
				"y": -1.220689695,
				"z": -0.9225618026,
				"element": "H" 
			},
			{
				"x": -0.2364407575,
				"y": 0.513124824,
				"z": 1.2003006988,
				"element": "H" 
			},
			{
				"x": 1.1917022018,
				"y": -0.7565137417,
				"z": -1.1341477133,
				"element": "H" 
			},
			{
				"x": 1.8647962682,
				"y": 1.9304492387,
				"z": 0.0805294337,
				"element": "H" 
			},
			{
				"x": 2.8973583796,
				"y": 0.7484758203,
				"z": -0.699031564,
				"element": "H" 
			},
			{
				"x": 3.4298334769,
				"y": 0.3925671094,
				"z": 1.5832168112,
				"element": "H" 
			},
			{
				"x": 1.8284757635,
				"y": 0.8146313173,
				"z": 2.1359933518,
				"element": "H" 
			},
			{
				"x": 2.5586027156,
				"y": -1.7921131303,
				"z": 0.7347887382,
				"element": "H" 
			},
			{
				"x": 3.5841492079,
				"y": -1.8584086634,
				"z": 2.8537559686,
				"element": "H" 
			},
			{
				"x": 2.3096525298,
				"y": -0.9450986137,
				"z": 3.632532842,
				"element": "H" 
			},
			{
				"x": 2.2408098904,
				"y": -3.3317473887,
				"z": 4.3240441152,
				"element": "H" 
			},
			{
				"x": 2.0560316941,
				"y": -3.8305420678,
				"z": 2.6583693157,
				"element": "H" 
			},
			{
				"x": -0.2213696063,
				"y": -3.7637017037,
				"z": 3.1836034658,
				"element": "H" 
			},
			{
				"x": 0.0089824385,
				"y": -2.6641927467,
				"z": 4.5244087752,
				"element": "H" 
			},
			{
				"x": -0.0887394328,
				"y": -0.7205274216,
				"z": 3.1886935681,
				"element": "H" 
			},
			{
				"x": -1.3195212481,
				"y": -1.7568833273,
				"z": 2.5005334756,
				"element": "H" 
			},
			{
				"x": 0.8132633101,
				"y": -3.6562691751,
				"z": 0.9143879679,
				"element": "H" 
			},
			{
				"x": 0.6771514927,
				"y": -2.7199652165,
				"z": -0.5661954105,
				"element": "H" 
			},
			{
				"x": -0.7707841282,
				"y": -3.1023013006,
				"z": 0.3725989916,
				"element": "H" 
			},
			{
				"x": -0.3965099903,
				"y": 0.1388430573,
				"z": -2.3946858455,
				"element": "H" 
			},
			{
				"x": 1.5518379757,
				"y": 2.45512236,
				"z": -2.1929037627,
				"element": "H" 
			},
			{
				"x": 1.3618378391,
				"y": 1.2773722967,
				"z": -3.481628204,
				"element": "H" 
			},
			{
				"x": -0.3553570376,
				"y": 2.6443454804,
				"z": -4.4331478765,
				"element": "H" 
			},
			{
				"x": -0.1090850815,
				"y": 3.8091573437,
				"z": -3.1328189182,
				"element": "H" 
			},
			{
				"x": -2.8777333579,
				"y": 3.731984186,
				"z": -3.2658451697,
				"element": "H" 
			},
			{
				"x": -3.4810652077,
				"y": -0.061839959,
				"z": -4.8447541512,
				"element": "H" 
			}
		],
		 "valence_orbital": [ 
			{
				"type": "occ",
				"energy": -0.27307,
				"method": "rhf"
			},
			{
				"type": "occ",
				"energy": -0.26682,
				"method": "rhf"
			},
			{
				"type": "occ",
				"energy": -0.264,
				"method": "rhf"
			},
			{
				"type": "occ",
				"energy": -0.26279,
				"method": "rhf"
			},
			{
				"type": "occ",
				"energy": -0.25374,
				"method": "rhf"
			},
			{
				"type": "unocc",
				"energy": 0.03413,
				"method": "rhf"
			},
			{
				"type": "unocc",
				"energy": 0.0527,
				"method": "rhf"
			},
			{
				"type": "unocc",
				"energy": 0.07199,
				"method": "rhf"
			},
			{
				"type": "unocc",
				"energy": 0.08469,
				"method": "rhf"
			},
			{
				"type": "unocc",
				"energy": 0.08619,
				"method": "rhf"
			}
		],
		"cosmo_sigma_profile": { 
			"-0.025": 0.0,
			"-0.024": 0.0,
			"-0.023": 0.0,
			"-0.022": 0.0,
			"-0.021": 0.0,
			"-0.02": 0.0,
			"-0.019": 0.0,
			"-0.018": 0.0,
			"-0.017": 0.0,
			"-0.016": 0.0332134227014,
			"-0.015": 1.31029573646,
			"-0.014": 0.366029992305,
			"-0.013": 0.601766383457,
			"-0.012": 1.04148608304,
			"-0.011": 2.2783210922,
			"-0.01": 1.98639027727,
			"-0.009": 1.52421089961,
			"-0.008": 1.86439650814,
			"-0.007": 1.90702529159,
			"-0.006": 1.60750238584,
			"-0.005": 2.29591128293,
			"-0.004": 2.51261635166,
			"-0.003": 13.8313390576,
			"-0.002": 42.070538827,
			"-0.001": 71.7617407978,
			"0.0": 70.701069445,
			"0.001": 56.4237938326,
			"0.002": 32.1262528668,
			"0.003": 8.70738125767,
			"0.004": 8.82350356617,
			"0.005": 7.865586419,
			"0.006": 5.7604274779,
			"0.007": 2.87021205025,
			"0.008": 2.2608587589,
			"0.009": 1.84555156603,
			"0.01": 1.25498537097,
			"0.011": 1.77538488884,
			"0.012": 1.53155488238,
			"0.013": 0.294122697874,
			"0.014": 0.0,
			"0.015": 0.0,
			"0.016": 0.0,
			"0.017": 0.0,
			"0.018": 0.0,
			"0.019": 0.0,
			"0.02": 0.0,
			"0.021": 0.0,
			"0.022": 0.0,
			"0.023": 0.0,
			"0.024": 0.0,
			"0.025": 0.0
		}
	}
}
