{
	 "smiles": "BrCC(=O)C1=CC=C(C=C1)S(=O)(=O)N1CCCC1", 
	 "Tm": 395.15, 
	 "num_atms": 32, 
	 "gaussian": { 
		 "optdone": 1, 
		 "sigma_profile": "yes", 
		 "theory": "DFT", 
		 "functional": "B3LYP", 
		 "basiset": "6-31G**", 
		 "properties": { 
			 "R2extent": 9243.5449, 
			 "electric_dipole_moment_norm": 3.60258762697, 
			 "electric_quadrupole_moment_norm": 30.0132351822, 
			 "total_energy": -3715.65571831, 
			 "HOMO_LUMO_gap": 0.1611, 
			 "cosmo_polarized_energy": -17.46, 
			 "cosmo_cavitation_energy": 38.33, 
			 "cosmo_dispersion_energy": -27.84, 
			 "cosmo_repulsion_energy": 2.14, 
			 "cosmo_total_nonelectrostatic_energy": 12.63, 
			 "SMD_solvation_energy": 3.8 
		},
		"coords": [
			{
				"x": 0.4057065987,
				"y": -4.2338806466,
				"z": 3.6383476576,
				"element": "Br" 
			},
			{
				"x": -1.0441357803,
				"y": -4.7477454392,
				"z": 2.391472115,
				"element": "C" 
			},
			{
				"x": -1.8898972653,
				"y": -3.5366010434,
				"z": 2.0120103157,
				"element": "C" 
			},
			{
				"x": -3.0145560907,
				"y": -3.4426434063,
				"z": 2.4747431861,
				"element": "O" 
			},
			{
				"x": -1.3524461818,
				"y": -2.5177312243,
				"z": 1.0565223813,
				"element": "C" 
			},
			{
				"x": -0.0657179433,
				"y": -2.591104454,
				"z": 0.5013696949,
				"element": "C" 
			},
			{
				"x": 0.3675464155,
				"y": -1.6236608696,
				"z": -0.403551724,
				"element": "C" 
			},
			{
				"x": -0.4914070411,
				"y": -0.5779513044,
				"z": -0.7510599883,
				"element": "C" 
			},
			{
				"x": -1.7827016944,
				"y": -0.4958419863,
				"z": -0.2168639331,
				"element": "C" 
			},
			{
				"x": -2.2053449974,
				"y": -1.4648435319,
				"z": 0.6857356701,
				"element": "C" 
			},
			{
				"x": 0.0900234337,
				"y": 0.7115964065,
				"z": -1.8697248677,
				"element": "S" 
			},
			{
				"x": -1.0929084721,
				"y": 1.2725793787,
				"z": -2.5245340327,
				"element": "O" 
			},
			{
				"x": 1.2176989441,
				"y": 0.1502094068,
				"z": -2.6153358621,
				"element": "O" 
			},
			{
				"x": 0.709381835,
				"y": 1.9086976269,
				"z": -0.902173696,
				"element": "N" 
			},
			{
				"x": 2.0212934396,
				"y": 1.7422969873,
				"z": -0.2310051496,
				"element": "C" 
			},
			{
				"x": 1.9426380857,
				"y": 2.7212910645,
				"z": 0.9584596937,
				"element": "C" 
			},
			{
				"x": 0.8412025931,
				"y": 3.7204383033,
				"z": 0.5600949823,
				"element": "C" 
			},
			{
				"x": -0.1744734418,
				"y": 2.8399419943,
				"z": -0.1754812825,
				"element": "C" 
			},
			{
				"x": -1.6705173443,
				"y": -5.4548995863,
				"z": 2.9289702254,
				"element": "H" 
			},
			{
				"x": -0.5581797539,
				"y": -5.2209448808,
				"z": 1.538617036,
				"element": "H" 
			},
			{
				"x": 0.6115448834,
				"y": -3.3909876407,
				"z": 0.7790235658,
				"element": "H" 
			},
			{
				"x": 1.3490495013,
				"y": -1.6857679924,
				"z": -0.8599497484,
				"element": "H" 
			},
			{
				"x": -2.4467195648,
				"y": 0.3008380608,
				"z": -0.533530851,
				"element": "H" 
			},
			{
				"x": -3.2020839761,
				"y": -1.4351353464,
				"z": 1.1122787918,
				"element": "H" 
			},
			{
				"x": 2.8205359373,
				"y": 1.9947556726,
				"z": -0.9336779468,
				"element": "H" 
			},
			{
				"x": 2.1811259121,
				"y": 0.7109563676,
				"z": 0.1029612049,
				"element": "H" 
			},
			{
				"x": 2.9044523311,
				"y": 3.2001142345,
				"z": 1.1589781274,
				"element": "H" 
			},
			{
				"x": 1.6448381031,
				"y": 2.1828753125,
				"z": 1.8647601885,
				"element": "H" 
			},
			{
				"x": 0.3994091219,
				"y": 4.2354415361,
				"z": 1.4171853027,
				"element": "H" 
			},
			{
				"x": 1.2381526563,
				"y": 4.4762446093,
				"z": -0.1257132412,
				"element": "H" 
			},
			{
				"x": -0.8225517368,
				"y": 2.3116840547,
				"z": 0.5412338463,
				"element": "H" 
			},
			{
				"x": -0.8050585077,
				"y": 3.3834783365,
				"z": -0.8804616621,
				"element": "H" 
			}
		],
		 "valence_orbital": [ 
			{
				"type": "occ",
				"energy": -0.29445,
				"method": "rhf"
			},
			{
				"type": "occ",
				"energy": -0.2847,
				"method": "rhf"
			},
			{
				"type": "occ",
				"energy": -0.28142,
				"method": "rhf"
			},
			{
				"type": "occ",
				"energy": -0.27142,
				"method": "rhf"
			},
			{
				"type": "occ",
				"energy": -0.25339,
				"method": "rhf"
			},
			{
				"type": "unocc",
				"energy": -0.09229,
				"method": "rhf"
			},
			{
				"type": "unocc",
				"energy": -0.03379,
				"method": "rhf"
			},
			{
				"type": "unocc",
				"energy": -0.03121,
				"method": "rhf"
			},
			{
				"type": "unocc",
				"energy": 0.02431,
				"method": "rhf"
			},
			{
				"type": "unocc",
				"energy": 0.05628,
				"method": "rhf"
			}
		],
		"cosmo_sigma_profile": { 
			"-0.025": 0.0,
			"-0.024": 0.0,
			"-0.023": 0.0,
			"-0.022": 0.0,
			"-0.021": 0.0,
			"-0.02": 0.0,
			"-0.019": 0.0,
			"-0.018": 0.0,
			"-0.017": 0.0,
			"-0.016": 0.0,
			"-0.015": 0.0,
			"-0.014": 0.0,
			"-0.013": 0.0,
			"-0.012": 0.0,
			"-0.011": 0.182555653392,
			"-0.01": 2.15456989023,
			"-0.009": 3.44350667872,
			"-0.008": 5.9414027375,
			"-0.007": 9.38111650841,
			"-0.006": 11.0090050798,
			"-0.005": 16.7145398109,
			"-0.004": 33.8341148845,
			"-0.003": 33.3790800072,
			"-0.002": 26.3004807678,
			"-0.001": 21.9644751879,
			"0.0": 22.8468438731,
			"0.001": 22.01779452,
			"0.002": 14.4670975639,
			"0.003": 11.4435853227,
			"0.004": 13.5299076402,
			"0.005": 13.2514419191,
			"0.006": 4.56997770141,
			"0.007": 5.25188938302,
			"0.008": 5.03266509386,
			"0.009": 5.96008504302,
			"0.01": 10.0686828507,
			"0.011": 10.6601903347,
			"0.012": 3.98159240481,
			"0.013": 0.0,
			"0.014": 0.0,
			"0.015": 0.0,
			"0.016": 0.0,
			"0.017": 0.0,
			"0.018": 0.0,
			"0.019": 0.0,
			"0.02": 0.0,
			"0.021": 0.0,
			"0.022": 0.0,
			"0.023": 0.0,
			"0.024": 0.0,
			"0.025": 0.0
		}
	}
}
