{
	 "smiles": "CCC1=C(C(O)=O)C(C)=NO1", 
	 "Tm": 400.15, 
	 "num_atms": 20, 
	 "gaussian": { 
		 "optdone": 1, 
		 "sigma_profile": "yes", 
		 "theory": "DFT", 
		 "functional": "B3LYP", 
		 "basiset": "6-31G**", 
		 "properties": { 
			 "R2extent": 1793.6873, 
			 "electric_dipole_moment_norm": 2.96598307649, 
			 "electric_quadrupole_moment_norm": 6.34486716882, 
			 "total_energy": -552.57621649, 
			 "HOMO_LUMO_gap": 0.22481, 
			 "cosmo_polarized_energy": -10.69, 
			 "cosmo_cavitation_energy": 24.31, 
			 "cosmo_dispersion_energy": -17.55, 
			 "cosmo_repulsion_energy": 1.43, 
			 "cosmo_total_nonelectrostatic_energy": 8.19, 
			 "SMD_solvation_energy": 5.41 
		},
		"coords": [
			{
				"x": 1.8234196673,
				"y": 0.97401716,
				"z": 2.2562568775,
				"element": "C" 
			},
			{
				"x": 0.478464667,
				"y": 0.2293700145,
				"z": 2.3664297147,
				"element": "C" 
			},
			{
				"x": -0.2748699808,
				"y": 0.2123425993,
				"z": 1.0762325988,
				"element": "C" 
			},
			{
				"x": -0.2383444929,
				"y": -0.5728229028,
				"z": -0.0546647989,
				"element": "C" 
			},
			{
				"x": 0.5857837663,
				"y": -1.7393287374,
				"z": -0.3616630514,
				"element": "C" 
			},
			{
				"x": 1.4633590781,
				"y": -2.0506509785,
				"z": 0.6321818085,
				"element": "O" 
			},
			{
				"x": 0.5248265733,
				"y": -2.3873077751,
				"z": -1.3894482769,
				"element": "O" 
			},
			{
				"x": -1.2257531826,
				"y": 0.0087476304,
				"z": -0.9230849635,
				"element": "C" 
			},
			{
				"x": -1.632321862,
				"y": -0.4249694098,
				"z": -2.294926568,
				"element": "C" 
			},
			{
				"x": -1.7954154398,
				"y": 1.047827869,
				"z": -0.3636046916,
				"element": "N" 
			},
			{
				"x": -1.1908385827,
				"y": 1.1742748156,
				"z": 0.9073341061,
				"element": "O" 
			},
			{
				"x": 1.6751919062,
				"y": 2.0087188531,
				"z": 1.9341165681,
				"element": "H" 
			},
			{
				"x": 2.4807997354,
				"y": 0.4767185762,
				"z": 1.5386090682,
				"element": "H" 
			},
			{
				"x": 2.3247312711,
				"y": 0.987242041,
				"z": 3.2285124974,
				"element": "H" 
			},
			{
				"x": 0.6555423815,
				"y": -0.8024715847,
				"z": 2.6788236472,
				"element": "H" 
			},
			{
				"x": -0.1564320604,
				"y": 0.7094162691,
				"z": 3.1178150306,
				"element": "H" 
			},
			{
				"x": 1.9447928258,
				"y": -2.8345591902,
				"z": 0.3188102167,
				"element": "H" 
			},
			{
				"x": -2.4115631419,
				"y": 0.2378090459,
				"z": -2.675915794,
				"element": "H" 
			},
			{
				"x": -2.0013911415,
				"y": -1.4540150562,
				"z": -2.2786351935,
				"element": "H" 
			},
			{
				"x": -0.7744819873,
				"y": -0.4097592395,
				"z": -2.9727787959,
				"element": "H" 
			}
		],
		 "valence_orbital": [ 
			{
				"type": "occ",
				"energy": -0.3276,
				"method": "rhf"
			},
			{
				"type": "occ",
				"energy": -0.3078,
				"method": "rhf"
			},
			{
				"type": "occ",
				"energy": -0.29295,
				"method": "rhf"
			},
			{
				"type": "occ",
				"energy": -0.28516,
				"method": "rhf"
			},
			{
				"type": "occ",
				"energy": -0.26464,
				"method": "rhf"
			},
			{
				"type": "unocc",
				"energy": -0.03983,
				"method": "rhf"
			},
			{
				"type": "unocc",
				"energy": 0.00146,
				"method": "rhf"
			},
			{
				"type": "unocc",
				"energy": 0.06783,
				"method": "rhf"
			},
			{
				"type": "unocc",
				"energy": 0.0915,
				"method": "rhf"
			},
			{
				"type": "unocc",
				"energy": 0.09874,
				"method": "rhf"
			}
		],
		"cosmo_sigma_profile": { 
			"-0.025": 0.0,
			"-0.024": 0.0,
			"-0.023": 0.0,
			"-0.022": 0.0,
			"-0.021": 0.0,
			"-0.02": 0.0,
			"-0.019": 0.0765018041015,
			"-0.018": 0.749442378382,
			"-0.017": 0.789100226676,
			"-0.016": 1.0043239421,
			"-0.015": 0.858771113166,
			"-0.014": 0.639763084607,
			"-0.013": 0.835498018463,
			"-0.012": 0.585318540185,
			"-0.011": 0.402105144047,
			"-0.01": 0.877863486032,
			"-0.009": 0.42034216592,
			"-0.008": 0.642496462496,
			"-0.007": 0.953712850828,
			"-0.006": 2.96715043408,
			"-0.005": 9.32473926555,
			"-0.004": 14.1867727139,
			"-0.003": 23.0788224342,
			"-0.002": 28.5180010485,
			"-0.001": 24.540837474,
			"0.0": 16.1880221833,
			"0.001": 8.43972544365,
			"0.002": 6.8427311054,
			"0.003": 6.18963190784,
			"0.004": 5.00587593825,
			"0.005": 5.92862057186,
			"0.006": 3.78690323581,
			"0.007": 6.09679939878,
			"0.008": 4.16779954858,
			"0.009": 3.57037882213,
			"0.01": 3.67455977222,
			"0.011": 4.17410725969,
			"0.012": 4.66672612827,
			"0.013": 1.08746090659,
			"0.014": 0.827961622724,
			"0.015": 0.0573821717557,
			"0.016": 0.0,
			"0.017": 0.0,
			"0.018": 0.0,
			"0.019": 0.0,
			"0.02": 0.0,
			"0.021": 0.0,
			"0.022": 0.0,
			"0.023": 0.0,
			"0.024": 0.0,
			"0.025": 0.0
		}
	}
}
