{
	 "smiles": "O=C1N2C(SC3=C2C=CC=C3)=C(C#N)C2=NC=CC=C12", 
	 "Tm": 548.15, 
	 "num_atms": 27, 
	 "gaussian": { 
		 "optdone": 1, 
		 "sigma_profile": "yes", 
		 "theory": "DFT", 
		 "functional": "B3LYP", 
		 "basiset": "6-31G**", 
		 "properties": { 
			 "R2extent": 5811.9086, 
			 "electric_dipole_moment_norm": 4.96178884275, 
			 "electric_quadrupole_moment_norm": 32.9734387417, 
			 "total_energy": -1213.48571279, 
			 "HOMO_LUMO_gap": 0.1471, 
			 "cosmo_polarized_energy": -15.03, 
			 "cosmo_cavitation_energy": 34.05, 
			 "cosmo_dispersion_energy": -25.36, 
			 "cosmo_repulsion_energy": 1.81, 
			 "cosmo_total_nonelectrostatic_energy": 10.5, 
			 "SMD_solvation_energy": 5.59 
		},
		"coords": [
			{
				"x": -0.1077169486,
				"y": -1.2283005425,
				"z": -1.6290290159,
				"element": "O" 
			},
			{
				"x": 0.3191132335,
				"y": -0.4780414976,
				"z": -0.7616599332,
				"element": "C" 
			},
			{
				"x": -0.4162037255,
				"y": -0.2511435384,
				"z": 0.4390207421,
				"element": "N" 
			},
			{
				"x": 0.0417939831,
				"y": 0.5943312552,
				"z": 1.4407032731,
				"element": "C" 
			},
			{
				"x": -1.0689501168,
				"y": 0.67815781,
				"z": 2.7949505024,
				"element": "S" 
			},
			{
				"x": -2.1615875216,
				"y": -0.4478694157,
				"z": 1.9851004599,
				"element": "C" 
			},
			{
				"x": -1.6703584299,
				"y": -0.8529801947,
				"z": 0.7337766,
				"element": "C" 
			},
			{
				"x": -2.40482613,
				"y": -1.7465896232,
				"z": -0.0527139144,
				"element": "C" 
			},
			{
				"x": -3.6230507153,
				"y": -2.2130425718,
				"z": 0.4429711887,
				"element": "C" 
			},
			{
				"x": -4.1087062893,
				"y": -1.8070111805,
				"z": 1.689736813,
				"element": "C" 
			},
			{
				"x": -3.3778581532,
				"y": -0.9161969454,
				"z": 2.4752738494,
				"element": "C" 
			},
			{
				"x": 1.2351589052,
				"y": 1.27717317,
				"z": 1.3560459694,
				"element": "C" 
			},
			{
				"x": 1.6379612507,
				"y": 2.1264252262,
				"z": 2.4246189828,
				"element": "C" 
			},
			{
				"x": 1.9114139895,
				"y": 2.8048152785,
				"z": 3.3306497439,
				"element": "N" 
			},
			{
				"x": 2.046831676,
				"y": 1.1078270189,
				"z": 0.1746357346,
				"element": "C" 
			},
			{
				"x": 3.2170128454,
				"y": 1.7777996595,
				"z": 0.0924613445,
				"element": "N" 
			},
			{
				"x": 3.9472230522,
				"y": 1.6071636382,
				"z": -1.0029014458,
				"element": "C" 
			},
			{
				"x": 3.5817498374,
				"y": 0.7768825565,
				"z": -2.0787940433,
				"element": "C" 
			},
			{
				"x": 2.3840413096,
				"y": 0.0898293996,
				"z": -1.9969961681,
				"element": "C" 
			},
			{
				"x": 1.5877404012,
				"y": 0.2484666725,
				"z": -0.8509895245,
				"element": "C" 
			},
			{
				"x": -2.0256149513,
				"y": -2.0568615121,
				"z": -1.0142695099,
				"element": "H" 
			},
			{
				"x": -4.20086183,
				"y": -2.9067996768,
				"z": -0.159397182,
				"element": "H" 
			},
			{
				"x": -5.0594290071,
				"y": -2.1845463684,
				"z": 2.0526030406,
				"element": "H" 
			},
			{
				"x": -3.7448050545,
				"y": -0.5942218052,
				"z": 3.4442861622,
				"element": "H" 
			},
			{
				"x": 4.8841953813,
				"y": 2.1608004102,
				"z": -1.0381410889,
				"element": "H" 
			},
			{
				"x": 4.2295221669,
				"y": 0.6856488567,
				"z": -2.9439312886,
				"element": "H" 
			},
			{
				"x": 2.035010841,
				"y": -0.5684160797,
				"z": -2.7855112922,
				"element": "H" 
			}
		],
		 "valence_orbital": [ 
			{
				"type": "occ",
				"energy": -0.29363,
				"method": "rhf"
			},
			{
				"type": "occ",
				"energy": -0.27513,
				"method": "rhf"
			},
			{
				"type": "occ",
				"energy": -0.27138,
				"method": "rhf"
			},
			{
				"type": "occ",
				"energy": -0.26526,
				"method": "rhf"
			},
			{
				"type": "occ",
				"energy": -0.22025,
				"method": "rhf"
			},
			{
				"type": "unocc",
				"energy": -0.07315,
				"method": "rhf"
			},
			{
				"type": "unocc",
				"energy": -0.06438,
				"method": "rhf"
			},
			{
				"type": "unocc",
				"energy": -0.0284,
				"method": "rhf"
			},
			{
				"type": "unocc",
				"energy": -0.0196,
				"method": "rhf"
			},
			{
				"type": "unocc",
				"energy": -0.01951,
				"method": "rhf"
			}
		],
		"cosmo_sigma_profile": { 
			"-0.025": 0.0,
			"-0.024": 0.0,
			"-0.023": 0.0,
			"-0.022": 0.0,
			"-0.021": 0.0,
			"-0.02": 0.0,
			"-0.019": 0.0,
			"-0.018": 0.0,
			"-0.017": 0.0,
			"-0.016": 0.0,
			"-0.015": 0.0,
			"-0.014": 0.0,
			"-0.013": 0.0,
			"-0.012": 0.0,
			"-0.011": 0.0,
			"-0.01": 0.115573556466,
			"-0.009": 1.38750377609,
			"-0.008": 5.6306824367,
			"-0.007": 13.4653080987,
			"-0.006": 18.522469239,
			"-0.005": 18.7540243287,
			"-0.004": 15.4899603265,
			"-0.003": 18.0946177463,
			"-0.002": 21.4666025479,
			"-0.001": 27.6861744863,
			"0.0": 27.3299884202,
			"0.001": 24.6928157524,
			"0.002": 18.257992495,
			"0.003": 15.681123416,
			"0.004": 6.45573866853,
			"0.005": 4.14280420925,
			"0.006": 5.87798047097,
			"0.007": 5.73043388878,
			"0.008": 5.99795498715,
			"0.009": 6.96724321268,
			"0.01": 6.59702879902,
			"0.011": 5.68316823283,
			"0.012": 3.46895551385,
			"0.013": 2.32365384241,
			"0.014": 0.191032542293,
			"0.015": 0.0,
			"0.016": 0.0,
			"0.017": 0.0,
			"0.018": 0.0,
			"0.019": 0.0,
			"0.02": 0.0,
			"0.021": 0.0,
			"0.022": 0.0,
			"0.023": 0.0,
			"0.024": 0.0,
			"0.025": 0.0
		}
	}
}
