{
	 "smiles": "NC1=NC2=C(N=CN2)C(Cl)=N1", 
	 "Tm": 573.15, 
	 "num_atms": 15, 
	 "gaussian": { 
		 "optdone": 1, 
		 "sigma_profile": "yes", 
		 "theory": "DFT", 
		 "functional": "B3LYP", 
		 "basiset": "6-31G**", 
		 "properties": { 
			 "R2extent": 3563.1536, 
			 "electric_dipole_moment_norm": 4.8414648083, 
			 "electric_quadrupole_moment_norm": 24.4734830911, 
			 "total_energy": -926.911268872, 
			 "HOMO_LUMO_gap": 0.17951, 
			 "cosmo_polarized_energy": -17.36, 
			 "cosmo_cavitation_energy": 21.84, 
			 "cosmo_dispersion_energy": -17.06, 
			 "cosmo_repulsion_energy": 1.39, 
			 "cosmo_total_nonelectrostatic_energy": 6.17, 
			 "SMD_solvation_energy": -1.23 
		},
		"coords": [
			{
				"x": 0.550080068,
				"y": -0.4097076431,
				"z": 0.8367877475,
				"element": "N" 
			},
			{
				"x": -0.1582413542,
				"y": -0.6079799995,
				"z": -0.3129845876,
				"element": "C" 
			},
			{
				"x": -1.494424292,
				"y": -0.4727156089,
				"z": -0.246742864,
				"element": "N" 
			},
			{
				"x": -2.0728866901,
				"y": -0.6424232628,
				"z": -1.4315768323,
				"element": "C" 
			},
			{
				"x": -1.4369609003,
				"y": -0.9374363832,
				"z": -2.6586617791,
				"element": "C" 
			},
			{
				"x": -2.3594405747,
				"y": -1.0478174882,
				"z": -3.6846878079,
				"element": "N" 
			},
			{
				"x": -3.5091970951,
				"y": -0.8275439829,
				"z": -3.1054782748,
				"element": "C" 
			},
			{
				"x": -3.4086139376,
				"y": -0.5773147021,
				"z": -1.7446124636,
				"element": "N" 
			},
			{
				"x": -0.0480966748,
				"y": -1.0584449667,
				"z": -2.5612471983,
				"element": "C" 
			},
			{
				"x": 0.9105814879,
				"y": -1.4377979576,
				"z": -3.9737320736,
				"element": "Cl" 
			},
			{
				"x": 0.5815865033,
				"y": -0.8986160031,
				"z": -1.4163135876,
				"element": "N" 
			},
			{
				"x": 1.5102269136,
				"y": -0.7136704232,
				"z": 0.8428017784,
				"element": "H" 
			},
			{
				"x": 0.0366682678,
				"y": -0.4073748961,
				"z": 1.7031791459,
				"element": "H" 
			},
			{
				"x": -4.4689676366,
				"y": -0.8317336507,
				"z": -3.6049621956,
				"element": "H" 
			},
			{
				"x": -4.1576140852,
				"y": -0.378323032,
				"z": -1.0985690076,
				"element": "H" 
			}
		],
		 "valence_orbital": [ 
			{
				"type": "occ",
				"energy": -0.29915,
				"method": "rhf"
			},
			{
				"type": "occ",
				"energy": -0.29408,
				"method": "rhf"
			},
			{
				"type": "occ",
				"energy": -0.27717,
				"method": "rhf"
			},
			{
				"type": "occ",
				"energy": -0.25923,
				"method": "rhf"
			},
			{
				"type": "occ",
				"energy": -0.21982,
				"method": "rhf"
			},
			{
				"type": "unocc",
				"energy": -0.04031,
				"method": "rhf"
			},
			{
				"type": "unocc",
				"energy": 0.00542,
				"method": "rhf"
			},
			{
				"type": "unocc",
				"energy": 0.0374,
				"method": "rhf"
			},
			{
				"type": "unocc",
				"energy": 0.04172,
				"method": "rhf"
			},
			{
				"type": "unocc",
				"energy": 0.07322,
				"method": "rhf"
			}
		],
		"cosmo_sigma_profile": { 
			"-0.025": 0.0,
			"-0.024": 0.0,
			"-0.023": 0.0,
			"-0.022": 0.0,
			"-0.021": 0.0,
			"-0.02": 0.0,
			"-0.019": 0.0,
			"-0.018": 0.204216979501,
			"-0.017": 1.94010084012,
			"-0.016": 1.27221402638,
			"-0.015": 1.20880323354,
			"-0.014": 2.70530109167,
			"-0.013": 3.47435926365,
			"-0.012": 2.90789254307,
			"-0.011": 3.89342263502,
			"-0.01": 5.54960127296,
			"-0.009": 4.41950849651,
			"-0.008": 3.598209789,
			"-0.007": 3.24285919347,
			"-0.006": 3.64895230406,
			"-0.005": 2.49175061334,
			"-0.004": 4.00420120379,
			"-0.003": 5.78559383217,
			"-0.002": 9.91912094726,
			"-0.001": 16.7171406031,
			"0.0": 13.8194569277,
			"0.001": 9.99515854669,
			"0.002": 9.40250667314,
			"0.003": 10.7263817601,
			"0.004": 14.3606949925,
			"0.005": 8.11771936161,
			"0.006": 6.13949408291,
			"0.007": 4.64024231611,
			"0.008": 5.38598934119,
			"0.009": 4.25024364295,
			"0.01": 3.70237181428,
			"0.011": 2.16059823992,
			"0.012": 3.26824872487,
			"0.013": 2.0683984279,
			"0.014": 1.51233908554,
			"0.015": 1.02796152505,
			"0.016": 0.633398452206,
			"0.017": 0.0113996876645,
			"0.018": 0.0,
			"0.019": 0.0,
			"0.02": 0.0,
			"0.021": 0.0,
			"0.022": 0.0,
			"0.023": 0.0,
			"0.024": 0.0,
			"0.025": 0.0
		}
	}
}
