{
	 "smiles": "CCOC(=O)C1=CC(N)=C(C=C1)N1C=CN=C1", 
	 "Tm": 364.15, 
	 "num_atms": 30, 
	 "gaussian": { 
		 "optdone": 1, 
		 "sigma_profile": "yes", 
		 "theory": "DFT", 
		 "functional": "B3LYP", 
		 "basiset": "6-31G**", 
		 "properties": { 
			 "R2extent": 5915.531, 
			 "electric_dipole_moment_norm": 4.34168491487, 
			 "electric_quadrupole_moment_norm": 14.1242971999, 
			 "total_energy": -779.826661111, 
			 "HOMO_LUMO_gap": 0.16726, 
			 "cosmo_polarized_energy": -16.2, 
			 "cosmo_cavitation_energy": 34.48, 
			 "cosmo_dispersion_energy": -24.77, 
			 "cosmo_repulsion_energy": 1.92, 
			 "cosmo_total_nonelectrostatic_energy": 11.62, 
			 "SMD_solvation_energy": 6.17 
		},
		"coords": [
			{
				"x": -0.6649405429,
				"y": 5.2514819178,
				"z": 0.9716967235,
				"element": "C" 
			},
			{
				"x": 0.6146973817,
				"y": 4.7830133221,
				"z": 0.295271665,
				"element": "C" 
			},
			{
				"x": 0.7416181639,
				"y": 3.3419595671,
				"z": 0.3471927423,
				"element": "O" 
			},
			{
				"x": 0.1165342996,
				"y": 2.6463123977,
				"z": -0.6307955983,
				"element": "C" 
			},
			{
				"x": -0.5197435216,
				"y": 3.1681339947,
				"z": -1.5265522438,
				"element": "O" 
			},
			{
				"x": 0.3013836664,
				"y": 1.172171935,
				"z": -0.4887584446,
				"element": "C" 
			},
			{
				"x": 1.0435429493,
				"y": 0.6188291472,
				"z": 0.557446613,
				"element": "C" 
			},
			{
				"x": 1.2136019554,
				"y": -0.7689716629,
				"z": 0.6723673938,
				"element": "C" 
			},
			{
				"x": 1.9301902563,
				"y": -1.3115635406,
				"z": 1.7338256282,
				"element": "N" 
			},
			{
				"x": 0.5965583281,
				"y": -1.5940961717,
				"z": -0.2968166654,
				"element": "C" 
			},
			{
				"x": -0.1478148407,
				"y": -1.0334869303,
				"z": -1.3387068717,
				"element": "C" 
			},
			{
				"x": -0.2955893117,
				"y": 0.3437837823,
				"z": -1.4476222128,
				"element": "C" 
			},
			{
				"x": 0.7611450378,
				"y": -3.0085225394,
				"z": -0.2366799236,
				"element": "N" 
			},
			{
				"x": 0.4614647218,
				"y": -3.8550839527,
				"z": 0.8252697398,
				"element": "C" 
			},
			{
				"x": 0.7449263675,
				"y": -5.1197406786,
				"z": 0.377097421,
				"element": "C" 
			},
			{
				"x": 1.2096654251,
				"y": -5.089099755,
				"z": -0.9199733323,
				"element": "N" 
			},
			{
				"x": 1.2024903046,
				"y": -3.8205144851,
				"z": -1.2577858903,
				"element": "C" 
			},
			{
				"x": -1.5406865534,
				"y": 4.8891045386,
				"z": 0.4281648912,
				"element": "H" 
			},
			{
				"x": -0.6977252748,
				"y": 6.346036524,
				"z": 0.9852076016,
				"element": "H" 
			},
			{
				"x": -0.7143670319,
				"y": 4.8935404974,
				"z": 2.0043089613,
				"element": "H" 
			},
			{
				"x": 0.6473198851,
				"y": 5.1010120334,
				"z": -0.7493510083,
				"element": "H" 
			},
			{
				"x": 1.5017968801,
				"y": 5.1516834386,
				"z": 0.816024893,
				"element": "H" 
			},
			{
				"x": 1.5044665037,
				"y": 1.2739871832,
				"z": 1.2886479174,
				"element": "H" 
			},
			{
				"x": 2.3154859796,
				"y": -2.2334615514,
				"z": 1.5773164606,
				"element": "H" 
			},
			{
				"x": 2.586725159,
				"y": -0.6805892478,
				"z": 2.1714484747,
				"element": "H" 
			},
			{
				"x": -0.6189122208,
				"y": -1.6990317778,
				"z": -2.0550321248,
				"element": "H" 
			},
			{
				"x": -0.8705943655,
				"y": 0.7908255224,
				"z": -2.2495927618,
				"element": "H" 
			},
			{
				"x": 0.0666288902,
				"y": -3.4750672447,
				"z": 1.7542786437,
				"element": "H" 
			},
			{
				"x": 0.6363997457,
				"y": -6.0515562293,
				"z": 0.9150308183,
				"element": "H" 
			},
			{
				"x": 1.5201317623,
				"y": -3.4080900344,
				"z": -2.2057295108,
				"element": "H" 
			}
		],
		 "valence_orbital": [ 
			{
				"type": "occ",
				"energy": -0.27607,
				"method": "rhf"
			},
			{
				"type": "occ",
				"energy": -0.26835,
				"method": "rhf"
			},
			{
				"type": "occ",
				"energy": -0.25577,
				"method": "rhf"
			},
			{
				"type": "occ",
				"energy": -0.23204,
				"method": "rhf"
			},
			{
				"type": "occ",
				"energy": -0.21934,
				"method": "rhf"
			},
			{
				"type": "unocc",
				"energy": -0.05208,
				"method": "rhf"
			},
			{
				"type": "unocc",
				"energy": -0.00593,
				"method": "rhf"
			},
			{
				"type": "unocc",
				"energy": 0.02094,
				"method": "rhf"
			},
			{
				"type": "unocc",
				"energy": 0.05719,
				"method": "rhf"
			},
			{
				"type": "unocc",
				"energy": 0.06294,
				"method": "rhf"
			}
		],
		"cosmo_sigma_profile": { 
			"-0.025": 0.0,
			"-0.024": 0.0,
			"-0.023": 0.0,
			"-0.022": 0.0,
			"-0.021": 0.0,
			"-0.02": 0.0,
			"-0.019": 0.0,
			"-0.018": 0.0,
			"-0.017": 0.0,
			"-0.016": 0.0,
			"-0.015": 0.0,
			"-0.014": 0.0918341245792,
			"-0.013": 1.29148504864,
			"-0.012": 2.12301224074,
			"-0.011": 2.41396108522,
			"-0.01": 2.96897581715,
			"-0.009": 4.14465711542,
			"-0.008": 4.68895688508,
			"-0.007": 7.63068159989,
			"-0.006": 12.0153892594,
			"-0.005": 15.5119377526,
			"-0.004": 19.2604522453,
			"-0.003": 22.8641108756,
			"-0.002": 21.6257779104,
			"-0.001": 20.1580996315,
			"0.0": 21.2715565262,
			"0.001": 19.3520952779,
			"0.002": 18.0378321069,
			"0.003": 19.4220732274,
			"0.004": 13.8693702844,
			"0.005": 8.97812721836,
			"0.006": 6.09336814113,
			"0.007": 3.64506247423,
			"0.008": 3.54924297162,
			"0.009": 3.8251671081,
			"0.01": 3.81943665796,
			"0.011": 4.38046914732,
			"0.012": 5.51783707101,
			"0.013": 1.28393008684,
			"0.014": 1.09683231792,
			"0.015": 0.943074933771,
			"0.016": 1.43440671282,
			"0.017": 0.908195456156,
			"0.018": 0.553978871543,
			"0.019": 0.0,
			"0.02": 0.0,
			"0.021": 0.0,
			"0.022": 0.0,
			"0.023": 0.0,
			"0.024": 0.0,
			"0.025": 0.0
		}
	}
}
