{
	 "smiles": "COC1=C(CC2=NN=NN2)C=C(Br)C=C1", 
	 "Tm": 454.15, 
	 "num_atms": 24, 
	 "gaussian": { 
		 "optdone": 1, 
		 "sigma_profile": "yes", 
		 "theory": "DFT", 
		 "functional": "B3LYP", 
		 "basiset": "6-31G**", 
		 "properties": { 
			 "R2extent": 5778.0928, 
			 "electric_dipole_moment_norm": 7.82964536489, 
			 "electric_quadrupole_moment_norm": 18.2367691149, 
			 "total_energy": -3213.95534536, 
			 "HOMO_LUMO_gap": 0.20637, 
			 "cosmo_polarized_energy": -19.0, 
			 "cosmo_cavitation_energy": 30.95, 
			 "cosmo_dispersion_energy": -22.65, 
			 "cosmo_repulsion_energy": 1.77, 
			 "cosmo_total_nonelectrostatic_energy": 10.07, 
			 "SMD_solvation_energy": 2.65 
		},
		"coords": [
			{
				"x": -0.5653773209,
				"y": 3.0528412918,
				"z": 1.3850546823,
				"element": "C" 
			},
			{
				"x": -0.573539525,
				"y": 1.8043516452,
				"z": 0.6951651043,
				"element": "O" 
			},
			{
				"x": 0.6184834931,
				"y": 1.3243834005,
				"z": 0.2003212222,
				"element": "C" 
			},
			{
				"x": 0.5225621052,
				"y": 0.2141615377,
				"z": -0.6629520891,
				"element": "C" 
			},
			{
				"x": -0.830000879,
				"y": -0.3630077989,
				"z": -1.0462423299,
				"element": "C" 
			},
			{
				"x": -1.4669577843,
				"y": -1.1990006298,
				"z": 0.0228200804,
				"element": "C" 
			},
			{
				"x": -1.7971820052,
				"y": -2.4748821918,
				"z": -0.0608611107,
				"element": "N" 
			},
			{
				"x": -2.3495583239,
				"y": -2.8023751151,
				"z": 1.1421675438,
				"element": "N" 
			},
			{
				"x": -2.3648630731,
				"y": -1.7871585112,
				"z": 1.9431023636,
				"element": "N" 
			},
			{
				"x": -1.8147714456,
				"y": -0.7647092776,
				"z": 1.2514324628,
				"element": "N" 
			},
			{
				"x": 1.6968734633,
				"y": -0.3343861132,
				"z": -1.1780070621,
				"element": "C" 
			},
			{
				"x": 2.9389829357,
				"y": 0.2116191669,
				"z": -0.8527614141,
				"element": "C" 
			},
			{
				"x": 4.5262210888,
				"y": -0.55940562,
				"z": -1.5810884274,
				"element": "Br" 
			},
			{
				"x": 3.0295947419,
				"y": 1.3132864244,
				"z": -0.0108850943,
				"element": "C" 
			},
			{
				"x": 1.8634012274,
				"y": 1.8718039395,
				"z": 0.5177564847,
				"element": "C" 
			},
			{
				"x": -0.0185732269,
				"y": 2.9861918205,
				"z": 2.3331301887,
				"element": "H" 
			},
			{
				"x": -1.6103732968,
				"y": 3.2910015282,
				"z": 1.5879601453,
				"element": "H" 
			},
			{
				"x": -0.1253336729,
				"y": 3.8421764406,
				"z": 0.7654885882,
				"element": "H" 
			},
			{
				"x": -1.511826847,
				"y": 0.4533251012,
				"z": -1.3123929957,
				"element": "H" 
			},
			{
				"x": -0.7236949271,
				"y": -1.0043735869,
				"z": -1.9232275334,
				"element": "H" 
			},
			{
				"x": -1.6837484431,
				"y": 0.1571561714,
				"z": 1.6462526033,
				"element": "H" 
			},
			{
				"x": 1.6398933953,
				"y": -1.1901965572,
				"z": -1.8418485149,
				"element": "H" 
			},
			{
				"x": 3.9957651605,
				"y": 1.7371901226,
				"z": 0.2370404105,
				"element": "H" 
			},
			{
				"x": 1.9441231597,
				"y": 2.7272068114,
				"z": 1.1773746915,
				"element": "H" 
			}
		],
		 "valence_orbital": [ 
			{
				"type": "occ",
				"energy": -0.28875,
				"method": "rhf"
			},
			{
				"type": "occ",
				"energy": -0.28725,
				"method": "rhf"
			},
			{
				"type": "occ",
				"energy": -0.27804,
				"method": "rhf"
			},
			{
				"type": "occ",
				"energy": -0.2749,
				"method": "rhf"
			},
			{
				"type": "occ",
				"energy": -0.23984,
				"method": "rhf"
			},
			{
				"type": "unocc",
				"energy": -0.03347,
				"method": "rhf"
			},
			{
				"type": "unocc",
				"energy": -0.02211,
				"method": "rhf"
			},
			{
				"type": "unocc",
				"energy": -0.00754,
				"method": "rhf"
			},
			{
				"type": "unocc",
				"energy": 0.00017,
				"method": "rhf"
			},
			{
				"type": "unocc",
				"energy": 0.03257,
				"method": "rhf"
			}
		],
		"cosmo_sigma_profile": { 
			"-0.025": 0.0,
			"-0.024": 0.0,
			"-0.023": 0.0,
			"-0.022": 0.0,
			"-0.021": 0.0,
			"-0.02": 0.0,
			"-0.019": 0.0,
			"-0.018": 0.0,
			"-0.017": 0.0,
			"-0.016": 0.0757177976849,
			"-0.015": 0.60316313855,
			"-0.014": 0.965462365994,
			"-0.013": 0.702807563176,
			"-0.012": 0.397173294357,
			"-0.011": 1.08868315403,
			"-0.01": 0.959533864859,
			"-0.009": 1.34971164193,
			"-0.008": 4.24762842164,
			"-0.007": 12.4406688855,
			"-0.006": 19.7074188549,
			"-0.005": 18.494792296,
			"-0.004": 21.2466429293,
			"-0.003": 18.0057626178,
			"-0.002": 13.0968234171,
			"-0.001": 12.0297743306,
			"0.0": 12.8004386254,
			"0.001": 14.3176559721,
			"0.002": 18.8647390468,
			"0.003": 18.8879070504,
			"0.004": 14.8957208691,
			"0.005": 10.4636816571,
			"0.006": 2.56727091806,
			"0.007": 3.99299193028,
			"0.008": 4.55217541469,
			"0.009": 5.07519631396,
			"0.01": 4.47268380287,
			"0.011": 4.97614037054,
			"0.012": 3.96493307223,
			"0.013": 2.65936356499,
			"0.014": 2.19351412131,
			"0.015": 1.01082811958,
			"0.016": 0.196812205072,
			"0.017": 0.0,
			"0.018": 0.0,
			"0.019": 0.0,
			"0.02": 0.0,
			"0.021": 0.0,
			"0.022": 0.0,
			"0.023": 0.0,
			"0.024": 0.0,
			"0.025": 0.0
		}
	}
}
