{
	 "smiles": "CCOC(=O)C1=CC=CC=N1", 
	 "Tm": 274.65, 
	 "num_atms": 20, 
	 "gaussian": { 
		 "optdone": 1, 
		 "sigma_profile": "yes", 
		 "theory": "DFT", 
		 "functional": "B3LYP", 
		 "basiset": "6-31G**", 
		 "properties": { 
			 "R2extent": 3371.1135, 
			 "electric_dipole_moment_norm": 3.72406032309, 
			 "electric_quadrupole_moment_norm": 19.5579503351, 
			 "total_energy": -515.480210023, 
			 "HOMO_LUMO_gap": 0.20588, 
			 "cosmo_polarized_energy": -12.01, 
			 "cosmo_cavitation_energy": 24.47, 
			 "cosmo_dispersion_energy": -17.98, 
			 "cosmo_repulsion_energy": 1.47, 
			 "cosmo_total_nonelectrostatic_energy": 7.96, 
			 "SMD_solvation_energy": 4.27 
		},
		"coords": [
			{
				"x": -0.9863837778,
				"y": -4.3904518074,
				"z": -2.8958328785,
				"element": "C" 
			},
			{
				"x": -0.6437956254,
				"y": -3.8922862789,
				"z": -1.4996245268,
				"element": "C" 
			},
			{
				"x": -0.4829855916,
				"y": -2.4542655129,
				"z": -1.4775966355,
				"element": "O" 
			},
			{
				"x": -1.6173141518,
				"y": -1.7260824987,
				"z": -1.3261954243,
				"element": "C" 
			},
			{
				"x": -2.7206790991,
				"y": -2.2076218699,
				"z": -1.2068698154,
				"element": "O" 
			},
			{
				"x": -1.3178114169,
				"y": -0.2483094481,
				"z": -1.3216849439,
				"element": "C" 
			},
			{
				"x": -0.0114817583,
				"y": 0.2352914793,
				"z": -1.4664733969,
				"element": "C" 
			},
			{
				"x": 0.1908395646,
				"y": 1.6145841903,
				"z": -1.4531268653,
				"element": "C" 
			},
			{
				"x": -0.9113300755,
				"y": 2.451804526,
				"z": -1.2969869407,
				"element": "C" 
			},
			{
				"x": -2.1745090779,
				"y": 1.8671185383,
				"z": -1.1606492886,
				"element": "C" 
			},
			{
				"x": -2.3848180491,
				"y": 0.5501904633,
				"z": -1.1715773075,
				"element": "N" 
			},
			{
				"x": -1.0291215768,
				"y": -5.4847673616,
				"z": -2.8989559662,
				"element": "H" 
			},
			{
				"x": -0.2296932343,
				"y": -4.0742121078,
				"z": -3.6199812641,
				"element": "H" 
			},
			{
				"x": -1.9604671181,
				"y": -4.0085604509,
				"z": -3.2104986279,
				"element": "H" 
			},
			{
				"x": 0.3205616903,
				"y": -4.2788228627,
				"z": -1.1609412151,
				"element": "H" 
			},
			{
				"x": -1.4196327071,
				"y": -4.1692275949,
				"z": -0.7820092742,
				"element": "H" 
			},
			{
				"x": 0.8125558099,
				"y": -0.4569850081,
				"z": -1.5851742583,
				"element": "H" 
			},
			{
				"x": 1.1903672509,
				"y": 2.0251730232,
				"z": -1.562595669,
				"element": "H" 
			},
			{
				"x": -0.802703179,
				"y": 3.5317897887,
				"z": -1.2805375516,
				"element": "H" 
			},
			{
				"x": -3.057897877,
				"y": 2.4913407927,
				"z": -1.0370881502,
				"element": "H" 
			}
		],
		 "valence_orbital": [ 
			{
				"type": "occ",
				"energy": -0.29956,
				"method": "rhf"
			},
			{
				"type": "occ",
				"energy": -0.29182,
				"method": "rhf"
			},
			{
				"type": "occ",
				"energy": -0.2704,
				"method": "rhf"
			},
			{
				"type": "occ",
				"energy": -0.2691,
				"method": "rhf"
			},
			{
				"type": "occ",
				"energy": -0.2602,
				"method": "rhf"
			},
			{
				"type": "unocc",
				"energy": -0.05432,
				"method": "rhf"
			},
			{
				"type": "unocc",
				"energy": -0.02628,
				"method": "rhf"
			},
			{
				"type": "unocc",
				"energy": 0.05397,
				"method": "rhf"
			},
			{
				"type": "unocc",
				"energy": 0.09186,
				"method": "rhf"
			},
			{
				"type": "unocc",
				"energy": 0.11017,
				"method": "rhf"
			}
		],
		"cosmo_sigma_profile": { 
			"-0.025": 0.0,
			"-0.024": 0.0,
			"-0.023": 0.0,
			"-0.022": 0.0,
			"-0.021": 0.0,
			"-0.02": 0.0,
			"-0.019": 0.0,
			"-0.018": 0.0,
			"-0.017": 0.0,
			"-0.016": 0.0,
			"-0.015": 0.0,
			"-0.014": 0.0,
			"-0.013": 0.0,
			"-0.012": 0.0,
			"-0.011": 0.0,
			"-0.01": 0.0,
			"-0.009": 0.0,
			"-0.008": 1.89706294861,
			"-0.007": 6.98437266227,
			"-0.006": 12.0698982613,
			"-0.005": 12.5961387423,
			"-0.004": 15.8706173088,
			"-0.003": 19.4488144985,
			"-0.002": 17.9099568972,
			"-0.001": 16.6975009263,
			"0.0": 21.6934115948,
			"0.001": 20.146726709,
			"0.002": 10.7526605041,
			"0.003": 4.30113313621,
			"0.004": 5.55097662812,
			"0.005": 4.16498735271,
			"0.006": 1.66450275169,
			"0.007": 2.34561923128,
			"0.008": 2.21807884769,
			"0.009": 2.1992818648,
			"0.01": 1.78579138721,
			"0.011": 3.78374895772,
			"0.012": 3.91094476825,
			"0.013": 1.51250887529,
			"0.014": 1.58000045178,
			"0.015": 1.33121079511,
			"0.016": 0.971650716955,
			"0.017": 1.06523574542,
			"0.018": 0.713291466952,
			"0.019": 0.00389174855545,
			"0.02": 0.0,
			"0.021": 0.0,
			"0.022": 0.0,
			"0.023": 0.0,
			"0.024": 0.0,
			"0.025": 0.0
		}
	}
}
