{
	 "smiles": "[O-][N+](=O)C1=CC=C(CCN2C(=O)C=CC2=O)C=C1", 
	 "Tm": 335.15, 
	 "num_atms": 28, 
	 "gaussian": { 
		 "optdone": 1, 
		 "sigma_profile": "yes", 
		 "theory": "DFT", 
		 "functional": "B3LYP", 
		 "basiset": "6-31G**", 
		 "properties": { 
			 "R2extent": 5599.2614, 
			 "electric_dipole_moment_norm": 4.64535333855, 
			 "electric_quadrupole_moment_norm": 27.9162768323, 
			 "total_energy": -873.610123607, 
			 "HOMO_LUMO_gap": 0.16739, 
			 "cosmo_polarized_energy": -16.17, 
			 "cosmo_cavitation_energy": 34.29, 
			 "cosmo_dispersion_energy": -23.01, 
			 "cosmo_repulsion_energy": 1.78, 
			 "cosmo_total_nonelectrostatic_energy": 13.05, 
			 "SMD_solvation_energy": 9.45 
		},
		"coords": [
			{
				"x": -1.5055510897,
				"y": 3.7697195679,
				"z": -3.9956594678,
				"element": "O" 
			},
			{
				"x": -1.9257968917,
				"y": 2.7259259081,
				"z": -3.4969927089,
				"element": "N" 
			},
			{
				"x": -3.0566838628,
				"y": 2.2718710979,
				"z": -3.6715009724,
				"element": "O" 
			},
			{
				"x": -1.0120012294,
				"y": 1.9670608409,
				"z": -2.6301818468,
				"element": "C" 
			},
			{
				"x": -1.4523837269,
				"y": 0.7732064347,
				"z": -2.0641943197,
				"element": "C" 
			},
			{
				"x": -0.5782719233,
				"y": 0.0607729759,
				"z": -1.2470262508,
				"element": "C" 
			},
			{
				"x": 0.720096723,
				"y": 0.5274436624,
				"z": -0.9931443824,
				"element": "C" 
			},
			{
				"x": 1.6496556013,
				"y": -0.2449833774,
				"z": -0.0847995168,
				"element": "C" 
			},
			{
				"x": 1.7852859769,
				"y": 0.3607905368,
				"z": 1.3284465722,
				"element": "C" 
			},
			{
				"x": 0.5184579434,
				"y": 0.4775373006,
				"z": 2.0366840105,
				"element": "N" 
			},
			{
				"x": -0.2688430921,
				"y": -0.5946619599,
				"z": 2.4616640619,
				"element": "C" 
			},
			{
				"x": -0.0212139084,
				"y": -1.7712766757,
				"z": 2.2811908023,
				"element": "O" 
			},
			{
				"x": -1.4532589754,
				"y": 0.0096739684,
				"z": 3.1630002383,
				"element": "C" 
			},
			{
				"x": -1.3370583866,
				"y": 1.3407376477,
				"z": 3.1310651144,
				"element": "C" 
			},
			{
				"x": -0.066169153,
				"y": 1.6959454405,
				"z": 2.4125621489,
				"element": "C" 
			},
			{
				"x": 0.3928163035,
				"y": 2.7975378024,
				"z": 2.1950132306,
				"element": "O" 
			},
			{
				"x": 1.1285842977,
				"y": 1.7348702255,
				"z": -1.5819292564,
				"element": "C" 
			},
			{
				"x": 0.2713822595,
				"y": 2.4614589065,
				"z": -2.4014849296,
				"element": "C" 
			},
			{
				"x": -2.4559898091,
				"y": 0.42350605,
				"z": -2.2714813082,
				"element": "H" 
			},
			{
				"x": -0.9044445612,
				"y": -0.8757943981,
				"z": -0.8035514057,
				"element": "H" 
			},
			{
				"x": 1.3068446629,
				"y": -1.278400461,
				"z": 0.0125666298,
				"element": "H" 
			},
			{
				"x": 2.6565530532,
				"y": -0.2770883284,
				"z": -0.5180913312,
				"element": "H" 
			},
			{
				"x": 2.1936110054,
				"y": 1.3735347026,
				"z": 1.2835950613,
				"element": "H" 
			},
			{
				"x": 2.4653617299,
				"y": -0.260820867,
				"z": 1.91998481,
				"element": "H" 
			},
			{
				"x": -2.2335435729,
				"y": -0.6025761814,
				"z": 3.5954622801,
				"element": "H" 
			},
			{
				"x": -1.9969728007,
				"y": 2.0991903576,
				"z": 3.5309191766,
				"element": "H" 
			},
			{
				"x": 2.1315902469,
				"y": 2.1103658315,
				"z": -1.3984283537,
				"element": "H" 
			},
			{
				"x": 0.5737431795,
				"y": 3.392652991,
				"z": -2.8637880864,
				"element": "H" 
			}
		],
		 "valence_orbital": [ 
			{
				"type": "occ",
				"energy": -0.28919,
				"method": "rhf"
			},
			{
				"type": "occ",
				"energy": -0.28853,
				"method": "rhf"
			},
			{
				"type": "occ",
				"energy": -0.28069,
				"method": "rhf"
			},
			{
				"type": "occ",
				"energy": -0.27729,
				"method": "rhf"
			},
			{
				"type": "occ",
				"energy": -0.27253,
				"method": "rhf"
			},
			{
				"type": "unocc",
				"energy": -0.10514,
				"method": "rhf"
			},
			{
				"type": "unocc",
				"energy": -0.08734,
				"method": "rhf"
			},
			{
				"type": "unocc",
				"energy": -0.02808,
				"method": "rhf"
			},
			{
				"type": "unocc",
				"energy": -0.00036,
				"method": "rhf"
			},
			{
				"type": "unocc",
				"energy": 0.04259,
				"method": "rhf"
			}
		],
		"cosmo_sigma_profile": { 
			"-0.025": 0.0,
			"-0.024": 0.0,
			"-0.023": 0.0,
			"-0.022": 0.0,
			"-0.021": 0.0,
			"-0.02": 0.0,
			"-0.019": 0.0,
			"-0.018": 0.0,
			"-0.017": 0.0,
			"-0.016": 0.0,
			"-0.015": 0.0,
			"-0.014": 0.0,
			"-0.013": 0.0,
			"-0.012": 0.0,
			"-0.011": 0.0,
			"-0.01": 1.31714744285,
			"-0.009": 4.03390228229,
			"-0.008": 3.57257966212,
			"-0.007": 10.9523904305,
			"-0.006": 18.8361395376,
			"-0.005": 22.8695763215,
			"-0.004": 22.26779412,
			"-0.003": 26.7865408217,
			"-0.002": 19.0771692763,
			"-0.001": 20.4820017013,
			"0.0": 16.2469496897,
			"0.001": 18.496605205,
			"0.002": 13.8571319073,
			"0.003": 7.02612429769,
			"0.004": 7.28289966706,
			"0.005": 6.39813464734,
			"0.006": 5.12421238672,
			"0.007": 10.1188051754,
			"0.008": 11.3826356857,
			"0.009": 9.03897962413,
			"0.01": 8.74337243251,
			"0.011": 8.77423947883,
			"0.012": 2.09020115868,
			"0.013": 0.0145511996753,
			"0.014": 0.0,
			"0.015": 0.0,
			"0.016": 0.0,
			"0.017": 0.0,
			"0.018": 0.0,
			"0.019": 0.0,
			"0.02": 0.0,
			"0.021": 0.0,
			"0.022": 0.0,
			"0.023": 0.0,
			"0.024": 0.0,
			"0.025": 0.0
		}
	}
}
