{
	 "smiles": "OCCN1C(=O)CCC1=O", 
	 "Tm": 333.15, 
	 "num_atms": 19, 
	 "gaussian": { 
		 "optdone": 1, 
		 "sigma_profile": "yes", 
		 "theory": "DFT", 
		 "functional": "B3LYP", 
		 "basiset": "6-31G**", 
		 "properties": { 
			 "R2extent": 1803.5289, 
			 "electric_dipole_moment_norm": 3.66035799752, 
			 "electric_quadrupole_moment_norm": 10.8786350279, 
			 "total_energy": -514.514649367, 
			 "HOMO_LUMO_gap": 0.22175, 
			 "cosmo_polarized_energy": -13.71, 
			 "cosmo_cavitation_energy": 21.94, 
			 "cosmo_dispersion_energy": -16.63, 
			 "cosmo_repulsion_energy": 1.37, 
			 "cosmo_total_nonelectrostatic_energy": 6.69, 
			 "SMD_solvation_energy": 4.7 
		},
		"coords": [
			{
				"x": -2.0043271152,
				"y": -2.0558447622,
				"z": -1.99094426,
				"element": "O" 
			},
			{
				"x": -2.5165704838,
				"y": -1.9018214788,
				"z": -0.6901608037,
				"element": "C" 
			},
			{
				"x": -2.4725983271,
				"y": -0.4573996334,
				"z": -0.1658614732,
				"element": "C" 
			},
			{
				"x": -1.1977421912,
				"y": -0.0607524631,
				"z": 0.4494263974,
				"element": "N" 
			},
			{
				"x": -1.1444362175,
				"y": 0.4762530304,
				"z": 1.7476411379,
				"element": "C" 
			},
			{
				"x": -2.1082066202,
				"y": 0.6298473607,
				"z": 2.4649444167,
				"element": "O" 
			},
			{
				"x": 0.3090330494,
				"y": 0.8104839428,
				"z": 2.0617576355,
				"element": "C" 
			},
			{
				"x": 1.0833080508,
				"y": 0.4623507549,
				"z": 0.783014015,
				"element": "C" 
			},
			{
				"x": 0.0435495422,
				"y": -0.1225404092,
				"z": -0.1638259972,
				"element": "C" 
			},
			{
				"x": 0.2605926648,
				"y": -0.5760159483,
				"z": -1.2764711751,
				"element": "O" 
			},
			{
				"x": -1.111953863,
				"y": -1.6673114794,
				"z": -1.9911621678,
				"element": "H" 
			},
			{
				"x": -3.5694234426,
				"y": -2.2025799298,
				"z": -0.733567759,
				"element": "H" 
			},
			{
				"x": -2.0241499381,
				"y": -2.5625352202,
				"z": 0.0445460305,
				"element": "H" 
			},
			{
				"x": -2.6956755541,
				"y": 0.223048527,
				"z": -0.9947543868,
				"element": "H" 
			},
			{
				"x": -3.2169760956,
				"y": -0.306434388,
				"z": 0.6197440825,
				"element": "H" 
			},
			{
				"x": 0.6212901345,
				"y": 0.224805565,
				"z": 2.9313498507,
				"element": "H" 
			},
			{
				"x": 0.3749476962,
				"y": 1.8640497453,
				"z": 2.3460138086,
				"element": "H" 
			},
			{
				"x": 1.5392914595,
				"y": 1.3322520635,
				"z": 0.3009325186,
				"element": "H" 
			},
			{
				"x": 1.8783472507,
				"y": -0.2731552772,
				"z": 0.9312781294,
				"element": "H" 
			}
		],
		 "valence_orbital": [ 
			{
				"type": "occ",
				"energy": -0.33109,
				"method": "rhf"
			},
			{
				"type": "occ",
				"energy": -0.29759,
				"method": "rhf"
			},
			{
				"type": "occ",
				"energy": -0.2878,
				"method": "rhf"
			},
			{
				"type": "occ",
				"energy": -0.27298,
				"method": "rhf"
			},
			{
				"type": "occ",
				"energy": -0.25578,
				"method": "rhf"
			},
			{
				"type": "unocc",
				"energy": -0.03403,
				"method": "rhf"
			},
			{
				"type": "unocc",
				"energy": 0.00983,
				"method": "rhf"
			},
			{
				"type": "unocc",
				"energy": 0.07505,
				"method": "rhf"
			},
			{
				"type": "unocc",
				"energy": 0.10812,
				"method": "rhf"
			},
			{
				"type": "unocc",
				"energy": 0.11919,
				"method": "rhf"
			}
		],
		"cosmo_sigma_profile": { 
			"-0.025": 0.0,
			"-0.024": 0.0,
			"-0.023": 0.0,
			"-0.022": 0.0,
			"-0.021": 0.0,
			"-0.02": 0.0,
			"-0.019": 0.0,
			"-0.018": 0.0,
			"-0.017": 0.0,
			"-0.016": 0.0,
			"-0.015": 0.0,
			"-0.014": 0.0,
			"-0.013": 0.0,
			"-0.012": 0.0,
			"-0.011": 0.0,
			"-0.01": 0.0,
			"-0.009": 0.0335686732665,
			"-0.008": 2.56697884348,
			"-0.007": 15.2853484562,
			"-0.006": 16.0158036595,
			"-0.005": 17.8993467127,
			"-0.004": 20.3684137632,
			"-0.003": 17.2923832614,
			"-0.002": 9.15723903779,
			"-0.001": 6.2530100969,
			"0.0": 5.35780416453,
			"0.001": 5.90394410458,
			"0.002": 5.1522385473,
			"0.003": 3.3920912822,
			"0.004": 3.31849720228,
			"0.005": 4.92347754967,
			"0.006": 3.89182773921,
			"0.007": 3.06714998568,
			"0.008": 3.83792678705,
			"0.009": 5.25449405267,
			"0.01": 4.74124920204,
			"0.011": 6.97600070543,
			"0.012": 5.76982521154,
			"0.013": 2.22195192799,
			"0.014": 1.86606561562,
			"0.015": 2.18765130913,
			"0.016": 0.0650849875091,
			"0.017": 0.0,
			"0.018": 0.0,
			"0.019": 0.0,
			"0.02": 0.0,
			"0.021": 0.0,
			"0.022": 0.0,
			"0.023": 0.0,
			"0.024": 0.0,
			"0.025": 0.0
		}
	}
}
