{
	 "smiles": "CCOC(=O)C1=NOC(=C1)C1=CC=C(Br)S1", 
	 "Tm": 325.15, 
	 "num_atms": 24, 
	 "gaussian": { 
		 "optdone": 1, 
		 "sigma_profile": "yes", 
		 "theory": "DFT", 
		 "functional": "B3LYP", 
		 "basiset": "6-31G**", 
		 "properties": { 
			 "R2extent": 10963.4452, 
			 "electric_dipole_moment_norm": 0.509151696452, 
			 "electric_quadrupole_moment_norm": 14.9116588839, 
			 "total_energy": -3635.83857161, 
			 "HOMO_LUMO_gap": 0.15828, 
			 "cosmo_polarized_energy": -10.42, 
			 "cosmo_cavitation_energy": 34.44, 
			 "cosmo_dispersion_energy": -25.9, 
			 "cosmo_repulsion_energy": 2.0, 
			 "cosmo_total_nonelectrostatic_energy": 10.54, 
			 "SMD_solvation_energy": 5.45 
		},
		"coords": [
			{
				"x": -4.7161052192,
				"y": -2.5418599302,
				"z": 2.4066545511,
				"element": "C" 
			},
			{
				"x": -3.7264690388,
				"y": -2.733807079,
				"z": 1.2742844808,
				"element": "C" 
			},
			{
				"x": -2.8320114288,
				"y": -1.5936095358,
				"z": 1.2845798694,
				"element": "O" 
			},
			{
				"x": -1.8815820915,
				"y": -1.5911661756,
				"z": 0.3424054848,
				"element": "C" 
			},
			{
				"x": -1.725274625,
				"y": -2.4569155753,
				"z": -0.4954024247,
				"element": "O" 
			},
			{
				"x": -1.0015662656,
				"y": -0.3911163709,
				"z": 0.414574255,
				"element": "C" 
			},
			{
				"x": -1.1580262301,
				"y": 0.5565339419,
				"z": 1.3184101127,
				"element": "N" 
			},
			{
				"x": -0.1558671336,
				"y": 1.4787125114,
				"z": 1.0498359944,
				"element": "O" 
			},
			{
				"x": 0.5828972829,
				"y": 1.0613477355,
				"z": -0.0145466843,
				"element": "C" 
			},
			{
				"x": 0.0849893608,
				"y": -0.1322722808,
				"z": -0.4617666836,
				"element": "C" 
			},
			{
				"x": 1.6714822588,
				"y": 1.9179881073,
				"z": -0.4211229771,
				"element": "C" 
			},
			{
				"x": 2.0560814278,
				"y": 3.1148177057,
				"z": 0.1415288404,
				"element": "C" 
			},
			{
				"x": 3.1753623191,
				"y": 3.7089219995,
				"z": -0.5032028283,
				"element": "C" 
			},
			{
				"x": 3.6269075973,
				"y": 2.9519730178,
				"z": -1.5505866749,
				"element": "C" 
			},
			{
				"x": 5.0753025699,
				"y": 3.3397784217,
				"z": -2.6866851669,
				"element": "Br" 
			},
			{
				"x": 2.6992570582,
				"y": 1.4979004094,
				"z": -1.775912577,
				"element": "S" 
			},
			{
				"x": -4.201619629,
				"y": -2.4869023176,
				"z": 3.3699724502,
				"element": "H" 
			},
			{
				"x": -5.2916418615,
				"y": -1.6220861883,
				"z": 2.2707294171,
				"element": "H" 
			},
			{
				"x": -5.4130420937,
				"y": -3.3852184035,
				"z": 2.43423029,
				"element": "H" 
			},
			{
				"x": -3.1323831556,
				"y": -3.6453937901,
				"z": 1.3925201702,
				"element": "H" 
			},
			{
				"x": -4.2180188727,
				"y": -2.7839007332,
				"z": 0.2976781924,
				"element": "H" 
			},
			{
				"x": 0.4180927631,
				"y": -0.7496300119,
				"z": -1.2805574929,
				"element": "H" 
			},
			{
				"x": 1.5454708749,
				"y": 3.5487870237,
				"z": 0.9925165093,
				"element": "H" 
			},
			{
				"x": 3.6262641323,
				"y": 4.6483175186,
				"z": -0.2100371083,
				"element": "H" 
			}
		],
		 "valence_orbital": [ 
			{
				"type": "occ",
				"energy": -0.30749,
				"method": "rhf"
			},
			{
				"type": "occ",
				"energy": -0.29194,
				"method": "rhf"
			},
			{
				"type": "occ",
				"energy": -0.28625,
				"method": "rhf"
			},
			{
				"type": "occ",
				"energy": -0.27763,
				"method": "rhf"
			},
			{
				"type": "occ",
				"energy": -0.22957,
				"method": "rhf"
			},
			{
				"type": "unocc",
				"energy": -0.07129,
				"method": "rhf"
			},
			{
				"type": "unocc",
				"energy": -0.04259,
				"method": "rhf"
			},
			{
				"type": "unocc",
				"energy": -0.01668,
				"method": "rhf"
			},
			{
				"type": "unocc",
				"energy": 0.00162,
				"method": "rhf"
			},
			{
				"type": "unocc",
				"energy": 0.01683,
				"method": "rhf"
			}
		],
		"cosmo_sigma_profile": { 
			"-0.025": 0.0,
			"-0.024": 0.0,
			"-0.023": 0.0,
			"-0.022": 0.0,
			"-0.021": 0.0,
			"-0.02": 0.0,
			"-0.019": 0.0,
			"-0.018": 0.0,
			"-0.017": 0.0,
			"-0.016": 0.0,
			"-0.015": 0.0,
			"-0.014": 0.0,
			"-0.013": 0.0,
			"-0.012": 0.0,
			"-0.011": 0.0,
			"-0.01": 0.363194793149,
			"-0.009": 2.39961988493,
			"-0.008": 4.52797982338,
			"-0.007": 5.46977404878,
			"-0.006": 9.60020000187,
			"-0.005": 14.9859834867,
			"-0.004": 23.3924151933,
			"-0.003": 21.7284961899,
			"-0.002": 22.1756545891,
			"-0.001": 33.2621129806,
			"0.0": 31.5611216971,
			"0.001": 28.1120035899,
			"0.002": 24.2897098195,
			"0.003": 17.2913710392,
			"0.004": 5.41002561742,
			"0.005": 4.83874718886,
			"0.006": 5.78562747003,
			"0.007": 4.69199425503,
			"0.008": 3.8724276978,
			"0.009": 4.0037653169,
			"0.01": 4.32736745751,
			"0.011": 6.54444531492,
			"0.012": 2.29374483706,
			"0.013": 0.998075682872,
			"0.014": 0.0912477803587,
			"0.015": 0.0,
			"0.016": 0.0,
			"0.017": 0.0,
			"0.018": 0.0,
			"0.019": 0.0,
			"0.02": 0.0,
			"0.021": 0.0,
			"0.022": 0.0,
			"0.023": 0.0,
			"0.024": 0.0,
			"0.025": 0.0
		}
	}
}
