{
	 "smiles": "CCC(C(O)=O)C1(O)CCCCC1", 
	 "Tm": 354.65, 
	 "num_atms": 31, 
	 "gaussian": { 
		 "optdone": 1, 
		 "sigma_profile": "yes", 
		 "theory": "DFT", 
		 "functional": "B3LYP", 
		 "basiset": "6-31G**", 
		 "properties": { 
			 "R2extent": 2506.7649, 
			 "electric_dipole_moment_norm": 4.19182592792, 
			 "electric_quadrupole_moment_norm": 8.42453926515, 
			 "total_energy": -617.614480618, 
			 "HOMO_LUMO_gap": 0.25116, 
			 "cosmo_polarized_energy": -14.7, 
			 "cosmo_cavitation_energy": 29.93, 
			 "cosmo_dispersion_energy": -21.49, 
			 "cosmo_repulsion_energy": 1.69, 
			 "cosmo_total_nonelectrostatic_energy": 10.13, 
			 "SMD_solvation_energy": 5.04 
		},
		"coords": [
			{
				"x": 2.96858186,
				"y": 1.0525440721,
				"z": 0.7828430768,
				"element": "C" 
			},
			{
				"x": 1.5211336114,
				"y": 1.3080825356,
				"z": 0.3461980604,
				"element": "C" 
			},
			{
				"x": 0.7598983801,
				"y": 0.0403144944,
				"z": -0.1169730251,
				"element": "C" 
			},
			{
				"x": 1.5413130478,
				"y": -0.596579605,
				"z": -1.2651397902,
				"element": "C" 
			},
			{
				"x": 2.317059859,
				"y": -1.6669200896,
				"z": -0.9720561893,
				"element": "O" 
			},
			{
				"x": 1.5232122307,
				"y": -0.1778067013,
				"z": -2.4050471605,
				"element": "O" 
			},
			{
				"x": -0.7126353153,
				"y": 0.3358237321,
				"z": -0.5848234601,
				"element": "C" 
			},
			{
				"x": -0.6884844134,
				"y": 1.3145767927,
				"z": -1.6165658315,
				"element": "O" 
			},
			{
				"x": -1.5746378263,
				"y": 0.9381134333,
				"z": 0.5419273511,
				"element": "C" 
			},
			{
				"x": -1.901353774,
				"y": -0.0506706926,
				"z": 1.6714364284,
				"element": "C" 
			},
			{
				"x": -2.5745534578,
				"y": -1.3217478543,
				"z": 1.1316556642,
				"element": "C" 
			},
			{
				"x": -1.7424811707,
				"y": -1.9659871328,
				"z": 0.0130493147,
				"element": "C" 
			},
			{
				"x": -1.4114921426,
				"y": -0.9514703772,
				"z": -1.0945216959,
				"element": "C" 
			},
			{
				"x": 3.0199267309,
				"y": 0.3307952969,
				"z": 1.6079767127,
				"element": "H" 
			},
			{
				"x": 3.4300724739,
				"y": 1.9799038605,
				"z": 1.1353910091,
				"element": "H" 
			},
			{
				"x": 3.5876299908,
				"y": 0.6710812743,
				"z": -0.0356360954,
				"element": "H" 
			},
			{
				"x": 1.4890460178,
				"y": 2.0359387858,
				"z": -0.4694182946,
				"element": "H" 
			},
			{
				"x": 0.9717207332,
				"y": 1.7502224868,
				"z": 1.1826146314,
				"element": "H" 
			},
			{
				"x": 0.7252603228,
				"y": -0.6653559985,
				"z": 0.7232512898,
				"element": "H" 
			},
			{
				"x": 2.2435569448,
				"y": -1.8778222662,
				"z": -0.0308922176,
				"element": "H" 
			},
			{
				"x": -0.046160992,
				"y": 1.0009042717,
				"z": -2.2779113679,
				"element": "H" 
			},
			{
				"x": -1.1052518376,
				"y": 1.845216008,
				"z": 0.933693245,
				"element": "H" 
			},
			{
				"x": -2.505611108,
				"y": 1.2650542372,
				"z": 0.062625078,
				"element": "H" 
			},
			{
				"x": -2.5511917983,
				"y": 0.4384387838,
				"z": 2.4064935717,
				"element": "H" 
			},
			{
				"x": -0.9857266846,
				"y": -0.3234622717,
				"z": 2.215472196,
				"element": "H" 
			},
			{
				"x": -3.5638499782,
				"y": -1.0584378903,
				"z": 0.7323339103,
				"element": "H" 
			},
			{
				"x": -2.745851132,
				"y": -2.0385000281,
				"z": 1.9436187392,
				"element": "H" 
			},
			{
				"x": -0.8176346359,
				"y": -2.3827758693,
				"z": 0.4372818434,
				"element": "H" 
			},
			{
				"x": -2.2812764499,
				"y": -2.8172121701,
				"z": -0.4193646341,
				"element": "H" 
			},
			{
				"x": -0.8133990504,
				"y": -1.4199951824,
				"z": -1.8844717274,
				"element": "H" 
			},
			{
				"x": -2.341320436,
				"y": -0.620865936,
				"z": -1.5730406327,
				"element": "H" 
			}
		],
		 "valence_orbital": [ 
			{
				"type": "occ",
				"energy": -0.31895,
				"method": "rhf"
			},
			{
				"type": "occ",
				"energy": -0.31674,
				"method": "rhf"
			},
			{
				"type": "occ",
				"energy": -0.30527,
				"method": "rhf"
			},
			{
				"type": "occ",
				"energy": -0.27276,
				"method": "rhf"
			},
			{
				"type": "occ",
				"energy": -0.25482,
				"method": "rhf"
			},
			{
				"type": "unocc",
				"energy": -0.00366,
				"method": "rhf"
			},
			{
				"type": "unocc",
				"energy": 0.03624,
				"method": "rhf"
			},
			{
				"type": "unocc",
				"energy": 0.07973,
				"method": "rhf"
			},
			{
				"type": "unocc",
				"energy": 0.09754,
				"method": "rhf"
			},
			{
				"type": "unocc",
				"energy": 0.10379,
				"method": "rhf"
			}
		],
		"cosmo_sigma_profile": { 
			"-0.025": 0.0,
			"-0.024": 0.0,
			"-0.023": 0.0,
			"-0.022": 0.0,
			"-0.021": 0.0,
			"-0.02": 0.0,
			"-0.019": 0.305795087922,
			"-0.018": 0.723994722292,
			"-0.017": 0.640003399065,
			"-0.016": 1.63677487259,
			"-0.015": 0.726993540514,
			"-0.014": 0.744687883926,
			"-0.013": 0.636037589117,
			"-0.012": 1.37692034961,
			"-0.011": 1.42280272933,
			"-0.01": 1.44960476896,
			"-0.009": 1.36857537156,
			"-0.008": 1.11656068,
			"-0.007": 2.14566096119,
			"-0.006": 3.72297288999,
			"-0.005": 4.14311101194,
			"-0.004": 7.80706913653,
			"-0.003": 20.7979359118,
			"-0.002": 32.8712593428,
			"-0.001": 35.7021874668,
			"0.0": 37.4195165919,
			"0.001": 24.7740378503,
			"0.002": 5.51715547559,
			"0.003": 2.76340752836,
			"0.004": 3.42085707135,
			"0.005": 3.47272702504,
			"0.006": 3.01650257873,
			"0.007": 4.08678167056,
			"0.008": 4.19302789851,
			"0.009": 3.81494075215,
			"0.01": 6.23621626354,
			"0.011": 4.282973147,
			"0.012": 2.93228754519,
			"0.013": 2.5422910161,
			"0.014": 1.26804766028,
			"0.015": 1.29328387848,
			"0.016": 0.0,
			"0.017": 0.0,
			"0.018": 0.0,
			"0.019": 0.0,
			"0.02": 0.0,
			"0.021": 0.0,
			"0.022": 0.0,
			"0.023": 0.0,
			"0.024": 0.0,
			"0.025": 0.0
		}
	}
}
