{
	 "smiles": "OC(=O)C1=CC=CC=C1C1=CC=CC=C1C(O)=O", 
	 "Tm": 504.15, 
	 "num_atms": 28, 
	 "gaussian": { 
		 "optdone": 1, 
		 "sigma_profile": "yes", 
		 "theory": "DFT", 
		 "functional": "B3LYP", 
		 "basiset": "6-31G**", 
		 "properties": { 
			 "R2extent": 4816.4637, 
			 "electric_dipole_moment_norm": 2.56274027166, 
			 "electric_quadrupole_moment_norm": 14.11764978, 
			 "total_energy": -840.442966138, 
			 "HOMO_LUMO_gap": 0.19783, 
			 "cosmo_polarized_energy": -15.77, 
			 "cosmo_cavitation_energy": 32.9, 
			 "cosmo_dispersion_energy": -22.89, 
			 "cosmo_repulsion_energy": 1.79, 
			 "cosmo_total_nonelectrostatic_energy": 11.8, 
			 "SMD_solvation_energy": 8.04 
		},
		"coords": [
			{
				"x": -1.6352245335,
				"y": 0.083988278,
				"z": 0.923426054,
				"element": "O" 
			},
			{
				"x": -1.870669582,
				"y": 1.4028370743,
				"z": 1.1081171788,
				"element": "C" 
			},
			{
				"x": -2.9698991195,
				"y": 1.8091005103,
				"z": 1.4360059104,
				"element": "O" 
			},
			{
				"x": -0.6935598234,
				"y": 2.2889553968,
				"z": 0.8654995555,
				"element": "C" 
			},
			{
				"x": -0.9655537684,
				"y": 3.6628226492,
				"z": 0.9549901529,
				"element": "C" 
			},
			{
				"x": 0.0297961346,
				"y": 4.6125133874,
				"z": 0.7552626371,
				"element": "C" 
			},
			{
				"x": 1.3253503863,
				"y": 4.1897496848,
				"z": 0.4591620271,
				"element": "C" 
			},
			{
				"x": 1.6075135655,
				"y": 2.8276505556,
				"z": 0.367915174,
				"element": "C" 
			},
			{
				"x": 0.6196932618,
				"y": 1.8531070104,
				"z": 0.5739125657,
				"element": "C" 
			},
			{
				"x": 1.0485127152,
				"y": 0.426536542,
				"z": 0.3853990816,
				"element": "C" 
			},
			{
				"x": 1.2652795413,
				"y": 0.0162081831,
				"z": -0.93845949,
				"element": "C" 
			},
			{
				"x": 1.7169673591,
				"y": -1.2665122201,
				"z": -1.2448618781,
				"element": "C" 
			},
			{
				"x": 1.971911938,
				"y": -2.1766655686,
				"z": -0.2194478734,
				"element": "C" 
			},
			{
				"x": 1.7710356779,
				"y": -1.7872491445,
				"z": 1.0998483678,
				"element": "C" 
			},
			{
				"x": 1.3170391977,
				"y": -0.4986416982,
				"z": 1.4205466065,
				"element": "C" 
			},
			{
				"x": 1.1522033561,
				"y": -0.2409369787,
				"z": 2.8820736478,
				"element": "C" 
			},
			{
				"x": 0.8152277616,
				"y": 1.0297596885,
				"z": 3.1992453489,
				"element": "O" 
			},
			{
				"x": 1.3134367397,
				"y": -1.0860179544,
				"z": 3.7427195047,
				"element": "O" 
			},
			{
				"x": -2.4792634255,
				"y": -0.3588671097,
				"z": 1.1137154858,
				"element": "H" 
			},
			{
				"x": -1.9831739571,
				"y": 3.958666352,
				"z": 1.1843922166,
				"element": "H" 
			},
			{
				"x": -0.2035135973,
				"y": 5.6703876978,
				"z": 0.827586567,
				"element": "H" 
			},
			{
				"x": 2.1175387868,
				"y": 4.9153782917,
				"z": 0.2978765829,
				"element": "H" 
			},
			{
				"x": 2.6176337954,
				"y": 2.5013239695,
				"z": 0.1399091263,
				"element": "H" 
			},
			{
				"x": 1.0649402146,
				"y": 0.7218119718,
				"z": -1.738965787,
				"element": "H" 
			},
			{
				"x": 1.868899937,
				"y": -1.5499524579,
				"z": -2.2824992713,
				"element": "H" 
			},
			{
				"x": 2.3255483182,
				"y": -3.1781852728,
				"z": -0.444531362,
				"element": "H" 
			},
			{
				"x": 1.9620679803,
				"y": -2.470234744,
				"z": 1.9200514535,
				"element": "H" 
			},
			{
				"x": 0.7457611396,
				"y": 1.0449659058,
				"z": 4.1686104168,
				"element": "H" 
			}
		],
		 "valence_orbital": [ 
			{
				"type": "occ",
				"energy": -0.27652,
				"method": "rhf"
			},
			{
				"type": "occ",
				"energy": -0.26363,
				"method": "rhf"
			},
			{
				"type": "occ",
				"energy": -0.26297,
				"method": "rhf"
			},
			{
				"type": "occ",
				"energy": -0.25769,
				"method": "rhf"
			},
			{
				"type": "occ",
				"energy": -0.25028,
				"method": "rhf"
			},
			{
				"type": "unocc",
				"energy": -0.05245,
				"method": "rhf"
			},
			{
				"type": "unocc",
				"energy": -0.04649,
				"method": "rhf"
			},
			{
				"type": "unocc",
				"energy": -0.01259,
				"method": "rhf"
			},
			{
				"type": "unocc",
				"energy": -0.00719,
				"method": "rhf"
			},
			{
				"type": "unocc",
				"energy": 0.05345,
				"method": "rhf"
			}
		],
		"cosmo_sigma_profile": { 
			"-0.025": 0.0,
			"-0.024": 0.0,
			"-0.023": 0.0,
			"-0.022": 0.0,
			"-0.021": 0.0,
			"-0.02": 0.0,
			"-0.019": 0.0128639225113,
			"-0.018": 1.49793603746,
			"-0.017": 1.87334411801,
			"-0.016": 1.3430912424,
			"-0.015": 1.80074820437,
			"-0.014": 1.50062364415,
			"-0.013": 1.29074637873,
			"-0.012": 0.785596859295,
			"-0.011": 1.47644539365,
			"-0.01": 1.82354501838,
			"-0.009": 1.07846201183,
			"-0.008": 1.00696181425,
			"-0.007": 5.84998516339,
			"-0.006": 15.3282383645,
			"-0.005": 17.6059323629,
			"-0.004": 16.9687275113,
			"-0.003": 14.0737470698,
			"-0.002": 17.4415254511,
			"-0.001": 17.5128258687,
			"0.0": 17.581521148,
			"0.001": 20.017304134,
			"0.002": 20.6509686256,
			"0.003": 20.6066489985,
			"0.004": 15.3967241452,
			"0.005": 8.31928306212,
			"0.006": 7.4649840306,
			"0.007": 5.72105458753,
			"0.008": 5.25002253314,
			"0.009": 2.83722506373,
			"0.01": 4.39404427759,
			"0.011": 6.75664692056,
			"0.012": 7.96924329445,
			"0.013": 0.240350699087,
			"0.014": 0.0,
			"0.015": 0.0,
			"0.016": 0.0,
			"0.017": 0.0,
			"0.018": 0.0,
			"0.019": 0.0,
			"0.02": 0.0,
			"0.021": 0.0,
			"0.022": 0.0,
			"0.023": 0.0,
			"0.024": 0.0,
			"0.025": 0.0
		}
	}
}
