{
	 "smiles": "OCC(O)CON(=O)=O", 
	 "Tm": 334.15, 
	 "num_atms": 16, 
	 "gaussian": { 
		 "optdone": 1, 
		 "sigma_profile": "yes", 
		 "theory": "DFT", 
		 "functional": "B3LYP", 
		 "basiset": "6-31G**", 
		 "properties": { 
			 "R2extent": 2276.3086, 
			 "electric_dipole_moment_norm": 3.62125153227, 
			 "electric_quadrupole_moment_norm": 15.072132715, 
			 "total_energy": -549.243732395, 
			 "HOMO_LUMO_gap": 0.20943, 
			 "cosmo_polarized_energy": -11.58, 
			 "cosmo_cavitation_energy": 20.73, 
			 "cosmo_dispersion_energy": -15.18, 
			 "cosmo_repulsion_energy": 1.3, 
			 "cosmo_total_nonelectrostatic_energy": 6.85, 
			 "SMD_solvation_energy": 6.7 
		},
		"coords": [
			{
				"x": 2.5279352903,
				"y": -0.2565476786,
				"z": -0.730224775,
				"element": "O" 
			},
			{
				"x": 1.4138027881,
				"y": 0.2479572793,
				"z": -1.4643350961,
				"element": "C" 
			},
			{
				"x": 0.3569342195,
				"y": 0.5848392853,
				"z": -0.415509078,
				"element": "C" 
			},
			{
				"x": 0.0596268563,
				"y": -0.5614265281,
				"z": 0.3617827162,
				"element": "O" 
			},
			{
				"x": -0.9740404776,
				"y": 1.0121971207,
				"z": -1.0295922424,
				"element": "C" 
			},
			{
				"x": -0.8418145622,
				"y": 2.181244427,
				"z": -1.8660005839,
				"element": "O" 
			},
			{
				"x": -0.9073379574,
				"y": 3.4224241103,
				"z": -1.169335372,
				"element": "N" 
			},
			{
				"x": -1.0943612236,
				"y": 3.3924131121,
				"z": 0.0289107484,
				"element": "O" 
			},
			{
				"x": -0.7662841202,
				"y": 4.3657077054,
				"z": -1.9063638696,
				"element": "O" 
			},
			{
				"x": 3.1594617631,
				"y": -0.6434429623,
				"z": -1.3478110039,
				"element": "H" 
			},
			{
				"x": 1.0117628524,
				"y": -0.5132056053,
				"z": -2.1506124172,
				"element": "H" 
			},
			{
				"x": 1.6770399562,
				"y": 1.1409771521,
				"z": -2.0475126299,
				"element": "H" 
			},
			{
				"x": 0.742105061,
				"y": 1.3998929814,
				"z": 0.2169877744,
				"element": "H" 
			},
			{
				"x": 0.9180439736,
				"y": -0.9622066359,
				"z": 0.5663173082,
				"element": "H" 
			},
			{
				"x": -1.3455999309,
				"y": 0.2476194967,
				"z": -1.7170878626,
				"element": "H" 
			},
			{
				"x": -1.7134744885,
				"y": 1.18325674,
				"z": -0.2463136165,
				"element": "H" 
			}
		],
		 "valence_orbital": [ 
			{
				"type": "occ",
				"energy": -0.34041,
				"method": "rhf"
			},
			{
				"type": "occ",
				"energy": -0.32415,
				"method": "rhf"
			},
			{
				"type": "occ",
				"energy": -0.3175,
				"method": "rhf"
			},
			{
				"type": "occ",
				"energy": -0.2939,
				"method": "rhf"
			},
			{
				"type": "occ",
				"energy": -0.27748,
				"method": "rhf"
			},
			{
				"type": "unocc",
				"energy": -0.06805,
				"method": "rhf"
			},
			{
				"type": "unocc",
				"energy": 0.03724,
				"method": "rhf"
			},
			{
				"type": "unocc",
				"energy": 0.05601,
				"method": "rhf"
			},
			{
				"type": "unocc",
				"energy": 0.09319,
				"method": "rhf"
			},
			{
				"type": "unocc",
				"energy": 0.10491,
				"method": "rhf"
			}
		],
		"cosmo_sigma_profile": { 
			"-0.025": 0.0,
			"-0.024": 0.0,
			"-0.023": 0.0,
			"-0.022": 0.0,
			"-0.021": 0.0,
			"-0.02": 0.0,
			"-0.019": 0.0,
			"-0.018": 0.0,
			"-0.017": 0.197619550817,
			"-0.016": 1.08675589973,
			"-0.015": 1.41642118369,
			"-0.014": 0.672197519057,
			"-0.013": 0.849407397995,
			"-0.012": 1.32599948001,
			"-0.011": 1.79124457602,
			"-0.01": 1.27289347154,
			"-0.009": 1.81674311432,
			"-0.008": 4.2664124616,
			"-0.007": 8.41681676786,
			"-0.006": 7.77105928651,
			"-0.005": 10.3614881135,
			"-0.004": 12.3190255897,
			"-0.003": 9.82911994125,
			"-0.002": 9.10041920049,
			"-0.001": 7.28375299263,
			"0.0": 6.89339477378,
			"0.001": 7.97306950833,
			"0.002": 6.0925603365,
			"0.003": 5.13962340695,
			"0.004": 8.22440760201,
			"0.005": 11.1520087938,
			"0.006": 13.3437996975,
			"0.007": 8.98887738436,
			"0.008": 2.55970087887,
			"0.009": 2.58615896563,
			"0.01": 1.98644258493,
			"0.011": 2.53125467267,
			"0.012": 2.27573403396,
			"0.013": 2.32537952229,
			"0.014": 0.305828130693,
			"0.015": 0.0,
			"0.016": 0.0,
			"0.017": 0.0,
			"0.018": 0.0,
			"0.019": 0.0,
			"0.02": 0.0,
			"0.021": 0.0,
			"0.022": 0.0,
			"0.023": 0.0,
			"0.024": 0.0,
			"0.025": 0.0
		}
	}
}
