{
	 "smiles": "CCC1=C(C)CN(C(=O)NCCC2=CC=C(C=C2)S(=O)(=O)NC(=O)NC2CCC(C)CC2)C1=O", 
	 "Tm": 480.15, 
	 "num_atms": 68, 
	 "gaussian": { 
		 "optdone": 1, 
		 "sigma_profile": "yes", 
		 "theory": "DFT", 
		 "functional": "B3LYP", 
		 "basiset": "6-31G**", 
		 "properties": { 
			 "R2extent": 28206.0475, 
			 "electric_dipole_moment_norm": 4.31106932674, 
			 "electric_quadrupole_moment_norm": 68.1553013548, 
			 "total_energy": -1928.35688335, 
			 "HOMO_LUMO_gap": 0.20409, 
			 "cosmo_polarized_energy": -42.64, 
			 "cosmo_cavitation_energy": 70.92, 
			 "cosmo_dispersion_energy": -47.64, 
			 "cosmo_repulsion_energy": 3.63, 
			 "cosmo_total_nonelectrostatic_energy": 26.91, 
			 "SMD_solvation_energy": 10.98 
		},
		"coords": [
			{
				"x": -5.2821931367,
				"y": -1.5299442264,
				"z": -3.384915242,
				"element": "C" 
			},
			{
				"x": -4.8169844272,
				"y": -1.3352657754,
				"z": -4.8401282238,
				"element": "C" 
			},
			{
				"x": -3.3448079638,
				"y": -1.0723464873,
				"z": -4.9475919888,
				"element": "C" 
			},
			{
				"x": -2.6707719227,
				"y": 0.0540628106,
				"z": -5.2430002509,
				"element": "C" 
			},
			{
				"x": -3.1926371644,
				"y": 1.4170565485,
				"z": -5.5710065952,
				"element": "C" 
			},
			{
				"x": -1.1820252636,
				"y": -0.2025619276,
				"z": -5.201069668,
				"element": "C" 
			},
			{
				"x": -1.084038541,
				"y": -1.6104310444,
				"z": -4.8157595137,
				"element": "N" 
			},
			{
				"x": 0.0735971595,
				"y": -2.3926892826,
				"z": -5.0810838671,
				"element": "C" 
			},
			{
				"x": 0.047264491,
				"y": -3.4264271337,
				"z": -5.7188135399,
				"element": "O" 
			},
			{
				"x": 1.2512630151,
				"y": -1.8368720131,
				"z": -4.6138242644,
				"element": "N" 
			},
			{
				"x": 1.4126698106,
				"y": -1.1028843334,
				"z": -3.360184837,
				"element": "C" 
			},
			{
				"x": 2.308901475,
				"y": 0.1422075951,
				"z": -3.5247233462,
				"element": "C" 
			},
			{
				"x": 2.5045636753,
				"y": 0.8747513013,
				"z": -2.216249789,
				"element": "C" 
			},
			{
				"x": 1.6431238209,
				"y": 1.9160485484,
				"z": -1.8430415562,
				"element": "C" 
			},
			{
				"x": 1.7896484768,
				"y": 2.566364458,
				"z": -0.6193619442,
				"element": "C" 
			},
			{
				"x": 2.8128431653,
				"y": 2.1622612812,
				"z": 0.2391323687,
				"element": "C" 
			},
			{
				"x": 3.6947342903,
				"y": 1.1362252193,
				"z": -0.105794013,
				"element": "C" 
			},
			{
				"x": 3.5275637577,
				"y": 0.4985877648,
				"z": -1.3328617271,
				"element": "C" 
			},
			{
				"x": 3.0261475806,
				"y": 3.0357491163,
				"z": 1.7846218839,
				"element": "S" 
			},
			{
				"x": 2.1928870701,
				"y": 4.2422268756,
				"z": 1.7666862692,
				"element": "O" 
			},
			{
				"x": 4.44891498,
				"y": 3.0993675536,
				"z": 2.0966242629,
				"element": "O" 
			},
			{
				"x": 2.2026170885,
				"y": 2.0638060771,
				"z": 2.9310094048,
				"element": "N" 
			},
			{
				"x": 2.7223158525,
				"y": 0.8490932699,
				"z": 3.4260276421,
				"element": "C" 
			},
			{
				"x": 3.6063488755,
				"y": 0.2373265857,
				"z": 2.8437102678,
				"element": "O" 
			},
			{
				"x": 2.1316267871,
				"y": 0.4309748874,
				"z": 4.5851972385,
				"element": "N" 
			},
			{
				"x": 2.443783254,
				"y": -0.8886314702,
				"z": 5.1587146608,
				"element": "C" 
			},
			{
				"x": 1.6569841037,
				"y": -2.0156476089,
				"z": 4.4694146271,
				"element": "C" 
			},
			{
				"x": 0.1307551743,
				"y": -1.8879169117,
				"z": 4.6709755777,
				"element": "C" 
			},
			{
				"x": -0.2628455561,
				"y": -1.2997943596,
				"z": 6.0539457901,
				"element": "C" 
			},
			{
				"x": -1.6276916818,
				"y": -1.818172039,
				"z": 6.5198587328,
				"element": "C" 
			},
			{
				"x": 0.8491046375,
				"y": -1.57250175,
				"z": 7.0795850842,
				"element": "C" 
			},
			{
				"x": 2.1776755812,
				"y": -0.8893797394,
				"z": 6.6879700832,
				"element": "C" 
			},
			{
				"x": -2.3737534403,
				"y": -2.177245145,
				"z": -4.699596226,
				"element": "C" 
			},
			{
				"x": -2.625310308,
				"y": -3.3305412527,
				"z": -4.4136697622,
				"element": "O" 
			},
			{
				"x": -6.353740953,
				"y": -1.7503375931,
				"z": -3.3498424767,
				"element": "H" 
			},
			{
				"x": -4.74663326,
				"y": -2.3641338721,
				"z": -2.9247867884,
				"element": "H" 
			},
			{
				"x": -5.1004314554,
				"y": -0.6303335136,
				"z": -2.7875242547,
				"element": "H" 
			},
			{
				"x": -5.3805561906,
				"y": -0.5217565986,
				"z": -5.3095810456,
				"element": "H" 
			},
			{
				"x": -5.0403250717,
				"y": -2.248713636,
				"z": -5.4040109088,
				"element": "H" 
			},
			{
				"x": -4.2842011266,
				"y": 1.4400862838,
				"z": -5.5884429428,
				"element": "H" 
			},
			{
				"x": -2.8294600115,
				"y": 1.7533265494,
				"z": -6.5502914604,
				"element": "H" 
			},
			{
				"x": -2.851003876,
				"y": 2.1576833491,
				"z": -4.8365939705,
				"element": "H" 
			},
			{
				"x": -0.6890129966,
				"y": 0.4629195751,
				"z": -4.4790358324,
				"element": "H" 
			},
			{
				"x": -0.7108818392,
				"y": -0.0247388927,
				"z": -6.1778069628,
				"element": "H" 
			},
			{
				"x": 2.0346838388,
				"y": -2.4218493266,
				"z": -4.878780758,
				"element": "H" 
			},
			{
				"x": 1.8438141918,
				"y": -1.7602556165,
				"z": -2.5929170638,
				"element": "H" 
			},
			{
				"x": 0.4238449437,
				"y": -0.8151488966,
				"z": -2.9980205713,
				"element": "H" 
			},
			{
				"x": 3.2801229923,
				"y": -0.1724232999,
				"z": -3.9249383061,
				"element": "H" 
			},
			{
				"x": 1.8604930775,
				"y": 0.8054308799,
				"z": -4.2724185684,
				"element": "H" 
			},
			{
				"x": 0.8560438744,
				"y": 2.2320917006,
				"z": -2.5230951651,
				"element": "H" 
			},
			{
				"x": 1.1388561306,
				"y": 3.3856338344,
				"z": -0.3349496434,
				"element": "H" 
			},
			{
				"x": 4.4763642176,
				"y": 0.8418405415,
				"z": 0.5832525379,
				"element": "H" 
			},
			{
				"x": 4.210439404,
				"y": -0.2993588803,
				"z": -1.6128316909,
				"element": "H" 
			},
			{
				"x": 1.6061671973,
				"y": 2.6460972998,
				"z": 3.5093821584,
				"element": "H" 
			},
			{
				"x": 1.3098629972,
				"y": 0.9100201389,
				"z": 4.9232104678,
				"element": "H" 
			},
			{
				"x": 3.5087817957,
				"y": -1.0330546994,
				"z": 4.9648734372,
				"element": "H" 
			},
			{
				"x": 2.0096269324,
				"y": -2.9653587871,
				"z": 4.8910087677,
				"element": "H" 
			},
			{
				"x": 1.9096502718,
				"y": -2.0369604512,
				"z": 3.4051762808,
				"element": "H" 
			},
			{
				"x": -0.3212053293,
				"y": -2.8812963952,
				"z": 4.5601887904,
				"element": "H" 
			},
			{
				"x": -0.3053320042,
				"y": -1.2706188558,
				"z": 3.8770214678,
				"element": "H" 
			},
			{
				"x": -0.3510796723,
				"y": -0.2052186032,
				"z": 5.9535976838,
				"element": "H" 
			},
			{
				"x": -1.9424130177,
				"y": -1.3384247614,
				"z": 7.4530881384,
				"element": "H" 
			},
			{
				"x": -2.4020449313,
				"y": -1.6303000192,
				"z": 5.7678913245,
				"element": "H" 
			},
			{
				"x": -1.5922933897,
				"y": -2.9000785378,
				"z": 6.694950104,
				"element": "H" 
			},
			{
				"x": 0.9937851508,
				"y": -2.6585344753,
				"z": 7.1584361361,
				"element": "H" 
			},
			{
				"x": 0.5419822741,
				"y": -1.2351418196,
				"z": 8.0764336442,
				"element": "H" 
			},
			{
				"x": 3.0085549929,
				"y": -1.3919835286,
				"z": 7.1940491122,
				"element": "H" 
			},
			{
				"x": 2.190366125,
				"y": 0.1464335151,
				"z": 7.04751082,
				"element": "H" 
			}
		],
		 "valence_orbital": [ 
			{
				"type": "occ",
				"energy": -0.26201,
				"method": "rhf"
			},
			{
				"type": "occ",
				"energy": -0.25973,
				"method": "rhf"
			},
			{
				"type": "occ",
				"energy": -0.25744,
				"method": "rhf"
			},
			{
				"type": "occ",
				"energy": -0.25034,
				"method": "rhf"
			},
			{
				"type": "occ",
				"energy": -0.24724,
				"method": "rhf"
			},
			{
				"type": "unocc",
				"energy": -0.04315,
				"method": "rhf"
			},
			{
				"type": "unocc",
				"energy": -0.03469,
				"method": "rhf"
			},
			{
				"type": "unocc",
				"energy": -0.02289,
				"method": "rhf"
			},
			{
				"type": "unocc",
				"energy": 0.01923,
				"method": "rhf"
			},
			{
				"type": "unocc",
				"energy": 0.02761,
				"method": "rhf"
			}
		],
		"cosmo_sigma_profile": { 
			"-0.025": 0.0,
			"-0.024": 0.0,
			"-0.023": 0.0,
			"-0.022": 0.0,
			"-0.021": 0.0,
			"-0.02": 0.0,
			"-0.019": 0.503505649904,
			"-0.018": 0.982643806555,
			"-0.017": 1.27882966103,
			"-0.016": 1.15674848031,
			"-0.015": 1.12516847834,
			"-0.014": 1.70347103713,
			"-0.013": 2.41895626374,
			"-0.012": 3.64903677203,
			"-0.011": 1.95301191811,
			"-0.01": 2.20419553246,
			"-0.009": 2.85821300613,
			"-0.008": 3.84752333621,
			"-0.007": 12.5899051279,
			"-0.006": 24.0665635527,
			"-0.005": 32.4916767292,
			"-0.004": 28.7273687351,
			"-0.003": 46.7715113057,
			"-0.002": 59.8920621886,
			"-0.001": 68.1830687749,
			"0.0": 58.843032438,
			"0.001": 48.43597558,
			"0.002": 29.6365357117,
			"0.003": 19.1239025768,
			"0.004": 9.90654699185,
			"0.005": 7.32205420439,
			"0.006": 7.07047821926,
			"0.007": 8.34748087031,
			"0.008": 6.80712946719,
			"0.009": 8.17380403429,
			"0.01": 15.3943578884,
			"0.011": 11.6156981102,
			"0.012": 9.10831161062,
			"0.013": 12.4084979584,
			"0.014": 3.99068887217,
			"0.015": 2.12838552514,
			"0.016": 0.636999059541,
			"0.017": 0.0,
			"0.018": 0.0,
			"0.019": 0.0,
			"0.02": 0.0,
			"0.021": 0.0,
			"0.022": 0.0,
			"0.023": 0.0,
			"0.024": 0.0,
			"0.025": 0.0
		}
	}
}
