{
	 "smiles": "CC1=NC(=CS1)C1=CC=CC(C=O)=C1", 
	 "Tm": 351.15, 
	 "num_atms": 23, 
	 "gaussian": { 
		 "optdone": 1, 
		 "sigma_profile": "yes", 
		 "theory": "DFT", 
		 "functional": "B3LYP", 
		 "basiset": "6-31G**", 
		 "properties": { 
			 "R2extent": 4585.9884, 
			 "electric_dipole_moment_norm": 4.50940541646, 
			 "electric_quadrupole_moment_norm": 11.8853797747, 
			 "total_energy": -952.754690062, 
			 "HOMO_LUMO_gap": 0.16204, 
			 "cosmo_polarized_energy": -10.4, 
			 "cosmo_cavitation_energy": 29.56, 
			 "cosmo_dispersion_energy": -22.03, 
			 "cosmo_repulsion_energy": 1.67, 
			 "cosmo_total_nonelectrostatic_energy": 9.2, 
			 "SMD_solvation_energy": 4.83 
		},
		"coords": [
			{
				"x": -3.9412143045,
				"y": 2.7948306123,
				"z": -0.3635697227,
				"element": "C" 
			},
			{
				"x": -2.8327047449,
				"y": 2.387035907,
				"z": 0.5579344709,
				"element": "C" 
			},
			{
				"x": -1.7515428209,
				"y": 1.7752849759,
				"z": 0.1813146941,
				"element": "N" 
			},
			{
				"x": -0.8933746629,
				"y": 1.5163329289,
				"z": 1.2392373199,
				"element": "C" 
			},
			{
				"x": -1.3504959924,
				"y": 1.9519763916,
				"z": 2.4576570603,
				"element": "C" 
			},
			{
				"x": -2.8969001166,
				"y": 2.7093749428,
				"z": 2.2920410523,
				"element": "S" 
			},
			{
				"x": 0.3813739191,
				"y": 0.82380615,
				"z": 0.9666785558,
				"element": "C" 
			},
			{
				"x": 1.3025497002,
				"y": 0.5244090437,
				"z": 1.984622548,
				"element": "C" 
			},
			{
				"x": 2.5026421426,
				"y": -0.1316714962,
				"z": 1.7031419547,
				"element": "C" 
			},
			{
				"x": 2.8099773866,
				"y": -0.5037005807,
				"z": 0.3983146072,
				"element": "C" 
			},
			{
				"x": 1.9015586762,
				"y": -0.2125004654,
				"z": -0.6298888098,
				"element": "C" 
			},
			{
				"x": 2.2076549598,
				"y": -0.5990996394,
				"z": -2.026892863,
				"element": "C" 
			},
			{
				"x": 3.2212997341,
				"y": -1.17212186,
				"z": -2.3792419588,
				"element": "O" 
			},
			{
				"x": 0.7008686752,
				"y": 0.4443239836,
				"z": -0.3456579065,
				"element": "C" 
			},
			{
				"x": -4.1021177957,
				"y": 3.8777755405,
				"z": -0.3433512033,
				"element": "H" 
			},
			{
				"x": -3.6745558553,
				"y": 2.4978060542,
				"z": -1.3793591626,
				"element": "H" 
			},
			{
				"x": -4.8862856959,
				"y": 2.3128518709,
				"z": -0.0920208219,
				"element": "H" 
			},
			{
				"x": -0.8795101422,
				"y": 1.8750494238,
				"z": 3.4263951804,
				"element": "H" 
			},
			{
				"x": 1.0854961215,
				"y": 0.8044181163,
				"z": 3.0111300371,
				"element": "H" 
			},
			{
				"x": 3.1952827682,
				"y": -0.3498416979,
				"z": 2.5106920986,
				"element": "H" 
			},
			{
				"x": 3.7347190448,
				"y": -1.0144030681,
				"z": 0.1501816819,
				"element": "H" 
			},
			{
				"x": 1.4219770861,
				"y": -0.3222296179,
				"z": -2.7647707596,
				"element": "H" 
			},
			{
				"x": -0.0025980829,
				"y": 0.6698924841,
				"z": -1.1411880528,
				"element": "H" 
			}
		],
		 "valence_orbital": [ 
			{
				"type": "occ",
				"energy": -0.28156,
				"method": "rhf"
			},
			{
				"type": "occ",
				"energy": -0.28102,
				"method": "rhf"
			},
			{
				"type": "occ",
				"energy": -0.26367,
				"method": "rhf"
			},
			{
				"type": "occ",
				"energy": -0.25127,
				"method": "rhf"
			},
			{
				"type": "occ",
				"energy": -0.22606,
				"method": "rhf"
			},
			{
				"type": "unocc",
				"energy": -0.06402,
				"method": "rhf"
			},
			{
				"type": "unocc",
				"energy": -0.03714,
				"method": "rhf"
			},
			{
				"type": "unocc",
				"energy": -0.01662,
				"method": "rhf"
			},
			{
				"type": "unocc",
				"energy": 0.00975,
				"method": "rhf"
			},
			{
				"type": "unocc",
				"energy": 0.02973,
				"method": "rhf"
			}
		],
		"cosmo_sigma_profile": { 
			"-0.025": 0.0,
			"-0.024": 0.0,
			"-0.023": 0.0,
			"-0.022": 0.0,
			"-0.021": 0.0,
			"-0.02": 0.0,
			"-0.019": 0.0,
			"-0.018": 0.0,
			"-0.017": 0.0,
			"-0.016": 0.0,
			"-0.015": 0.0,
			"-0.014": 0.0,
			"-0.013": 0.0,
			"-0.012": 0.0,
			"-0.011": 0.0,
			"-0.01": 1.01676454339,
			"-0.009": 2.80733939675,
			"-0.008": 3.04826626785,
			"-0.007": 5.86548006127,
			"-0.006": 14.8922481213,
			"-0.005": 17.6469771626,
			"-0.004": 17.5929135024,
			"-0.003": 16.2069624171,
			"-0.002": 16.5340336152,
			"-0.001": 15.8242636361,
			"0.0": 14.8098746954,
			"0.001": 22.2557916009,
			"0.002": 26.4278136715,
			"0.003": 27.5403080247,
			"0.004": 8.17427128052,
			"0.005": 3.32625187757,
			"0.006": 3.20707883221,
			"0.007": 3.80358768025,
			"0.008": 3.26507179763,
			"0.009": 2.85721827635,
			"0.01": 4.11062805357,
			"0.011": 4.97901331851,
			"0.012": 2.88797177788,
			"0.013": 0.74035392804,
			"0.014": 0.0,
			"0.015": 0.0,
			"0.016": 0.0,
			"0.017": 0.0,
			"0.018": 0.0,
			"0.019": 0.0,
			"0.02": 0.0,
			"0.021": 0.0,
			"0.022": 0.0,
			"0.023": 0.0,
			"0.024": 0.0,
			"0.025": 0.0
		}
	}
}
