{
	 "smiles": "FC1=C(F)C(F)=C(I)C(F)=C1F", 
	 "Tm": 244.15, 
	 "num_atms": 12, 
	 "gaussian": { 
		 "optdone": 1, 
		 "sigma_profile": "no", 
		 "theory": "DFT", 
		 "functional": "B3LYP", 
		 "basiset": "6-31G**", 
		 "properties": { 
			 "R2extent": 3442.9508, 
			 "electric_dipole_moment_norm": 0.533417556891, 
			 "electric_quadrupole_moment_norm": 4.16802146348, 
			 "total_energy": -739.151077385, 
			 "HOMO_LUMO_gap": 0.19378, 
			 "cosmo_polarized_energy": -90545.37, 
			 "cosmo_cavitation_energy": 22.91, 
			 "cosmo_dispersion_energy": -17.6, 
			 "cosmo_repulsion_energy": 1.27, 
			 "cosmo_total_nonelectrostatic_energy": 6.58, 
			 "SMD_solvation_energy": 5.6 
		},
		"coords": [
			{
				"x": 3.2558204299,
				"y": 3.1226555934,
				"z": -0.486130562,
				"element": "F" 
			},
			{
				"x": 2.6638825947,
				"y": 1.9726908382,
				"z": -0.1605530886,
				"element": "C" 
			},
			{
				"x": 1.4147764923,
				"y": 1.657216319,
				"z": -0.690460148,
				"element": "C" 
			},
			{
				"x": 0.8102462184,
				"y": 2.5077276438,
				"z": -1.5251917253,
				"element": "F" 
			},
			{
				"x": 0.8004858533,
				"y": 0.454321806,
				"z": -0.3471120207,
				"element": "C" 
			},
			{
				"x": -0.3964762544,
				"y": 0.1855382213,
				"z": -0.8742590769,
				"element": "F" 
			},
			{
				"x": 1.4199543923,
				"y": -0.4439076918,
				"z": 0.5236708705,
				"element": "C" 
			},
			{
				"x": 0.4913748708,
				"y": -2.2475705734,
				"z": 1.0343302727,
				"element": "I" 
			},
			{
				"x": 2.6715501591,
				"y": -0.1141712312,
				"z": 1.0467784678,
				"element": "C" 
			},
			{
				"x": 3.3054313925,
				"y": -0.9392350764,
				"z": 1.8836275707,
				"element": "F" 
			},
			{
				"x": 3.2942737956,
				"y": 1.0861581329,
				"z": 0.7096687844,
				"element": "C" 
			},
			{
				"x": 4.4924800554,
				"y": 1.3889760182,
				"z": 1.2178306555,
				"element": "F" 
			}
		],
		 "valence_orbital": [ 
			{
				"type": "occ",
				"energy": -0.37375,
				"method": "rhf"
			},
			{
				"type": "occ",
				"energy": -0.31334,
				"method": "rhf"
			},
			{
				"type": "occ",
				"energy": -0.28893,
				"method": "rhf"
			},
			{
				"type": "occ",
				"energy": -0.26753,
				"method": "rhf"
			},
			{
				"type": "occ",
				"energy": -0.26074,
				"method": "rhf"
			},
			{
				"type": "unocc",
				"energy": -0.06696,
				"method": "rhf"
			},
			{
				"type": "unocc",
				"energy": -0.04134,
				"method": "rhf"
			},
			{
				"type": "unocc",
				"energy": -0.02836,
				"method": "rhf"
			},
			{
				"type": "unocc",
				"energy": 0.00727,
				"method": "rhf"
			},
			{
				"type": "unocc",
				"energy": 0.04164,
				"method": "rhf"
			}
		],
		"cosmo_sigma_profile": { 
			"0.0": 0.0,
			"0.0": 0.0,
			"0.0": 0.0,
			"0.0": 0.0,
			"0.0": 0.0,
			"0.0": 0.0,
			"0.0": 0.0,
			"0.0": 0.0,
			"0.0": 0.0,
			"0.0": 0.0,
			"0.0": 0.0,
			"0.0": 0.0,
			"0.0": 0.0,
			"0.0": 0.0,
			"0.0": 0.0,
			"0.0": 0.0,
			"0.0": 0.0,
			"0.0": 0.0,
			"0.0": 0.0,
			"0.0": 0.0,
			"0.0": 0.0,
			"0.0": 0.0,
			"0.0": 0.0,
			"0.0": 0.0,
			"0.0": 0.0,
			"0.0": 0.0,
			"0.0": 0.0,
			"0.0": 0.0,
			"0.0": 0.0,
			"0.0": 0.0,
			"0.0": 0.0,
			"0.0": 0.0,
			"0.0": 0.0,
			"0.0": 0.0,
			"0.0": 0.0,
			"0.0": 0.0,
			"0.0": 0.0,
			"0.0": 0.0,
			"0.0": 0.0,
			"0.0": 0.0,
			"0.0": 0.0,
			"0.0": 0.0,
			"0.0": 0.0,
			"0.0": 0.0,
			"0.0": 0.0,
			"0.0": 0.0,
			"0.0": 0.0,
			"0.0": 0.0,
			"0.0": 0.0,
			"0.0": 0.0,
			"0.0": 0.0
		}
	}
}
