{
	 "smiles": "CC(C)CCC(C)C", 
	 "Tm": 182.15, 
	 "num_atms": 26, 
	 "gaussian": { 
		 "optdone": 1, 
		 "sigma_profile": "yes", 
		 "theory": "DFT", 
		 "functional": "B3LYP", 
		 "basiset": "6-31G**", 
		 "properties": { 
			 "R2extent": 1737.6643, 
			 "electric_dipole_moment_norm": 0.108812039775, 
			 "electric_quadrupole_moment_norm": 0.272876638795, 
			 "total_energy": -315.729174262, 
			 "HOMO_LUMO_gap": 0.37684, 
			 "cosmo_polarized_energy": -0.7, 
			 "cosmo_cavitation_energy": 26.07, 
			 "cosmo_dispersion_energy": -18.42, 
			 "cosmo_repulsion_energy": 1.55, 
			 "cosmo_total_nonelectrostatic_energy": 9.19, 
			 "SMD_solvation_energy": 4.42 
		},
		"coords": [
			{
				"x": -2.0962499967,
				"y": -0.2641496992,
				"z": -2.1449072716,
				"element": "C" 
			},
			{
				"x": -0.7035247652,
				"y": 0.3487696932,
				"z": -1.9310259294,
				"element": "C" 
			},
			{
				"x": 0.0066524692,
				"y": 0.5481473342,
				"z": -3.2785481474,
				"element": "C" 
			},
			{
				"x": 0.1743566154,
				"y": -0.4883854562,
				"z": -0.9769955448,
				"element": "C" 
			},
			{
				"x": -0.3561515406,
				"y": -0.5853599053,
				"z": 0.461935887,
				"element": "C" 
			},
			{
				"x": 0.555550779,
				"y": -1.3151690058,
				"z": 1.4764388059,
				"element": "C" 
			},
			{
				"x": 1.8891388793,
				"y": -0.5874579104,
				"z": 1.7094051627,
				"element": "C" 
			},
			{
				"x": 0.7876772493,
				"y": -2.7888840207,
				"z": 1.1071762391,
				"element": "C" 
			},
			{
				"x": -2.6896444837,
				"y": 0.3444727723,
				"z": -2.8360810726,
				"element": "H" 
			},
			{
				"x": -2.6606476753,
				"y": -0.3451116142,
				"z": -1.2111008413,
				"element": "H" 
			},
			{
				"x": -2.0164150122,
				"y": -1.270402696,
				"z": -2.5753620137,
				"element": "H" 
			},
			{
				"x": -0.8385351783,
				"y": 1.3407690887,
				"z": -1.473159151,
				"element": "H" 
			},
			{
				"x": -0.5870356661,
				"y": 1.1745945164,
				"z": -3.9533607699,
				"element": "H" 
			},
			{
				"x": 0.9837839992,
				"y": 1.0266660873,
				"z": -3.1494430146,
				"element": "H" 
			},
			{
				"x": 0.1717713631,
				"y": -0.4136193637,
				"z": -3.779984493,
				"element": "H" 
			},
			{
				"x": 1.1787711523,
				"y": -0.0458286407,
				"z": -0.9643189662,
				"element": "H" 
			},
			{
				"x": 0.2907238898,
				"y": -1.4946949607,
				"z": -1.4033207206,
				"element": "H" 
			},
			{
				"x": -1.3299148595,
				"y": -1.0915612912,
				"z": 0.4582063638,
				"element": "H" 
			},
			{
				"x": -0.5441884283,
				"y": 0.4313155879,
				"z": 0.8363673004,
				"element": "H" 
			},
			{
				"x": 0.0117683593,
				"y": -1.3032357477,
				"z": 2.4324119271,
				"element": "H" 
			},
			{
				"x": 2.4556340726,
				"y": -1.0618878706,
				"z": 2.5182865641,
				"element": "H" 
			},
			{
				"x": 1.7291287602,
				"y": 0.4611180976,
				"z": 1.984851866,
				"element": "H" 
			},
			{
				"x": 2.5230248084,
				"y": -0.6045867361,
				"z": 0.8158942018,
				"element": "H" 
			},
			{
				"x": -0.1604575509,
				"y": -3.3163832568,
				"z": 0.952712869,
				"element": "H" 
			},
			{
				"x": 1.3770373357,
				"y": -2.8869997332,
				"z": 0.1887230488,
				"element": "H" 
			},
			{
				"x": 1.3333454239,
				"y": -3.309535269,
				"z": 1.9017977004,
				"element": "H" 
			}
		],
		 "valence_orbital": [ 
			{
				"type": "occ",
				"energy": -0.32859,
				"method": "rhf"
			},
			{
				"type": "occ",
				"energy": -0.31991,
				"method": "rhf"
			},
			{
				"type": "occ",
				"energy": -0.30984,
				"method": "rhf"
			},
			{
				"type": "occ",
				"energy": -0.30257,
				"method": "rhf"
			},
			{
				"type": "occ",
				"energy": -0.29588,
				"method": "rhf"
			},
			{
				"type": "unocc",
				"energy": 0.08096,
				"method": "rhf"
			},
			{
				"type": "unocc",
				"energy": 0.09928,
				"method": "rhf"
			},
			{
				"type": "unocc",
				"energy": 0.11887,
				"method": "rhf"
			},
			{
				"type": "unocc",
				"energy": 0.12061,
				"method": "rhf"
			},
			{
				"type": "unocc",
				"energy": 0.14541,
				"method": "rhf"
			}
		],
		"cosmo_sigma_profile": { 
			"-0.025": 0.0,
			"-0.024": 0.0,
			"-0.023": 0.0,
			"-0.022": 0.0,
			"-0.021": 0.0,
			"-0.02": 0.0,
			"-0.019": 0.0,
			"-0.018": 0.0,
			"-0.017": 0.0,
			"-0.016": 0.0,
			"-0.015": 0.0,
			"-0.014": 0.0,
			"-0.013": 0.0,
			"-0.012": 0.0,
			"-0.011": 0.0,
			"-0.01": 0.0,
			"-0.009": 0.0,
			"-0.008": 0.0,
			"-0.007": 0.0,
			"-0.006": 0.0,
			"-0.005": 0.0,
			"-0.004": 0.0,
			"-0.003": 3.11922630358,
			"-0.002": 27.1933494768,
			"-0.001": 46.5032022581,
			"0.0": 46.4363146042,
			"0.001": 43.906026002,
			"0.002": 29.5924003205,
			"0.003": 2.36983933484,
			"0.004": 0.0,
			"0.005": 0.0,
			"0.006": 0.0,
			"0.007": 0.0,
			"0.008": 0.0,
			"0.009": 0.0,
			"0.01": 0.0,
			"0.011": 0.0,
			"0.012": 0.0,
			"0.013": 0.0,
			"0.014": 0.0,
			"0.015": 0.0,
			"0.016": 0.0,
			"0.017": 0.0,
			"0.018": 0.0,
			"0.019": 0.0,
			"0.02": 0.0,
			"0.021": 0.0,
			"0.022": 0.0,
			"0.023": 0.0,
			"0.024": 0.0,
			"0.025": 0.0
		}
	}
}
