{
	 "smiles": "OC(=O)C1=C(SC2=CC3=C(OCCO3)C=C2)N=CC=C1", 
	 "Tm": 502.15, 
	 "num_atms": 31, 
	 "gaussian": { 
		 "optdone": 1, 
		 "sigma_profile": "yes", 
		 "theory": "DFT", 
		 "functional": "B3LYP", 
		 "basiset": "6-31G**", 
		 "properties": { 
			 "R2extent": 8459.2148, 
			 "electric_dipole_moment_norm": 6.77906709437, 
			 "electric_quadrupole_moment_norm": 31.4337813963, 
			 "total_energy": -1293.93292349, 
			 "HOMO_LUMO_gap": 0.16728, 
			 "cosmo_polarized_energy": -16.37, 
			 "cosmo_cavitation_energy": 37.06, 
			 "cosmo_dispersion_energy": -27.49, 
			 "cosmo_repulsion_energy": 2.05, 
			 "cosmo_total_nonelectrostatic_energy": 11.63, 
			 "SMD_solvation_energy": 6.68 
		},
		"coords": [
			{
				"x": -3.548459047,
				"y": 2.4798266511,
				"z": 2.8881612689,
				"element": "O" 
			},
			{
				"x": -4.0508899931,
				"y": 1.3517846755,
				"z": 3.4126106312,
				"element": "C" 
			},
			{
				"x": -5.1243428658,
				"y": 1.3649767061,
				"z": 3.9754702249,
				"element": "O" 
			},
			{
				"x": -3.2788795073,
				"y": 0.0554469161,
				"z": 3.2575133996,
				"element": "C" 
			},
			{
				"x": -1.9443065314,
				"y": -0.1359401492,
				"z": 2.8337199518,
				"element": "C" 
			},
			{
				"x": -0.8295650928,
				"y": 1.2691444555,
				"z": 2.5471492036,
				"element": "S" 
			},
			{
				"x": 0.0889173008,
				"y": 0.7685099426,
				"z": 1.0932266613,
				"element": "C" 
			},
			{
				"x": -0.2914465684,
				"y": 1.2510559734,
				"z": -0.1626431969,
				"element": "C" 
			},
			{
				"x": 0.4521364978,
				"y": 0.9133302818,
				"z": -1.2921895057,
				"element": "C" 
			},
			{
				"x": 1.576732962,
				"y": 0.0770510876,
				"z": -1.1655706566,
				"element": "C" 
			},
			{
				"x": 2.3251890495,
				"y": -0.2953174784,
				"z": -2.2496173149,
				"element": "O" 
			},
			{
				"x": 1.6932931851,
				"y": -0.0528664376,
				"z": -3.5091792197,
				"element": "C" 
			},
			{
				"x": 1.0570143284,
				"y": 1.3271093859,
				"z": -3.5199791164,
				"element": "C" 
			},
			{
				"x": 0.0536089267,
				"y": 1.4123197506,
				"z": -2.5068688505,
				"element": "O" 
			},
			{
				"x": 1.9585637378,
				"y": -0.3862008145,
				"z": 0.0951269098,
				"element": "C" 
			},
			{
				"x": 1.225428726,
				"y": -0.0394823468,
				"z": 1.2257968117,
				"element": "C" 
			},
			{
				"x": -1.3898207247,
				"y": -1.3379080998,
				"z": 2.684529075,
				"element": "N" 
			},
			{
				"x": -2.1246205665,
				"y": -2.4222862788,
				"z": 2.942960972,
				"element": "C" 
			},
			{
				"x": -3.4400510641,
				"y": -2.3585465853,
				"z": 3.4021218106,
				"element": "C" 
			},
			{
				"x": -4.0109897949,
				"y": -1.1032074906,
				"z": 3.5601122853,
				"element": "C" 
			},
			{
				"x": -2.676266002,
				"y": 2.3230923134,
				"z": 2.4678222464,
				"element": "H" 
			},
			{
				"x": -1.1555965861,
				"y": 1.8943839545,
				"z": -0.2860368685,
				"element": "H" 
			},
			{
				"x": 0.9291902139,
				"y": -0.8196085449,
				"z": -3.6939534658,
				"element": "H" 
			},
			{
				"x": 2.4749963028,
				"y": -0.1376730899,
				"z": -4.2679210384,
				"element": "H" 
			},
			{
				"x": 1.8237599196,
				"y": 2.0954426281,
				"z": -3.3516364024,
				"element": "H" 
			},
			{
				"x": 0.5555066318,
				"y": 1.5257685952,
				"z": -4.4701617463,
				"element": "H" 
			},
			{
				"x": 2.8338418653,
				"y": -1.0236730774,
				"z": 0.1647469122,
				"element": "H" 
			},
			{
				"x": 1.5179392093,
				"y": -0.405297815,
				"z": 2.2022756505,
				"element": "H" 
			},
			{
				"x": -1.6316972647,
				"y": -3.3799493795,
				"z": 2.7868166591,
				"element": "H" 
			},
			{
				"x": -3.9954073562,
				"y": -3.263756777,
				"z": 3.6234492566,
				"element": "H" 
			},
			{
				"x": -5.0310798918,
				"y": -0.9747289526,
				"z": 3.9050474515,
				"element": "H" 
			}
		],
		 "valence_orbital": [ 
			{
				"type": "occ",
				"energy": -0.28302,
				"method": "rhf"
			},
			{
				"type": "occ",
				"energy": -0.26355,
				"method": "rhf"
			},
			{
				"type": "occ",
				"energy": -0.24949,
				"method": "rhf"
			},
			{
				"type": "occ",
				"energy": -0.24868,
				"method": "rhf"
			},
			{
				"type": "occ",
				"energy": -0.22547,
				"method": "rhf"
			},
			{
				"type": "unocc",
				"energy": -0.05819,
				"method": "rhf"
			},
			{
				"type": "unocc",
				"energy": -0.04176,
				"method": "rhf"
			},
			{
				"type": "unocc",
				"energy": -0.02351,
				"method": "rhf"
			},
			{
				"type": "unocc",
				"energy": -0.00681,
				"method": "rhf"
			},
			{
				"type": "unocc",
				"energy": 0.03847,
				"method": "rhf"
			}
		],
		"cosmo_sigma_profile": { 
			"-0.025": 0.0,
			"-0.024": 0.0,
			"-0.023": 0.0,
			"-0.022": 0.0,
			"-0.021": 0.0,
			"-0.02": 0.0,
			"-0.019": 0.0,
			"-0.018": 0.0,
			"-0.017": 0.0,
			"-0.016": 0.0,
			"-0.015": 0.0,
			"-0.014": 0.0,
			"-0.013": 0.0,
			"-0.012": 0.0,
			"-0.011": 0.0,
			"-0.01": 0.247283775932,
			"-0.009": 1.07467650399,
			"-0.008": 5.68820503496,
			"-0.007": 19.6905211287,
			"-0.006": 25.8840910443,
			"-0.005": 21.5631348465,
			"-0.004": 19.5426827432,
			"-0.003": 15.2293905373,
			"-0.002": 17.8708278503,
			"-0.001": 21.2628842687,
			"0.0": 23.688569271,
			"0.001": 21.3150902436,
			"0.002": 18.1005212686,
			"0.003": 17.8711990858,
			"0.004": 12.4530150173,
			"0.005": 9.33350854501,
			"0.006": 7.61228560128,
			"0.007": 7.20495781536,
			"0.008": 6.26917832417,
			"0.009": 7.78765376277,
			"0.01": 8.35673024249,
			"0.011": 5.9924328485,
			"0.012": 3.8231743844,
			"0.013": 1.43434040567,
			"0.014": 0.042200912043,
			"0.015": 0.0,
			"0.016": 0.0,
			"0.017": 0.0,
			"0.018": 0.0,
			"0.019": 0.0,
			"0.02": 0.0,
			"0.021": 0.0,
			"0.022": 0.0,
			"0.023": 0.0,
			"0.024": 0.0,
			"0.025": 0.0
		}
	}
}
