{
	 "smiles": "CC1=CC2=C(C=C1)C(Cl)=C(S2)C(O)=O", 
	 "Tm": 545.15, 
	 "num_atms": 21, 
	 "gaussian": { 
		 "optdone": 1, 
		 "sigma_profile": "yes", 
		 "theory": "DFT", 
		 "functional": "B3LYP", 
		 "basiset": "6-31G**", 
		 "properties": { 
			 "R2extent": 4804.9464, 
			 "electric_dipole_moment_norm": 6.43233875429, 
			 "electric_quadrupole_moment_norm": 26.2697598773, 
			 "total_energy": -1394.11935661, 
			 "HOMO_LUMO_gap": 0.16494, 
			 "cosmo_polarized_energy": -13.48, 
			 "cosmo_cavitation_energy": 28.77, 
			 "cosmo_dispersion_energy": -21.85, 
			 "cosmo_repulsion_energy": 1.65, 
			 "cosmo_total_nonelectrostatic_energy": 8.57, 
			 "SMD_solvation_energy": 5.34 
		},
		"coords": [
			{
				"x": 1.3764716707,
				"y": 1.3486833236,
				"z": 2.8113326043,
				"element": "C" 
			},
			{
				"x": 1.1841452885,
				"y": 0.8249959318,
				"z": 1.4085746182,
				"element": "C" 
			},
			{
				"x": -0.0905009547,
				"y": 0.6942850779,
				"z": 0.861480119,
				"element": "C" 
			},
			{
				"x": -0.2268620664,
				"y": 0.1980879916,
				"z": -0.4394193774,
				"element": "C" 
			},
			{
				"x": 0.8948383922,
				"y": -0.1645330516,
				"z": -1.2164275745,
				"element": "C" 
			},
			{
				"x": 2.1794604973,
				"y": -0.0288417866,
				"z": -0.6576090028,
				"element": "C" 
			},
			{
				"x": 2.3088612016,
				"y": 0.4570285802,
				"z": 0.6312851004,
				"element": "C" 
			},
			{
				"x": 0.5077701539,
				"y": -0.6345167234,
				"z": -2.5216178633,
				"element": "C" 
			},
			{
				"x": 1.6963573225,
				"y": -1.1669550345,
				"z": -3.6631364622,
				"element": "Cl" 
			},
			{
				"x": -0.8452127304,
				"y": -0.6460182299,
				"z": -2.7373453724,
				"element": "C" 
			},
			{
				"x": -1.7208241545,
				"y": -0.0318076398,
				"z": -1.3264419352,
				"element": "S" 
			},
			{
				"x": -1.5757635119,
				"y": -1.0816706885,
				"z": -3.955310516,
				"element": "C" 
			},
			{
				"x": -2.8776567489,
				"y": -1.4371354573,
				"z": -3.7686405787,
				"element": "O" 
			},
			{
				"x": -1.0870048683,
				"y": -1.1155941708,
				"z": -5.057307369,
				"element": "O" 
			},
			{
				"x": 1.8755676837,
				"y": 0.6066975387,
				"z": 3.4451247306,
				"element": "H" 
			},
			{
				"x": 2.0036422356,
				"y": 2.2473957685,
				"z": 2.8146251615,
				"element": "H" 
			},
			{
				"x": 0.4225890136,
				"y": 1.6031848305,
				"z": 3.2803005767,
				"element": "H" 
			},
			{
				"x": -0.966086202,
				"y": 0.9714925175,
				"z": 1.4411318089,
				"element": "H" 
			},
			{
				"x": 3.0514298725,
				"y": -0.3038953267,
				"z": -1.2416305158,
				"element": "H" 
			},
			{
				"x": 3.3004563635,
				"y": 0.5625514275,
				"z": 1.0631040357,
				"element": "H" 
			},
			{
				"x": -3.0764784582,
				"y": -1.5539348789,
				"z": -2.827572188,
				"element": "H" 
			}
		],
		 "valence_orbital": [ 
			{
				"type": "occ",
				"energy": -0.31716,
				"method": "rhf"
			},
			{
				"type": "occ",
				"energy": -0.28953,
				"method": "rhf"
			},
			{
				"type": "occ",
				"energy": -0.27744,
				"method": "rhf"
			},
			{
				"type": "occ",
				"energy": -0.25575,
				"method": "rhf"
			},
			{
				"type": "occ",
				"energy": -0.23629,
				"method": "rhf"
			},
			{
				"type": "unocc",
				"energy": -0.07135,
				"method": "rhf"
			},
			{
				"type": "unocc",
				"energy": -0.02551,
				"method": "rhf"
			},
			{
				"type": "unocc",
				"energy": -0.01786,
				"method": "rhf"
			},
			{
				"type": "unocc",
				"energy": 0.00476,
				"method": "rhf"
			},
			{
				"type": "unocc",
				"energy": 0.02909,
				"method": "rhf"
			}
		],
		"cosmo_sigma_profile": { 
			"-0.025": 0.0,
			"-0.024": 0.0,
			"-0.023": 0.0,
			"-0.022": 0.0,
			"-0.021": 0.0,
			"-0.02": 0.0,
			"-0.019": 0.0,
			"-0.018": 0.599207130088,
			"-0.017": 0.450491864822,
			"-0.016": 0.635896928652,
			"-0.015": 1.29045990046,
			"-0.014": 0.708431482351,
			"-0.013": 0.797243328225,
			"-0.012": 1.20056743455,
			"-0.011": 1.25049030698,
			"-0.01": 0.564827341841,
			"-0.009": 0.685799184275,
			"-0.008": 2.4247377142,
			"-0.007": 4.33028730194,
			"-0.006": 7.84796702952,
			"-0.005": 12.9251231239,
			"-0.004": 16.3700910873,
			"-0.003": 15.7788658356,
			"-0.002": 17.3726986457,
			"-0.001": 23.2226166829,
			"0.0": 26.5679662889,
			"0.001": 20.5576567487,
			"0.002": 19.4802645828,
			"0.003": 19.9597105478,
			"0.004": 8.59854640651,
			"0.005": 2.77323930586,
			"0.006": 2.94176753121,
			"0.007": 3.13459289427,
			"0.008": 3.56087358187,
			"0.009": 3.7595955529,
			"0.01": 5.89132932566,
			"0.011": 5.93302995697,
			"0.012": 3.27288063923,
			"0.013": 0.271041057064,
			"0.014": 0.0,
			"0.015": 0.0,
			"0.016": 0.0,
			"0.017": 0.0,
			"0.018": 0.0,
			"0.019": 0.0,
			"0.02": 0.0,
			"0.021": 0.0,
			"0.022": 0.0,
			"0.023": 0.0,
			"0.024": 0.0,
			"0.025": 0.0
		}
	}
}
