{
	 "smiles": "CC1=CN2C(=O)C=C(CO)N=C2C=C1", 
	 "Tm": 445.15, 
	 "num_atms": 24, 
	 "gaussian": { 
		 "optdone": 1, 
		 "sigma_profile": "yes", 
		 "theory": "DFT", 
		 "functional": "B3LYP", 
		 "basiset": "6-31G**", 
		 "properties": { 
			 "R2extent": 3438.4263, 
			 "electric_dipole_moment_norm": 5.03251259015, 
			 "electric_quadrupole_moment_norm": 14.0240064037, 
			 "total_energy": -647.047987802, 
			 "HOMO_LUMO_gap": 0.15295, 
			 "cosmo_polarized_energy": -13.34, 
			 "cosmo_cavitation_energy": 27.76, 
			 "cosmo_dispersion_energy": -20.84, 
			 "cosmo_repulsion_energy": 1.63, 
			 "cosmo_total_nonelectrostatic_energy": 8.55, 
			 "SMD_solvation_energy": 4.84 
		},
		"coords": [
			{
				"x": 3.2584578703,
				"y": 0.061462234,
				"z": 2.2864929819,
				"element": "C" 
			},
			{
				"x": 2.1728751298,
				"y": -0.0889600477,
				"z": 1.2525172491,
				"element": "C" 
			},
			{
				"x": 1.3368922011,
				"y": -1.1697968264,
				"z": 1.2473595919,
				"element": "C" 
			},
			{
				"x": 0.3405715861,
				"y": -1.3204390227,
				"z": 0.3088935192,
				"element": "N" 
			},
			{
				"x": -0.4888804623,
				"y": -2.5343229505,
				"z": 0.416093411,
				"element": "C" 
			},
			{
				"x": -0.2494379042,
				"y": -3.3249952587,
				"z": 1.3185269583,
				"element": "O" 
			},
			{
				"x": -1.4838604675,
				"y": -2.6027003398,
				"z": -0.5985876313,
				"element": "C" 
			},
			{
				"x": -1.6143542183,
				"y": -1.6092749793,
				"z": -1.5462013836,
				"element": "C" 
			},
			{
				"x": -2.700367784,
				"y": -1.647561734,
				"z": -2.6104104578,
				"element": "C" 
			},
			{
				"x": -2.46841728,
				"y": -0.7322348098,
				"z": -3.650218969,
				"element": "O" 
			},
			{
				"x": -0.8298131264,
				"y": -0.5117254418,
				"z": -1.600935069,
				"element": "N" 
			},
			{
				"x": 0.1282409928,
				"y": -0.3794977479,
				"z": -0.6897878928,
				"element": "C" 
			},
			{
				"x": 0.9923892827,
				"y": 0.7541463753,
				"z": -0.6981941109,
				"element": "C" 
			},
			{
				"x": 1.9787802532,
				"y": 0.8963556374,
				"z": 0.2374579247,
				"element": "C" 
			},
			{
				"x": 3.1247371161,
				"y": 0.9806305157,
				"z": 2.868168072,
				"element": "H" 
			},
			{
				"x": 4.2466085352,
				"y": 0.1170212961,
				"z": 1.8157875188,
				"element": "H" 
			},
			{
				"x": 3.2643207145,
				"y": -0.78004042,
				"z": 2.9832691694,
				"element": "H" 
			},
			{
				"x": 1.3773097551,
				"y": -1.9852779801,
				"z": 1.9586768513,
				"element": "H" 
			},
			{
				"x": -2.1300931706,
				"y": -3.4727496076,
				"z": -0.5927818809,
				"element": "H" 
			},
			{
				"x": -3.6649234456,
				"y": -1.4473421021,
				"z": -2.1097377535,
				"element": "H" 
			},
			{
				"x": -2.7678466555,
				"y": -2.6628046557,
				"z": -3.0238774486,
				"element": "H" 
			},
			{
				"x": -1.8121858899,
				"y": -0.1070672184,
				"z": -3.2948661037,
				"element": "H" 
			},
			{
				"x": 0.8214729872,
				"y": 1.4843502174,
				"z": -1.4800819448,
				"element": "H" 
			},
			{
				"x": 2.6266239802,
				"y": 1.7685248664,
				"z": 0.2127373981,
				"element": "H" 
			}
		],
		 "valence_orbital": [ 
			{
				"type": "occ",
				"energy": -0.29214,
				"method": "rhf"
			},
			{
				"type": "occ",
				"energy": -0.27916,
				"method": "rhf"
			},
			{
				"type": "occ",
				"energy": -0.26778,
				"method": "rhf"
			},
			{
				"type": "occ",
				"energy": -0.25286,
				"method": "rhf"
			},
			{
				"type": "occ",
				"energy": -0.22067,
				"method": "rhf"
			},
			{
				"type": "unocc",
				"energy": -0.06772,
				"method": "rhf"
			},
			{
				"type": "unocc",
				"energy": -0.04772,
				"method": "rhf"
			},
			{
				"type": "unocc",
				"energy": 0.01027,
				"method": "rhf"
			},
			{
				"type": "unocc",
				"energy": 0.07095,
				"method": "rhf"
			},
			{
				"type": "unocc",
				"energy": 0.08386,
				"method": "rhf"
			}
		],
		"cosmo_sigma_profile": { 
			"-0.025": 0.0,
			"-0.024": 0.0,
			"-0.023": 0.0,
			"-0.022": 0.0,
			"-0.021": 0.0,
			"-0.02": 0.0,
			"-0.019": 0.0,
			"-0.018": 0.0,
			"-0.017": 0.0,
			"-0.016": 0.0,
			"-0.015": 0.0,
			"-0.014": 0.0,
			"-0.013": 0.0,
			"-0.012": 0.0,
			"-0.011": 0.0,
			"-0.01": 0.0,
			"-0.009": 0.0380821984297,
			"-0.008": 3.47939091697,
			"-0.007": 8.26084909139,
			"-0.006": 11.0890950622,
			"-0.005": 18.1003899759,
			"-0.004": 21.6766061176,
			"-0.003": 19.7791673069,
			"-0.002": 20.3208537747,
			"-0.001": 23.0731689587,
			"0.0": 20.7118046176,
			"0.001": 14.7757489339,
			"0.002": 10.8307032964,
			"0.003": 7.2139600307,
			"0.004": 4.53544961943,
			"0.005": 4.6844121435,
			"0.006": 3.6433199926,
			"0.007": 2.51949197352,
			"0.008": 3.16648044102,
			"0.009": 2.68053505867,
			"0.01": 1.71325321744,
			"0.011": 3.32078816456,
			"0.012": 4.6308649128,
			"0.013": 5.52908096763,
			"0.014": 4.65594147893,
			"0.015": 1.09175648442,
			"0.016": 0.0,
			"0.017": 0.0,
			"0.018": 0.0,
			"0.019": 0.0,
			"0.02": 0.0,
			"0.021": 0.0,
			"0.022": 0.0,
			"0.023": 0.0,
			"0.024": 0.0,
			"0.025": 0.0
		}
	}
}
