{
	 "smiles": "FC1=CC2=C(C=C1)C1=C(CNCC1)N2", 
	 "Tm": 497.15, 
	 "num_atms": 25, 
	 "gaussian": { 
		 "optdone": 1, 
		 "sigma_profile": "yes", 
		 "theory": "DFT", 
		 "functional": "B3LYP", 
		 "basiset": "6-31G**", 
		 "properties": { 
			 "R2extent": 3212.6583, 
			 "electric_dipole_moment_norm": 2.20592585098, 
			 "electric_quadrupole_moment_norm": 15.5921016168, 
			 "total_energy": -635.139978987, 
			 "HOMO_LUMO_gap": 0.18648, 
			 "cosmo_polarized_energy": -10.84, 
			 "cosmo_cavitation_energy": 27.82, 
			 "cosmo_dispersion_energy": -20.9, 
			 "cosmo_repulsion_energy": 1.61, 
			 "cosmo_total_nonelectrostatic_energy": 8.53, 
			 "SMD_solvation_energy": 1.56 
		},
		"coords": [
			{
				"x": -1.3347693331,
				"y": -3.8642150056,
				"z": -2.0637081666,
				"element": "F" 
			},
			{
				"x": -1.2465861933,
				"y": -2.6746759556,
				"z": -1.4220530562,
				"element": "C" 
			},
			{
				"x": 0.0127020326,
				"y": -2.1651646326,
				"z": -1.1487137924,
				"element": "C" 
			},
			{
				"x": 0.0493360038,
				"y": -0.9342908291,
				"z": -0.4859654896,
				"element": "C" 
			},
			{
				"x": -1.1327100047,
				"y": -0.2342262972,
				"z": -0.1046797292,
				"element": "C" 
			},
			{
				"x": -2.3811752472,
				"y": -0.8003970544,
				"z": -0.4097157271,
				"element": "C" 
			},
			{
				"x": -2.4369376566,
				"y": -2.0228150463,
				"z": -1.0698459796,
				"element": "C" 
			},
			{
				"x": -0.7059713306,
				"y": 0.9786361941,
				"z": 0.547075166,
				"element": "C" 
			},
			{
				"x": 0.6646211997,
				"y": 0.9721832103,
				"z": 0.5500997937,
				"element": "C" 
			},
			{
				"x": 1.5220231159,
				"y": 2.0674397473,
				"z": 1.1190491904,
				"element": "C" 
			},
			{
				"x": 0.7420277603,
				"y": 2.9879805538,
				"z": 1.9566186156,
				"element": "N" 
			},
			{
				"x": -0.5583499189,
				"y": 3.3251338533,
				"z": 1.3595338869,
				"element": "C" 
			},
			{
				"x": -1.4933962656,
				"y": 2.1134278658,
				"z": 1.1384144219,
				"element": "C" 
			},
			{
				"x": 1.1282898445,
				"y": -0.1752971771,
				"z": -0.0791403169,
				"element": "N" 
			},
			{
				"x": 0.9030070442,
				"y": -2.709732413,
				"z": -1.4441081873,
				"element": "H" 
			},
			{
				"x": -3.3000744448,
				"y": -0.2912117231,
				"z": -0.133621821,
				"element": "H" 
			},
			{
				"x": -3.3819486404,
				"y": -2.4910894318,
				"z": -1.3220401249,
				"element": "H" 
			},
			{
				"x": 1.9926246224,
				"y": 2.6457406176,
				"z": 0.3086523134,
				"element": "H" 
			},
			{
				"x": 2.3450150839,
				"y": 1.6620507194,
				"z": 1.7220958242,
				"element": "H" 
			},
			{
				"x": 0.577918853,
				"y": 2.5411948718,
				"z": 2.8567496526,
				"element": "H" 
			},
			{
				"x": -1.0436831547,
				"y": 4.0720733265,
				"z": 1.9967699712,
				"element": "H" 
			},
			{
				"x": -0.3580050637,
				"y": 3.8080880908,
				"z": 0.3947342213,
				"element": "H" 
			},
			{
				"x": -2.3249688142,
				"y": 2.4038297556,
				"z": 0.4822720593,
				"element": "H" 
			},
			{
				"x": -1.9527348189,
				"y": 1.8163385021,
				"z": 2.0937984527,
				"element": "H" 
			},
			{
				"x": 2.0958453263,
				"y": -0.4267017426,
				"z": -0.2004711782,
				"element": "H" 
			}
		],
		 "valence_orbital": [ 
			{
				"type": "occ",
				"energy": -0.31887,
				"method": "rhf"
			},
			{
				"type": "occ",
				"energy": -0.26653,
				"method": "rhf"
			},
			{
				"type": "occ",
				"energy": -0.22786,
				"method": "rhf"
			},
			{
				"type": "occ",
				"energy": -0.21864,
				"method": "rhf"
			},
			{
				"type": "occ",
				"energy": -0.19337,
				"method": "rhf"
			},
			{
				"type": "unocc",
				"energy": -0.00689,
				"method": "rhf"
			},
			{
				"type": "unocc",
				"energy": 0.02852,
				"method": "rhf"
			},
			{
				"type": "unocc",
				"energy": 0.06672,
				"method": "rhf"
			},
			{
				"type": "unocc",
				"energy": 0.07938,
				"method": "rhf"
			},
			{
				"type": "unocc",
				"energy": 0.0855,
				"method": "rhf"
			}
		],
		"cosmo_sigma_profile": { 
			"-0.025": 0.0,
			"-0.024": 0.0,
			"-0.023": 0.0,
			"-0.022": 0.0,
			"-0.021": 0.0,
			"-0.02": 0.0,
			"-0.019": 0.0,
			"-0.018": 0.0,
			"-0.017": 0.0,
			"-0.016": 0.181100088019,
			"-0.015": 1.23486475459,
			"-0.014": 1.68637435353,
			"-0.013": 0.607966783371,
			"-0.012": 1.43519704888,
			"-0.011": 1.33986552535,
			"-0.01": 2.09139529264,
			"-0.009": 2.85325689628,
			"-0.008": 2.86311738637,
			"-0.007": 4.42795187461,
			"-0.006": 7.23046857919,
			"-0.005": 9.87294109615,
			"-0.004": 12.8096905136,
			"-0.003": 21.5295167134,
			"-0.002": 18.9319605808,
			"-0.001": 18.4456693456,
			"0.0": 13.2056227054,
			"0.001": 10.0320073826,
			"0.002": 11.9571503402,
			"0.003": 13.9759157109,
			"0.004": 15.7784157156,
			"0.005": 26.0416493132,
			"0.006": 12.517373968,
			"0.007": 2.26139221681,
			"0.008": 0.696391444189,
			"0.009": 0.797634946431,
			"0.01": 0.892497542599,
			"0.011": 0.519179385367,
			"0.012": 0.673284774204,
			"0.013": 0.334619652245,
			"0.014": 0.406321210769,
			"0.015": 1.11675041098,
			"0.016": 0.480017461393,
			"0.017": 0.494564553369,
			"0.018": 0.420326794579,
			"0.019": 0.0924232029124,
			"0.02": 0.0,
			"0.021": 0.0,
			"0.022": 0.0,
			"0.023": 0.0,
			"0.024": 0.0,
			"0.025": 0.0
		}
	}
}
