{
	 "smiles": "COC(=O)C1(CCC1)S(=O)(=O)C1=CC=C(Cl)C=C1", 
	 "Tm": 349.35, 
	 "num_atms": 31, 
	 "gaussian": { 
		 "optdone": 1, 
		 "sigma_profile": "yes", 
		 "theory": "DFT", 
		 "functional": "B3LYP", 
		 "basiset": "6-31G**", 
		 "properties": { 
			 "R2extent": 5969.4797, 
			 "electric_dipole_moment_norm": 3.30608325062, 
			 "electric_quadrupole_moment_norm": 14.1872757519, 
			 "total_energy": -1624.29973825, 
			 "HOMO_LUMO_gap": 0.21569, 
			 "cosmo_polarized_energy": -14.6, 
			 "cosmo_cavitation_energy": 37.06, 
			 "cosmo_dispersion_energy": -26.17, 
			 "cosmo_repulsion_energy": 1.99, 
			 "cosmo_total_nonelectrostatic_energy": 12.88, 
			 "SMD_solvation_energy": 6.36 
		},
		"coords": [
			{
				"x": 3.3598873338,
				"y": 0.5533301243,
				"z": 2.5195657089,
				"element": "C" 
			},
			{
				"x": 1.9994087162,
				"y": 0.0834215549,
				"z": 2.5191643203,
				"element": "O" 
			},
			{
				"x": 1.569564424,
				"y": -0.4395071582,
				"z": 1.3624307106,
				"element": "C" 
			},
			{
				"x": 2.2638664199,
				"y": -0.5846062586,
				"z": 0.3759617674,
				"element": "O" 
			},
			{
				"x": 0.1056466928,
				"y": -0.8320180914,
				"z": 1.4245254494,
				"element": "C" 
			},
			{
				"x": -0.5324858122,
				"y": -1.2033421204,
				"z": 2.7972975894,
				"element": "C" 
			},
			{
				"x": -1.1270981538,
				"y": -2.4843860708,
				"z": 2.1554003516,
				"element": "C" 
			},
			{
				"x": -0.2659580768,
				"y": -2.2433498431,
				"z": 0.8867196549,
				"element": "C" 
			},
			{
				"x": -0.8696745858,
				"y": 0.5354379923,
				"z": 0.6179739306,
				"element": "S" 
			},
			{
				"x": -2.2861398989,
				"y": 0.2720859482,
				"z": 0.9278458665,
				"element": "O" 
			},
			{
				"x": -0.2324981316,
				"y": 1.8066934911,
				"z": 0.9985469106,
				"element": "O" 
			},
			{
				"x": -0.6794805396,
				"y": 0.3249487036,
				"z": -1.1604205405,
				"element": "C" 
			},
			{
				"x": 0.466313623,
				"y": 0.8019418587,
				"z": -1.8018221724,
				"element": "C" 
			},
			{
				"x": 0.5780416138,
				"y": 0.6712356732,
				"z": -3.1840650174,
				"element": "C" 
			},
			{
				"x": -0.4607241885,
				"y": 0.0721134083,
				"z": -3.8997189154,
				"element": "C" 
			},
			{
				"x": -0.3188077492,
				"y": -0.0902902977,
				"z": -5.6392463713,
				"element": "Cl" 
			},
			{
				"x": -1.6125435261,
				"y": -0.3934546723,
				"z": -3.2638364271,
				"element": "C" 
			},
			{
				"x": -1.721423918,
				"y": -0.2639166721,
				"z": -1.8801930704,
				"element": "C" 
			},
			{
				"x": 3.5460017302,
				"y": 0.9080957144,
				"z": 3.5324917883,
				"element": "H" 
			},
			{
				"x": 3.4761340063,
				"y": 1.3675756501,
				"z": 1.8005658902,
				"element": "H" 
			},
			{
				"x": 4.045535344,
				"y": -0.2561855612,
				"z": 2.2588773706,
				"element": "H" 
			},
			{
				"x": -1.2429813949,
				"y": -0.484310095,
				"z": 3.2074500659,
				"element": "H" 
			},
			{
				"x": 0.2452001346,
				"y": -1.3962766528,
				"z": 3.5382188126,
				"element": "H" 
			},
			{
				"x": -2.1958221389,
				"y": -2.3875764221,
				"z": 1.9575085639,
				"element": "H" 
			},
			{
				"x": -0.9439525419,
				"y": -3.4203748388,
				"z": 2.6882651905,
				"element": "H" 
			},
			{
				"x": 0.6225990873,
				"y": -2.87603621,
				"z": 0.8196242149,
				"element": "H" 
			},
			{
				"x": -0.775475035,
				"y": -2.2778527761,
				"z": -0.0787443726,
				"element": "H" 
			},
			{
				"x": 1.2588022136,
				"y": 1.2698863864,
				"z": -1.2317322615,
				"element": "H" 
			},
			{
				"x": 1.4582637255,
				"y": 1.0325890364,
				"z": -3.7032506924,
				"element": "H" 
			},
			{
				"x": -2.4113817634,
				"y": -0.842283464,
				"z": -3.8431343973,
				"element": "H" 
			},
			{
				"x": -2.6139176105,
				"y": -0.5931883373,
				"z": -1.3597699188,
				"element": "H" 
			}
		],
		 "valence_orbital": [ 
			{
				"type": "occ",
				"energy": -0.3048,
				"method": "rhf"
			},
			{
				"type": "occ",
				"energy": -0.28759,
				"method": "rhf"
			},
			{
				"type": "occ",
				"energy": -0.28372,
				"method": "rhf"
			},
			{
				"type": "occ",
				"energy": -0.27744,
				"method": "rhf"
			},
			{
				"type": "occ",
				"energy": -0.26594,
				"method": "rhf"
			},
			{
				"type": "unocc",
				"energy": -0.05025,
				"method": "rhf"
			},
			{
				"type": "unocc",
				"energy": -0.03098,
				"method": "rhf"
			},
			{
				"type": "unocc",
				"energy": -0.02069,
				"method": "rhf"
			},
			{
				"type": "unocc",
				"energy": 0.01818,
				"method": "rhf"
			},
			{
				"type": "unocc",
				"energy": 0.05462,
				"method": "rhf"
			}
		],
		"cosmo_sigma_profile": { 
			"-0.025": 0.0,
			"-0.024": 0.0,
			"-0.023": 0.0,
			"-0.022": 0.0,
			"-0.021": 0.0,
			"-0.02": 0.0,
			"-0.019": 0.0,
			"-0.018": 0.0,
			"-0.017": 0.0,
			"-0.016": 0.0,
			"-0.015": 0.0,
			"-0.014": 0.0,
			"-0.013": 0.0,
			"-0.012": 0.0,
			"-0.011": 0.0,
			"-0.01": 0.0,
			"-0.009": 0.457370880779,
			"-0.008": 6.04893698368,
			"-0.007": 11.2127375701,
			"-0.006": 14.2315603707,
			"-0.005": 19.8762265731,
			"-0.004": 25.6767471328,
			"-0.003": 25.1578238753,
			"-0.002": 24.7513220018,
			"-0.001": 24.5472108194,
			"0.0": 28.0798108772,
			"0.001": 24.5696646482,
			"0.002": 13.7553989494,
			"0.003": 14.2508403136,
			"0.004": 15.3692505038,
			"0.005": 6.31421576665,
			"0.006": 4.60626465764,
			"0.007": 5.76576724627,
			"0.008": 5.61368001374,
			"0.009": 5.69080359833,
			"0.01": 8.56036925374,
			"0.011": 9.96161632286,
			"0.012": 2.24529110099,
			"0.013": 0.0,
			"0.014": 0.0,
			"0.015": 0.0,
			"0.016": 0.0,
			"0.017": 0.0,
			"0.018": 0.0,
			"0.019": 0.0,
			"0.02": 0.0,
			"0.021": 0.0,
			"0.022": 0.0,
			"0.023": 0.0,
			"0.024": 0.0,
			"0.025": 0.0
		}
	}
}
