{
	 "smiles": "FC(F)(F)C1=CC(=CC=C1)C#CCNC(=O)CCl", 
	 "Tm": 354.15, 
	 "num_atms": 27, 
	 "gaussian": { 
		 "optdone": 1, 
		 "sigma_profile": "yes", 
		 "theory": "DFT", 
		 "functional": "B3LYP", 
		 "basiset": "6-31G**", 
		 "properties": { 
			 "R2extent": 9236.6323, 
			 "electric_dipole_moment_norm": 2.83658293903, 
			 "electric_quadrupole_moment_norm": 44.9239308364, 
			 "total_energy": -1352.34086184, 
			 "HOMO_LUMO_gap": 0.19735, 
			 "cosmo_polarized_energy": -17.59, 
			 "cosmo_cavitation_energy": 36.9, 
			 "cosmo_dispersion_energy": -25.37, 
			 "cosmo_repulsion_energy": 1.96, 
			 "cosmo_total_nonelectrostatic_energy": 13.48, 
			 "SMD_solvation_energy": 7.3 
		},
		"coords": [
			{
				"x": -1.9425186752,
				"y": 0.7743658829,
				"z": 4.1366249855,
				"element": "F" 
			},
			{
				"x": -0.684949975,
				"y": 1.2407016115,
				"z": 3.9769935628,
				"element": "C" 
			},
			{
				"x": -0.6323696204,
				"y": 2.4721270991,
				"z": 4.5303465104,
				"element": "F" 
			},
			{
				"x": 0.1274158956,
				"y": 0.4457189385,
				"z": 4.7106562267,
				"element": "F" 
			},
			{
				"x": -0.2722743221,
				"y": 1.2638748406,
				"z": 2.5283591511,
				"element": "C" 
			},
			{
				"x": -0.8512963493,
				"y": 0.3710334066,
				"z": 1.6292493442,
				"element": "C" 
			},
			{
				"x": -0.4313585215,
				"y": 0.351413612,
				"z": 0.2873779929,
				"element": "C" 
			},
			{
				"x": 0.5763290851,
				"y": 1.242388165,
				"z": -0.1283758941,
				"element": "C" 
			},
			{
				"x": 1.1457496801,
				"y": 2.132054544,
				"z": 0.7792351232,
				"element": "C" 
			},
			{
				"x": 0.7266915676,
				"y": 2.1478738801,
				"z": 2.1091966451,
				"element": "C" 
			},
			{
				"x": -1.0243315598,
				"y": -0.5592681157,
				"z": -0.6411925719,
				"element": "C" 
			},
			{
				"x": -1.5319659827,
				"y": -1.3300432527,
				"z": -1.4277199029,
				"element": "C" 
			},
			{
				"x": -2.1270426134,
				"y": -2.2530869372,
				"z": -2.4049243638,
				"element": "C" 
			},
			{
				"x": -1.958687418,
				"y": -1.8536321402,
				"z": -3.8011732811,
				"element": "N" 
			},
			{
				"x": -0.789221433,
				"y": -1.8860481696,
				"z": -4.5324949832,
				"element": "C" 
			},
			{
				"x": -0.6859534952,
				"y": -1.304643027,
				"z": -5.5945257667,
				"element": "O" 
			},
			{
				"x": 0.3246467588,
				"y": -2.7396644147,
				"z": -3.9091750411,
				"element": "C" 
			},
			{
				"x": 1.8027400635,
				"y": -2.7726895547,
				"z": -4.9130403222,
				"element": "Cl" 
			},
			{
				"x": -1.6315080225,
				"y": -0.3049768478,
				"z": 1.9588148356,
				"element": "H" 
			},
			{
				"x": 0.900798468,
				"y": 1.2306592966,
				"z": -1.163674827,
				"element": "H" 
			},
			{
				"x": 1.9183327965,
				"y": 2.8186569399,
				"z": 0.4476981027,
				"element": "H" 
			},
			{
				"x": 1.1625062589,
				"y": 2.8446953018,
				"z": 2.8168072551,
				"element": "H" 
			},
			{
				"x": -1.7172554976,
				"y": -3.2600625835,
				"z": -2.2631162351,
				"element": "H" 
			},
			{
				"x": -3.20276346,
				"y": -2.3459732761,
				"z": -2.219035055,
				"element": "H" 
			},
			{
				"x": -2.6224353343,
				"y": -1.1831864571,
				"z": -4.168703442,
				"element": "H" 
			},
			{
				"x": 0.5960100773,
				"y": -2.3458313501,
				"z": -2.9267373942,
				"element": "H" 
			},
			{
				"x": -0.0142883716,
				"y": -3.7714573921,
				"z": -3.7853706548,
				"element": "H" 
			}
		],
		 "valence_orbital": [ 
			{
				"type": "occ",
				"energy": -0.2958,
				"method": "rhf"
			},
			{
				"type": "occ",
				"energy": -0.28161,
				"method": "rhf"
			},
			{
				"type": "occ",
				"energy": -0.27336,
				"method": "rhf"
			},
			{
				"type": "occ",
				"energy": -0.2661,
				"method": "rhf"
			},
			{
				"type": "occ",
				"energy": -0.25176,
				"method": "rhf"
			},
			{
				"type": "unocc",
				"energy": -0.05441,
				"method": "rhf"
			},
			{
				"type": "unocc",
				"energy": -0.03592,
				"method": "rhf"
			},
			{
				"type": "unocc",
				"energy": 0.00289,
				"method": "rhf"
			},
			{
				"type": "unocc",
				"energy": 0.01363,
				"method": "rhf"
			},
			{
				"type": "unocc",
				"energy": 0.02938,
				"method": "rhf"
			}
		],
		"cosmo_sigma_profile": { 
			"-0.025": 0.0,
			"-0.024": 0.0,
			"-0.023": 0.0,
			"-0.022": 0.0,
			"-0.021": 0.0,
			"-0.02": 0.0,
			"-0.019": 0.0,
			"-0.018": 0.0,
			"-0.017": 0.0,
			"-0.016": 0.0,
			"-0.015": 0.33040424819,
			"-0.014": 1.19760088895,
			"-0.013": 1.25919574226,
			"-0.012": 1.02370943568,
			"-0.011": 2.06764315547,
			"-0.01": 3.90788504374,
			"-0.009": 6.68035471209,
			"-0.008": 6.56054947954,
			"-0.007": 14.0664514608,
			"-0.006": 15.5057520668,
			"-0.005": 15.1241254973,
			"-0.004": 12.7076683373,
			"-0.003": 12.1625559622,
			"-0.002": 11.5542580699,
			"-0.001": 15.6741249175,
			"0.0": 19.537793542,
			"0.001": 23.7915560755,
			"0.002": 42.166656616,
			"0.003": 40.7724841536,
			"0.004": 12.1412125271,
			"0.005": 10.9536040377,
			"0.006": 7.71635331084,
			"0.007": 2.18369905485,
			"0.008": 2.22079583022,
			"0.009": 1.28914260951,
			"0.01": 2.09082419082,
			"0.011": 2.61273979635,
			"0.012": 4.1829647876,
			"0.013": 5.23506247818,
			"0.014": 1.58184367522,
			"0.015": 0.0882225768039,
			"0.016": 0.0,
			"0.017": 0.0,
			"0.018": 0.0,
			"0.019": 0.0,
			"0.02": 0.0,
			"0.021": 0.0,
			"0.022": 0.0,
			"0.023": 0.0,
			"0.024": 0.0,
			"0.025": 0.0
		}
	}
}
