{
	 "smiles": "CC(=O)C1=CC(=CC=C1)N1CCOC1=O", 
	 "Tm": 356.15, 
	 "num_atms": 26, 
	 "gaussian": { 
		 "optdone": 1, 
		 "sigma_profile": "yes", 
		 "theory": "DFT", 
		 "functional": "B3LYP", 
		 "basiset": "6-31G**", 
		 "properties": { 
			 "R2extent": 3865.1725, 
			 "electric_dipole_moment_norm": 7.16214689461, 
			 "electric_quadrupole_moment_norm": 17.2515890596, 
			 "total_energy": -706.237640107, 
			 "HOMO_LUMO_gap": 0.1758, 
			 "cosmo_polarized_energy": -19.77, 
			 "cosmo_cavitation_energy": 29.77, 
			 "cosmo_dispersion_energy": -21.97, 
			 "cosmo_repulsion_energy": 1.7, 
			 "cosmo_total_nonelectrostatic_energy": 9.49, 
			 "SMD_solvation_energy": 6.57 
		},
		"coords": [
			{
				"x": -3.2377520709,
				"y": -3.2695880114,
				"z": -1.5547557114,
				"element": "C" 
			},
			{
				"x": -2.5686150976,
				"y": -2.3314879726,
				"z": -0.5631600236,
				"element": "C" 
			},
			{
				"x": -3.1234508191,
				"y": -2.0382641205,
				"z": 0.4833185278,
				"element": "O" 
			},
			{
				"x": -1.2131283958,
				"y": -1.7720522315,
				"z": -0.8986815622,
				"element": "C" 
			},
			{
				"x": -0.6083897445,
				"y": -0.9374310309,
				"z": 0.048507476,
				"element": "C" 
			},
			{
				"x": 0.6517911755,
				"y": -0.378001872,
				"z": -0.2049113614,
				"element": "C" 
			},
			{
				"x": 1.2922402049,
				"y": -0.6615037742,
				"z": -1.4244728462,
				"element": "C" 
			},
			{
				"x": 0.6831573572,
				"y": -1.4916827157,
				"z": -2.3641353845,
				"element": "C" 
			},
			{
				"x": -0.5653669606,
				"y": -2.0523961438,
				"z": -2.1109756404,
				"element": "C" 
			},
			{
				"x": 1.2805845839,
				"y": 0.4873317456,
				"z": 0.7182242118,
				"element": "N" 
			},
			{
				"x": 2.5274915088,
				"y": 1.182328791,
				"z": 0.4239456685,
				"element": "C" 
			},
			{
				"x": 2.6571130507,
				"y": 2.0849575457,
				"z": 1.6580930161,
				"element": "C" 
			},
			{
				"x": 1.8616238621,
				"y": 1.442913399,
				"z": 2.6624243582,
				"element": "O" 
			},
			{
				"x": 0.9789114554,
				"y": 0.5769734844,
				"z": 2.0764653008,
				"element": "C" 
			},
			{
				"x": 0.1096519008,
				"y": 0.0153913208,
				"z": 2.6942310477,
				"element": "O" 
			},
			{
				"x": -3.4021694346,
				"y": -2.7724114483,
				"z": -2.5172204158,
				"element": "H" 
			},
			{
				"x": -4.1969639765,
				"y": -3.5835207938,
				"z": -1.1424869266,
				"element": "H" 
			},
			{
				"x": -2.6161702457,
				"y": -4.1515237935,
				"z": -1.7445821109,
				"element": "H" 
			},
			{
				"x": -1.1261176109,
				"y": -0.7448844606,
				"z": 0.9777449018,
				"element": "H" 
			},
			{
				"x": 2.2678317398,
				"y": -0.2441315139,
				"z": -1.6461637637,
				"element": "H" 
			},
			{
				"x": 1.1949709943,
				"y": -1.6994561335,
				"z": -3.2991115994,
				"element": "H" 
			},
			{
				"x": -1.0258421635,
				"y": -2.6964752906,
				"z": -2.8518298564,
				"element": "H" 
			},
			{
				"x": 3.3661273861,
				"y": 0.4777847206,
				"z": 0.3348464885,
				"element": "H" 
			},
			{
				"x": 2.4586301791,
				"y": 1.7580648676,
				"z": -0.5036492103,
				"element": "H" 
			},
			{
				"x": 2.2531772286,
				"y": 3.0866373673,
				"z": 1.4729296796,
				"element": "H" 
			},
			{
				"x": 3.6810638924,
				"y": 2.1716280648,
				"z": 2.0257057359,
				"element": "H" 
			}
		],
		 "valence_orbital": [ 
			{
				"type": "occ",
				"energy": -0.30071,
				"method": "rhf"
			},
			{
				"type": "occ",
				"energy": -0.28058,
				"method": "rhf"
			},
			{
				"type": "occ",
				"energy": -0.26009,
				"method": "rhf"
			},
			{
				"type": "occ",
				"energy": -0.24466,
				"method": "rhf"
			},
			{
				"type": "occ",
				"energy": -0.22953,
				"method": "rhf"
			},
			{
				"type": "unocc",
				"energy": -0.05373,
				"method": "rhf"
			},
			{
				"type": "unocc",
				"energy": -0.01306,
				"method": "rhf"
			},
			{
				"type": "unocc",
				"energy": 0.03118,
				"method": "rhf"
			},
			{
				"type": "unocc",
				"energy": 0.05618,
				"method": "rhf"
			},
			{
				"type": "unocc",
				"energy": 0.07183,
				"method": "rhf"
			}
		],
		"cosmo_sigma_profile": { 
			"-0.025": 0.0,
			"-0.024": 0.0,
			"-0.023": 0.0,
			"-0.022": 0.0,
			"-0.021": 0.0,
			"-0.02": 0.0,
			"-0.019": 0.0,
			"-0.018": 0.0,
			"-0.017": 0.0,
			"-0.016": 0.0,
			"-0.015": 0.0,
			"-0.014": 0.0,
			"-0.013": 0.0,
			"-0.012": 0.0,
			"-0.011": 0.0,
			"-0.01": 0.0,
			"-0.009": 0.0,
			"-0.008": 2.91896630335,
			"-0.007": 17.9827664117,
			"-0.006": 29.130307057,
			"-0.005": 22.0742239866,
			"-0.004": 14.9095893596,
			"-0.003": 13.6244470666,
			"-0.002": 12.4046990271,
			"-0.001": 14.0241824283,
			"0.0": 12.9243824536,
			"0.001": 8.8817668812,
			"0.002": 12.7231721206,
			"0.003": 15.5617855518,
			"0.004": 11.8946147066,
			"0.005": 5.01498437669,
			"0.006": 5.19395809722,
			"0.007": 4.02558113626,
			"0.008": 3.92618611466,
			"0.009": 5.90273766924,
			"0.01": 6.55902812778,
			"0.011": 6.84070051138,
			"0.012": 7.83064407882,
			"0.013": 2.84171422707,
			"0.014": 0.127500287923,
			"0.015": 0.0,
			"0.016": 0.0,
			"0.017": 0.0,
			"0.018": 0.0,
			"0.019": 0.0,
			"0.02": 0.0,
			"0.021": 0.0,
			"0.022": 0.0,
			"0.023": 0.0,
			"0.024": 0.0,
			"0.025": 0.0
		}
	}
}
