{
	 "smiles": "BrC1=C(Br)C(Br)=C(C(Br)=C1Br)C1=C(Br)C(Br)=C(Br)C(Br)=C1Br", 
	 "Tm": 648.15, 
	 "num_atms": 22, 
	 "gaussian": { 
		 "optdone": 1, 
		 "sigma_profile": "yes", 
		 "theory": "DFT", 
		 "functional": "B3LYP", 
		 "basiset": "6-31G**", 
		 "properties": { 
			 "R2extent": 26992.3015, 
			 "electric_dipole_moment_norm": 0.0, 
			 "electric_quadrupole_moment_norm": 2.07113240282, 
			 "total_energy": -26171.2555456, 
			 "HOMO_LUMO_gap": 0.17742, 
			 "cosmo_polarized_energy": -4.98, 
			 "cosmo_cavitation_energy": 47.94, 
			 "cosmo_dispersion_energy": -35.24, 
			 "cosmo_repulsion_energy": 2.69, 
			 "cosmo_total_nonelectrostatic_energy": 15.39, 
			 "SMD_solvation_energy": -1.61 
		},
		"coords": [
			{
				"x": -4.5303227028,
				"y": -1.4902183812,
				"z": 4.165952938,
				"element": "Br" 
			},
			{
				"x": -3.2976402453,
				"y": -0.8704322257,
				"z": 2.8693965013,
				"element": "C" 
			},
			{
				"x": -3.6600881858,
				"y": -0.847168803,
				"z": 1.5117662472,
				"element": "C" 
			},
			{
				"x": -5.3764305007,
				"y": -1.4316968113,
				"z": 0.9693041969,
				"element": "Br" 
			},
			{
				"x": -2.7395816359,
				"y": -0.3869421388,
				"z": 0.5600277526,
				"element": "C" 
			},
			{
				"x": -3.1962058929,
				"y": -0.3425643329,
				"z": -1.2813743545,
				"element": "Br" 
			},
			{
				"x": -1.4619910645,
				"y": 0.0514162296,
				"z": 0.9388828222,
				"element": "C" 
			},
			{
				"x": -1.1167659269,
				"y": 0.0216877764,
				"z": 2.2982413948,
				"element": "C" 
			},
			{
				"x": 0.6138873892,
				"y": 0.6171523235,
				"z": 2.799730961,
				"element": "Br" 
			},
			{
				"x": -2.0218477932,
				"y": -0.4348047208,
				"z": 3.2664288062,
				"element": "C" 
			},
			{
				"x": -1.5263316903,
				"y": -0.4628176401,
				"z": 5.0927320285,
				"element": "Br" 
			},
			{
				"x": -0.487997106,
				"y": 0.5404984596,
				"z": -0.0853666998,
				"element": "C" 
			},
			{
				"x": -0.445902222,
				"y": 1.8962673024,
				"z": -0.4431894222,
				"element": "C" 
			},
			{
				"x": -1.654748946,
				"y": 3.0881363153,
				"z": 0.4050744873,
				"element": "Br" 
			},
			{
				"x": 0.4630332163,
				"y": 2.36538655,
				"z": -1.4016726931,
				"element": "C" 
			},
			{
				"x": 0.4955459448,
				"y": 4.2005913021,
				"z": -1.8628466631,
				"element": "Br" 
			},
			{
				"x": 1.3478824853,
				"y": 1.4625015917,
				"z": -2.0156127834,
				"element": "C" 
			},
			{
				"x": 2.5809512075,
				"y": 2.0818752509,
				"z": -3.3119945817,
				"element": "Br" 
			},
			{
				"x": 1.3191883004,
				"y": 0.1008408983,
				"z": -1.6690618228,
				"element": "C" 
			},
			{
				"x": 2.507351929,
				"y": -1.1213216086,
				"z": -2.4915263833,
				"element": "Br" 
			},
			{
				"x": 0.4023652302,
				"y": -0.3469874212,
				"z": -0.7078941988,
				"element": "C" 
			},
			{
				"x": 0.3374482095,
				"y": -2.1786999162,
				"z": -0.2160985332,
				"element": "Br" 
			}
		],
		 "valence_orbital": [ 
			{
				"type": "occ",
				"energy": -0.2739,
				"method": "rhf"
			},
			{
				"type": "occ",
				"energy": -0.25897,
				"method": "rhf"
			},
			{
				"type": "occ",
				"energy": -0.25897,
				"method": "rhf"
			},
			{
				"type": "occ",
				"energy": -0.25751,
				"method": "rhf"
			},
			{
				"type": "occ",
				"energy": -0.25586,
				"method": "rhf"
			},
			{
				"type": "unocc",
				"energy": -0.07844,
				"method": "rhf"
			},
			{
				"type": "unocc",
				"energy": -0.06768,
				"method": "rhf"
			},
			{
				"type": "unocc",
				"energy": -0.06028,
				"method": "rhf"
			},
			{
				"type": "unocc",
				"energy": -0.06027,
				"method": "rhf"
			},
			{
				"type": "unocc",
				"energy": -0.05856,
				"method": "rhf"
			}
		],
		"cosmo_sigma_profile": { 
			"-0.025": 0.0,
			"-0.024": 0.0,
			"-0.023": 0.0,
			"-0.022": 0.0,
			"-0.021": 0.0,
			"-0.02": 0.0,
			"-0.019": 0.0,
			"-0.018": 0.0,
			"-0.017": 0.0,
			"-0.016": 0.0,
			"-0.015": 0.0,
			"-0.014": 0.0,
			"-0.013": 0.0,
			"-0.012": 0.0,
			"-0.011": 0.0,
			"-0.01": 0.0,
			"-0.009": 0.0,
			"-0.008": 0.0,
			"-0.007": 3.27907538716,
			"-0.006": 12.6842537375,
			"-0.005": 14.1211660523,
			"-0.004": 15.1316694829,
			"-0.003": 28.3059698168,
			"-0.002": 49.6653249263,
			"-0.001": 38.6925215943,
			"0.0": 50.1565421605,
			"0.001": 51.3414339867,
			"0.002": 60.3138382834,
			"0.003": 77.5501435815,
			"0.004": 16.2060133597,
			"0.005": 0.0,
			"0.006": 0.0,
			"0.007": 0.0,
			"0.008": 0.0,
			"0.009": 0.0,
			"0.01": 0.0,
			"0.011": 0.0,
			"0.012": 0.0,
			"0.013": 0.0,
			"0.014": 0.0,
			"0.015": 0.0,
			"0.016": 0.0,
			"0.017": 0.0,
			"0.018": 0.0,
			"0.019": 0.0,
			"0.02": 0.0,
			"0.021": 0.0,
			"0.022": 0.0,
			"0.023": 0.0,
			"0.024": 0.0,
			"0.025": 0.0
		}
	}
}
