{
	 "smiles": "O=C=NC1=CC2=C(OCO2)C=C1", 
	 "Tm": 322.65, 
	 "num_atms": 17, 
	 "gaussian": { 
		 "optdone": 1, 
		 "sigma_profile": "yes", 
		 "theory": "DFT", 
		 "functional": "B3LYP", 
		 "basiset": "6-31G**", 
		 "properties": { 
			 "R2extent": 2704.4769, 
			 "electric_dipole_moment_norm": 3.0307269326, 
			 "electric_quadrupole_moment_norm": 9.96404267755, 
			 "total_energy": -588.255964316, 
			 "HOMO_LUMO_gap": 0.18993, 
			 "cosmo_polarized_energy": -7.0, 
			 "cosmo_cavitation_energy": 22.94, 
			 "cosmo_dispersion_energy": -17.17, 
			 "cosmo_repulsion_energy": 1.37, 
			 "cosmo_total_nonelectrostatic_energy": 7.13, 
			 "SMD_solvation_energy": 7.01 
		},
		"coords": [
			{
				"x": 1.7624859643,
				"y": -0.0641953822,
				"z": -3.7263243837,
				"element": "O" 
			},
			{
				"x": 1.1045595062,
				"y": 0.2206222968,
				"z": -2.7893351003,
				"element": "C" 
			},
			{
				"x": 0.4619807238,
				"y": 0.6481058734,
				"z": -1.8592105232,
				"element": "N" 
			},
			{
				"x": -0.3383542209,
				"y": 0.2046967054,
				"z": -0.801857147,
				"element": "C" 
			},
			{
				"x": -0.5851869248,
				"y": -1.1751618259,
				"z": -0.6084683503,
				"element": "C" 
			},
			{
				"x": -1.3896779919,
				"y": -1.5129360775,
				"z": 0.458561341,
				"element": "C" 
			},
			{
				"x": -1.9373775015,
				"y": -0.5558931877,
				"z": 1.3124934703,
				"element": "C" 
			},
			{
				"x": -2.6726910102,
				"y": -1.1782086909,
				"z": 2.2922042423,
				"element": "O" 
			},
			{
				"x": -2.6881582317,
				"y": -2.5675311038,
				"z": 1.9462136062,
				"element": "C" 
			},
			{
				"x": -1.7620260563,
				"y": -2.7672613371,
				"z": 0.8693629287,
				"element": "O" 
			},
			{
				"x": -1.7021553181,
				"y": 0.7924569222,
				"z": 1.1354266126,
				"element": "C" 
			},
			{
				"x": -0.8865622197,
				"y": 1.1649743208,
				"z": 0.053466135,
				"element": "C" 
			},
			{
				"x": -0.1622343749,
				"y": -1.9262788385,
				"z": -1.2653308366,
				"element": "H" 
			},
			{
				"x": -2.3750890324,
				"y": -3.1628015145,
				"z": 2.8096603256,
				"element": "H" 
			},
			{
				"x": -3.6969629408,
				"y": -2.8544351099,
				"z": 1.6181595963,
				"element": "H" 
			},
			{
				"x": -2.1274471947,
				"y": 1.5322447644,
				"z": 1.8035484647,
				"element": "H" 
			},
			{
				"x": -0.6718031762,
				"y": 2.2106021849,
				"z": -0.1337703816,
				"element": "H" 
			}
		],
		 "valence_orbital": [ 
			{
				"type": "occ",
				"energy": -0.35779,
				"method": "rhf"
			},
			{
				"type": "occ",
				"energy": -0.30761,
				"method": "rhf"
			},
			{
				"type": "occ",
				"energy": -0.29375,
				"method": "rhf"
			},
			{
				"type": "occ",
				"energy": -0.25324,
				"method": "rhf"
			},
			{
				"type": "occ",
				"energy": -0.20944,
				"method": "rhf"
			},
			{
				"type": "unocc",
				"energy": -0.01951,
				"method": "rhf"
			},
			{
				"type": "unocc",
				"energy": -0.00542,
				"method": "rhf"
			},
			{
				"type": "unocc",
				"energy": 0.01316,
				"method": "rhf"
			},
			{
				"type": "unocc",
				"energy": 0.08418,
				"method": "rhf"
			},
			{
				"type": "unocc",
				"energy": 0.09315,
				"method": "rhf"
			}
		],
		"cosmo_sigma_profile": { 
			"-0.025": 0.0,
			"-0.024": 0.0,
			"-0.023": 0.0,
			"-0.022": 0.0,
			"-0.021": 0.0,
			"-0.02": 0.0,
			"-0.019": 0.0,
			"-0.018": 0.0,
			"-0.017": 0.0,
			"-0.016": 0.0,
			"-0.015": 0.0,
			"-0.014": 0.0,
			"-0.013": 0.0,
			"-0.012": 0.0,
			"-0.011": 0.0,
			"-0.01": 0.0,
			"-0.009": 1.10484680084,
			"-0.008": 6.83703548645,
			"-0.007": 11.8898271614,
			"-0.006": 11.8751917883,
			"-0.005": 9.4710797412,
			"-0.004": 9.09220961594,
			"-0.003": 10.3213123133,
			"-0.002": 11.4348001529,
			"-0.001": 10.1905543131,
			"0.0": 12.4527197464,
			"0.001": 12.5569258396,
			"0.002": 19.9683568142,
			"0.003": 17.2972041248,
			"0.004": 9.99971036053,
			"0.005": 6.49855073128,
			"0.006": 4.75646957163,
			"0.007": 8.23466905423,
			"0.008": 8.16537808071,
			"0.009": 2.95418936048,
			"0.01": 0.921982848718,
			"0.011": 0.0,
			"0.012": 0.0,
			"0.013": 0.0,
			"0.014": 0.0,
			"0.015": 0.0,
			"0.016": 0.0,
			"0.017": 0.0,
			"0.018": 0.0,
			"0.019": 0.0,
			"0.02": 0.0,
			"0.021": 0.0,
			"0.022": 0.0,
			"0.023": 0.0,
			"0.024": 0.0,
			"0.025": 0.0
		}
	}
}
