{
	 "smiles": "CN(C(=O)C1=CC(N)=CC=C1)C1=CC=CC=C1", 
	 "Tm": 418.15, 
	 "num_atms": 31, 
	 "gaussian": { 
		 "optdone": 1, 
		 "sigma_profile": "yes", 
		 "theory": "DFT", 
		 "functional": "B3LYP", 
		 "basiset": "6-31G**", 
		 "properties": { 
			 "R2extent": 4387.3781, 
			 "electric_dipole_moment_norm": 2.2626957396, 
			 "electric_quadrupole_moment_norm": 13.9599050287, 
			 "total_energy": -726.666683385, 
			 "HOMO_LUMO_gap": 0.17353, 
			 "cosmo_polarized_energy": -14.91, 
			 "cosmo_cavitation_energy": 34.52, 
			 "cosmo_dispersion_energy": -24.04, 
			 "cosmo_repulsion_energy": 1.89, 
			 "cosmo_total_nonelectrostatic_energy": 12.37, 
			 "SMD_solvation_energy": 6.37 
		},
		"coords": [
			{
				"x": 1.8024887994,
				"y": -2.5217491088,
				"z": 0.1108772327,
				"element": "C" 
			},
			{
				"x": 1.0122665387,
				"y": -1.2944908282,
				"z": 0.2753998017,
				"element": "N" 
			},
			{
				"x": 0.8097683003,
				"y": -0.5532512982,
				"z": -0.8815288254,
				"element": "C" 
			},
			{
				"x": 1.3322982822,
				"y": -0.8979033555,
				"z": -1.9391971225,
				"element": "O" 
			},
			{
				"x": -0.1128251973,
				"y": 0.6344235933,
				"z": -0.8406639497,
				"element": "C" 
			},
			{
				"x": 0.1603650708,
				"y": 1.6634503219,
				"z": -1.7469518557,
				"element": "C" 
			},
			{
				"x": -0.6781422274,
				"y": 2.7830518907,
				"z": -1.8440416504,
				"element": "C" 
			},
			{
				"x": -0.3578196541,
				"y": 3.840252416,
				"z": -2.6991615543,
				"element": "N" 
			},
			{
				"x": -1.820199265,
				"y": 2.8393210393,
				"z": -1.0256306427,
				"element": "C" 
			},
			{
				"x": -2.1043556043,
				"y": 1.8004160573,
				"z": -0.1426464654,
				"element": "C" 
			},
			{
				"x": -1.2588089221,
				"y": 0.6964619685,
				"z": -0.0353961105,
				"element": "C" 
			},
			{
				"x": 0.9227199149,
				"y": -0.7557487389,
				"z": 1.5983215322,
				"element": "C" 
			},
			{
				"x": 1.528001021,
				"y": 0.4647674171,
				"z": 1.9235767651,
				"element": "C" 
			},
			{
				"x": 1.4489144962,
				"y": 0.9611778129,
				"z": 3.2248338328,
				"element": "C" 
			},
			{
				"x": 0.7899191907,
				"y": 0.2357665647,
				"z": 4.2186410094,
				"element": "C" 
			},
			{
				"x": 0.2006165895,
				"y": -0.9901100244,
				"z": 3.9010416878,
				"element": "C" 
			},
			{
				"x": 0.2611084032,
				"y": -1.4822223386,
				"z": 2.5980220438,
				"element": "C" 
			},
			{
				"x": 2.8736035262,
				"y": -2.2993724357,
				"z": 0.0287736715,
				"element": "H" 
			},
			{
				"x": 1.6408169084,
				"y": -3.1686313184,
				"z": 0.9739434243,
				"element": "H" 
			},
			{
				"x": 1.4913670505,
				"y": -3.0298939907,
				"z": -0.80153,
				"element": "H" 
			},
			{
				"x": 1.0310599768,
				"y": 1.570686475,
				"z": -2.3891728772,
				"element": "H" 
			},
			{
				"x": 0.2435611044,
				"y": 3.5926436618,
				"z": -3.4732283021,
				"element": "H" 
			},
			{
				"x": -1.1438609661,
				"y": 4.3999735761,
				"z": -3.0003674346,
				"element": "H" 
			},
			{
				"x": -2.4836683942,
				"y": 3.6985634126,
				"z": -1.0892313822,
				"element": "H" 
			},
			{
				"x": -3.0012086044,
				"y": 1.8525052523,
				"z": 0.4683227544,
				"element": "H" 
			},
			{
				"x": -1.4954060146,
				"y": -0.1071095212,
				"z": 0.6512566897,
				"element": "H" 
			},
			{
				"x": 2.053176476,
				"y": 1.0221114391,
				"z": 1.1548147928,
				"element": "H" 
			},
			{
				"x": 1.9155908002,
				"y": 1.9125918506,
				"z": 3.4630555499,
				"element": "H" 
			},
			{
				"x": 0.7370433921,
				"y": 0.6209686862,
				"z": 5.2325343166,
				"element": "H" 
			},
			{
				"x": -0.3168727232,
				"y": -1.5611542343,
				"z": 4.6665827232,
				"element": "H" 
			},
			{
				"x": -0.2145182689,
				"y": -2.4251962426,
				"z": 2.3446503448,
				"element": "H" 
			}
		],
		 "valence_orbital": [ 
			{
				"type": "occ",
				"energy": -0.25732,
				"method": "rhf"
			},
			{
				"type": "occ",
				"energy": -0.25181,
				"method": "rhf"
			},
			{
				"type": "occ",
				"energy": -0.23484,
				"method": "rhf"
			},
			{
				"type": "occ",
				"energy": -0.22599,
				"method": "rhf"
			},
			{
				"type": "occ",
				"energy": -0.20162,
				"method": "rhf"
			},
			{
				"type": "unocc",
				"energy": -0.02809,
				"method": "rhf"
			},
			{
				"type": "unocc",
				"energy": -0.00684,
				"method": "rhf"
			},
			{
				"type": "unocc",
				"energy": -0.00352,
				"method": "rhf"
			},
			{
				"type": "unocc",
				"energy": 0.01545,
				"method": "rhf"
			},
			{
				"type": "unocc",
				"energy": 0.0609,
				"method": "rhf"
			}
		],
		"cosmo_sigma_profile": { 
			"-0.025": 0.0,
			"-0.024": 0.0,
			"-0.023": 0.0,
			"-0.022": 0.0,
			"-0.021": 0.0,
			"-0.02": 0.0,
			"-0.019": 0.0,
			"-0.018": 0.0,
			"-0.017": 0.0,
			"-0.016": 0.0,
			"-0.015": 0.0,
			"-0.014": 0.0,
			"-0.013": 0.438921840754,
			"-0.012": 2.42452379552,
			"-0.011": 2.98664469381,
			"-0.01": 3.01568068836,
			"-0.009": 3.42631886442,
			"-0.008": 2.98531447742,
			"-0.007": 3.2397036113,
			"-0.006": 13.8363652214,
			"-0.005": 20.8327013846,
			"-0.004": 24.5761731984,
			"-0.003": 22.7296683147,
			"-0.002": 23.2844965334,
			"-0.001": 17.8697826446,
			"0.0": 14.9660964741,
			"0.001": 16.7158987823,
			"0.002": 13.6634120748,
			"0.003": 14.4825787873,
			"0.004": 16.778802279,
			"0.005": 20.556701002,
			"0.006": 11.6882240353,
			"0.007": 2.88165731836,
			"0.008": 2.43730466116,
			"0.009": 2.46316854953,
			"0.01": 1.86431221531,
			"0.011": 2.6883439984,
			"0.012": 2.87777507524,
			"0.013": 4.87634263887,
			"0.014": 3.50108166405,
			"0.015": 0.429231331466,
			"0.016": 0.0,
			"0.017": 0.0,
			"0.018": 0.0,
			"0.019": 0.0,
			"0.02": 0.0,
			"0.021": 0.0,
			"0.022": 0.0,
			"0.023": 0.0,
			"0.024": 0.0,
			"0.025": 0.0
		}
	}
}
