{
	 "smiles": "CC1=NN(C2CCS(=O)(=O)C2)C(=O)C1", 
	 "Tm": 459.15, 
	 "num_atms": 26, 
	 "gaussian": { 
		 "optdone": 1, 
		 "sigma_profile": "yes", 
		 "theory": "DFT", 
		 "functional": "B3LYP", 
		 "basiset": "6-31G**", 
		 "properties": { 
			 "R2extent": 4127.6881, 
			 "electric_dipole_moment_norm": 6.16561042396, 
			 "electric_quadrupole_moment_norm": 24.4914419551, 
			 "total_energy": -1045.36999343, 
			 "HOMO_LUMO_gap": 0.20331, 
			 "cosmo_polarized_energy": -21.77, 
			 "cosmo_cavitation_energy": 30.15, 
			 "cosmo_dispersion_energy": -22.11, 
			 "cosmo_repulsion_energy": 1.72, 
			 "cosmo_total_nonelectrostatic_energy": 9.77, 
			 "SMD_solvation_energy": 4.39 
		},
		"coords": [
			{
				"x": 2.0670937718,
				"y": 2.1721476875,
				"z": -1.3241531523,
				"element": "C" 
			},
			{
				"x": 1.4956409442,
				"y": 0.7948969127,
				"z": -1.3833311296,
				"element": "C" 
			},
			{
				"x": 1.127500406,
				"y": 0.1626322174,
				"z": -0.3203436234,
				"element": "N" 
			},
			{
				"x": 0.6405529057,
				"y": -1.0878223467,
				"z": -0.7037962793,
				"element": "N" 
			},
			{
				"x": 0.1815614284,
				"y": -2.0435229304,
				"z": 0.2880532527,
				"element": "C" 
			},
			{
				"x": -1.0582667035,
				"y": -1.5297353512,
				"z": 1.0797543837,
				"element": "C" 
			},
			{
				"x": -0.5651746641,
				"y": -0.7245929718,
				"z": 2.2814381415,
				"element": "C" 
			},
			{
				"x": 0.7809532033,
				"y": -1.7595068765,
				"z": 2.9449670485,
				"element": "S" 
			},
			{
				"x": 0.1663949734,
				"y": -2.876620694,
				"z": 3.6845567794,
				"element": "O" 
			},
			{
				"x": 1.8417458579,
				"y": -0.9502180084,
				"z": 3.5611306001,
				"element": "O" 
			},
			{
				"x": 1.3021493686,
				"y": -2.3975686571,
				"z": 1.29907218,
				"element": "C" 
			},
			{
				"x": 0.6911531767,
				"y": -1.3128072997,
				"z": -2.068920437,
				"element": "C" 
			},
			{
				"x": 0.337099635,
				"y": -2.3250327031,
				"z": -2.6453174264,
				"element": "O" 
			},
			{
				"x": 1.2786339908,
				"y": -0.0172057761,
				"z": -2.6330568109,
				"element": "C" 
			},
			{
				"x": 3.0756678312,
				"y": 2.1966967623,
				"z": -1.7537808699,
				"element": "H" 
			},
			{
				"x": 2.1170370443,
				"y": 2.5131119075,
				"z": -0.2881309015,
				"element": "H" 
			},
			{
				"x": 1.4564660209,
				"y": 2.8767102249,
				"z": -1.9015570499,
				"element": "H" 
			},
			{
				"x": -0.0930159813,
				"y": -2.9203261663,
				"z": -0.3026275676,
				"element": "H" 
			},
			{
				"x": -1.701249224,
				"y": -0.9354354452,
				"z": 0.4261188726,
				"element": "H" 
			},
			{
				"x": -1.6343460062,
				"y": -2.3916319054,
				"z": 1.4302215894,
				"element": "H" 
			},
			{
				"x": -0.1289067708,
				"y": 0.2327708662,
				"z": 1.9914082005,
				"element": "H" 
			},
			{
				"x": -1.3032017851,
				"y": -0.5966111488,
				"z": 3.0749329857,
				"element": "H" 
			},
			{
				"x": 1.4386520457,
				"y": -3.4730396659,
				"z": 1.4220824395,
				"element": "H" 
			},
			{
				"x": 2.2508085191,
				"y": -1.9234758693,
				"z": 1.0471525264,
				"element": "H" 
			},
			{
				"x": 0.5803267025,
				"y": 0.4514409355,
				"z": -3.3359493586,
				"element": "H" 
			},
			{
				"x": 2.2033233093,
				"y": -0.2166536979,
				"z": -3.1863243933,
				"element": "H" 
			}
		],
		 "valence_orbital": [ 
			{
				"type": "occ",
				"energy": -0.30391,
				"method": "rhf"
			},
			{
				"type": "occ",
				"energy": -0.28969,
				"method": "rhf"
			},
			{
				"type": "occ",
				"energy": -0.27865,
				"method": "rhf"
			},
			{
				"type": "occ",
				"energy": -0.26727,
				"method": "rhf"
			},
			{
				"type": "occ",
				"energy": -0.24408,
				"method": "rhf"
			},
			{
				"type": "unocc",
				"energy": -0.04077,
				"method": "rhf"
			},
			{
				"type": "unocc",
				"energy": 0.02208,
				"method": "rhf"
			},
			{
				"type": "unocc",
				"energy": 0.05796,
				"method": "rhf"
			},
			{
				"type": "unocc",
				"energy": 0.06421,
				"method": "rhf"
			},
			{
				"type": "unocc",
				"energy": 0.07473,
				"method": "rhf"
			}
		],
		"cosmo_sigma_profile": { 
			"-0.025": 0.0,
			"-0.024": 0.0,
			"-0.023": 0.0,
			"-0.022": 0.0,
			"-0.021": 0.0,
			"-0.02": 0.0,
			"-0.019": 0.0,
			"-0.018": 0.0,
			"-0.017": 0.0,
			"-0.016": 0.0,
			"-0.015": 0.0,
			"-0.014": 0.0,
			"-0.013": 0.0,
			"-0.012": 0.0,
			"-0.011": 0.0,
			"-0.01": 0.0,
			"-0.009": 1.98899980456,
			"-0.008": 12.8518733987,
			"-0.007": 13.0118915508,
			"-0.006": 21.3300902185,
			"-0.005": 24.7739841988,
			"-0.004": 25.0909633894,
			"-0.003": 20.806201495,
			"-0.002": 14.1252843942,
			"-0.001": 11.4643333326,
			"0.0": 8.66649194482,
			"0.001": 6.05840525552,
			"0.002": 5.97334382123,
			"0.003": 5.5022454185,
			"0.004": 5.13004742441,
			"0.005": 4.38939402064,
			"0.006": 4.23860766063,
			"0.007": 4.4574422544,
			"0.008": 4.2642719092,
			"0.009": 4.30835921568,
			"0.01": 4.80123698381,
			"0.011": 12.6895272474,
			"0.012": 14.0281321784,
			"0.013": 7.07619530467,
			"0.014": 0.914976489942,
			"0.015": 0.0,
			"0.016": 0.0,
			"0.017": 0.0,
			"0.018": 0.0,
			"0.019": 0.0,
			"0.02": 0.0,
			"0.021": 0.0,
			"0.022": 0.0,
			"0.023": 0.0,
			"0.024": 0.0,
			"0.025": 0.0
		}
	}
}
