{
	 "smiles": "OCC1=CN=CC=C1", 
	 "Tm": 266.4, 
	 "num_atms": 15, 
	 "gaussian": { 
		 "optdone": 1, 
		 "sigma_profile": "yes", 
		 "theory": "DFT", 
		 "functional": "B3LYP", 
		 "basiset": "6-31G**", 
		 "properties": { 
			 "R2extent": 1136.9394, 
			 "electric_dipole_moment_norm": 1.22090672453, 
			 "electric_quadrupole_moment_norm": 10.9134499912, 
			 "total_energy": -362.81366745, 
			 "HOMO_LUMO_gap": 0.22636, 
			 "cosmo_polarized_energy": -9.51, 
			 "cosmo_cavitation_energy": 18.79, 
			 "cosmo_dispersion_energy": -14.09, 
			 "cosmo_repulsion_energy": 1.18, 
			 "cosmo_total_nonelectrostatic_energy": 5.87, 
			 "SMD_solvation_energy": 2.0 
		},
		"coords": [
			{
				"x": 0.4538136504,
				"y": 2.8358012706,
				"z": 0.7402612488,
				"element": "O" 
			},
			{
				"x": 0.916752639,
				"y": 1.5343174365,
				"z": 1.0735568107,
				"element": "C" 
			},
			{
				"x": 0.7697261012,
				"y": 0.535698067,
				"z": -0.0561508081,
				"element": "C" 
			},
			{
				"x": 0.5010184013,
				"y": -0.8146850372,
				"z": 0.194560317,
				"element": "C" 
			},
			{
				"x": 0.3876306335,
				"y": -1.751513932,
				"z": -0.7542755707,
				"element": "N" 
			},
			{
				"x": 0.5353127465,
				"y": -1.356010532,
				"z": -2.0244585715,
				"element": "C" 
			},
			{
				"x": 0.792279522,
				"y": -0.0337425396,
				"z": -2.393492362,
				"element": "C" 
			},
			{
				"x": 0.9116132366,
				"y": 0.926345486,
				"z": -1.3917599531,
				"element": "C" 
			},
			{
				"x": -0.4857520459,
				"y": 2.7647705317,
				"z": 0.5244408916,
				"element": "H" 
			},
			{
				"x": 0.4246280246,
				"y": 1.1445379898,
				"z": 1.9782898485,
				"element": "H" 
			},
			{
				"x": 1.9765300986,
				"y": 1.664507645,
				"z": 1.3229966145,
				"element": "H" 
			},
			{
				"x": 0.3661127353,
				"y": -1.1579147102,
				"z": 1.2209104402,
				"element": "H" 
			},
			{
				"x": 0.4383181472,
				"y": -2.1309920199,
				"z": -2.7829526914,
				"element": "H" 
			},
			{
				"x": 0.8954356017,
				"y": 0.2324762532,
				"z": -3.4410925528,
				"element": "H" 
			},
			{
				"x": 1.1030805081,
				"y": 1.9694040913,
				"z": -1.6259336619,
				"element": "H" 
			}
		],
		 "valence_orbital": [ 
			{
				"type": "occ",
				"energy": -0.34354,
				"method": "rhf"
			},
			{
				"type": "occ",
				"energy": -0.29325,
				"method": "rhf"
			},
			{
				"type": "occ",
				"energy": -0.2803,
				"method": "rhf"
			},
			{
				"type": "occ",
				"energy": -0.25675,
				"method": "rhf"
			},
			{
				"type": "occ",
				"energy": -0.25228,
				"method": "rhf"
			},
			{
				"type": "unocc",
				"energy": -0.02592,
				"method": "rhf"
			},
			{
				"type": "unocc",
				"energy": -0.01441,
				"method": "rhf"
			},
			{
				"type": "unocc",
				"energy": 0.07825,
				"method": "rhf"
			},
			{
				"type": "unocc",
				"energy": 0.10631,
				"method": "rhf"
			},
			{
				"type": "unocc",
				"energy": 0.11994,
				"method": "rhf"
			}
		],
		"cosmo_sigma_profile": { 
			"-0.025": 0.0,
			"-0.024": 0.0,
			"-0.023": 0.0,
			"-0.022": 0.0,
			"-0.021": 0.0,
			"-0.02": 0.0,
			"-0.019": 0.0,
			"-0.018": 0.0,
			"-0.017": 0.0,
			"-0.016": 0.505081245999,
			"-0.015": 0.942899137731,
			"-0.014": 0.656333509343,
			"-0.013": 1.01337094931,
			"-0.012": 0.93683799092,
			"-0.011": 0.857804943084,
			"-0.01": 0.87808168935,
			"-0.009": 0.579013399561,
			"-0.008": 0.85494815441,
			"-0.007": 2.79532673644,
			"-0.006": 10.8067872735,
			"-0.005": 14.1675261534,
			"-0.004": 12.7763810293,
			"-0.003": 11.2227339144,
			"-0.002": 10.0431409754,
			"-0.001": 9.56401020707,
			"0.0": 7.47589537243,
			"0.001": 7.68481315114,
			"0.002": 11.5271628004,
			"0.003": 12.3255570438,
			"0.004": 3.91575379986,
			"0.005": 3.73064136765,
			"0.006": 2.94237923258,
			"0.007": 2.01220903511,
			"0.008": 2.90208014781,
			"0.009": 2.36192499277,
			"0.01": 1.72276913178,
			"0.011": 1.98373918659,
			"0.012": 2.64718065199,
			"0.013": 2.68430720187,
			"0.014": 2.47225388415,
			"0.015": 0.924286394823,
			"0.016": 0.931065188399,
			"0.017": 0.433444091637,
			"0.018": 0.0,
			"0.019": 0.0,
			"0.02": 0.0,
			"0.021": 0.0,
			"0.022": 0.0,
			"0.023": 0.0,
			"0.024": 0.0,
			"0.025": 0.0
		}
	}
}
