{
	 "smiles": "OCCNC1CS(=O)(=O)CC1O", 
	 "Tm": 389.15, 
	 "num_atms": 25, 
	 "gaussian": { 
		 "optdone": 1, 
		 "sigma_profile": "yes", 
		 "theory": "DFT", 
		 "functional": "B3LYP", 
		 "basiset": "6-31G**", 
		 "properties": { 
			 "R2extent": 3541.4329, 
			 "electric_dipole_moment_norm": 7.22446607923, 
			 "electric_quadrupole_moment_norm": 15.487682797, 
			 "total_energy": -990.215910389, 
			 "HOMO_LUMO_gap": 0.30462, 
			 "cosmo_polarized_energy": -23.97, 
			 "cosmo_cavitation_energy": 28.32, 
			 "cosmo_dispersion_energy": -21.38, 
			 "cosmo_repulsion_energy": 1.69, 
			 "cosmo_total_nonelectrostatic_energy": 8.63, 
			 "SMD_solvation_energy": 3.01 
		},
		"coords": [
			{
				"x": -0.6859285632,
				"y": 4.1515921646,
				"z": -0.1238184535,
				"element": "O" 
			},
			{
				"x": -0.8299769267,
				"y": 2.9580459516,
				"z": 0.6270167163,
				"element": "C" 
			},
			{
				"x": -0.2224572113,
				"y": 1.8338688309,
				"z": -0.2048132486,
				"element": "C" 
			},
			{
				"x": -0.3464399451,
				"y": 0.5560522236,
				"z": 0.5056185896,
				"element": "N" 
			},
			{
				"x": 0.206390924,
				"y": -0.6149122674,
				"z": -0.1797567642,
				"element": "C" 
			},
			{
				"x": 1.6972977375,
				"y": -0.4645145637,
				"z": -0.5019261753,
				"element": "C" 
			},
			{
				"x": 2.2527992003,
				"y": -2.1808134206,
				"z": -0.8110490398,
				"element": "S" 
			},
			{
				"x": 3.5975007623,
				"y": -2.4009300892,
				"z": -0.2629806968,
				"element": "O" 
			},
			{
				"x": 1.9546216556,
				"y": -2.501031397,
				"z": -2.21816794,
				"element": "O" 
			},
			{
				"x": 0.9547921631,
				"y": -2.9676575199,
				"z": 0.2323841985,
				"element": "C" 
			},
			{
				"x": 0.1119751292,
				"y": -1.8234436686,
				"z": 0.7979744775,
				"element": "C" 
			},
			{
				"x": 0.6487236431,
				"y": -1.4528455031,
				"z": 2.0509025512,
				"element": "O" 
			},
			{
				"x": -1.0165231822,
				"y": 4.8870240476,
				"z": 0.405693777,
				"element": "H" 
			},
			{
				"x": -0.3112856375,
				"y": 3.0089280244,
				"z": 1.5962298982,
				"element": "H" 
			},
			{
				"x": -1.891700997,
				"y": 2.7348919443,
				"z": 0.8334394321,
				"element": "H" 
			},
			{
				"x": 0.8369572878,
				"y": 2.0569252735,
				"z": -0.3602697698,
				"element": "H" 
			},
			{
				"x": -0.7021229038,
				"y": 1.8246167856,
				"z": -1.1972609977,
				"element": "H" 
			},
			{
				"x": -1.3373758835,
				"y": 0.3759885547,
				"z": 0.66783913,
				"element": "H" 
			},
			{
				"x": -0.329482664,
				"y": -0.86055947,
				"z": -1.1116501335,
				"element": "H" 
			},
			{
				"x": 2.2536059728,
				"y": -0.0824533586,
				"z": 0.3558963009,
				"element": "H" 
			},
			{
				"x": 1.9210483609,
				"y": 0.1081393017,
				"z": -1.4022641466,
				"element": "H" 
			},
			{
				"x": 0.3943325757,
				"y": -3.6289000426,
				"z": -0.4307382988,
				"element": "H" 
			},
			{
				"x": 1.4385446599,
				"y": -3.5332233419,
				"z": 1.0294532312,
				"element": "H" 
			},
			{
				"x": -0.9394017022,
				"y": -2.143274214,
				"z": 0.8948052132,
				"element": "H" 
			},
			{
				"x": 0.4160055443,
				"y": -0.5121142458,
				"z": 2.1554421488,
				"element": "H" 
			}
		],
		 "valence_orbital": [ 
			{
				"type": "occ",
				"energy": -0.29124,
				"method": "rhf"
			},
			{
				"type": "occ",
				"energy": -0.28884,
				"method": "rhf"
			},
			{
				"type": "occ",
				"energy": -0.28613,
				"method": "rhf"
			},
			{
				"type": "occ",
				"energy": -0.27576,
				"method": "rhf"
			},
			{
				"type": "occ",
				"energy": -0.26591,
				"method": "rhf"
			},
			{
				"type": "unocc",
				"energy": 0.03871,
				"method": "rhf"
			},
			{
				"type": "unocc",
				"energy": 0.05896,
				"method": "rhf"
			},
			{
				"type": "unocc",
				"energy": 0.06302,
				"method": "rhf"
			},
			{
				"type": "unocc",
				"energy": 0.06979,
				"method": "rhf"
			},
			{
				"type": "unocc",
				"energy": 0.07134,
				"method": "rhf"
			}
		],
		"cosmo_sigma_profile": { 
			"-0.025": 0.0,
			"-0.024": 0.0,
			"-0.023": 0.0,
			"-0.022": 0.0,
			"-0.021": 0.0,
			"-0.02": 0.0,
			"-0.019": 0.0,
			"-0.018": 0.0,
			"-0.017": 0.0,
			"-0.016": 0.550529800853,
			"-0.015": 1.23298677181,
			"-0.014": 1.16319627436,
			"-0.013": 0.5410167119,
			"-0.012": 1.28936774484,
			"-0.011": 3.12336444793,
			"-0.01": 2.60869083278,
			"-0.009": 3.95437976803,
			"-0.008": 9.22397591324,
			"-0.007": 12.8717728411,
			"-0.006": 18.0926450835,
			"-0.005": 18.6049581809,
			"-0.004": 17.4310980441,
			"-0.003": 15.9990530363,
			"-0.002": 12.2855293221,
			"-0.001": 9.60171853125,
			"0.0": 7.03156274069,
			"0.001": 5.71281460744,
			"0.002": 5.60822654589,
			"0.003": 5.00952262083,
			"0.004": 4.7146628807,
			"0.005": 5.30791995925,
			"0.006": 4.01356364569,
			"0.007": 4.59833287534,
			"0.008": 4.6105596949,
			"0.009": 4.71411506916,
			"0.01": 5.84467956394,
			"0.011": 12.6405384891,
			"0.012": 13.6273444676,
			"0.013": 5.38167613956,
			"0.014": 2.31156142843,
			"0.015": 0.0915948384845,
			"0.016": 0.0,
			"0.017": 0.0,
			"0.018": 0.0,
			"0.019": 0.0,
			"0.02": 0.0,
			"0.021": 0.0,
			"0.022": 0.0,
			"0.023": 0.0,
			"0.024": 0.0,
			"0.025": 0.0
		}
	}
}
