{
	 "smiles": "CC1=C(C=C(C=C1)[N+]([O-])=O)S(O)(=O)=O", 
	 "Tm": 406.15, 
	 "num_atms": 21, 
	 "gaussian": { 
		 "optdone": 1, 
		 "sigma_profile": "yes", 
		 "theory": "DFT", 
		 "functional": "B3LYP", 
		 "basiset": "6-31G**", 
		 "properties": { 
			 "R2extent": 3501.9085, 
			 "electric_dipole_moment_norm": 3.02599657303, 
			 "electric_quadrupole_moment_norm": 24.4993894857, 
			 "total_energy": -1099.85159839, 
			 "HOMO_LUMO_gap": 0.18756, 
			 "cosmo_polarized_energy": -16.84, 
			 "cosmo_cavitation_energy": 27.42, 
			 "cosmo_dispersion_energy": -20.61, 
			 "cosmo_repulsion_energy": 1.56, 
			 "cosmo_total_nonelectrostatic_energy": 8.36, 
			 "SMD_solvation_energy": 6.27 
		},
		"coords": [
			{
				"x": 2.472109622,
				"y": 0.0784354147,
				"z": 2.1484459498,
				"element": "C" 
			},
			{
				"x": 1.1113888303,
				"y": 0.1859409444,
				"z": 1.5087536378,
				"element": "C" 
			},
			{
				"x": 0.9144870021,
				"y": 0.7360524027,
				"z": 0.2221642182,
				"element": "C" 
			},
			{
				"x": -0.3455868117,
				"y": 0.8245598666,
				"z": -0.3609233234,
				"element": "C" 
			},
			{
				"x": -1.4396015035,
				"y": 0.3587095302,
				"z": 0.3619728778,
				"element": "C" 
			},
			{
				"x": -1.3012557723,
				"y": -0.1878978178,
				"z": 1.6328671719,
				"element": "C" 
			},
			{
				"x": -0.027638313,
				"y": -0.2667093669,
				"z": 2.1892355634,
				"element": "C" 
			},
			{
				"x": -2.7785707825,
				"y": 0.4530530532,
				"z": -0.2418018789,
				"element": "N" 
			},
			{
				"x": -2.8637413048,
				"y": 0.9596083643,
				"z": -1.3590672824,
				"element": "O" 
			},
			{
				"x": -3.7256428628,
				"y": 0.0207302795,
				"z": 0.4123886099,
				"element": "O" 
			},
			{
				"x": 2.3550376191,
				"y": 1.3216796798,
				"z": -0.6824861871,
				"element": "S" 
			},
			{
				"x": 1.6736674353,
				"y": 1.8904394229,
				"z": -2.060946462,
				"element": "O" 
			},
			{
				"x": 3.1779782265,
				"y": 0.1785937206,
				"z": -1.0456892419,
				"element": "O" 
			},
			{
				"x": 2.9257164977,
				"y": 2.4775903689,
				"z": 0.0111009583,
				"element": "O" 
			},
			{
				"x": 2.9343786137,
				"y": 1.0650932605,
				"z": 2.2506784772,
				"element": "H" 
			},
			{
				"x": 2.3979855925,
				"y": -0.3778062298,
				"z": 3.1373301111,
				"element": "H" 
			},
			{
				"x": 3.1443084218,
				"y": -0.5275074315,
				"z": 1.5329518784,
				"element": "H" 
			},
			{
				"x": -0.4885571745,
				"y": 1.2366958106,
				"z": -1.349960933,
				"element": "H" 
			},
			{
				"x": -2.1784962336,
				"y": -0.5390526799,
				"z": 2.1617760479,
				"element": "H" 
			},
			{
				"x": 0.0930283343,
				"y": -0.6919140588,
				"z": 3.1807329999,
				"element": "H" 
			},
			{
				"x": 1.7628045633,
				"y": 2.8587054657,
				"z": -2.0337231928,
				"element": "H" 
			}
		],
		 "valence_orbital": [ 
			{
				"type": "occ",
				"energy": -0.32283,
				"method": "rhf"
			},
			{
				"type": "occ",
				"energy": -0.31903,
				"method": "rhf"
			},
			{
				"type": "occ",
				"energy": -0.30475,
				"method": "rhf"
			},
			{
				"type": "occ",
				"energy": -0.29805,
				"method": "rhf"
			},
			{
				"type": "occ",
				"energy": -0.29177,
				"method": "rhf"
			},
			{
				"type": "unocc",
				"energy": -0.10421,
				"method": "rhf"
			},
			{
				"type": "unocc",
				"energy": -0.05991,
				"method": "rhf"
			},
			{
				"type": "unocc",
				"energy": -0.02121,
				"method": "rhf"
			},
			{
				"type": "unocc",
				"energy": 0.0147,
				"method": "rhf"
			},
			{
				"type": "unocc",
				"energy": 0.03765,
				"method": "rhf"
			}
		],
		"cosmo_sigma_profile": { 
			"-0.025": 0.0,
			"-0.024": 0.0,
			"-0.023": 0.0,
			"-0.022": 0.0,
			"-0.021": 0.332385248926,
			"-0.02": 0.897222059055,
			"-0.019": 0.4895991411,
			"-0.018": 1.50742722756,
			"-0.017": 0.753302220248,
			"-0.016": 0.48994541588,
			"-0.015": 0.525339453541,
			"-0.014": 0.863061179363,
			"-0.013": 1.36577678605,
			"-0.012": 0.548309530837,
			"-0.011": 0.722415917225,
			"-0.01": 0.930084064516,
			"-0.009": 2.21070122826,
			"-0.008": 5.90799386452,
			"-0.007": 8.10717937217,
			"-0.006": 8.46930715405,
			"-0.005": 10.9529025921,
			"-0.004": 13.8266896387,
			"-0.003": 16.868389086,
			"-0.002": 24.296320465,
			"-0.001": 20.126474702,
			"0.0": 12.1976240763,
			"0.001": 7.03606007766,
			"0.002": 5.79621014845,
			"0.003": 5.26872011098,
			"0.004": 5.42727576342,
			"0.005": 6.74025263236,
			"0.006": 8.60574237119,
			"0.007": 14.6015265228,
			"0.008": 10.7679160117,
			"0.009": 14.0515318874,
			"0.01": 8.31161633848,
			"0.011": 0.493869624969,
			"0.012": 0.0,
			"0.013": 0.0,
			"0.014": 0.0,
			"0.015": 0.0,
			"0.016": 0.0,
			"0.017": 0.0,
			"0.018": 0.0,
			"0.019": 0.0,
			"0.02": 0.0,
			"0.021": 0.0,
			"0.022": 0.0,
			"0.023": 0.0,
			"0.024": 0.0,
			"0.025": 0.0
		}
	}
}
