{
	 "smiles": "CCCCCCCOC(=O)CCCCCCC", 
	 "Tm": 262.55, 
	 "num_atms": 47, 
	 "gaussian": { 
		 "optdone": 1, 
		 "sigma_profile": "yes", 
		 "theory": "DFT", 
		 "functional": "B3LYP", 
		 "basiset": "6-31G**", 
		 "properties": { 
			 "R2extent": 6980.3052, 
			 "electric_dipole_moment_norm": 1.91908308314, 
			 "electric_quadrupole_moment_norm": 7.97229720156, 
			 "total_energy": -740.174938891, 
			 "HOMO_LUMO_gap": 0.27517, 
			 "cosmo_polarized_energy": -6.56, 
			 "cosmo_cavitation_energy": 46.76, 
			 "cosmo_dispersion_energy": -29.15, 
			 "cosmo_repulsion_energy": 2.33, 
			 "cosmo_total_nonelectrostatic_energy": 19.94, 
			 "SMD_solvation_energy": 7.39 
		},
		"coords": [
			{
				"x": -1.5532029497,
				"y": -1.8350003655,
				"z": -0.3734927967,
				"element": "C" 
			},
			{
				"x": -0.5526472189,
				"y": -2.5639425778,
				"z": 0.5297746793,
				"element": "C" 
			},
			{
				"x": -1.0716483268,
				"y": -2.7593897598,
				"z": 1.9609530527,
				"element": "C" 
			},
			{
				"x": -0.142982324,
				"y": -3.572753138,
				"z": 2.8796251625,
				"element": "C" 
			},
			{
				"x": 1.2700704105,
				"y": -3.0164855241,
				"z": 3.1427322942,
				"element": "C" 
			},
			{
				"x": 1.347840817,
				"y": -1.6940570113,
				"z": 3.9339426978,
				"element": "C" 
			},
			{
				"x": 1.2592289591,
				"y": -0.4126382097,
				"z": 3.1136239889,
				"element": "C" 
			},
			{
				"x": 2.3925936986,
				"y": -0.3844861123,
				"z": 2.21298936,
				"element": "O" 
			},
			{
				"x": 2.5387507912,
				"y": 0.7431803146,
				"z": 1.4783205893,
				"element": "C" 
			},
			{
				"x": 1.7813348702,
				"y": 1.689068976,
				"z": 1.5511037259,
				"element": "O" 
			},
			{
				"x": 3.7272977206,
				"y": 0.6420429328,
				"z": 0.5447538219,
				"element": "C" 
			},
			{
				"x": 3.3386373793,
				"y": 0.0503811625,
				"z": -0.8295998309,
				"element": "C" 
			},
			{
				"x": 2.3841621472,
				"y": 0.9332482157,
				"z": -1.6445265541,
				"element": "C" 
			},
			{
				"x": 2.0071416073,
				"y": 0.3029742447,
				"z": -2.9919086928,
				"element": "C" 
			},
			{
				"x": 1.1736282444,
				"y": 1.1825084671,
				"z": -3.9414516268,
				"element": "C" 
			},
			{
				"x": -0.2392179674,
				"y": 1.5707049489,
				"z": -3.4520718745,
				"element": "C" 
			},
			{
				"x": -0.3182758615,
				"y": 2.8674379801,
				"z": -2.6344972868,
				"element": "C" 
			},
			{
				"x": -1.7842940679,
				"y": -0.8365347453,
				"z": 0.0151329768,
				"element": "H" 
			},
			{
				"x": -1.1613956412,
				"y": -1.7127191372,
				"z": -1.388874795,
				"element": "H" 
			},
			{
				"x": -2.4975510754,
				"y": -2.3867156419,
				"z": -0.4459983708,
				"element": "H" 
			},
			{
				"x": -0.3152146059,
				"y": -3.5459906807,
				"z": 0.0975767553,
				"element": "H" 
			},
			{
				"x": 0.3916888485,
				"y": -2.005295408,
				"z": 0.5473656801,
				"element": "H" 
			},
			{
				"x": -1.2875723711,
				"y": -1.7800199705,
				"z": 2.4087703775,
				"element": "H" 
			},
			{
				"x": -2.039852642,
				"y": -3.2768878569,
				"z": 1.9140613457,
				"element": "H" 
			},
			{
				"x": -0.0332214996,
				"y": -4.5786902297,
				"z": 2.4511702085,
				"element": "H" 
			},
			{
				"x": -0.6450136236,
				"y": -3.7137878819,
				"z": 3.8469513731,
				"element": "H" 
			},
			{
				"x": 1.8131024936,
				"y": -3.7796971685,
				"z": 3.7134322118,
				"element": "H" 
			},
			{
				"x": 1.82302216,
				"y": -2.9044957045,
				"z": 2.2033257266,
				"element": "H" 
			},
			{
				"x": 2.2951755367,
				"y": -1.6606750785,
				"z": 4.4853586732,
				"element": "H" 
			},
			{
				"x": 0.5523422738,
				"y": -1.6615150379,
				"z": 4.6907924113,
				"element": "H" 
			},
			{
				"x": 0.3428984203,
				"y": -0.3437878397,
				"z": 2.521696005,
				"element": "H" 
			},
			{
				"x": 1.3007673912,
				"y": 0.4729075856,
				"z": 3.7554417142,
				"element": "H" 
			},
			{
				"x": 4.4952564071,
				"y": 0.0177648372,
				"z": 1.0103003465,
				"element": "H" 
			},
			{
				"x": 4.1267163556,
				"y": 1.6522655987,
				"z": 0.4140549965,
				"element": "H" 
			},
			{
				"x": 4.2620708022,
				"y": -0.1124702841,
				"z": -1.3998448836,
				"element": "H" 
			},
			{
				"x": 2.8938332828,
				"y": -0.9419556567,
				"z": -0.6777658214,
				"element": "H" 
			},
			{
				"x": 1.4839157183,
				"y": 1.1317908456,
				"z": -1.0541630893,
				"element": "H" 
			},
			{
				"x": 2.8569977848,
				"y": 1.9107963443,
				"z": -1.81451387,
				"element": "H" 
			},
			{
				"x": 1.4624777947,
				"y": -0.6347310457,
				"z": -2.8079843552,
				"element": "H" 
			},
			{
				"x": 2.9297699595,
				"y": 0.0143656362,
				"z": -3.5155356282,
				"element": "H" 
			},
			{
				"x": 1.7370433506,
				"y": 2.0953130997,
				"z": -4.1825653765,
				"element": "H" 
			},
			{
				"x": 1.0766896521,
				"y": 0.6348127495,
				"z": -4.8875339983,
				"element": "H" 
			},
			{
				"x": -0.8915998936,
				"y": 1.6827184334,
				"z": -4.3273655101,
				"element": "H" 
			},
			{
				"x": -0.6632801019,
				"y": 0.7395243754,
				"z": -2.8713576376,
				"element": "H" 
			},
			{
				"x": -1.3546023543,
				"y": 3.0942292784,
				"z": -2.3613408441,
				"element": "H" 
			},
			{
				"x": 0.0623337164,
				"y": 3.715700321,
				"z": -3.2154068146,
				"element": "H" 
			},
			{
				"x": 0.2613839313,
				"y": 2.8165857191,
				"z": -1.7088505176,
				"element": "H" 
			}
		],
		 "valence_orbital": [ 
			{
				"type": "occ",
				"energy": -0.30984,
				"method": "rhf"
			},
			{
				"type": "occ",
				"energy": -0.30698,
				"method": "rhf"
			},
			{
				"type": "occ",
				"energy": -0.30066,
				"method": "rhf"
			},
			{
				"type": "occ",
				"energy": -0.29121,
				"method": "rhf"
			},
			{
				"type": "occ",
				"energy": -0.26174,
				"method": "rhf"
			},
			{
				"type": "unocc",
				"energy": 0.01343,
				"method": "rhf"
			},
			{
				"type": "unocc",
				"energy": 0.06003,
				"method": "rhf"
			},
			{
				"type": "unocc",
				"energy": 0.084,
				"method": "rhf"
			},
			{
				"type": "unocc",
				"energy": 0.09298,
				"method": "rhf"
			},
			{
				"type": "unocc",
				"energy": 0.10106,
				"method": "rhf"
			}
		],
		"cosmo_sigma_profile": { 
			"-0.025": 0.0,
			"-0.024": 0.0,
			"-0.023": 0.0,
			"-0.022": 0.0,
			"-0.021": 0.0,
			"-0.02": 0.0,
			"-0.019": 0.0,
			"-0.018": 0.0,
			"-0.017": 0.0,
			"-0.016": 0.0,
			"-0.015": 0.0,
			"-0.014": 0.0,
			"-0.013": 0.0,
			"-0.012": 0.0,
			"-0.011": 0.0,
			"-0.01": 0.0,
			"-0.009": 0.0,
			"-0.008": 0.0,
			"-0.007": 0.0,
			"-0.006": 0.0,
			"-0.005": 3.80207218975,
			"-0.004": 11.3460588554,
			"-0.003": 26.6807156181,
			"-0.002": 59.4677868752,
			"-0.001": 72.0206029303,
			"0.0": 75.1182474153,
			"0.001": 56.2141961907,
			"0.002": 24.2798985219,
			"0.003": 3.68534631402,
			"0.004": 3.37141162141,
			"0.005": 3.38363670502,
			"0.006": 3.30313233526,
			"0.007": 2.31057509128,
			"0.008": 2.5067659064,
			"0.009": 1.24482998387,
			"0.01": 1.84142010674,
			"0.011": 2.12452443135,
			"0.012": 3.96435445158,
			"0.013": 2.30260277712,
			"0.014": 0.202843122302,
			"0.015": 0.0,
			"0.016": 0.0,
			"0.017": 0.0,
			"0.018": 0.0,
			"0.019": 0.0,
			"0.02": 0.0,
			"0.021": 0.0,
			"0.022": 0.0,
			"0.023": 0.0,
			"0.024": 0.0,
			"0.025": 0.0
		}
	}
}
