{
	 "smiles": "CC1=CC=C(C=C1)C(NC(=O)CCl)C1=CC=CS1", 
	 "Tm": 384.15, 
	 "num_atms": 32, 
	 "gaussian": { 
		 "optdone": 1, 
		 "sigma_profile": "yes", 
		 "theory": "DFT", 
		 "functional": "B3LYP", 
		 "basiset": "6-31G**", 
		 "properties": { 
			 "R2extent": 6392.6444, 
			 "electric_dipole_moment_norm": 4.23571225179, 
			 "electric_quadrupole_moment_norm": 17.9583981869, 
			 "total_energy": -1530.28380485, 
			 "HOMO_LUMO_gap": 0.20575, 
			 "cosmo_polarized_energy": -13.26, 
			 "cosmo_cavitation_energy": 39.19, 
			 "cosmo_dispersion_energy": -26.73, 
			 "cosmo_repulsion_energy": 2.07, 
			 "cosmo_total_nonelectrostatic_energy": 14.54, 
			 "SMD_solvation_energy": 6.92 
		},
		"coords": [
			{
				"x": -0.0789953873,
				"y": -1.2625720087,
				"z": 4.1236786648,
				"element": "C" 
			},
			{
				"x": -0.0339928799,
				"y": -0.7560543981,
				"z": 2.7014700933,
				"element": "C" 
			},
			{
				"x": -0.0889075317,
				"y": 0.6189821821,
				"z": 2.4258768489,
				"element": "C" 
			},
			{
				"x": -0.0244256274,
				"y": 1.0931545591,
				"z": 1.1190591255,
				"element": "C" 
			},
			{
				"x": 0.0958435286,
				"y": 0.2066191976,
				"z": 0.0397848473,
				"element": "C" 
			},
			{
				"x": 0.1552135383,
				"y": -1.163911311,
				"z": 0.306379897,
				"element": "C" 
			},
			{
				"x": 0.0871731015,
				"y": -1.6347606443,
				"z": 1.6199494166,
				"element": "C" 
			},
			{
				"x": 0.1254051334,
				"y": 0.7651104633,
				"z": -1.3859143176,
				"element": "C" 
			},
			{
				"x": 0.7809166764,
				"y": -0.129742425,
				"z": -2.3515567022,
				"element": "N" 
			},
			{
				"x": 2.1178699668,
				"y": -0.3487112262,
				"z": -2.5349426716,
				"element": "C" 
			},
			{
				"x": 2.5409048534,
				"y": -1.1383145758,
				"z": -3.3673526938,
				"element": "O" 
			},
			{
				"x": 3.0868164213,
				"y": 0.4223375045,
				"z": -1.6369226349,
				"element": "C" 
			},
			{
				"x": 3.2473973499,
				"y": 2.1611312807,
				"z": -2.1521623404,
				"element": "Cl" 
			},
			{
				"x": -1.2506601384,
				"y": 1.1221933941,
				"z": -1.9021507976,
				"element": "C" 
			},
			{
				"x": -1.5982908583,
				"y": 2.2252191767,
				"z": -2.6386590357,
				"element": "C" 
			},
			{
				"x": -2.970422858,
				"y": 2.235555226,
				"z": -3.03143829,
				"element": "C" 
			},
			{
				"x": -3.6507701476,
				"y": 1.1342525881,
				"z": -2.5913148304,
				"element": "C" 
			},
			{
				"x": -2.6315360238,
				"y": 0.0712878769,
				"z": -1.6765400171,
				"element": "S" 
			},
			{
				"x": -0.3013992954,
				"y": -2.3326386082,
				"z": 4.1600791014,
				"element": "H" 
			},
			{
				"x": -0.8402841344,
				"y": -0.7385705918,
				"z": 4.7108207871,
				"element": "H" 
			},
			{
				"x": 0.8814957411,
				"y": -1.1084491736,
				"z": 4.6308460906,
				"element": "H" 
			},
			{
				"x": -0.1808336483,
				"y": 1.3259754914,
				"z": 3.2469495631,
				"element": "H" 
			},
			{
				"x": -0.0751343277,
				"y": 2.1632316121,
				"z": 0.9315700528,
				"element": "H" 
			},
			{
				"x": 0.2623309938,
				"y": -1.8679539244,
				"z": -0.5130857518,
				"element": "H" 
			},
			{
				"x": 0.1322766009,
				"y": -2.7053264569,
				"z": 1.803837642,
				"element": "H" 
			},
			{
				"x": 0.6873849121,
				"y": 1.7050626741,
				"z": -1.3663842884,
				"element": "H" 
			},
			{
				"x": 0.1903190437,
				"y": -0.634678653,
				"z": -2.9997403117,
				"element": "H" 
			},
			{
				"x": 2.7807634526,
				"y": 0.4294801823,
				"z": -0.5900068858,
				"element": "H" 
			},
			{
				"x": 4.0687862738,
				"y": -0.0308706147,
				"z": -1.7497548431,
				"element": "H" 
			},
			{
				"x": -0.887683933,
				"y": 3.0030487567,
				"z": -2.8972917548,
				"element": "H" 
			},
			{
				"x": -3.4276644036,
				"y": 3.0288935256,
				"z": -3.6116044644,
				"element": "H" 
			},
			{
				"x": -4.6938963925,
				"y": 0.8879189205,
				"z": -2.7339794988,
				"element": "H" 
			}
		],
		 "valence_orbital": [ 
			{
				"type": "occ",
				"energy": -0.26135,
				"method": "rhf"
			},
			{
				"type": "occ",
				"energy": -0.25756,
				"method": "rhf"
			},
			{
				"type": "occ",
				"energy": -0.2557,
				"method": "rhf"
			},
			{
				"type": "occ",
				"energy": -0.24849,
				"method": "rhf"
			},
			{
				"type": "occ",
				"energy": -0.23283,
				"method": "rhf"
			},
			{
				"type": "unocc",
				"energy": -0.02708,
				"method": "rhf"
			},
			{
				"type": "unocc",
				"energy": -0.02219,
				"method": "rhf"
			},
			{
				"type": "unocc",
				"energy": -0.01172,
				"method": "rhf"
			},
			{
				"type": "unocc",
				"energy": -0.00639,
				"method": "rhf"
			},
			{
				"type": "unocc",
				"energy": 0.02802,
				"method": "rhf"
			}
		],
		"cosmo_sigma_profile": { 
			"-0.025": 0.0,
			"-0.024": 0.0,
			"-0.023": 0.0,
			"-0.022": 0.0,
			"-0.021": 0.0,
			"-0.02": 0.0,
			"-0.019": 0.0,
			"-0.018": 0.0,
			"-0.017": 0.0,
			"-0.016": 0.0,
			"-0.015": 0.0,
			"-0.014": 0.0,
			"-0.013": 0.32231951356,
			"-0.012": 0.998555415292,
			"-0.011": 0.652733392537,
			"-0.01": 0.487704173843,
			"-0.009": 1.63780570819,
			"-0.008": 4.99019869511,
			"-0.007": 8.4832968556,
			"-0.006": 15.9110057763,
			"-0.005": 23.2772531679,
			"-0.004": 27.2808793503,
			"-0.003": 24.8901947148,
			"-0.002": 20.4660871987,
			"-0.001": 22.7080421595,
			"0.0": 23.3909033974,
			"0.001": 21.8187786358,
			"0.002": 21.2109951696,
			"0.003": 22.8979578026,
			"0.004": 26.1451538092,
			"0.005": 23.4966135917,
			"0.006": 7.7371524786,
			"0.007": 1.42388707823,
			"0.008": 0.961251267216,
			"0.009": 1.23022376025,
			"0.01": 1.38395690543,
			"0.011": 1.78905713337,
			"0.012": 2.988066329,
			"0.013": 5.96918552676,
			"0.014": 1.52823456504,
			"0.015": 0.0,
			"0.016": 0.0,
			"0.017": 0.0,
			"0.018": 0.0,
			"0.019": 0.0,
			"0.02": 0.0,
			"0.021": 0.0,
			"0.022": 0.0,
			"0.023": 0.0,
			"0.024": 0.0,
			"0.025": 0.0
		}
	}
}
