{
	 "smiles": "OC(=O)C1CCN(CC1)C1=NC=CC=N1", 
	 "Tm": 368.15, 
	 "num_atms": 28, 
	 "gaussian": { 
		 "optdone": 1, 
		 "sigma_profile": "yes", 
		 "theory": "DFT", 
		 "functional": "B3LYP", 
		 "basiset": "6-31G**", 
		 "properties": { 
			 "R2extent": 3989.4024, 
			 "electric_dipole_moment_norm": 4.03773735773, 
			 "electric_quadrupole_moment_norm": 16.7613179297, 
			 "total_energy": -703.618059765, 
			 "HOMO_LUMO_gap": 0.17965, 
			 "cosmo_polarized_energy": -17.03, 
			 "cosmo_cavitation_energy": 30.11, 
			 "cosmo_dispersion_energy": -22.31, 
			 "cosmo_repulsion_energy": 1.73, 
			 "cosmo_total_nonelectrostatic_energy": 9.54, 
			 "SMD_solvation_energy": 3.47 
		},
		"coords": [
			{
				"x": -3.7336953711,
				"y": 1.7912326948,
				"z": -2.5135697141,
				"element": "O" 
			},
			{
				"x": -3.3081477701,
				"y": 1.3830763196,
				"z": -1.2853177338,
				"element": "C" 
			},
			{
				"x": -3.3205994001,
				"y": 2.1629229415,
				"z": -0.3646226722,
				"element": "O" 
			},
			{
				"x": -2.8470930479,
				"y": -0.0759096298,
				"z": -1.2016983782,
				"element": "C" 
			},
			{
				"x": -2.5601588174,
				"y": -0.5012385326,
				"z": 0.2506773871,
				"element": "C" 
			},
			{
				"x": -1.2433595005,
				"y": 0.0784732897,
				"z": 0.7901104864,
				"element": "C" 
			},
			{
				"x": -0.138534807,
				"y": -0.2101470473,
				"z": -0.1238756014,
				"element": "N" 
			},
			{
				"x": -0.3290483733,
				"y": 0.2702354365,
				"z": -1.4866175421,
				"element": "C" 
			},
			{
				"x": -1.6034773528,
				"y": -0.3355054644,
				"z": -2.0926166252,
				"element": "C" 
			},
			{
				"x": 0.9962175692,
				"y": -0.8676359032,
				"z": 0.2683758669,
				"element": "C" 
			},
			{
				"x": 1.9535099338,
				"y": -1.0716369887,
				"z": -0.6676655108,
				"element": "N" 
			},
			{
				"x": 3.0487578309,
				"y": -1.7113556565,
				"z": -0.2635530718,
				"element": "C" 
			},
			{
				"x": 3.2344651438,
				"y": -2.1627171494,
				"z": 1.0424977832,
				"element": "C" 
			},
			{
				"x": 2.1827543169,
				"y": -1.9009797706,
				"z": 1.9202420724,
				"element": "C" 
			},
			{
				"x": 1.0706277389,
				"y": -1.2644793255,
				"z": 1.560567821,
				"element": "N" 
			},
			{
				"x": -3.6974344601,
				"y": 1.057020303,
				"z": -3.1428130797,
				"element": "H" 
			},
			{
				"x": -3.6796232759,
				"y": -0.6810253041,
				"z": -1.5903951247,
				"element": "H" 
			},
			{
				"x": -2.5079257356,
				"y": -1.5958697025,
				"z": 0.2843096782,
				"element": "H" 
			},
			{
				"x": -3.3826010673,
				"y": -0.1857690451,
				"z": 0.8992492238,
				"element": "H" 
			},
			{
				"x": -1.0021508007,
				"y": -0.3488352659,
				"z": 1.7615020315,
				"element": "H" 
			},
			{
				"x": -1.3442847377,
				"y": 1.1647577557,
				"z": 0.9010459182,
				"element": "H" 
			},
			{
				"x": 0.546726469,
				"y": -0.0010529124,
				"z": -2.0735239888,
				"element": "H" 
			},
			{
				"x": -0.4057425806,
				"y": 1.3682336059,
				"z": -1.4736702526,
				"element": "H" 
			},
			{
				"x": -1.4677845027,
				"y": -1.4183917555,
				"z": -2.1909749613,
				"element": "H" 
			},
			{
				"x": -1.7453970549,
				"y": 0.0615409031,
				"z": -3.1056583838,
				"element": "H" 
			},
			{
				"x": 3.8139039194,
				"y": -1.8701026915,
				"z": -1.0232744251,
				"element": "H" 
			},
			{
				"x": 4.1335279579,
				"y": -2.6803463209,
				"z": 1.3539552547,
				"element": "H" 
			},
			{
				"x": 2.2336677759,
				"y": -2.2163947837,
				"z": 2.9622135422,
				"element": "H" 
			}
		],
		 "valence_orbital": [ 
			{
				"type": "occ",
				"energy": -0.30409,
				"method": "rhf"
			},
			{
				"type": "occ",
				"energy": -0.30101,
				"method": "rhf"
			},
			{
				"type": "occ",
				"energy": -0.2716,
				"method": "rhf"
			},
			{
				"type": "occ",
				"energy": -0.23881,
				"method": "rhf"
			},
			{
				"type": "occ",
				"energy": -0.20836,
				"method": "rhf"
			},
			{
				"type": "unocc",
				"energy": -0.02871,
				"method": "rhf"
			},
			{
				"type": "unocc",
				"energy": 0.00271,
				"method": "rhf"
			},
			{
				"type": "unocc",
				"energy": 0.00489,
				"method": "rhf"
			},
			{
				"type": "unocc",
				"energy": 0.04549,
				"method": "rhf"
			},
			{
				"type": "unocc",
				"energy": 0.09676,
				"method": "rhf"
			}
		],
		"cosmo_sigma_profile": { 
			"-0.025": 0.0,
			"-0.024": 0.0,
			"-0.023": 0.0,
			"-0.022": 0.0,
			"-0.021": 0.0,
			"-0.02": 0.0,
			"-0.019": 0.136874434607,
			"-0.018": 0.879503909094,
			"-0.017": 1.16435510531,
			"-0.016": 0.965304879403,
			"-0.015": 1.29231422755,
			"-0.014": 0.901097315332,
			"-0.013": 1.29093515898,
			"-0.012": 0.963315638104,
			"-0.011": 1.12094697787,
			"-0.01": 1.03805518555,
			"-0.009": 1.35672243202,
			"-0.008": 1.79239333313,
			"-0.007": 6.38600263686,
			"-0.006": 10.1313540153,
			"-0.005": 13.2876233556,
			"-0.004": 20.6976091526,
			"-0.003": 22.145498246,
			"-0.002": 22.3636069878,
			"-0.001": 16.6954230666,
			"0.0": 13.5747133234,
			"0.001": 15.2461545054,
			"0.002": 16.0876937767,
			"0.003": 11.2150946006,
			"0.004": 8.3510120216,
			"0.005": 5.88829676404,
			"0.006": 3.9119906272,
			"0.007": 6.35399735469,
			"0.008": 5.33281112119,
			"0.009": 5.09844406359,
			"0.01": 7.1722787451,
			"0.011": 8.4811667742,
			"0.012": 4.68407090008,
			"0.013": 1.69173494979,
			"0.014": 0.0838799957586,
			"0.015": 0.0,
			"0.016": 0.0,
			"0.017": 0.0,
			"0.018": 0.0,
			"0.019": 0.0,
			"0.02": 0.0,
			"0.021": 0.0,
			"0.022": 0.0,
			"0.023": 0.0,
			"0.024": 0.0,
			"0.025": 0.0
		}
	}
}
