{
	 "smiles": "CC1(C)C2CCC1(C)C(=O)C2C(Br)N(O)C1=CC=CC=C1", 
	 "Tm": 394.15, 
	 "num_atms": 43, 
	 "gaussian": { 
		 "optdone": 1, 
		 "sigma_profile": "yes", 
		 "theory": "DFT", 
		 "functional": "B3LYP", 
		 "basiset": "6-31G**", 
		 "properties": { 
			 "R2extent": 8033.1857, 
			 "electric_dipole_moment_norm": 7.20776830441, 
			 "electric_quadrupole_moment_norm": 30.0386892437, 
			 "total_energy": -3437.62240334, 
			 "HOMO_LUMO_gap": 0.12677, 
			 "cosmo_polarized_energy": -21.17, 
			 "cosmo_cavitation_energy": 43.9, 
			 "cosmo_dispersion_energy": -29.61, 
			 "cosmo_repulsion_energy": 2.24, 
			 "cosmo_total_nonelectrostatic_energy": 16.53, 
			 "SMD_solvation_energy": 6.98 
		},
		"coords": [
			{
				"x": 0.3100694602,
				"y": 0.5467311107,
				"z": -3.0617245651,
				"element": "C" 
			},
			{
				"x": 1.241402416,
				"y": 0.9871622898,
				"z": -1.9137393197,
				"element": "C" 
			},
			{
				"x": 1.9066616428,
				"y": 2.3033885161,
				"z": -2.3517649836,
				"element": "C" 
			},
			{
				"x": 0.5620382319,
				"y": 1.0851316451,
				"z": -0.5048214593,
				"element": "C" 
			},
			{
				"x": 1.7636660557,
				"y": 1.3666682937,
				"z": 0.4274996724,
				"element": "C" 
			},
			{
				"x": 2.8931364267,
				"y": 0.4838210231,
				"z": -0.1869584714,
				"element": "C" 
			},
			{
				"x": 2.2487471036,
				"y": -0.1363779472,
				"z": -1.4748174661,
				"element": "C" 
			},
			{
				"x": 3.2349404431,
				"y": -0.6984124191,
				"z": -2.4849287657,
				"element": "C" 
			},
			{
				"x": 1.2683293767,
				"y": -1.1769897376,
				"z": -0.9347512993,
				"element": "C" 
			},
			{
				"x": 1.3350937257,
				"y": -2.381570851,
				"z": -1.0280233107,
				"element": "O" 
			},
			{
				"x": 0.1405032729,
				"y": -0.3826217891,
				"z": -0.1812633268,
				"element": "C" 
			},
			{
				"x": -1.2445500974,
				"y": -0.7254094724,
				"z": -0.5839376252,
				"element": "C" 
			},
			{
				"x": -3.2183806549,
				"y": 1.5253874675,
				"z": -0.1924370085,
				"element": "Br" 
			},
			{
				"x": -2.0538076244,
				"y": -1.5001566297,
				"z": 0.0886058185,
				"element": "N" 
			},
			{
				"x": -3.3695730178,
				"y": -1.4768325815,
				"z": -0.2867336286,
				"element": "O" 
			},
			{
				"x": -1.8030151401,
				"y": -2.1788988199,
				"z": 1.3265779273,
				"element": "C" 
			},
			{
				"x": -2.6707604442,
				"y": -1.9384319029,
				"z": 2.3967336078,
				"element": "C" 
			},
			{
				"x": -2.4430816261,
				"y": -2.5964776286,
				"z": 3.601880399,
				"element": "C" 
			},
			{
				"x": -1.3733190444,
				"y": -3.4887884797,
				"z": 3.7284166885,
				"element": "C" 
			},
			{
				"x": -0.5249712179,
				"y": -3.7251387287,
				"z": 2.6457588841,
				"element": "C" 
			},
			{
				"x": -0.73689578,
				"y": -3.0759338641,
				"z": 1.428078484,
				"element": "C" 
			},
			{
				"x": 0.8399097402,
				"y": 0.5985398221,
				"z": -4.0180582759,
				"element": "H" 
			},
			{
				"x": -0.0511652939,
				"y": -0.4819888353,
				"z": -2.9696315786,
				"element": "H" 
			},
			{
				"x": -0.5596424949,
				"y": 1.2084866241,
				"z": -3.1298352524,
				"element": "H" 
			},
			{
				"x": 2.6221087889,
				"y": 2.7012445124,
				"z": -1.630256241,
				"element": "H" 
			},
			{
				"x": 1.1397278918,
				"y": 3.0688617771,
				"z": -2.5125990463,
				"element": "H" 
			},
			{
				"x": 2.4360188653,
				"y": 2.1668547919,
				"z": -3.3004073709,
				"element": "H" 
			},
			{
				"x": -0.2698894368,
				"y": 1.7869234095,
				"z": -0.4219372468,
				"element": "H" 
			},
			{
				"x": 2.0286305797,
				"y": 2.4261968132,
				"z": 0.4190998132,
				"element": "H" 
			},
			{
				"x": 1.542136146,
				"y": 1.1075671732,
				"z": 1.4667375112,
				"element": "H" 
			},
			{
				"x": 3.7671667882,
				"y": 1.0751354251,
				"z": -0.4752367429,
				"element": "H" 
			},
			{
				"x": 3.2521341304,
				"y": -0.2913469235,
				"z": 0.4977006076,
				"element": "H" 
			},
			{
				"x": 3.8132710816,
				"y": -1.5159819767,
				"z": -2.0441569715,
				"element": "H" 
			},
			{
				"x": 3.9346757859,
				"y": 0.0743969634,
				"z": -2.8176245709,
				"element": "H" 
			},
			{
				"x": 2.7224629712,
				"y": -1.1008024791,
				"z": -3.3638016277,
				"element": "H" 
			},
			{
				"x": 0.2572679587,
				"y": -0.6052754235,
				"z": 0.8847610811,
				"element": "H" 
			},
			{
				"x": -1.6573931654,
				"y": -0.3486941975,
				"z": -1.507333587,
				"element": "H" 
			},
			{
				"x": -3.5711102592,
				"y": -0.4530513047,
				"z": -0.3102011261,
				"element": "H" 
			},
			{
				"x": -3.4899630275,
				"y": -1.2400480543,
				"z": 2.2732488066,
				"element": "H" 
			},
			{
				"x": -3.1023679263,
				"y": -2.4121944202,
				"z": 4.4442647151,
				"element": "H" 
			},
			{
				"x": -1.2069006593,
				"y": -4.0037095454,
				"z": 4.6698003349,
				"element": "H" 
			},
			{
				"x": 0.2975121876,
				"y": -4.4274851441,
				"z": 2.7385937676,
				"element": "H" 
			},
			{
				"x": -0.0976241602,
				"y": -3.2604785023,
				"z": 0.570322749,
				"element": "H" 
			}
		],
		 "valence_orbital": [ 
			{
				"type": "occ",
				"energy": -0.27642,
				"method": "rhf"
			},
			{
				"type": "occ",
				"energy": -0.26201,
				"method": "rhf"
			},
			{
				"type": "occ",
				"energy": -0.22655,
				"method": "rhf"
			},
			{
				"type": "occ",
				"energy": -0.20896,
				"method": "rhf"
			},
			{
				"type": "occ",
				"energy": -0.20869,
				"method": "rhf"
			},
			{
				"type": "unocc",
				"energy": -0.08192,
				"method": "rhf"
			},
			{
				"type": "unocc",
				"energy": -0.04292,
				"method": "rhf"
			},
			{
				"type": "unocc",
				"energy": -0.02675,
				"method": "rhf"
			},
			{
				"type": "unocc",
				"energy": -0.01872,
				"method": "rhf"
			},
			{
				"type": "unocc",
				"energy": 0.05828,
				"method": "rhf"
			}
		],
		"cosmo_sigma_profile": { 
			"-0.025": 0.0,
			"-0.024": 0.0,
			"-0.023": 0.0,
			"-0.022": 0.0,
			"-0.021": 0.0,
			"-0.02": 0.0,
			"-0.019": 0.0,
			"-0.018": 0.0,
			"-0.017": 0.0,
			"-0.016": 0.0,
			"-0.015": 0.0,
			"-0.014": 0.0,
			"-0.013": 0.0,
			"-0.012": 0.0,
			"-0.011": 0.021462901528,
			"-0.01": 0.864075170115,
			"-0.009": 2.0233776936,
			"-0.008": 3.69220370219,
			"-0.007": 10.7933601371,
			"-0.006": 13.3221339697,
			"-0.005": 19.5947970905,
			"-0.004": 29.7248027355,
			"-0.003": 44.259986436,
			"-0.002": 37.9502668901,
			"-0.001": 35.569806143,
			"0.0": 34.9590052641,
			"0.001": 20.3775049169,
			"0.002": 16.3400652735,
			"0.003": 14.3125331912,
			"0.004": 5.1545234046,
			"0.005": 5.20969784518,
			"0.006": 4.87441620548,
			"0.007": 5.22621271698,
			"0.008": 5.2438274355,
			"0.009": 6.48748802491,
			"0.01": 7.15680563137,
			"0.011": 10.3094710173,
			"0.012": 12.346989057,
			"0.013": 2.47777780753,
			"0.014": 0.0,
			"0.015": 0.0,
			"0.016": 0.0,
			"0.017": 0.0,
			"0.018": 0.0,
			"0.019": 0.0,
			"0.02": 0.0,
			"0.021": 0.0,
			"0.022": 0.0,
			"0.023": 0.0,
			"0.024": 0.0,
			"0.025": 0.0
		}
	}
}
