{
	 "smiles": "CN1C=C(C=N1)C1=NC(N)=CC=C1", 
	 "Tm": 406.15, 
	 "num_atms": 23, 
	 "gaussian": { 
		 "optdone": 1, 
		 "sigma_profile": "yes", 
		 "theory": "DFT", 
		 "functional": "B3LYP", 
		 "basiset": "6-31G**", 
		 "properties": { 
			 "R2extent": 3529.2373, 
			 "electric_dipole_moment_norm": 2.65136360954, 
			 "electric_quadrupole_moment_norm": 16.8579987733, 
			 "total_energy": -567.98278725, 
			 "HOMO_LUMO_gap": 0.1785, 
			 "cosmo_polarized_energy": -14.07, 
			 "cosmo_cavitation_energy": 27.42, 
			 "cosmo_dispersion_energy": -20.3, 
			 "cosmo_repulsion_energy": 1.6, 
			 "cosmo_total_nonelectrostatic_energy": 8.72, 
			 "SMD_solvation_energy": 3.07 
		},
		"coords": [
			{
				"x": -3.2940722975,
				"y": 1.4247559824,
				"z": -1.0038629628,
				"element": "C" 
			},
			{
				"x": -2.0604438115,
				"y": 0.6684762673,
				"z": -1.0965715194,
				"element": "N" 
			},
			{
				"x": -0.794482353,
				"y": 1.1033918808,
				"z": -0.8898795543,
				"element": "C" 
			},
			{
				"x": 0.0499261799,
				"y": 0.0183943517,
				"z": -1.0913578318,
				"element": "C" 
			},
			{
				"x": -0.8385286694,
				"y": -1.0378982534,
				"z": -1.4232386779,
				"element": "C" 
			},
			{
				"x": -2.1096430684,
				"y": -0.6446865929,
				"z": -1.4262016894,
				"element": "N" 
			},
			{
				"x": 1.5102693711,
				"y": 0.023035614,
				"z": -0.9737017879,
				"element": "C" 
			},
			{
				"x": 2.0761156252,
				"y": 1.2091386476,
				"z": -0.6659265576,
				"element": "N" 
			},
			{
				"x": 3.4059636199,
				"y": 1.2754817589,
				"z": -0.5375391315,
				"element": "C" 
			},
			{
				"x": 3.9214365711,
				"y": 2.5070837099,
				"z": -0.1641247103,
				"element": "N" 
			},
			{
				"x": 4.2495721866,
				"y": 0.1604290006,
				"z": -0.721039508,
				"element": "C" 
			},
			{
				"x": 3.6570518824,
				"y": -1.051122667,
				"z": -1.0458367476,
				"element": "C" 
			},
			{
				"x": 2.2701453218,
				"y": -1.13708709,
				"z": -1.1747697584,
				"element": "C" 
			},
			{
				"x": -3.9472019555,
				"y": 0.9882323371,
				"z": -0.2435491399,
				"element": "H" 
			},
			{
				"x": -3.8149234587,
				"y": 1.4149422541,
				"z": -1.96503771,
				"element": "H" 
			},
			{
				"x": -3.0583215117,
				"y": 2.4544108804,
				"z": -0.7303876504,
				"element": "H" 
			},
			{
				"x": -0.5641690712,
				"y": 2.121704522,
				"z": -0.6179254121,
				"element": "H" 
			},
			{
				"x": -0.604443216,
				"y": -2.0672383367,
				"z": -1.6606355547,
				"element": "H" 
			},
			{
				"x": 3.2769019373,
				"y": 3.2729742317,
				"z": -0.3028382806,
				"element": "H" 
			},
			{
				"x": 4.8711000465,
				"y": 2.7051268088,
				"z": -0.4429448691,
				"element": "H" 
			},
			{
				"x": 5.324799865,
				"y": 0.2532162571,
				"z": -0.6031459156,
				"element": "H" 
			},
			{
				"x": 4.2737899026,
				"y": -1.9329524593,
				"z": -1.1969578668,
				"element": "H" 
			},
			{
				"x": 1.7926569035,
				"y": -2.077309105,
				"z": -1.4256271639,
				"element": "H" 
			}
		],
		 "valence_orbital": [ 
			{
				"type": "occ",
				"energy": -0.28177,
				"method": "rhf"
			},
			{
				"type": "occ",
				"energy": -0.25049,
				"method": "rhf"
			},
			{
				"type": "occ",
				"energy": -0.24671,
				"method": "rhf"
			},
			{
				"type": "occ",
				"energy": -0.23162,
				"method": "rhf"
			},
			{
				"type": "occ",
				"energy": -0.19789,
				"method": "rhf"
			},
			{
				"type": "unocc",
				"energy": -0.01939,
				"method": "rhf"
			},
			{
				"type": "unocc",
				"energy": 0.01128,
				"method": "rhf"
			},
			{
				"type": "unocc",
				"energy": 0.02821,
				"method": "rhf"
			},
			{
				"type": "unocc",
				"energy": 0.08566,
				"method": "rhf"
			},
			{
				"type": "unocc",
				"energy": 0.10066,
				"method": "rhf"
			}
		],
		"cosmo_sigma_profile": { 
			"-0.025": 0.0,
			"-0.024": 0.0,
			"-0.023": 0.0,
			"-0.022": 0.0,
			"-0.021": 0.0,
			"-0.02": 0.0,
			"-0.019": 0.0,
			"-0.018": 0.0,
			"-0.017": 0.0,
			"-0.016": 0.0,
			"-0.015": 0.0,
			"-0.014": 0.00576408292282,
			"-0.013": 1.03324734779,
			"-0.012": 1.873297166,
			"-0.011": 2.24739608884,
			"-0.01": 2.93636030814,
			"-0.009": 3.50849095517,
			"-0.008": 5.50282703385,
			"-0.007": 9.19259200625,
			"-0.006": 16.3363047423,
			"-0.005": 12.7370272185,
			"-0.004": 16.3982934826,
			"-0.003": 16.0870162111,
			"-0.002": 11.1405801034,
			"-0.001": 8.57030384829,
			"0.0": 7.93524153007,
			"0.001": 9.80253305079,
			"0.002": 9.18798142604,
			"0.003": 14.5051117951,
			"0.004": 21.4866466466,
			"0.005": 16.1953916836,
			"0.006": 5.51675557389,
			"0.007": 4.98515616116,
			"0.008": 5.15254065936,
			"0.009": 3.28198157147,
			"0.01": 4.02822854884,
			"0.011": 2.74275473331,
			"0.012": 1.62854605861,
			"0.013": 2.06971234918,
			"0.014": 1.03401118354,
			"0.015": 1.00871780932,
			"0.016": 0.637806038217,
			"0.017": 0.0507279376197,
			"0.018": 0.0,
			"0.019": 0.0,
			"0.02": 0.0,
			"0.021": 0.0,
			"0.022": 0.0,
			"0.023": 0.0,
			"0.024": 0.0,
			"0.025": 0.0
		}
	}
}
