{
	 "smiles": "NNC(=O)C1=CC=C(Cl)N=C1", 
	 "Tm": 523.15, 
	 "num_atms": 17, 
	 "gaussian": { 
		 "optdone": 1, 
		 "sigma_profile": "yes", 
		 "theory": "DFT", 
		 "functional": "B3LYP", 
		 "basiset": "6-31G**", 
		 "properties": { 
			 "R2extent": 3201.1286, 
			 "electric_dipole_moment_norm": 3.83221625042, 
			 "electric_quadrupole_moment_norm": 9.02812887425, 
			 "total_energy": -931.901073643, 
			 "HOMO_LUMO_gap": 0.20195, 
			 "cosmo_polarized_energy": -15.15, 
			 "cosmo_cavitation_energy": 23.91, 
			 "cosmo_dispersion_energy": -17.93, 
			 "cosmo_repulsion_energy": 1.45, 
			 "cosmo_total_nonelectrostatic_energy": 7.43, 
			 "SMD_solvation_energy": 3.54 
		},
		"coords": [
			{
				"x": 2.1176405239,
				"y": -0.7493240882,
				"z": 2.5700250308,
				"element": "N" 
			},
			{
				"x": 1.8409538982,
				"y": -0.3852775514,
				"z": 1.2326205581,
				"element": "N" 
			},
			{
				"x": 0.6818354183,
				"y": 0.2951758506,
				"z": 0.9378931473,
				"element": "C" 
			},
			{
				"x": -0.0623699108,
				"y": 0.7155821863,
				"z": 1.8177667836,
				"element": "O" 
			},
			{
				"x": 0.3879505929,
				"y": 0.4856279713,
				"z": -0.5179846301,
				"element": "C" 
			},
			{
				"x": 1.3547132208,
				"y": 0.4440154965,
				"z": -1.5321800655,
				"element": "C" 
			},
			{
				"x": 0.9689448298,
				"y": 0.6460665132,
				"z": -2.8523176355,
				"element": "C" 
			},
			{
				"x": -0.3874918076,
				"y": 0.8861512269,
				"z": -3.0934874892,
				"element": "C" 
			},
			{
				"x": -0.9123313083,
				"y": 1.1406147395,
				"z": -4.7519401086,
				"element": "Cl" 
			},
			{
				"x": -1.3207610886,
				"y": 0.9453837518,
				"z": -2.1589163061,
				"element": "N" 
			},
			{
				"x": -0.9338901672,
				"y": 0.7543088755,
				"z": -0.8926919609,
				"element": "C" 
			},
			{
				"x": 2.5952978858,
				"y": 0.0394444173,
				"z": 3.0047324719,
				"element": "H" 
			},
			{
				"x": 1.2152173705,
				"y": -0.8135903418,
				"z": 3.0448011582,
				"element": "H" 
			},
			{
				"x": 2.2073289049,
				"y": -1.0391068283,
				"z": 0.5545924241,
				"element": "H" 
			},
			{
				"x": 2.403066687,
				"y": 0.2855512206,
				"z": -1.2969171743,
				"element": "H" 
			},
			{
				"x": 1.683491986,
				"y": 0.6310682329,
				"z": -3.6662786366,
				"element": "H" 
			},
			{
				"x": -1.7021970356,
				"y": 0.8154083274,
				"z": -0.1273175673,
				"element": "H" 
			}
		],
		 "valence_orbital": [ 
			{
				"type": "occ",
				"energy": -0.30335,
				"method": "rhf"
			},
			{
				"type": "occ",
				"energy": -0.29071,
				"method": "rhf"
			},
			{
				"type": "occ",
				"energy": -0.27431,
				"method": "rhf"
			},
			{
				"type": "occ",
				"energy": -0.26753,
				"method": "rhf"
			},
			{
				"type": "occ",
				"energy": -0.26518,
				"method": "rhf"
			},
			{
				"type": "unocc",
				"energy": -0.06323,
				"method": "rhf"
			},
			{
				"type": "unocc",
				"energy": -0.04684,
				"method": "rhf"
			},
			{
				"type": "unocc",
				"energy": 0.02545,
				"method": "rhf"
			},
			{
				"type": "unocc",
				"energy": 0.03056,
				"method": "rhf"
			},
			{
				"type": "unocc",
				"energy": 0.07773,
				"method": "rhf"
			}
		],
		"cosmo_sigma_profile": { 
			"-0.025": 0.0,
			"-0.024": 0.0,
			"-0.023": 0.0,
			"-0.022": 0.0,
			"-0.021": 0.0,
			"-0.02": 0.0,
			"-0.019": 0.0,
			"-0.018": 0.0,
			"-0.017": 0.0,
			"-0.016": 0.0,
			"-0.015": 0.713405196916,
			"-0.014": 0.965093817299,
			"-0.013": 1.56570260581,
			"-0.012": 2.02198534523,
			"-0.011": 3.14172270393,
			"-0.01": 3.66600809075,
			"-0.009": 6.22230030267,
			"-0.008": 6.46454876237,
			"-0.007": 6.51408135656,
			"-0.006": 6.67294938757,
			"-0.005": 8.0094102431,
			"-0.004": 7.17467146163,
			"-0.003": 8.79634673715,
			"-0.002": 13.6481121671,
			"-0.001": 19.7564392761,
			"0.0": 16.4839190325,
			"0.001": 10.3079471402,
			"0.002": 9.32946670902,
			"0.003": 11.0918864756,
			"0.004": 12.3562608891,
			"0.005": 6.29619735828,
			"0.006": 4.07457844481,
			"0.007": 3.40176926382,
			"0.008": 2.96682227291,
			"0.009": 3.19492551581,
			"0.01": 2.57465147518,
			"0.011": 3.30831220411,
			"0.012": 5.44628894534,
			"0.013": 4.91557438538,
			"0.014": 1.23987788886,
			"0.015": 0.59455300768,
			"0.016": 0.468418639324,
			"0.017": 0.178581414857,
			"0.018": 0.0,
			"0.019": 0.0,
			"0.02": 0.0,
			"0.021": 0.0,
			"0.022": 0.0,
			"0.023": 0.0,
			"0.024": 0.0,
			"0.025": 0.0
		}
	}
}
