{
	 "smiles": "COC1=C(O)C=CC(=C1)C1=NC(CCl)=CS1", 
	 "Tm": 360.15, 
	 "num_atms": 26, 
	 "gaussian": { 
		 "optdone": 1, 
		 "sigma_profile": "yes", 
		 "theory": "DFT", 
		 "functional": "B3LYP", 
		 "basiset": "6-31G**", 
		 "properties": { 
			 "R2extent": 7391.9544, 
			 "electric_dipole_moment_norm": 5.02323868734, 
			 "electric_quadrupole_moment_norm": 10.3886020551, 
			 "total_energy": -1488.7648862, 
			 "HOMO_LUMO_gap": 0.15387, 
			 "cosmo_polarized_energy": -13.47, 
			 "cosmo_cavitation_energy": 33.92, 
			 "cosmo_dispersion_energy": -25.3, 
			 "cosmo_repulsion_energy": 1.95, 
			 "cosmo_total_nonelectrostatic_energy": 10.58, 
			 "SMD_solvation_energy": 5.08 
		},
		"coords": [
			{
				"x": -1.4971193676,
				"y": 2.6820605356,
				"z": -1.3877782303,
				"element": "C" 
			},
			{
				"x": -0.6117961011,
				"y": 2.8662060436,
				"z": -0.2924717688,
				"element": "O" 
			},
			{
				"x": -0.2649833481,
				"y": 1.7687289803,
				"z": 0.4566148101,
				"element": "C" 
			},
			{
				"x": 0.6229695762,
				"y": 2.0669178561,
				"z": 1.5138419719,
				"element": "C" 
			},
			{
				"x": 1.0484805711,
				"y": 3.3406606382,
				"z": 1.7063003732,
				"element": "O" 
			},
			{
				"x": 1.0562953551,
				"y": 1.0446814234,
				"z": 2.3540515436,
				"element": "C" 
			},
			{
				"x": 0.6170398726,
				"y": -0.2613885494,
				"z": 2.1526594585,
				"element": "C" 
			},
			{
				"x": -0.2652738945,
				"y": -0.5660596278,
				"z": 1.1056116438,
				"element": "C" 
			},
			{
				"x": -0.7048318632,
				"y": 0.4687908881,
				"z": 0.2543742458,
				"element": "C" 
			},
			{
				"x": -0.7052542692,
				"y": -1.9513628102,
				"z": 0.9237984968,
				"element": "C" 
			},
			{
				"x": -0.3666914252,
				"y": -2.9414953111,
				"z": 1.7054417746,
				"element": "N" 
			},
			{
				"x": -0.9233288271,
				"y": -4.1327680292,
				"z": 1.3048021854,
				"element": "C" 
			},
			{
				"x": -0.6453945912,
				"y": -5.3710648675,
				"z": 2.0868495902,
				"element": "C" 
			},
			{
				"x": 0.9781697207,
				"y": -6.1169125601,
				"z": 1.6689106422,
				"element": "Cl" 
			},
			{
				"x": -1.7155002381,
				"y": -4.0683274843,
				"z": 0.1900166335,
				"element": "C" 
			},
			{
				"x": -1.7752422749,
				"y": -2.4458143921,
				"z": -0.4060313394,
				"element": "S" 
			},
			{
				"x": -1.0727899391,
				"y": 1.9968059389,
				"z": -2.1319708486,
				"element": "H" 
			},
			{
				"x": -1.6330046774,
				"y": 3.6660328714,
				"z": -1.8383705894,
				"element": "H" 
			},
			{
				"x": -2.4690329602,
				"y": 2.2978724291,
				"z": -1.0541350279,
				"element": "H" 
			},
			{
				"x": 0.6351975988,
				"y": 3.887634774,
				"z": 1.0199335867,
				"element": "H" 
			},
			{
				"x": 1.7395052883,
				"y": 1.2905561065,
				"z": 3.1600389532,
				"element": "H" 
			},
			{
				"x": 0.9525122732,
				"y": -1.0622088407,
				"z": 2.800944982,
				"element": "H" 
			},
			{
				"x": -1.3890025841,
				"y": 0.2509294396,
				"z": -0.5579273961,
				"element": "H" 
			},
			{
				"x": -0.5982489912,
				"y": -5.1528596169,
				"z": 3.1532104122,
				"element": "H" 
			},
			{
				"x": -1.3865565089,
				"y": -6.1458745489,
				"z": 1.8947025263,
				"element": "H" 
			},
			{
				"x": -2.2454183947,
				"y": -4.8694412866,
				"z": -0.3053186297,
				"element": "H" 
			}
		],
		 "valence_orbital": [ 
			{
				"type": "occ",
				"energy": -0.28489,
				"method": "rhf"
			},
			{
				"type": "occ",
				"energy": -0.27682,
				"method": "rhf"
			},
			{
				"type": "occ",
				"energy": -0.26346,
				"method": "rhf"
			},
			{
				"type": "occ",
				"energy": -0.24326,
				"method": "rhf"
			},
			{
				"type": "occ",
				"energy": -0.20554,
				"method": "rhf"
			},
			{
				"type": "unocc",
				"energy": -0.05167,
				"method": "rhf"
			},
			{
				"type": "unocc",
				"energy": -0.00992,
				"method": "rhf"
			},
			{
				"type": "unocc",
				"energy": 0.00057,
				"method": "rhf"
			},
			{
				"type": "unocc",
				"energy": 0.01319,
				"method": "rhf"
			},
			{
				"type": "unocc",
				"energy": 0.04731,
				"method": "rhf"
			}
		],
		"cosmo_sigma_profile": { 
			"-0.025": 0.0,
			"-0.024": 0.0,
			"-0.023": 0.0,
			"-0.022": 0.0,
			"-0.021": 0.0,
			"-0.02": 0.0,
			"-0.019": 0.0,
			"-0.018": 0.0,
			"-0.017": 0.0,
			"-0.016": 0.0,
			"-0.015": 0.38961506962,
			"-0.014": 0.430335666764,
			"-0.013": 0.440525201915,
			"-0.012": 0.241280082209,
			"-0.011": 0.462638746247,
			"-0.01": 1.61415357606,
			"-0.009": 3.98612624305,
			"-0.008": 6.89659336621,
			"-0.007": 9.52969681278,
			"-0.006": 16.8337122759,
			"-0.005": 17.7623388118,
			"-0.004": 19.4779633321,
			"-0.003": 15.3435969022,
			"-0.002": 12.1196810091,
			"-0.001": 12.2240128422,
			"0.0": 18.6256381126,
			"0.001": 22.8934845371,
			"0.002": 25.6615976097,
			"0.003": 24.4086881482,
			"0.004": 20.3643527021,
			"0.005": 11.1837466032,
			"0.006": 12.3879946417,
			"0.007": 10.9770431842,
			"0.008": 3.2887644965,
			"0.009": 2.53902573602,
			"0.01": 3.01292646165,
			"0.011": 2.62878584075,
			"0.012": 0.142210952077,
			"0.013": 0.0,
			"0.014": 0.0,
			"0.015": 0.0,
			"0.016": 0.0,
			"0.017": 0.0,
			"0.018": 0.0,
			"0.019": 0.0,
			"0.02": 0.0,
			"0.021": 0.0,
			"0.022": 0.0,
			"0.023": 0.0,
			"0.024": 0.0,
			"0.025": 0.0
		}
	}
}
