{
	 "smiles": "COC1=CC=C2OC(=CC(=O)C2=C1)C1=CC=CC=C1", 
	 "Tm": 436.65, 
	 "num_atms": 31, 
	 "gaussian": { 
		 "optdone": 1, 
		 "sigma_profile": "yes", 
		 "theory": "DFT", 
		 "functional": "B3LYP", 
		 "basiset": "6-31G**", 
		 "properties": { 
			 "R2extent": 8705.2473, 
			 "electric_dipole_moment_norm": 5.05251168628, 
			 "electric_quadrupole_moment_norm": 34.760712813, 
			 "total_energy": -842.594089633, 
			 "HOMO_LUMO_gap": 0.15346, 
			 "cosmo_polarized_energy": -14.22, 
			 "cosmo_cavitation_energy": 35.61, 
			 "cosmo_dispersion_energy": -26.2, 
			 "cosmo_repulsion_energy": 1.96, 
			 "cosmo_total_nonelectrostatic_energy": 11.37, 
			 "SMD_solvation_energy": 7.5 
		},
		"coords": [
			{
				"x": 5.739139623,
				"y": -0.200577257,
				"z": 3.8142242943,
				"element": "C" 
			},
			{
				"x": 5.7607704204,
				"y": -0.2477043948,
				"z": 2.3967763518,
				"element": "O" 
			},
			{
				"x": 4.5736585614,
				"y": -0.2153124146,
				"z": 1.7255867597,
				"element": "C" 
			},
			{
				"x": 3.312877475,
				"y": -0.1383632665,
				"z": 2.3493142287,
				"element": "C" 
			},
			{
				"x": 2.1519186216,
				"y": -0.1101648514,
				"z": 1.5826546829,
				"element": "C" 
			},
			{
				"x": 2.2446741319,
				"y": -0.1596521766,
				"z": 0.1925953063,
				"element": "C" 
			},
			{
				"x": 1.0658487588,
				"y": -0.1232199859,
				"z": -0.5145169605,
				"element": "O" 
			},
			{
				"x": 1.0888647316,
				"y": -0.1747676747,
				"z": -1.8750209598,
				"element": "C" 
			},
			{
				"x": 2.2527285748,
				"y": -0.2655995759,
				"z": -2.5722842941,
				"element": "C" 
			},
			{
				"x": 3.5576145754,
				"y": -0.2908966887,
				"z": -1.9248822672,
				"element": "C" 
			},
			{
				"x": 4.620976267,
				"y": -0.3609906612,
				"z": -2.5409345713,
				"element": "O" 
			},
			{
				"x": 3.4922198499,
				"y": -0.2349304523,
				"z": -0.4434768359,
				"element": "C" 
			},
			{
				"x": 4.6521594503,
				"y": -0.263184045,
				"z": 0.3341797364,
				"element": "C" 
			},
			{
				"x": -0.2675827754,
				"y": -0.1388334667,
				"z": -2.4559487991,
				"element": "C" 
			},
			{
				"x": -1.3862713078,
				"y": -0.4653284295,
				"z": -1.6705606978,
				"element": "C" 
			},
			{
				"x": -2.6657675446,
				"y": -0.4495940867,
				"z": -2.2220058787,
				"element": "C" 
			},
			{
				"x": -2.8512075605,
				"y": -0.1033366712,
				"z": -3.5614687218,
				"element": "C" 
			},
			{
				"x": -1.746204053,
				"y": 0.2329827273,
				"z": -4.3472894694,
				"element": "C" 
			},
			{
				"x": -0.4659058971,
				"y": 0.2190726839,
				"z": -3.8006308055,
				"element": "C" 
			},
			{
				"x": 5.2031552375,
				"y": -1.0581080689,
				"z": 4.2417830552,
				"element": "H" 
			},
			{
				"x": 6.7821663641,
				"y": -0.2375307092,
				"z": 4.1317604448,
				"element": "H" 
			},
			{
				"x": 5.2841000256,
				"y": 0.727803718,
				"z": 4.1836324083,
				"element": "H" 
			},
			{
				"x": 3.2289108953,
				"y": -0.099636377,
				"z": 3.4286374443,
				"element": "H" 
			},
			{
				"x": 1.1750013822,
				"y": -0.0492081154,
				"z": 2.0504832446,
				"element": "H" 
			},
			{
				"x": 2.2354686224,
				"y": -0.3410528402,
				"z": -3.6518596631,
				"element": "H" 
			},
			{
				"x": 5.6136161676,
				"y": -0.3231949571,
				"z": -0.1635049788,
				"element": "H" 
			},
			{
				"x": -1.2447645899,
				"y": -0.7372833055,
				"z": -0.6311233738,
				"element": "H" 
			},
			{
				"x": -3.5195301605,
				"y": -0.7105451307,
				"z": -1.6035017772,
				"element": "H" 
			},
			{
				"x": -3.849277971,
				"y": -0.0898837739,
				"z": -3.9893928118,
				"element": "H" 
			},
			{
				"x": -1.8822637653,
				"y": 0.5163985879,
				"z": -5.3867218111,
				"element": "H" 
			},
			{
				"x": 0.3803058893,
				"y": 0.5083416593,
				"z": -4.4147032805,
				"element": "H" 
			}
		],
		 "valence_orbital": [ 
			{
				"type": "occ",
				"energy": -0.26283,
				"method": "rhf"
			},
			{
				"type": "occ",
				"energy": -0.26079,
				"method": "rhf"
			},
			{
				"type": "occ",
				"energy": -0.23759,
				"method": "rhf"
			},
			{
				"type": "occ",
				"energy": -0.23404,
				"method": "rhf"
			},
			{
				"type": "occ",
				"energy": -0.21746,
				"method": "rhf"
			},
			{
				"type": "unocc",
				"energy": -0.064,
				"method": "rhf"
			},
			{
				"type": "unocc",
				"energy": -0.02781,
				"method": "rhf"
			},
			{
				"type": "unocc",
				"energy": -0.01225,
				"method": "rhf"
			},
			{
				"type": "unocc",
				"energy": 0.00441,
				"method": "rhf"
			},
			{
				"type": "unocc",
				"energy": 0.02804,
				"method": "rhf"
			}
		],
		"cosmo_sigma_profile": { 
			"-0.025": 0.0,
			"-0.024": 0.0,
			"-0.023": 0.0,
			"-0.022": 0.0,
			"-0.021": 0.0,
			"-0.02": 0.0,
			"-0.019": 0.0,
			"-0.018": 0.0,
			"-0.017": 0.0,
			"-0.016": 0.0,
			"-0.015": 0.0,
			"-0.014": 0.0,
			"-0.013": 0.0,
			"-0.012": 0.0,
			"-0.011": 0.0,
			"-0.01": 0.0,
			"-0.009": 0.48442784843,
			"-0.008": 3.1201808101,
			"-0.007": 8.14113296411,
			"-0.006": 20.4804003522,
			"-0.005": 22.4801619172,
			"-0.004": 22.953858438,
			"-0.003": 21.375456469,
			"-0.002": 18.2423929513,
			"-0.001": 19.5109618547,
			"0.0": 22.2570490204,
			"0.001": 23.6648629652,
			"0.002": 30.1471915221,
			"0.003": 23.1614369722,
			"0.004": 16.3975810066,
			"0.005": 6.44829876872,
			"0.006": 2.87013940205,
			"0.007": 3.67252157725,
			"0.008": 2.61158106787,
			"0.009": 2.29951637149,
			"0.01": 3.0249439707,
			"0.011": 2.00158828669,
			"0.012": 2.54833045906,
			"0.013": 4.36263423844,
			"0.014": 3.42006035253,
			"0.015": 0.693404252739,
			"0.016": 0.0,
			"0.017": 0.0,
			"0.018": 0.0,
			"0.019": 0.0,
			"0.02": 0.0,
			"0.021": 0.0,
			"0.022": 0.0,
			"0.023": 0.0,
			"0.024": 0.0,
			"0.025": 0.0
		}
	}
}
