{
	 "smiles": "NC(=S)CC1=NC2=C(N1)C=CC=C2", 
	 "Tm": 479.15, 
	 "num_atms": 22, 
	 "gaussian": { 
		 "optdone": 1, 
		 "sigma_profile": "yes", 
		 "theory": "DFT", 
		 "functional": "B3LYP", 
		 "basiset": "6-31G**", 
		 "properties": { 
			 "R2extent": 4177.4992, 
			 "electric_dipole_moment_norm": 4.67098877006, 
			 "electric_quadrupole_moment_norm": 27.0602875188, 
			 "total_energy": -910.853953635, 
			 "HOMO_LUMO_gap": 0.17271, 
			 "cosmo_polarized_energy": -18.63, 
			 "cosmo_cavitation_energy": 27.77, 
			 "cosmo_dispersion_energy": -21.34, 
			 "cosmo_repulsion_energy": 1.66, 
			 "cosmo_total_nonelectrostatic_energy": 8.08, 
			 "SMD_solvation_energy": 2.07 
		},
		"coords": [
			{
				"x": -2.1316877156,
				"y": 2.0825451352,
				"z": 2.3591207402,
				"element": "N" 
			},
			{
				"x": -1.5938938409,
				"y": 1.4470748583,
				"z": 3.4047307219,
				"element": "C" 
			},
			{
				"x": -1.4364270924,
				"y": 2.105964149,
				"z": 4.9278636982,
				"element": "S" 
			},
			{
				"x": -1.186030067,
				"y": -0.0069819524,
				"z": 3.1381180376,
				"element": "C" 
			},
			{
				"x": -0.6725313613,
				"y": -0.3185110072,
				"z": 1.7616744005,
				"element": "C" 
			},
			{
				"x": -1.2162309616,
				"y": 0.0790809497,
				"z": 0.6313115287,
				"element": "N" 
			},
			{
				"x": -0.4254468862,
				"y": -0.4600256109,
				"z": -0.3757305586,
				"element": "C" 
			},
			{
				"x": 0.6273693819,
				"y": -1.2159668996,
				"z": 0.1913309124,
				"element": "C" 
			},
			{
				"x": 0.4392017112,
				"y": -1.1022431932,
				"z": 1.5602873393,
				"element": "N" 
			},
			{
				"x": 1.579374633,
				"y": -1.8782977654,
				"z": -0.5852455406,
				"element": "C" 
			},
			{
				"x": 1.4486839399,
				"y": -1.7621627297,
				"z": -1.9669889851,
				"element": "C" 
			},
			{
				"x": 0.4061270648,
				"y": -1.0129257681,
				"z": -2.5485921471,
				"element": "C" 
			},
			{
				"x": -0.5389421947,
				"y": -0.3557451221,
				"z": -1.7673186466,
				"element": "C" 
			},
			{
				"x": -2.1182889922,
				"y": 1.6438224075,
				"z": 1.4359213412,
				"element": "H" 
			},
			{
				"x": -2.4276224322,
				"y": 3.0403365269,
				"z": 2.4801236697,
				"element": "H" 
			},
			{
				"x": -0.4528504415,
				"y": -0.2888014659,
				"z": 3.8947235656,
				"element": "H" 
			},
			{
				"x": -2.0802835008,
				"y": -0.617540921,
				"z": 3.3270050051,
				"element": "H" 
			},
			{
				"x": 1.0159796725,
				"y": -1.502812837,
				"z": 2.2840733328,
				"element": "H" 
			},
			{
				"x": 2.3840396211,
				"y": -2.4555928915,
				"z": -0.1402806648,
				"element": "H" 
			},
			{
				"x": 2.167028251,
				"y": -2.2607221221,
				"z": -2.6106498104,
				"element": "H" 
			},
			{
				"x": 0.3422275273,
				"y": -0.9500035025,
				"z": -3.6306585333,
				"element": "H" 
			},
			{
				"x": -1.3438963163,
				"y": 0.221109762,
				"z": -2.2109194069,
				"element": "H" 
			}
		],
		 "valence_orbital": [ 
			{
				"type": "occ",
				"energy": -0.29493,
				"method": "rhf"
			},
			{
				"type": "occ",
				"energy": -0.24109,
				"method": "rhf"
			},
			{
				"type": "occ",
				"energy": -0.23829,
				"method": "rhf"
			},
			{
				"type": "occ",
				"energy": -0.2234,
				"method": "rhf"
			},
			{
				"type": "occ",
				"energy": -0.20268,
				"method": "rhf"
			},
			{
				"type": "unocc",
				"energy": -0.02997,
				"method": "rhf"
			},
			{
				"type": "unocc",
				"energy": -0.02336,
				"method": "rhf"
			},
			{
				"type": "unocc",
				"energy": 0.01024,
				"method": "rhf"
			},
			{
				"type": "unocc",
				"energy": 0.03533,
				"method": "rhf"
			},
			{
				"type": "unocc",
				"energy": 0.0584,
				"method": "rhf"
			}
		],
		"cosmo_sigma_profile": { 
			"-0.025": 0.0,
			"-0.024": 0.0,
			"-0.023": 0.0,
			"-0.022": 0.0,
			"-0.021": 0.0,
			"-0.02": 0.0,
			"-0.019": 0.0,
			"-0.018": 0.0,
			"-0.017": 0.462383936104,
			"-0.016": 1.96583547344,
			"-0.015": 1.9453796975,
			"-0.014": 3.46941550565,
			"-0.013": 1.92171434261,
			"-0.012": 2.70218205258,
			"-0.011": 2.80461364248,
			"-0.01": 2.96286874617,
			"-0.009": 3.0580955726,
			"-0.008": 5.28505574517,
			"-0.007": 6.80720374808,
			"-0.006": 9.76697506414,
			"-0.005": 12.319074851,
			"-0.004": 12.4308629456,
			"-0.003": 13.0571059048,
			"-0.002": 10.4168301967,
			"-0.001": 10.5760251016,
			"0.0": 11.0846796512,
			"0.001": 13.0247414482,
			"0.002": 12.0780001899,
			"0.003": 12.5506178318,
			"0.004": 14.8479537002,
			"0.005": 15.4403841268,
			"0.006": 10.465520335,
			"0.007": 4.69218502864,
			"0.008": 5.10082128821,
			"0.009": 7.82445404833,
			"0.01": 7.05137755798,
			"0.011": 4.32481858174,
			"0.012": 3.73012106525,
			"0.013": 0.655508644526,
			"0.014": 0.0,
			"0.015": 0.0,
			"0.016": 0.0,
			"0.017": 0.0,
			"0.018": 0.0,
			"0.019": 0.0,
			"0.02": 0.0,
			"0.021": 0.0,
			"0.022": 0.0,
			"0.023": 0.0,
			"0.024": 0.0,
			"0.025": 0.0
		}
	}
}
