{
	 "smiles": "CC(C)C1=CC=C(CN2N=CC=C2N)C=C1", 
	 "Tm": 290.15, 
	 "num_atms": 33, 
	 "gaussian": { 
		 "optdone": 1, 
		 "sigma_profile": "yes", 
		 "theory": "DFT", 
		 "functional": "B3LYP", 
		 "basiset": "6-31G**", 
		 "properties": { 
			 "R2extent": 5360.3072, 
			 "electric_dipole_moment_norm": 3.58142479189, 
			 "electric_quadrupole_moment_norm": 12.0072556298, 
			 "total_energy": -669.876580324, 
			 "HOMO_LUMO_gap": 0.1932, 
			 "cosmo_polarized_energy": -12.24, 
			 "cosmo_cavitation_energy": 35.61, 
			 "cosmo_dispersion_energy": -24.78, 
			 "cosmo_repulsion_energy": 1.95, 
			 "cosmo_total_nonelectrostatic_energy": 12.78, 
			 "SMD_solvation_energy": 5.29 
		},
		"coords": [
			{
				"x": 2.5332222486,
				"y": 2.060713157,
				"z": -1.331692353,
				"element": "C" 
			},
			{
				"x": 2.3243788985,
				"y": 0.5794230471,
				"z": -1.699598638,
				"element": "C" 
			},
			{
				"x": 1.901596085,
				"y": 0.4300056214,
				"z": -3.1733991465,
				"element": "C" 
			},
			{
				"x": 1.3438996973,
				"y": -0.1060826544,
				"z": -0.7572818733,
				"element": "C" 
			},
			{
				"x": 1.753164663,
				"y": -1.171634059,
				"z": 0.0507621089,
				"element": "C" 
			},
			{
				"x": 0.8602998656,
				"y": -1.8059673603,
				"z": 0.9196476315,
				"element": "C" 
			},
			{
				"x": -0.4720808119,
				"y": -1.3924864186,
				"z": 0.9990493864,
				"element": "C" 
			},
			{
				"x": -1.4554592251,
				"y": -2.0917955379,
				"z": 1.9227716092,
				"element": "C" 
			},
			{
				"x": -2.2016844365,
				"y": -1.1799315552,
				"z": 2.7725597516,
				"element": "N" 
			},
			{
				"x": -3.5060194816,
				"y": -0.8824819711,
				"z": 2.4948980692,
				"element": "N" 
			},
			{
				"x": -3.8530883171,
				"y": -0.0208608711,
				"z": 3.4465911961,
				"element": "C" 
			},
			{
				"x": -2.7891449377,
				"y": 0.2696187122,
				"z": 4.3291668953,
				"element": "C" 
			},
			{
				"x": -1.7323151356,
				"y": -0.4933767146,
				"z": 3.8527040197,
				"element": "C" 
			},
			{
				"x": -0.4273198255,
				"y": -0.6940819173,
				"z": 4.3131651294,
				"element": "N" 
			},
			{
				"x": -0.8902269534,
				"y": -0.3220913257,
				"z": 0.1947215222,
				"element": "C" 
			},
			{
				"x": 0.0035359828,
				"y": 0.3071336483,
				"z": -0.6664257866,
				"element": "C" 
			},
			{
				"x": 3.2841417842,
				"y": 2.5188988312,
				"z": -1.9845847194,
				"element": "H" 
			},
			{
				"x": 2.8705453706,
				"y": 2.1687246168,
				"z": -0.2960769034,
				"element": "H" 
			},
			{
				"x": 1.6051429641,
				"y": 2.6323902438,
				"z": -1.441373977,
				"element": "H" 
			},
			{
				"x": 3.2907948984,
				"y": 0.0716218331,
				"z": -1.5815392024,
				"element": "H" 
			},
			{
				"x": 2.649653305,
				"y": 0.8773418311,
				"z": -3.8370162358,
				"element": "H" 
			},
			{
				"x": 1.7874967534,
				"y": -0.6230945549,
				"z": -3.4483130655,
				"element": "H" 
			},
			{
				"x": 0.9460988628,
				"y": 0.9301713634,
				"z": -3.3657366676,
				"element": "H" 
			},
			{
				"x": 2.7853910818,
				"y": -1.5108914446,
				"z": 0.004372886,
				"element": "H" 
			},
			{
				"x": 1.204945086,
				"y": -2.6343811523,
				"z": 1.5350759291,
				"element": "H" 
			},
			{
				"x": -0.9270722275,
				"y": -2.8105347953,
				"z": 2.5588378208,
				"element": "H" 
			},
			{
				"x": -2.2109506088,
				"y": -2.6370268798,
				"z": 1.3507501913,
				"element": "H" 
			},
			{
				"x": -4.8616515141,
				"y": 0.3717299506,
				"z": 3.4664333845,
				"element": "H" 
			},
			{
				"x": -2.7820986535,
				"y": 0.9362156196,
				"z": 5.1789266029,
				"element": "H" 
			},
			{
				"x": -0.2062331113,
				"y": -0.0864838153,
				"z": 5.0917896802,
				"element": "H" 
			},
			{
				"x": 0.272206734,
				"y": -0.5881484411,
				"z": 3.5841409247,
				"element": "H" 
			},
			{
				"x": -1.9221430225,
				"y": 0.0131934089,
				"z": 0.2556534778,
				"element": "H" 
			},
			{
				"x": -0.3484260187,
				"y": 1.1329695841,
				"z": -1.2791796482,
				"element": "H" 
			}
		],
		 "valence_orbital": [ 
			{
				"type": "occ",
				"energy": -0.27133,
				"method": "rhf"
			},
			{
				"type": "occ",
				"energy": -0.25316,
				"method": "rhf"
			},
			{
				"type": "occ",
				"energy": -0.24478,
				"method": "rhf"
			},
			{
				"type": "occ",
				"energy": -0.23044,
				"method": "rhf"
			},
			{
				"type": "occ",
				"energy": -0.20058,
				"method": "rhf"
			},
			{
				"type": "unocc",
				"energy": -0.00738,
				"method": "rhf"
			},
			{
				"type": "unocc",
				"energy": -0.006,
				"method": "rhf"
			},
			{
				"type": "unocc",
				"energy": 0.04199,
				"method": "rhf"
			},
			{
				"type": "unocc",
				"energy": 0.07988,
				"method": "rhf"
			},
			{
				"type": "unocc",
				"energy": 0.08589,
				"method": "rhf"
			}
		],
		"cosmo_sigma_profile": { 
			"-0.025": 0.0,
			"-0.024": 0.0,
			"-0.023": 0.0,
			"-0.022": 0.0,
			"-0.021": 0.0,
			"-0.02": 0.0,
			"-0.019": 0.0,
			"-0.018": 0.0,
			"-0.017": 0.0,
			"-0.016": 0.0,
			"-0.015": 0.0,
			"-0.014": 0.0516238194717,
			"-0.013": 0.978746150395,
			"-0.012": 1.51752900955,
			"-0.011": 1.46145076479,
			"-0.01": 2.35111597065,
			"-0.009": 2.41770978914,
			"-0.008": 2.03649053598,
			"-0.007": 3.29093703749,
			"-0.006": 10.1713689105,
			"-0.005": 15.9623001784,
			"-0.004": 20.392403909,
			"-0.003": 25.7608083549,
			"-0.002": 25.4956134373,
			"-0.001": 26.4164334778,
			"0.0": 26.8012282643,
			"0.001": 24.4177557224,
			"0.002": 17.7700827829,
			"0.003": 13.7142111712,
			"0.004": 11.6143659877,
			"0.005": 14.699299646,
			"0.006": 12.0455260777,
			"0.007": 6.01927630038,
			"0.008": 2.22560359177,
			"0.009": 2.29442884774,
			"0.01": 1.85228562371,
			"0.011": 1.65037354756,
			"0.012": 2.18850176888,
			"0.013": 1.07485124201,
			"0.014": 1.5195505844,
			"0.015": 0.951497792877,
			"0.016": 1.01424851429,
			"0.017": 0.268541618575,
			"0.018": 0.0,
			"0.019": 0.0,
			"0.02": 0.0,
			"0.021": 0.0,
			"0.022": 0.0,
			"0.023": 0.0,
			"0.024": 0.0,
			"0.025": 0.0
		}
	}
}
