{
	 "smiles": "CC1(C)C2CCC1(C)C(=O)C2C(=O)C1=CC=CC2=C1C=CC=C2", 
	 "Tm": 377.15, 
	 "num_atms": 45, 
	 "gaussian": { 
		 "optdone": 1, 
		 "sigma_profile": "yes", 
		 "theory": "DFT", 
		 "functional": "B3LYP", 
		 "basiset": "6-31G**", 
		 "properties": { 
			 "R2extent": 7579.4688, 
			 "electric_dipole_moment_norm": 3.60920102654, 
			 "electric_quadrupole_moment_norm": 17.326106077, 
			 "total_energy": -963.947988699, 
			 "HOMO_LUMO_gap": 0.15969, 
			 "cosmo_polarized_energy": -13.33, 
			 "cosmo_cavitation_energy": 43.86, 
			 "cosmo_dispersion_energy": -30.05, 
			 "cosmo_repulsion_energy": 2.21, 
			 "cosmo_total_nonelectrostatic_energy": 16.02, 
			 "SMD_solvation_energy": 7.74 
		},
		"coords": [
			{
				"x": 2.854305723,
				"y": -1.6415338645,
				"z": -2.8708300426,
				"element": "C" 
			},
			{
				"x": 2.0199758162,
				"y": -1.3417450829,
				"z": -1.6128290159,
				"element": "C" 
			},
			{
				"x": 1.1648360724,
				"y": -2.5934852066,
				"z": -1.3315828913,
				"element": "C" 
			},
			{
				"x": 1.2114632353,
				"y": 0.0016688212,
				"z": -1.7080878276,
				"element": "C" 
			},
			{
				"x": 2.3328517811,
				"y": 1.0554738642,
				"z": -1.8430947912,
				"element": "C" 
			},
			{
				"x": 3.4253068118,
				"y": 0.5153719254,
				"z": -0.8752975142,
				"element": "C" 
			},
			{
				"x": 2.8635806773,
				"y": -0.8633332731,
				"z": -0.3788807511,
				"element": "C" 
			},
			{
				"x": 3.8914186119,
				"y": -1.7967160833,
				"z": 0.2367770653,
				"element": "C" 
			},
			{
				"x": 1.7445256029,
				"y": -0.4593696906,
				"z": 0.5845979034,
				"element": "C" 
			},
			{
				"x": 1.7453103854,
				"y": -0.5530627615,
				"z": 1.7901812581,
				"element": "O" 
			},
			{
				"x": 0.5752261909,
				"y": 0.0974131848,
				"z": -0.2858508188,
				"element": "C" 
			},
			{
				"x": 0.1069581125,
				"y": 1.4506615728,
				"z": 0.250168689,
				"element": "C" 
			},
			{
				"x": 0.9052946606,
				"y": 2.3658535225,
				"z": 0.4046932283,
				"element": "O" 
			},
			{
				"x": -1.3010111635,
				"y": 1.5998693705,
				"z": 0.7581240467,
				"element": "C" 
			},
			{
				"x": -1.4200127927,
				"y": 2.2609272173,
				"z": 1.9710054094,
				"element": "C" 
			},
			{
				"x": -2.6642959623,
				"y": 2.3886244062,
				"z": 2.6223140074,
				"element": "C" 
			},
			{
				"x": -3.797687019,
				"y": 1.8654196304,
				"z": 2.0444383881,
				"element": "C" 
			},
			{
				"x": -3.7388326908,
				"y": 1.2211698072,
				"z": 0.7801402554,
				"element": "C" 
			},
			{
				"x": -2.4753164823,
				"y": 1.0896806543,
				"z": 0.1084399119,
				"element": "C" 
			},
			{
				"x": -2.4742146304,
				"y": 0.5114986575,
				"z": -1.191687632,
				"element": "C" 
			},
			{
				"x": -3.6351447826,
				"y": 0.0455678339,
				"z": -1.7700570132,
				"element": "C" 
			},
			{
				"x": -4.869287005,
				"y": 0.1401777065,
				"z": -1.0866042262,
				"element": "C" 
			},
			{
				"x": -4.9158412389,
				"y": 0.7240780657,
				"z": 0.1580857407,
				"element": "C" 
			},
			{
				"x": 3.5477033647,
				"y": -0.8443673024,
				"z": -3.1422007317,
				"element": "H" 
			},
			{
				"x": 2.1933924603,
				"y": -1.8126334769,
				"z": -3.7286386142,
				"element": "H" 
			},
			{
				"x": 3.4426756898,
				"y": -2.5538609411,
				"z": -2.72755058,
				"element": "H" 
			},
			{
				"x": 0.4371558419,
				"y": -2.7502332882,
				"z": -2.1360007746,
				"element": "H" 
			},
			{
				"x": 0.6147429222,
				"y": -2.5559932982,
				"z": -0.3880129261,
				"element": "H" 
			},
			{
				"x": 1.8003806506,
				"y": -3.4840570926,
				"z": -1.2917298645,
				"element": "H" 
			},
			{
				"x": 0.4742866596,
				"y": 0.0273237235,
				"z": -2.5169709567,
				"element": "H" 
			},
			{
				"x": 2.6901330531,
				"y": 1.0980906103,
				"z": -2.8754211535,
				"element": "H" 
			},
			{
				"x": 2.0007799483,
				"y": 2.0545560215,
				"z": -1.5658362122,
				"element": "H" 
			},
			{
				"x": 3.6025819327,
				"y": 1.195631802,
				"z": -0.0377779416,
				"element": "H" 
			},
			{
				"x": 4.3860075527,
				"y": 0.3577518113,
				"z": -1.3757877245,
				"element": "H" 
			},
			{
				"x": 4.7040736578,
				"y": -2.0085520506,
				"z": -0.4656274861,
				"element": "H" 
			},
			{
				"x": 3.4406482349,
				"y": -2.7471133708,
				"z": 0.5394452262,
				"element": "H" 
			},
			{
				"x": 4.3228932298,
				"y": -1.3443484506,
				"z": 1.1346086004,
				"element": "H" 
			},
			{
				"x": -0.2496851289,
				"y": -0.6143904978,
				"z": -0.2031641567,
				"element": "H" 
			},
			{
				"x": -0.5206266857,
				"y": 2.6570904775,
				"z": 2.4298898451,
				"element": "H" 
			},
			{
				"x": -2.7177828899,
				"y": 2.8900810566,
				"z": 3.5838305616,
				"element": "H" 
			},
			{
				"x": -4.7603389134,
				"y": 1.9467360511,
				"z": 2.5426759268,
				"element": "H" 
			},
			{
				"x": -1.5495374565,
				"y": 0.4613030697,
				"z": -1.7535795197,
				"element": "H" 
			},
			{
				"x": -3.6036296799,
				"y": -0.3884709287,
				"z": -2.7652999755,
				"element": "H" 
			},
			{
				"x": -5.776462675,
				"y": -0.2329574872,
				"z": -1.5524113605,
				"element": "H" 
			},
			{
				"x": -5.861601683,
				"y": 0.8253032838,
				"z": 0.6841964386,
				"element": "H" 
			}
		],
		 "valence_orbital": [ 
			{
				"type": "occ",
				"energy": -0.28921,
				"method": "rhf"
			},
			{
				"type": "occ",
				"energy": -0.25224,
				"method": "rhf"
			},
			{
				"type": "occ",
				"energy": -0.24745,
				"method": "rhf"
			},
			{
				"type": "occ",
				"energy": -0.23401,
				"method": "rhf"
			},
			{
				"type": "occ",
				"energy": -0.2236,
				"method": "rhf"
			},
			{
				"type": "unocc",
				"energy": -0.06391,
				"method": "rhf"
			},
			{
				"type": "unocc",
				"energy": -0.02484,
				"method": "rhf"
			},
			{
				"type": "unocc",
				"energy": -0.01786,
				"method": "rhf"
			},
			{
				"type": "unocc",
				"energy": -0.006,
				"method": "rhf"
			},
			{
				"type": "unocc",
				"energy": 0.03752,
				"method": "rhf"
			}
		],
		"cosmo_sigma_profile": { 
			"-0.025": 0.0,
			"-0.024": 0.0,
			"-0.023": 0.0,
			"-0.022": 0.0,
			"-0.021": 0.0,
			"-0.02": 0.0,
			"-0.019": 0.0,
			"-0.018": 0.0,
			"-0.017": 0.0,
			"-0.016": 0.0,
			"-0.015": 0.0,
			"-0.014": 0.0,
			"-0.013": 0.0,
			"-0.012": 0.0,
			"-0.011": 0.0,
			"-0.01": 0.0,
			"-0.009": 0.0,
			"-0.008": 0.0822471752686,
			"-0.007": 4.51514795994,
			"-0.006": 16.8594757784,
			"-0.005": 17.8121041282,
			"-0.004": 25.1863611874,
			"-0.003": 38.4489641783,
			"-0.002": 39.9794839446,
			"-0.001": 34.9490707753,
			"0.0": 34.2096464552,
			"0.001": 31.5332713431,
			"0.002": 18.4599095754,
			"0.003": 24.8555962787,
			"0.004": 19.4396719173,
			"0.005": 7.99146676776,
			"0.006": 3.6020994967,
			"0.007": 4.22165090308,
			"0.008": 2.92771684685,
			"0.009": 4.15649775495,
			"0.01": 4.42143206408,
			"0.011": 6.47058881094,
			"0.012": 4.97614119274,
			"0.013": 0.438868650682,
			"0.014": 0.0,
			"0.015": 0.0,
			"0.016": 0.0,
			"0.017": 0.0,
			"0.018": 0.0,
			"0.019": 0.0,
			"0.02": 0.0,
			"0.021": 0.0,
			"0.022": 0.0,
			"0.023": 0.0,
			"0.024": 0.0,
			"0.025": 0.0
		}
	}
}
