{
	 "smiles": "NC(=O)NCC1CCCNC1", 
	 "Tm": 357.15, 
	 "num_atms": 26, 
	 "gaussian": { 
		 "optdone": 1, 
		 "sigma_profile": "yes", 
		 "theory": "DFT", 
		 "functional": "B3LYP", 
		 "basiset": "6-31G**", 
		 "properties": { 
			 "R2extent": 2576.4314, 
			 "electric_dipole_moment_norm": 4.65502726737, 
			 "electric_quadrupole_moment_norm": 12.1336983707, 
			 "total_energy": -515.277922129, 
			 "HOMO_LUMO_gap": 0.27093, 
			 "cosmo_polarized_energy": -17.39, 
			 "cosmo_cavitation_energy": 26.81, 
			 "cosmo_dispersion_energy": -19.87, 
			 "cosmo_repulsion_energy": 1.62, 
			 "cosmo_total_nonelectrostatic_energy": 8.57, 
			 "SMD_solvation_energy": 1.68 
		},
		"coords": [
			{
				"x": 0.4249394524,
				"y": 3.9148270763,
				"z": -0.8700285111,
				"element": "N" 
			},
			{
				"x": 1.1907956384,
				"y": 2.7625630776,
				"z": -0.9686747294,
				"element": "C" 
			},
			{
				"x": 2.1851073224,
				"y": 2.6951029301,
				"z": -1.6801458052,
				"element": "O" 
			},
			{
				"x": 0.769024057,
				"y": 1.6934704681,
				"z": -0.1947094326,
				"element": "N" 
			},
			{
				"x": -0.0898743242,
				"y": 1.7994908108,
				"z": 0.9815749287,
				"element": "C" 
			},
			{
				"x": -0.4029644351,
				"y": 0.4310068072,
				"z": 1.6100238587,
				"element": "C" 
			},
			{
				"x": -1.086775473,
				"y": -0.565556842,
				"z": 0.6271721366,
				"element": "C" 
			},
			{
				"x": -0.125379208,
				"y": -1.6622254367,
				"z": 0.1470663068,
				"element": "C" 
			},
			{
				"x": 0.4648472023,
				"y": -2.4513273855,
				"z": 1.3414622692,
				"element": "C" 
			},
			{
				"x": 0.6498529676,
				"y": -1.6465457076,
				"z": 2.5649270321,
				"element": "N" 
			},
			{
				"x": 0.8359655467,
				"y": -0.2263668201,
				"z": 2.276241714,
				"element": "C" 
			},
			{
				"x": -0.5518868113,
				"y": 3.836936642,
				"z": -0.6271405036,
				"element": "H" 
			},
			{
				"x": 0.6306262934,
				"y": 4.5775257407,
				"z": -1.6035471711,
				"element": "H" 
			},
			{
				"x": 1.4873689458,
				"y": 0.9832379595,
				"z": -0.1691253138,
				"element": "H" 
			},
			{
				"x": -1.0439643943,
				"y": 2.2528451908,
				"z": 0.6819001305,
				"element": "H" 
			},
			{
				"x": 0.3499496936,
				"y": 2.4617898643,
				"z": 1.7446406638,
				"element": "H" 
			},
			{
				"x": -1.1143632796,
				"y": 0.6481165034,
				"z": 2.4185760619,
				"element": "H" 
			},
			{
				"x": -1.498101233,
				"y": -0.0250750051,
				"z": -0.232098679,
				"element": "H" 
			},
			{
				"x": -1.9384537021,
				"y": -1.0401067118,
				"z": 1.1304919726,
				"element": "H" 
			},
			{
				"x": 0.6812577248,
				"y": -1.2058949119,
				"z": -0.4381872636,
				"element": "H" 
			},
			{
				"x": -0.6374657001,
				"y": -2.3485419983,
				"z": -0.5367420221,
				"element": "H" 
			},
			{
				"x": -0.1876880255,
				"y": -3.294356757,
				"z": 1.5946232383,
				"element": "H" 
			},
			{
				"x": 1.4310677966,
				"y": -2.8847559751,
				"z": 1.049216694,
				"element": "H" 
			},
			{
				"x": -0.1632838757,
				"y": -1.7524566011,
				"z": 3.1655086905,
				"element": "H" 
			},
			{
				"x": 1.0827245397,
				"y": 0.3005268168,
				"z": 3.2050917733,
				"element": "H" 
			},
			{
				"x": 1.7242732811,
				"y": -0.1361297352,
				"z": 1.6367819608,
				"element": "H" 
			}
		],
		 "valence_orbital": [ 
			{
				"type": "occ",
				"energy": -0.31722,
				"method": "rhf"
			},
			{
				"type": "occ",
				"energy": -0.26689,
				"method": "rhf"
			},
			{
				"type": "occ",
				"energy": -0.25185,
				"method": "rhf"
			},
			{
				"type": "occ",
				"energy": -0.23921,
				"method": "rhf"
			},
			{
				"type": "occ",
				"energy": -0.21715,
				"method": "rhf"
			},
			{
				"type": "unocc",
				"energy": 0.05378,
				"method": "rhf"
			},
			{
				"type": "unocc",
				"energy": 0.06475,
				"method": "rhf"
			},
			{
				"type": "unocc",
				"energy": 0.07211,
				"method": "rhf"
			},
			{
				"type": "unocc",
				"energy": 0.07566,
				"method": "rhf"
			},
			{
				"type": "unocc",
				"energy": 0.10999,
				"method": "rhf"
			}
		],
		"cosmo_sigma_profile": { 
			"-0.025": 0.0,
			"-0.024": 0.0,
			"-0.023": 0.0,
			"-0.022": 0.0,
			"-0.021": 0.0,
			"-0.02": 0.0,
			"-0.019": 0.0,
			"-0.018": 0.0,
			"-0.017": 0.0,
			"-0.016": 0.0,
			"-0.015": 0.0,
			"-0.014": 0.100434497395,
			"-0.013": 2.01717933119,
			"-0.012": 2.17064424699,
			"-0.011": 3.15592864638,
			"-0.01": 4.30209031191,
			"-0.009": 5.48299079193,
			"-0.008": 4.29007230931,
			"-0.007": 4.69013862144,
			"-0.006": 5.15892698832,
			"-0.005": 6.24408400452,
			"-0.004": 10.2119484978,
			"-0.003": 25.6094661061,
			"-0.002": 26.8156644597,
			"-0.001": 20.1250336143,
			"0.0": 17.8986287566,
			"0.001": 13.2669400991,
			"0.002": 4.94252585596,
			"0.003": 4.48910276349,
			"0.004": 4.19793651651,
			"0.005": 4.34106432977,
			"0.006": 4.45585869004,
			"0.007": 2.97904132811,
			"0.008": 3.05254287158,
			"0.009": 2.66962910059,
			"0.01": 2.3383728182,
			"0.011": 2.89589467037,
			"0.012": 2.27931285209,
			"0.013": 2.34480067798,
			"0.014": 4.87568246186,
			"0.015": 6.5635623254,
			"0.016": 1.05399805466,
			"0.017": 0.909178752698,
			"0.018": 0.468263131692,
			"0.019": 0.388933606973,
			"0.02": 0.0,
			"0.021": 0.0,
			"0.022": 0.0,
			"0.023": 0.0,
			"0.024": 0.0,
			"0.025": 0.0
		}
	}
}
