{
	 "smiles": "O=C1CC(=O)NC(=S)N1", 
	 "Tm": 507.15, 
	 "num_atms": 13, 
	 "gaussian": { 
		 "optdone": 1, 
		 "sigma_profile": "yes", 
		 "theory": "DFT", 
		 "functional": "B3LYP", 
		 "basiset": "6-31G**", 
		 "properties": { 
			 "R2extent": 1743.3399, 
			 "electric_dipole_moment_norm": 0.89782319529, 
			 "electric_quadrupole_moment_norm": 7.47851894696, 
			 "total_energy": -813.011819306, 
			 "HOMO_LUMO_gap": 0.16062, 
			 "cosmo_polarized_energy": -16.47, 
			 "cosmo_cavitation_energy": 19.79, 
			 "cosmo_dispersion_energy": -15.39, 
			 "cosmo_repulsion_energy": 1.23, 
			 "cosmo_total_nonelectrostatic_energy": 5.63, 
			 "SMD_solvation_energy": 4.03 
		},
		"coords": [
			{
				"x": -1.7318475583,
				"y": 0.7620317149,
				"z": 1.3489781395,
				"element": "O" 
			},
			{
				"x": -1.0460045362,
				"y": 0.1598721829,
				"z": 0.5503986086,
				"element": "C" 
			},
			{
				"x": 0.3589478804,
				"y": -0.3226419236,
				"z": 0.854456155,
				"element": "C" 
			},
			{
				"x": 1.0964532706,
				"y": -1.0629033779,
				"z": -0.2442852427,
				"element": "C" 
			},
			{
				"x": 2.2225056076,
				"y": -1.4949912149,
				"z": -0.117761213,
				"element": "O" 
			},
			{
				"x": 0.3968849589,
				"y": -1.226452031,
				"z": -1.4400680011,
				"element": "N" 
			},
			{
				"x": -0.877264927,
				"y": -0.799579911,
				"z": -1.7444011369,
				"element": "C" 
			},
			{
				"x": -1.5789248725,
				"y": -1.0700312819,
				"z": -3.2199211199,
				"element": "S" 
			},
			{
				"x": -1.5232043725,
				"y": -0.1304776991,
				"z": -0.727867745,
				"element": "N" 
			},
			{
				"x": 0.9625593303,
				"y": 0.5414372565,
				"z": 1.1522021381,
				"element": "H" 
			},
			{
				"x": 0.3169269661,
				"y": -0.9698468529,
				"z": 1.7370599024,
				"element": "H" 
			},
			{
				"x": 0.8864053724,
				"y": -1.7207681108,
				"z": -2.1774693921,
				"element": "H" 
			},
			{
				"x": -2.4621371197,
				"y": 0.1905512488,
				"z": -0.9354210928,
				"element": "H" 
			}
		],
		 "valence_orbital": [ 
			{
				"type": "occ",
				"energy": -0.31821,
				"method": "rhf"
			},
			{
				"type": "occ",
				"energy": -0.31494,
				"method": "rhf"
			},
			{
				"type": "occ",
				"energy": -0.2934,
				"method": "rhf"
			},
			{
				"type": "occ",
				"energy": -0.26286,
				"method": "rhf"
			},
			{
				"type": "occ",
				"energy": -0.24624,
				"method": "rhf"
			},
			{
				"type": "unocc",
				"energy": -0.08562,
				"method": "rhf"
			},
			{
				"type": "unocc",
				"energy": -0.01938,
				"method": "rhf"
			},
			{
				"type": "unocc",
				"energy": 0.01347,
				"method": "rhf"
			},
			{
				"type": "unocc",
				"energy": 0.0434,
				"method": "rhf"
			},
			{
				"type": "unocc",
				"energy": 0.0859,
				"method": "rhf"
			}
		],
		"cosmo_sigma_profile": { 
			"-0.025": 0.0,
			"-0.024": 0.0,
			"-0.023": 0.0,
			"-0.022": 0.0,
			"-0.021": 0.0,
			"-0.02": 0.0,
			"-0.019": 0.0,
			"-0.018": 0.0,
			"-0.017": 0.329994769024,
			"-0.016": 1.30374033801,
			"-0.015": 1.3346860687,
			"-0.014": 2.54831249535,
			"-0.013": 0.85898636265,
			"-0.012": 2.11037125364,
			"-0.011": 3.39199590013,
			"-0.01": 8.38078741497,
			"-0.009": 7.23242042996,
			"-0.008": 5.98336457282,
			"-0.007": 6.59122656957,
			"-0.006": 7.44523915592,
			"-0.005": 6.09866995436,
			"-0.004": 8.52061888723,
			"-0.003": 6.92518711426,
			"-0.002": 4.21130401757,
			"-0.001": 3.88852424686,
			"0.0": 4.37937493706,
			"0.001": 4.17587848794,
			"0.002": 5.58059278732,
			"0.003": 5.93728582421,
			"0.004": 6.88269593896,
			"0.005": 5.11183762761,
			"0.006": 8.81886626764,
			"0.007": 9.02087929033,
			"0.008": 7.5161209968,
			"0.009": 6.98551888794,
			"0.01": 6.50438688227,
			"0.011": 10.2852119419,
			"0.012": 2.803674918,
			"0.013": 0.0,
			"0.014": 0.0,
			"0.015": 0.0,
			"0.016": 0.0,
			"0.017": 0.0,
			"0.018": 0.0,
			"0.019": 0.0,
			"0.02": 0.0,
			"0.021": 0.0,
			"0.022": 0.0,
			"0.023": 0.0,
			"0.024": 0.0,
			"0.025": 0.0
		}
	}
}
