{
	 "smiles": "CCCCNC1=CC=C(C=C1)N1CCOCC1", 
	 "Tm": 333.15, 
	 "num_atms": 39, 
	 "gaussian": { 
		 "optdone": 1, 
		 "sigma_profile": "yes", 
		 "theory": "DFT", 
		 "functional": "B3LYP", 
		 "basiset": "6-31G**", 
		 "properties": { 
			 "R2extent": 8703.5982, 
			 "electric_dipole_moment_norm": 1.62718388328, 
			 "electric_quadrupole_moment_norm": 8.97036899575, 
			 "total_energy": -731.456933332, 
			 "HOMO_LUMO_gap": 0.17112, 
			 "cosmo_polarized_energy": -10.02, 
			 "cosmo_cavitation_energy": 39.28, 
			 "cosmo_dispersion_energy": -28.9, 
			 "cosmo_repulsion_energy": 2.27, 
			 "cosmo_total_nonelectrostatic_energy": 12.65, 
			 "SMD_solvation_energy": 4.42 
		},
		"coords": [
			{
				"x": 4.963341829,
				"y": -3.9190874253,
				"z": 1.723176087,
				"element": "C" 
			},
			{
				"x": 3.9742942173,
				"y": -3.1180917353,
				"z": 0.8710568812,
				"element": "C" 
			},
			{
				"x": 2.6425936765,
				"y": -3.8490130971,
				"z": 0.6539408715,
				"element": "C" 
			},
			{
				"x": 1.6229213827,
				"y": -3.0659242777,
				"z": -0.1787809187,
				"element": "C" 
			},
			{
				"x": 1.2230264073,
				"y": -1.8410290179,
				"z": 0.4982343805,
				"element": "N" 
			},
			{
				"x": 0.2536142916,
				"y": -0.9949254896,
				"z": -0.0636723286,
				"element": "C" 
			},
			{
				"x": -0.349493771,
				"y": -0.0038375387,
				"z": 0.7314821732,
				"element": "C" 
			},
			{
				"x": -1.277138283,
				"y": 0.8874497984,
				"z": 0.2087217348,
				"element": "C" 
			},
			{
				"x": -1.6627955434,
				"y": 0.8327530427,
				"z": -1.1481339291,
				"element": "C" 
			},
			{
				"x": -1.0617182243,
				"y": -0.1607875321,
				"z": -1.9410742871,
				"element": "C" 
			},
			{
				"x": -0.1258905749,
				"y": -1.0523480203,
				"z": -1.4124733389,
				"element": "C" 
			},
			{
				"x": -2.5868735162,
				"y": 1.7420075433,
				"z": -1.6723200874,
				"element": "N" 
			},
			{
				"x": -2.8383072494,
				"y": 1.8095623134,
				"z": -3.1021771763,
				"element": "C" 
			},
			{
				"x": -3.5275983222,
				"y": 3.1292620845,
				"z": -3.4410016562,
				"element": "C" 
			},
			{
				"x": -4.7673719642,
				"y": 3.3141054108,
				"z": -2.7605785549,
				"element": "O" 
			},
			{
				"x": -4.8928532644,
				"y": 2.5657369976,
				"z": -1.5576094031,
				"element": "C" 
			},
			{
				"x": -3.5691616264,
				"y": 2.3965930677,
				"z": -0.812917074,
				"element": "C" 
			},
			{
				"x": 5.9057303269,
				"y": -3.3777523245,
				"z": 1.8555217888,
				"element": "H" 
			},
			{
				"x": 5.1974260081,
				"y": -4.885152571,
				"z": 1.2608149839,
				"element": "H" 
			},
			{
				"x": 4.5555188947,
				"y": -4.122674685,
				"z": 2.7202522494,
				"element": "H" 
			},
			{
				"x": 4.4230851745,
				"y": -2.9003860791,
				"z": -0.1075475559,
				"element": "H" 
			},
			{
				"x": 3.7812858362,
				"y": -2.1446358878,
				"z": 1.3358008473,
				"element": "H" 
			},
			{
				"x": 2.1953177118,
				"y": -4.1001829228,
				"z": 1.6280405561,
				"element": "H" 
			},
			{
				"x": 2.8265893459,
				"y": -4.8091159955,
				"z": 0.1546960165,
				"element": "H" 
			},
			{
				"x": 2.0790907196,
				"y": -2.7988106691,
				"z": -1.1410952739,
				"element": "H" 
			},
			{
				"x": 0.7580416188,
				"y": -3.7131759437,
				"z": -0.411177161,
				"element": "H" 
			},
			{
				"x": 1.086034058,
				"y": -1.976565994,
				"z": 1.4926565419,
				"element": "H" 
			},
			{
				"x": -0.0684800747,
				"y": 0.0798844909,
				"z": 1.7793562283,
				"element": "H" 
			},
			{
				"x": -1.6864392208,
				"y": 1.6521566715,
				"z": 0.8602791758,
				"element": "H" 
			},
			{
				"x": -1.3375602435,
				"y": -0.2686459625,
				"z": -2.9841122741,
				"element": "H" 
			},
			{
				"x": 0.2968691939,
				"y": -1.8052063837,
				"z": -2.0687369014,
				"element": "H" 
			},
			{
				"x": -3.4455729343,
				"y": 0.963583711,
				"z": -3.471344712,
				"element": "H" 
			},
			{
				"x": -1.8840780974,
				"y": 1.7751848534,
				"z": -3.641354943,
				"element": "H" 
			},
			{
				"x": -3.7388823002,
				"y": 3.1725764944,
				"z": -4.5153365767,
				"element": "H" 
			},
			{
				"x": -2.8451939398,
				"y": 3.9577433195,
				"z": -3.1971589742,
				"element": "H" 
			},
			{
				"x": -5.3149709233,
				"y": 1.5704591994,
				"z": -1.7692325651,
				"element": "H" 
			},
			{
				"x": -5.6090785483,
				"y": 3.1031237886,
				"z": -0.9272199567,
				"element": "H" 
			},
			{
				"x": -3.7541849624,
				"y": 1.780912599,
				"z": 0.075585006,
				"element": "H" 
			},
			{
				"x": -3.2164371086,
				"y": 3.3791541667,
				"z": -0.459859874,
				"element": "H" 
			}
		],
		 "valence_orbital": [ 
			{
				"type": "occ",
				"energy": -0.29338,
				"method": "rhf"
			},
			{
				"type": "occ",
				"energy": -0.2476,
				"method": "rhf"
			},
			{
				"type": "occ",
				"energy": -0.23672,
				"method": "rhf"
			},
			{
				"type": "occ",
				"energy": -0.22974,
				"method": "rhf"
			},
			{
				"type": "occ",
				"energy": -0.16094,
				"method": "rhf"
			},
			{
				"type": "unocc",
				"energy": 0.01018,
				"method": "rhf"
			},
			{
				"type": "unocc",
				"energy": 0.03923,
				"method": "rhf"
			},
			{
				"type": "unocc",
				"energy": 0.08518,
				"method": "rhf"
			},
			{
				"type": "unocc",
				"energy": 0.08682,
				"method": "rhf"
			},
			{
				"type": "unocc",
				"energy": 0.10381,
				"method": "rhf"
			}
		],
		"cosmo_sigma_profile": { 
			"-0.025": 0.0,
			"-0.024": 0.0,
			"-0.023": 0.0,
			"-0.022": 0.0,
			"-0.021": 0.0,
			"-0.02": 0.0,
			"-0.019": 0.0,
			"-0.018": 0.0,
			"-0.017": 0.0,
			"-0.016": 0.0,
			"-0.015": 0.0,
			"-0.014": 0.0,
			"-0.013": 0.0,
			"-0.012": 0.0516725105583,
			"-0.011": 0.692852489576,
			"-0.01": 0.985085444965,
			"-0.009": 1.44549552885,
			"-0.008": 1.14449216606,
			"-0.007": 1.31045067253,
			"-0.006": 2.91239748853,
			"-0.005": 14.6644084194,
			"-0.004": 28.3176365799,
			"-0.003": 40.5711240839,
			"-0.002": 42.1321054279,
			"-0.001": 36.9822076072,
			"0.0": 29.2082888623,
			"0.001": 23.6971181657,
			"0.002": 14.1124647006,
			"0.003": 8.68930246731,
			"0.004": 8.47051286584,
			"0.005": 8.02410934364,
			"0.006": 9.80363816016,
			"0.007": 11.2345050373,
			"0.008": 9.57051655456,
			"0.009": 2.94124717827,
			"0.01": 2.15674334518,
			"0.011": 1.09732055126,
			"0.012": 2.7163428544,
			"0.013": 1.82591755168,
			"0.014": 0.85289082647,
			"0.015": 0.0,
			"0.016": 0.0,
			"0.017": 0.0,
			"0.018": 0.0,
			"0.019": 0.0,
			"0.02": 0.0,
			"0.021": 0.0,
			"0.022": 0.0,
			"0.023": 0.0,
			"0.024": 0.0,
			"0.025": 0.0
		}
	}
}
