{
	 "smiles": "CCOC1=NC=C(C=C1)C(N)=O", 
	 "Tm": 453.15, 
	 "num_atms": 22, 
	 "gaussian": { 
		 "optdone": 1, 
		 "sigma_profile": "yes", 
		 "theory": "DFT", 
		 "functional": "B3LYP", 
		 "basiset": "6-31G**", 
		 "properties": { 
			 "R2extent": 3098.2356, 
			 "electric_dipole_moment_norm": 3.20546573527, 
			 "electric_quadrupole_moment_norm": 18.8737783168, 
			 "total_energy": -570.849021189, 
			 "HOMO_LUMO_gap": 0.20261, 
			 "cosmo_polarized_energy": -13.46, 
			 "cosmo_cavitation_energy": 26.23, 
			 "cosmo_dispersion_energy": -19.43, 
			 "cosmo_repulsion_energy": 1.58, 
			 "cosmo_total_nonelectrostatic_energy": 8.37, 
			 "SMD_solvation_energy": 5.15 
		},
		"coords": [
			{
				"x": -1.4148603615,
				"y": -2.6436816464,
				"z": -1.1563440073,
				"element": "C" 
			},
			{
				"x": 0.0310935304,
				"y": -2.2763660497,
				"z": -1.4572669399,
				"element": "C" 
			},
			{
				"x": 0.8191189695,
				"y": -2.1699488811,
				"z": -0.2521926719,
				"element": "O" 
			},
			{
				"x": 0.7933474085,
				"y": -1.0141313159,
				"z": 0.438742308,
				"element": "C" 
			},
			{
				"x": 0.0583473737,
				"y": 0.006858465,
				"z": 0.0027493771,
				"element": "N" 
			},
			{
				"x": 0.0884737032,
				"y": 1.1423521262,
				"z": 0.7148933205,
				"element": "C" 
			},
			{
				"x": 0.8397129907,
				"y": 1.3172512075,
				"z": 1.8764889242,
				"element": "C" 
			},
			{
				"x": 1.5851882645,
				"y": 0.2121758527,
				"z": 2.3318848771,
				"element": "C" 
			},
			{
				"x": 1.5739035953,
				"y": -0.9651207041,
				"z": 1.6131143261,
				"element": "C" 
			},
			{
				"x": 0.8715786887,
				"y": 2.5754080118,
				"z": 2.6844957026,
				"element": "C" 
			},
			{
				"x": 0.378368189,
				"y": 3.7084306912,
				"z": 2.0789812022,
				"element": "N" 
			},
			{
				"x": 1.2922107953,
				"y": 2.5914818239,
				"z": 3.8356706285,
				"element": "O" 
			},
			{
				"x": -1.9112160089,
				"y": -1.8391689102,
				"z": -0.6088516521,
				"element": "H" 
			},
			{
				"x": -1.4664354586,
				"y": -3.5615111446,
				"z": -0.5632008743,
				"element": "H" 
			},
			{
				"x": -1.9577883854,
				"y": -2.8088925591,
				"z": -2.0932318364,
				"element": "H" 
			},
			{
				"x": 0.5278486125,
				"y": -3.065619345,
				"z": -2.0276212868,
				"element": "H" 
			},
			{
				"x": 0.090997922,
				"y": -1.3378648649,
				"z": -2.0136144359,
				"element": "H" 
			},
			{
				"x": -0.5530066674,
				"y": 1.9382772368,
				"z": 0.3399425825,
				"element": "H" 
			},
			{
				"x": 2.1558258621,
				"y": 0.3162123574,
				"z": 3.2487729381,
				"element": "H" 
			},
			{
				"x": 2.1369269283,
				"y": -1.8399072308,
				"z": 1.9174775562,
				"element": "H" 
			},
			{
				"x": 0.5170317906,
				"y": 4.5644468799,
				"z": 2.5967335647,
				"element": "H" 
			},
			{
				"x": 0.3605322575,
				"y": 3.7845179994,
				"z": 1.0739763967,
				"element": "H" 
			}
		],
		 "valence_orbital": [ 
			{
				"type": "occ",
				"energy": -0.29126,
				"method": "rhf"
			},
			{
				"type": "occ",
				"energy": -0.27863,
				"method": "rhf"
			},
			{
				"type": "occ",
				"energy": -0.26987,
				"method": "rhf"
			},
			{
				"type": "occ",
				"energy": -0.25082,
				"method": "rhf"
			},
			{
				"type": "occ",
				"energy": -0.23658,
				"method": "rhf"
			},
			{
				"type": "unocc",
				"energy": -0.03397,
				"method": "rhf"
			},
			{
				"type": "unocc",
				"energy": -0.02671,
				"method": "rhf"
			},
			{
				"type": "unocc",
				"energy": 0.05882,
				"method": "rhf"
			},
			{
				"type": "unocc",
				"energy": 0.07946,
				"method": "rhf"
			},
			{
				"type": "unocc",
				"energy": 0.11048,
				"method": "rhf"
			}
		],
		"cosmo_sigma_profile": { 
			"-0.025": 0.0,
			"-0.024": 0.0,
			"-0.023": 0.0,
			"-0.022": 0.0,
			"-0.021": 0.0,
			"-0.02": 0.0,
			"-0.019": 0.0,
			"-0.018": 0.0,
			"-0.017": 0.0,
			"-0.016": 0.0,
			"-0.015": 0.311039750475,
			"-0.014": 1.66279502425,
			"-0.013": 2.14752592282,
			"-0.012": 3.12632296561,
			"-0.011": 2.25690920745,
			"-0.01": 2.29376854364,
			"-0.009": 2.76973204987,
			"-0.008": 2.52603536187,
			"-0.007": 4.45508902403,
			"-0.006": 6.68552129113,
			"-0.005": 8.20515796651,
			"-0.004": 13.4139108721,
			"-0.003": 16.5111752532,
			"-0.002": 14.1904740701,
			"-0.001": 16.2764564023,
			"0.0": 22.7947586916,
			"0.001": 21.2199993345,
			"0.002": 14.8139981766,
			"0.003": 7.80511140358,
			"0.004": 6.69786689793,
			"0.005": 5.29833060582,
			"0.006": 4.02193255506,
			"0.007": 4.99176661812,
			"0.008": 5.17474945274,
			"0.009": 3.39043046727,
			"0.01": 2.2568860236,
			"0.011": 1.69603798615,
			"0.012": 2.67059866582,
			"0.013": 4.53367497782,
			"0.014": 3.65106653867,
			"0.015": 0.247190869352,
			"0.016": 0.0,
			"0.017": 0.0,
			"0.018": 0.0,
			"0.019": 0.0,
			"0.02": 0.0,
			"0.021": 0.0,
			"0.022": 0.0,
			"0.023": 0.0,
			"0.024": 0.0,
			"0.025": 0.0
		}
	}
}
