{
	 "smiles": "CC=CC(=O)OC1CC2OC3C=C(C)C(=O)CC3(C)C1(C)C21CO1", 
	 "Tm": 391.15, 
	 "num_atms": 48, 
	 "gaussian": { 
		 "optdone": 1, 
		 "sigma_profile": "yes", 
		 "theory": "DFT", 
		 "functional": "B3LYP", 
		 "basiset": "6-31G**", 
		 "properties": { 
			 "R2extent": 8606.5372, 
			 "electric_dipole_moment_norm": 4.12384749233, 
			 "electric_quadrupole_moment_norm": 18.5357736572, 
			 "total_energy": -1114.5345883, 
			 "HOMO_LUMO_gap": 0.18782, 
			 "cosmo_polarized_energy": -17.3, 
			 "cosmo_cavitation_energy": 46.32, 
			 "cosmo_dispersion_energy": -31.43, 
			 "cosmo_repulsion_energy": 2.35, 
			 "cosmo_total_nonelectrostatic_energy": 17.24, 
			 "SMD_solvation_energy": 9.0 
		},
		"coords": [
			{
				"x": 2.1989161894,
				"y": -2.1086955486,
				"z": 5.0304901937,
				"element": "C" 
			},
			{
				"x": 1.8422588894,
				"y": -1.5083006154,
				"z": 3.7071762283,
				"element": "C" 
			},
			{
				"x": 2.3184515598,
				"y": -1.9262417978,
				"z": 2.526373774,
				"element": "C" 
			},
			{
				"x": 1.9576953954,
				"y": -1.3397436509,
				"z": 1.2197101611,
				"element": "C" 
			},
			{
				"x": 2.3693934955,
				"y": -1.7654304038,
				"z": 0.155423684,
				"element": "O" 
			},
			{
				"x": 1.118600162,
				"y": -0.2750422988,
				"z": 1.3335311551,
				"element": "O" 
			},
			{
				"x": 0.7130030297,
				"y": 0.3836505452,
				"z": 0.1166811739,
				"element": "C" 
			},
			{
				"x": 0.6740745611,
				"y": 1.9107354412,
				"z": 0.3920433098,
				"element": "C" 
			},
			{
				"x": -0.7453752504,
				"y": 2.36212297,
				"z": -0.0083643308,
				"element": "C" 
			},
			{
				"x": -0.8834865877,
				"y": 2.6306556971,
				"z": -1.4126375549,
				"element": "O" 
			},
			{
				"x": -0.3402096372,
				"y": 1.5813129922,
				"z": -2.2110465004,
				"element": "C" 
			},
			{
				"x": -0.4692042197,
				"y": 1.9093975192,
				"z": -3.6691108183,
				"element": "C" 
			},
			{
				"x": -0.3712314386,
				"y": 0.9656670955,
				"z": -4.6234738647,
				"element": "C" 
			},
			{
				"x": -0.4092390922,
				"y": 1.2547695744,
				"z": -6.0987041943,
				"element": "C" 
			},
			{
				"x": -0.2238903616,
				"y": -0.4691252525,
				"z": -4.2284761134,
				"element": "C" 
			},
			{
				"x": -0.0956125097,
				"y": -1.3392223532,
				"z": -5.0773754459,
				"element": "O" 
			},
			{
				"x": -0.2228244733,
				"y": -0.8313102376,
				"z": -2.7370226552,
				"element": "C" 
			},
			{
				"x": -0.9561553819,
				"y": 0.2021100294,
				"z": -1.8565605502,
				"element": "C" 
			},
			{
				"x": -2.4625534868,
				"y": 0.1899844367,
				"z": -2.2149616946,
				"element": "C" 
			},
			{
				"x": -0.7568988515,
				"y": -0.0191524041,
				"z": -0.2968053118,
				"element": "C" 
			},
			{
				"x": -1.1358275187,
				"y": -1.4234348528,
				"z": 0.1765284574,
				"element": "C" 
			},
			{
				"x": -1.5359825597,
				"y": 1.118973269,
				"z": 0.3806255841,
				"element": "C" 
			},
			{
				"x": -2.9169566139,
				"y": 1.1147095761,
				"z": 0.8596068116,
				"element": "C" 
			},
			{
				"x": -1.8209787694,
				"y": 1.004954156,
				"z": 1.7852548716,
				"element": "O" 
			},
			{
				"x": 2.9044679958,
				"y": -2.9376591905,
				"z": 4.9286049253,
				"element": "H" 
			},
			{
				"x": 1.3012351741,
				"y": -2.4769952268,
				"z": 5.5428353634,
				"element": "H" 
			},
			{
				"x": 2.6431347398,
				"y": -1.3534133807,
				"z": 5.6910187322,
				"element": "H" 
			},
			{
				"x": 1.1421747764,
				"y": -0.6752069599,
				"z": 3.7164710882,
				"element": "H" 
			},
			{
				"x": 3.014030757,
				"y": -2.7576935945,
				"z": 2.4540208014,
				"element": "H" 
			},
			{
				"x": 1.4362405285,
				"y": 0.1048817398,
				"z": -0.6488642714,
				"element": "H" 
			},
			{
				"x": 0.7966551965,
				"y": 2.0696578657,
				"z": 1.4662464128,
				"element": "H" 
			},
			{
				"x": 1.4601005308,
				"y": 2.4661702648,
				"z": -0.1266662822,
				"element": "H" 
			},
			{
				"x": -1.078029366,
				"y": 3.2650924476,
				"z": 0.5068760815,
				"element": "H" 
			},
			{
				"x": 0.7434445602,
				"y": 1.5263883011,
				"z": -2.0182121981,
				"element": "H" 
			},
			{
				"x": -0.5783857867,
				"y": 2.9621513933,
				"z": -3.922468896,
				"element": "H" 
			},
			{
				"x": -1.2288363462,
				"y": 0.7117178577,
				"z": -6.5805891169,
				"element": "H" 
			},
			{
				"x": -0.5320240992,
				"y": 2.3238943701,
				"z": -6.2898821128,
				"element": "H" 
			},
			{
				"x": 0.5106072543,
				"y": 0.9109467386,
				"z": -6.5831097172,
				"element": "H" 
			},
			{
				"x": 0.8278787156,
				"y": -0.937429876,
				"z": -2.4329812777,
				"element": "H" 
			},
			{
				"x": -0.6645968578,
				"y": -1.8282146893,
				"z": -2.6530534606,
				"element": "H" 
			},
			{
				"x": -2.607967109,
				"y": 0.1598246957,
				"z": -3.2962567085,
				"element": "H" 
			},
			{
				"x": -2.9610531492,
				"y": -0.6890348488,
				"z": -1.799250075,
				"element": "H" 
			},
			{
				"x": -2.9682972581,
				"y": 1.083184757,
				"z": -1.8447561713,
				"element": "H" 
			},
			{
				"x": -1.1591189119,
				"y": -1.4510195862,
				"z": 1.2671882886,
				"element": "H" 
			},
			{
				"x": -0.4116828039,
				"y": -2.1637029905,
				"z": -0.1725248586,
				"element": "H" 
			},
			{
				"x": -2.1217699333,
				"y": -1.722068378,
				"z": -0.1887065923,
				"element": "H" 
			},
			{
				"x": -3.4755075334,
				"y": 2.0503623805,
				"z": 0.9021082765,
				"element": "H" 
			},
			{
				"x": -3.5268676042,
				"y": 0.2180220227,
				"z": 0.7572453985,
				"element": "H" 
			}
		],
		 "valence_orbital": [ 
			{
				"type": "occ",
				"energy": -0.27371,
				"method": "rhf"
			},
			{
				"type": "occ",
				"energy": -0.26996,
				"method": "rhf"
			},
			{
				"type": "occ",
				"energy": -0.26347,
				"method": "rhf"
			},
			{
				"type": "occ",
				"energy": -0.24779,
				"method": "rhf"
			},
			{
				"type": "occ",
				"energy": -0.24009,
				"method": "rhf"
			},
			{
				"type": "unocc",
				"energy": -0.05227,
				"method": "rhf"
			},
			{
				"type": "unocc",
				"energy": -0.04237,
				"method": "rhf"
			},
			{
				"type": "unocc",
				"energy": 0.05357,
				"method": "rhf"
			},
			{
				"type": "unocc",
				"energy": 0.06696,
				"method": "rhf"
			},
			{
				"type": "unocc",
				"energy": 0.08299,
				"method": "rhf"
			}
		],
		"cosmo_sigma_profile": { 
			"-0.025": 0.0,
			"-0.024": 0.0,
			"-0.023": 0.0,
			"-0.022": 0.0,
			"-0.021": 0.0,
			"-0.02": 0.0,
			"-0.019": 0.0,
			"-0.018": 0.0,
			"-0.017": 0.0,
			"-0.016": 0.0,
			"-0.015": 0.0,
			"-0.014": 0.0,
			"-0.013": 0.0,
			"-0.012": 0.0,
			"-0.011": 0.00305356486098,
			"-0.01": 0.339572507051,
			"-0.009": 1.17648727793,
			"-0.008": 1.87654772285,
			"-0.007": 4.87513214563,
			"-0.006": 17.0256144799,
			"-0.005": 27.4267152463,
			"-0.004": 35.1114974792,
			"-0.003": 38.1731355916,
			"-0.002": 39.1379232715,
			"-0.001": 37.7733680872,
			"0.0": 35.5448865718,
			"0.001": 26.9200072726,
			"0.002": 17.2968942648,
			"0.003": 12.1044054361,
			"0.004": 7.83719638254,
			"0.005": 6.35834245839,
			"0.006": 6.84932768744,
			"0.007": 5.74199607772,
			"0.008": 5.92372772103,
			"0.009": 5.34421799782,
			"0.01": 6.30471068073,
			"0.011": 9.05145049516,
			"0.012": 9.45234933549,
			"0.013": 4.31181029045,
			"0.014": 0.476401847909,
			"0.015": 0.0,
			"0.016": 0.0,
			"0.017": 0.0,
			"0.018": 0.0,
			"0.019": 0.0,
			"0.02": 0.0,
			"0.021": 0.0,
			"0.022": 0.0,
			"0.023": 0.0,
			"0.024": 0.0,
			"0.025": 0.0
		}
	}
}
