{
	 "smiles": "CC1(NC(=O)NC1=O)C1=CC(Cl)=C(Cl)C=C1", 
	 "Tm": 478.15, 
	 "num_atms": 24, 
	 "gaussian": { 
		 "optdone": 1, 
		 "sigma_profile": "yes", 
		 "theory": "DFT", 
		 "functional": "B3LYP", 
		 "basiset": "6-31G**", 
		 "properties": { 
			 "R2extent": 5914.906, 
			 "electric_dipole_moment_norm": 2.94484057463, 
			 "electric_quadrupole_moment_norm": 12.76335385, 
			 "total_energy": -1566.26164791, 
			 "HOMO_LUMO_gap": 0.21422, 
			 "cosmo_polarized_energy": -17.18, 
			 "cosmo_cavitation_energy": 32.09, 
			 "cosmo_dispersion_energy": -23.11, 
			 "cosmo_repulsion_energy": 1.82, 
			 "cosmo_total_nonelectrostatic_energy": 10.8, 
			 "SMD_solvation_energy": 6.63 
		},
		"coords": [
			{
				"x": 0.9063481728,
				"y": 2.8124784302,
				"z": -2.7844463968,
				"element": "C" 
			},
			{
				"x": 0.3493412342,
				"y": 1.3733467578,
				"z": -2.7817540342,
				"element": "C" 
			},
			{
				"x": 1.0214451447,
				"y": 0.5344303259,
				"z": -3.7717768823,
				"element": "N" 
			},
			{
				"x": 0.2188312814,
				"y": 0.1851750354,
				"z": -4.8353431253,
				"element": "C" 
			},
			{
				"x": 0.5267196456,
				"y": -0.3953582328,
				"z": -5.8526610543,
				"element": "O" 
			},
			{
				"x": -1.0699530492,
				"y": 0.6504969576,
				"z": -4.5008325456,
				"element": "N" 
			},
			{
				"x": -1.1023083452,
				"y": 1.38769561,
				"z": -3.3403664659,
				"element": "C" 
			},
			{
				"x": -2.0566206337,
				"y": 1.9569420793,
				"z": -2.855504134,
				"element": "O" 
			},
			{
				"x": 0.3700804659,
				"y": 0.7709036706,
				"z": -1.372035425,
				"element": "C" 
			},
			{
				"x": 1.1153694278,
				"y": -0.3745180599,
				"z": -1.0910070299,
				"element": "C" 
			},
			{
				"x": 1.1595995751,
				"y": -0.9008494689,
				"z": 0.2025358779,
				"element": "C" 
			},
			{
				"x": 2.121155719,
				"y": -2.3313494673,
				"z": 0.4875899487,
				"element": "Cl" 
			},
			{
				"x": 0.4414092762,
				"y": -0.2847769556,
				"z": 1.2333976453,
				"element": "C" 
			},
			{
				"x": 0.4653725431,
				"y": -0.9025752262,
				"z": 2.8654025657,
				"element": "Cl" 
			},
			{
				"x": -0.3203203018,
				"y": 0.8521749684,
				"z": 0.950319216,
				"element": "C" 
			},
			{
				"x": -0.3551355436,
				"y": 1.3779542803,
				"z": -0.3363135552,
				"element": "C" 
			},
			{
				"x": 0.8856977267,
				"y": 3.2278787125,
				"z": -3.7963546691,
				"element": "H" 
			},
			{
				"x": 0.3089573407,
				"y": 3.4543064765,
				"z": -2.1342243466,
				"element": "H" 
			},
			{
				"x": 1.9382610972,
				"y": 2.81570755,
				"z": -2.4204906565,
				"element": "H" 
			},
			{
				"x": 2.0212999193,
				"y": 0.5456956126,
				"z": -3.9108516472,
				"element": "H" 
			},
			{
				"x": -1.8683573562,
				"y": 0.502941062,
				"z": -5.1020687634,
				"element": "H" 
			},
			{
				"x": 1.6608744083,
				"y": -0.8805241908,
				"z": -1.8778954287,
				"element": "H" 
			},
			{
				"x": -0.8869359142,
				"y": 1.3172305311,
				"z": 1.7493450806,
				"element": "H" 
			},
			{
				"x": -0.9762318341,
				"y": 2.2417935413,
				"z": -0.5421641738,
				"element": "H" 
			}
		],
		 "valence_orbital": [ 
			{
				"type": "occ",
				"energy": -0.30093,
				"method": "rhf"
			},
			{
				"type": "occ",
				"energy": -0.28582,
				"method": "rhf"
			},
			{
				"type": "occ",
				"energy": -0.27732,
				"method": "rhf"
			},
			{
				"type": "occ",
				"energy": -0.26682,
				"method": "rhf"
			},
			{
				"type": "occ",
				"energy": -0.25342,
				"method": "rhf"
			},
			{
				"type": "unocc",
				"energy": -0.0392,
				"method": "rhf"
			},
			{
				"type": "unocc",
				"energy": -0.03053,
				"method": "rhf"
			},
			{
				"type": "unocc",
				"energy": -0.01576,
				"method": "rhf"
			},
			{
				"type": "unocc",
				"energy": -0.00021,
				"method": "rhf"
			},
			{
				"type": "unocc",
				"energy": 0.04543,
				"method": "rhf"
			}
		],
		"cosmo_sigma_profile": { 
			"-0.025": 0.0,
			"-0.024": 0.0,
			"-0.023": 0.0,
			"-0.022": 0.0,
			"-0.021": 0.0,
			"-0.02": 0.0,
			"-0.019": 0.0,
			"-0.018": 0.0,
			"-0.017": 0.612248011803,
			"-0.016": 1.60098818083,
			"-0.015": 2.39374178025,
			"-0.014": 1.81251898093,
			"-0.013": 2.1420122785,
			"-0.012": 2.06240160402,
			"-0.011": 2.30051554233,
			"-0.01": 2.61764867744,
			"-0.009": 2.00096124656,
			"-0.008": 3.49580125735,
			"-0.007": 7.21138951086,
			"-0.006": 11.9128389878,
			"-0.005": 11.9978996301,
			"-0.004": 12.072405342,
			"-0.003": 15.9617631035,
			"-0.002": 18.453712774,
			"-0.001": 18.5847418072,
			"0.0": 19.4500515086,
			"0.001": 24.5696923137,
			"0.002": 21.2325322121,
			"0.003": 17.7917012899,
			"0.004": 19.3121723874,
			"0.005": 6.92792837667,
			"0.006": 3.82519450358,
			"0.007": 2.30008932224,
			"0.008": 1.80284610908,
			"0.009": 4.07445574668,
			"0.01": 3.43106248135,
			"0.011": 6.01036830695,
			"0.012": 8.41990177362,
			"0.013": 4.15655688963,
			"0.014": 0.156583494098,
			"0.015": 0.0,
			"0.016": 0.0,
			"0.017": 0.0,
			"0.018": 0.0,
			"0.019": 0.0,
			"0.02": 0.0,
			"0.021": 0.0,
			"0.022": 0.0,
			"0.023": 0.0,
			"0.024": 0.0,
			"0.025": 0.0
		}
	}
}
