{
	 "smiles": "CN1N=C(C(C(O)=O)=C1C(F)(F)F)C(F)(F)F", 
	 "Tm": 401.15, 
	 "num_atms": 21, 
	 "gaussian": { 
		 "optdone": 1, 
		 "sigma_profile": "yes", 
		 "theory": "DFT", 
		 "functional": "B3LYP", 
		 "basiset": "6-31G**", 
		 "properties": { 
			 "R2extent": 4384.3747, 
			 "electric_dipole_moment_norm": 2.30035298813, 
			 "electric_quadrupole_moment_norm": 15.4915417148, 
			 "total_energy": -1128.14021213, 
			 "HOMO_LUMO_gap": 0.23106, 
			 "cosmo_polarized_energy": -12.32, 
			 "cosmo_cavitation_energy": 28.72, 
			 "cosmo_dispersion_energy": -20.04, 
			 "cosmo_repulsion_energy": 1.45, 
			 "cosmo_total_nonelectrostatic_energy": 10.13, 
			 "SMD_solvation_energy": 7.49 
		},
		"coords": [
			{
				"x": 1.4427642191,
				"y": -1.8015015807,
				"z": 0.8295730063,
				"element": "C" 
			},
			{
				"x": 0.8454612411,
				"y": -0.4648266607,
				"z": 0.7877579433,
				"element": "N" 
			},
			{
				"x": 1.4551069035,
				"y": 0.5027280955,
				"z": 1.4971483309,
				"element": "N" 
			},
			{
				"x": 0.7377448862,
				"y": 1.6021587661,
				"z": 1.3022624372,
				"element": "C" 
			},
			{
				"x": -0.3674318108,
				"y": 1.3550119246,
				"z": 0.4470905539,
				"element": "C" 
			},
			{
				"x": -1.4271540339,
				"y": 2.2557267541,
				"z": -0.0476067238,
				"element": "C" 
			},
			{
				"x": -1.2852290285,
				"y": 3.5162335663,
				"z": 0.4117273302,
				"element": "O" 
			},
			{
				"x": -2.3298989805,
				"y": 1.9176300811,
				"z": -0.7848069409,
				"element": "O" 
			},
			{
				"x": -0.255749472,
				"y": -0.0019553218,
				"z": 0.138415065,
				"element": "C" 
			},
			{
				"x": -1.1434469574,
				"y": -0.8534428005,
				"z": -0.7352697528,
				"element": "C" 
			},
			{
				"x": -0.6907498531,
				"y": -2.132861757,
				"z": -0.7802169051,
				"element": "F" 
			},
			{
				"x": -1.1698675702,
				"y": -0.4008996301,
				"z": -1.9958169757,
				"element": "F" 
			},
			{
				"x": -2.3974441616,
				"y": -0.8959964234,
				"z": -0.2660903244,
				"element": "F" 
			},
			{
				"x": 1.178473965,
				"y": 2.8752070225,
				"z": 1.9789862477,
				"element": "C" 
			},
			{
				"x": 1.4540702143,
				"y": 3.8393444782,
				"z": 1.0789968823,
				"element": "F" 
			},
			{
				"x": 0.2261834309,
				"y": 3.3452666329,
				"z": 2.8082492658,
				"element": "F" 
			},
			{
				"x": 2.2879550123,
				"y": 2.6679564759,
				"z": 2.7075738052,
				"element": "F" 
			},
			{
				"x": 1.7408782142,
				"y": -2.1195909176,
				"z": -0.1699670188,
				"element": "H" 
			},
			{
				"x": 0.7379199529,
				"y": -2.5235668962,
				"z": 1.2430424349,
				"element": "H" 
			},
			{
				"x": 2.3156964135,
				"y": -1.7163226889,
				"z": 1.4735340531,
				"element": "H" 
			},
			{
				"x": -2.0207825851,
				"y": 4.0275008797,
				"z": 0.0355172856,
				"element": "H" 
			}
		],
		 "valence_orbital": [ 
			{
				"type": "occ",
				"energy": -0.33464,
				"method": "rhf"
			},
			{
				"type": "occ",
				"energy": -0.33109,
				"method": "rhf"
			},
			{
				"type": "occ",
				"energy": -0.29792,
				"method": "rhf"
			},
			{
				"type": "occ",
				"energy": -0.28963,
				"method": "rhf"
			},
			{
				"type": "occ",
				"energy": -0.28928,
				"method": "rhf"
			},
			{
				"type": "unocc",
				"energy": -0.05822,
				"method": "rhf"
			},
			{
				"type": "unocc",
				"energy": -0.02368,
				"method": "rhf"
			},
			{
				"type": "unocc",
				"energy": 0.07113,
				"method": "rhf"
			},
			{
				"type": "unocc",
				"energy": 0.07524,
				"method": "rhf"
			},
			{
				"type": "unocc",
				"energy": 0.08041,
				"method": "rhf"
			}
		],
		"cosmo_sigma_profile": { 
			"-0.025": 0.0,
			"-0.024": 0.0,
			"-0.023": 0.0,
			"-0.022": 0.0,
			"-0.021": 0.0,
			"-0.02": 0.00504815928645,
			"-0.019": 0.598934652113,
			"-0.018": 1.14152546295,
			"-0.017": 0.71721819769,
			"-0.016": 0.696158352774,
			"-0.015": 0.48637622357,
			"-0.014": 1.09422408048,
			"-0.013": 0.956771294145,
			"-0.012": 0.725494371838,
			"-0.011": 0.478143649799,
			"-0.01": 0.864317836821,
			"-0.009": 2.20625579366,
			"-0.008": 5.76035218973,
			"-0.007": 7.10664194073,
			"-0.006": 8.12475283683,
			"-0.005": 9.16603540115,
			"-0.004": 13.5059940204,
			"-0.003": 11.7339661122,
			"-0.002": 14.977778421,
			"-0.001": 13.4866246966,
			"0.0": 11.5079423583,
			"0.001": 18.6791744598,
			"0.002": 42.2810670054,
			"0.003": 22.8075911562,
			"0.004": 7.7778410454,
			"0.005": 7.09428826954,
			"0.006": 6.93545564725,
			"0.007": 4.41185083787,
			"0.008": 2.51662628142,
			"0.009": 3.81559991529,
			"0.01": 4.35159081237,
			"0.011": 3.96952481266,
			"0.012": 0.590482418687,
			"0.013": 0.0,
			"0.014": 0.0,
			"0.015": 0.0,
			"0.016": 0.0,
			"0.017": 0.0,
			"0.018": 0.0,
			"0.019": 0.0,
			"0.02": 0.0,
			"0.021": 0.0,
			"0.022": 0.0,
			"0.023": 0.0,
			"0.024": 0.0,
			"0.025": 0.0
		}
	}
}
