{
	 "smiles": "CS(=O)(=O)NC1=CC(I)=CC=C1", 
	 "Tm": 393.15, 
	 "num_atms": 20, 
	 "gaussian": { 
		 "optdone": 1, 
		 "sigma_profile": "yes", 
		 "theory": "DFT", 
		 "functional": "B3LYP", 
		 "basiset": "6-31G**", 
		 "properties": { 
			 "R2extent": 2776.164, 
			 "electric_dipole_moment_norm": 5.12025060617, 
			 "electric_quadrupole_moment_norm": 10.4634032647, 
			 "total_energy": -886.271242479, 
			 "HOMO_LUMO_gap": 0.19784, 
			 "cosmo_polarized_energy": -16.74, 
			 "cosmo_cavitation_energy": 28.55, 
			 "cosmo_dispersion_energy": -22.47, 
			 "cosmo_repulsion_energy": 1.72, 
			 "cosmo_total_nonelectrostatic_energy": 7.81, 
			 "SMD_solvation_energy": 3.64 
		},
		"coords": [
			{
				"x": 2.0723142152,
				"y": -2.1789466575,
				"z": -1.0380666421,
				"element": "C" 
			},
			{
				"x": 1.8790111774,
				"y": -1.5610229768,
				"z": 0.6468992587,
				"element": "S" 
			},
			{
				"x": 0.876519599,
				"y": -2.3975112644,
				"z": 1.3026454999,
				"element": "O" 
			},
			{
				"x": 3.2036711061,
				"y": -1.3401133886,
				"z": 1.2233012718,
				"element": "O" 
			},
			{
				"x": 1.2436509726,
				"y": -0.0008009285,
				"z": 0.4721052759,
				"element": "N" 
			},
			{
				"x": 0.0497762664,
				"y": 0.3296049811,
				"z": -0.2132367912,
				"element": "C" 
			},
			{
				"x": -1.1011409326,
				"y": -0.4660949566,
				"z": -0.0945950683,
				"element": "C" 
			},
			{
				"x": -2.2544176608,
				"y": -0.0835352781,
				"z": -0.7784972596,
				"element": "C" 
			},
			{
				"x": -3.987232335,
				"y": -1.2969083341,
				"z": -0.6157826589,
				"element": "I" 
			},
			{
				"x": -2.3068778255,
				"y": 1.0789176289,
				"z": -1.5491582905,
				"element": "C" 
			},
			{
				"x": -1.1589194468,
				"y": 1.8685259704,
				"z": -1.6370477679,
				"element": "C" 
			},
			{
				"x": 0.0161944867,
				"y": 1.4972095894,
				"z": -0.9894046385,
				"element": "C" 
			},
			{
				"x": 2.4163508359,
				"y": -3.2114127989,
				"z": -0.9569047155,
				"element": "H" 
			},
			{
				"x": 2.8123332154,
				"y": -1.5687177388,
				"z": -1.5570141658,
				"element": "H" 
			},
			{
				"x": 1.1052688595,
				"y": -2.1425851664,
				"z": -1.5418572745,
				"element": "H" 
			},
			{
				"x": 1.9919291388,
				"y": 0.6818047079,
				"z": 0.4285310287,
				"element": "H" 
			},
			{
				"x": -1.0825669039,
				"y": -1.3489950627,
				"z": 0.5309623522,
				"element": "H" 
			},
			{
				"x": -3.2155720013,
				"y": 1.3653028455,
				"z": -2.064937985,
				"element": "H" 
			},
			{
				"x": -1.1793103131,
				"y": 2.7783533558,
				"z": -2.2295947887,
				"element": "H" 
			},
			{
				"x": 0.9077175462,
				"y": 2.1120254723,
				"z": -1.0800466407,
				"element": "H" 
			}
		],
		 "valence_orbital": [ 
			{
				"type": "occ",
				"energy": -0.31213,
				"method": "rhf"
			},
			{
				"type": "occ",
				"energy": -0.29891,
				"method": "rhf"
			},
			{
				"type": "occ",
				"energy": -0.27142,
				"method": "rhf"
			},
			{
				"type": "occ",
				"energy": -0.25389,
				"method": "rhf"
			},
			{
				"type": "occ",
				"energy": -0.24083,
				"method": "rhf"
			},
			{
				"type": "unocc",
				"energy": -0.04299,
				"method": "rhf"
			},
			{
				"type": "unocc",
				"energy": -0.02963,
				"method": "rhf"
			},
			{
				"type": "unocc",
				"energy": -0.02442,
				"method": "rhf"
			},
			{
				"type": "unocc",
				"energy": 0.04128,
				"method": "rhf"
			},
			{
				"type": "unocc",
				"energy": 0.04602,
				"method": "rhf"
			}
		],
		"cosmo_sigma_profile": { 
			"-0.025": 0.0,
			"-0.024": 0.0,
			"-0.023": 0.0,
			"-0.022": 0.0,
			"-0.021": 0.0,
			"-0.02": 0.0,
			"-0.019": 0.0,
			"-0.018": 0.0,
			"-0.017": 0.0,
			"-0.016": 0.49466928017,
			"-0.015": 1.1490565757,
			"-0.014": 1.52387963751,
			"-0.013": 1.1267891046,
			"-0.012": 1.73945089881,
			"-0.011": 1.20356591702,
			"-0.01": 1.98115470142,
			"-0.009": 4.40295643101,
			"-0.008": 6.44689516388,
			"-0.007": 11.00946957,
			"-0.006": 12.9805999403,
			"-0.005": 15.3470430399,
			"-0.004": 14.2221561759,
			"-0.003": 11.9728961138,
			"-0.002": 9.50490462529,
			"-0.001": 10.8444312921,
			"0.0": 10.1583564393,
			"0.001": 13.2985716517,
			"0.002": 18.5820700591,
			"0.003": 21.3921254648,
			"0.004": 22.730491414,
			"0.005": 8.29541123654,
			"0.006": 3.43244941476,
			"0.007": 3.51052774937,
			"0.008": 3.58754287095,
			"0.009": 3.17684537681,
			"0.01": 7.49210688538,
			"0.011": 10.0654517052,
			"0.012": 1.72189413764,
			"0.013": 0.0,
			"0.014": 0.0,
			"0.015": 0.0,
			"0.016": 0.0,
			"0.017": 0.0,
			"0.018": 0.0,
			"0.019": 0.0,
			"0.02": 0.0,
			"0.021": 0.0,
			"0.022": 0.0,
			"0.023": 0.0,
			"0.024": 0.0,
			"0.025": 0.0
		}
	}
}
