{
	 "smiles": "OC1=CC(OC2=CN=CC=C2)=CC=C1", 
	 "Tm": 383.15, 
	 "num_atms": 23, 
	 "gaussian": { 
		 "optdone": 1, 
		 "sigma_profile": "yes", 
		 "theory": "DFT", 
		 "functional": "B3LYP", 
		 "basiset": "6-31G**", 
		 "properties": { 
			 "R2extent": 3353.15, 
			 "electric_dipole_moment_norm": 1.86747711365, 
			 "electric_quadrupole_moment_norm": 13.3706804098, 
			 "total_energy": -629.769548972, 
			 "HOMO_LUMO_gap": 0.19177, 
			 "cosmo_polarized_energy": -12.04, 
			 "cosmo_cavitation_energy": 27.83, 
			 "cosmo_dispersion_energy": -20.35, 
			 "cosmo_repulsion_energy": 1.6, 
			 "cosmo_total_nonelectrostatic_energy": 9.08, 
			 "SMD_solvation_energy": 3.93 
		},
		"coords": [
			{
				"x": 3.2208510244,
				"y": 0.2065822915,
				"z": 0.2951083422,
				"element": "O" 
			},
			{
				"x": 2.0294510857,
				"y": 0.6598660723,
				"z": 0.7830468699,
				"element": "C" 
			},
			{
				"x": 0.8743506268,
				"y": -0.1283960601,
				"z": 0.7760964438,
				"element": "C" 
			},
			{
				"x": -0.3124904913,
				"y": 0.4026698074,
				"z": 1.2889317698,
				"element": "C" 
			},
			{
				"x": -1.4721662654,
				"y": -0.3496718087,
				"z": 1.3755682358,
				"element": "O" 
			},
			{
				"x": -1.8370279106,
				"y": -1.2058788377,
				"z": 0.3629652516,
				"element": "C" 
			},
			{
				"x": -1.6786017046,
				"y": -0.9036021832,
				"z": -0.9962857838,
				"element": "C" 
			},
			{
				"x": -2.098332337,
				"y": -1.7143948482,
				"z": -1.9718330494,
				"element": "N" 
			},
			{
				"x": -2.7039915982,
				"y": -2.8568603356,
				"z": -1.6240920707,
				"element": "C" 
			},
			{
				"x": -2.916410724,
				"y": -3.2359704154,
				"z": -0.2973983848,
				"element": "C" 
			},
			{
				"x": -2.4716828265,
				"y": -2.3955858034,
				"z": 0.7201925133,
				"element": "C" 
			},
			{
				"x": -0.3595989911,
				"y": 1.6912280471,
				"z": 1.8180735822,
				"element": "C" 
			},
			{
				"x": 0.8088600388,
				"y": 2.4559718677,
				"z": 1.8245287809,
				"element": "C" 
			},
			{
				"x": 2.0020389894,
				"y": 1.9573048224,
				"z": 1.3088908214,
				"element": "C" 
			},
			{
				"x": 3.1065839155,
				"y": -0.6884714515,
				"z": -0.0496455492,
				"element": "H" 
			},
			{
				"x": 0.8956608938,
				"y": -1.1403412952,
				"z": 0.3820270448,
				"element": "H" 
			},
			{
				"x": -1.1962486641,
				"y": 0.0233386382,
				"z": -1.2970644495,
				"element": "H" 
			},
			{
				"x": -3.037872365,
				"y": -3.4927491319,
				"z": -2.4413255948,
				"element": "H" 
			},
			{
				"x": -3.4164588086,
				"y": -4.1713164157,
				"z": -0.0657355068,
				"element": "H" 
			},
			{
				"x": -2.6077830804,
				"y": -2.6342761799,
				"z": 1.7700635324,
				"element": "H" 
			},
			{
				"x": -1.2954915104,
				"y": 2.06944322,
				"z": 2.2129729842,
				"element": "H" 
			},
			{
				"x": 0.784390298,
				"y": 3.4617084686,
				"z": 2.2334702407,
				"element": "H" 
			},
			{
				"x": 2.9120704048,
				"y": 2.5467015315,
				"z": 1.3032439759,
				"element": "H" 
			}
		],
		 "valence_orbital": [ 
			{
				"type": "occ",
				"energy": -0.28671,
				"method": "rhf"
			},
			{
				"type": "occ",
				"energy": -0.26547,
				"method": "rhf"
			},
			{
				"type": "occ",
				"energy": -0.25667,
				"method": "rhf"
			},
			{
				"type": "occ",
				"energy": -0.23579,
				"method": "rhf"
			},
			{
				"type": "occ",
				"energy": -0.22036,
				"method": "rhf"
			},
			{
				"type": "unocc",
				"energy": -0.02859,
				"method": "rhf"
			},
			{
				"type": "unocc",
				"energy": -0.0155,
				"method": "rhf"
			},
			{
				"type": "unocc",
				"energy": 0.00023,
				"method": "rhf"
			},
			{
				"type": "unocc",
				"energy": 0.01224,
				"method": "rhf"
			},
			{
				"type": "unocc",
				"energy": 0.06542,
				"method": "rhf"
			}
		],
		"cosmo_sigma_profile": { 
			"-0.025": 0.0,
			"-0.024": 0.0,
			"-0.023": 0.0,
			"-0.022": 0.0,
			"-0.021": 0.0,
			"-0.02": 0.0,
			"-0.019": 0.0,
			"-0.018": 0.646920042412,
			"-0.017": 1.16262165994,
			"-0.016": 1.15602352911,
			"-0.015": 1.52905237033,
			"-0.014": 0.555105706814,
			"-0.013": 0.422593344382,
			"-0.012": 1.0367977494,
			"-0.011": 1.3361956091,
			"-0.01": 1.13368699051,
			"-0.009": 1.32057483691,
			"-0.008": 2.12192329698,
			"-0.007": 5.78963838674,
			"-0.006": 13.8825941887,
			"-0.005": 15.1472322963,
			"-0.004": 14.2262730504,
			"-0.003": 13.1158107495,
			"-0.002": 12.1109382341,
			"-0.001": 12.7841380457,
			"0.0": 13.2512771586,
			"0.001": 17.4657227733,
			"0.002": 19.2380760252,
			"0.003": 19.1749643927,
			"0.004": 16.3175058072,
			"0.005": 11.7484603995,
			"0.006": 5.29869207834,
			"0.007": 3.38559454601,
			"0.008": 4.23696787587,
			"0.009": 3.50503689397,
			"0.01": 3.14274013471,
			"0.011": 1.91366894555,
			"0.012": 1.22945811522,
			"0.013": 1.45552366059,
			"0.014": 0.798440625995,
			"0.015": 0.806106220639,
			"0.016": 0.813355873942,
			"0.017": 0.152335343339,
			"0.018": 0.0,
			"0.019": 0.0,
			"0.02": 0.0,
			"0.021": 0.0,
			"0.022": 0.0,
			"0.023": 0.0,
			"0.024": 0.0,
			"0.025": 0.0
		}
	}
}
