{
	 "smiles": "CC1=C(C=C(C=C1)N(CCO)CCO)N=NC1=CC=C(C=C1)[N+]([O-])=O", 
	 "Tm": 433.15, 
	 "num_atms": 45, 
	 "gaussian": { 
		 "optdone": 1, 
		 "sigma_profile": "yes", 
		 "theory": "DFT", 
		 "functional": "B3LYP", 
		 "basiset": "6-31G**", 
		 "properties": { 
			 "R2extent": 10144.8401, 
			 "electric_dipole_moment_norm": 4.94109598166, 
			 "electric_quadrupole_moment_norm": 25.6021523996, 
			 "total_energy": -1179.57471703, 
			 "HOMO_LUMO_gap": 0.09781, 
			 "cosmo_polarized_energy": -23.02, 
			 "cosmo_cavitation_energy": 48.94, 
			 "cosmo_dispersion_energy": -31.69, 
			 "cosmo_repulsion_energy": 2.44, 
			 "cosmo_total_nonelectrostatic_energy": 19.69, 
			 "SMD_solvation_energy": 8.5 
		},
		"coords": [
			{
				"x": -3.3516150664,
				"y": -2.0489426146,
				"z": 1.2321919066,
				"element": "C" 
			},
			{
				"x": -2.3704762982,
				"y": -1.3326764477,
				"z": 0.3396201472,
				"element": "C" 
			},
			{
				"x": -1.9089609282,
				"y": -0.0327368409,
				"z": 0.632167359,
				"element": "C" 
			},
			{
				"x": -1.0193046752,
				"y": 0.6400302665,
				"z": -0.2192075318,
				"element": "C" 
			},
			{
				"x": -0.5063381577,
				"y": 0.0241041927,
				"z": -1.3740780232,
				"element": "C" 
			},
			{
				"x": -0.9257701036,
				"y": -1.3003387686,
				"z": -1.6375585619,
				"element": "C" 
			},
			{
				"x": -1.8361329936,
				"y": -1.9387493493,
				"z": -0.8023673251,
				"element": "C" 
			},
			{
				"x": 0.3848417103,
				"y": 0.6919804798,
				"z": -2.2131397487,
				"element": "N" 
			},
			{
				"x": 1.0692186891,
				"y": 1.900643536,
				"z": -1.7769498147,
				"element": "C" 
			},
			{
				"x": 0.3299905742,
				"y": 3.2163771083,
				"z": -2.0835441457,
				"element": "C" 
			},
			{
				"x": 1.1139205905,
				"y": 4.3427928007,
				"z": -1.7229277695,
				"element": "O" 
			},
			{
				"x": 0.594610327,
				"y": 0.2989594618,
				"z": -3.6019511863,
				"element": "C" 
			},
			{
				"x": 1.8450559274,
				"y": -0.5397930588,
				"z": -3.8702646093,
				"element": "C" 
			},
			{
				"x": 1.6439380692,
				"y": -1.8478179113,
				"z": -3.3571748135,
				"element": "O" 
			},
			{
				"x": -2.53720655,
				"y": 0.6151571927,
				"z": 1.7374226239,
				"element": "N" 
			},
			{
				"x": -1.9730590187,
				"y": 1.4347558445,
				"z": 2.4944506613,
				"element": "N" 
			},
			{
				"x": -0.569435806,
				"y": 1.6883566676,
				"z": 2.5301531029,
				"element": "C" 
			},
			{
				"x": -0.1576174258,
				"y": 3.0324664253,
				"z": 2.5494275683,
				"element": "C" 
			},
			{
				"x": 1.1827295115,
				"y": 3.3517245633,
				"z": 2.7264029196,
				"element": "C" 
			},
			{
				"x": 2.0996137253,
				"y": 2.3189213125,
				"z": 2.9344149322,
				"element": "C" 
			},
			{
				"x": 1.7030713017,
				"y": 0.9807718209,
				"z": 2.9721159979,
				"element": "C" 
			},
			{
				"x": 0.3666048839,
				"y": 0.6654108013,
				"z": 2.7647274625,
				"element": "C" 
			},
			{
				"x": 3.5135352129,
				"y": 2.6501267593,
				"z": 3.1302097185,
				"element": "N" 
			},
			{
				"x": 3.8361989227,
				"y": 3.8378666705,
				"z": 3.0702857628,
				"element": "O" 
			},
			{
				"x": 4.2962574047,
				"y": 1.7217630288,
				"z": 3.337077431,
				"element": "O" 
			},
			{
				"x": -4.1144256576,
				"y": -1.3599616917,
				"z": 1.6051706768,
				"element": "H" 
			},
			{
				"x": -3.8394159093,
				"y": -2.8658961524,
				"z": 0.6930991701,
				"element": "H" 
			},
			{
				"x": -2.861860665,
				"y": -2.4836169414,
				"z": 2.1128631357,
				"element": "H" 
			},
			{
				"x": -0.7697697561,
				"y": 1.6663027135,
				"z": 0.008325737,
				"element": "H" 
			},
			{
				"x": -0.5033190494,
				"y": -1.8405364399,
				"z": -2.4747911333,
				"element": "H" 
			},
			{
				"x": -2.1381663457,
				"y": -2.954687846,
				"z": -1.0447809021,
				"element": "H" 
			},
			{
				"x": 2.0499391587,
				"y": 1.9504220966,
				"z": -2.2643617725,
				"element": "H" 
			},
			{
				"x": 1.2692556223,
				"y": 1.8322422593,
				"z": -0.7007611927,
				"element": "H" 
			},
			{
				"x": -0.6575067372,
				"y": 3.2283897121,
				"z": -1.5988679942,
				"element": "H" 
			},
			{
				"x": 0.1547699574,
				"y": 3.3023412576,
				"z": -3.1609658039,
				"element": "H" 
			},
			{
				"x": 1.2124325628,
				"y": 4.3426865679,
				"z": -0.7616327133,
				"element": "H" 
			},
			{
				"x": 0.6706955823,
				"y": 1.2087557018,
				"z": -4.2117201176,
				"element": "H" 
			},
			{
				"x": -0.2823500558,
				"y": -0.2443320157,
				"z": -3.9662068387,
				"element": "H" 
			},
			{
				"x": 2.7183735183,
				"y": -0.054873908,
				"z": -3.4074460397,
				"element": "H" 
			},
			{
				"x": 2.0170732333,
				"y": -0.5599293352,
				"z": -4.9593646416,
				"element": "H" 
			},
			{
				"x": 2.4792710668,
				"y": -2.3285650475,
				"z": -3.3959624224,
				"element": "H" 
			},
			{
				"x": -0.9027854917,
				"y": 3.8115520564,
				"z": 2.4251022819,
				"element": "H" 
			},
			{
				"x": 1.5292839548,
				"y": 4.3779288977,
				"z": 2.7308086302,
				"element": "H" 
			},
			{
				"x": 2.4453125006,
				"y": 0.2132914684,
				"z": 3.1531610288,
				"element": "H" 
			},
			{
				"x": 0.0400226838,
				"y": -0.3683672949,
				"z": 2.7821268473,
				"element": "H" 
			}
		],
		 "valence_orbital": [ 
			{
				"type": "occ",
				"energy": -0.28303,
				"method": "rhf"
			},
			{
				"type": "occ",
				"energy": -0.27463,
				"method": "rhf"
			},
			{
				"type": "occ",
				"energy": -0.25982,
				"method": "rhf"
			},
			{
				"type": "occ",
				"energy": -0.2223,
				"method": "rhf"
			},
			{
				"type": "occ",
				"energy": -0.19717,
				"method": "rhf"
			},
			{
				"type": "unocc",
				"energy": -0.09936,
				"method": "rhf"
			},
			{
				"type": "unocc",
				"energy": -0.07066,
				"method": "rhf"
			},
			{
				"type": "unocc",
				"energy": -0.03407,
				"method": "rhf"
			},
			{
				"type": "unocc",
				"energy": -0.00524,
				"method": "rhf"
			},
			{
				"type": "unocc",
				"energy": 0.00897,
				"method": "rhf"
			}
		],
		"cosmo_sigma_profile": { 
			"-0.025": 0.0,
			"-0.024": 0.0,
			"-0.023": 0.0,
			"-0.022": 0.0,
			"-0.021": 0.0,
			"-0.02": 0.0,
			"-0.019": 0.0,
			"-0.018": 0.0,
			"-0.017": 0.00846852915207,
			"-0.016": 0.615694938824,
			"-0.015": 1.00720940852,
			"-0.014": 1.39485362249,
			"-0.013": 0.602838598064,
			"-0.012": 1.46800306932,
			"-0.011": 1.74626567859,
			"-0.01": 1.74134982704,
			"-0.009": 2.9067509972,
			"-0.008": 6.93054225708,
			"-0.007": 11.370549745,
			"-0.006": 18.709621413,
			"-0.005": 26.107037794,
			"-0.004": 33.3735886647,
			"-0.003": 36.9927203418,
			"-0.002": 31.0393825573,
			"-0.001": 31.2669342744,
			"0.0": 26.5017967169,
			"0.001": 23.3778937589,
			"0.002": 16.3865872865,
			"0.003": 15.5064914217,
			"0.004": 14.5611841062,
			"0.005": 15.2297029088,
			"0.006": 9.42591771482,
			"0.007": 12.4744561347,
			"0.008": 12.8033868271,
			"0.009": 9.51231776644,
			"0.01": 9.28618895792,
			"0.011": 6.00651480557,
			"0.012": 3.04888552402,
			"0.013": 3.3308610426,
			"0.014": 2.14249140177,
			"0.015": 0.457892895493,
			"0.016": 0.0,
			"0.017": 0.0,
			"0.018": 0.0,
			"0.019": 0.0,
			"0.02": 0.0,
			"0.021": 0.0,
			"0.022": 0.0,
			"0.023": 0.0,
			"0.024": 0.0,
			"0.025": 0.0
		}
	}
}
