{
	 "smiles": "CC1=CC=C(C=C1)S(=O)(=O)NC(=O)NN1CCCCCC1", 
	 "Tm": 443.15, 
	 "num_atms": 42, 
	 "gaussian": { 
		 "optdone": 1, 
		 "sigma_profile": "yes", 
		 "theory": "DFT", 
		 "functional": "B3LYP", 
		 "basiset": "6-31G**", 
		 "properties": { 
			 "R2extent": 9399.2308, 
			 "electric_dipole_moment_norm": 7.6045405831, 
			 "electric_quadrupole_moment_norm": 28.7563961259, 
			 "total_energy": -1334.18400106, 
			 "HOMO_LUMO_gap": 0.19741, 
			 "cosmo_polarized_energy": -18.47, 
			 "cosmo_cavitation_energy": 43.04, 
			 "cosmo_dispersion_energy": -29.7, 
			 "cosmo_repulsion_energy": 2.24, 
			 "cosmo_total_nonelectrostatic_energy": 15.58, 
			 "SMD_solvation_energy": 6.97 
		},
		"coords": [
			{
				"x": -3.0892154351,
				"y": 2.3204129494,
				"z": -2.7295099887,
				"element": "C" 
			},
			{
				"x": -3.2032200525,
				"y": 1.1932042545,
				"z": -1.731620436,
				"element": "C" 
			},
			{
				"x": -3.535387504,
				"y": 1.456957691,
				"z": -0.3927868427,
				"element": "C" 
			},
			{
				"x": -3.634434526,
				"y": 0.4302166477,
				"z": 0.5414121219,
				"element": "C" 
			},
			{
				"x": -3.3795789536,
				"y": -0.882710863,
				"z": 0.1383628172,
				"element": "C" 
			},
			{
				"x": -3.0599612665,
				"y": -1.1768104663,
				"z": -1.185359442,
				"element": "C" 
			},
			{
				"x": -2.9724232681,
				"y": -0.1352596643,
				"z": -2.1100806127,
				"element": "C" 
			},
			{
				"x": -3.6405369055,
				"y": -2.2364291726,
				"z": 1.2790987079,
				"element": "S" 
			},
			{
				"x": -3.0317841655,
				"y": -3.4452876295,
				"z": 0.7233561084,
				"element": "O" 
			},
			{
				"x": -5.0510226262,
				"y": -2.2250537005,
				"z": 1.6791155219,
				"element": "O" 
			},
			{
				"x": -2.8540310862,
				"y": -1.7563245287,
				"z": 2.7258762517,
				"element": "N" 
			},
			{
				"x": -1.6161779456,
				"y": -2.1846905209,
				"z": 3.2716654642,
				"element": "C" 
			},
			{
				"x": -1.535127295,
				"y": -2.4110129616,
				"z": 4.4679455604,
				"element": "O" 
			},
			{
				"x": -0.5395948795,
				"y": -2.2802476159,
				"z": 2.4325378752,
				"element": "N" 
			},
			{
				"x": -0.5070016429,
				"y": -1.6918292892,
				"z": 1.1683116505,
				"element": "N" 
			},
			{
				"x": 0.0547943899,
				"y": -0.332628872,
				"z": 1.1594698961,
				"element": "C" 
			},
			{
				"x": 1.4185496811,
				"y": -0.0995941351,
				"z": 1.8453285366,
				"element": "C" 
			},
			{
				"x": 2.5238106503,
				"y": -1.1553717411,
				"z": 1.609239915,
				"element": "C" 
			},
			{
				"x": 2.4979595141,
				"y": -1.9014539733,
				"z": 0.2628284045,
				"element": "C" 
			},
			{
				"x": 1.4608252696,
				"y": -3.0366804181,
				"z": 0.2071324343,
				"element": "C" 
			},
			{
				"x": -0.0097101169,
				"y": -2.5993896016,
				"z": 0.12353823,
				"element": "C" 
			},
			{
				"x": -3.9347942784,
				"y": 3.011070852,
				"z": -2.6480858264,
				"element": "H" 
			},
			{
				"x": -2.177537982,
				"y": 2.9064147937,
				"z": -2.5607537271,
				"element": "H" 
			},
			{
				"x": -3.0558028275,
				"y": 1.9451628974,
				"z": -3.7556797653,
				"element": "H" 
			},
			{
				"x": -3.7273481266,
				"y": 2.480280283,
				"z": -0.0806616661,
				"element": "H" 
			},
			{
				"x": -3.8993518646,
				"y": 0.6453497083,
				"z": 1.5710676833,
				"element": "H" 
			},
			{
				"x": -2.8829660792,
				"y": -2.2050577659,
				"z": -1.4795506453,
				"element": "H" 
			},
			{
				"x": -2.7250353186,
				"y": -0.3616550286,
				"z": -3.1437749568,
				"element": "H" 
			},
			{
				"x": -3.5531139702,
				"y": -1.7792736464,
				"z": 3.464572328,
				"element": "H" 
			},
			{
				"x": 0.3273997046,
				"y": -2.4505248576,
				"z": 2.9358274887,
				"element": "H" 
			},
			{
				"x": -0.6820961724,
				"y": 0.3366107941,
				"z": 1.6197543982,
				"element": "H" 
			},
			{
				"x": 0.1119083856,
				"y": -0.0475090647,
				"z": 0.1044514402,
				"element": "H" 
			},
			{
				"x": 1.2677471561,
				"y": 0.0122371149,
				"z": 2.9255572772,
				"element": "H" 
			},
			{
				"x": 1.7685188414,
				"y": 0.8805488741,
				"z": 1.4971772126,
				"element": "H" 
			},
			{
				"x": 2.4894198571,
				"y": -1.9104526078,
				"z": 2.4079012532,
				"element": "H" 
			},
			{
				"x": 3.4939588527,
				"y": -0.6596705612,
				"z": 1.7312572179,
				"element": "H" 
			},
			{
				"x": 2.3355812557,
				"y": -1.1966142834,
				"z": -0.5650302659,
				"element": "H" 
			},
			{
				"x": 3.4901797999,
				"y": -2.3372656098,
				"z": 0.0947257597,
				"element": "H" 
			},
			{
				"x": 1.6020286255,
				"y": -3.6885342602,
				"z": 1.080809867,
				"element": "H" 
			},
			{
				"x": 1.6560567539,
				"y": -3.6700065735,
				"z": -0.6681898134,
				"element": "H" 
			},
			{
				"x": -0.1805480225,
				"y": -2.0808561339,
				"z": -0.8276516624,
				"element": "H" 
			},
			{
				"x": -0.6621364261,
				"y": -3.4755713131,
				"z": 0.1357142289,
				"element": "H" 
			}
		],
		 "valence_orbital": [ 
			{
				"type": "occ",
				"energy": -0.27467,
				"method": "rhf"
			},
			{
				"type": "occ",
				"energy": -0.27198,
				"method": "rhf"
			},
			{
				"type": "occ",
				"energy": -0.26306,
				"method": "rhf"
			},
			{
				"type": "occ",
				"energy": -0.25862,
				"method": "rhf"
			},
			{
				"type": "occ",
				"energy": -0.23455,
				"method": "rhf"
			},
			{
				"type": "unocc",
				"energy": -0.03714,
				"method": "rhf"
			},
			{
				"type": "unocc",
				"energy": -0.02333,
				"method": "rhf"
			},
			{
				"type": "unocc",
				"energy": 0.02123,
				"method": "rhf"
			},
			{
				"type": "unocc",
				"energy": 0.0496,
				"method": "rhf"
			},
			{
				"type": "unocc",
				"energy": 0.06013,
				"method": "rhf"
			}
		],
		"cosmo_sigma_profile": { 
			"-0.025": 0.0,
			"-0.024": 0.0,
			"-0.023": 0.0,
			"-0.022": 0.0,
			"-0.021": 0.0,
			"-0.02": 0.0,
			"-0.019": 0.0,
			"-0.018": 0.0,
			"-0.017": 0.0,
			"-0.016": 0.0,
			"-0.015": 0.0651199763675,
			"-0.014": 0.576831042418,
			"-0.013": 0.736616837727,
			"-0.012": 1.04507642718,
			"-0.011": 1.40574508305,
			"-0.01": 1.57697182476,
			"-0.009": 2.88699841836,
			"-0.008": 2.49833584514,
			"-0.007": 5.19636311185,
			"-0.006": 12.267720574,
			"-0.005": 15.1743781935,
			"-0.004": 21.1421551547,
			"-0.003": 35.2780868884,
			"-0.002": 42.8999052938,
			"-0.001": 42.8450239854,
			"0.0": 37.1756755084,
			"0.001": 24.4103968367,
			"0.002": 16.8727814232,
			"0.003": 15.3543601982,
			"0.004": 6.29206746822,
			"0.005": 4.59577903869,
			"0.006": 4.0787461696,
			"0.007": 3.77099169027,
			"0.008": 4.1592071242,
			"0.009": 6.23165014383,
			"0.01": 8.40068161737,
			"0.011": 9.39416774586,
			"0.012": 4.94146816313,
			"0.013": 5.09844964035,
			"0.014": 0.319244254273,
			"0.015": 0.0,
			"0.016": 0.0,
			"0.017": 0.0,
			"0.018": 0.0,
			"0.019": 0.0,
			"0.02": 0.0,
			"0.021": 0.0,
			"0.022": 0.0,
			"0.023": 0.0,
			"0.024": 0.0,
			"0.025": 0.0
		}
	}
}
