{
	 "smiles": "CC1=CC=C(C=C1)C1=NN=C(N)N1", 
	 "Tm": 480.15, 
	 "num_atms": 23, 
	 "gaussian": { 
		 "optdone": 1, 
		 "sigma_profile": "yes", 
		 "theory": "DFT", 
		 "functional": "B3LYP", 
		 "basiset": "6-31G**", 
		 "properties": { 
			 "R2extent": 4309.641, 
			 "electric_dipole_moment_norm": 4.94331016526, 
			 "electric_quadrupole_moment_norm": 19.5000859708, 
			 "total_energy": -567.985550043, 
			 "HOMO_LUMO_gap": 0.17708, 
			 "cosmo_polarized_energy": -22.89, 
			 "cosmo_cavitation_energy": 27.44, 
			 "cosmo_dispersion_energy": -20.43, 
			 "cosmo_repulsion_energy": 1.61, 
			 "cosmo_total_nonelectrostatic_energy": 8.62, 
			 "SMD_solvation_energy": 2.52 
		},
		"coords": [
			{
				"x": 1.0944502969,
				"y": -4.8782093537,
				"z": 0.8979920755,
				"element": "C" 
			},
			{
				"x": 0.6278008106,
				"y": -3.4622710851,
				"z": 1.1368829432,
				"element": "C" 
			},
			{
				"x": 0.8837772063,
				"y": -2.45202331,
				"z": 0.1947684708,
				"element": "C" 
			},
			{
				"x": 0.4768109974,
				"y": -1.1418782588,
				"z": 0.4091399285,
				"element": "C" 
			},
			{
				"x": -0.2120041054,
				"y": -0.7925941373,
				"z": 1.5846081621,
				"element": "C" 
			},
			{
				"x": -0.4781858997,
				"y": -1.7970498599,
				"z": 2.5254064983,
				"element": "C" 
			},
			{
				"x": -0.0616161509,
				"y": -3.1092261923,
				"z": 2.3017708721,
				"element": "C" 
			},
			{
				"x": -0.6266432702,
				"y": 0.5960779699,
				"z": 1.7802080945,
				"element": "C" 
			},
			{
				"x": -0.5593083701,
				"y": 1.5557762089,
				"z": 0.8839784294,
				"element": "N" 
			},
			{
				"x": -1.0610183399,
				"y": 2.7147170351,
				"z": 1.4474628154,
				"element": "N" 
			},
			{
				"x": -1.4056161883,
				"y": 2.4255372201,
				"z": 2.6813747783,
				"element": "C" 
			},
			{
				"x": -1.8759698315,
				"y": 3.3165003134,
				"z": 3.6383802417,
				"element": "N" 
			},
			{
				"x": -1.1678437803,
				"y": 1.1040857668,
				"z": 2.9494638171,
				"element": "N" 
			},
			{
				"x": 0.6761949627,
				"y": -5.5679657043,
				"z": 1.6363625372,
				"element": "H" 
			},
			{
				"x": 2.1872596774,
				"y": -4.9520736303,
				"z": 0.9572656954,
				"element": "H" 
			},
			{
				"x": 0.8033736573,
				"y": -5.2322504709,
				"z": -0.0970259578,
				"element": "H" 
			},
			{
				"x": 1.4138164529,
				"y": -2.7000245798,
				"z": -0.721794879,
				"element": "H" 
			},
			{
				"x": 0.6798582121,
				"y": -0.3669855603,
				"z": -0.3221151677,
				"element": "H" 
			},
			{
				"x": -1.0297147437,
				"y": -1.5715904891,
				"z": 3.4348871988,
				"element": "H" 
			},
			{
				"x": -0.2821050821,
				"y": -3.8715025096,
				"z": 3.0447688848,
				"element": "H" 
			},
			{
				"x": -1.957585451,
				"y": 4.2405032921,
				"z": 3.2284736911,
				"element": "H" 
			},
			{
				"x": -2.7599197412,
				"y": 3.0419389044,
				"z": 4.0549382946,
				"element": "H" 
			},
			{
				"x": -1.2092113193,
				"y": 0.6601084306,
				"z": 3.8533025755,
				"element": "H" 
			}
		],
		 "valence_orbital": [ 
			{
				"type": "occ",
				"energy": -0.29411,
				"method": "rhf"
			},
			{
				"type": "occ",
				"energy": -0.26188,
				"method": "rhf"
			},
			{
				"type": "occ",
				"energy": -0.25321,
				"method": "rhf"
			},
			{
				"type": "occ",
				"energy": -0.2448,
				"method": "rhf"
			},
			{
				"type": "occ",
				"energy": -0.20514,
				"method": "rhf"
			},
			{
				"type": "unocc",
				"energy": -0.02806,
				"method": "rhf"
			},
			{
				"type": "unocc",
				"energy": -0.00351,
				"method": "rhf"
			},
			{
				"type": "unocc",
				"energy": 0.04995,
				"method": "rhf"
			},
			{
				"type": "unocc",
				"energy": 0.0561,
				"method": "rhf"
			},
			{
				"type": "unocc",
				"energy": 0.0757,
				"method": "rhf"
			}
		],
		"cosmo_sigma_profile": { 
			"-0.025": 0.0,
			"-0.024": 0.0,
			"-0.023": 0.0,
			"-0.022": 0.0,
			"-0.021": 0.0,
			"-0.02": 0.0,
			"-0.019": 0.0,
			"-0.018": 0.00256737130488,
			"-0.017": 0.582716491517,
			"-0.016": 1.27396101269,
			"-0.015": 1.10320371181,
			"-0.014": 2.73215427216,
			"-0.013": 4.90761698469,
			"-0.012": 4.91587883201,
			"-0.011": 4.53773356114,
			"-0.01": 2.7200746422,
			"-0.009": 3.44549221483,
			"-0.008": 2.63350031388,
			"-0.007": 2.82359032833,
			"-0.006": 5.10648218888,
			"-0.005": 10.4397230785,
			"-0.004": 14.2591336582,
			"-0.003": 15.2862042763,
			"-0.002": 14.2428978785,
			"-0.001": 13.0464371718,
			"0.0": 17.5590682551,
			"0.001": 13.8711342789,
			"0.002": 10.4643712907,
			"0.003": 12.9819085756,
			"0.004": 12.2609562013,
			"0.005": 12.803718224,
			"0.006": 3.79020294279,
			"0.007": 2.17153454486,
			"0.008": 2.75915398326,
			"0.009": 3.13559009969,
			"0.01": 2.4436650907,
			"0.011": 2.54726479936,
			"0.012": 2.85839550131,
			"0.013": 2.8021242941,
			"0.014": 3.85021711398,
			"0.015": 3.14842403651,
			"0.016": 2.9995819206,
			"0.017": 1.49035303554,
			"0.018": 0.343379635787,
			"0.019": 0.0,
			"0.02": 0.0,
			"0.021": 0.0,
			"0.022": 0.0,
			"0.023": 0.0,
			"0.024": 0.0,
			"0.025": 0.0
		}
	}
}
