{
	 "smiles": "ClC1=C(C=CC=N1)C1=CC=C(Br)C=N1", 
	 "Tm": 405.15, 
	 "num_atms": 20, 
	 "gaussian": { 
		 "optdone": 1, 
		 "sigma_profile": "yes", 
		 "theory": "DFT", 
		 "functional": "B3LYP", 
		 "basiset": "6-31G**", 
		 "properties": { 
			 "R2extent": 7284.3559, 
			 "electric_dipole_moment_norm": 2.36272782605, 
			 "electric_quadrupole_moment_norm": 16.9606389213, 
			 "total_energy": -3525.7713625, 
			 "HOMO_LUMO_gap": 0.18309, 
			 "cosmo_polarized_energy": -8.36, 
			 "cosmo_cavitation_energy": 28.92, 
			 "cosmo_dispersion_energy": -21.95, 
			 "cosmo_repulsion_energy": 1.72, 
			 "cosmo_total_nonelectrostatic_energy": 8.69, 
			 "SMD_solvation_energy": 1.15 
		},
		"coords": [
			{
				"x": 3.8530155846,
				"y": 2.7670416776,
				"z": 0.5544882455,
				"element": "Cl" 
			},
			{
				"x": 2.897287919,
				"y": 1.7584455361,
				"z": 1.6522379468,
				"element": "C" 
			},
			{
				"x": 1.6372038198,
				"y": 1.2565625919,
				"z": 1.2654944368,
				"element": "C" 
			},
			{
				"x": 0.9391229048,
				"y": 0.5613263078,
				"z": 2.2661181691,
				"element": "C" 
			},
			{
				"x": 1.502304789,
				"y": 0.3661049408,
				"z": 3.5221824109,
				"element": "C" 
			},
			{
				"x": 2.7720933626,
				"y": 0.8863254546,
				"z": 3.758120369,
				"element": "C" 
			},
			{
				"x": 3.449798114,
				"y": 1.5819619097,
				"z": 2.8376650344,
				"element": "N" 
			},
			{
				"x": 0.9849234516,
				"y": 1.4109999186,
				"z": -0.0646978166,
				"element": "C" 
			},
			{
				"x": 1.6806147401,
				"y": 1.3162352542,
				"z": -1.279842743,
				"element": "C" 
			},
			{
				"x": 0.9776419008,
				"y": 1.4230974852,
				"z": -2.4763886855,
				"element": "C" 
			},
			{
				"x": -0.3990447428,
				"y": 1.6190640842,
				"z": -2.4186694439,
				"element": "C" 
			},
			{
				"x": -1.4297350126,
				"y": 1.7854239924,
				"z": -4.0100899066,
				"element": "Br" 
			},
			{
				"x": -1.0251632589,
				"y": 1.6811222,
				"z": -1.1728098833,
				"element": "C" 
			},
			{
				"x": -0.35103229,
				"y": 1.5746012653,
				"z": -0.0282063862,
				"element": "N" 
			},
			{
				"x": -0.0499855437,
				"y": 0.185399771,
				"z": 2.0288450925,
				"element": "H" 
			},
			{
				"x": 0.9723812134,
				"y": -0.1776202172,
				"z": 4.2970410955,
				"element": "H" 
			},
			{
				"x": 3.2684873977,
				"y": 0.7546134611,
				"z": 4.7167976072,
				"element": "H" 
			},
			{
				"x": 2.750098102,
				"y": 1.1507707126,
				"z": -1.294295761,
				"element": "H" 
			},
			{
				"x": 1.4875786882,
				"y": 1.3495612178,
				"z": -3.4304593295,
				"element": "H" 
			},
			{
				"x": -2.1009911393,
				"y": 1.8196624366,
				"z": -1.1022304522,
				"element": "H" 
			}
		],
		 "valence_orbital": [ 
			{
				"type": "occ",
				"energy": -0.29647,
				"method": "rhf"
			},
			{
				"type": "occ",
				"energy": -0.27969,
				"method": "rhf"
			},
			{
				"type": "occ",
				"energy": -0.27425,
				"method": "rhf"
			},
			{
				"type": "occ",
				"energy": -0.27253,
				"method": "rhf"
			},
			{
				"type": "occ",
				"energy": -0.246,
				"method": "rhf"
			},
			{
				"type": "unocc",
				"energy": -0.06291,
				"method": "rhf"
			},
			{
				"type": "unocc",
				"energy": -0.03965,
				"method": "rhf"
			},
			{
				"type": "unocc",
				"energy": -0.03519,
				"method": "rhf"
			},
			{
				"type": "unocc",
				"energy": -0.00413,
				"method": "rhf"
			},
			{
				"type": "unocc",
				"energy": -0.00303,
				"method": "rhf"
			}
		],
		"cosmo_sigma_profile": { 
			"-0.025": 0.0,
			"-0.024": 0.0,
			"-0.023": 0.0,
			"-0.022": 0.0,
			"-0.021": 0.0,
			"-0.02": 0.0,
			"-0.019": 0.0,
			"-0.018": 0.0,
			"-0.017": 0.0,
			"-0.016": 0.0,
			"-0.015": 0.0,
			"-0.014": 0.0,
			"-0.013": 0.0,
			"-0.012": 0.0,
			"-0.011": 0.0,
			"-0.01": 0.0,
			"-0.009": 0.593185172597,
			"-0.008": 4.81502637201,
			"-0.007": 11.615680292,
			"-0.006": 13.3278783574,
			"-0.005": 10.5523225725,
			"-0.004": 10.6776790721,
			"-0.003": 10.7834789595,
			"-0.002": 14.7783248363,
			"-0.001": 25.2124347966,
			"0.0": 31.9371664221,
			"0.001": 27.9836433173,
			"0.002": 16.1504004594,
			"0.003": 17.8118591912,
			"0.004": 18.2267652986,
			"0.005": 6.57377274923,
			"0.006": 4.25673849291,
			"0.007": 2.47351162719,
			"0.008": 2.44196844827,
			"0.009": 1.76770633554,
			"0.01": 1.98384388172,
			"0.011": 1.72379808355,
			"0.012": 1.76111064389,
			"0.013": 1.27300621957,
			"0.014": 0.722734513692,
			"0.015": 0.157178362901,
			"0.016": 0.0,
			"0.017": 0.0,
			"0.018": 0.0,
			"0.019": 0.0,
			"0.02": 0.0,
			"0.021": 0.0,
			"0.022": 0.0,
			"0.023": 0.0,
			"0.024": 0.0,
			"0.025": 0.0
		}
	}
}
