{
	 "smiles": "OC(=O)CC1=C(Cl)C=C(C=C1)[N+]([O-])=O", 
	 "Tm": 431.15, 
	 "num_atms": 20, 
	 "gaussian": { 
		 "optdone": 1, 
		 "sigma_profile": "yes", 
		 "theory": "DFT", 
		 "functional": "B3LYP", 
		 "basiset": "6-31G**", 
		 "properties": { 
			 "R2extent": 3655.9795, 
			 "electric_dipole_moment_norm": 5.16280868811, 
			 "electric_quadrupole_moment_norm": 6.56503029391, 
			 "total_energy": -1124.22080161, 
			 "HOMO_LUMO_gap": 0.17522, 
			 "cosmo_polarized_energy": -14.91, 
			 "cosmo_cavitation_energy": 27.88, 
			 "cosmo_dispersion_energy": -19.95, 
			 "cosmo_repulsion_energy": 1.58, 
			 "cosmo_total_nonelectrostatic_energy": 9.52, 
			 "SMD_solvation_energy": 7.95 
		},
		"coords": [
			{
				"x": 3.0263621046,
				"y": -3.626467489,
				"z": -0.172294418,
				"element": "O" 
			},
			{
				"x": 2.0306063041,
				"y": -2.7535290541,
				"z": -0.4482915427,
				"element": "C" 
			},
			{
				"x": 1.6447111543,
				"y": -2.5169058967,
				"z": -1.5681667846,
				"element": "O" 
			},
			{
				"x": 1.4748656859,
				"y": -2.1580141353,
				"z": 0.8400394245,
				"element": "C" 
			},
			{
				"x": 0.4716467921,
				"y": -1.0605339029,
				"z": 0.6009275797,
				"element": "C" 
			},
			{
				"x": 0.8603615077,
				"y": 0.245463645,
				"z": 0.2560438257,
				"element": "C" 
			},
			{
				"x": 2.5613419318,
				"y": 0.6451326211,
				"z": 0.0921541472,
				"element": "Cl" 
			},
			{
				"x": -0.0701152698,
				"y": 1.2562693248,
				"z": 0.0384446314,
				"element": "C" 
			},
			{
				"x": -1.4199867019,
				"y": 0.9450765588,
				"z": 0.1690454498,
				"element": "C" 
			},
			{
				"x": -1.8574088754,
				"y": -0.3315735014,
				"z": 0.5071389015,
				"element": "C" 
			},
			{
				"x": -0.9008098686,
				"y": -1.3187492185,
				"z": 0.7201669152,
				"element": "C" 
			},
			{
				"x": -2.4133393255,
				"y": 2.0094417359,
				"z": -0.0564297963,
				"element": "N" 
			},
			{
				"x": -3.600029768,
				"y": 1.7115740998,
				"z": 0.0673000377,
				"element": "O" 
			},
			{
				"x": -1.9938268504,
				"y": 3.1267511376,
				"z": -0.3523171193,
				"element": "O" 
			},
			{
				"x": 3.3255099983,
				"y": -3.9793375996,
				"z": -1.027313892,
				"element": "H" 
			},
			{
				"x": 2.3208004575,
				"y": -1.8076399807,
				"z": 1.4392183775,
				"element": "H" 
			},
			{
				"x": 1.0153415656,
				"y": -2.977377377,
				"z": 1.4036275264,
				"element": "H" 
			},
			{
				"x": 0.2328212191,
				"y": 2.2606794313,
				"z": -0.2255668755,
				"element": "H" 
			},
			{
				"x": -2.9174810708,
				"y": -0.5298051905,
				"z": 0.5981129748,
				"element": "H" 
			},
			{
				"x": -1.2225709904,
				"y": -2.3215552086,
				"z": 0.984660637,
				"element": "H" 
			}
		],
		 "valence_orbital": [ 
			{
				"type": "occ",
				"energy": -0.31327,
				"method": "rhf"
			},
			{
				"type": "occ",
				"energy": -0.29816,
				"method": "rhf"
			},
			{
				"type": "occ",
				"energy": -0.29522,
				"method": "rhf"
			},
			{
				"type": "occ",
				"energy": -0.28737,
				"method": "rhf"
			},
			{
				"type": "occ",
				"energy": -0.27261,
				"method": "rhf"
			},
			{
				"type": "unocc",
				"energy": -0.09739,
				"method": "rhf"
			},
			{
				"type": "unocc",
				"energy": -0.04036,
				"method": "rhf"
			},
			{
				"type": "unocc",
				"energy": -0.01263,
				"method": "rhf"
			},
			{
				"type": "unocc",
				"energy": -0.00455,
				"method": "rhf"
			},
			{
				"type": "unocc",
				"energy": 0.01052,
				"method": "rhf"
			}
		],
		"cosmo_sigma_profile": { 
			"-0.025": 0.0,
			"-0.024": 0.0,
			"-0.023": 0.0,
			"-0.022": 0.0,
			"-0.021": 0.0,
			"-0.02": 0.0,
			"-0.019": 0.213647429396,
			"-0.018": 0.994232456396,
			"-0.017": 0.728023445564,
			"-0.016": 1.24203948068,
			"-0.015": 0.906759777211,
			"-0.014": 0.553948644349,
			"-0.013": 0.0230978489227,
			"-0.012": 0.566717236027,
			"-0.011": 1.23013754379,
			"-0.01": 0.899550484606,
			"-0.009": 4.10702732331,
			"-0.008": 8.23003537992,
			"-0.007": 9.76410699699,
			"-0.006": 10.1057263738,
			"-0.005": 10.3595639672,
			"-0.004": 11.3017523982,
			"-0.003": 13.0788097469,
			"-0.002": 16.1806322448,
			"-0.001": 18.1299762202,
			"0.0": 18.8016934131,
			"0.001": 12.7205798832,
			"0.002": 10.5740831656,
			"0.003": 11.4787465917,
			"0.004": 11.0094460097,
			"0.005": 6.11370541724,
			"0.006": 6.79082285579,
			"0.007": 12.6524134739,
			"0.008": 8.88667178158,
			"0.009": 7.23046688659,
			"0.01": 3.6535951027,
			"0.011": 5.01068921024,
			"0.012": 1.78459358236,
			"0.013": 0.0,
			"0.014": 0.0,
			"0.015": 0.0,
			"0.016": 0.0,
			"0.017": 0.0,
			"0.018": 0.0,
			"0.019": 0.0,
			"0.02": 0.0,
			"0.021": 0.0,
			"0.022": 0.0,
			"0.023": 0.0,
			"0.024": 0.0,
			"0.025": 0.0
		}
	}
}
