{
	 "smiles": "ClCC(=O)NC1=C(C(=O)C2=CC=CC=C2)C2=C(CCCC2)S1", 
	 "Tm": 384.15, 
	 "num_atms": 38, 
	 "gaussian": { 
		 "optdone": 1, 
		 "sigma_profile": "yes", 
		 "theory": "DFT", 
		 "functional": "B3LYP", 
		 "basiset": "6-31G**", 
		 "properties": { 
			 "R2extent": 8679.5357, 
			 "electric_dipole_moment_norm": 6.50566799875, 
			 "electric_quadrupole_moment_norm": 25.8736981993, 
			 "total_energy": -1721.04180096, 
			 "HOMO_LUMO_gap": 0.16172, 
			 "cosmo_polarized_energy": -17.41, 
			 "cosmo_cavitation_energy": 44.23, 
			 "cosmo_dispersion_energy": -30.34, 
			 "cosmo_repulsion_energy": 2.34, 
			 "cosmo_total_nonelectrostatic_energy": 16.24, 
			 "SMD_solvation_energy": 7.05 
		},
		"coords": [
			{
				"x": 4.006079613,
				"y": -1.4437717432,
				"z": 3.1657785482,
				"element": "Cl" 
			},
			{
				"x": 2.4354181042,
				"y": -0.8251171346,
				"z": 2.572500036,
				"element": "C" 
			},
			{
				"x": 2.4121146851,
				"y": 0.7060361678,
				"z": 2.4954026073,
				"element": "C" 
			},
			{
				"x": 3.3693844358,
				"y": 1.4235947014,
				"z": 2.6936721378,
				"element": "O" 
			},
			{
				"x": 1.1737955601,
				"y": 1.2427227031,
				"z": 2.1605462773,
				"element": "N" 
			},
			{
				"x": -0.0247387397,
				"y": 0.5466000101,
				"z": 1.9305264137,
				"element": "C" 
			},
			{
				"x": -0.4066975203,
				"y": -0.1281908693,
				"z": 0.7944729145,
				"element": "C" 
			},
			{
				"x": 0.4531193766,
				"y": -0.2427236731,
				"z": -0.4342187829,
				"element": "C" 
			},
			{
				"x": 0.793250807,
				"y": -1.3582310378,
				"z": -0.816416771,
				"element": "O" 
			},
			{
				"x": 0.867114906,
				"y": 0.9874969949,
				"z": -1.1693001177,
				"element": "C" 
			},
			{
				"x": 0.2726540533,
				"y": 2.2375666995,
				"z": -0.9370072312,
				"element": "C" 
			},
			{
				"x": 0.6713543727,
				"y": 3.3516521886,
				"z": -1.6741313326,
				"element": "C" 
			},
			{
				"x": 1.6702601162,
				"y": 3.2269338762,
				"z": -2.6422946012,
				"element": "C" 
			},
			{
				"x": 2.2640772032,
				"y": 1.983438743,
				"z": -2.8822704606,
				"element": "C" 
			},
			{
				"x": 1.8601851959,
				"y": 0.8682809879,
				"z": -2.1555749994,
				"element": "C" 
			},
			{
				"x": -1.663013563,
				"y": -0.8171662629,
				"z": 0.9457076254,
				"element": "C" 
			},
			{
				"x": -2.2312397684,
				"y": -0.6156470452,
				"z": 2.1779839623,
				"element": "C" 
			},
			{
				"x": -3.5562918491,
				"y": -1.171950648,
				"z": 2.6278036767,
				"element": "C" 
			},
			{
				"x": -4.360726516,
				"y": -1.6775498488,
				"z": 1.4156788312,
				"element": "C" 
			},
			{
				"x": -3.4767038052,
				"y": -2.4999485076,
				"z": 0.4672691664,
				"element": "C" 
			},
			{
				"x": -2.3360282772,
				"y": -1.6516692241,
				"z": -0.1201394107,
				"element": "C" 
			},
			{
				"x": -1.2217357798,
				"y": 0.3657031488,
				"z": 3.2070425497,
				"element": "S" 
			},
			{
				"x": 1.6552881276,
				"y": -1.1821633014,
				"z": 3.2476999253,
				"element": "H" 
			},
			{
				"x": 2.2539547782,
				"y": -1.2602225557,
				"z": 1.5876318256,
				"element": "H" 
			},
			{
				"x": 1.1774808998,
				"y": 2.2561904406,
				"z": 2.1338469476,
				"element": "H" 
			},
			{
				"x": -0.5121028011,
				"y": 2.3303304988,
				"z": -0.192876536,
				"element": "H" 
			},
			{
				"x": 0.2033236689,
				"y": 4.3152211626,
				"z": -1.4957711936,
				"element": "H" 
			},
			{
				"x": 1.984864467,
				"y": 4.0970536979,
				"z": -3.2113593738,
				"element": "H" 
			},
			{
				"x": 3.0402313971,
				"y": 1.888092628,
				"z": -3.6356976659,
				"element": "H" 
			},
			{
				"x": 2.3002696045,
				"y": -0.1079750868,
				"z": -2.3290678084,
				"element": "H" 
			},
			{
				"x": -4.1277618098,
				"y": -0.414073643,
				"z": 3.1766864748,
				"element": "H" 
			},
			{
				"x": -3.3881995251,
				"y": -1.9984715395,
				"z": 3.3327764907,
				"element": "H" 
			},
			{
				"x": -4.7760498909,
				"y": -0.8187421611,
				"z": 0.8725088662,
				"element": "H" 
			},
			{
				"x": -5.2108222738,
				"y": -2.2730965076,
				"z": 1.7655776894,
				"element": "H" 
			},
			{
				"x": -4.0779934199,
				"y": -2.9214268479,
				"z": -0.3453294537,
				"element": "H" 
			},
			{
				"x": -3.0512469212,
				"y": -3.3493770196,
				"z": 1.0176668944,
				"element": "H" 
			},
			{
				"x": -1.5917176294,
				"y": -2.2887228171,
				"z": -0.607297982,
				"element": "H" 
			},
			{
				"x": -2.7330512823,
				"y": -0.9903771746,
				"z": -0.9043261402,
				"element": "H" 
			}
		],
		 "valence_orbital": [ 
			{
				"type": "occ",
				"energy": -0.26802,
				"method": "rhf"
			},
			{
				"type": "occ",
				"energy": -0.26628,
				"method": "rhf"
			},
			{
				"type": "occ",
				"energy": -0.26538,
				"method": "rhf"
			},
			{
				"type": "occ",
				"energy": -0.25599,
				"method": "rhf"
			},
			{
				"type": "occ",
				"energy": -0.23725,
				"method": "rhf"
			},
			{
				"type": "unocc",
				"energy": -0.07553,
				"method": "rhf"
			},
			{
				"type": "unocc",
				"energy": -0.03387,
				"method": "rhf"
			},
			{
				"type": "unocc",
				"energy": -0.01737,
				"method": "rhf"
			},
			{
				"type": "unocc",
				"energy": 0.00346,
				"method": "rhf"
			},
			{
				"type": "unocc",
				"energy": 0.01197,
				"method": "rhf"
			}
		],
		"cosmo_sigma_profile": { 
			"-0.025": 0.0,
			"-0.024": 0.0,
			"-0.023": 0.0,
			"-0.022": 0.0,
			"-0.021": 0.0,
			"-0.02": 0.0,
			"-0.019": 0.0,
			"-0.018": 0.0,
			"-0.017": 0.0,
			"-0.016": 0.0,
			"-0.015": 0.328660363154,
			"-0.014": 0.953785863615,
			"-0.013": 0.640488290271,
			"-0.012": 1.27477986723,
			"-0.011": 0.564345112951,
			"-0.01": 0.89728311975,
			"-0.009": 1.61090995623,
			"-0.008": 3.11004079979,
			"-0.007": 7.07515699643,
			"-0.006": 14.3093418891,
			"-0.005": 20.3175476219,
			"-0.004": 26.1849732753,
			"-0.003": 33.4172247455,
			"-0.002": 38.0053586767,
			"-0.001": 37.2806576246,
			"0.0": 28.5033698892,
			"0.001": 23.5782544462,
			"0.002": 23.0744053342,
			"0.003": 24.4680279586,
			"0.004": 19.7329935111,
			"0.005": 9.17917140421,
			"0.006": 9.77408512646,
			"0.007": 3.94237273823,
			"0.008": 2.79088155272,
			"0.009": 3.14750004437,
			"0.01": 4.30849298283,
			"0.011": 6.15153268814,
			"0.012": 7.20269347496,
			"0.013": 3.03282290865,
			"0.014": 0.614848978694,
			"0.015": 0.0,
			"0.016": 0.0,
			"0.017": 0.0,
			"0.018": 0.0,
			"0.019": 0.0,
			"0.02": 0.0,
			"0.021": 0.0,
			"0.022": 0.0,
			"0.023": 0.0,
			"0.024": 0.0,
			"0.025": 0.0
		}
	}
}
