{
	 "smiles": "CCOC(=O)C1=C(N2C=NC=N2)C2=C(C=CC=C2)N=C1", 
	 "Tm": 358.15, 
	 "num_atms": 32, 
	 "gaussian": { 
		 "optdone": 1, 
		 "sigma_profile": "yes", 
		 "theory": "DFT", 
		 "functional": "B3LYP", 
		 "basiset": "6-31G**", 
		 "properties": { 
			 "R2extent": 6684.196, 
			 "electric_dipole_moment_norm": 2.10672342751, 
			 "electric_quadrupole_moment_norm": 22.414611743, 
			 "total_energy": -910.168065748, 
			 "HOMO_LUMO_gap": 0.16498, 
			 "cosmo_polarized_energy": -15.52, 
			 "cosmo_cavitation_energy": 36.9, 
			 "cosmo_dispersion_energy": -25.81, 
			 "cosmo_repulsion_energy": 1.96, 
			 "cosmo_total_nonelectrostatic_energy": 13.04, 
			 "SMD_solvation_energy": 3.75 
		},
		"coords": [
			{
				"x": 2.039379718,
				"y": -2.323499104,
				"z": 2.4009328688,
				"element": "C" 
			},
			{
				"x": 1.2052163208,
				"y": -3.1968868989,
				"z": 1.476792094,
				"element": "C" 
			},
			{
				"x": 0.6176263715,
				"y": -2.4117301883,
				"z": 0.4069867457,
				"element": "O" 
			},
			{
				"x": -0.5479510628,
				"y": -1.7934276821,
				"z": 0.6891661419,
				"element": "C" 
			},
			{
				"x": -1.1236398161,
				"y": -1.8685649895,
				"z": 1.7540250332,
				"element": "O" 
			},
			{
				"x": -1.0608584682,
				"y": -1.0513222878,
				"z": -0.50549724,
				"element": "C" 
			},
			{
				"x": -1.8627920451,
				"y": 0.0719844593,
				"z": -0.3870510266,
				"element": "C" 
			},
			{
				"x": -2.1172235075,
				"y": 0.6517151905,
				"z": 0.8863479598,
				"element": "N" 
			},
			{
				"x": -3.2852892925,
				"y": 0.7251950087,
				"z": 1.5795335812,
				"element": "C" 
			},
			{
				"x": -3.082366309,
				"y": 1.2636795449,
				"z": 2.764307196,
				"element": "N" 
			},
			{
				"x": -1.7379129989,
				"y": 1.4994498735,
				"z": 2.7571781241,
				"element": "C" 
			},
			{
				"x": -1.1016936055,
				"y": 1.1448312011,
				"z": 1.6535215004,
				"element": "N" 
			},
			{
				"x": -2.4065878222,
				"y": 0.6810564086,
				"z": -1.5530624312,
				"element": "C" 
			},
			{
				"x": -2.1060323855,
				"y": 0.0602875186,
				"z": -2.8100910135,
				"element": "C" 
			},
			{
				"x": -2.6413945485,
				"y": 0.6176411545,
				"z": -4.0003555355,
				"element": "C" 
			},
			{
				"x": -3.4256231791,
				"y": 1.7472790056,
				"z": -3.9512322082,
				"element": "C" 
			},
			{
				"x": -3.7004106643,
				"y": 2.3754537772,
				"z": -2.7113868365,
				"element": "C" 
			},
			{
				"x": -3.2018063658,
				"y": 1.8592130257,
				"z": -1.5367814662,
				"element": "C" 
			},
			{
				"x": -1.3064214536,
				"y": -1.0397162916,
				"z": -2.9183447799,
				"element": "N" 
			},
			{
				"x": -0.8045985873,
				"y": -1.5479131602,
				"z": -1.8153495362,
				"element": "C" 
			},
			{
				"x": 2.5230628082,
				"y": -2.9469140884,
				"z": 3.1602582925,
				"element": "H" 
			},
			{
				"x": 1.4088284708,
				"y": -1.5894607985,
				"z": 2.9079328459,
				"element": "H" 
			},
			{
				"x": 2.8171636518,
				"y": -1.7960209675,
				"z": 1.8414196547,
				"element": "H" 
			},
			{
				"x": 1.8177835243,
				"y": -3.9387270245,
				"z": 0.9594761225,
				"element": "H" 
			},
			{
				"x": 0.4038962887,
				"y": -3.7004412361,
				"z": 2.0223872138,
				"element": "H" 
			},
			{
				"x": -4.2247194997,
				"y": 0.3681728326,
				"z": 1.1815993244,
				"element": "H" 
			},
			{
				"x": -1.2144661456,
				"y": 1.9539048175,
				"z": 3.5870954661,
				"element": "H" 
			},
			{
				"x": -2.4013056359,
				"y": 0.1222715802,
				"z": -4.9350277666,
				"element": "H" 
			},
			{
				"x": -3.8300294757,
				"y": 2.1693927959,
				"z": -4.8663807784,
				"element": "H" 
			},
			{
				"x": -4.3049088041,
				"y": 3.277090214,
				"z": -2.689345033,
				"element": "H" 
			},
			{
				"x": -3.4039841525,
				"y": 2.3538684143,
				"z": -0.5934561604,
				"element": "H" 
			},
			{
				"x": -0.1659413287,
				"y": -2.4208621051,
				"z": -1.920398353,
				"element": "H" 
			}
		],
		 "valence_orbital": [ 
			{
				"type": "occ",
				"energy": -0.27922,
				"method": "rhf"
			},
			{
				"type": "occ",
				"energy": -0.27019,
				"method": "rhf"
			},
			{
				"type": "occ",
				"energy": -0.26994,
				"method": "rhf"
			},
			{
				"type": "occ",
				"energy": -0.26584,
				"method": "rhf"
			},
			{
				"type": "occ",
				"energy": -0.24739,
				"method": "rhf"
			},
			{
				"type": "unocc",
				"energy": -0.08241,
				"method": "rhf"
			},
			{
				"type": "unocc",
				"energy": -0.04569,
				"method": "rhf"
			},
			{
				"type": "unocc",
				"energy": -0.00925,
				"method": "rhf"
			},
			{
				"type": "unocc",
				"energy": 0.00849,
				"method": "rhf"
			},
			{
				"type": "unocc",
				"energy": 0.02098,
				"method": "rhf"
			}
		],
		"cosmo_sigma_profile": { 
			"-0.025": 0.0,
			"-0.024": 0.0,
			"-0.023": 0.0,
			"-0.022": 0.0,
			"-0.021": 0.0,
			"-0.02": 0.0,
			"-0.019": 0.0,
			"-0.018": 0.0,
			"-0.017": 0.0,
			"-0.016": 0.0,
			"-0.015": 0.0,
			"-0.014": 0.0,
			"-0.013": 0.0,
			"-0.012": 0.046511051062,
			"-0.011": 1.76893841325,
			"-0.01": 1.75347240975,
			"-0.009": 3.75702959758,
			"-0.008": 3.5819727862,
			"-0.007": 10.3840989305,
			"-0.006": 16.5716420239,
			"-0.005": 20.0200879501,
			"-0.004": 23.347356649,
			"-0.003": 23.6678253009,
			"-0.002": 21.8862468523,
			"-0.001": 24.6687249813,
			"0.0": 26.1545125117,
			"0.001": 21.8264128621,
			"0.002": 19.4920289633,
			"0.003": 16.1545649785,
			"0.004": 8.25730378611,
			"0.005": 7.2197685534,
			"0.006": 8.33666478749,
			"0.007": 7.89194710731,
			"0.008": 5.17953792771,
			"0.009": 4.32434720812,
			"0.01": 5.31601106848,
			"0.011": 5.42114106795,
			"0.012": 3.09932709299,
			"0.013": 2.6166987412,
			"0.014": 1.68624744698,
			"0.015": 1.64991597747,
			"0.016": 0.523801842759,
			"0.017": 0.00200404255272,
			"0.018": 0.0,
			"0.019": 0.0,
			"0.02": 0.0,
			"0.021": 0.0,
			"0.022": 0.0,
			"0.023": 0.0,
			"0.024": 0.0,
			"0.025": 0.0
		}
	}
}
