{
	 "smiles": "CC(C)(C)OC(=O)NC(CN)C1CC1", 
	 "Tm": 331.15, 
	 "num_atms": 34, 
	 "gaussian": { 
		 "optdone": 1, 
		 "sigma_profile": "yes", 
		 "theory": "DFT", 
		 "functional": "B3LYP", 
		 "basiset": "6-31G**", 
		 "properties": { 
			 "R2extent": 3716.9621, 
			 "electric_dipole_moment_norm": 3.75198791443, 
			 "electric_quadrupole_moment_norm": 20.9668829395, 
			 "total_energy": -653.07348132, 
			 "HOMO_LUMO_gap": 0.29663, 
			 "cosmo_polarized_energy": -12.0, 
			 "cosmo_cavitation_energy": 34.62, 
			 "cosmo_dispersion_energy": -23.51, 
			 "cosmo_repulsion_energy": 1.89, 
			 "cosmo_total_nonelectrostatic_energy": 13.0, 
			 "SMD_solvation_energy": 5.21 
		},
		"coords": [
			{
				"x": -0.8426294635,
				"y": 2.435117135,
				"z": 2.086556884,
				"element": "C" 
			},
			{
				"x": -1.3670472753,
				"y": 1.7879777229,
				"z": 0.799105414,
				"element": "C" 
			},
			{
				"x": -2.3125908311,
				"y": 0.6297680669,
				"z": 1.1300091822,
				"element": "C" 
			},
			{
				"x": -2.0588743335,
				"y": 2.8015317062,
				"z": -0.1195139355,
				"element": "C" 
			},
			{
				"x": -0.2688962084,
				"y": 1.1225724898,
				"z": 0.0821215117,
				"element": "O" 
			},
			{
				"x": 0.7828155684,
				"y": 1.8462340891,
				"z": -0.3793402798,
				"element": "C" 
			},
			{
				"x": 0.9286877547,
				"y": 3.0521896494,
				"z": -0.2449261662,
				"element": "O" 
			},
			{
				"x": 1.6905798832,
				"y": 1.0614957841,
				"z": -1.0423028772,
				"element": "N" 
			},
			{
				"x": 1.773883599,
				"y": -0.3991933509,
				"z": -1.0204939592,
				"element": "C" 
			},
			{
				"x": 3.2289968921,
				"y": -0.7786030116,
				"z": -1.3731665982,
				"element": "C" 
			},
			{
				"x": 4.1949806855,
				"y": 0.0255327912,
				"z": -0.6203070028,
				"element": "N" 
			},
			{
				"x": 0.8320110555,
				"y": -1.0658550698,
				"z": -2.0124701622,
				"element": "C" 
			},
			{
				"x": 0.5593023462,
				"y": -2.5520150965,
				"z": -1.9099446983,
				"element": "C" 
			},
			{
				"x": -0.5348915314,
				"y": -1.5573081366,
				"z": -1.6193214183,
				"element": "C" 
			},
			{
				"x": -0.3241080498,
				"y": 1.6912155595,
				"z": 2.700409229,
				"element": "H" 
			},
			{
				"x": -0.154569999,
				"y": 3.2492044603,
				"z": 1.8601495175,
				"element": "H" 
			},
			{
				"x": -1.6824129112,
				"y": 2.8286888688,
				"z": 2.6688217597,
				"element": "H" 
			},
			{
				"x": -3.1773512062,
				"y": 1.0002164887,
				"z": 1.6887740858,
				"element": "H" 
			},
			{
				"x": -1.8047976716,
				"y": -0.1222631332,
				"z": 1.7417435499,
				"element": "H" 
			},
			{
				"x": -2.6732541448,
				"y": 0.1486389287,
				"z": 0.2164139638,
				"element": "H" 
			},
			{
				"x": -2.9456986263,
				"y": 3.2055689576,
				"z": 0.3800289306,
				"element": "H" 
			},
			{
				"x": -1.386496224,
				"y": 3.6223190993,
				"z": -0.3684016567,
				"element": "H" 
			},
			{
				"x": -2.3822155983,
				"y": 2.3138934266,
				"z": -1.0447325069,
				"element": "H" 
			},
			{
				"x": 2.5959394521,
				"y": 1.5155584617,
				"z": -1.1070707519,
				"element": "H" 
			},
			{
				"x": 1.5425695438,
				"y": -0.7729056584,
				"z": -0.0104212076,
				"element": "H" 
			},
			{
				"x": 3.3326257283,
				"y": -1.8661156502,
				"z": -1.2420566783,
				"element": "H" 
			},
			{
				"x": 3.3899212363,
				"y": -0.5702082413,
				"z": -2.438167686,
				"element": "H" 
			},
			{
				"x": 4.1848432436,
				"y": -0.2287874873,
				"z": 0.3647748927,
				"element": "H" 
			},
			{
				"x": 5.1376482034,
				"y": -0.1423286606,
				"z": -0.9591038361,
				"element": "H" 
			},
			{
				"x": 0.928345981,
				"y": -0.6632113456,
				"z": -3.0193033299,
				"element": "H" 
			},
			{
				"x": 0.5140863383,
				"y": -3.1332288724,
				"z": -2.8259497328,
				"element": "H" 
			},
			{
				"x": 0.9844788003,
				"y": -3.0915443539,
				"z": -1.0671556184,
				"element": "H" 
			},
			{
				"x": -1.3419281451,
				"y": -1.4488293588,
				"z": -2.33787651,
				"element": "H" 
			},
			{
				"x": -0.835154092,
				"y": -1.4205262587,
				"z": -0.5867823086,
				"element": "H" 
			}
		],
		 "valence_orbital": [ 
			{
				"type": "occ",
				"energy": -0.28412,
				"method": "rhf"
			},
			{
				"type": "occ",
				"energy": -0.27593,
				"method": "rhf"
			},
			{
				"type": "occ",
				"energy": -0.25263,
				"method": "rhf"
			},
			{
				"type": "occ",
				"energy": -0.24799,
				"method": "rhf"
			},
			{
				"type": "occ",
				"energy": -0.23431,
				"method": "rhf"
			},
			{
				"type": "unocc",
				"energy": 0.06232,
				"method": "rhf"
			},
			{
				"type": "unocc",
				"energy": 0.07233,
				"method": "rhf"
			},
			{
				"type": "unocc",
				"energy": 0.08636,
				"method": "rhf"
			},
			{
				"type": "unocc",
				"energy": 0.09896,
				"method": "rhf"
			},
			{
				"type": "unocc",
				"energy": 0.10297,
				"method": "rhf"
			}
		],
		"cosmo_sigma_profile": { 
			"-0.025": 0.0,
			"-0.024": 0.0,
			"-0.023": 0.0,
			"-0.022": 0.0,
			"-0.021": 0.0,
			"-0.02": 0.0,
			"-0.019": 0.0,
			"-0.018": 0.0,
			"-0.017": 0.0,
			"-0.016": 0.0,
			"-0.015": 0.0,
			"-0.014": 0.0,
			"-0.013": 0.0,
			"-0.012": 0.0,
			"-0.011": 0.34180828965,
			"-0.01": 2.29011523553,
			"-0.009": 3.0295984933,
			"-0.008": 2.45578885349,
			"-0.007": 3.58568612995,
			"-0.006": 3.35171572477,
			"-0.005": 4.17800543029,
			"-0.004": 22.464236304,
			"-0.003": 34.1725940636,
			"-0.002": 32.2679304258,
			"-0.001": 31.4962260766,
			"0.0": 31.252593938,
			"0.001": 29.7284279175,
			"0.002": 12.9031750886,
			"0.003": 9.32784796904,
			"0.004": 8.77849855082,
			"0.005": 7.5545376987,
			"0.006": 5.62751128386,
			"0.007": 4.25292843389,
			"0.008": 3.71002634732,
			"0.009": 2.2122717419,
			"0.01": 1.87662571395,
			"0.011": 1.41763732839,
			"0.012": 2.5135791537,
			"0.013": 2.90795357665,
			"0.014": 3.3501160077,
			"0.015": 0.644873779916,
			"0.016": 0.0,
			"0.017": 0.0,
			"0.018": 0.0,
			"0.019": 0.0,
			"0.02": 0.0,
			"0.021": 0.0,
			"0.022": 0.0,
			"0.023": 0.0,
			"0.024": 0.0,
			"0.025": 0.0
		}
	}
}
