{
	 "smiles": "FC(F)(F)C(C(=O)NC1=CC=CC2=C1C=CC=C2)C(F)(F)F", 
	 "Tm": 497.15, 
	 "num_atms": 31, 
	 "gaussian": { 
		 "optdone": 1, 
		 "sigma_profile": "yes", 
		 "theory": "DFT", 
		 "functional": "B3LYP", 
		 "basiset": "6-31G**", 
		 "properties": { 
			 "R2extent": 8045.1513, 
			 "electric_dipole_moment_norm": 5.48428678134, 
			 "electric_quadrupole_moment_norm": 14.8715561476, 
			 "total_energy": -1267.96194308, 
			 "HOMO_LUMO_gap": 0.16976, 
			 "cosmo_polarized_energy": -12.58, 
			 "cosmo_cavitation_energy": 37.7, 
			 "cosmo_dispersion_energy": -25.14, 
			 "cosmo_repulsion_energy": 1.79, 
			 "cosmo_total_nonelectrostatic_energy": 14.36, 
			 "SMD_solvation_energy": 8.9 
		},
		"coords": [
			{
				"x": -2.4888435975,
				"y": 2.7855027988,
				"z": -3.2677953633,
				"element": "F" 
			},
			{
				"x": -3.1616215639,
				"y": 2.0090642804,
				"z": -2.3963921581,
				"element": "C" 
			},
			{
				"x": -3.6299066176,
				"y": 2.8191700766,
				"z": -1.4127064079,
				"element": "F" 
			},
			{
				"x": -4.2148160017,
				"y": 1.4900462332,
				"z": -3.0323711149,
				"element": "F" 
			},
			{
				"x": -2.2401275277,
				"y": 0.9526198718,
				"z": -1.7848263386,
				"element": "C" 
			},
			{
				"x": -2.960920735,
				"y": 0.1968067703,
				"z": -0.6526967021,
				"element": "C" 
			},
			{
				"x": -3.95576839,
				"y": -0.4706337373,
				"z": -0.8744622867,
				"element": "O" 
			},
			{
				"x": -2.406887155,
				"y": 0.27860992,
				"z": 0.6000371036,
				"element": "N" 
			},
			{
				"x": -1.3078621005,
				"y": 1.050363822,
				"z": 1.0816108831,
				"element": "C" 
			},
			{
				"x": -1.3517141554,
				"y": 2.4308033653,
				"z": 1.0449300849,
				"element": "C" 
			},
			{
				"x": -0.2794672234,
				"y": 3.197316797,
				"z": 1.5577871295,
				"element": "C" 
			},
			{
				"x": 0.80215594,
				"y": 2.5769724595,
				"z": 2.1381167363,
				"element": "C" 
			},
			{
				"x": 0.876255386,
				"y": 1.1595938052,
				"z": 2.2073110684,
				"element": "C" 
			},
			{
				"x": -0.1860078997,
				"y": 0.370355049,
				"z": 1.6545047499,
				"element": "C" 
			},
			{
				"x": -0.0781063527,
				"y": -1.0456256349,
				"z": 1.6890343411,
				"element": "C" 
			},
			{
				"x": 1.014400668,
				"y": -1.6534690886,
				"z": 2.267532131,
				"element": "C" 
			},
			{
				"x": 2.0527674959,
				"y": -0.876765104,
				"z": 2.8344791368,
				"element": "C" 
			},
			{
				"x": 1.9855929376,
				"y": 0.4974855041,
				"z": 2.7986715706,
				"element": "C" 
			},
			{
				"x": -1.7101848843,
				"y": -0.0465323243,
				"z": -2.8180022335,
				"element": "C" 
			},
			{
				"x": -2.6760027482,
				"y": -0.6905540413,
				"z": -3.4801968627,
				"element": "F" 
			},
			{
				"x": -0.9451593103,
				"y": -0.9674215952,
				"z": -2.1898471656,
				"element": "F" 
			},
			{
				"x": -0.9319041228,
				"y": 0.5785561037,
				"z": -3.7242793872,
				"element": "F" 
			},
			{
				"x": -1.3667545878,
				"y": 1.487290897,
				"z": -1.4087264411,
				"element": "H" 
			},
			{
				"x": -2.8858363678,
				"y": -0.3206897169,
				"z": 1.2636526063,
				"element": "H" 
			},
			{
				"x": -2.221992404,
				"y": 2.9223877138,
				"z": 0.6238650705,
				"element": "H" 
			},
			{
				"x": -0.3314012718,
				"y": 4.2805337498,
				"z": 1.5094335567,
				"element": "H" 
			},
			{
				"x": 1.6178642991,
				"y": 3.1637404519,
				"z": 2.5515952114,
				"element": "H" 
			},
			{
				"x": -0.8574134238,
				"y": -1.6477785343,
				"z": 1.2341289316,
				"element": "H" 
			},
			{
				"x": 1.0846898772,
				"y": -2.7370158874,
				"z": 2.2818906976,
				"element": "H" 
			},
			{
				"x": 2.9068995317,
				"y": -1.3696737207,
				"z": 3.2890882296,
				"element": "H" 
			},
			{
				"x": 2.7855723054,
				"y": 1.0996397154,
				"z": 3.2211332227,
				"element": "H" 
			}
		],
		 "valence_orbital": [ 
			{
				"type": "occ",
				"energy": -0.31109,
				"method": "rhf"
			},
			{
				"type": "occ",
				"energy": -0.27813,
				"method": "rhf"
			},
			{
				"type": "occ",
				"energy": -0.27465,
				"method": "rhf"
			},
			{
				"type": "occ",
				"energy": -0.26245,
				"method": "rhf"
			},
			{
				"type": "occ",
				"energy": -0.23073,
				"method": "rhf"
			},
			{
				"type": "unocc",
				"energy": -0.06097,
				"method": "rhf"
			},
			{
				"type": "unocc",
				"energy": -0.02905,
				"method": "rhf"
			},
			{
				"type": "unocc",
				"energy": -0.00586,
				"method": "rhf"
			},
			{
				"type": "unocc",
				"energy": 0.0152,
				"method": "rhf"
			},
			{
				"type": "unocc",
				"energy": 0.07065,
				"method": "rhf"
			}
		],
		"cosmo_sigma_profile": { 
			"-0.025": 0.0,
			"-0.024": 0.0,
			"-0.023": 0.0,
			"-0.022": 0.0,
			"-0.021": 0.0,
			"-0.02": 0.0,
			"-0.019": 0.0,
			"-0.018": 0.0,
			"-0.017": 0.0,
			"-0.016": 0.0,
			"-0.015": 0.917936595334,
			"-0.014": 0.833535431228,
			"-0.013": 0.530310182824,
			"-0.012": 1.50618483746,
			"-0.011": 1.26142126927,
			"-0.01": 2.16047488124,
			"-0.009": 3.16609459755,
			"-0.008": 3.09394004402,
			"-0.007": 5.01492165243,
			"-0.006": 15.0192974807,
			"-0.005": 16.6652561438,
			"-0.004": 19.0107407344,
			"-0.003": 14.0277861802,
			"-0.002": 16.1185962201,
			"-0.001": 17.9991015471,
			"0.0": 19.7687035216,
			"0.001": 34.4561417252,
			"0.002": 61.8129794973,
			"0.003": 27.8894926999,
			"0.004": 17.6168711216,
			"0.005": 5.99143782518,
			"0.006": 1.54079135028,
			"0.007": 2.03553560783,
			"0.008": 1.52236513467,
			"0.009": 2.39318924857,
			"0.01": 1.98394091728,
			"0.011": 3.23676989104,
			"0.012": 4.52691329011,
			"0.013": 0.602193618705,
			"0.014": 0.0,
			"0.015": 0.0,
			"0.016": 0.0,
			"0.017": 0.0,
			"0.018": 0.0,
			"0.019": 0.0,
			"0.02": 0.0,
			"0.021": 0.0,
			"0.022": 0.0,
			"0.023": 0.0,
			"0.024": 0.0,
			"0.025": 0.0
		}
	}
}
