{
	 "smiles": "CC1=CSC(=N1)C1=CN=C(C)NC1=O", 
	 "Tm": 576.15, 
	 "num_atms": 23, 
	 "gaussian": { 
		 "optdone": 1, 
		 "sigma_profile": "yes", 
		 "theory": "DFT", 
		 "functional": "B3LYP", 
		 "basiset": "6-31G**", 
		 "properties": { 
			 "R2extent": 3839.3705, 
			 "electric_dipole_moment_norm": 2.64415087694, 
			 "electric_quadrupole_moment_norm": 27.5030612474, 
			 "total_energy": -986.072690029, 
			 "HOMO_LUMO_gap": 0.14461, 
			 "cosmo_polarized_energy": -15.88, 
			 "cosmo_cavitation_energy": 29.01, 
			 "cosmo_dispersion_energy": -22.21, 
			 "cosmo_repulsion_energy": 1.7, 
			 "cosmo_total_nonelectrostatic_energy": 8.51, 
			 "SMD_solvation_energy": 3.08 
		},
		"coords": [
			{
				"x": -0.4431831286,
				"y": 1.860275589,
				"z": 3.4832034016,
				"element": "C" 
			},
			{
				"x": -0.0806982422,
				"y": 0.6507209011,
				"z": 2.6717467659,
				"element": "C" 
			},
			{
				"x": 0.2548827951,
				"y": -0.5845851019,
				"z": 3.1640482655,
				"element": "C" 
			},
			{
				"x": 0.6010642021,
				"y": -1.692808749,
				"z": 1.8816906451,
				"element": "S" 
			},
			{
				"x": 0.2649456973,
				"y": -0.3950416249,
				"z": 0.7372016605,
				"element": "C" 
			},
			{
				"x": -0.0702989638,
				"y": 0.7410739468,
				"z": 1.3013015485,
				"element": "N" 
			},
			{
				"x": 0.3508619835,
				"y": -0.566251395,
				"z": -0.7086891644,
				"element": "C" 
			},
			{
				"x": 0.0796771912,
				"y": 0.4743352342,
				"z": -1.5705615059,
				"element": "C" 
			},
			{
				"x": 0.1346089765,
				"y": 0.404687102,
				"z": -2.9338708272,
				"element": "N" 
			},
			{
				"x": 0.4724653842,
				"y": -0.7452887152,
				"z": -3.457265974,
				"element": "C" 
			},
			{
				"x": 0.5584922509,
				"y": -0.9139258075,
				"z": -4.946290858,
				"element": "C" 
			},
			{
				"x": 0.7589734899,
				"y": -1.8320822992,
				"z": -2.6824473353,
				"element": "N" 
			},
			{
				"x": 0.7280950185,
				"y": -1.8515996306,
				"z": -1.2752187651,
				"element": "C" 
			},
			{
				"x": 1.0031593163,
				"y": -2.8824219944,
				"z": -0.6684358402,
				"element": "O" 
			},
			{
				"x": 0.2450996517,
				"y": 2.6867021249,
				"z": 3.2757414518,
				"element": "H" 
			},
			{
				"x": -0.4100313122,
				"y": 1.6435472771,
				"z": 4.5537698464,
				"element": "H" 
			},
			{
				"x": -1.4507859882,
				"y": 2.2082292346,
				"z": 3.2313856021,
				"element": "H" 
			},
			{
				"x": 0.3146650369,
				"y": -0.8923478681,
				"z": 4.1987767962,
				"element": "H" 
			},
			{
				"x": -0.2025065736,
				"y": 1.4363791923,
				"z": -1.1533445641,
				"element": "H" 
			},
			{
				"x": -0.1336858548,
				"y": -1.6884733189,
				"z": -5.2959954428,
				"element": "H" 
			},
			{
				"x": 1.5692859564,
				"y": -1.2073658011,
				"z": -5.2520799947,
				"element": "H" 
			},
			{
				"x": 0.3033542263,
				"y": 0.0324928739,
				"z": -5.4216032939,
				"element": "H" 
			},
			{
				"x": 1.0190588864,
				"y": -2.7154511702,
				"z": -3.1074624179,
				"element": "H" 
			}
		],
		 "valence_orbital": [ 
			{
				"type": "occ",
				"energy": -0.27927,
				"method": "rhf"
			},
			{
				"type": "occ",
				"energy": -0.2687,
				"method": "rhf"
			},
			{
				"type": "occ",
				"energy": -0.26417,
				"method": "rhf"
			},
			{
				"type": "occ",
				"energy": -0.25693,
				"method": "rhf"
			},
			{
				"type": "occ",
				"energy": -0.2124,
				"method": "rhf"
			},
			{
				"type": "unocc",
				"energy": -0.06779,
				"method": "rhf"
			},
			{
				"type": "unocc",
				"energy": -0.00973,
				"method": "rhf"
			},
			{
				"type": "unocc",
				"energy": 0.0091,
				"method": "rhf"
			},
			{
				"type": "unocc",
				"energy": 0.04399,
				"method": "rhf"
			},
			{
				"type": "unocc",
				"energy": 0.05748,
				"method": "rhf"
			}
		],
		"cosmo_sigma_profile": { 
			"-0.025": 0.0,
			"-0.024": 0.0,
			"-0.023": 0.0,
			"-0.022": 0.0,
			"-0.021": 0.0,
			"-0.02": 0.0,
			"-0.019": 0.0,
			"-0.018": 0.0,
			"-0.017": 0.598388632672,
			"-0.016": 1.13339092145,
			"-0.015": 1.17141926352,
			"-0.014": 0.927932259728,
			"-0.013": 1.53496910206,
			"-0.012": 1.08584799738,
			"-0.011": 0.992900490419,
			"-0.01": 1.45520157017,
			"-0.009": 1.60611470396,
			"-0.008": 3.61008613296,
			"-0.007": 7.32154633313,
			"-0.006": 9.0984967192,
			"-0.005": 12.5938076058,
			"-0.004": 18.2757929369,
			"-0.003": 18.5069898053,
			"-0.002": 19.4437404057,
			"-0.001": 18.1064387635,
			"0.0": 17.8905483351,
			"0.001": 15.3087146074,
			"0.002": 13.2346362721,
			"0.003": 16.0465991241,
			"0.004": 11.3903106366,
			"0.005": 6.72296045277,
			"0.006": 5.5410725454,
			"0.007": 4.60455979653,
			"0.008": 2.62736462045,
			"0.009": 4.41287427993,
			"0.01": 3.87957227116,
			"0.011": 4.36616878224,
			"0.012": 5.41701966698,
			"0.013": 4.00506158124,
			"0.014": 0.51320149452,
			"0.015": 0.573283893655,
			"0.016": 0.0,
			"0.017": 0.0,
			"0.018": 0.0,
			"0.019": 0.0,
			"0.02": 0.0,
			"0.021": 0.0,
			"0.022": 0.0,
			"0.023": 0.0,
			"0.024": 0.0,
			"0.025": 0.0
		}
	}
}
