{
	 "smiles": "COC1=CC=C2OC(CC(=O)C2=C1)C1=CC=CC=C1", 
	 "Tm": 415.15, 
	 "num_atms": 33, 
	 "gaussian": { 
		 "optdone": 1, 
		 "sigma_profile": "yes", 
		 "theory": "DFT", 
		 "functional": "B3LYP", 
		 "basiset": "6-31G**", 
		 "properties": { 
			 "R2extent": 5471.7109, 
			 "electric_dipole_moment_norm": 1.27677322575, 
			 "electric_quadrupole_moment_norm": 9.16790590048, 
			 "total_energy": -843.797953254, 
			 "HOMO_LUMO_gap": 0.1529, 
			 "cosmo_polarized_energy": -11.57, 
			 "cosmo_cavitation_energy": 36.22, 
			 "cosmo_dispersion_energy": -25.75, 
			 "cosmo_repulsion_energy": 1.98, 
			 "cosmo_total_nonelectrostatic_energy": 12.45, 
			 "SMD_solvation_energy": 7.11 
		},
		"coords": [
			{
				"x": 1.8233740729,
				"y": -4.4838448229,
				"z": 1.351713416,
				"element": "C" 
			},
			{
				"x": 2.5667710848,
				"y": -3.3478732433,
				"z": 1.7643601423,
				"element": "O" 
			},
			{
				"x": 1.9139197371,
				"y": -2.14875716,
				"z": 1.8190569647,
				"element": "C" 
			},
			{
				"x": 2.6956120614,
				"y": -1.0508849533,
				"z": 2.2336810724,
				"element": "C" 
			},
			{
				"x": 2.1511210388,
				"y": 0.2197354317,
				"z": 2.319243127,
				"element": "C" 
			},
			{
				"x": 0.8010624604,
				"y": 0.4263520266,
				"z": 2.000631023,
				"element": "C" 
			},
			{
				"x": 0.3180144998,
				"y": 1.6998903039,
				"z": 2.1150522928,
				"element": "O" 
			},
			{
				"x": -0.8931389978,
				"y": 1.9975679336,
				"z": 1.37219423,
				"element": "C" 
			},
			{
				"x": -1.9456953496,
				"y": 0.9268473626,
				"z": 1.6594993668,
				"element": "C" 
			},
			{
				"x": -1.431837595,
				"y": -0.4716515962,
				"z": 1.3410248071,
				"element": "C" 
			},
			{
				"x": -2.1707700636,
				"y": -1.3629113991,
				"z": 0.9465788174,
				"element": "O" 
			},
			{
				"x": 0.0090213342,
				"y": -0.6643024971,
				"z": 1.6061071046,
				"element": "C" 
			},
			{
				"x": 0.5754096472,
				"y": -1.9501938245,
				"z": 1.5068170374,
				"element": "C" 
			},
			{
				"x": -0.5607039403,
				"y": 2.2319856614,
				"z": -0.0988043887,
				"element": "C" 
			},
			{
				"x": -1.2475542241,
				"y": 1.6135389456,
				"z": -1.1495519961,
				"element": "C" 
			},
			{
				"x": -0.9139403762,
				"y": 1.8946000118,
				"z": -2.478035919,
				"element": "C" 
			},
			{
				"x": 0.1084749762,
				"y": 2.794662665,
				"z": -2.7713645152,
				"element": "C" 
			},
			{
				"x": 0.8014527797,
				"y": 3.4157727277,
				"z": -1.728117276,
				"element": "C" 
			},
			{
				"x": 0.4673412073,
				"y": 3.1369417901,
				"z": -0.40552185,
				"element": "C" 
			},
			{
				"x": 2.5192694192,
				"y": -5.3239707183,
				"z": 1.3707488133,
				"element": "H" 
			},
			{
				"x": 0.9879692628,
				"y": -4.6900692952,
				"z": 2.0333452407,
				"element": "H" 
			},
			{
				"x": 1.4300836839,
				"y": -4.3617929981,
				"z": 0.3341722243,
				"element": "H" 
			},
			{
				"x": 3.7392996697,
				"y": -1.2255639422,
				"z": 2.4749292474,
				"element": "H" 
			},
			{
				"x": 2.7540679037,
				"y": 1.0686538873,
				"z": 2.6234421074,
				"element": "H" 
			},
			{
				"x": -1.2188724623,
				"y": 2.9473994074,
				"z": 1.8082203871,
				"element": "H" 
			},
			{
				"x": -2.1720585122,
				"y": 0.9525909397,
				"z": 2.7338666023,
				"element": "H" 
			},
			{
				"x": -2.8811761992,
				"y": 1.1102317102,
				"z": 1.1269108334,
				"element": "H" 
			},
			{
				"x": -0.0805383201,
				"y": -2.7532513279,
				"z": 1.1934937383,
				"element": "H" 
			},
			{
				"x": -2.0407480318,
				"y": 0.901137952,
				"z": -0.9487811785,
				"element": "H" 
			},
			{
				"x": -1.4548051372,
				"y": 1.4021132276,
				"z": -3.2809801879,
				"element": "H" 
			},
			{
				"x": 0.3663627966,
				"y": 3.0117413593,
				"z": -3.8039423732,
				"element": "H" 
			},
			{
				"x": 1.6006693826,
				"y": 4.1183382287,
				"z": -1.9467919046,
				"element": "H" 
			},
			{
				"x": 1.0121421913,
				"y": 3.6127662061,
				"z": 0.4048029935,
				"element": "H" 
			}
		],
		 "valence_orbital": [ 
			{
				"type": "occ",
				"energy": -0.25901,
				"method": "rhf"
			},
			{
				"type": "occ",
				"energy": -0.2532,
				"method": "rhf"
			},
			{
				"type": "occ",
				"energy": -0.25184,
				"method": "rhf"
			},
			{
				"type": "occ",
				"energy": -0.2435,
				"method": "rhf"
			},
			{
				"type": "occ",
				"energy": -0.20827,
				"method": "rhf"
			},
			{
				"type": "unocc",
				"energy": -0.05537,
				"method": "rhf"
			},
			{
				"type": "unocc",
				"energy": -0.01058,
				"method": "rhf"
			},
			{
				"type": "unocc",
				"energy": -0.00348,
				"method": "rhf"
			},
			{
				"type": "unocc",
				"energy": 0.01184,
				"method": "rhf"
			},
			{
				"type": "unocc",
				"energy": 0.04652,
				"method": "rhf"
			}
		],
		"cosmo_sigma_profile": { 
			"-0.025": 0.0,
			"-0.024": 0.0,
			"-0.023": 0.0,
			"-0.022": 0.0,
			"-0.021": 0.0,
			"-0.02": 0.0,
			"-0.019": 0.0,
			"-0.018": 0.0,
			"-0.017": 0.0,
			"-0.016": 0.0,
			"-0.015": 0.0,
			"-0.014": 0.0,
			"-0.013": 0.0,
			"-0.012": 0.0,
			"-0.011": 0.0,
			"-0.01": 0.0,
			"-0.009": 0.0,
			"-0.008": 0.184500092604,
			"-0.007": 7.06702185858,
			"-0.006": 21.933468421,
			"-0.005": 28.7055440919,
			"-0.004": 29.410578825,
			"-0.003": 24.8136918389,
			"-0.002": 18.1329055603,
			"-0.001": 13.1575819579,
			"0.0": 14.9121702083,
			"0.001": 15.9152086017,
			"0.002": 23.4585034041,
			"0.003": 29.3158956674,
			"0.004": 16.2839678264,
			"0.005": 14.6100652783,
			"0.006": 7.27377325052,
			"0.007": 2.5530204976,
			"0.008": 4.2119933903,
			"0.009": 4.07066386306,
			"0.01": 3.43772469019,
			"0.011": 3.40774741369,
			"0.012": 4.06664590005,
			"0.013": 1.70910203219,
			"0.014": 0.122726347011,
			"0.015": 0.0,
			"0.016": 0.0,
			"0.017": 0.0,
			"0.018": 0.0,
			"0.019": 0.0,
			"0.02": 0.0,
			"0.021": 0.0,
			"0.022": 0.0,
			"0.023": 0.0,
			"0.024": 0.0,
			"0.025": 0.0
		}
	}
}
