{
	 "smiles": "OCC1=C(C=CC(F)=C1)C(F)(F)F", 
	 "Tm": 323.15, 
	 "num_atms": 19, 
	 "gaussian": { 
		 "optdone": 1, 
		 "sigma_profile": "yes", 
		 "theory": "DFT", 
		 "functional": "B3LYP", 
		 "basiset": "6-31G**", 
		 "properties": { 
			 "R2extent": 2469.4604, 
			 "electric_dipole_moment_norm": 1.62749550537, 
			 "electric_quadrupole_moment_norm": 4.97461961862, 
			 "total_energy": -783.042656586, 
			 "HOMO_LUMO_gap": 0.22924, 
			 "cosmo_polarized_energy": -6.67, 
			 "cosmo_cavitation_energy": 24.35, 
			 "cosmo_dispersion_energy": -17.58, 
			 "cosmo_repulsion_energy": 1.3, 
			 "cosmo_total_nonelectrostatic_energy": 8.08, 
			 "SMD_solvation_energy": 5.59 
		},
		"coords": [
			{
				"x": -1.7910958835,
				"y": 2.0562204658,
				"z": -0.2633463336,
				"element": "O" 
			},
			{
				"x": -1.6169687664,
				"y": 1.3183835196,
				"z": 0.9385519435,
				"element": "C" 
			},
			{
				"x": -0.2512238484,
				"y": 0.6480360486,
				"z": 1.0147355873,
				"element": "C" 
			},
			{
				"x": 0.0144804675,
				"y": -0.6221153168,
				"z": 0.4593924243,
				"element": "C" 
			},
			{
				"x": 1.3011109491,
				"y": -1.1667680956,
				"z": 0.512905775,
				"element": "C" 
			},
			{
				"x": 2.3472664897,
				"y": -0.4675033646,
				"z": 1.1096042091,
				"element": "C" 
			},
			{
				"x": 2.0758972764,
				"y": 0.7834021066,
				"z": 1.6480532384,
				"element": "C" 
			},
			{
				"x": 3.0720638844,
				"y": 1.4753927515,
				"z": 2.2299125996,
				"element": "F" 
			},
			{
				"x": 0.8047668409,
				"y": 1.3446280721,
				"z": 1.6065837223,
				"element": "C" 
			},
			{
				"x": -1.0843111352,
				"y": -1.4256521487,
				"z": -0.183520929,
				"element": "C" 
			},
			{
				"x": -1.7176575812,
				"y": -0.7233670999,
				"z": -1.171313104,
				"element": "F" 
			},
			{
				"x": -2.0477163448,
				"y": -1.7818621509,
				"z": 0.6981220175,
				"element": "F" 
			},
			{
				"x": -0.6310755753,
				"y": -2.5585916146,
				"z": -0.7525139074,
				"element": "F" 
			},
			{
				"x": -1.8462348386,
				"y": 1.4118372182,
				"z": -0.9815516006,
				"element": "H" 
			},
			{
				"x": -2.4147397958,
				"y": 0.5797651474,
				"z": 1.0797127174,
				"element": "H" 
			},
			{
				"x": -1.6976946952,
				"y": 2.0458381032,
				"z": 1.7508622386,
				"element": "H" 
			},
			{
				"x": 1.4848165352,
				"y": -2.1447837756,
				"z": 0.0844526378,
				"element": "H" 
			},
			{
				"x": 3.3503902782,
				"y": -0.8750987354,
				"z": 1.1614902149,
				"element": "H" 
			},
			{
				"x": 0.6459257431,
				"y": 2.3281388691,
				"z": 2.0364665488,
				"element": "H" 
			}
		],
		 "valence_orbital": [ 
			{
				"type": "occ",
				"energy": -0.36943,
				"method": "rhf"
			},
			{
				"type": "occ",
				"energy": -0.33659,
				"method": "rhf"
			},
			{
				"type": "occ",
				"energy": -0.28273,
				"method": "rhf"
			},
			{
				"type": "occ",
				"energy": -0.27067,
				"method": "rhf"
			},
			{
				"type": "occ",
				"energy": -0.26544,
				"method": "rhf"
			},
			{
				"type": "unocc",
				"energy": -0.0362,
				"method": "rhf"
			},
			{
				"type": "unocc",
				"energy": -0.0291,
				"method": "rhf"
			},
			{
				"type": "unocc",
				"energy": 0.08168,
				"method": "rhf"
			},
			{
				"type": "unocc",
				"energy": 0.09891,
				"method": "rhf"
			},
			{
				"type": "unocc",
				"energy": 0.11033,
				"method": "rhf"
			}
		],
		"cosmo_sigma_profile": { 
			"-0.025": 0.0,
			"-0.024": 0.0,
			"-0.023": 0.0,
			"-0.022": 0.0,
			"-0.021": 0.0,
			"-0.02": 0.0,
			"-0.019": 0.0,
			"-0.018": 0.0,
			"-0.017": 0.0,
			"-0.016": 0.0,
			"-0.015": 0.0,
			"-0.014": 0.0,
			"-0.013": 0.0,
			"-0.012": 0.384653616797,
			"-0.011": 0.562095895717,
			"-0.01": 0.748666310868,
			"-0.009": 0.591600555396,
			"-0.008": 4.29666828636,
			"-0.007": 7.80368979069,
			"-0.006": 8.01231446129,
			"-0.005": 9.23041168089,
			"-0.004": 9.72919148215,
			"-0.003": 13.0216852897,
			"-0.002": 12.6969301742,
			"-0.001": 13.3992013806,
			"0.0": 18.4671641681,
			"0.001": 22.7929879484,
			"0.002": 31.0659121165,
			"0.003": 17.6902413145,
			"0.004": 10.2324665431,
			"0.005": 1.50076665871,
			"0.006": 1.4266067627,
			"0.007": 1.38621560223,
			"0.008": 1.13151649222,
			"0.009": 0.918779202119,
			"0.01": 1.0679486407,
			"0.011": 1.62648953705,
			"0.012": 1.56437963114,
			"0.013": 1.75073657851,
			"0.014": 1.96955109347,
			"0.015": 0.0186059028983,
			"0.016": 0.0,
			"0.017": 0.0,
			"0.018": 0.0,
			"0.019": 0.0,
			"0.02": 0.0,
			"0.021": 0.0,
			"0.022": 0.0,
			"0.023": 0.0,
			"0.024": 0.0,
			"0.025": 0.0
		}
	}
}
