{
	 "smiles": "O=CC1=CNN=C1C1=CC2=C(OCO2)C=C1", 
	 "Tm": 462.15, 
	 "num_atms": 24, 
	 "gaussian": { 
		 "optdone": 1, 
		 "sigma_profile": "yes", 
		 "theory": "DFT", 
		 "functional": "B3LYP", 
		 "basiset": "6-31G**", 
		 "properties": { 
			 "R2extent": 5185.754, 
			 "electric_dipole_moment_norm": 2.37536276598, 
			 "electric_quadrupole_moment_norm": 23.8441188281, 
			 "total_energy": -759.11001182, 
			 "HOMO_LUMO_gap": 0.16067, 
			 "cosmo_polarized_energy": -16.66, 
			 "cosmo_cavitation_energy": 29.25, 
			 "cosmo_dispersion_energy": -21.87, 
			 "cosmo_repulsion_energy": 1.69, 
			 "cosmo_total_nonelectrostatic_energy": 9.07, 
			 "SMD_solvation_energy": 5.99 
		},
		"coords": [
			{
				"x": -0.3786858625,
				"y": 4.3748460893,
				"z": -0.7578320246,
				"element": "O" 
			},
			{
				"x": 0.0936309959,
				"y": 3.2564521449,
				"z": -0.623285129,
				"element": "C" 
			},
			{
				"x": 1.1856229349,
				"y": 2.9446328253,
				"z": 0.2976535464,
				"element": "C" 
			},
			{
				"x": 1.7094810237,
				"y": 3.8467680952,
				"z": 1.2175984358,
				"element": "C" 
			},
			{
				"x": 2.6076209742,
				"y": 3.1620881539,
				"z": 1.9467827669,
				"element": "N" 
			},
			{
				"x": 2.7357317532,
				"y": 1.8640167945,
				"z": 1.5750827475,
				"element": "N" 
			},
			{
				"x": 1.8721365546,
				"y": 1.7122539518,
				"z": 0.5674030086,
				"element": "C" 
			},
			{
				"x": 1.7333616346,
				"y": 0.3993310613,
				"z": -0.0886303206,
				"element": "C" 
			},
			{
				"x": 1.4987396385,
				"y": 0.3123193164,
				"z": -1.4826872203,
				"element": "C" 
			},
			{
				"x": 1.3856318229,
				"y": -0.9495605076,
				"z": -2.026829745,
				"element": "C" 
			},
			{
				"x": 1.5053828892,
				"y": -2.1034796614,
				"z": -1.2563271699,
				"element": "C" 
			},
			{
				"x": 1.3574161909,
				"y": -3.2113438941,
				"z": -2.0518668017,
				"element": "O" 
			},
			{
				"x": 1.1523884258,
				"y": -2.7209268569,
				"z": -3.3836031529,
				"element": "C" 
			},
			{
				"x": 1.1653744526,
				"y": -1.2889647465,
				"z": -3.3395342718,
				"element": "O" 
			},
			{
				"x": 1.7478617051,
				"y": -2.0462268078,
				"z": 0.1027503592,
				"element": "C" 
			},
			{
				"x": 1.858675714,
				"y": -0.769867042,
				"z": 0.6761737774,
				"element": "C" 
			},
			{
				"x": -0.31113257,
				"y": 2.3984398309,
				"z": -1.1966633436,
				"element": "H" 
			},
			{
				"x": 1.4759333083,
				"y": 4.8876570167,
				"z": 1.3843750764,
				"element": "H" 
			},
			{
				"x": 3.1857020093,
				"y": 3.5074274019,
				"z": 2.6980385058,
				"element": "H" 
			},
			{
				"x": 1.444356269,
				"y": 1.1942840796,
				"z": -2.1092665101,
				"element": "H" 
			},
			{
				"x": 1.963512134,
				"y": -3.0750714413,
				"z": -4.0320084745,
				"element": "H" 
			},
			{
				"x": 0.1801012004,
				"y": -3.0673409035,
				"z": -3.7544983488,
				"element": "H" 
			},
			{
				"x": 1.8426953748,
				"y": -2.9476885238,
				"z": 0.6973019655,
				"element": "H" 
			},
			{
				"x": 2.0447614264,
				"y": -0.6747463768,
				"z": 1.7397723232,
				"element": "H" 
			}
		],
		 "valence_orbital": [ 
			{
				"type": "occ",
				"energy": -0.27768,
				"method": "rhf"
			},
			{
				"type": "occ",
				"energy": -0.26001,
				"method": "rhf"
			},
			{
				"type": "occ",
				"energy": -0.25148,
				"method": "rhf"
			},
			{
				"type": "occ",
				"energy": -0.24218,
				"method": "rhf"
			},
			{
				"type": "occ",
				"energy": -0.20646,
				"method": "rhf"
			},
			{
				"type": "unocc",
				"energy": -0.04579,
				"method": "rhf"
			},
			{
				"type": "unocc",
				"energy": -0.01856,
				"method": "rhf"
			},
			{
				"type": "unocc",
				"energy": -0.00284,
				"method": "rhf"
			},
			{
				"type": "unocc",
				"energy": 0.03429,
				"method": "rhf"
			},
			{
				"type": "unocc",
				"energy": 0.06719,
				"method": "rhf"
			}
		],
		"cosmo_sigma_profile": { 
			"-0.025": 0.0,
			"-0.024": 0.0,
			"-0.023": 0.0,
			"-0.022": 0.0,
			"-0.021": 0.0,
			"-0.02": 0.0,
			"-0.019": 0.0,
			"-0.018": 0.514050599569,
			"-0.017": 1.95748132651,
			"-0.016": 1.81168993545,
			"-0.015": 0.692566503394,
			"-0.014": 0.819116720851,
			"-0.013": 1.10277452161,
			"-0.012": 1.71070388517,
			"-0.011": 1.43832815729,
			"-0.01": 2.60651750535,
			"-0.009": 2.61720021544,
			"-0.008": 5.75583117141,
			"-0.007": 13.2519524219,
			"-0.006": 13.3190292915,
			"-0.005": 12.2816068526,
			"-0.004": 11.7932275919,
			"-0.003": 11.9259363265,
			"-0.002": 9.85466000554,
			"-0.001": 11.287255335,
			"0.0": 14.2319087713,
			"0.001": 18.4034549436,
			"0.002": 19.9412349171,
			"0.003": 15.5929554718,
			"0.004": 12.6554938418,
			"0.005": 8.16263756024,
			"0.006": 6.01446988468,
			"0.007": 6.08339397159,
			"0.008": 5.35097964418,
			"0.009": 6.8683861926,
			"0.01": 3.76210447,
			"0.011": 3.88111981937,
			"0.012": 6.00596867197,
			"0.013": 2.64240144887,
			"0.014": 0.964909954891,
			"0.015": 0.339588952028,
			"0.016": 0.0,
			"0.017": 0.0,
			"0.018": 0.0,
			"0.019": 0.0,
			"0.02": 0.0,
			"0.021": 0.0,
			"0.022": 0.0,
			"0.023": 0.0,
			"0.024": 0.0,
			"0.025": 0.0
		}
	}
}
