{
	 "smiles": "CC1=C(C)C=C(Cl)C=C1", 
	 "Tm": 267.15, 
	 "num_atms": 18, 
	 "gaussian": { 
		 "optdone": 1, 
		 "sigma_profile": "yes", 
		 "theory": "DFT", 
		 "functional": "B3LYP", 
		 "basiset": "6-31G**", 
		 "properties": { 
			 "R2extent": 1989.4974, 
			 "electric_dipole_moment_norm": 2.59207593446, 
			 "electric_quadrupole_moment_norm": 6.54361486871, 
			 "total_energy": -770.484042945, 
			 "HOMO_LUMO_gap": 0.22582, 
			 "cosmo_polarized_energy": -4.0, 
			 "cosmo_cavitation_energy": 22.79, 
			 "cosmo_dispersion_energy": -16.94, 
			 "cosmo_repulsion_energy": 1.38, 
			 "cosmo_total_nonelectrostatic_energy": 7.24, 
			 "SMD_solvation_energy": 3.7 
		},
		"coords": [
			{
				"x": 0.7245280988,
				"y": -1.8452772768,
				"z": 0.9653051214,
				"element": "C" 
			},
			{
				"x": 0.4278099283,
				"y": -0.7168316273,
				"z": 0.0073164185,
				"element": "C" 
			},
			{
				"x": 1.1787897109,
				"y": 0.47868699,
				"z": 0.0402762966,
				"element": "C" 
			},
			{
				"x": 2.3002074911,
				"y": 0.662117723,
				"z": 1.0351424001,
				"element": "C" 
			},
			{
				"x": 0.8771074605,
				"y": 1.5041637857,
				"z": -0.8618396162,
				"element": "C" 
			},
			{
				"x": -0.1547468242,
				"y": 1.3506803165,
				"z": -1.7861661317,
				"element": "C" 
			},
			{
				"x": -0.509553163,
				"y": 2.6604889079,
				"z": -2.9083474321,
				"element": "Cl" 
			},
			{
				"x": -0.9051386786,
				"y": 0.1807165515,
				"z": -1.8335902547,
				"element": "C" 
			},
			{
				"x": -0.6011240594,
				"y": -0.8399294189,
				"z": -0.9320497062,
				"element": "C" 
			},
			{
				"x": 0.6157395495,
				"y": -1.5298518054,
				"z": 2.0101996228,
				"element": "H" 
			},
			{
				"x": 0.0499408298,
				"y": -2.6892933012,
				"z": 0.8005270815,
				"element": "H" 
			},
			{
				"x": 1.752134499,
				"y": -2.2124689795,
				"z": 0.8542097444,
				"element": "H" 
			},
			{
				"x": 1.9402041584,
				"y": 0.5805225549,
				"z": 2.0678800556,
				"element": "H" 
			},
			{
				"x": 2.773216558,
				"y": 1.6407389514,
				"z": 0.9225997035,
				"element": "H" 
			},
			{
				"x": 3.0772650128,
				"y": -0.1019766409,
				"z": 0.9120765175,
				"element": "H" 
			},
			{
				"x": 1.4481664623,
				"y": 2.4268667082,
				"z": -0.8448067607,
				"element": "H" 
			},
			{
				"x": -1.7061881942,
				"y": 0.0694384557,
				"z": -2.5557705333,
				"element": "H" 
			},
			{
				"x": -1.1826588399,
				"y": -1.7578918949,
				"z": -0.9621625271,
				"element": "H" 
			}
		],
		 "valence_orbital": [ 
			{
				"type": "occ",
				"energy": -0.34692,
				"method": "rhf"
			},
			{
				"type": "occ",
				"energy": -0.31745,
				"method": "rhf"
			},
			{
				"type": "occ",
				"energy": -0.30603,
				"method": "rhf"
			},
			{
				"type": "occ",
				"energy": -0.25149,
				"method": "rhf"
			},
			{
				"type": "occ",
				"energy": -0.23292,
				"method": "rhf"
			},
			{
				"type": "unocc",
				"energy": -0.0071,
				"method": "rhf"
			},
			{
				"type": "unocc",
				"energy": -0.00442,
				"method": "rhf"
			},
			{
				"type": "unocc",
				"energy": 0.03519,
				"method": "rhf"
			},
			{
				"type": "unocc",
				"energy": 0.0893,
				"method": "rhf"
			},
			{
				"type": "unocc",
				"energy": 0.11913,
				"method": "rhf"
			}
		],
		"cosmo_sigma_profile": { 
			"-0.025": 0.0,
			"-0.024": 0.0,
			"-0.023": 0.0,
			"-0.022": 0.0,
			"-0.021": 0.0,
			"-0.02": 0.0,
			"-0.019": 0.0,
			"-0.018": 0.0,
			"-0.017": 0.0,
			"-0.016": 0.0,
			"-0.015": 0.0,
			"-0.014": 0.0,
			"-0.013": 0.0,
			"-0.012": 0.0,
			"-0.011": 0.0,
			"-0.01": 0.0,
			"-0.009": 0.0,
			"-0.008": 0.0,
			"-0.007": 0.835031117501,
			"-0.006": 5.44528376109,
			"-0.005": 8.90210393142,
			"-0.004": 18.3855092203,
			"-0.003": 16.1259281475,
			"-0.002": 15.3880808371,
			"-0.001": 18.0297946016,
			"0.0": 20.909991671,
			"0.001": 14.6802540889,
			"0.002": 12.8413158577,
			"0.003": 15.7618479805,
			"0.004": 15.7508663018,
			"0.005": 18.0820334068,
			"0.006": 1.66275086476,
			"0.007": 0.0,
			"0.008": 0.0,
			"0.009": 0.0,
			"0.01": 0.0,
			"0.011": 0.0,
			"0.012": 0.0,
			"0.013": 0.0,
			"0.014": 0.0,
			"0.015": 0.0,
			"0.016": 0.0,
			"0.017": 0.0,
			"0.018": 0.0,
			"0.019": 0.0,
			"0.02": 0.0,
			"0.021": 0.0,
			"0.022": 0.0,
			"0.023": 0.0,
			"0.024": 0.0,
			"0.025": 0.0
		}
	}
}
