{
	 "smiles": "OC(=O)CCOC1=CC(Br)=CC=C1", 
	 "Tm": 337.65, 
	 "num_atms": 22, 
	 "gaussian": { 
		 "optdone": 1, 
		 "sigma_profile": "yes", 
		 "theory": "DFT", 
		 "functional": "B3LYP", 
		 "basiset": "6-31G**", 
		 "properties": { 
			 "R2extent": 5216.7099, 
			 "electric_dipole_moment_norm": 2.47258308253, 
			 "electric_quadrupole_moment_norm": 12.7410032666, 
			 "total_energy": -3145.46154792, 
			 "HOMO_LUMO_gap": 0.21312, 
			 "cosmo_polarized_energy": -12.85, 
			 "cosmo_cavitation_energy": 29.09, 
			 "cosmo_dispersion_energy": -21.12, 
			 "cosmo_repulsion_energy": 1.72, 
			 "cosmo_total_nonelectrostatic_energy": 9.68, 
			 "SMD_solvation_energy": 5.24 
		},
		"coords": [
			{
				"x": -0.2040488899,
				"y": 3.0123886693,
				"z": -2.1250501556,
				"element": "O" 
			},
			{
				"x": -0.8601434862,
				"y": 1.8253298174,
				"z": -2.1041100632,
				"element": "C" 
			},
			{
				"x": -0.8668397689,
				"y": 1.0649733903,
				"z": -3.0439620482,
				"element": "O" 
			},
			{
				"x": -1.5846472559,
				"y": 1.6082007281,
				"z": -0.7900622811,
				"element": "C" 
			},
			{
				"x": -0.684007301,
				"y": 1.7955855942,
				"z": 0.4358260161,
				"element": "C" 
			},
			{
				"x": 0.4236803134,
				"y": 0.8974828896,
				"z": 0.4373484796,
				"element": "O" 
			},
			{
				"x": 0.2618686513,
				"y": -0.3963818171,
				"z": 0.846720001,
				"element": "C" 
			},
			{
				"x": -0.9288733877,
				"y": -0.9288338605,
				"z": 1.3562053523,
				"element": "C" 
			},
			{
				"x": -0.9454376362,
				"y": -2.2646690819,
				"z": 1.7617115734,
				"element": "C" 
			},
			{
				"x": -2.5779868234,
				"y": -2.9833031924,
				"z": 2.4578730464,
				"element": "Br" 
			},
			{
				"x": 0.1746457603,
				"y": -3.0824153365,
				"z": 1.6743976335,
				"element": "C" 
			},
			{
				"x": 1.3528134137,
				"y": -2.5304610463,
				"z": 1.1595885306,
				"element": "C" 
			},
			{
				"x": 1.4044341033,
				"y": -1.2045673692,
				"z": 0.7481412784,
				"element": "C" 
			},
			{
				"x": 0.2302667973,
				"y": 3.0661666053,
				"z": -2.992803082,
				"element": "H" 
			},
			{
				"x": -2.4018405386,
				"y": 2.3383008857,
				"z": -0.72918597,
				"element": "H" 
			},
			{
				"x": -2.0234773543,
				"y": 0.6096517045,
				"z": -0.822496928,
				"element": "H" 
			},
			{
				"x": -1.2660925961,
				"y": 1.7019022833,
				"z": 1.3600392702,
				"element": "H" 
			},
			{
				"x": -0.2353928458,
				"y": 2.790440348,
				"z": 0.4169441456,
				"element": "H" 
			},
			{
				"x": -1.8304438235,
				"y": -0.3382068217,
				"z": 1.4436376553,
				"element": "H" 
			},
			{
				"x": 0.1307745574,
				"y": -4.1162918063,
				"z": 1.994138626,
				"element": "H" 
			},
			{
				"x": 2.2410954963,
				"y": -3.1502233956,
				"z": 1.0806629379,
				"element": "H" 
			},
			{
				"x": 2.3135526146,
				"y": -0.7684691882,
				"z": 0.3489359817,
				"element": "H" 
			}
		],
		 "valence_orbital": [ 
			{
				"type": "occ",
				"energy": -0.30105,
				"method": "rhf"
			},
			{
				"type": "occ",
				"energy": -0.28657,
				"method": "rhf"
			},
			{
				"type": "occ",
				"energy": -0.27927,
				"method": "rhf"
			},
			{
				"type": "occ",
				"energy": -0.25039,
				"method": "rhf"
			},
			{
				"type": "occ",
				"energy": -0.22844,
				"method": "rhf"
			},
			{
				"type": "unocc",
				"energy": -0.01532,
				"method": "rhf"
			},
			{
				"type": "unocc",
				"energy": -0.00095,
				"method": "rhf"
			},
			{
				"type": "unocc",
				"energy": 0.00141,
				"method": "rhf"
			},
			{
				"type": "unocc",
				"energy": 0.00593,
				"method": "rhf"
			},
			{
				"type": "unocc",
				"energy": 0.06843,
				"method": "rhf"
			}
		],
		"cosmo_sigma_profile": { 
			"-0.025": 0.0,
			"-0.024": 0.0,
			"-0.023": 0.0,
			"-0.022": 0.0,
			"-0.021": 0.0,
			"-0.02": 0.0,
			"-0.019": 0.00599666713767,
			"-0.018": 0.559728118953,
			"-0.017": 1.38273926692,
			"-0.016": 0.653801976092,
			"-0.015": 0.69444373024,
			"-0.014": 0.430500245448,
			"-0.013": 0.978477902949,
			"-0.012": 0.51888125217,
			"-0.011": 1.13411625485,
			"-0.01": 0.838593466495,
			"-0.009": 1.33546522411,
			"-0.008": 4.49637528214,
			"-0.007": 9.89758951265,
			"-0.006": 16.1034171119,
			"-0.005": 14.6700007205,
			"-0.004": 14.9225877592,
			"-0.003": 13.3355397864,
			"-0.002": 10.8161343157,
			"-0.001": 11.2226546289,
			"0.0": 11.9709374994,
			"0.001": 12.9739900042,
			"0.002": 20.5411323122,
			"0.003": 23.4265036189,
			"0.004": 24.0974557131,
			"0.005": 13.0593529077,
			"0.006": 3.41034593797,
			"0.007": 3.0787030443,
			"0.008": 3.37894453985,
			"0.009": 3.36015773608,
			"0.01": 2.59935244653,
			"0.011": 3.77439964632,
			"0.012": 4.47234660246,
			"0.013": 0.720847875191,
			"0.014": 0.0,
			"0.015": 0.0,
			"0.016": 0.0,
			"0.017": 0.0,
			"0.018": 0.0,
			"0.019": 0.0,
			"0.02": 0.0,
			"0.021": 0.0,
			"0.022": 0.0,
			"0.023": 0.0,
			"0.024": 0.0,
			"0.025": 0.0
		}
	}
}
