{
	 "smiles": "FC1=CC=C(NCCC#N)C=C1", 
	 "Tm": 313.15, 
	 "num_atms": 21, 
	 "gaussian": { 
		 "optdone": 1, 
		 "sigma_profile": "yes", 
		 "theory": "DFT", 
		 "functional": "B3LYP", 
		 "basiset": "6-31G**", 
		 "properties": { 
			 "R2extent": 3020.3043, 
			 "electric_dipole_moment_norm": 3.11646965331, 
			 "electric_quadrupole_moment_norm": 21.5200725343, 
			 "total_energy": -557.699496362, 
			 "HOMO_LUMO_gap": 0.19112, 
			 "cosmo_polarized_energy": -13.58, 
			 "cosmo_cavitation_energy": 26.31, 
			 "cosmo_dispersion_energy": -18.17, 
			 "cosmo_repulsion_energy": 1.44, 
			 "cosmo_total_nonelectrostatic_energy": 9.57, 
			 "SMD_solvation_energy": 5.34 
		},
		"coords": [
			{
				"x": 3.6706749439,
				"y": 1.6493012149,
				"z": 3.1057030826,
				"element": "F" 
			},
			{
				"x": 2.817161728,
				"y": 1.1971360375,
				"z": 2.1584435935,
				"element": "C" 
			},
			{
				"x": 2.8260781198,
				"y": 1.7763185462,
				"z": 0.8981580437,
				"element": "C" 
			},
			{
				"x": 1.9421253346,
				"y": 1.3123953031,
				"z": -0.0782212563,
				"element": "C" 
			},
			{
				"x": 1.0469010012,
				"y": 0.2643973153,
				"z": 0.2011030619,
				"element": "C" 
			},
			{
				"x": 0.1851176715,
				"y": -0.2723013463,
				"z": -0.766155941,
				"element": "N" 
			},
			{
				"x": -0.2385681503,
				"y": 0.4818477187,
				"z": -1.9252510336,
				"element": "C" 
			},
			{
				"x": -1.1498901987,
				"y": 1.7041684638,
				"z": -1.6176499355,
				"element": "C" 
			},
			{
				"x": -2.4025090296,
				"y": 1.2907219375,
				"z": -0.9832287021,
				"element": "C" 
			},
			{
				"x": -3.3786711415,
				"y": 0.9125163098,
				"z": -0.4811571438,
				"element": "N" 
			},
			{
				"x": 1.0622707816,
				"y": -0.2973255158,
				"z": 1.4924548748,
				"element": "C" 
			},
			{
				"x": 1.9418477204,
				"y": 0.1612226237,
				"z": 2.4673925834,
				"element": "C" 
			},
			{
				"x": 3.5184244561,
				"y": 2.5836440835,
				"z": 0.6844740222,
				"element": "H" 
			},
			{
				"x": 1.969681501,
				"y": 1.7688727085,
				"z": -1.061667591,
				"element": "H" 
			},
			{
				"x": -0.5495601699,
				"y": -0.8454938023,
				"z": -0.3717328176,
				"element": "H" 
			},
			{
				"x": -0.7697611087,
				"y": -0.2009314614,
				"z": -2.5945634887,
				"element": "H" 
			},
			{
				"x": 0.6377561413,
				"y": 0.838568452,
				"z": -2.4745570367,
				"element": "H" 
			},
			{
				"x": -0.6288111195,
				"y": 2.3986254066,
				"z": -0.9496427758,
				"element": "H" 
			},
			{
				"x": -1.3798208261,
				"y": 2.245648686,
				"z": -2.5427809491,
				"element": "H" 
			},
			{
				"x": 0.3761386687,
				"y": -1.1063789128,
				"z": 1.7300089486,
				"element": "H" 
			},
			{
				"x": 1.9519136762,
				"y": -0.2718537685,
				"z": 3.4618704607,
				"element": "H" 
			}
		],
		 "valence_orbital": [ 
			{
				"type": "occ",
				"energy": -0.33437,
				"method": "rhf"
			},
			{
				"type": "occ",
				"energy": -0.32993,
				"method": "rhf"
			},
			{
				"type": "occ",
				"energy": -0.29779,
				"method": "rhf"
			},
			{
				"type": "occ",
				"energy": -0.26188,
				"method": "rhf"
			},
			{
				"type": "occ",
				"energy": -0.20518,
				"method": "rhf"
			},
			{
				"type": "unocc",
				"energy": -0.01406,
				"method": "rhf"
			},
			{
				"type": "unocc",
				"energy": 0.01276,
				"method": "rhf"
			},
			{
				"type": "unocc",
				"energy": 0.02413,
				"method": "rhf"
			},
			{
				"type": "unocc",
				"energy": 0.03338,
				"method": "rhf"
			},
			{
				"type": "unocc",
				"energy": 0.07364,
				"method": "rhf"
			}
		],
		"cosmo_sigma_profile": { 
			"-0.025": 0.0,
			"-0.024": 0.0,
			"-0.023": 0.0,
			"-0.022": 0.0,
			"-0.021": 0.0,
			"-0.02": 0.0,
			"-0.019": 0.0,
			"-0.018": 0.0,
			"-0.017": 0.0,
			"-0.016": 0.0,
			"-0.015": 0.0,
			"-0.014": 0.0,
			"-0.013": 0.216287041876,
			"-0.012": 0.871733568078,
			"-0.011": 1.59191214479,
			"-0.01": 1.53285187593,
			"-0.009": 1.91200378636,
			"-0.008": 6.70067105406,
			"-0.007": 13.2988162057,
			"-0.006": 19.8083269325,
			"-0.005": 15.5084404313,
			"-0.004": 13.8017908526,
			"-0.003": 9.77768035091,
			"-0.002": 8.58702141027,
			"-0.001": 7.93266120462,
			"0.0": 8.24095458586,
			"0.001": 8.15304606002,
			"0.002": 13.268410392,
			"0.003": 12.6608262637,
			"0.004": 14.5942060864,
			"0.005": 22.9633089614,
			"0.006": 5.58410750145,
			"0.007": 3.0240438011,
			"0.008": 3.49688062536,
			"0.009": 4.1069451527,
			"0.01": 4.11133014265,
			"0.011": 3.34134615215,
			"0.012": 2.83899628081,
			"0.013": 2.07932344815,
			"0.014": 0.497290593231,
			"0.015": 0.0,
			"0.016": 0.0,
			"0.017": 0.0,
			"0.018": 0.0,
			"0.019": 0.0,
			"0.02": 0.0,
			"0.021": 0.0,
			"0.022": 0.0,
			"0.023": 0.0,
			"0.024": 0.0,
			"0.025": 0.0
		}
	}
}
