{
	 "smiles": "FC(F)(F)OC1=CC=CC=C1", 
	 "Tm": 223.15, 
	 "num_atms": 16, 
	 "gaussian": { 
		 "optdone": 1, 
		 "sigma_profile": "yes", 
		 "theory": "DFT", 
		 "functional": "B3LYP", 
		 "basiset": "6-31G**", 
		 "properties": { 
			 "R2extent": 2190.5137, 
			 "electric_dipole_moment_norm": 1.98379846255, 
			 "electric_quadrupole_moment_norm": 3.97640798712, 
			 "total_energy": -644.503449675, 
			 "HOMO_LUMO_gap": 0.23255, 
			 "cosmo_polarized_energy": -3.25, 
			 "cosmo_cavitation_energy": 21.63, 
			 "cosmo_dispersion_energy": -15.82, 
			 "cosmo_repulsion_energy": 1.21, 
			 "cosmo_total_nonelectrostatic_energy": 7.02, 
			 "SMD_solvation_energy": 5.34 
		},
		"coords": [
			{
				"x": 2.0472970264,
				"y": 0.699598635,
				"z": -2.1682888436,
				"element": "F" 
			},
			{
				"x": 2.1956866659,
				"y": -0.5870113222,
				"z": -1.7929496938,
				"element": "C" 
			},
			{
				"x": 2.437686722,
				"y": -1.31774455,
				"z": -2.8806263312,
				"element": "F" 
			},
			{
				"x": 3.278656145,
				"y": -0.6440716426,
				"z": -0.9916067666,
				"element": "F" 
			},
			{
				"x": 1.0850009855,
				"y": -1.0903972674,
				"z": -1.205393553,
				"element": "O" 
			},
			{
				"x": 0.5661382771,
				"y": -0.5372761254,
				"z": -0.0301815129,
				"element": "C" 
			},
			{
				"x": -0.580268738,
				"y": -1.1779638675,
				"z": 0.4395409454,
				"element": "C" 
			},
			{
				"x": -1.1910740909,
				"y": -0.7187484404,
				"z": 1.6041394881,
				"element": "C" 
			},
			{
				"x": -0.6604361306,
				"y": 0.3731885318,
				"z": 2.2951274965,
				"element": "C" 
			},
			{
				"x": 0.4862357552,
				"y": 1.000795443,
				"z": 1.810067596,
				"element": "C" 
			},
			{
				"x": 1.1131069467,
				"y": 0.5546857388,
				"z": 0.6435476179,
				"element": "C" 
			},
			{
				"x": -0.973291162,
				"y": -2.0236835402,
				"z": -0.1143285469,
				"element": "H" 
			},
			{
				"x": -2.0835760515,
				"y": -1.2172665538,
				"z": 1.9702096675,
				"element": "H" 
			},
			{
				"x": -1.1367228856,
				"y": 0.7306675697,
				"z": 3.2026130668,
				"element": "H" 
			},
			{
				"x": 0.9073211306,
				"y": 1.8505332044,
				"z": 2.3391488288,
				"element": "H" 
			},
			{
				"x": 2.0020394042,
				"y": 1.052794187,
				"z": 0.280580541,
				"element": "H" 
			}
		],
		 "valence_orbital": [ 
			{
				"type": "occ",
				"energy": -0.3727,
				"method": "rhf"
			},
			{
				"type": "occ",
				"energy": -0.35361,
				"method": "rhf"
			},
			{
				"type": "occ",
				"energy": -0.35342,
				"method": "rhf"
			},
			{
				"type": "occ",
				"energy": -0.2638,
				"method": "rhf"
			},
			{
				"type": "occ",
				"energy": -0.2466,
				"method": "rhf"
			},
			{
				"type": "unocc",
				"energy": -0.01405,
				"method": "rhf"
			},
			{
				"type": "unocc",
				"energy": -0.00627,
				"method": "rhf"
			},
			{
				"type": "unocc",
				"energy": 0.07901,
				"method": "rhf"
			},
			{
				"type": "unocc",
				"energy": 0.1357,
				"method": "rhf"
			},
			{
				"type": "unocc",
				"energy": 0.13805,
				"method": "rhf"
			}
		],
		"cosmo_sigma_profile": { 
			"-0.025": 0.0,
			"-0.024": 0.0,
			"-0.023": 0.0,
			"-0.022": 0.0,
			"-0.021": 0.0,
			"-0.02": 0.0,
			"-0.019": 0.0,
			"-0.018": 0.0,
			"-0.017": 0.0,
			"-0.016": 0.0,
			"-0.015": 0.0,
			"-0.014": 0.0,
			"-0.013": 0.0,
			"-0.012": 0.0,
			"-0.011": 0.0,
			"-0.01": 0.0,
			"-0.009": 0.0,
			"-0.008": 0.0462857830312,
			"-0.007": 3.69392281425,
			"-0.006": 9.57568721537,
			"-0.005": 9.67356732338,
			"-0.004": 11.0263060214,
			"-0.003": 7.18474293424,
			"-0.002": 9.30901268917,
			"-0.001": 11.3803607926,
			"0.0": 15.3648657555,
			"0.001": 27.1539107441,
			"0.002": 37.2119820029,
			"0.003": 13.2566423689,
			"0.004": 12.5113879153,
			"0.005": 5.88180858299,
			"0.006": 0.892006426005,
			"0.007": 0.0,
			"0.008": 0.0,
			"0.009": 0.0,
			"0.01": 0.0,
			"0.011": 0.0,
			"0.012": 0.0,
			"0.013": 0.0,
			"0.014": 0.0,
			"0.015": 0.0,
			"0.016": 0.0,
			"0.017": 0.0,
			"0.018": 0.0,
			"0.019": 0.0,
			"0.02": 0.0,
			"0.021": 0.0,
			"0.022": 0.0,
			"0.023": 0.0,
			"0.024": 0.0,
			"0.025": 0.0
		}
	}
}
