{
	 "smiles": "OC(=O)C1CCN(CC1)S(=O)(=O)C1=C(F)C=CC=C1", 
	 "Tm": 404.15, 
	 "num_atms": 33, 
	 "gaussian": { 
		 "optdone": 1, 
		 "sigma_profile": "yes", 
		 "theory": "DFT", 
		 "functional": "B3LYP", 
		 "basiset": "6-31G**", 
		 "properties": { 
			 "R2extent": 6118.8813, 
			 "electric_dipole_moment_norm": 7.32405212775, 
			 "electric_quadrupole_moment_norm": 17.5689819523, 
			 "total_energy": -1319.32018266, 
			 "HOMO_LUMO_gap": 0.20478, 
			 "cosmo_polarized_energy": -23.5, 
			 "cosmo_cavitation_energy": 36.64, 
			 "cosmo_dispersion_energy": -26.15, 
			 "cosmo_repulsion_energy": 1.93, 
			 "cosmo_total_nonelectrostatic_energy": 12.42, 
			 "SMD_solvation_energy": 6.1 
		},
		"coords": [
			{
				"x": -0.9280117654,
				"y": 4.438326425,
				"z": 0.7456510387,
				"element": "O" 
			},
			{
				"x": -0.0644768191,
				"y": 3.4309877361,
				"z": 1.0502328336,
				"element": "C" 
			},
			{
				"x": 0.4927226876,
				"y": 3.4284970587,
				"z": 2.1203021863,
				"element": "O" 
			},
			{
				"x": 0.1223848818,
				"y": 2.3705318479,
				"z": -0.0407137348,
				"element": "C" 
			},
			{
				"x": 1.2355462287,
				"y": 1.3712662718,
				"z": 0.3248106458,
				"element": "C" 
			},
			{
				"x": 0.8058132206,
				"y": 0.3689514573,
				"z": 1.4037876413,
				"element": "C" 
			},
			{
				"x": -0.4525923476,
				"y": -0.278718458,
				"z": 0.9904547715,
				"element": "N" 
			},
			{
				"x": -1.5752490985,
				"y": 0.6443598953,
				"z": 0.7752493467,
				"element": "C" 
			},
			{
				"x": -1.1974748239,
				"y": 1.6162361129,
				"z": -0.3468514304,
				"element": "C" 
			},
			{
				"x": -0.7713266362,
				"y": -1.83022638,
				"z": 1.5414366667,
				"element": "S" 
			},
			{
				"x": 0.0868074227,
				"y": -2.1256829502,
				"z": 2.6934270017,
				"element": "O" 
			},
			{
				"x": -2.2252255444,
				"y": -1.9865666465,
				"z": 1.6162064268,
				"element": "O" 
			},
			{
				"x": -0.1648125389,
				"y": -2.8617708446,
				"z": 0.1984652549,
				"element": "C" 
			},
			{
				"x": -0.6486778991,
				"y": -2.71590327,
				"z": -1.1035415442,
				"element": "C" 
			},
			{
				"x": -1.5493554582,
				"y": -1.7515397684,
				"z": -1.379043158,
				"element": "F" 
			},
			{
				"x": -0.2125611033,
				"y": -3.5356576567,
				"z": -2.1349669369,
				"element": "C" 
			},
			{
				"x": 0.7257346034,
				"y": -4.5315153187,
				"z": -1.8548325578,
				"element": "C" 
			},
			{
				"x": 1.2196040239,
				"y": -4.6946272084,
				"z": -0.5592493052,
				"element": "C" 
			},
			{
				"x": 0.7735887038,
				"y": -3.8606987266,
				"z": 0.4669241847,
				"element": "C" 
			},
			{
				"x": -1.2732077945,
				"y": 4.3285877457,
				"z": -0.1516135971,
				"element": "H" 
			},
			{
				"x": 0.4233460473,
				"y": 2.9149258389,
				"z": -0.9477698781,
				"element": "H" 
			},
			{
				"x": 2.1188611148,
				"y": 1.9116666114,
				"z": 0.6765436572,
				"element": "H" 
			},
			{
				"x": 1.5132598306,
				"y": 0.8204598086,
				"z": -0.5810013111,
				"element": "H" 
			},
			{
				"x": 0.6790928477,
				"y": 0.8797340003,
				"z": 2.365202386,
				"element": "H" 
			},
			{
				"x": 1.572629373,
				"y": -0.3968282437,
				"z": 1.5315462874,
				"element": "H" 
			},
			{
				"x": -2.456860478,
				"y": 0.0666362387,
				"z": 0.5008359938,
				"element": "H" 
			},
			{
				"x": -1.8079418133,
				"y": 1.1915302117,
				"z": 1.7016349361,
				"element": "H" 
			},
			{
				"x": -1.0675128956,
				"y": 1.0410278181,
				"z": -1.2693950781,
				"element": "H" 
			},
			{
				"x": -2.029137295,
				"y": 2.3121045359,
				"z": -0.5123340745,
				"element": "H" 
			},
			{
				"x": -0.6120179616,
				"y": -3.3863134139,
				"z": -3.13218729,
				"element": "H" 
			},
			{
				"x": 1.0697323437,
				"y": -5.1790948525,
				"z": -2.6554519773,
				"element": "H" 
			},
			{
				"x": 1.9486629954,
				"y": -5.4693829786,
				"z": -0.3456628019,
				"element": "H" 
			},
			{
				"x": 1.1400559475,
				"y": -3.9648028976,
				"z": 1.4822034156,
				"element": "H" 
			}
		],
		 "valence_orbital": [ 
			{
				"type": "occ",
				"energy": -0.30288,
				"method": "rhf"
			},
			{
				"type": "occ",
				"energy": -0.28467,
				"method": "rhf"
			},
			{
				"type": "occ",
				"energy": -0.27701,
				"method": "rhf"
			},
			{
				"type": "occ",
				"energy": -0.26814,
				"method": "rhf"
			},
			{
				"type": "occ",
				"energy": -0.24751,
				"method": "rhf"
			},
			{
				"type": "unocc",
				"energy": -0.04273,
				"method": "rhf"
			},
			{
				"type": "unocc",
				"energy": -0.02196,
				"method": "rhf"
			},
			{
				"type": "unocc",
				"energy": -0.00161,
				"method": "rhf"
			},
			{
				"type": "unocc",
				"energy": 0.03743,
				"method": "rhf"
			},
			{
				"type": "unocc",
				"energy": 0.04843,
				"method": "rhf"
			}
		],
		"cosmo_sigma_profile": { 
			"-0.025": 0.0,
			"-0.024": 0.0,
			"-0.023": 0.0,
			"-0.022": 0.0,
			"-0.021": 0.0,
			"-0.02": 0.0,
			"-0.019": 0.337493686686,
			"-0.018": 0.858473613868,
			"-0.017": 1.11454423504,
			"-0.016": 1.47991601176,
			"-0.015": 0.422853838852,
			"-0.014": 1.28132187785,
			"-0.013": 1.23708954183,
			"-0.012": 1.25386034163,
			"-0.011": 1.32197933887,
			"-0.01": 0.886562477016,
			"-0.009": 1.42929214194,
			"-0.008": 4.50170343898,
			"-0.007": 11.012767206,
			"-0.006": 12.8568294671,
			"-0.005": 21.7884349507,
			"-0.004": 26.0718144891,
			"-0.003": 24.0665043898,
			"-0.002": 19.1590082267,
			"-0.001": 20.0286392554,
			"0.0": 18.0685407297,
			"0.001": 19.6750603826,
			"0.002": 17.9501523447,
			"0.003": 14.3696648536,
			"0.004": 6.72866422634,
			"0.005": 5.74038073788,
			"0.006": 5.8605954409,
			"0.007": 4.89997894214,
			"0.008": 6.38375659558,
			"0.009": 7.57250517967,
			"0.01": 11.8442742269,
			"0.011": 12.7949343288,
			"0.012": 5.59081900191,
			"0.013": 1.38286982604,
			"0.014": 0.0563934601843,
			"0.015": 0.0,
			"0.016": 0.0,
			"0.017": 0.0,
			"0.018": 0.0,
			"0.019": 0.0,
			"0.02": 0.0,
			"0.021": 0.0,
			"0.022": 0.0,
			"0.023": 0.0,
			"0.024": 0.0,
			"0.025": 0.0
		}
	}
}
