{
	 "smiles": "O=C(NC1=NC=CC=C1)C1CCCNC1", 
	 "Tm": 368.15, 
	 "num_atms": 30, 
	 "gaussian": { 
		 "optdone": 1, 
		 "sigma_profile": "yes", 
		 "theory": "DFT", 
		 "functional": "B3LYP", 
		 "basiset": "6-31G**", 
		 "properties": { 
			 "R2extent": 3776.5117, 
			 "electric_dipole_moment_norm": 3.43905880438, 
			 "electric_quadrupole_moment_norm": 13.0940980751, 
			 "total_energy": -667.699439229, 
			 "HOMO_LUMO_gap": 0.17227, 
			 "cosmo_polarized_energy": -14.71, 
			 "cosmo_cavitation_energy": 31.54, 
			 "cosmo_dispersion_energy": -23.12, 
			 "cosmo_repulsion_energy": 1.82, 
			 "cosmo_total_nonelectrostatic_energy": 10.24, 
			 "SMD_solvation_energy": 3.39 
		},
		"coords": [
			{
				"x": -1.5954503868,
				"y": 0.989889674,
				"z": 1.6754416703,
				"element": "O" 
			},
			{
				"x": -0.8457635238,
				"y": 0.4848937373,
				"z": 0.8565888618,
				"element": "C" 
			},
			{
				"x": 0.2218569048,
				"y": 1.2849440028,
				"z": 0.4039457805,
				"element": "N" 
			},
			{
				"x": 1.4319894318,
				"y": 1.0307042099,
				"z": -0.2448455901,
				"element": "C" 
			},
			{
				"x": 1.7382000482,
				"y": -0.2173054138,
				"z": -0.6124016765,
				"element": "N" 
			},
			{
				"x": 2.9127893967,
				"y": -0.4223292481,
				"z": -1.2245767763,
				"element": "C" 
			},
			{
				"x": 3.836020662,
				"y": 0.5808890123,
				"z": -1.4963839111,
				"element": "C" 
			},
			{
				"x": 3.5090531573,
				"y": 1.8844527919,
				"z": -1.1064238014,
				"element": "C" 
			},
			{
				"x": 2.2978608743,
				"y": 2.1217881216,
				"z": -0.4761213077,
				"element": "C" 
			},
			{
				"x": -1.0072619513,
				"y": -0.9250421679,
				"z": 0.3005945858,
				"element": "C" 
			},
			{
				"x": -1.2931432464,
				"y": -0.9448337379,
				"z": -1.2250056086,
				"element": "C" 
			},
			{
				"x": -2.744893621,
				"y": -0.5734029001,
				"z": -1.5548295437,
				"element": "C" 
			},
			{
				"x": -3.7117411978,
				"y": -1.4509612447,
				"z": -0.7547372333,
				"element": "C" 
			},
			{
				"x": -3.4371997625,
				"y": -1.2713309651,
				"z": 0.6650936321,
				"element": "N" 
			},
			{
				"x": -2.0990041131,
				"y": -1.7058404222,
				"z": 1.0536847177,
				"element": "C" 
			},
			{
				"x": 0.1411413431,
				"y": 2.2082146251,
				"z": 0.8127899396,
				"element": "H" 
			},
			{
				"x": 3.1189597353,
				"y": -1.4529595696,
				"z": -1.507759067,
				"element": "H" 
			},
			{
				"x": 4.7726741502,
				"y": 0.3531366114,
				"z": -1.9930764336,
				"element": "H" 
			},
			{
				"x": 4.1924977694,
				"y": 2.7074200514,
				"z": -1.2948501864,
				"element": "H" 
			},
			{
				"x": 2.0139814396,
				"y": 3.1233219425,
				"z": -0.1666053977,
				"element": "H" 
			},
			{
				"x": -0.0442947133,
				"y": -1.4238488111,
				"z": 0.4484779851,
				"element": "H" 
			},
			{
				"x": -0.5876795684,
				"y": -0.3009374519,
				"z": -1.7553516955,
				"element": "H" 
			},
			{
				"x": -1.0998261333,
				"y": -1.9667579289,
				"z": -1.5775204106,
				"element": "H" 
			},
			{
				"x": -2.9361902025,
				"y": 0.4764384511,
				"z": -1.3024088744,
				"element": "H" 
			},
			{
				"x": -2.9246378503,
				"y": -0.6937505541,
				"z": -2.6299324459,
				"element": "H" 
			},
			{
				"x": -3.6001110309,
				"y": -2.5033764912,
				"z": -1.0923422205,
				"element": "H" 
			},
			{
				"x": -4.7491330028,
				"y": -1.1574783265,
				"z": -0.950879985,
				"element": "H" 
			},
			{
				"x": -4.1344154408,
				"y": -1.7412298168,
				"z": 1.2331922843,
				"element": "H" 
			},
			{
				"x": -1.9865521632,
				"y": -1.5529457502,
				"z": 2.1307564697,
				"element": "H" 
			},
			{
				"x": -1.9244270045,
				"y": -2.7811624314,
				"z": 0.8455862383,
				"element": "H" 
			}
		],
		 "valence_orbital": [ 
			{
				"type": "occ",
				"energy": -0.29078,
				"method": "rhf"
			},
			{
				"type": "occ",
				"energy": -0.2662,
				"method": "rhf"
			},
			{
				"type": "occ",
				"energy": -0.24948,
				"method": "rhf"
			},
			{
				"type": "occ",
				"energy": -0.22862,
				"method": "rhf"
			},
			{
				"type": "occ",
				"energy": -0.20286,
				"method": "rhf"
			},
			{
				"type": "unocc",
				"energy": -0.03059,
				"method": "rhf"
			},
			{
				"type": "unocc",
				"energy": -0.01811,
				"method": "rhf"
			},
			{
				"type": "unocc",
				"energy": 0.03761,
				"method": "rhf"
			},
			{
				"type": "unocc",
				"energy": 0.07916,
				"method": "rhf"
			},
			{
				"type": "unocc",
				"energy": 0.09168,
				"method": "rhf"
			}
		],
		"cosmo_sigma_profile": { 
			"-0.025": 0.0,
			"-0.024": 0.0,
			"-0.023": 0.0,
			"-0.022": 0.0,
			"-0.021": 0.0,
			"-0.02": 0.0,
			"-0.019": 0.0,
			"-0.018": 0.0,
			"-0.017": 0.0,
			"-0.016": 0.0,
			"-0.015": 0.0370873953996,
			"-0.014": 0.794909621584,
			"-0.013": 1.50274338378,
			"-0.012": 1.13646553152,
			"-0.011": 0.684235123257,
			"-0.01": 1.93507963189,
			"-0.009": 2.6498265987,
			"-0.008": 3.24321573482,
			"-0.007": 6.63891736374,
			"-0.006": 9.69534088316,
			"-0.005": 10.3763619614,
			"-0.004": 10.5596933261,
			"-0.003": 19.1358168281,
			"-0.002": 26.8173007334,
			"-0.001": 34.3511170569,
			"0.0": 28.5368426685,
			"0.001": 19.894600447,
			"0.002": 14.7571004697,
			"0.003": 14.9793120603,
			"0.004": 7.57128679541,
			"0.005": 2.92074765377,
			"0.006": 2.98186223731,
			"0.007": 3.16066400057,
			"0.008": 3.15639806904,
			"0.009": 1.99970049337,
			"0.01": 1.97078255136,
			"0.011": 1.80966714578,
			"0.012": 2.54799712582,
			"0.013": 4.90493729272,
			"0.014": 1.6789462153,
			"0.015": 1.13130543285,
			"0.016": 0.820382883921,
			"0.017": 1.17452743546,
			"0.018": 0.805041585688,
			"0.019": 0.578936816589,
			"0.02": 0.58727803147,
			"0.021": 0.0314008023444,
			"0.022": 0.0,
			"0.023": 0.0,
			"0.024": 0.0,
			"0.025": 0.0
		}
	}
}
