{
	 "smiles": "COP(=S)(OC)OC1=CC(Cl)=C(C=C1)[N+]([O-])=O", 
	 "Tm": 294.15, 
	 "num_atms": 26, 
	 "gaussian": { 
		 "optdone": 1, 
		 "sigma_profile": "yes", 
		 "theory": "DFT", 
		 "functional": "B3LYP", 
		 "basiset": "6-31G**", 
		 "properties": { 
			 "R2extent": 7442.496, 
			 "electric_dipole_moment_norm": 6.58549962114, 
			 "electric_quadrupole_moment_norm": 17.0612140436, 
			 "total_energy": -1940.81972368, 
			 "HOMO_LUMO_gap": 0.16897, 
			 "cosmo_polarized_energy": -14.14, 
			 "cosmo_cavitation_energy": 36.9, 
			 "cosmo_dispersion_energy": -25.85, 
			 "cosmo_repulsion_energy": 1.97, 
			 "cosmo_total_nonelectrostatic_energy": 13.01, 
			 "SMD_solvation_energy": 9.86 
		},
		"coords": [
			{
				"x": -2.6119071495,
				"y": 2.1368398777,
				"z": -3.8717374203,
				"element": "C" 
			},
			{
				"x": -2.3236228032,
				"y": 1.5512890979,
				"z": -2.5832293471,
				"element": "O" 
			},
			{
				"x": -1.1915581579,
				"y": 2.1908243149,
				"z": -1.6362129213,
				"element": "P" 
			},
			{
				"x": 0.5482345944,
				"y": 2.5412667837,
				"z": -2.4007226522,
				"element": "S" 
			},
			{
				"x": -1.9938035404,
				"y": 3.4227118438,
				"z": -0.9888694288,
				"element": "O" 
			},
			{
				"x": -1.3364247457,
				"y": 4.3740969718,
				"z": -0.1279316332,
				"element": "C" 
			},
			{
				"x": -1.2442103518,
				"y": 1.1407674203,
				"z": -0.3793364178,
				"element": "O" 
			},
			{
				"x": -0.6231542371,
				"y": -0.0937940269,
				"z": -0.3623432111,
				"element": "C" 
			},
			{
				"x": -0.9057505507,
				"y": -1.052643884,
				"z": -1.3339056457,
				"element": "C" 
			},
			{
				"x": -0.3023875866,
				"y": -2.3092991341,
				"z": -1.2674038565,
				"element": "C" 
			},
			{
				"x": -0.7517449144,
				"y": -3.4641868649,
				"z": -2.4909226281,
				"element": "Cl" 
			},
			{
				"x": 0.5673003428,
				"y": -2.5950396014,
				"z": -0.201639399,
				"element": "C" 
			},
			{
				"x": 0.813621523,
				"y": -1.6310834613,
				"z": 0.7802365381,
				"element": "C" 
			},
			{
				"x": 0.2331497525,
				"y": -0.3740791528,
				"z": 0.7027157479,
				"element": "C" 
			},
			{
				"x": 1.2685217088,
				"y": -3.8790199055,
				"z": -0.0444342385,
				"element": "N" 
			},
			{
				"x": 1.5641230328,
				"y": -4.2089088097,
				"z": 1.1053213042,
				"element": "O" 
			},
			{
				"x": 1.5389512311,
				"y": -4.5221589601,
				"z": -1.0529218667,
				"element": "O" 
			},
			{
				"x": -1.7007870179,
				"y": 2.2096871178,
				"z": -4.4711674199,
				"element": "H" 
			},
			{
				"x": -3.3257459628,
				"y": 1.467468096,
				"z": -4.3517795871,
				"element": "H" 
			},
			{
				"x": -3.0584891381,
				"y": 3.1259751856,
				"z": -3.7413855964,
				"element": "H" 
			},
			{
				"x": -1.0794196356,
				"y": 3.9026713392,
				"z": 0.8247027531,
				"element": "H" 
			},
			{
				"x": -0.4361687443,
				"y": 4.7681198455,
				"z": -0.6066228106,
				"element": "H" 
			},
			{
				"x": -2.0560897271,
				"y": 5.1758200529,
				"z": 0.0387198305,
				"element": "H" 
			},
			{
				"x": -1.6018288404,
				"y": -0.828090734,
				"z": -2.1317029987,
				"element": "H" 
			},
			{
				"x": 1.4757219902,
				"y": -1.89376908,
				"z": 1.5957147954,
				"element": "H" 
			},
			{
				"x": 0.4313689278,
				"y": 0.3862356677,
				"z": 1.4487581101,
				"element": "H" 
			}
		],
		 "valence_orbital": [ 
			{
				"type": "occ",
				"energy": -0.295,
				"method": "rhf"
			},
			{
				"type": "occ",
				"energy": -0.27931,
				"method": "rhf"
			},
			{
				"type": "occ",
				"energy": -0.27245,
				"method": "rhf"
			},
			{
				"type": "occ",
				"energy": -0.26038,
				"method": "rhf"
			},
			{
				"type": "occ",
				"energy": -0.25925,
				"method": "rhf"
			},
			{
				"type": "unocc",
				"energy": -0.09028,
				"method": "rhf"
			},
			{
				"type": "unocc",
				"energy": -0.04275,
				"method": "rhf"
			},
			{
				"type": "unocc",
				"energy": -0.01694,
				"method": "rhf"
			},
			{
				"type": "unocc",
				"energy": 0.0084,
				"method": "rhf"
			},
			{
				"type": "unocc",
				"energy": 0.02651,
				"method": "rhf"
			}
		],
		"cosmo_sigma_profile": { 
			"-0.025": 0.0,
			"-0.024": 0.0,
			"-0.023": 0.0,
			"-0.022": 0.0,
			"-0.021": 0.0,
			"-0.02": 0.0,
			"-0.019": 0.0,
			"-0.018": 0.0,
			"-0.017": 0.0,
			"-0.016": 0.0,
			"-0.015": 0.0,
			"-0.014": 0.0,
			"-0.013": 0.0,
			"-0.012": 0.0,
			"-0.011": 0.0,
			"-0.01": 0.0086535511772,
			"-0.009": 2.29070174209,
			"-0.008": 4.90844918722,
			"-0.007": 11.5525356773,
			"-0.006": 16.6700285668,
			"-0.005": 22.5850968142,
			"-0.004": 26.276917926,
			"-0.003": 18.861153376,
			"-0.002": 21.8020049838,
			"-0.001": 28.4618351536,
			"0.0": 19.3716746747,
			"0.001": 15.8545990371,
			"0.002": 15.9575224726,
			"0.003": 16.4369605425,
			"0.004": 12.6265046885,
			"0.005": 11.473716846,
			"0.006": 14.0771502698,
			"0.007": 20.1492441971,
			"0.008": 13.7001528777,
			"0.009": 4.60386373988,
			"0.01": 0.968796654901,
			"0.011": 0.0,
			"0.012": 0.0,
			"0.013": 0.0,
			"0.014": 0.0,
			"0.015": 0.0,
			"0.016": 0.0,
			"0.017": 0.0,
			"0.018": 0.0,
			"0.019": 0.0,
			"0.02": 0.0,
			"0.021": 0.0,
			"0.022": 0.0,
			"0.023": 0.0,
			"0.024": 0.0,
			"0.025": 0.0
		}
	}
}
