{
	 "smiles": "OC(=O)C1=NN(C(=O)CC1)C1=CC=CC=C1", 
	 "Tm": 443.15, 
	 "num_atms": 26, 
	 "gaussian": { 
		 "optdone": 1, 
		 "sigma_profile": "yes", 
		 "theory": "DFT", 
		 "functional": "B3LYP", 
		 "basiset": "6-31G**", 
		 "properties": { 
			 "R2extent": 4340.4071, 
			 "electric_dipole_moment_norm": 2.60226407576, 
			 "electric_quadrupole_moment_norm": 22.5091093835, 
			 "total_energy": -760.362534071, 
			 "HOMO_LUMO_gap": 0.16049, 
			 "cosmo_polarized_energy": -15.74, 
			 "cosmo_cavitation_energy": 30.49, 
			 "cosmo_dispersion_energy": -22.18, 
			 "cosmo_repulsion_energy": 1.73, 
			 "cosmo_total_nonelectrostatic_energy": 10.05, 
			 "SMD_solvation_energy": 6.58 
		},
		"coords": [
			{
				"x": -3.1772790198,
				"y": -2.3213239388,
				"z": -1.4388818223,
				"element": "O" 
			},
			{
				"x": -2.4037655582,
				"y": -2.6932250045,
				"z": -0.4050643298,
				"element": "C" 
			},
			{
				"x": -2.6154199485,
				"y": -3.6898094991,
				"z": 0.2491959199,
				"element": "O" 
			},
			{
				"x": -1.2501129986,
				"y": -1.778068909,
				"z": -0.1058541839,
				"element": "C" 
			},
			{
				"x": -1.15252184,
				"y": -0.7402901722,
				"z": -0.8627580562,
				"element": "N" 
			},
			{
				"x": -0.1458989374,
				"y": 0.1724629316,
				"z": -0.6634250757,
				"element": "N" 
			},
			{
				"x": 0.9806506424,
				"y": -0.0931926695,
				"z": 0.1438673398,
				"element": "C" 
			},
			{
				"x": 1.8419481751,
				"y": 0.7423021602,
				"z": 0.3369023272,
				"element": "O" 
			},
			{
				"x": 1.0571485223,
				"y": -1.51133193,
				"z": 0.6838733778,
				"element": "C" 
			},
			{
				"x": -0.3202694995,
				"y": -2.080704296,
				"z": 1.0275728185,
				"element": "C" 
			},
			{
				"x": -0.3183080555,
				"y": 1.4141683265,
				"z": -1.3677399669,
				"element": "C" 
			},
			{
				"x": -1.5986468448,
				"y": 1.9731400301,
				"z": -1.4347632095,
				"element": "C" 
			},
			{
				"x": -1.8021623825,
				"y": 3.1584843441,
				"z": -2.1395993149,
				"element": "C" 
			},
			{
				"x": -0.7310995192,
				"y": 3.7962238298,
				"z": -2.7669410645,
				"element": "C" 
			},
			{
				"x": 0.5453830772,
				"y": 3.2363699035,
				"z": -2.6894384719,
				"element": "C" 
			},
			{
				"x": 0.7598153903,
				"y": 2.0451684486,
				"z": -1.9972843578,
				"element": "C" 
			},
			{
				"x": -2.7984230585,
				"y": -1.4979226997,
				"z": -1.8019126942,
				"element": "H" 
			},
			{
				"x": 1.7329612989,
				"y": -1.4941294071,
				"z": 1.5402606888,
				"element": "H" 
			},
			{
				"x": 1.5328751463,
				"y": -2.123922357,
				"z": -0.094398084,
				"element": "H" 
			},
			{
				"x": -0.296047407,
				"y": -3.1561957138,
				"z": 1.2139989092,
				"element": "H" 
			},
			{
				"x": -0.7169863272,
				"y": -1.6148446515,
				"z": 1.9413018356,
				"element": "H" 
			},
			{
				"x": -2.4257308276,
				"y": 1.4779586773,
				"z": -0.9383150867,
				"element": "H" 
			},
			{
				"x": -2.7992098154,
				"y": 3.585801607,
				"z": -2.1894192632,
				"element": "H" 
			},
			{
				"x": -0.889157519,
				"y": 4.7228241858,
				"z": -3.3103770999,
				"element": "H" 
			},
			{
				"x": 1.384570646,
				"y": 3.7243073019,
				"z": -3.1760824575,
				"element": "H" 
			},
			{
				"x": 1.7518866603,
				"y": 1.6182495017,
				"z": -1.9368186779,
				"element": "H" 
			}
		],
		 "valence_orbital": [ 
			{
				"type": "occ",
				"energy": -0.29256,
				"method": "rhf"
			},
			{
				"type": "occ",
				"energy": -0.28635,
				"method": "rhf"
			},
			{
				"type": "occ",
				"energy": -0.27017,
				"method": "rhf"
			},
			{
				"type": "occ",
				"energy": -0.26144,
				"method": "rhf"
			},
			{
				"type": "occ",
				"energy": -0.23888,
				"method": "rhf"
			},
			{
				"type": "unocc",
				"energy": -0.07839,
				"method": "rhf"
			},
			{
				"type": "unocc",
				"energy": -0.02875,
				"method": "rhf"
			},
			{
				"type": "unocc",
				"energy": -0.0125,
				"method": "rhf"
			},
			{
				"type": "unocc",
				"energy": 0.01615,
				"method": "rhf"
			},
			{
				"type": "unocc",
				"energy": 0.05926,
				"method": "rhf"
			}
		],
		"cosmo_sigma_profile": { 
			"-0.025": 0.0,
			"-0.024": 0.0,
			"-0.023": 0.0,
			"-0.022": 0.0,
			"-0.021": 0.0,
			"-0.02": 0.0,
			"-0.019": 0.0,
			"-0.018": 0.0,
			"-0.017": 0.0,
			"-0.016": 0.0,
			"-0.015": 0.0,
			"-0.014": 0.35343968174,
			"-0.013": 0.678291957904,
			"-0.012": 0.287428705471,
			"-0.011": 0.761102406952,
			"-0.01": 0.787579113605,
			"-0.009": 0.721716378703,
			"-0.008": 3.92096312361,
			"-0.007": 11.0158327635,
			"-0.006": 22.074517862,
			"-0.005": 25.8140985076,
			"-0.004": 24.5311720139,
			"-0.003": 17.4303587088,
			"-0.002": 12.5885653824,
			"-0.001": 9.01470817415,
			"0.0": 11.9700058715,
			"0.001": 9.48744444849,
			"0.002": 10.8231566181,
			"0.003": 12.264998061,
			"0.004": 13.8382135656,
			"0.005": 12.5213013797,
			"0.006": 4.43690500739,
			"0.007": 3.83909697225,
			"0.008": 4.50777348343,
			"0.009": 6.61722331517,
			"0.01": 7.75541665684,
			"0.011": 8.512717772,
			"0.012": 6.16104488041,
			"0.013": 1.08845916469,
			"0.014": 0.0,
			"0.015": 0.0,
			"0.016": 0.0,
			"0.017": 0.0,
			"0.018": 0.0,
			"0.019": 0.0,
			"0.02": 0.0,
			"0.021": 0.0,
			"0.022": 0.0,
			"0.023": 0.0,
			"0.024": 0.0,
			"0.025": 0.0
		}
	}
}
