{
	 "smiles": "OC(=O)C1=CC=C(C=C1)C#N", 
	 "Tm": 494.15, 
	 "num_atms": 16, 
	 "gaussian": { 
		 "optdone": 1, 
		 "sigma_profile": "yes", 
		 "theory": "DFT", 
		 "functional": "B3LYP", 
		 "basiset": "6-31G**", 
		 "properties": { 
			 "R2extent": 2066.0627, 
			 "electric_dipole_moment_norm": 2.4729886413, 
			 "electric_quadrupole_moment_norm": 24.8367152901, 
			 "total_energy": -513.051609953, 
			 "HOMO_LUMO_gap": 0.19307, 
			 "cosmo_polarized_energy": -18.01, 
			 "cosmo_cavitation_energy": 22.35, 
			 "cosmo_dispersion_energy": -15.91, 
			 "cosmo_repulsion_energy": 1.27, 
			 "cosmo_total_nonelectrostatic_energy": 7.72, 
			 "SMD_solvation_energy": 6.52 
		},
		"coords": [
			{
				"x": -1.4227709134,
				"y": -2.3594818036,
				"z": -1.3461584755,
				"element": "O" 
			},
			{
				"x": -1.7564303911,
				"y": -1.1785716202,
				"z": -0.7646938472,
				"element": "C" 
			},
			{
				"x": -2.897881273,
				"y": -0.7863653526,
				"z": -0.7937066344,
				"element": "O" 
			},
			{
				"x": -0.6474234606,
				"y": -0.4092052937,
				"z": -0.1031544462,
				"element": "C" 
			},
			{
				"x": 0.7047061468,
				"y": -0.5823790442,
				"z": -0.4315923334,
				"element": "C" 
			},
			{
				"x": 1.6871398343,
				"y": 0.1722660831,
				"z": 0.2018184309,
				"element": "C" 
			},
			{
				"x": 1.320489281,
				"y": 1.1118006194,
				"z": 1.1790468521,
				"element": "C" 
			},
			{
				"x": -0.0355090282,
				"y": 1.2992619924,
				"z": 1.5017167084,
				"element": "C" 
			},
			{
				"x": -1.0084772989,
				"y": 0.5482294835,
				"z": 0.8549865164,
				"element": "C" 
			},
			{
				"x": 2.3308992624,
				"y": 1.8851375528,
				"z": 1.8415055579,
				"element": "C" 
			},
			{
				"x": 3.1507944262,
				"y": 2.5103148012,
				"z": 2.3794699308,
				"element": "N" 
			},
			{
				"x": -0.5257378351,
				"y": -2.6214386905,
				"z": -1.0970450895,
				"element": "H" 
			},
			{
				"x": 1.004436017,
				"y": -1.2779078564,
				"z": -1.2110633778,
				"element": "H" 
			},
			{
				"x": 2.7326347368,
				"y": 0.0461425893,
				"z": -0.0572974175,
				"element": "H" 
			},
			{
				"x": -0.3115181048,
				"y": 2.0325199549,
				"z": 2.2517103219,
				"element": "H" 
			},
			{
				"x": -2.0608513993,
				"y": 0.6862765848,
				"z": 1.076857303,
				"element": "H" 
			}
		],
		 "valence_orbital": [ 
			{
				"type": "occ",
				"energy": -0.34605,
				"method": "rhf"
			},
			{
				"type": "occ",
				"energy": -0.33267,
				"method": "rhf"
			},
			{
				"type": "occ",
				"energy": -0.29832,
				"method": "rhf"
			},
			{
				"type": "occ",
				"energy": -0.29448,
				"method": "rhf"
			},
			{
				"type": "occ",
				"energy": -0.28275,
				"method": "rhf"
			},
			{
				"type": "unocc",
				"energy": -0.08968,
				"method": "rhf"
			},
			{
				"type": "unocc",
				"energy": -0.04746,
				"method": "rhf"
			},
			{
				"type": "unocc",
				"energy": 0.00462,
				"method": "rhf"
			},
			{
				"type": "unocc",
				"energy": 0.02056,
				"method": "rhf"
			},
			{
				"type": "unocc",
				"energy": 0.04384,
				"method": "rhf"
			}
		],
		"cosmo_sigma_profile": { 
			"-0.025": 0.0,
			"-0.024": 0.0,
			"-0.023": 0.0,
			"-0.022": 0.0,
			"-0.021": 0.0,
			"-0.02": 0.0735629709687,
			"-0.019": 0.770966588127,
			"-0.018": 0.937768519775,
			"-0.017": 1.29658927134,
			"-0.016": 1.23494348671,
			"-0.015": 0.697996315374,
			"-0.014": 1.01726899349,
			"-0.013": 0.744780800047,
			"-0.012": 1.83846269625,
			"-0.011": 1.17016699589,
			"-0.01": 1.30744995207,
			"-0.009": 4.0336923219,
			"-0.008": 7.52745065466,
			"-0.007": 9.77382931843,
			"-0.006": 7.41313358176,
			"-0.005": 8.08092354477,
			"-0.004": 8.05419092244,
			"-0.003": 10.3392887931,
			"-0.002": 10.7869812384,
			"-0.001": 11.8566652156,
			"0.0": 17.0135271382,
			"0.001": 11.8364370096,
			"0.002": 4.35377832557,
			"0.003": 4.44603999566,
			"0.004": 3.90052787644,
			"0.005": 4.34577082663,
			"0.006": 5.07147637183,
			"0.007": 5.5425631179,
			"0.008": 6.75637771111,
			"0.009": 6.85777204085,
			"0.01": 8.26916381989,
			"0.011": 7.77275539035,
			"0.012": 4.93657030345,
			"0.013": 1.19276968147,
			"0.014": 0.0,
			"0.015": 0.0,
			"0.016": 0.0,
			"0.017": 0.0,
			"0.018": 0.0,
			"0.019": 0.0,
			"0.02": 0.0,
			"0.021": 0.0,
			"0.022": 0.0,
			"0.023": 0.0,
			"0.024": 0.0,
			"0.025": 0.0
		}
	}
}
