{
	 "smiles": "CN(C)S(=O)(=O)C1=CC(=C(C=C1)S(Cl)(=O)=O)[N+]([O-])=O", 
	 "Tm": 427.15, 
	 "num_atms": 28, 
	 "gaussian": { 
		 "optdone": 1, 
		 "sigma_profile": "yes", 
		 "theory": "DFT", 
		 "functional": "B3LYP", 
		 "basiset": "6-31G**", 
		 "properties": { 
			 "R2extent": 9006.7338, 
			 "electric_dipole_moment_norm": 7.11151715318, 
			 "electric_quadrupole_moment_norm": 18.0667257637, 
			 "total_energy": -2127.41300225, 
			 "HOMO_LUMO_gap": 0.15265, 
			 "cosmo_polarized_energy": -19.8, 
			 "cosmo_cavitation_energy": 37.53, 
			 "cosmo_dispersion_energy": -27.19, 
			 "cosmo_repulsion_energy": 2.01, 
			 "cosmo_total_nonelectrostatic_energy": 12.34, 
			 "SMD_solvation_energy": 6.26 
		},
		"coords": [
			{
				"x": 2.9360490381,
				"y": -0.8533092545,
				"z": 0.7541009168,
				"element": "C" 
			},
			{
				"x": 1.79171878,
				"y": -1.7735845988,
				"z": 0.6915959475,
				"element": "N" 
			},
			{
				"x": 2.1565896384,
				"y": -3.1701691344,
				"z": 0.3976301618,
				"element": "C" 
			},
			{
				"x": 0.6726359361,
				"y": -1.575515264,
				"z": 1.9474693127,
				"element": "S" 
			},
			{
				"x": -0.2375228527,
				"y": -2.7203450093,
				"z": 1.8887413026,
				"element": "O" 
			},
			{
				"x": 1.3240386221,
				"y": -1.1786846477,
				"z": 3.2004357629,
				"element": "O" 
			},
			{
				"x": -0.2374561557,
				"y": -0.1278834644,
				"z": 1.3591494039,
				"element": "C" 
			},
			{
				"x": -0.1112264879,
				"y": 1.0762093524,
				"z": 2.0447225753,
				"element": "C" 
			},
			{
				"x": -0.8221893845,
				"y": 2.1872394726,
				"z": 1.5977675459,
				"element": "C" 
			},
			{
				"x": -1.6885546205,
				"y": 2.0834121625,
				"z": 0.5004577251,
				"element": "C" 
			},
			{
				"x": -1.8300806247,
				"y": 0.8544806517,
				"z": -0.1507048279,
				"element": "C" 
			},
			{
				"x": -1.0945251836,
				"y": -0.2524282693,
				"z": 0.267017204,
				"element": "C" 
			},
			{
				"x": -2.8251150551,
				"y": 3.3833878962,
				"z": -0.0701849115,
				"element": "S" 
			},
			{
				"x": -1.5995365965,
				"y": 4.5480150689,
				"z": -1.3213168642,
				"element": "Cl" 
			},
			{
				"x": -3.2585677451,
				"y": 4.1872320031,
				"z": 1.0598705448,
				"element": "O" 
			},
			{
				"x": -3.7824727034,
				"y": 2.7373149926,
				"z": -0.9594281839,
				"element": "O" 
			},
			{
				"x": -0.5631396158,
				"y": 3.4530202612,
				"z": 2.3167808916,
				"element": "N" 
			},
			{
				"x": -0.3514555184,
				"y": 3.3675747163,
				"z": 3.5213647811,
				"element": "O" 
			},
			{
				"x": -0.5303468664,
				"y": 4.4766321674,
				"z": 1.6453796026,
				"element": "O" 
			},
			{
				"x": 3.6263143218,
				"y": -1.0917839181,
				"z": 1.5725977889,
				"element": "H" 
			},
			{
				"x": 3.4671953412,
				"y": -0.9180909962,
				"z": -0.1988996154,
				"element": "H" 
			},
			{
				"x": 2.5878432421,
				"y": 0.1750058804,
				"z": 0.8747706495,
				"element": "H" 
			},
			{
				"x": 1.2586444567,
				"y": -3.7860896495,
				"z": 0.379913642,
				"element": "H" 
			},
			{
				"x": 2.6210993167,
				"y": -3.186413204,
				"z": -0.5920080481,
				"element": "H" 
			},
			{
				"x": 2.864210428,
				"y": -3.5832069649,
				"z": 1.1291192376,
				"element": "H" 
			},
			{
				"x": 0.5257859486,
				"y": 1.1569260842,
				"z": 2.917692685,
				"element": "H" 
			},
			{
				"x": -2.5319127187,
				"y": 0.7736110841,
				"z": -0.971990221,
				"element": "H" 
			},
			{
				"x": -1.2021229409,
				"y": -1.2057574183,
				"z": -0.2379450096,
				"element": "H" 
			}
		],
		 "valence_orbital": [ 
			{
				"type": "occ",
				"energy": -0.32662,
				"method": "rhf"
			},
			{
				"type": "occ",
				"energy": -0.32573,
				"method": "rhf"
			},
			{
				"type": "occ",
				"energy": -0.3239,
				"method": "rhf"
			},
			{
				"type": "occ",
				"energy": -0.30959,
				"method": "rhf"
			},
			{
				"type": "occ",
				"energy": -0.27879,
				"method": "rhf"
			},
			{
				"type": "unocc",
				"energy": -0.12614,
				"method": "rhf"
			},
			{
				"type": "unocc",
				"energy": -0.09869,
				"method": "rhf"
			},
			{
				"type": "unocc",
				"energy": -0.08156,
				"method": "rhf"
			},
			{
				"type": "unocc",
				"energy": -0.05343,
				"method": "rhf"
			},
			{
				"type": "unocc",
				"energy": 0.01365,
				"method": "rhf"
			}
		],
		"cosmo_sigma_profile": { 
			"-0.025": 0.0,
			"-0.024": 0.0,
			"-0.023": 0.0,
			"-0.022": 0.0,
			"-0.021": 0.0,
			"-0.02": 0.0,
			"-0.019": 0.0,
			"-0.018": 0.0,
			"-0.017": 0.0,
			"-0.016": 0.0,
			"-0.015": 0.0,
			"-0.014": 0.0,
			"-0.013": 0.0,
			"-0.012": 0.0,
			"-0.011": 0.514963743725,
			"-0.01": 4.54429837208,
			"-0.009": 4.39098387059,
			"-0.008": 5.72872701677,
			"-0.007": 11.3569941502,
			"-0.006": 17.9591754475,
			"-0.005": 24.0513010022,
			"-0.004": 25.6396910478,
			"-0.003": 30.9330478715,
			"-0.002": 21.0981523164,
			"-0.001": 13.4952218347,
			"0.0": 12.1187551897,
			"0.001": 13.14561066,
			"0.002": 16.2511953813,
			"0.003": 14.4066651306,
			"0.004": 9.5588935933,
			"0.005": 12.5325346328,
			"0.006": 16.855811794,
			"0.007": 16.7034190072,
			"0.008": 12.9856434444,
			"0.009": 7.0507847986,
			"0.01": 7.80080714149,
			"0.011": 3.77527722108,
			"0.012": 0.0,
			"0.013": 0.0,
			"0.014": 0.0,
			"0.015": 0.0,
			"0.016": 0.0,
			"0.017": 0.0,
			"0.018": 0.0,
			"0.019": 0.0,
			"0.02": 0.0,
			"0.021": 0.0,
			"0.022": 0.0,
			"0.023": 0.0,
			"0.024": 0.0,
			"0.025": 0.0
		}
	}
}
