{
	 "smiles": "BrC1=C(Br)C(=O)C(=O)C(Br)=C1Br", 
	 "Tm": 419.15, 
	 "num_atms": 12, 
	 "gaussian": { 
		 "optdone": 1, 
		 "sigma_profile": "yes", 
		 "theory": "DFT", 
		 "functional": "B3LYP", 
		 "basiset": "6-31G**", 
		 "properties": { 
			 "R2extent": 6975.8414, 
			 "electric_dipole_moment_norm": 3.84828276638, 
			 "electric_quadrupole_moment_norm": 11.952268094, 
			 "total_energy": -10664.6209213, 
			 "HOMO_LUMO_gap": 0.10462, 
			 "cosmo_polarized_energy": -9.8, 
			 "cosmo_cavitation_energy": 26.65, 
			 "cosmo_dispersion_energy": -21.07, 
			 "cosmo_repulsion_energy": 1.65, 
			 "cosmo_total_nonelectrostatic_energy": 7.24, 
			 "SMD_solvation_energy": 1.95 
		},
		"coords": [
			{
				"x": 0.4015047469,
				"y": 1.8427192915,
				"z": -2.4111023152,
				"element": "Br" 
			},
			{
				"x": 0.6977665443,
				"y": 1.4508781942,
				"z": -0.5884562398,
				"element": "C" 
			},
			{
				"x": 0.6724092984,
				"y": 2.4524697471,
				"z": 0.3316049385,
				"element": "C" 
			},
			{
				"x": 0.3552444598,
				"y": 4.2607147986,
				"z": -0.0869906692,
				"element": "Br" 
			},
			{
				"x": 0.9017043632,
				"y": 2.1717692326,
				"z": 1.7662942561,
				"element": "C" 
			},
			{
				"x": 0.8916313417,
				"y": 3.0221213201,
				"z": 2.6291088385,
				"element": "O" 
			},
			{
				"x": 1.1715352288,
				"y": 0.6959005336,
				"z": 2.171145397,
				"element": "C" 
			},
			{
				"x": 1.3621651603,
				"y": 0.4355615922,
				"z": 3.3388500046,
				"element": "O" 
			},
			{
				"x": 1.1771286859,
				"y": -0.3155562479,
				"z": 1.0910451842,
				"element": "C" 
			},
			{
				"x": 1.5077793016,
				"y": -2.0818617189,
				"z": 1.6535070138,
				"element": "Br" 
			},
			{
				"x": 0.9545471238,
				"y": 0.0428265084,
				"z": -0.2021482386,
				"element": "C" 
			},
			{
				"x": 0.9678837451,
				"y": -1.2721432516,
				"z": -1.5563581699,
				"element": "Br" 
			}
		],
		 "valence_orbital": [ 
			{
				"type": "occ",
				"energy": -0.30762,
				"method": "rhf"
			},
			{
				"type": "occ",
				"energy": -0.30274,
				"method": "rhf"
			},
			{
				"type": "occ",
				"energy": -0.28386,
				"method": "rhf"
			},
			{
				"type": "occ",
				"energy": -0.28059,
				"method": "rhf"
			},
			{
				"type": "occ",
				"energy": -0.26104,
				"method": "rhf"
			},
			{
				"type": "unocc",
				"energy": -0.15642,
				"method": "rhf"
			},
			{
				"type": "unocc",
				"energy": -0.07571,
				"method": "rhf"
			},
			{
				"type": "unocc",
				"energy": -0.03757,
				"method": "rhf"
			},
			{
				"type": "unocc",
				"energy": -0.03594,
				"method": "rhf"
			},
			{
				"type": "unocc",
				"energy": -0.02287,
				"method": "rhf"
			}
		],
		"cosmo_sigma_profile": { 
			"-0.025": 0.0,
			"-0.024": 0.0,
			"-0.023": 0.0,
			"-0.022": 0.0,
			"-0.021": 0.0,
			"-0.02": 0.0,
			"-0.019": 0.0,
			"-0.018": 0.0,
			"-0.017": 0.0,
			"-0.016": 0.0,
			"-0.015": 0.0,
			"-0.014": 0.0,
			"-0.013": 0.0118147614965,
			"-0.012": 1.07346768061,
			"-0.011": 1.51684204667,
			"-0.01": 1.78480998688,
			"-0.009": 2.25045592916,
			"-0.008": 3.2298953654,
			"-0.007": 6.24320597598,
			"-0.006": 10.8897037981,
			"-0.005": 12.1725519519,
			"-0.004": 14.6984167738,
			"-0.003": 15.4469396813,
			"-0.002": 15.1067249746,
			"-0.001": 14.3975503872,
			"0.0": 18.746446828,
			"0.001": 25.4718591253,
			"0.002": 31.7354521155,
			"0.003": 15.8624275096,
			"0.004": 4.49120550548,
			"0.005": 3.90343479525,
			"0.006": 4.51018248071,
			"0.007": 4.54468532035,
			"0.008": 7.03118324872,
			"0.009": 8.38333086471,
			"0.01": 2.81935934584,
			"0.011": 1.81009791303,
			"0.012": 0.548288703284,
			"0.013": 0.0,
			"0.014": 0.0,
			"0.015": 0.0,
			"0.016": 0.0,
			"0.017": 0.0,
			"0.018": 0.0,
			"0.019": 0.0,
			"0.02": 0.0,
			"0.021": 0.0,
			"0.022": 0.0,
			"0.023": 0.0,
			"0.024": 0.0,
			"0.025": 0.0
		}
	}
}
