{
	 "smiles": "OC(=O)CCN1C=NC2=C1C=C(F)C(F)=C2", 
	 "Tm": 431.15, 
	 "num_atms": 24, 
	 "gaussian": { 
		 "optdone": 1, 
		 "sigma_profile": "yes", 
		 "theory": "DFT", 
		 "functional": "B3LYP", 
		 "basiset": "6-31G**", 
		 "properties": { 
			 "R2extent": 4502.1096, 
			 "electric_dipole_moment_norm": 5.41709727529, 
			 "electric_quadrupole_moment_norm": 8.91053208905, 
			 "total_energy": -845.51767792, 
			 "HOMO_LUMO_gap": 0.20038, 
			 "cosmo_polarized_energy": -18.07, 
			 "cosmo_cavitation_energy": 30.15, 
			 "cosmo_dispersion_energy": -21.02, 
			 "cosmo_repulsion_energy": 1.59, 
			 "cosmo_total_nonelectrostatic_energy": 10.71, 
			 "SMD_solvation_energy": 5.34 
		},
		"coords": [
			{
				"x": 0.9535231098,
				"y": 1.8470174325,
				"z": -2.8295331616,
				"element": "O" 
			},
			{
				"x": 1.0248953378,
				"y": 2.644135562,
				"z": -1.7319313288,
				"element": "C" 
			},
			{
				"x": 2.0428120747,
				"y": 3.1991021308,
				"z": -1.3931248956,
				"element": "O" 
			},
			{
				"x": -0.3148866418,
				"y": 2.7804531193,
				"z": -1.0332064682,
				"element": "C" 
			},
			{
				"x": -1.1924477932,
				"y": 1.51958756,
				"z": -1.0468231225,
				"element": "C" 
			},
			{
				"x": -0.6162876199,
				"y": 0.401795168,
				"z": -0.3153998383,
				"element": "N" 
			},
			{
				"x": 0.0533420241,
				"y": -0.6831982642,
				"z": -0.8481196413,
				"element": "C" 
			},
			{
				"x": 0.4880566809,
				"y": -1.536304328,
				"z": 0.0426200389,
				"element": "N" 
			},
			{
				"x": 0.0940318126,
				"y": -0.999425749,
				"z": 1.2588164784,
				"element": "C" 
			},
			{
				"x": -0.6000905604,
				"y": 0.218614627,
				"z": 1.0590248439,
				"element": "C" 
			},
			{
				"x": -1.1219113476,
				"y": 0.9711240076,
				"z": 2.1161249906,
				"element": "C" 
			},
			{
				"x": -0.9196735419,
				"y": 0.4572624113,
				"z": 3.3866250891,
				"element": "C" 
			},
			{
				"x": -1.3895986367,
				"y": 1.1196839405,
				"z": 4.4597562578,
				"element": "F" 
			},
			{
				"x": -0.2291074488,
				"y": -0.7512215878,
				"z": 3.6032150355,
				"element": "C" 
			},
			{
				"x": -0.0813449683,
				"y": -1.168550737,
				"z": 4.8752921649,
				"element": "F" 
			},
			{
				"x": 0.2840870733,
				"y": -1.4948709193,
				"z": 2.5569511679,
				"element": "C" 
			},
			{
				"x": 1.8463265473,
				"y": 1.8364688468,
				"z": -3.2146960828,
				"element": "H" 
			},
			{
				"x": -0.8610373557,
				"y": 3.5882191931,
				"z": -1.5380487072,
				"element": "H" 
			},
			{
				"x": -0.1114069449,
				"y": 3.1171523311,
				"z": -0.014368452,
				"element": "H" 
			},
			{
				"x": -2.1690871026,
				"y": 1.7524351031,
				"z": -0.6097007391,
				"element": "H" 
			},
			{
				"x": -1.3630368949,
				"y": 1.1932637273,
				"z": -2.0746925039,
				"element": "H" 
			},
			{
				"x": 0.1847739205,
				"y": -0.7720386536,
				"z": -1.9187029234,
				"element": "H" 
			},
			{
				"x": -1.6593224118,
				"y": 1.9045175304,
				"z": 1.9928491589,
				"element": "H" 
			},
			{
				"x": 0.8099906874,
				"y": -2.4235224518,
				"z": 2.7448726386,
				"element": "H" 
			}
		],
		 "valence_orbital": [ 
			{
				"type": "occ",
				"energy": -0.3095,
				"method": "rhf"
			},
			{
				"type": "occ",
				"energy": -0.29162,
				"method": "rhf"
			},
			{
				"type": "occ",
				"energy": -0.27909,
				"method": "rhf"
			},
			{
				"type": "occ",
				"energy": -0.23464,
				"method": "rhf"
			},
			{
				"type": "occ",
				"energy": -0.22749,
				"method": "rhf"
			},
			{
				"type": "unocc",
				"energy": -0.02711,
				"method": "rhf"
			},
			{
				"type": "unocc",
				"energy": -0.01158,
				"method": "rhf"
			},
			{
				"type": "unocc",
				"energy": 0.01476,
				"method": "rhf"
			},
			{
				"type": "unocc",
				"energy": 0.04393,
				"method": "rhf"
			},
			{
				"type": "unocc",
				"energy": 0.05161,
				"method": "rhf"
			}
		],
		"cosmo_sigma_profile": { 
			"-0.025": 0.0,
			"-0.024": 0.0,
			"-0.023": 0.0,
			"-0.022": 0.0,
			"-0.021": 0.0,
			"-0.02": 0.0,
			"-0.019": 0.110287750567,
			"-0.018": 0.819793333192,
			"-0.017": 1.46430531909,
			"-0.016": 0.262340800753,
			"-0.015": 0.561177257895,
			"-0.014": 1.06299137032,
			"-0.013": 0.445706874424,
			"-0.012": 0.57976429591,
			"-0.011": 0.93720757517,
			"-0.01": 0.941376760745,
			"-0.009": 2.9056334491,
			"-0.008": 11.5780742322,
			"-0.007": 13.7799115136,
			"-0.006": 13.7889369447,
			"-0.005": 11.9048427693,
			"-0.004": 12.5721968121,
			"-0.003": 10.7033506318,
			"-0.002": 9.76318286346,
			"-0.001": 13.0708744522,
			"0.0": 15.7392086651,
			"0.001": 18.96668675,
			"0.002": 18.524116287,
			"0.003": 16.8279680067,
			"0.004": 23.5674981695,
			"0.005": 7.37568088724,
			"0.006": 3.37721273861,
			"0.007": 4.35932595413,
			"0.008": 3.63000804009,
			"0.009": 2.49593971965,
			"0.01": 3.20906021239,
			"0.011": 6.05226139942,
			"0.012": 4.34680901414,
			"0.013": 1.17179213482,
			"0.014": 1.67546710752,
			"0.015": 0.985116589034,
			"0.016": 0.940627589296,
			"0.017": 0.69548792099,
			"0.018": 0.0915289555887,
			"0.019": 0.0,
			"0.02": 0.0,
			"0.021": 0.0,
			"0.022": 0.0,
			"0.023": 0.0,
			"0.024": 0.0,
			"0.025": 0.0
		}
	}
}
