{
	 "smiles": "C1=CC=C2C(=C1)C=C1C=CC3=C4C(C=CC2=C14)=CC=C3", 
	 "Tm": 451.15, 
	 "num_atms": 32, 
	 "gaussian": { 
		 "optdone": 1, 
		 "sigma_profile": "yes", 
		 "theory": "DFT", 
		 "functional": "B3LYP", 
		 "basiset": "6-31G**", 
		 "properties": { 
			 "R2extent": 5603.2238, 
			 "electric_dipole_moment_norm": 0.0385571005134, 
			 "electric_quadrupole_moment_norm": 13.1454985873, 
			 "total_energy": -769.416093899, 
			 "HOMO_LUMO_gap": 0.12355, 
			 "cosmo_polarized_energy": -7.37, 
			 "cosmo_cavitation_energy": 34.22, 
			 "cosmo_dispersion_energy": -25.91, 
			 "cosmo_repulsion_energy": 1.85, 
			 "cosmo_total_nonelectrostatic_energy": 10.16, 
			 "SMD_solvation_energy": 4.47 
		},
		"coords": [
			{
				"x": -2.1649572435,
				"y": -2.4874339962,
				"z": -3.0736785485,
				"element": "C" 
			},
			{
				"x": -1.2768568294,
				"y": -3.3979027333,
				"z": -2.4550281696,
				"element": "C" 
			},
			{
				"x": -0.5763866427,
				"y": -3.033976207,
				"z": -1.3249307715,
				"element": "C" 
			},
			{
				"x": -0.7188793125,
				"y": -1.7445594266,
				"z": -0.7456336542,
				"element": "C" 
			},
			{
				"x": -1.6212399446,
				"y": -0.8247448572,
				"z": -1.37729084,
				"element": "C" 
			},
			{
				"x": -2.3298866168,
				"y": -1.2301204477,
				"z": -2.5426912417,
				"element": "C" 
			},
			{
				"x": -1.7967845506,
				"y": 0.470870094,
				"z": -0.8373550121,
				"element": "C" 
			},
			{
				"x": -1.1197797808,
				"y": 0.8893491028,
				"z": 0.2945460541,
				"element": "C" 
			},
			{
				"x": -1.3006561006,
				"y": 2.2111900667,
				"z": 0.8431057975,
				"element": "C" 
			},
			{
				"x": -0.633798027,
				"y": 2.6155803336,
				"z": 1.9533556385,
				"element": "C" 
			},
			{
				"x": 0.2868612712,
				"y": 1.7388327939,
				"z": 2.6343878044,
				"element": "C" 
			},
			{
				"x": 0.4907766661,
				"y": 0.4202709124,
				"z": 2.1178372012,
				"element": "C" 
			},
			{
				"x": 1.3984306709,
				"y": -0.4583298468,
				"z": 2.7807528718,
				"element": "C" 
			},
			{
				"x": 1.5829935441,
				"y": -1.769314681,
				"z": 2.2434756629,
				"element": "C" 
			},
			{
				"x": 0.9136978331,
				"y": -2.1805421064,
				"z": 1.126045622,
				"element": "C" 
			},
			{
				"x": -0.0045011099,
				"y": -1.3246799771,
				"z": 0.4358115132,
				"element": "C" 
			},
			{
				"x": -0.2068458018,
				"y": -0.0163756959,
				"z": 0.9483068223,
				"element": "C" 
			},
			{
				"x": 2.0778366719,
				"y": -0.0111416195,
				"z": 3.9327535233,
				"element": "C" 
			},
			{
				"x": 1.8707867732,
				"y": 1.2705219732,
				"z": 4.4233251364,
				"element": "C" 
			},
			{
				"x": 0.9825602171,
				"y": 2.1397000522,
				"z": 3.7801533945,
				"element": "C" 
			},
			{
				"x": -2.7123212135,
				"y": -2.7836023289,
				"z": -3.963750262,
				"element": "H" 
			},
			{
				"x": -1.1456732853,
				"y": -4.3915608547,
				"z": -2.8735042359,
				"element": "H" 
			},
			{
				"x": 0.0959668902,
				"y": -3.7561842536,
				"z": -0.8761015489,
				"element": "H" 
			},
			{
				"x": -3.0089200359,
				"y": -0.5195729517,
				"z": -3.0071527602,
				"element": "H" 
			},
			{
				"x": -2.4852136853,
				"y": 1.1532512896,
				"z": -1.3307465985,
				"element": "H" 
			},
			{
				"x": -1.9918319167,
				"y": 2.8818653204,
				"z": 0.3392124502,
				"element": "H" 
			},
			{
				"x": -0.7823879634,
				"y": 3.6154520678,
				"z": 2.3528894898,
				"element": "H" 
			},
			{
				"x": 2.273175958,
				"y": -2.4436856469,
				"z": 2.7438680951,
				"element": "H" 
			},
			{
				"x": 1.0877916383,
				"y": -3.1846850576,
				"z": 0.7573273909,
				"element": "H" 
			},
			{
				"x": 2.7678081006,
				"y": -0.6857942607,
				"z": 4.4327026364,
				"element": "H" 
			},
			{
				"x": 2.4003604604,
				"y": 1.6027757197,
				"z": 5.3115803125,
				"element": "H" 
			},
			{
				"x": 0.8253733654,
				"y": 3.1420472228,
				"z": 4.1699262261,
				"element": "H" 
			}
		],
		 "valence_orbital": [ 
			{
				"type": "occ",
				"energy": -0.27549,
				"method": "rhf"
			},
			{
				"type": "occ",
				"energy": -0.25311,
				"method": "rhf"
			},
			{
				"type": "occ",
				"energy": -0.24723,
				"method": "rhf"
			},
			{
				"type": "occ",
				"energy": -0.22297,
				"method": "rhf"
			},
			{
				"type": "occ",
				"energy": -0.18787,
				"method": "rhf"
			},
			{
				"type": "unocc",
				"energy": -0.06432,
				"method": "rhf"
			},
			{
				"type": "unocc",
				"energy": -0.03135,
				"method": "rhf"
			},
			{
				"type": "unocc",
				"energy": -0.00703,
				"method": "rhf"
			},
			{
				"type": "unocc",
				"energy": 0.00058,
				"method": "rhf"
			},
			{
				"type": "unocc",
				"energy": 0.02779,
				"method": "rhf"
			}
		],
		"cosmo_sigma_profile": { 
			"-0.025": 0.0,
			"-0.024": 0.0,
			"-0.023": 0.0,
			"-0.022": 0.0,
			"-0.021": 0.0,
			"-0.02": 0.0,
			"-0.019": 0.0,
			"-0.018": 0.0,
			"-0.017": 0.0,
			"-0.016": 0.0,
			"-0.015": 0.0,
			"-0.014": 0.0,
			"-0.013": 0.0,
			"-0.012": 0.0,
			"-0.011": 0.0,
			"-0.01": 0.0,
			"-0.009": 0.098176362375,
			"-0.008": 1.37064448523,
			"-0.007": 2.05006086223,
			"-0.006": 21.6573240228,
			"-0.005": 24.442505748,
			"-0.004": 21.9024903149,
			"-0.003": 19.9490640486,
			"-0.002": 15.2755033913,
			"-0.001": 13.14220158,
			"0.0": 11.49772856,
			"0.001": 15.636377011,
			"0.002": 20.4594801186,
			"0.003": 46.9815574654,
			"0.004": 41.7503266209,
			"0.005": 19.1686344406,
			"0.006": 1.0733330622,
			"0.007": 0.0,
			"0.008": 0.0,
			"0.009": 0.0,
			"0.01": 0.0,
			"0.011": 0.0,
			"0.012": 0.0,
			"0.013": 0.0,
			"0.014": 0.0,
			"0.015": 0.0,
			"0.016": 0.0,
			"0.017": 0.0,
			"0.018": 0.0,
			"0.019": 0.0,
			"0.02": 0.0,
			"0.021": 0.0,
			"0.022": 0.0,
			"0.023": 0.0,
			"0.024": 0.0,
			"0.025": 0.0
		}
	}
}
