{
	 "smiles": "NS(=O)(=O)C1=CC2=C(S1)S(=O)(=O)CCC2", 
	 "Tm": 473.15, 
	 "num_atms": 24, 
	 "gaussian": { 
		 "optdone": 1, 
		 "sigma_profile": "yes", 
		 "theory": "DFT", 
		 "functional": "B3LYP", 
		 "basiset": "6-31G**", 
		 "properties": { 
			 "R2extent": 5290.8922, 
			 "electric_dipole_moment_norm": 6.41921870402, 
			 "electric_quadrupole_moment_norm": 26.3927746853, 
			 "total_energy": -1822.2223249, 
			 "HOMO_LUMO_gap": 0.19395, 
			 "cosmo_polarized_energy": -28.53, 
			 "cosmo_cavitation_energy": 31.7, 
			 "cosmo_dispersion_energy": -24.66, 
			 "cosmo_repulsion_energy": 1.8, 
			 "cosmo_total_nonelectrostatic_energy": 8.84, 
			 "SMD_solvation_energy": 3.42 
		},
		"coords": [
			{
				"x": 4.8185098725,
				"y": -0.0078056289,
				"z": -1.4928134293,
				"element": "N" 
			},
			{
				"x": 3.4674109586,
				"y": 0.7210417718,
				"z": -2.1531559689,
				"element": "S" 
			},
			{
				"x": 3.7094682195,
				"y": 2.1583437941,
				"z": -2.0885299737,
				"element": "O" 
			},
			{
				"x": 3.1869378376,
				"y": -0.0040900108,
				"z": -3.3873010093,
				"element": "O" 
			},
			{
				"x": 2.1068154704,
				"y": 0.4020445044,
				"z": -1.0417048772,
				"element": "C" 
			},
			{
				"x": 1.6453735276,
				"y": 1.2703520244,
				"z": -0.0878872331,
				"element": "C" 
			},
			{
				"x": 0.5652321924,
				"y": 0.7297984637,
				"z": 0.6753827646,
				"element": "C" 
			},
			{
				"x": 0.2535110793,
				"y": -0.5435214117,
				"z": 0.2489967722,
				"element": "C" 
			},
			{
				"x": 1.2245242842,
				"y": -1.0954371486,
				"z": -1.0823647887,
				"element": "S" 
			},
			{
				"x": -1.0034982378,
				"y": -1.5880026412,
				"z": 0.9707303634,
				"element": "S" 
			},
			{
				"x": -0.3854945048,
				"y": -2.4277487933,
				"z": 2.007724685,
				"element": "O" 
			},
			{
				"x": -1.7754095684,
				"y": -2.2066536157,
				"z": -0.1142263087,
				"element": "O" 
			},
			{
				"x": -1.9906546739,
				"y": -0.3121974619,
				"z": 1.8015123468,
				"element": "C" 
			},
			{
				"x": -1.0866366138,
				"y": 0.6103537609,
				"z": 2.6258559207,
				"element": "C" 
			},
			{
				"x": -0.1764549659,
				"y": 1.4881271026,
				"z": 1.7512988187,
				"element": "C" 
			},
			{
				"x": 4.7786156748,
				"y": -1.0217119658,
				"z": -1.4980659449,
				"element": "H" 
			},
			{
				"x": 5.1064851338,
				"y": 0.3905524911,
				"z": -0.6053755292,
				"element": "H" 
			},
			{
				"x": 2.0594267354,
				"y": 2.2626585188,
				"z": 0.0489960927,
				"element": "H" 
			},
			{
				"x": -2.689880894,
				"y": -0.8748444968,
				"z": 2.4266106218,
				"element": "H" 
			},
			{
				"x": -2.5499242953,
				"y": 0.2159747017,
				"z": 1.0238273193,
				"element": "H" 
			},
			{
				"x": -1.7167775818,
				"y": 1.2508905009,
				"z": 3.2513487532,
				"element": "H" 
			},
			{
				"x": -0.4849857469,
				"y": -0.0044661159,
				"z": 3.3035907408,
				"element": "H" 
			},
			{
				"x": -0.7781993327,
				"y": 2.2692967157,
				"z": 1.2652823312,
				"element": "H" 
			},
			{
				"x": 0.5437054294,
				"y": 2.0156449406,
				"z": 2.3867675325,
				"element": "H" 
			}
		],
		 "valence_orbital": [ 
			{
				"type": "occ",
				"energy": -0.3212,
				"method": "rhf"
			},
			{
				"type": "occ",
				"energy": -0.31052,
				"method": "rhf"
			},
			{
				"type": "occ",
				"energy": -0.30129,
				"method": "rhf"
			},
			{
				"type": "occ",
				"energy": -0.28526,
				"method": "rhf"
			},
			{
				"type": "occ",
				"energy": -0.26781,
				"method": "rhf"
			},
			{
				"type": "unocc",
				"energy": -0.07386,
				"method": "rhf"
			},
			{
				"type": "unocc",
				"energy": -0.00775,
				"method": "rhf"
			},
			{
				"type": "unocc",
				"energy": 0.00411,
				"method": "rhf"
			},
			{
				"type": "unocc",
				"energy": 0.01375,
				"method": "rhf"
			},
			{
				"type": "unocc",
				"energy": 0.04339,
				"method": "rhf"
			}
		],
		"cosmo_sigma_profile": { 
			"-0.025": 0.0,
			"-0.024": 0.0,
			"-0.023": 0.0,
			"-0.022": 0.0,
			"-0.021": 0.0,
			"-0.02": 0.0,
			"-0.019": 0.0,
			"-0.018": 0.0,
			"-0.017": 0.0,
			"-0.016": 1.19101573454,
			"-0.015": 3.08981600715,
			"-0.014": 2.08645018954,
			"-0.013": 3.51318016578,
			"-0.012": 3.4799679159,
			"-0.011": 1.90770428429,
			"-0.01": 2.19734206228,
			"-0.009": 5.72549884079,
			"-0.008": 9.69742156606,
			"-0.007": 9.07308547823,
			"-0.006": 17.0715798395,
			"-0.005": 19.8450612064,
			"-0.004": 16.3816588107,
			"-0.003": 12.2614048636,
			"-0.002": 11.0304183024,
			"-0.001": 14.752409146,
			"0.0": 14.0230360404,
			"0.001": 11.478235181,
			"0.002": 7.74247245289,
			"0.003": 5.65270501096,
			"0.004": 5.55688374182,
			"0.005": 5.61512190361,
			"0.006": 7.20115893955,
			"0.007": 6.49850631209,
			"0.008": 6.55084343335,
			"0.009": 10.0363802053,
			"0.01": 17.0807304879,
			"0.011": 19.1390193411,
			"0.012": 3.96267695166,
			"0.013": 0.0,
			"0.014": 0.0,
			"0.015": 0.0,
			"0.016": 0.0,
			"0.017": 0.0,
			"0.018": 0.0,
			"0.019": 0.0,
			"0.02": 0.0,
			"0.021": 0.0,
			"0.022": 0.0,
			"0.023": 0.0,
			"0.024": 0.0,
			"0.025": 0.0
		}
	}
}
