{
	 "smiles": "CC(C)(C)OC(=O)N1CCC(COS(C)(=O)=O)CC1", 
	 "Tm": 358.15, 
	 "num_atms": 42, 
	 "gaussian": { 
		 "optdone": 1, 
		 "sigma_profile": "yes", 
		 "theory": "DFT", 
		 "functional": "B3LYP", 
		 "basiset": "6-31G**", 
		 "properties": { 
			 "R2extent": 9836.1392, 
			 "electric_dipole_moment_norm": 2.79192547716, 
			 "electric_quadrupole_moment_norm": 29.8591400593, 
			 "total_energy": -1300.17744344, 
			 "HOMO_LUMO_gap": 0.27626, 
			 "cosmo_polarized_energy": -17.64, 
			 "cosmo_cavitation_energy": 43.76, 
			 "cosmo_dispersion_energy": -30.67, 
			 "cosmo_repulsion_energy": 2.35, 
			 "cosmo_total_nonelectrostatic_energy": 15.44, 
			 "SMD_solvation_energy": 7.02 
		},
		"coords": [
			{
				"x": -4.2391803594,
				"y": -2.5899997249,
				"z": 1.1235159302,
				"element": "C" 
			},
			{
				"x": -2.9449379037,
				"y": -3.3042363036,
				"z": 1.5279119821,
				"element": "C" 
			},
			{
				"x": -2.7985669962,
				"y": -3.4260298403,
				"z": 3.0486005037,
				"element": "C" 
			},
			{
				"x": -2.8568388371,
				"y": -4.6812403208,
				"z": 0.8637188339,
				"element": "C" 
			},
			{
				"x": -1.7823731399,
				"y": -2.603545423,
				"z": 0.9612911072,
				"element": "O" 
			},
			{
				"x": -1.5035561825,
				"y": -1.3227831342,
				"z": 1.3120830784,
				"element": "C" 
			},
			{
				"x": -2.1600942651,
				"y": -0.6467369547,
				"z": 2.0930006759,
				"element": "O" 
			},
			{
				"x": -0.3697399824,
				"y": -0.8715903608,
				"z": 0.6837089766,
				"element": "N" 
			},
			{
				"x": 0.0476166595,
				"y": 0.5157593402,
				"z": 0.8804912374,
				"element": "C" 
			},
			{
				"x": 1.5339710698,
				"y": 0.5896436481,
				"z": 1.2522357393,
				"element": "C" 
			},
			{
				"x": 2.4366905749,
				"y": -0.1662894839,
				"z": 0.2539509502,
				"element": "C" 
			},
			{
				"x": 2.5951471099,
				"y": 0.5615344074,
				"z": -1.0815034353,
				"element": "C" 
			},
			{
				"x": 3.2490549272,
				"y": 1.8353102787,
				"z": -0.8095975182,
				"element": "O" 
			},
			{
				"x": 3.4252126028,
				"y": 2.8136661805,
				"z": -2.1167590154,
				"element": "S" 
			},
			{
				"x": 4.2225895559,
				"y": 4.1637975832,
				"z": -1.248404836,
				"element": "C" 
			},
			{
				"x": 4.3650964317,
				"y": 2.1993689263,
				"z": -3.0527935356,
				"element": "O" 
			},
			{
				"x": 2.1040289116,
				"y": 3.2320552057,
				"z": -2.583014216,
				"element": "O" 
			},
			{
				"x": 1.8945268499,
				"y": -1.5964211747,
				"z": 0.0371880425,
				"element": "C" 
			},
			{
				"x": 0.396063207,
				"y": -1.6269546505,
				"z": -0.3044976536,
				"element": "C" 
			},
			{
				"x": -4.2910761593,
				"y": -2.486851175,
				"z": 0.0348886098,
				"element": "H" 
			},
			{
				"x": -4.2957892632,
				"y": -1.6001521525,
				"z": 1.5761876079,
				"element": "H" 
			},
			{
				"x": -5.1016915639,
				"y": -3.1803746134,
				"z": 1.4497934302,
				"element": "H" 
			},
			{
				"x": -3.6058987978,
				"y": -4.0495762264,
				"z": 3.4465144537,
				"element": "H" 
			},
			{
				"x": -2.8409784906,
				"y": -2.446000095,
				"z": 3.5236821717,
				"element": "H" 
			},
			{
				"x": -1.8460722315,
				"y": -3.9031867853,
				"z": 3.3010215827,
				"element": "H" 
			},
			{
				"x": -3.6814039094,
				"y": -5.315446542,
				"z": 1.2025240351,
				"element": "H" 
			},
			{
				"x": -1.9141270405,
				"y": -5.1744582849,
				"z": 1.1188643002,
				"element": "H" 
			},
			{
				"x": -2.9155814711,
				"y": -4.589821302,
				"z": -0.2248795714,
				"element": "H" 
			},
			{
				"x": -0.5756043371,
				"y": 0.9387723201,
				"z": 1.6677497591,
				"element": "H" 
			},
			{
				"x": -0.1478118044,
				"y": 1.088777906,
				"z": -0.0389825628,
				"element": "H" 
			},
			{
				"x": 1.6669792084,
				"y": 0.1463353631,
				"z": 2.2462428089,
				"element": "H" 
			},
			{
				"x": 1.8433752143,
				"y": 1.6374185042,
				"z": 1.3197562832,
				"element": "H" 
			},
			{
				"x": 3.4433145583,
				"y": -0.2419201402,
				"z": 0.6838939686,
				"element": "H" 
			},
			{
				"x": 1.6366687823,
				"y": 0.7631140954,
				"z": -1.5693491607,
				"element": "H" 
			},
			{
				"x": 3.227579067,
				"y": -0.0135210698,
				"z": -1.765846531,
				"element": "H" 
			},
			{
				"x": 3.5427848229,
				"y": 4.5394331954,
				"z": -0.4840139456,
				"element": "H" 
			},
			{
				"x": 5.1510869597,
				"y": 3.7982547135,
				"z": -0.8103903741,
				"element": "H" 
			},
			{
				"x": 4.42602035,
				"y": 4.9337603931,
				"z": -1.994151097,
				"element": "H" 
			},
			{
				"x": 2.4574106163,
				"y": -2.1083464443,
				"z": -0.7532120081,
				"element": "H" 
			},
			{
				"x": 2.0485303811,
				"y": -2.1667674602,
				"z": 0.9605495802,
				"element": "H" 
			},
			{
				"x": 0.2225485011,
				"y": -1.19902394,
				"z": -1.3043946373,
				"element": "H" 
			},
			{
				"x": 0.0321263738,
				"y": -2.6519284585,
				"z": -0.3237755507,
				"element": "H" 
			}
		],
		 "valence_orbital": [ 
			{
				"type": "occ",
				"energy": -0.31838,
				"method": "rhf"
			},
			{
				"type": "occ",
				"energy": -0.2908,
				"method": "rhf"
			},
			{
				"type": "occ",
				"energy": -0.28496,
				"method": "rhf"
			},
			{
				"type": "occ",
				"energy": -0.25744,
				"method": "rhf"
			},
			{
				"type": "occ",
				"energy": -0.23456,
				"method": "rhf"
			},
			{
				"type": "unocc",
				"energy": 0.0417,
				"method": "rhf"
			},
			{
				"type": "unocc",
				"energy": 0.05195,
				"method": "rhf"
			},
			{
				"type": "unocc",
				"energy": 0.06228,
				"method": "rhf"
			},
			{
				"type": "unocc",
				"energy": 0.0762,
				"method": "rhf"
			},
			{
				"type": "unocc",
				"energy": 0.0889,
				"method": "rhf"
			}
		],
		"cosmo_sigma_profile": { 
			"-0.025": 0.0,
			"-0.024": 0.0,
			"-0.023": 0.0,
			"-0.022": 0.0,
			"-0.021": 0.0,
			"-0.02": 0.0,
			"-0.019": 0.0,
			"-0.018": 0.0,
			"-0.017": 0.0,
			"-0.016": 0.0,
			"-0.015": 0.0,
			"-0.014": 0.0,
			"-0.013": 0.0,
			"-0.012": 0.0,
			"-0.011": 0.215196928266,
			"-0.01": 1.48029374131,
			"-0.009": 5.15961702881,
			"-0.008": 4.86799069382,
			"-0.007": 5.50182330922,
			"-0.006": 10.5763698782,
			"-0.005": 16.1760120058,
			"-0.004": 31.4418685898,
			"-0.003": 41.8333581335,
			"-0.002": 37.3554282376,
			"-0.001": 31.8505300748,
			"0.0": 34.7063384566,
			"0.001": 29.7309321649,
			"0.002": 12.9411279507,
			"0.003": 9.58191675537,
			"0.004": 8.65635717644,
			"0.005": 7.71067537464,
			"0.006": 5.20637976653,
			"0.007": 5.14587172369,
			"0.008": 5.0798537276,
			"0.009": 4.75237690835,
			"0.01": 12.6317549432,
			"0.011": 11.2048662297,
			"0.012": 2.25995620346,
			"0.013": 2.63728871428,
			"0.014": 1.65923671542,
			"0.015": 0.0,
			"0.016": 0.0,
			"0.017": 0.0,
			"0.018": 0.0,
			"0.019": 0.0,
			"0.02": 0.0,
			"0.021": 0.0,
			"0.022": 0.0,
			"0.023": 0.0,
			"0.024": 0.0,
			"0.025": 0.0
		}
	}
}
