{
	 "smiles": "COC(=O)C1=C(C(=O)OC)C2=C(N1)C=CC=C2", 
	 "Tm": 387.15, 
	 "num_atms": 28, 
	 "gaussian": { 
		 "optdone": 1, 
		 "sigma_profile": "yes", 
		 "theory": "DFT", 
		 "functional": "B3LYP", 
		 "basiset": "6-31G**", 
		 "properties": { 
			 "R2extent": 4743.9623, 
			 "electric_dipole_moment_norm": 3.51639720453, 
			 "electric_quadrupole_moment_norm": 18.5878651725, 
			 "total_energy": -819.573804425, 
			 "HOMO_LUMO_gap": 0.15925, 
			 "cosmo_polarized_energy": -17.33, 
			 "cosmo_cavitation_energy": 33.04, 
			 "cosmo_dispersion_energy": -23.93, 
			 "cosmo_repulsion_energy": 1.86, 
			 "cosmo_total_nonelectrostatic_energy": 10.97, 
			 "SMD_solvation_energy": 8.26 
		},
		"coords": [
			{
				"x": -2.1343567005,
				"y": 4.3915852857,
				"z": -0.5480195383,
				"element": "C" 
			},
			{
				"x": -1.1314768321,
				"y": 3.3634101899,
				"z": -0.5800189226,
				"element": "O" 
			},
			{
				"x": -1.2141753521,
				"y": 2.4506198906,
				"z": 0.4330543467,
				"element": "C" 
			},
			{
				"x": -2.0545279297,
				"y": 2.4932704068,
				"z": 1.3003299305,
				"element": "O" 
			},
			{
				"x": -0.1673287367,
				"y": 1.4215634317,
				"z": 0.2617853859,
				"element": "C" 
			},
			{
				"x": 0.2803284115,
				"y": 0.403532691,
				"z": 1.0990136559,
				"element": "C" 
			},
			{
				"x": -0.0732060576,
				"y": 0.2263391231,
				"z": 2.5226880084,
				"element": "C" 
			},
			{
				"x": -0.4464856855,
				"y": 1.0940761353,
				"z": 3.2818443069,
				"element": "O" 
			},
			{
				"x": 0.106662737,
				"y": -1.0661238091,
				"z": 2.9108002466,
				"element": "O" 
			},
			{
				"x": -0.1726755502,
				"y": -1.3210962116,
				"z": 4.295419416,
				"element": "C" 
			},
			{
				"x": 1.2367775648,
				"y": -0.3650193421,
				"z": 0.3410554553,
				"element": "C" 
			},
			{
				"x": 1.3338502689,
				"y": 0.2431671247,
				"z": -0.9408744005,
				"element": "C" 
			},
			{
				"x": 0.4737375623,
				"y": 1.3142670669,
				"z": -0.9529877341,
				"element": "N" 
			},
			{
				"x": 2.1866725277,
				"y": -0.237587141,
				"z": -1.9435090096,
				"element": "C" 
			},
			{
				"x": 2.9565869028,
				"y": -1.3504548335,
				"z": -1.6410766258,
				"element": "C" 
			},
			{
				"x": 2.8815014743,
				"y": -1.9700818827,
				"z": -0.3731660979,
				"element": "C" 
			},
			{
				"x": 2.036807515,
				"y": -1.4923117083,
				"z": 0.6163689497,
				"element": "C" 
			},
			{
				"x": -3.1343012053,
				"y": 3.9569122472,
				"z": -0.624068738,
				"element": "H" 
			},
			{
				"x": -2.0681295408,
				"y": 4.960752399,
				"z": 0.3821388158,
				"element": "H" 
			},
			{
				"x": -1.9277411856,
				"y": 5.0321289949,
				"z": -1.405402984,
				"element": "H" 
			},
			{
				"x": 0.0161008021,
				"y": -2.3847222645,
				"z": 4.4426540172,
				"element": "H" 
			},
			{
				"x": -1.2126966346,
				"y": -1.0800325261,
				"z": 4.5288477584,
				"element": "H" 
			},
			{
				"x": 0.4771843529,
				"y": -0.7224483119,
				"z": 4.9392472797,
				"element": "H" 
			},
			{
				"x": 0.295700954,
				"y": 1.9442314062,
				"z": -1.7196839646,
				"element": "H" 
			},
			{
				"x": 2.2428355504,
				"y": 0.2438888816,
				"z": -2.9152527712,
				"element": "H" 
			},
			{
				"x": 3.6299356083,
				"y": -1.753352126,
				"z": -2.3917916751,
				"element": "H" 
			},
			{
				"x": 3.4989414581,
				"y": -2.8409675916,
				"z": -0.1742623505,
				"element": "H" 
			},
			{
				"x": 1.9762777207,
				"y": -1.9743475262,
				"z": 1.5843672391,
				"element": "H" 
			}
		],
		 "valence_orbital": [ 
			{
				"type": "occ",
				"energy": -0.2877,
				"method": "rhf"
			},
			{
				"type": "occ",
				"energy": -0.2809,
				"method": "rhf"
			},
			{
				"type": "occ",
				"energy": -0.25906,
				"method": "rhf"
			},
			{
				"type": "occ",
				"energy": -0.23487,
				"method": "rhf"
			},
			{
				"type": "occ",
				"energy": -0.21953,
				"method": "rhf"
			},
			{
				"type": "unocc",
				"energy": -0.06028,
				"method": "rhf"
			},
			{
				"type": "unocc",
				"energy": 0.00156,
				"method": "rhf"
			},
			{
				"type": "unocc",
				"energy": 0.01373,
				"method": "rhf"
			},
			{
				"type": "unocc",
				"energy": 0.04604,
				"method": "rhf"
			},
			{
				"type": "unocc",
				"energy": 0.08176,
				"method": "rhf"
			}
		],
		"cosmo_sigma_profile": { 
			"-0.025": 0.0,
			"-0.024": 0.0,
			"-0.023": 0.0,
			"-0.022": 0.0,
			"-0.021": 0.0,
			"-0.02": 0.0,
			"-0.019": 0.0,
			"-0.018": 0.0,
			"-0.017": 0.0,
			"-0.016": 0.45599118602,
			"-0.015": 1.18261370657,
			"-0.014": 0.847701331106,
			"-0.013": 0.655830486578,
			"-0.012": 0.901276206165,
			"-0.011": 1.28300640832,
			"-0.01": 0.858088512783,
			"-0.009": 1.61106892852,
			"-0.008": 1.00326004547,
			"-0.007": 4.36090501864,
			"-0.006": 14.9643457859,
			"-0.005": 20.6234730998,
			"-0.004": 26.9823020023,
			"-0.003": 26.025604886,
			"-0.002": 17.3763361789,
			"-0.001": 17.7223622822,
			"0.0": 16.7775770783,
			"0.001": 18.0708189908,
			"0.002": 16.0656335138,
			"0.003": 13.5744797475,
			"0.004": 14.6829825392,
			"0.005": 13.039318151,
			"0.006": 5.39752402612,
			"0.007": 3.20736373322,
			"0.008": 3.17671100835,
			"0.009": 2.38599511159,
			"0.01": 3.23325017828,
			"0.011": 5.14339849875,
			"0.012": 5.96795565545,
			"0.013": 3.88231824587,
			"0.014": 1.69120404226,
			"0.015": 1.04018020659,
			"0.016": 0.0131233547168,
			"0.017": 0.0,
			"0.018": 0.0,
			"0.019": 0.0,
			"0.02": 0.0,
			"0.021": 0.0,
			"0.022": 0.0,
			"0.023": 0.0,
			"0.024": 0.0,
			"0.025": 0.0
		}
	}
}
