{
	 "smiles": "NC(=O)C1=C2CCCNC2=CC=C1", 
	 "Tm": 446.15, 
	 "num_atms": 25, 
	 "gaussian": { 
		 "optdone": 1, 
		 "sigma_profile": "yes", 
		 "theory": "DFT", 
		 "functional": "B3LYP", 
		 "basiset": "6-31G**", 
		 "properties": { 
			 "R2extent": 2572.6436, 
			 "electric_dipole_moment_norm": 4.18046085857, 
			 "electric_quadrupole_moment_norm": 13.0039928272, 
			 "total_energy": -573.0463242, 
			 "HOMO_LUMO_gap": 0.17844, 
			 "cosmo_polarized_energy": -15.66, 
			 "cosmo_cavitation_energy": 27.23, 
			 "cosmo_dispersion_energy": -20.28, 
			 "cosmo_repulsion_energy": 1.62, 
			 "cosmo_total_nonelectrostatic_energy": 8.57, 
			 "SMD_solvation_energy": 4.01 
		},
		"coords": [
			{
				"x": 1.1125298381,
				"y": -1.281700434,
				"z": -1.7200395064,
				"element": "N" 
			},
			{
				"x": -0.1658479946,
				"y": -1.4178526603,
				"z": -1.2275774387,
				"element": "C" 
			},
			{
				"x": -0.7267424568,
				"y": -2.5036746892,
				"z": -1.1864149637,
				"element": "O" 
			},
			{
				"x": -0.8380356031,
				"y": -0.1386582399,
				"z": -0.7854501188,
				"element": "C" 
			},
			{
				"x": -0.3002144271,
				"y": 0.7283404038,
				"z": 0.1858811694,
				"element": "C" 
			},
			{
				"x": 0.9640055686,
				"y": 0.4049565947,
				"z": 0.9715571093,
				"element": "C" 
			},
			{
				"x": 1.5872735793,
				"y": 1.650102385,
				"z": 1.6154057612,
				"element": "C" 
			},
			{
				"x": 0.5202615,
				"y": 2.4452536761,
				"z": 2.3648685087,
				"element": "C" 
			},
			{
				"x": -0.5273815186,
				"y": 2.8262503597,
				"z": 1.4290712496,
				"element": "N" 
			},
			{
				"x": -1.02404516,
				"y": 1.9032993746,
				"z": 0.508145836,
				"element": "C" 
			},
			{
				"x": -2.2430445828,
				"y": 2.1750354464,
				"z": -0.1381091935,
				"element": "C" 
			},
			{
				"x": -2.7662438566,
				"y": 1.2889214468,
				"z": -1.0712771594,
				"element": "C" 
			},
			{
				"x": -2.073764335,
				"y": 0.1237072591,
				"z": -1.3910432464,
				"element": "C" 
			},
			{
				"x": 1.439589646,
				"y": -0.377284566,
				"z": -2.024081519,
				"element": "H" 
			},
			{
				"x": 1.5045530644,
				"y": -2.0976156128,
				"z": -2.1691621171,
				"element": "H" 
			},
			{
				"x": 1.697473044,
				"y": -0.1009043137,
				"z": 0.3403999805,
				"element": "H" 
			},
			{
				"x": 0.7104527699,
				"y": -0.3162334853,
				"z": 1.7621869353,
				"element": "H" 
			},
			{
				"x": 2.3886554092,
				"y": 1.3601073787,
				"z": 2.3029798038,
				"element": "H" 
			},
			{
				"x": 2.0302350733,
				"y": 2.2929664538,
				"z": 0.8453185222,
				"element": "H" 
			},
			{
				"x": 0.9456407363,
				"y": 3.3581476761,
				"z": 2.7958828072,
				"element": "H" 
			},
			{
				"x": 0.1318059801,
				"y": 1.8377404473,
				"z": 3.2010588875,
				"element": "H" 
			},
			{
				"x": -1.2248131137,
				"y": 3.4562373978,
				"z": 1.7999334519,
				"element": "H" 
			},
			{
				"x": -2.7798203839,
				"y": 3.0877290979,
				"z": 0.1115097792,
				"element": "H" 
			},
			{
				"x": -3.7185439316,
				"y": 1.5066099361,
				"z": -1.5463477732,
				"element": "H" 
			},
			{
				"x": -2.4738788453,
				"y": -0.5875813327,
				"z": -2.1051967655,
				"element": "H" 
			}
		],
		 "valence_orbital": [ 
			{
				"type": "occ",
				"energy": -0.29214,
				"method": "rhf"
			},
			{
				"type": "occ",
				"energy": -0.26482,
				"method": "rhf"
			},
			{
				"type": "occ",
				"energy": -0.24783,
				"method": "rhf"
			},
			{
				"type": "occ",
				"energy": -0.23311,
				"method": "rhf"
			},
			{
				"type": "occ",
				"energy": -0.19194,
				"method": "rhf"
			},
			{
				"type": "unocc",
				"energy": -0.0135,
				"method": "rhf"
			},
			{
				"type": "unocc",
				"energy": 0.01551,
				"method": "rhf"
			},
			{
				"type": "unocc",
				"energy": 0.04706,
				"method": "rhf"
			},
			{
				"type": "unocc",
				"energy": 0.07984,
				"method": "rhf"
			},
			{
				"type": "unocc",
				"energy": 0.09017,
				"method": "rhf"
			}
		],
		"cosmo_sigma_profile": { 
			"-0.025": 0.0,
			"-0.024": 0.0,
			"-0.023": 0.0,
			"-0.022": 0.0,
			"-0.021": 0.0,
			"-0.02": 0.0,
			"-0.019": 0.0,
			"-0.018": 0.0,
			"-0.017": 0.0,
			"-0.016": 0.0,
			"-0.015": 0.0,
			"-0.014": 0.881250214302,
			"-0.013": 2.24782499605,
			"-0.012": 3.49369483371,
			"-0.011": 4.04543191969,
			"-0.01": 3.40172807898,
			"-0.009": 2.84336191175,
			"-0.008": 3.48695046072,
			"-0.007": 4.265569754,
			"-0.006": 4.51223407182,
			"-0.005": 7.88096629036,
			"-0.004": 12.7862022613,
			"-0.003": 20.8007566625,
			"-0.002": 24.127719116,
			"-0.001": 22.4985565321,
			"0.0": 14.9027975725,
			"0.001": 9.43787721218,
			"0.002": 8.1442298188,
			"0.003": 8.11005029759,
			"0.004": 9.0662518899,
			"0.005": 9.19672725313,
			"0.006": 10.4066974606,
			"0.007": 5.33689205442,
			"0.008": 2.69058684998,
			"0.009": 2.08117075929,
			"0.01": 1.81578397274,
			"0.011": 2.7571460794,
			"0.012": 1.99391792515,
			"0.013": 4.38243362362,
			"0.014": 5.06492076254,
			"0.015": 1.37928313791,
			"0.016": 0.029733505945,
			"0.017": 0.0,
			"0.018": 0.0,
			"0.019": 0.0,
			"0.02": 0.0,
			"0.021": 0.0,
			"0.022": 0.0,
			"0.023": 0.0,
			"0.024": 0.0,
			"0.025": 0.0
		}
	}
}
