{
	 "smiles": "OC(=O)[C@@H](CC1=CNC2=CC=CC=C12)NC(=O)OCC1C2=CC=CC=C2C2=C1C=CC=C2", 
	 "Tm": 456.65, 
	 "num_atms": 54, 
	 "gaussian": { 
		 "optdone": 1, 
		 "sigma_profile": "yes", 
		 "theory": "DFT", 
		 "functional": "B3LYP", 
		 "basiset": "6-31G**", 
		 "properties": { 
			 "R2extent": 13902.3425, 
			 "electric_dipole_moment_norm": 1.87366256567, 
			 "electric_quadrupole_moment_norm": 9.15717426502, 
			 "total_energy": -1414.49040867, 
			 "HOMO_LUMO_gap": 0.15918, 
			 "cosmo_polarized_energy": -22.54, 
			 "cosmo_cavitation_energy": 57.49, 
			 "cosmo_dispersion_energy": -36.75, 
			 "cosmo_repulsion_energy": 2.71, 
			 "cosmo_total_nonelectrostatic_energy": 23.45, 
			 "SMD_solvation_energy": 9.91 
		},
		"coords": [
			{
				"x": -3.7484877455,
				"y": -2.8789308669,
				"z": 2.1008442908,
				"element": "O" 
			},
			{
				"x": -3.083066835,
				"y": -1.7111131972,
				"z": 1.9775110564,
				"element": "C" 
			},
			{
				"x": -3.6306138276,
				"y": -0.6602562887,
				"z": 1.7239073685,
				"element": "O" 
			},
			{
				"x": -1.5888606349,
				"y": -1.8886543606,
				"z": 2.1897513964,
				"element": "C" 
			},
			{
				"x": -0.9530757739,
				"y": -2.8352584058,
				"z": 1.1234787977,
				"element": "C" 
			},
			{
				"x": -1.0812134511,
				"y": -2.360740067,
				"z": -0.2937244279,
				"element": "C" 
			},
			{
				"x": -0.2410728992,
				"y": -1.475893214,
				"z": -0.9262119141,
				"element": "C" 
			},
			{
				"x": -0.6776771588,
				"y": -1.2502377156,
				"z": -2.216196981,
				"element": "N" 
			},
			{
				"x": -1.8158491163,
				"y": -1.9934556624,
				"z": -2.451176306,
				"element": "C" 
			},
			{
				"x": -2.6058369037,
				"y": -2.1061250624,
				"z": -3.6000300711,
				"element": "C" 
			},
			{
				"x": -3.7034183799,
				"y": -2.9576343795,
				"z": -3.5450596947,
				"element": "C" 
			},
			{
				"x": -4.0057837679,
				"y": -3.6814349858,
				"z": -2.3733005073,
				"element": "C" 
			},
			{
				"x": -3.219672071,
				"y": -3.5651000502,
				"z": -1.2334439735,
				"element": "C" 
			},
			{
				"x": -2.1032551825,
				"y": -2.7089656999,
				"z": -1.2541725141,
				"element": "C" 
			},
			{
				"x": -1.0005402378,
				"y": -0.5671788395,
				"z": 2.2030795981,
				"element": "N" 
			},
			{
				"x": 0.2274994867,
				"y": -0.3356201394,
				"z": 2.7260295218,
				"element": "C" 
			},
			{
				"x": 0.9634284947,
				"y": -1.1893053551,
				"z": 3.1987316604,
				"element": "O" 
			},
			{
				"x": 0.5192533226,
				"y": 0.9961738336,
				"z": 2.6488327279,
				"element": "O" 
			},
			{
				"x": 1.801189164,
				"y": 1.4017500411,
				"z": 3.1451786638,
				"element": "C" 
			},
			{
				"x": 2.6619132785,
				"y": 2.0026354505,
				"z": 2.0275897688,
				"element": "C" 
			},
			{
				"x": 2.914490636,
				"y": 1.0908956936,
				"z": 0.8348822539,
				"element": "C" 
			},
			{
				"x": 3.4064805103,
				"y": -0.2100593493,
				"z": 0.8080601558,
				"element": "C" 
			},
			{
				"x": 3.5974379267,
				"y": -0.8373772752,
				"z": -0.4296592554,
				"element": "C" 
			},
			{
				"x": 3.2991043686,
				"y": -0.1668435276,
				"z": -1.6216817992,
				"element": "C" 
			},
			{
				"x": 2.7920265133,
				"y": 1.1355311675,
				"z": -1.5984187286,
				"element": "C" 
			},
			{
				"x": 2.5961807426,
				"y": 1.761404315,
				"z": -0.3645064396,
				"element": "C" 
			},
			{
				"x": 2.0842133967,
				"y": 3.0985155238,
				"z": -0.0351890154,
				"element": "C" 
			},
			{
				"x": 2.0987204678,
				"y": 3.2519493754,
				"z": 1.3656333408,
				"element": "C" 
			},
			{
				"x": 1.661006391,
				"y": 4.4354411708,
				"z": 1.9487605219,
				"element": "C" 
			},
			{
				"x": 1.2015204069,
				"y": 5.4695279198,
				"z": 1.1248563846,
				"element": "C" 
			},
			{
				"x": 1.1884831178,
				"y": 5.3182759574,
				"z": -0.2659482041,
				"element": "C" 
			},
			{
				"x": 1.6312595425,
				"y": 4.1328416586,
				"z": -0.8568403977,
				"element": "C" 
			},
			{
				"x": -4.6812116025,
				"y": -2.6833979111,
				"z": 1.9088701757,
				"element": "H" 
			},
			{
				"x": -1.4408804754,
				"y": -2.3612336593,
				"z": 3.1687370842,
				"element": "H" 
			},
			{
				"x": 0.0994086544,
				"y": -2.9251797685,
				"z": 1.4068824856,
				"element": "H" 
			},
			{
				"x": -1.4040038328,
				"y": -3.8255219625,
				"z": 1.2431275655,
				"element": "H" 
			},
			{
				"x": 0.6514850885,
				"y": -0.990573127,
				"z": -0.5589381309,
				"element": "H" 
			},
			{
				"x": -0.2220885965,
				"y": -0.6445030717,
				"z": -2.878548653,
				"element": "H" 
			},
			{
				"x": -2.3703528955,
				"y": -1.5502127528,
				"z": -4.5035285649,
				"element": "H" 
			},
			{
				"x": -4.337213344,
				"y": -3.0683755846,
				"z": -4.4201079861,
				"element": "H" 
			},
			{
				"x": -4.8686869217,
				"y": -4.3413653009,
				"z": -2.3658866623,
				"element": "H" 
			},
			{
				"x": -3.465166814,
				"y": -4.1245146412,
				"z": -0.3353611841,
				"element": "H" 
			},
			{
				"x": -1.5599539229,
				"y": 0.2008424509,
				"z": 1.8576177142,
				"element": "H" 
			},
			{
				"x": 2.2954479389,
				"y": 0.539699651,
				"z": 3.5978628561,
				"element": "H" 
			},
			{
				"x": 1.6194790305,
				"y": 2.1525840177,
				"z": 3.9213913179,
				"element": "H" 
			},
			{
				"x": 3.6252464415,
				"y": 2.2507620942,
				"z": 2.5018352061,
				"element": "H" 
			},
			{
				"x": 3.6261951331,
				"y": -0.742413427,
				"z": 1.7288502909,
				"element": "H" 
			},
			{
				"x": 3.980447818,
				"y": -1.8529361431,
				"z": -0.464421411,
				"element": "H" 
			},
			{
				"x": 3.463802398,
				"y": -0.6649305545,
				"z": -2.5731798078,
				"element": "H" 
			},
			{
				"x": 2.5641582009,
				"y": 1.6531026061,
				"z": -2.5266683236,
				"element": "H" 
			},
			{
				"x": 1.6702087519,
				"y": 4.5640004273,
				"z": 3.0282624309,
				"element": "H" 
			},
			{
				"x": 0.8527860002,
				"y": 6.3973498506,
				"z": 1.5689316867,
				"element": "H" 
			},
			{
				"x": 0.830479508,
				"y": 6.1308458679,
				"z": -0.8916379234,
				"element": "H" 
			},
			{
				"x": 1.6196296598,
				"y": 4.0221132734,
				"z": -1.9377574447,
				"element": "H" 
			}
		],
		 "valence_orbital": [ 
			{
				"type": "occ",
				"energy": -0.25347,
				"method": "rhf"
			},
			{
				"type": "occ",
				"energy": -0.24678,
				"method": "rhf"
			},
			{
				"type": "occ",
				"energy": -0.21914,
				"method": "rhf"
			},
			{
				"type": "occ",
				"energy": -0.21404,
				"method": "rhf"
			},
			{
				"type": "occ",
				"energy": -0.19428,
				"method": "rhf"
			},
			{
				"type": "unocc",
				"energy": -0.0351,
				"method": "rhf"
			},
			{
				"type": "unocc",
				"energy": -0.01658,
				"method": "rhf"
			},
			{
				"type": "unocc",
				"energy": -0.00345,
				"method": "rhf"
			},
			{
				"type": "unocc",
				"energy": -0.00013,
				"method": "rhf"
			},
			{
				"type": "unocc",
				"energy": 0.00456,
				"method": "rhf"
			}
		],
		"cosmo_sigma_profile": { 
			"-0.025": 0.0,
			"-0.024": 0.0,
			"-0.023": 0.0,
			"-0.022": 0.0,
			"-0.021": 0.0,
			"-0.02": 0.0,
			"-0.019": 0.470969534347,
			"-0.018": 0.937435654331,
			"-0.017": 0.752269439836,
			"-0.016": 0.546071433532,
			"-0.015": 1.01195998819,
			"-0.014": 1.46212990742,
			"-0.013": 2.35649136415,
			"-0.012": 1.96465443488,
			"-0.011": 2.00263996243,
			"-0.01": 2.03485084546,
			"-0.009": 1.82378744139,
			"-0.008": 2.96640990272,
			"-0.007": 5.88953345582,
			"-0.006": 22.4471267542,
			"-0.005": 34.9199838423,
			"-0.004": 34.2995029347,
			"-0.003": 40.1846485895,
			"-0.002": 34.1581038024,
			"-0.001": 32.1885048863,
			"0.0": 29.8652782316,
			"0.001": 28.1099282806,
			"0.002": 26.8324426465,
			"0.003": 26.9867089846,
			"0.004": 28.6453308754,
			"0.005": 32.5044772393,
			"0.006": 25.5302000018,
			"0.007": 12.7393496526,
			"0.008": 6.59347103821,
			"0.009": 3.74017181323,
			"0.01": 4.27723120597,
			"0.011": 4.31003302793,
			"0.012": 2.572779652,
			"0.013": 2.85747787431,
			"0.014": 0.0195269219924,
			"0.015": 0.0,
			"0.016": 0.0,
			"0.017": 0.0,
			"0.018": 0.0,
			"0.019": 0.0,
			"0.02": 0.0,
			"0.021": 0.0,
			"0.022": 0.0,
			"0.023": 0.0,
			"0.024": 0.0,
			"0.025": 0.0
		}
	}
}
