{
	 "smiles": "OC(=O)CC1=CC2=C(CCCC2)C=C1", 
	 "Tm": 352.15, 
	 "num_atms": 28, 
	 "gaussian": { 
		 "optdone": 1, 
		 "sigma_profile": "yes", 
		 "theory": "DFT", 
		 "functional": "B3LYP", 
		 "basiset": "6-31G**", 
		 "properties": { 
			 "R2extent": 3447.3772, 
			 "electric_dipole_moment_norm": 5.73652690223, 
			 "electric_quadrupole_moment_norm": 18.5882454393, 
			 "total_energy": -616.191415667, 
			 "HOMO_LUMO_gap": 0.22303, 
			 "cosmo_polarized_energy": -12.03, 
			 "cosmo_cavitation_energy": 30.09, 
			 "cosmo_dispersion_energy": -21.82, 
			 "cosmo_repulsion_energy": 1.74, 
			 "cosmo_total_nonelectrostatic_energy": 10.0, 
			 "SMD_solvation_energy": 5.36 
		},
		"coords": [
			{
				"x": 2.6116699005,
				"y": 2.1473735066,
				"z": 0.3120022124,
				"element": "O" 
			},
			{
				"x": 2.8850808731,
				"y": 2.1714547197,
				"z": -1.012297488,
				"element": "C" 
			},
			{
				"x": 3.7136837798,
				"y": 2.922843265,
				"z": -1.4623780804,
				"element": "O" 
			},
			{
				"x": 2.1193077337,
				"y": 1.1661429168,
				"z": -1.8917501142,
				"element": "C" 
			},
			{
				"x": 0.8648219526,
				"y": 0.5772968881,
				"z": -1.2871336808,
				"element": "C" 
			},
			{
				"x": 0.9293047654,
				"y": -0.5656444844,
				"z": -0.4723526654,
				"element": "C" 
			},
			{
				"x": -0.2162770363,
				"y": -1.1010611129,
				"z": 0.1218960997,
				"element": "C" 
			},
			{
				"x": -1.4625667575,
				"y": -0.4828194448,
				"z": -0.0897650429,
				"element": "C" 
			},
			{
				"x": -2.6589833091,
				"y": -1.1063307917,
				"z": 0.5853268236,
				"element": "C" 
			},
			{
				"x": -2.3682632551,
				"y": -1.4003726357,
				"z": 2.076013271,
				"element": "C" 
			},
			{
				"x": -0.992485057,
				"y": -2.0917248142,
				"z": 2.3070005722,
				"element": "C" 
			},
			{
				"x": -0.2028315189,
				"y": -2.32944637,
				"z": 0.9979183329,
				"element": "C" 
			},
			{
				"x": -1.5314025259,
				"y": 0.6580162748,
				"z": -0.8933336563,
				"element": "C" 
			},
			{
				"x": -0.3835141506,
				"y": 1.1826937929,
				"z": -1.4875323335,
				"element": "C" 
			},
			{
				"x": 1.8946855968,
				"y": 1.513346219,
				"z": 0.4799288286,
				"element": "H" 
			},
			{
				"x": 2.8384744647,
				"y": 0.3736632665,
				"z": -2.1330645503,
				"element": "H" 
			},
			{
				"x": 1.9080630105,
				"y": 1.684379848,
				"z": -2.8306023171,
				"element": "H" 
			},
			{
				"x": 1.8887301988,
				"y": -1.0558726008,
				"z": -0.3136886081,
				"element": "H" 
			},
			{
				"x": -3.5406845787,
				"y": -0.4643428762,
				"z": 0.4888249395,
				"element": "H" 
			},
			{
				"x": -2.9070872694,
				"y": -2.0501548832,
				"z": 0.0778057166,
				"element": "H" 
			},
			{
				"x": -3.1788081521,
				"y": -2.0141004431,
				"z": 2.4826899656,
				"element": "H" 
			},
			{
				"x": -2.3947482387,
				"y": -0.4526357621,
				"z": 2.623958364,
				"element": "H" 
			},
			{
				"x": -1.1257398865,
				"y": -3.0498681909,
				"z": 2.8200206176,
				"element": "H" 
			},
			{
				"x": -0.3807127105,
				"y": -1.4705234566,
				"z": 2.9696836516,
				"element": "H" 
			},
			{
				"x": -0.6649259679,
				"y": -3.163923179,
				"z": 0.450427478,
				"element": "H" 
			},
			{
				"x": 0.8228737802,
				"y": -2.6398775346,
				"z": 1.222769945,
				"element": "H" 
			},
			{
				"x": -2.4915890345,
				"y": 1.1411196928,
				"z": -1.0575821298,
				"element": "H" 
			},
			{
				"x": -0.4547766073,
				"y": 2.0703681901,
				"z": -2.1108861515,
				"element": "H" 
			}
		],
		 "valence_orbital": [ 
			{
				"type": "occ",
				"energy": -0.31734,
				"method": "rhf"
			},
			{
				"type": "occ",
				"energy": -0.30416,
				"method": "rhf"
			},
			{
				"type": "occ",
				"energy": -0.27204,
				"method": "rhf"
			},
			{
				"type": "occ",
				"energy": -0.25713,
				"method": "rhf"
			},
			{
				"type": "occ",
				"energy": -0.2406,
				"method": "rhf"
			},
			{
				"type": "unocc",
				"energy": -0.01757,
				"method": "rhf"
			},
			{
				"type": "unocc",
				"energy": -0.01645,
				"method": "rhf"
			},
			{
				"type": "unocc",
				"energy": 0.02167,
				"method": "rhf"
			},
			{
				"type": "unocc",
				"energy": 0.07515,
				"method": "rhf"
			},
			{
				"type": "unocc",
				"energy": 0.08958,
				"method": "rhf"
			}
		],
		"cosmo_sigma_profile": { 
			"-0.025": 0.0,
			"-0.024": 0.0,
			"-0.023": 0.0,
			"-0.022": 0.0,
			"-0.021": 0.0,
			"-0.02": 0.0,
			"-0.019": 0.0,
			"-0.018": 0.0,
			"-0.017": 0.0,
			"-0.016": 0.0,
			"-0.015": 0.0,
			"-0.014": 0.0,
			"-0.013": 0.223444118494,
			"-0.012": 0.648324727874,
			"-0.011": 0.594932336177,
			"-0.01": 0.736644299243,
			"-0.009": 0.910131889565,
			"-0.008": 1.6255950576,
			"-0.007": 6.22781788303,
			"-0.006": 10.8914456521,
			"-0.005": 12.2994553173,
			"-0.004": 16.5831880449,
			"-0.003": 24.1365472976,
			"-0.002": 27.3708555449,
			"-0.001": 30.01165513,
			"0.0": 24.6715048501,
			"0.001": 16.1942578015,
			"0.002": 8.79375398327,
			"0.003": 7.69493239269,
			"0.004": 7.63714175429,
			"0.005": 7.35312159054,
			"0.006": 3.99412375884,
			"0.007": 2.68396176389,
			"0.008": 2.92926408107,
			"0.009": 2.88217539462,
			"0.01": 4.30807486183,
			"0.011": 5.25983826113,
			"0.012": 5.84389712711,
			"0.013": 3.4348554845,
			"0.014": 0.296633687918,
			"0.015": 0.0,
			"0.016": 0.0,
			"0.017": 0.0,
			"0.018": 0.0,
			"0.019": 0.0,
			"0.02": 0.0,
			"0.021": 0.0,
			"0.022": 0.0,
			"0.023": 0.0,
			"0.024": 0.0,
			"0.025": 0.0
		}
	}
}
