{
	 "smiles": "CN1CCN(CC2=C(I)C=CC=C2)CC1", 
	 "Tm": 310.65, 
	 "num_atms": 32, 
	 "gaussian": { 
		 "optdone": 1, 
		 "sigma_profile": "no", 
		 "theory": "DFT", 
		 "functional": "B3LYP", 
		 "basiset": "6-31G**", 
		 "properties": { 
			 "R2extent": 4377.8787, 
			 "electric_dipole_moment_norm": 1.11882671581, 
			 "electric_quadrupole_moment_norm": 10.3400079749, 
			 "total_energy": -588.393167231, 
			 "HOMO_LUMO_gap": 0.16805, 
			 "cosmo_polarized_energy": -84261.45, 
			 "cosmo_cavitation_energy": 35.38, 
			 "cosmo_dispersion_energy": -26.5, 
			 "cosmo_repulsion_energy": 2.05, 
			 "cosmo_total_nonelectrostatic_energy": 10.93, 
			 "SMD_solvation_energy": 1.13 
		},
		"coords": [
			{
				"x": -4.2942536026,
				"y": 0.4848921379,
				"z": 0.3568716102,
				"element": "C" 
			},
			{
				"x": -3.0064778151,
				"y": -0.1779389108,
				"z": 0.2272505278,
				"element": "N" 
			},
			{
				"x": -2.0439204203,
				"y": 0.3001231249,
				"z": 1.2203826588,
				"element": "C" 
			},
			{
				"x": -0.7275046127,
				"y": -0.4817937144,
				"z": 1.1048978754,
				"element": "C" 
			},
			{
				"x": -0.1412867072,
				"y": -0.441225507,
				"z": -0.2421314247,
				"element": "N" 
			},
			{
				"x": 0.5645779504,
				"y": 0.8025100809,
				"z": -0.5434114754,
				"element": "C" 
			},
			{
				"x": 1.9751976604,
				"y": 0.8419616824,
				"z": 0.0345455936,
				"element": "C" 
			},
			{
				"x": 2.7072998193,
				"y": 2.0295450754,
				"z": 0.1783197034,
				"element": "C" 
			},
			{
				"x": 1.8919097721,
				"y": 3.9184916799,
				"z": -0.4068629673,
				"element": "I" 
			},
			{
				"x": 4.0090680368,
				"y": 2.0403283283,
				"z": 0.6844476716,
				"element": "C" 
			},
			{
				"x": 4.610621209,
				"y": 0.8400240548,
				"z": 1.0628892691,
				"element": "C" 
			},
			{
				"x": 3.9096011983,
				"y": -0.3572940865,
				"z": 0.9230755615,
				"element": "C" 
			},
			{
				"x": 2.6129498185,
				"y": -0.3486181047,
				"z": 0.4137898141,
				"element": "C" 
			},
			{
				"x": -1.1460460692,
				"y": -0.8404050744,
				"z": -1.2312795752,
				"element": "C" 
			},
			{
				"x": -2.4623304819,
				"y": -0.0574867181,
				"z": -1.1251285405,
				"element": "C" 
			},
			{
				"x": -4.2437831868,
				"y": 1.577727717,
				"z": 0.1834309772,
				"element": "H" 
			},
			{
				"x": -5.0027544916,
				"y": 0.0620910789,
				"z": -0.363276098,
				"element": "H" 
			},
			{
				"x": -4.6951098891,
				"y": 0.3221240555,
				"z": 1.3629342556,
				"element": "H" 
			},
			{
				"x": -1.8547604551,
				"y": 1.388032638,
				"z": 1.1122608055,
				"element": "H" 
			},
			{
				"x": -2.4677043293,
				"y": 0.1512866428,
				"z": 2.22091193,
				"element": "H" 
			},
			{
				"x": 0.0046197712,
				"y": -0.101446512,
				"z": 1.824109549,
				"element": "H" 
			},
			{
				"x": -0.9256068916,
				"y": -1.5315561004,
				"z": 1.3551432056,
				"element": "H" 
			},
			{
				"x": 0.0247281555,
				"y": 1.7018860271,
				"z": -0.2111883707,
				"element": "H" 
			},
			{
				"x": 0.6392788255,
				"y": 0.8946726476,
				"z": -1.6348652627,
				"element": "H" 
			},
			{
				"x": 4.5468502173,
				"y": 2.9765239937,
				"z": 0.7832849765,
				"element": "H" 
			},
			{
				"x": 5.6209977439,
				"y": 0.8488940823,
				"z": 1.4612103866,
				"element": "H" 
			},
			{
				"x": 4.3710553757,
				"y": -1.2982679587,
				"z": 1.2085091298,
				"element": "H" 
			},
			{
				"x": 2.0506567323,
				"y": -1.2688613701,
				"z": 0.2928779686,
				"element": "H" 
			},
			{
				"x": -0.7222510516,
				"y": -0.7367189552,
				"z": -2.2357283438,
				"element": "H" 
			},
			{
				"x": -1.3673770955,
				"y": -1.903463477,
				"z": -1.0707630107,
				"element": "H" 
			},
			{
				"x": -3.1912659196,
				"y": -0.4678648175,
				"z": -1.8347175869,
				"element": "H" 
			},
			{
				"x": -2.2977792671,
				"y": 1.0032262591,
				"z": -1.4081908141,
				"element": "H" 
			}
		],
		 "valence_orbital": [ 
			{
				"type": "occ",
				"energy": -0.26538,
				"method": "rhf"
			},
			{
				"type": "occ",
				"energy": -0.25054,
				"method": "rhf"
			},
			{
				"type": "occ",
				"energy": -0.23522,
				"method": "rhf"
			},
			{
				"type": "occ",
				"energy": -0.22303,
				"method": "rhf"
			},
			{
				"type": "occ",
				"energy": -0.20274,
				"method": "rhf"
			},
			{
				"type": "unocc",
				"energy": -0.03469,
				"method": "rhf"
			},
			{
				"type": "unocc",
				"energy": -0.01194,
				"method": "rhf"
			},
			{
				"type": "unocc",
				"energy": -0.00719,
				"method": "rhf"
			},
			{
				"type": "unocc",
				"energy": 0.03949,
				"method": "rhf"
			},
			{
				"type": "unocc",
				"energy": 0.04863,
				"method": "rhf"
			}
		],
		"cosmo_sigma_profile": { 
			"0.0": 0.0,
			"0.0": 0.0,
			"0.0": 0.0,
			"0.0": 0.0,
			"0.0": 0.0,
			"0.0": 0.0,
			"0.0": 0.0,
			"0.0": 0.0,
			"0.0": 0.0,
			"0.0": 0.0,
			"0.0": 0.0,
			"0.0": 0.0,
			"0.0": 0.0,
			"0.0": 0.0,
			"0.0": 0.0,
			"0.0": 0.0,
			"0.0": 0.0,
			"0.0": 0.0,
			"0.0": 0.0,
			"0.0": 0.0,
			"0.0": 0.0,
			"0.0": 0.0,
			"0.0": 0.0,
			"0.0": 0.0,
			"0.0": 0.0,
			"0.0": 0.0,
			"0.0": 0.0,
			"0.0": 0.0,
			"0.0": 0.0,
			"0.0": 0.0,
			"0.0": 0.0,
			"0.0": 0.0,
			"0.0": 0.0,
			"0.0": 0.0,
			"0.0": 0.0,
			"0.0": 0.0,
			"0.0": 0.0,
			"0.0": 0.0,
			"0.0": 0.0,
			"0.0": 0.0,
			"0.0": 0.0,
			"0.0": 0.0,
			"0.0": 0.0,
			"0.0": 0.0,
			"0.0": 0.0,
			"0.0": 0.0,
			"0.0": 0.0,
			"0.0": 0.0,
			"0.0": 0.0,
			"0.0": 0.0,
			"0.0": 0.0
		}
	}
}
