{
	 "smiles": "CCOC1=CC=C(C=C1)C(=O)OC", 
	 "Tm": 309.15, 
	 "num_atms": 25, 
	 "gaussian": { 
		 "optdone": 1, 
		 "sigma_profile": "yes", 
		 "theory": "DFT", 
		 "functional": "B3LYP", 
		 "basiset": "6-31G**", 
		 "properties": { 
			 "R2extent": 3822.5955, 
			 "electric_dipole_moment_norm": 2.21932327298, 
			 "electric_quadrupole_moment_norm": 17.4207857231, 
			 "total_energy": -613.978683705, 
			 "HOMO_LUMO_gap": 0.19439, 
			 "cosmo_polarized_energy": -9.15, 
			 "cosmo_cavitation_energy": 29.16, 
			 "cosmo_dispersion_energy": -21.47, 
			 "cosmo_repulsion_energy": 1.72, 
			 "cosmo_total_nonelectrostatic_energy": 9.41, 
			 "SMD_solvation_energy": 6.99 
		},
		"coords": [
			{
				"x": 2.1141411602,
				"y": -4.4950620904,
				"z": 1.0136314705,
				"element": "C" 
			},
			{
				"x": 1.1525972418,
				"y": -3.3494220825,
				"z": 1.2744873643,
				"element": "C" 
			},
			{
				"x": 1.3818035957,
				"y": -2.3588564916,
				"z": 0.2692704192,
				"element": "O" 
			},
			{
				"x": 0.639879134,
				"y": -1.221200144,
				"z": 0.281563165,
				"element": "C" 
			},
			{
				"x": -0.3588747611,
				"y": -0.9308586582,
				"z": 1.2237721981,
				"element": "C" 
			},
			{
				"x": -1.0552215965,
				"y": 0.2716674037,
				"z": 1.1347388184,
				"element": "C" 
			},
			{
				"x": -0.7762139153,
				"y": 1.1958213229,
				"z": 0.1217954618,
				"element": "C" 
			},
			{
				"x": 0.2263580522,
				"y": 0.8956608986,
				"z": -0.8174474946,
				"element": "C" 
			},
			{
				"x": 0.9262006877,
				"y": -0.2977399201,
				"z": -0.7393279158,
				"element": "C" 
			},
			{
				"x": -1.5583707744,
				"y": 2.4554973403,
				"z": 0.0897334385,
				"element": "C" 
			},
			{
				"x": -2.4330600775,
				"y": 2.7508987549,
				"z": 0.8833956643,
				"element": "O" 
			},
			{
				"x": -1.1956304493,
				"y": 3.2658385932,
				"z": -0.9361388706,
				"element": "O" 
			},
			{
				"x": -1.9186660119,
				"y": 4.5014875819,
				"z": -1.019710608,
				"element": "C" 
			},
			{
				"x": 1.941895948,
				"y": -4.9250178414,
				"z": 0.0231297514,
				"element": "H" 
			},
			{
				"x": 3.1498718302,
				"y": -4.1481523054,
				"z": 1.0640328234,
				"element": "H" 
			},
			{
				"x": 1.9739190367,
				"y": -5.2804977629,
				"z": 1.7625513196,
				"element": "H" 
			},
			{
				"x": 1.3197309544,
				"y": -2.9146718817,
				"z": 2.2696645719,
				"element": "H" 
			},
			{
				"x": 0.1099001159,
				"y": -3.6927387301,
				"z": 1.2271508018,
				"element": "H" 
			},
			{
				"x": -0.5955973037,
				"y": -1.6278650904,
				"z": 2.0183472328,
				"element": "H" 
			},
			{
				"x": -1.8306909749,
				"y": 0.5134044066,
				"z": 1.8541425666,
				"element": "H" 
			},
			{
				"x": 0.4490933521,
				"y": 1.6058861091,
				"z": -1.6054794058,
				"element": "H" 
			},
			{
				"x": 1.7028778568,
				"y": -0.546292569,
				"z": -1.4550034536,
				"element": "H" 
			},
			{
				"x": -1.7787277237,
				"y": 5.0940182129,
				"z": -0.111725095,
				"element": "H" 
			},
			{
				"x": -1.5101961731,
				"y": 5.0246687421,
				"z": -1.8844819117,
				"element": "H" 
			},
			{
				"x": -2.9877192044,
				"y": 4.3161262017,
				"z": -1.1533923125,
				"element": "H" 
			}
		],
		 "valence_orbital": [ 
			{
				"type": "occ",
				"energy": -0.31862,
				"method": "rhf"
			},
			{
				"type": "occ",
				"energy": -0.29351,
				"method": "rhf"
			},
			{
				"type": "occ",
				"energy": -0.26499,
				"method": "rhf"
			},
			{
				"type": "occ",
				"energy": -0.25674,
				"method": "rhf"
			},
			{
				"type": "occ",
				"energy": -0.22592,
				"method": "rhf"
			},
			{
				"type": "unocc",
				"energy": -0.03153,
				"method": "rhf"
			},
			{
				"type": "unocc",
				"energy": -0.00463,
				"method": "rhf"
			},
			{
				"type": "unocc",
				"energy": 0.07087,
				"method": "rhf"
			},
			{
				"type": "unocc",
				"energy": 0.09232,
				"method": "rhf"
			},
			{
				"type": "unocc",
				"energy": 0.09826,
				"method": "rhf"
			}
		],
		"cosmo_sigma_profile": { 
			"-0.025": 0.0,
			"-0.024": 0.0,
			"-0.023": 0.0,
			"-0.022": 0.0,
			"-0.021": 0.0,
			"-0.02": 0.0,
			"-0.019": 0.0,
			"-0.018": 0.0,
			"-0.017": 0.0,
			"-0.016": 0.0,
			"-0.015": 0.0,
			"-0.014": 0.0,
			"-0.013": 0.0,
			"-0.012": 0.0,
			"-0.011": 0.0,
			"-0.01": 0.0,
			"-0.009": 0.0,
			"-0.008": 0.0,
			"-0.007": 2.0279413792,
			"-0.006": 10.6228290989,
			"-0.005": 20.6256794397,
			"-0.004": 25.7066328681,
			"-0.003": 24.1693654782,
			"-0.002": 18.7847824237,
			"-0.001": 16.7270641035,
			"0.0": 18.1999713848,
			"0.001": 14.4525337018,
			"0.002": 16.540406589,
			"0.003": 17.6834763005,
			"0.004": 15.2722431517,
			"0.005": 5.92096558121,
			"0.006": 5.48456051402,
			"0.007": 2.4855849964,
			"0.008": 3.42524455013,
			"0.009": 2.66336400277,
			"0.01": 2.08491019788,
			"0.011": 2.32744811993,
			"0.012": 4.55965268203,
			"0.013": 1.39144764366,
			"0.014": 0.0,
			"0.015": 0.0,
			"0.016": 0.0,
			"0.017": 0.0,
			"0.018": 0.0,
			"0.019": 0.0,
			"0.02": 0.0,
			"0.021": 0.0,
			"0.022": 0.0,
			"0.023": 0.0,
			"0.024": 0.0,
			"0.025": 0.0
		}
	}
}
