{
	 "smiles": "CCS(=O)(=O)C1=NN=C(S1)N(C)C(=O)NC", 
	 "Tm": 429.15, 
	 "num_atms": 28, 
	 "gaussian": { 
		 "optdone": 1, 
		 "sigma_profile": "yes", 
		 "theory": "DFT", 
		 "functional": "B3LYP", 
		 "basiset": "6-31G**", 
		 "properties": { 
			 "R2extent": 6227.6131, 
			 "electric_dipole_moment_norm": 3.44131391187, 
			 "electric_quadrupole_moment_norm": 25.0391946047, 
			 "total_energy": -1514.95147386, 
			 "HOMO_LUMO_gap": 0.19042, 
			 "cosmo_polarized_energy": -18.08, 
			 "cosmo_cavitation_energy": 34.76, 
			 "cosmo_dispersion_energy": -26.04, 
			 "cosmo_repulsion_energy": 1.96, 
			 "cosmo_total_nonelectrostatic_energy": 10.68, 
			 "SMD_solvation_energy": 4.03 
		},
		"coords": [
			{
				"x": 1.6351584874,
				"y": -1.2225858652,
				"z": 3.4864967237,
				"element": "C" 
			},
			{
				"x": 2.79178792,
				"y": -1.6984332418,
				"z": 2.6156639234,
				"element": "C" 
			},
			{
				"x": 3.4052216173,
				"y": -0.4314809291,
				"z": 1.4681431587,
				"element": "S" 
			},
			{
				"x": 4.5686625039,
				"y": -0.9807263313,
				"z": 0.7652568148,
				"element": "O" 
			},
			{
				"x": 3.4779683553,
				"y": 0.8737034246,
				"z": 2.1439033531,
				"element": "O" 
			},
			{
				"x": 2.0402660329,
				"y": -0.2686523137,
				"z": 0.2959401545,
				"element": "C" 
			},
			{
				"x": 1.4455746994,
				"y": -1.286266072,
				"z": -0.2384085209,
				"element": "N" 
			},
			{
				"x": 0.4785687346,
				"y": -0.937392694,
				"z": -1.1240338649,
				"element": "N" 
			},
			{
				"x": 0.3544317379,
				"y": 0.3740541245,
				"z": -1.2658382249,
				"element": "C" 
			},
			{
				"x": 1.4621566884,
				"y": 1.2956228252,
				"z": -0.240943243,
				"element": "S" 
			},
			{
				"x": -0.5263751463,
				"y": 1.002066635,
				"z": -2.0983369221,
				"element": "N" 
			},
			{
				"x": -0.5362498954,
				"y": 2.4679258198,
				"z": -2.1196387095,
				"element": "C" 
			},
			{
				"x": -1.4674916782,
				"y": 0.3450495879,
				"z": -2.9908141682,
				"element": "C" 
			},
			{
				"x": -2.2006431931,
				"y": 1.0322382098,
				"z": -3.6883157695,
				"element": "O" 
			},
			{
				"x": -1.4619877388,
				"y": -1.0011137879,
				"z": -2.9822466247,
				"element": "N" 
			},
			{
				"x": -2.3717657613,
				"y": -1.7250718999,
				"z": -3.8557428855,
				"element": "C" 
			},
			{
				"x": 0.7486084354,
				"y": -0.9999829565,
				"z": 2.8864921417,
				"element": "H" 
			},
			{
				"x": 1.9116279334,
				"y": -0.3278999785,
				"z": 4.0486024351,
				"element": "H" 
			},
			{
				"x": 1.3697828492,
				"y": -2.0121558902,
				"z": 4.19561408,
				"element": "H" 
			},
			{
				"x": 2.5349574025,
				"y": -2.5545769828,
				"z": 1.9864302358,
				"element": "H" 
			},
			{
				"x": 3.6828100817,
				"y": -1.9492897306,
				"z": 3.2000571597,
				"element": "H" 
			},
			{
				"x": 0.4394931855,
				"y": 2.8547250089,
				"z": -2.4327106996,
				"element": "H" 
			},
			{
				"x": -0.7851375447,
				"y": 2.8654710267,
				"z": -1.1298445683,
				"element": "H" 
			},
			{
				"x": -1.2957852128,
				"y": 2.7718005503,
				"z": -2.8362390222,
				"element": "H" 
			},
			{
				"x": -0.8137404558,
				"y": -1.488088119,
				"z": -2.3672638124,
				"element": "H" 
			},
			{
				"x": -3.4138955961,
				"y": -1.4744110446,
				"z": -3.6348487457,
				"element": "H" 
			},
			{
				"x": -2.1834939753,
				"y": -1.487621229,
				"z": -4.9074463992,
				"element": "H" 
			},
			{
				"x": -2.2201104672,
				"y": -2.7942081466,
				"z": -3.6985279996,
				"element": "H" 
			}
		],
		 "valence_orbital": [ 
			{
				"type": "occ",
				"energy": -0.29915,
				"method": "rhf"
			},
			{
				"type": "occ",
				"energy": -0.29616,
				"method": "rhf"
			},
			{
				"type": "occ",
				"energy": -0.28328,
				"method": "rhf"
			},
			{
				"type": "occ",
				"energy": -0.26364,
				"method": "rhf"
			},
			{
				"type": "occ",
				"energy": -0.25591,
				"method": "rhf"
			},
			{
				"type": "unocc",
				"energy": -0.06549,
				"method": "rhf"
			},
			{
				"type": "unocc",
				"energy": -0.02109,
				"method": "rhf"
			},
			{
				"type": "unocc",
				"energy": -0.00878,
				"method": "rhf"
			},
			{
				"type": "unocc",
				"energy": 0.02128,
				"method": "rhf"
			},
			{
				"type": "unocc",
				"energy": 0.05345,
				"method": "rhf"
			}
		],
		"cosmo_sigma_profile": { 
			"-0.025": 0.0,
			"-0.024": 0.0,
			"-0.023": 0.0,
			"-0.022": 0.0,
			"-0.021": 0.0,
			"-0.02": 0.0,
			"-0.019": 0.0,
			"-0.018": 0.0,
			"-0.017": 0.0,
			"-0.016": 0.0,
			"-0.015": 0.0,
			"-0.014": 0.0,
			"-0.013": 0.0,
			"-0.012": 0.0,
			"-0.011": 0.0,
			"-0.01": 0.640925602705,
			"-0.009": 2.99727248856,
			"-0.008": 3.82391960323,
			"-0.007": 10.6013934034,
			"-0.006": 14.9263477475,
			"-0.005": 26.6661370904,
			"-0.004": 27.1666125452,
			"-0.003": 29.285909637,
			"-0.002": 30.0498232658,
			"-0.001": 21.5343685603,
			"0.0": 15.9266381515,
			"0.001": 8.80722074514,
			"0.002": 8.93588102872,
			"0.003": 7.96585845601,
			"0.004": 6.55426848345,
			"0.005": 5.88301975069,
			"0.006": 5.59464807565,
			"0.007": 6.8142245883,
			"0.008": 6.7066649782,
			"0.009": 7.44195362838,
			"0.01": 12.0234016016,
			"0.011": 10.2129169524,
			"0.012": 3.75820045624,
			"0.013": 3.58312630542,
			"0.014": 0.338771879281,
			"0.015": 0.0,
			"0.016": 0.0,
			"0.017": 0.0,
			"0.018": 0.0,
			"0.019": 0.0,
			"0.02": 0.0,
			"0.021": 0.0,
			"0.022": 0.0,
			"0.023": 0.0,
			"0.024": 0.0,
			"0.025": 0.0
		}
	}
}
