{
	 "smiles": "O=C1CCSC2=C(N1)C=CC=C2", 
	 "Tm": 482.15, 
	 "num_atms": 21, 
	 "gaussian": { 
		 "optdone": 1, 
		 "sigma_profile": "yes", 
		 "theory": "DFT", 
		 "functional": "B3LYP", 
		 "basiset": "6-31G**", 
		 "properties": { 
			 "R2extent": 2591.0601, 
			 "electric_dipole_moment_norm": 2.82868322192, 
			 "electric_quadrupole_moment_norm": 14.2840623798, 
			 "total_energy": -876.554548279, 
			 "HOMO_LUMO_gap": 0.19352, 
			 "cosmo_polarized_energy": -11.74, 
			 "cosmo_cavitation_energy": 25.36, 
			 "cosmo_dispersion_energy": -19.6, 
			 "cosmo_repulsion_energy": 1.5, 
			 "cosmo_total_nonelectrostatic_energy": 7.25, 
			 "SMD_solvation_energy": 4.2 
		},
		"coords": [
			{
				"x": -3.9063868794,
				"y": 0.2701126888,
				"z": 1.4304107558,
				"element": "O" 
			},
			{
				"x": -2.9009679891,
				"y": -0.3208467835,
				"z": 1.0572042616,
				"element": "C" 
			},
			{
				"x": -2.9914947415,
				"y": -1.817590517,
				"z": 0.7976850358,
				"element": "C" 
			},
			{
				"x": -1.7411912271,
				"y": -2.6231463804,
				"z": 0.4786737988,
				"element": "C" 
			},
			{
				"x": -0.8633328537,
				"y": -2.0243536976,
				"z": -1.0147658693,
				"element": "S" 
			},
			{
				"x": 0.1383505251,
				"y": -0.7528864283,
				"z": -0.2758583207,
				"element": "C" 
			},
			{
				"x": -0.3821173576,
				"y": 0.2511243804,
				"z": 0.5662036852,
				"element": "C" 
			},
			{
				"x": -1.7382482041,
				"y": 0.425597929,
				"z": 0.9150506557,
				"element": "N" 
			},
			{
				"x": 0.5005016042,
				"y": 1.2283123171,
				"z": 1.0658836704,
				"element": "C" 
			},
			{
				"x": 1.8470894958,
				"y": 1.2374143426,
				"z": 0.7244332746,
				"element": "C" 
			},
			{
				"x": 2.3586263111,
				"y": 0.2476268298,
				"z": -0.1166923689,
				"element": "C" 
			},
			{
				"x": 1.5050329215,
				"y": -0.7417893025,
				"z": -0.5940188343,
				"element": "C" 
			},
			{
				"x": -3.48364297,
				"y": -2.2281592372,
				"z": 1.6878844987,
				"element": "H" 
			},
			{
				"x": -3.7147547932,
				"y": -1.9242099334,
				"z": -0.0178623233,
				"element": "H" 
			},
			{
				"x": -1.0283477363,
				"y": -2.6410010258,
				"z": 1.3073770268,
				"element": "H" 
			},
			{
				"x": -2.0212959517,
				"y": -3.6591290806,
				"z": 0.2668545185,
				"element": "H" 
			},
			{
				"x": -1.9513598019,
				"y": 1.3694854791,
				"z": 1.2187562183,
				"element": "H" 
			},
			{
				"x": 0.1065202963,
				"y": 1.9957316364,
				"z": 1.7276313901,
				"element": "H" 
			},
			{
				"x": 2.494669453,
				"y": 2.0126771912,
				"z": 1.1225474825,
				"element": "H" 
			},
			{
				"x": 3.409876573,
				"y": 0.2371802854,
				"z": -0.3862006335,
				"element": "H" 
			},
			{
				"x": 1.8875733256,
				"y": -1.5325506935,
				"z": -1.2317979229,
				"element": "H" 
			}
		],
		 "valence_orbital": [ 
			{
				"type": "occ",
				"energy": -0.30583,
				"method": "rhf"
			},
			{
				"type": "occ",
				"energy": -0.27693,
				"method": "rhf"
			},
			{
				"type": "occ",
				"energy": -0.25805,
				"method": "rhf"
			},
			{
				"type": "occ",
				"energy": -0.23683,
				"method": "rhf"
			},
			{
				"type": "occ",
				"energy": -0.21916,
				"method": "rhf"
			},
			{
				"type": "unocc",
				"energy": -0.02564,
				"method": "rhf"
			},
			{
				"type": "unocc",
				"energy": -0.01754,
				"method": "rhf"
			},
			{
				"type": "unocc",
				"energy": 0.02736,
				"method": "rhf"
			},
			{
				"type": "unocc",
				"energy": 0.03488,
				"method": "rhf"
			},
			{
				"type": "unocc",
				"energy": 0.07084,
				"method": "rhf"
			}
		],
		"cosmo_sigma_profile": { 
			"-0.025": 0.0,
			"-0.024": 0.0,
			"-0.023": 0.0,
			"-0.022": 0.0,
			"-0.021": 0.0,
			"-0.02": 0.0,
			"-0.019": 0.0,
			"-0.018": 0.0,
			"-0.017": 0.0,
			"-0.016": 0.0,
			"-0.015": 0.0,
			"-0.014": 0.626185111029,
			"-0.013": 0.831263672629,
			"-0.012": 1.60460426412,
			"-0.011": 1.0506328609,
			"-0.01": 0.629307050875,
			"-0.009": 1.43946691801,
			"-0.008": 1.2113554557,
			"-0.007": 5.21933547771,
			"-0.006": 17.332069005,
			"-0.005": 19.9683844932,
			"-0.004": 17.7029900454,
			"-0.003": 13.328803801,
			"-0.002": 11.5283181761,
			"-0.001": 10.3711082796,
			"0.0": 10.2622707291,
			"0.001": 11.143185513,
			"0.002": 13.1310090195,
			"0.003": 13.9056399364,
			"0.004": 14.3023977828,
			"0.005": 11.3336694092,
			"0.006": 4.48826813561,
			"0.007": 2.66069872999,
			"0.008": 3.33174795656,
			"0.009": 2.34138454231,
			"0.01": 1.38429969252,
			"0.011": 1.45733015348,
			"0.012": 2.50628991867,
			"0.013": 5.08098076678,
			"0.014": 3.16012216505,
			"0.015": 0.296203154772,
			"0.016": 0.0,
			"0.017": 0.0,
			"0.018": 0.0,
			"0.019": 0.0,
			"0.02": 0.0,
			"0.021": 0.0,
			"0.022": 0.0,
			"0.023": 0.0,
			"0.024": 0.0,
			"0.025": 0.0
		}
	}
}
