{
	 "smiles": "NC1=C(C=CC=C1)N1CCN(CCC2=CC=NC=C2)CC1", 
	 "Tm": 393.15, 
	 "num_atms": 43, 
	 "gaussian": { 
		 "optdone": 1, 
		 "sigma_profile": "yes", 
		 "theory": "DFT", 
		 "functional": "B3LYP", 
		 "basiset": "6-31G**", 
		 "properties": { 
			 "R2extent": 7283.57, 
			 "electric_dipole_moment_norm": 3.5574884652, 
			 "electric_quadrupole_moment_norm": 17.7225999219, 
			 "total_energy": -880.046804514, 
			 "HOMO_LUMO_gap": 0.15882, 
			 "cosmo_polarized_energy": -12.9, 
			 "cosmo_cavitation_energy": 43.08, 
			 "cosmo_dispersion_energy": -28.97, 
			 "cosmo_repulsion_energy": 2.18, 
			 "cosmo_total_nonelectrostatic_energy": 16.29, 
			 "SMD_solvation_energy": 4.53 
		},
		"coords": [
			{
				"x": 0.686433574,
				"y": 0.9000756733,
				"z": 0.9500205309,
				"element": "N" 
			},
			{
				"x": 1.9543141,
				"y": 0.4938557039,
				"z": 1.3291100721,
				"element": "C" 
			},
			{
				"x": 2.7566414742,
				"y": -0.3006594071,
				"z": 0.4650263483,
				"element": "C" 
			},
			{
				"x": 4.0566927575,
				"y": -0.6332812381,
				"z": 0.8606990722,
				"element": "C" 
			},
			{
				"x": 4.5904673559,
				"y": -0.211833489,
				"z": 2.0787396372,
				"element": "C" 
			},
			{
				"x": 3.793623051,
				"y": 0.5570371007,
				"z": 2.9296214178,
				"element": "C" 
			},
			{
				"x": 2.4970881773,
				"y": 0.9035896496,
				"z": 2.5626151027,
				"element": "C" 
			},
			{
				"x": 2.2668627217,
				"y": -0.7872337649,
				"z": -0.785324575,
				"element": "N" 
			},
			{
				"x": 2.2525950561,
				"y": 0.0544918896,
				"z": -1.9678922018,
				"element": "C" 
			},
			{
				"x": 0.8483609874,
				"y": 0.6309826819,
				"z": -2.3068918758,
				"element": "C" 
			},
			{
				"x": -0.2102980654,
				"y": -0.2285328876,
				"z": -1.7388352544,
				"element": "N" 
			},
			{
				"x": -1.533439367,
				"y": 0.0669166086,
				"z": -2.2968303113,
				"element": "C" 
			},
			{
				"x": -2.6789221534,
				"y": 0.028405942,
				"z": -1.2588020933,
				"element": "C" 
			},
			{
				"x": -2.9636124826,
				"y": -1.3202819835,
				"z": -0.6387389847,
				"element": "C" 
			},
			{
				"x": -3.7543136067,
				"y": -2.2733839284,
				"z": -1.2941330761,
				"element": "C" 
			},
			{
				"x": -3.9810490085,
				"y": -3.5091713471,
				"z": -0.6892017033,
				"element": "C" 
			},
			{
				"x": -3.4863910347,
				"y": -3.8578147903,
				"z": 0.5059797258,
				"element": "N" 
			},
			{
				"x": -2.7343734995,
				"y": -2.9444399,
				"z": 1.132739417,
				"element": "C" 
			},
			{
				"x": -2.4493472352,
				"y": -1.6810266823,
				"z": 0.6127298028,
				"element": "C" 
			},
			{
				"x": 0.1852224867,
				"y": -1.6406048849,
				"z": -1.8136328372,
				"element": "C" 
			},
			{
				"x": 1.3147395298,
				"y": -1.8957410606,
				"z": -0.7986854449,
				"element": "C" 
			},
			{
				"x": 0.2397556455,
				"y": 0.4256899939,
				"z": 0.1651916418,
				"element": "H" 
			},
			{
				"x": 0.072687225,
				"y": 1.2132603528,
				"z": 1.6863748794,
				"element": "H" 
			},
			{
				"x": 4.6425506617,
				"y": -1.2452714403,
				"z": 0.1804637444,
				"element": "H" 
			},
			{
				"x": 5.6026456734,
				"y": -0.4841957792,
				"z": 2.3609567649,
				"element": "H" 
			},
			{
				"x": 4.1821140014,
				"y": 0.8923900857,
				"z": 3.8877398839,
				"element": "H" 
			},
			{
				"x": 1.8881997029,
				"y": 1.5122784168,
				"z": 3.2279399614,
				"element": "H" 
			},
			{
				"x": 2.6117546827,
				"y": -0.5243633904,
				"z": -2.8324422248,
				"element": "H" 
			},
			{
				"x": 2.9639453956,
				"y": 0.8712088666,
				"z": -1.8263545557,
				"element": "H" 
			},
			{
				"x": 0.7271357959,
				"y": 1.6351147709,
				"z": -1.8850441763,
				"element": "H" 
			},
			{
				"x": 0.7534926529,
				"y": 0.7149143127,
				"z": -3.4050406695,
				"element": "H" 
			},
			{
				"x": -1.5091215776,
				"y": 1.0838367719,
				"z": -2.703511188,
				"element": "H" 
			},
			{
				"x": -1.7695862607,
				"y": -0.5990682756,
				"z": -3.1440183502,
				"element": "H" 
			},
			{
				"x": -2.4441898276,
				"y": 0.7515985826,
				"z": -0.4703778138,
				"element": "H" 
			},
			{
				"x": -3.5857109146,
				"y": 0.3868625594,
				"z": -1.7622321745,
				"element": "H" 
			},
			{
				"x": -4.1954826043,
				"y": -2.0553264752,
				"z": -2.2634051078,
				"element": "H" 
			},
			{
				"x": -4.5963169601,
				"y": -4.2559418163,
				"z": -1.188866906,
				"element": "H" 
			},
			{
				"x": -2.3389906492,
				"y": -3.2348015023,
				"z": 2.1049301677,
				"element": "H" 
			},
			{
				"x": -1.8264537704,
				"y": -0.9899851467,
				"z": 1.1735375526,
				"element": "H" 
			},
			{
				"x": -0.6686648821,
				"y": -2.2749522779,
				"z": -1.5702898511,
				"element": "H" 
			},
			{
				"x": 0.5031866585,
				"y": -1.9121535621,
				"z": -2.8370558556,
				"element": "H" 
			},
			{
				"x": 1.8020573249,
				"y": -2.8565812863,
				"z": -1.0374656042,
				"element": "H" 
			},
			{
				"x": 0.8758972074,
				"y": -2.0014636467,
				"z": 0.2004571126,
				"element": "H" 
			}
		],
		 "valence_orbital": [ 
			{
				"type": "occ",
				"energy": -0.25453,
				"method": "rhf"
			},
			{
				"type": "occ",
				"energy": -0.23214,
				"method": "rhf"
			},
			{
				"type": "occ",
				"energy": -0.22724,
				"method": "rhf"
			},
			{
				"type": "occ",
				"energy": -0.19378,
				"method": "rhf"
			},
			{
				"type": "occ",
				"energy": -0.18545,
				"method": "rhf"
			},
			{
				"type": "unocc",
				"energy": -0.02663,
				"method": "rhf"
			},
			{
				"type": "unocc",
				"energy": -0.01419,
				"method": "rhf"
			},
			{
				"type": "unocc",
				"energy": 0.01377,
				"method": "rhf"
			},
			{
				"type": "unocc",
				"energy": 0.03023,
				"method": "rhf"
			},
			{
				"type": "unocc",
				"energy": 0.0685,
				"method": "rhf"
			}
		],
		"cosmo_sigma_profile": { 
			"-0.025": 0.0,
			"-0.024": 0.0,
			"-0.023": 0.0,
			"-0.022": 0.0,
			"-0.021": 0.0,
			"-0.02": 0.0,
			"-0.019": 0.0,
			"-0.018": 0.0,
			"-0.017": 0.0,
			"-0.016": 0.0,
			"-0.015": 0.0,
			"-0.014": 0.0,
			"-0.013": 0.0,
			"-0.012": 0.333612903539,
			"-0.011": 1.22245209529,
			"-0.01": 1.28026683325,
			"-0.009": 1.07511325369,
			"-0.008": 1.05680907954,
			"-0.007": 1.71871702855,
			"-0.006": 7.39755837224,
			"-0.005": 17.4398166075,
			"-0.004": 27.1472800621,
			"-0.003": 36.4798182941,
			"-0.002": 53.9554342433,
			"-0.001": 41.4477363582,
			"0.0": 29.0006670382,
			"0.001": 18.2999707244,
			"0.002": 18.0970110038,
			"0.003": 17.7105345344,
			"0.004": 12.442845691,
			"0.005": 12.185858737,
			"0.006": 10.290001943,
			"0.007": 9.97175060719,
			"0.008": 8.23883813077,
			"0.009": 2.50939725,
			"0.01": 1.3708189176,
			"0.011": 1.85479673214,
			"0.012": 1.58359711451,
			"0.013": 0.957202462141,
			"0.014": 1.10203889002,
			"0.015": 0.951471162672,
			"0.016": 0.847924400148,
			"0.017": 0.624739983224,
			"0.018": 0.0369923367015,
			"0.019": 0.0,
			"0.02": 0.0,
			"0.021": 0.0,
			"0.022": 0.0,
			"0.023": 0.0,
			"0.024": 0.0,
			"0.025": 0.0
		}
	}
}
