{
	 "smiles": "OCC(O)C(O)C=O", 
	 "Tm": 437.15, 
	 "num_atms": 16, 
	 "gaussian": { 
		 "optdone": 1, 
		 "sigma_profile": "yes", 
		 "theory": "DFT", 
		 "functional": "B3LYP", 
		 "basiset": "6-31G**", 
		 "properties": { 
			 "R2extent": 1249.9298, 
			 "electric_dipole_moment_norm": 2.31127419836, 
			 "electric_quadrupole_moment_norm": 2.57129320771, 
			 "total_energy": -458.100020184, 
			 "HOMO_LUMO_gap": 0.22402, 
			 "cosmo_polarized_energy": -13.15, 
			 "cosmo_cavitation_energy": 19.38, 
			 "cosmo_dispersion_energy": -14.31, 
			 "cosmo_repulsion_energy": 1.21, 
			 "cosmo_total_nonelectrostatic_energy": 6.28, 
			 "SMD_solvation_energy": 4.3 
		},
		"coords": [
			{
				"x": 0.4327853124,
				"y": 0.7138883007,
				"z": 2.2841199121,
				"element": "O" 
			},
			{
				"x": 0.9731032247,
				"y": 0.9396826863,
				"z": 0.987867185,
				"element": "C" 
			},
			{
				"x": 0.2514961415,
				"y": 0.133810701,
				"z": -0.0951785579,
				"element": "C" 
			},
			{
				"x": 1.0047023923,
				"y": 0.254374345,
				"z": -1.2828230037,
				"element": "O" 
			},
			{
				"x": 0.0586622323,
				"y": -1.3627033618,
				"z": 0.2507082973,
				"element": "C" 
			},
			{
				"x": -0.4909779086,
				"y": -1.9923893816,
				"z": -0.8884284839,
				"element": "O" 
			},
			{
				"x": 1.3418215629,
				"y": -2.0702120777,
				"z": 0.645563322,
				"element": "C" 
			},
			{
				"x": 1.7256416336,
				"y": -3.0485180118,
				"z": 0.0341536156,
				"element": "O" 
			},
			{
				"x": -0.4281411377,
				"y": 1.1488795412,
				"z": 2.3329670929,
				"element": "H" 
			},
			{
				"x": 2.0224543249,
				"y": 0.6333452999,
				"z": 1.0264734599,
				"element": "H" 
			},
			{
				"x": 0.9612104036,
				"y": 2.0025830703,
				"z": 0.7109930939,
				"element": "H" 
			},
			{
				"x": -0.7653298095,
				"y": 0.5442883933,
				"z": -0.2332669427,
				"element": "H" 
			},
			{
				"x": 0.6143010356,
				"y": -0.3902310717,
				"z": -1.8944381185,
				"element": "H" 
			},
			{
				"x": -0.6166947368,
				"y": -1.4348649824,
				"z": 1.1190565744,
				"element": "H" 
			},
			{
				"x": 0.0664890284,
				"y": -2.7795821456,
				"z": -1.0353963933,
				"element": "H" 
			},
			{
				"x": 1.8836763006,
				"y": -1.6863513053,
				"z": 1.5284289472,
				"element": "H" 
			}
		],
		 "valence_orbital": [ 
			{
				"type": "occ",
				"energy": -0.3431,
				"method": "rhf"
			},
			{
				"type": "occ",
				"energy": -0.30956,
				"method": "rhf"
			},
			{
				"type": "occ",
				"energy": -0.28987,
				"method": "rhf"
			},
			{
				"type": "occ",
				"energy": -0.27462,
				"method": "rhf"
			},
			{
				"type": "occ",
				"energy": -0.26881,
				"method": "rhf"
			},
			{
				"type": "unocc",
				"energy": -0.04479,
				"method": "rhf"
			},
			{
				"type": "unocc",
				"energy": 0.04853,
				"method": "rhf"
			},
			{
				"type": "unocc",
				"energy": 0.08503,
				"method": "rhf"
			},
			{
				"type": "unocc",
				"energy": 0.11071,
				"method": "rhf"
			},
			{
				"type": "unocc",
				"energy": 0.11948,
				"method": "rhf"
			}
		],
		"cosmo_sigma_profile": { 
			"-0.025": 0.0,
			"-0.024": 0.0,
			"-0.023": 0.0,
			"-0.022": 0.0,
			"-0.021": 0.0,
			"-0.02": 0.0,
			"-0.019": 0.0,
			"-0.018": 0.0,
			"-0.017": 0.0531924693851,
			"-0.016": 0.81592231551,
			"-0.015": 1.18900284316,
			"-0.014": 1.37463089481,
			"-0.013": 0.648208265156,
			"-0.012": 1.5955741741,
			"-0.011": 2.55559196335,
			"-0.01": 1.65940610367,
			"-0.009": 2.1503276819,
			"-0.008": 5.38930298328,
			"-0.007": 8.57156154083,
			"-0.006": 9.78325747721,
			"-0.005": 11.8542850577,
			"-0.004": 10.7891544872,
			"-0.003": 7.2232743065,
			"-0.002": 9.13921186314,
			"-0.001": 6.69629302259,
			"0.0": 6.17352287437,
			"0.001": 4.5659420278,
			"0.002": 4.73322189698,
			"0.003": 5.21867478034,
			"0.004": 4.44381546766,
			"0.005": 4.90043275645,
			"0.006": 3.98806486141,
			"0.007": 4.59602977396,
			"0.008": 5.0061948665,
			"0.009": 5.52253979403,
			"0.01": 5.18907707532,
			"0.011": 5.26807228502,
			"0.012": 3.71255477107,
			"0.013": 4.59738665761,
			"0.014": 1.40286790698,
			"0.015": 0.000236373069182,
			"0.016": 0.0,
			"0.017": 0.0,
			"0.018": 0.0,
			"0.019": 0.0,
			"0.02": 0.0,
			"0.021": 0.0,
			"0.022": 0.0,
			"0.023": 0.0,
			"0.024": 0.0,
			"0.025": 0.0
		}
	}
}
