{
	 "smiles": "[O-][N+](=O)C1=CC=CC=C1N1C=CC=C1", 
	 "Tm": 332.15, 
	 "num_atms": 22, 
	 "gaussian": { 
		 "optdone": 1, 
		 "sigma_profile": "yes", 
		 "theory": "DFT", 
		 "functional": "B3LYP", 
		 "basiset": "6-31G**", 
		 "properties": { 
			 "R2extent": 2759.3338, 
			 "electric_dipole_moment_norm": 4.56641121889, 
			 "electric_quadrupole_moment_norm": 9.54305836092, 
			 "total_energy": -645.706253799, 
			 "HOMO_LUMO_gap": 0.12873, 
			 "cosmo_polarized_energy": -11.34, 
			 "cosmo_cavitation_energy": 26.88, 
			 "cosmo_dispersion_energy": -19.25, 
			 "cosmo_repulsion_energy": 1.49, 
			 "cosmo_total_nonelectrostatic_energy": 9.12, 
			 "SMD_solvation_energy": 7.71 
		},
		"coords": [
			{
				"x": -1.0719770607,
				"y": 2.4546099714,
				"z": 1.2721307006,
				"element": "O" 
			},
			{
				"x": -1.3524487525,
				"y": 1.2757847181,
				"z": 1.4637013255,
				"element": "N" 
			},
			{
				"x": -2.4007795663,
				"y": 0.8668046162,
				"z": 1.9653870282,
				"element": "O" 
			},
			{
				"x": -0.3395254536,
				"y": 0.2621226996,
				"z": 1.1181701298,
				"element": "C" 
			},
			{
				"x": -0.2142141112,
				"y": -0.8059594743,
				"z": 2.0078082033,
				"element": "C" 
			},
			{
				"x": 0.8014842461,
				"y": -1.7399020744,
				"z": 1.8358617065,
				"element": "C" 
			},
			{
				"x": 1.6748135987,
				"y": -1.6103970363,
				"z": 0.753438197,
				"element": "C" 
			},
			{
				"x": 1.5138395939,
				"y": -0.5729246416,
				"z": -0.1607194008,
				"element": "C" 
			},
			{
				"x": 0.5055185328,
				"y": 0.3893142903,
				"z": -0.0004291803,
				"element": "C" 
			},
			{
				"x": 0.3580393842,
				"y": 1.3900306017,
				"z": -0.9818319667,
				"element": "N" 
			},
			{
				"x": 1.4078457771,
				"y": 2.0973502032,
				"z": -1.5546812163,
				"element": "C" 
			},
			{
				"x": 0.8907416038,
				"y": 2.9221671637,
				"z": -2.5212799303,
				"element": "C" 
			},
			{
				"x": -0.5211612179,
				"y": 2.7082206906,
				"z": -2.5576386559,
				"element": "C" 
			},
			{
				"x": -0.8220512658,
				"y": 1.7696350853,
				"z": -1.6037370039,
				"element": "C" 
			},
			{
				"x": -0.9094034357,
				"y": -0.8682216649,
				"z": 2.8364156245,
				"element": "H" 
			},
			{
				"x": 0.9092595999,
				"y": -2.558791343,
				"z": 2.5392105334,
				"element": "H" 
			},
			{
				"x": 2.4680626305,
				"y": -2.3359515075,
				"z": 0.6017501508,
				"element": "H" 
			},
			{
				"x": 2.1488568954,
				"y": -0.5084074431,
				"z": -1.0375226837,
				"element": "H" 
			},
			{
				"x": 2.4140276285,
				"y": 1.9783156229,
				"z": -1.1829602547,
				"element": "H" 
			},
			{
				"x": 1.4579538542,
				"y": 3.6135531261,
				"z": -3.1283266646,
				"element": "H" 
			},
			{
				"x": -1.2334858085,
				"y": 3.1870465595,
				"z": -3.2144589456,
				"element": "H" 
			},
			{
				"x": -1.7617966729,
				"y": 1.3147998363,
				"z": -1.3303876967,
				"element": "H" 
			}
		],
		 "valence_orbital": [ 
			{
				"type": "occ",
				"energy": -0.30602,
				"method": "rhf"
			},
			{
				"type": "occ",
				"energy": -0.29059,
				"method": "rhf"
			},
			{
				"type": "occ",
				"energy": -0.27744,
				"method": "rhf"
			},
			{
				"type": "occ",
				"energy": -0.23509,
				"method": "rhf"
			},
			{
				"type": "occ",
				"energy": -0.21568,
				"method": "rhf"
			},
			{
				"type": "unocc",
				"energy": -0.08695,
				"method": "rhf"
			},
			{
				"type": "unocc",
				"energy": -0.03586,
				"method": "rhf"
			},
			{
				"type": "unocc",
				"energy": -0.01749,
				"method": "rhf"
			},
			{
				"type": "unocc",
				"energy": 0.03564,
				"method": "rhf"
			},
			{
				"type": "unocc",
				"energy": 0.06945,
				"method": "rhf"
			}
		],
		"cosmo_sigma_profile": { 
			"-0.025": 0.0,
			"-0.024": 0.0,
			"-0.023": 0.0,
			"-0.022": 0.0,
			"-0.021": 0.0,
			"-0.02": 0.0,
			"-0.019": 0.0,
			"-0.018": 0.0,
			"-0.017": 0.0,
			"-0.016": 0.0,
			"-0.015": 0.0,
			"-0.014": 0.0,
			"-0.013": 0.0,
			"-0.012": 0.0,
			"-0.011": 0.0311441619117,
			"-0.01": 0.354620955546,
			"-0.009": 1.54514248468,
			"-0.008": 5.93242820206,
			"-0.007": 13.6548610855,
			"-0.006": 16.2127104272,
			"-0.005": 15.1795437272,
			"-0.004": 11.6238775226,
			"-0.003": 13.2835208597,
			"-0.002": 12.7111757354,
			"-0.001": 13.9129945554,
			"0.0": 16.2919720274,
			"0.001": 15.7700833607,
			"0.002": 15.3794414847,
			"0.003": 7.75058794095,
			"0.004": 6.48236186362,
			"0.005": 7.10266387843,
			"0.006": 8.64929968139,
			"0.007": 12.637596914,
			"0.008": 13.7033615282,
			"0.009": 6.67616481452,
			"0.01": 1.58177434094,
			"0.011": 0.0,
			"0.012": 0.0,
			"0.013": 0.0,
			"0.014": 0.0,
			"0.015": 0.0,
			"0.016": 0.0,
			"0.017": 0.0,
			"0.018": 0.0,
			"0.019": 0.0,
			"0.02": 0.0,
			"0.021": 0.0,
			"0.022": 0.0,
			"0.023": 0.0,
			"0.024": 0.0,
			"0.025": 0.0
		}
	}
}
