{
	 "smiles": "CCCCCCCCC(=O)CCCCCCCC", 
	 "Tm": 325.65, 
	 "num_atms": 52, 
	 "gaussian": { 
		 "optdone": 1, 
		 "sigma_profile": "yes", 
		 "theory": "DFT", 
		 "functional": "B3LYP", 
		 "basiset": "6-31G**", 
		 "properties": { 
			 "R2extent": 9438.1219, 
			 "electric_dipole_moment_norm": 2.2875217376, 
			 "electric_quadrupole_moment_norm": 6.33588722043, 
			 "total_energy": -743.572736722, 
			 "HOMO_LUMO_gap": 0.22679, 
			 "cosmo_polarized_energy": -6.73, 
			 "cosmo_cavitation_energy": 50.6, 
			 "cosmo_dispersion_energy": -32.8, 
			 "cosmo_repulsion_energy": 2.66, 
			 "cosmo_total_nonelectrostatic_energy": 20.45, 
			 "SMD_solvation_energy": 7.14 
		},
		"coords": [
			{
				"x": 3.7604660787,
				"y": 2.8224689524,
				"z": -3.6069995405,
				"element": "C" 
			},
			{
				"x": 2.9852767025,
				"y": 1.8135272884,
				"z": -2.7512912463,
				"element": "C" 
			},
			{
				"x": 3.7629038847,
				"y": 1.2837680738,
				"z": -1.5336798479,
				"element": "C" 
			},
			{
				"x": 4.1713640419,
				"y": 2.3394010442,
				"z": -0.4888452055,
				"element": "C" 
			},
			{
				"x": 3.0156228791,
				"y": 3.1136818047,
				"z": 0.1689879579,
				"element": "C" 
			},
			{
				"x": 2.0408185029,
				"y": 2.2446215519,
				"z": 0.9750469915,
				"element": "C" 
			},
			{
				"x": 0.9577379373,
				"y": 3.068185743,
				"z": 1.685405502,
				"element": "C" 
			},
			{
				"x": -0.0235238137,
				"y": 2.2242610081,
				"z": 2.5037160752,
				"element": "C" 
			},
			{
				"x": -1.0081252632,
				"y": 1.4074209233,
				"z": 1.6731606967,
				"element": "C" 
			},
			{
				"x": -1.1260793859,
				"y": 1.5674591981,
				"z": 0.4696949902,
				"element": "O" 
			},
			{
				"x": -1.843912308,
				"y": 0.3732648138,
				"z": 2.4155957016,
				"element": "C" 
			},
			{
				"x": -1.1508839826,
				"y": -1.0108729588,
				"z": 2.4847100311,
				"element": "C" 
			},
			{
				"x": -0.8157360643,
				"y": -1.6535040436,
				"z": 1.1267336438,
				"element": "C" 
			},
			{
				"x": -2.0015715343,
				"y": -1.861794497,
				"z": 0.169023946,
				"element": "C" 
			},
			{
				"x": -3.1113870225,
				"y": -2.7718371002,
				"z": 0.7160319193,
				"element": "C" 
			},
			{
				"x": -4.1933103106,
				"y": -3.1364260659,
				"z": -0.3164712427,
				"element": "C" 
			},
			{
				"x": -5.0281736549,
				"y": -1.9621990977,
				"z": -0.8580164003,
				"element": "C" 
			},
			{
				"x": -5.8785232422,
				"y": -1.2502677366,
				"z": 0.2006425336,
				"element": "C" 
			},
			{
				"x": 3.9907451125,
				"y": 3.7383674664,
				"z": -3.0526275573,
				"element": "H" 
			},
			{
				"x": 3.1846626253,
				"y": 3.1128431962,
				"z": -4.4920461018,
				"element": "H" 
			},
			{
				"x": 4.7109166714,
				"y": 2.399252461,
				"z": -3.9534367197,
				"element": "H" 
			},
			{
				"x": 2.039450757,
				"y": 2.2627431101,
				"z": -2.4228302623,
				"element": "H" 
			},
			{
				"x": 2.7042230696,
				"y": 0.9570945321,
				"z": -3.3775235136,
				"element": "H" 
			},
			{
				"x": 4.6742101031,
				"y": 0.7828205894,
				"z": -1.8890016995,
				"element": "H" 
			},
			{
				"x": 3.1643393089,
				"y": 0.5030783234,
				"z": -1.047436024,
				"element": "H" 
			},
			{
				"x": 4.7528608643,
				"y": 1.8385991888,
				"z": 0.2976540368,
				"element": "H" 
			},
			{
				"x": 4.8577764829,
				"y": 3.0604355364,
				"z": -0.9506500627,
				"element": "H" 
			},
			{
				"x": 2.4540407405,
				"y": 3.6681454855,
				"z": -0.5947150095,
				"element": "H" 
			},
			{
				"x": 3.445205284,
				"y": 3.8757546059,
				"z": 0.8341249163,
				"element": "H" 
			},
			{
				"x": 1.5536913407,
				"y": 1.5191100338,
				"z": 0.314624794,
				"element": "H" 
			},
			{
				"x": 2.6052825559,
				"y": 1.6642949506,
				"z": 1.7204559944,
				"element": "H" 
			},
			{
				"x": 0.3897764435,
				"y": 3.6369807045,
				"z": 0.9402629655,
				"element": "H" 
			},
			{
				"x": 1.4343327229,
				"y": 3.8001263566,
				"z": 2.3500973559,
				"element": "H" 
			},
			{
				"x": -0.6348071541,
				"y": 2.8658011919,
				"z": 3.1568028319,
				"element": "H" 
			},
			{
				"x": 0.5048614573,
				"y": 1.5465263476,
				"z": 3.1897475523,
				"element": "H" 
			},
			{
				"x": -2.8021849782,
				"y": 0.2873446083,
				"z": 1.894960214,
				"element": "H" 
			},
			{
				"x": -2.0418587782,
				"y": 0.7164823548,
				"z": 3.4381818376,
				"element": "H" 
			},
			{
				"x": -1.8024221593,
				"y": -1.6769089419,
				"z": 3.0624815273,
				"element": "H" 
			},
			{
				"x": -0.2252633873,
				"y": -0.9193975687,
				"z": 3.0678891515,
				"element": "H" 
			},
			{
				"x": -0.0627477479,
				"y": -1.0425998564,
				"z": 0.6147819437,
				"element": "H" 
			},
			{
				"x": -0.3387775021,
				"y": -2.6230794567,
				"z": 1.3257635034,
				"element": "H" 
			},
			{
				"x": -1.6124360196,
				"y": -2.3020974183,
				"z": -0.7593901625,
				"element": "H" 
			},
			{
				"x": -2.4063923516,
				"y": -0.8836057792,
				"z": -0.1137714711,
				"element": "H" 
			},
			{
				"x": -2.65696687,
				"y": -3.7033417317,
				"z": 1.0822937842,
				"element": "H" 
			},
			{
				"x": -3.5828311399,
				"y": -2.3080064477,
				"z": 1.5922723094,
				"element": "H" 
			},
			{
				"x": -3.7114212152,
				"y": -3.64490804,
				"z": -1.1629032618,
				"element": "H" 
			},
			{
				"x": -4.8743754329,
				"y": -3.8731419671,
				"z": 0.1319383998,
				"element": "H" 
			},
			{
				"x": -4.3717746182,
				"y": -1.2334574946,
				"z": -1.3496619479,
				"element": "H" 
			},
			{
				"x": -5.6900164863,
				"y": -2.3463813668,
				"z": -1.6448561153,
				"element": "H" 
			},
			{
				"x": -6.5511946764,
				"y": -1.9533470764,
				"z": 0.7062373507,
				"element": "H" 
			},
			{
				"x": -5.261081167,
				"y": -0.7745866316,
				"z": 0.9701341854,
				"element": "H" 
			},
			{
				"x": -6.4954873006,
				"y": -0.4666001678,
				"z": -0.2512012511,
				"element": "H" 
			}
		],
		 "valence_orbital": [ 
			{
				"type": "occ",
				"energy": -0.3041,
				"method": "rhf"
			},
			{
				"type": "occ",
				"energy": -0.30171,
				"method": "rhf"
			},
			{
				"type": "occ",
				"energy": -0.30137,
				"method": "rhf"
			},
			{
				"type": "occ",
				"energy": -0.29904,
				"method": "rhf"
			},
			{
				"type": "occ",
				"energy": -0.23945,
				"method": "rhf"
			},
			{
				"type": "unocc",
				"energy": -0.01266,
				"method": "rhf"
			},
			{
				"type": "unocc",
				"energy": 0.0689,
				"method": "rhf"
			},
			{
				"type": "unocc",
				"energy": 0.07991,
				"method": "rhf"
			},
			{
				"type": "unocc",
				"energy": 0.08668,
				"method": "rhf"
			},
			{
				"type": "unocc",
				"energy": 0.10539,
				"method": "rhf"
			}
		],
		"cosmo_sigma_profile": { 
			"-0.025": 0.0,
			"-0.024": 0.0,
			"-0.023": 0.0,
			"-0.022": 0.0,
			"-0.021": 0.0,
			"-0.02": 0.0,
			"-0.019": 0.0,
			"-0.018": 0.0,
			"-0.017": 0.0,
			"-0.016": 0.0,
			"-0.015": 0.0,
			"-0.014": 0.0,
			"-0.013": 0.0,
			"-0.012": 0.0,
			"-0.011": 0.0,
			"-0.01": 0.0,
			"-0.009": 0.0,
			"-0.008": 0.0,
			"-0.007": 0.0,
			"-0.006": 1.05328849531,
			"-0.005": 6.01846336418,
			"-0.004": 10.4280297086,
			"-0.003": 17.6976021118,
			"-0.002": 57.9088988333,
			"-0.001": 84.7746109017,
			"0.0": 83.4557037054,
			"0.001": 70.2757866583,
			"0.002": 30.2945998124,
			"0.003": 3.45916920629,
			"0.004": 1.68508484169,
			"0.005": 2.51209446257,
			"0.006": 1.94232176517,
			"0.007": 2.10711898103,
			"0.008": 2.29810276277,
			"0.009": 2.16079622914,
			"0.01": 1.49159275265,
			"0.011": 2.43908597271,
			"0.012": 3.15734001168,
			"0.013": 2.00067626023,
			"0.014": 0.0338309521479,
			"0.015": 0.0,
			"0.016": 0.0,
			"0.017": 0.0,
			"0.018": 0.0,
			"0.019": 0.0,
			"0.02": 0.0,
			"0.021": 0.0,
			"0.022": 0.0,
			"0.023": 0.0,
			"0.024": 0.0,
			"0.025": 0.0
		}
	}
}
