{
	 "smiles": "CN1C=NC(=C1Cl)S(=O)(=O)NC1CCCC1", 
	 "Tm": 410.15, 
	 "num_atms": 30, 
	 "gaussian": { 
		 "optdone": 1, 
		 "sigma_profile": "yes", 
		 "theory": "DFT", 
		 "functional": "B3LYP", 
		 "basiset": "6-31G**", 
		 "properties": { 
			 "R2extent": 6828.3198, 
			 "electric_dipole_moment_norm": 5.98904085309, 
			 "electric_quadrupole_moment_norm": 35.5615436716, 
			 "total_energy": -1524.39148568, 
			 "HOMO_LUMO_gap": 0.2349, 
			 "cosmo_polarized_energy": -20.28, 
			 "cosmo_cavitation_energy": 35.38, 
			 "cosmo_dispersion_energy": -25.83, 
			 "cosmo_repulsion_energy": 1.99, 
			 "cosmo_total_nonelectrostatic_energy": 11.54, 
			 "SMD_solvation_energy": 3.33 
		},
		"coords": [
			{
				"x": -4.3314050796,
				"y": 2.1767028878,
				"z": 3.3057116907,
				"element": "C" 
			},
			{
				"x": -3.1309671244,
				"y": 2.0817503543,
				"z": 2.4873532041,
				"element": "N" 
			},
			{
				"x": -3.0605274641,
				"y": 2.1104523849,
				"z": 1.119434261,
				"element": "C" 
			},
			{
				"x": -1.8280186064,
				"y": 2.0197524645,
				"z": 0.6780544224,
				"element": "N" 
			},
			{
				"x": -1.0477465441,
				"y": 1.9215353282,
				"z": 1.7997661357,
				"element": "C" 
			},
			{
				"x": -1.8309669385,
				"y": 1.9571419201,
				"z": 2.9343752091,
				"element": "C" 
			},
			{
				"x": -1.4787060852,
				"y": 1.8838271282,
				"z": 4.6120506908,
				"element": "Cl" 
			},
			{
				"x": 0.7210288624,
				"y": 1.8125696306,
				"z": 1.6496740842,
				"element": "S" 
			},
			{
				"x": 1.2710247341,
				"y": 1.5622861475,
				"z": 2.9849324547,
				"element": "O" 
			},
			{
				"x": 1.1526881403,
				"y": 2.9582431568,
				"z": 0.8466228888,
				"element": "O" 
			},
			{
				"x": 0.917610888,
				"y": 0.3800051472,
				"z": 0.7973747574,
				"element": "N" 
			},
			{
				"x": 0.9944906395,
				"y": 0.4021329718,
				"z": -0.6816554466,
				"element": "C" 
			},
			{
				"x": 0.7893699064,
				"y": -1.0333730873,
				"z": -1.2100035422,
				"element": "C" 
			},
			{
				"x": 2.2039730987,
				"y": -1.6347436233,
				"z": -1.21275416,
				"element": "C" 
			},
			{
				"x": 3.0802568656,
				"y": -0.4771720162,
				"z": -1.7363824791,
				"element": "C" 
			},
			{
				"x": 2.3832589892,
				"y": 0.8260979548,
				"z": -1.2489933654,
				"element": "C" 
			},
			{
				"x": -4.2869520423,
				"y": 3.0560534508,
				"z": 3.9529535973,
				"element": "H" 
			},
			{
				"x": -5.1917593733,
				"y": 2.2643198371,
				"z": 2.6409545454,
				"element": "H" 
			},
			{
				"x": -4.4458210007,
				"y": 1.2839355241,
				"z": 3.9253226446,
				"element": "H" 
			},
			{
				"x": -3.9476385316,
				"y": 2.2008626705,
				"z": 0.5071364485,
				"element": "H" 
			},
			{
				"x": 1.6371573981,
				"y": -0.1615015885,
				"z": 1.2699357584,
				"element": "H" 
			},
			{
				"x": 0.1957910622,
				"y": 1.0696535761,
				"z": -1.0081838196,
				"element": "H" 
			},
			{
				"x": 0.0595758951,
				"y": -1.5903919914,
				"z": -0.6166105714,
				"element": "H" 
			},
			{
				"x": 0.4141758073,
				"y": -0.9782940996,
				"z": -2.2395664906,
				"element": "H" 
			},
			{
				"x": 2.2846132759,
				"y": -2.5417818767,
				"z": -1.8197151409,
				"element": "H" 
			},
			{
				"x": 2.4999304915,
				"y": -1.9119422762,
				"z": -0.1915791594,
				"element": "H" 
			},
			{
				"x": 3.1036523682,
				"y": -0.504251301,
				"z": -2.8317501248,
				"element": "H" 
			},
			{
				"x": 4.1180074689,
				"y": -0.5502736766,
				"z": -1.3973644345,
				"element": "H" 
			},
			{
				"x": 2.253367449,
				"y": 1.5364359273,
				"z": -2.0707786669,
				"element": "H" 
			},
			{
				"x": 2.9587354497,
				"y": 1.3501670746,
				"z": -0.4829153918,
				"element": "H" 
			}
		],
		 "valence_orbital": [ 
			{
				"type": "occ",
				"energy": -0.29814,
				"method": "rhf"
			},
			{
				"type": "occ",
				"energy": -0.28726,
				"method": "rhf"
			},
			{
				"type": "occ",
				"energy": -0.28556,
				"method": "rhf"
			},
			{
				"type": "occ",
				"energy": -0.25936,
				"method": "rhf"
			},
			{
				"type": "occ",
				"energy": -0.23927,
				"method": "rhf"
			},
			{
				"type": "unocc",
				"energy": -0.00437,
				"method": "rhf"
			},
			{
				"type": "unocc",
				"energy": 0.01945,
				"method": "rhf"
			},
			{
				"type": "unocc",
				"energy": 0.02288,
				"method": "rhf"
			},
			{
				"type": "unocc",
				"energy": 0.05853,
				"method": "rhf"
			},
			{
				"type": "unocc",
				"energy": 0.07524,
				"method": "rhf"
			}
		],
		"cosmo_sigma_profile": { 
			"-0.025": 0.0,
			"-0.024": 0.0,
			"-0.023": 0.0,
			"-0.022": 0.0,
			"-0.021": 0.0,
			"-0.02": 0.0,
			"-0.019": 0.0,
			"-0.018": 0.0,
			"-0.017": 0.0,
			"-0.016": 0.0,
			"-0.015": 0.0,
			"-0.014": 0.00545223083835,
			"-0.013": 0.630445668382,
			"-0.012": 1.02059429394,
			"-0.011": 2.62231789639,
			"-0.01": 5.03511814013,
			"-0.009": 3.89644373724,
			"-0.008": 5.26652004092,
			"-0.007": 8.65600084911,
			"-0.006": 10.4537578933,
			"-0.005": 11.3719889699,
			"-0.004": 19.2042483732,
			"-0.003": 24.4237183579,
			"-0.002": 29.1717347851,
			"-0.001": 27.9277339731,
			"0.0": 24.6425103759,
			"0.001": 23.62194824,
			"0.002": 11.7148192695,
			"0.003": 7.92883532895,
			"0.004": 6.86934474915,
			"0.005": 5.82754780176,
			"0.006": 5.3469646268,
			"0.007": 7.28369908992,
			"0.008": 5.69917036088,
			"0.009": 7.00766064503,
			"0.01": 8.56358736312,
			"0.011": 12.1536650325,
			"0.012": 4.33035722861,
			"0.013": 0.386518812305,
			"0.014": 0.0,
			"0.015": 0.0,
			"0.016": 0.0,
			"0.017": 0.0,
			"0.018": 0.0,
			"0.019": 0.0,
			"0.02": 0.0,
			"0.021": 0.0,
			"0.022": 0.0,
			"0.023": 0.0,
			"0.024": 0.0,
			"0.025": 0.0
		}
	}
}
