{
	 "smiles": "COC1=C(F)C=CC(=C1)C#N", 
	 "Tm": 382.15, 
	 "num_atms": 17, 
	 "gaussian": { 
		 "optdone": 1, 
		 "sigma_profile": "yes", 
		 "theory": "DFT", 
		 "functional": "B3LYP", 
		 "basiset": "6-31G**", 
		 "properties": { 
			 "R2extent": 2182.536, 
			 "electric_dipole_moment_norm": 4.89807869067, 
			 "electric_quadrupole_moment_norm": 22.8932546915, 
			 "total_energy": -538.239312063, 
			 "HOMO_LUMO_gap": 0.19368, 
			 "cosmo_polarized_energy": -8.95, 
			 "cosmo_cavitation_energy": 22.92, 
			 "cosmo_dispersion_energy": -16.34, 
			 "cosmo_repulsion_energy": 1.29, 
			 "cosmo_total_nonelectrostatic_energy": 7.86, 
			 "SMD_solvation_energy": 6.66 
		},
		"coords": [
			{
				"x": 2.0576290358,
				"y": 1.9814437493,
				"z": -1.1589226879,
				"element": "C" 
			},
			{
				"x": 2.0911941388,
				"y": 0.5525766425,
				"z": -1.0937205005,
				"element": "O" 
			},
			{
				"x": 1.1365689474,
				"y": -0.1553459309,
				"z": -0.4418448626,
				"element": "C" 
			},
			{
				"x": 0.0166318716,
				"y": 0.3496142462,
				"z": 0.2414699888,
				"element": "C" 
			},
			{
				"x": -0.2070233849,
				"y": 1.6829867902,
				"z": 0.30257048,
				"element": "F" 
			},
			{
				"x": -0.8966691785,
				"y": -0.4866547341,
				"z": 0.8748801138,
				"element": "C" 
			},
			{
				"x": -0.7238953303,
				"y": -1.8645035388,
				"z": 0.8487681403,
				"element": "C" 
			},
			{
				"x": 0.3878433776,
				"y": -2.3957207512,
				"z": 0.1722518287,
				"element": "C" 
			},
			{
				"x": 1.3017848601,
				"y": -1.5462252158,
				"z": -0.4623847255,
				"element": "C" 
			},
			{
				"x": 0.5908752031,
				"y": -3.8149000741,
				"z": 0.129328145,
				"element": "C" 
			},
			{
				"x": 0.7496784801,
				"y": -4.9667921246,
				"z": 0.0983118344,
				"element": "N" 
			},
			{
				"x": 2.1171401602,
				"y": 2.4315326649,
				"z": -0.16426264,
				"element": "H" 
			},
			{
				"x": 1.1583792723,
				"y": 2.3404944663,
				"z": -1.6667339051,
				"element": "H" 
			},
			{
				"x": 2.9398164952,
				"y": 2.2561843347,
				"z": -1.738505243,
				"element": "H" 
			},
			{
				"x": -1.7384012798,
				"y": -0.0294191908,
				"z": 1.3837141528,
				"element": "H" 
			},
			{
				"x": -1.4312042445,
				"y": -2.5221698618,
				"z": 1.3399237927,
				"element": "H" 
			},
			{
				"x": 2.1621515758,
				"y": -1.946001472,
				"z": -0.986643912,
				"element": "H" 
			}
		],
		 "valence_orbital": [ 
			{
				"type": "occ",
				"energy": -0.34431,
				"method": "rhf"
			},
			{
				"type": "occ",
				"energy": -0.33151,
				"method": "rhf"
			},
			{
				"type": "occ",
				"energy": -0.32813,
				"method": "rhf"
			},
			{
				"type": "occ",
				"energy": -0.26832,
				"method": "rhf"
			},
			{
				"type": "occ",
				"energy": -0.24216,
				"method": "rhf"
			},
			{
				"type": "unocc",
				"energy": -0.04848,
				"method": "rhf"
			},
			{
				"type": "unocc",
				"energy": -0.02367,
				"method": "rhf"
			},
			{
				"type": "unocc",
				"energy": 0.03618,
				"method": "rhf"
			},
			{
				"type": "unocc",
				"energy": 0.05781,
				"method": "rhf"
			},
			{
				"type": "unocc",
				"energy": 0.08255,
				"method": "rhf"
			}
		],
		"cosmo_sigma_profile": { 
			"-0.025": 0.0,
			"-0.024": 0.0,
			"-0.023": 0.0,
			"-0.022": 0.0,
			"-0.021": 0.0,
			"-0.02": 0.0,
			"-0.019": 0.0,
			"-0.018": 0.0,
			"-0.017": 0.0,
			"-0.016": 0.0,
			"-0.015": 0.0,
			"-0.014": 0.0,
			"-0.013": 0.0,
			"-0.012": 0.0,
			"-0.011": 0.0,
			"-0.01": 0.0,
			"-0.009": 0.721057126548,
			"-0.008": 5.51200050705,
			"-0.007": 6.20030477746,
			"-0.006": 10.6198729763,
			"-0.005": 12.5909791564,
			"-0.004": 13.8260236071,
			"-0.003": 12.6679680977,
			"-0.002": 13.4232990851,
			"-0.001": 17.4262886643,
			"0.0": 15.7872638994,
			"0.001": 18.0573536696,
			"0.002": 11.6052946314,
			"0.003": 9.46872615018,
			"0.004": 6.1045513516,
			"0.005": 3.95327206222,
			"0.006": 3.92404665834,
			"0.007": 4.15646767974,
			"0.008": 4.64269892572,
			"0.009": 4.52795013375,
			"0.01": 3.2486333009,
			"0.011": 2.60573147382,
			"0.012": 2.6052871031,
			"0.013": 1.4614947159,
			"0.014": 0.0156593862834,
			"0.015": 0.0,
			"0.016": 0.0,
			"0.017": 0.0,
			"0.018": 0.0,
			"0.019": 0.0,
			"0.02": 0.0,
			"0.021": 0.0,
			"0.022": 0.0,
			"0.023": 0.0,
			"0.024": 0.0,
			"0.025": 0.0
		}
	}
}
