{
	 "smiles": "CCCCCCC=NO", 
	 "Tm": 330.65, 
	 "num_atms": 24, 
	 "gaussian": { 
		 "optdone": 1, 
		 "sigma_profile": "yes", 
		 "theory": "DFT", 
		 "functional": "B3LYP", 
		 "basiset": "6-31G**", 
		 "properties": { 
			 "R2extent": 2703.162, 
			 "electric_dipole_moment_norm": 0.731663078199, 
			 "electric_quadrupole_moment_norm": 4.85354301516, 
			 "total_energy": -405.714018434, 
			 "HOMO_LUMO_gap": 0.25551, 
			 "cosmo_polarized_energy": -6.66, 
			 "cosmo_cavitation_energy": 26.54, 
			 "cosmo_dispersion_energy": -18.84, 
			 "cosmo_repulsion_energy": 1.61, 
			 "cosmo_total_nonelectrostatic_energy": 9.31, 
			 "SMD_solvation_energy": 4.45 
		},
		"coords": [
			{
				"x": 0.1580933104,
				"y": 4.6139313992,
				"z": 0.8032313711,
				"element": "C" 
			},
			{
				"x": -0.4984393261,
				"y": 3.6578679718,
				"z": -0.1983343074,
				"element": "C" 
			},
			{
				"x": 0.5213866063,
				"y": 2.8036327813,
				"z": -0.9643367637,
				"element": "C" 
			},
			{
				"x": -0.0848325658,
				"y": 1.8927970356,
				"z": -2.0463295548,
				"element": "C" 
			},
			{
				"x": -1.0528065222,
				"y": 0.8059487023,
				"z": -1.5474095592,
				"element": "C" 
			},
			{
				"x": -0.4017506121,
				"y": -0.2291314808,
				"z": -0.6080585128,
				"element": "C" 
			},
			{
				"x": -1.336285231,
				"y": -1.346996107,
				"z": -0.2539135966,
				"element": "C" 
			},
			{
				"x": -1.6700087586,
				"y": -1.5427359025,
				"z": 0.9623065585,
				"element": "N" 
			},
			{
				"x": -2.559462846,
				"y": -2.6288272323,
				"z": 1.0740730786,
				"element": "O" 
			},
			{
				"x": -0.5888347342,
				"y": 5.2119789232,
				"z": 1.3354852934,
				"element": "H" 
			},
			{
				"x": 0.8424672759,
				"y": 5.30669507,
				"z": 0.3000625947,
				"element": "H" 
			},
			{
				"x": 0.7387037262,
				"y": 4.0643810817,
				"z": 1.5530835074,
				"element": "H" 
			},
			{
				"x": -1.0974422692,
				"y": 4.23419015,
				"z": -0.9171357542,
				"element": "H" 
			},
			{
				"x": -1.2052909619,
				"y": 3.0093890344,
				"z": 0.3345875596,
				"element": "H" 
			},
			{
				"x": 1.1008166624,
				"y": 2.2041318172,
				"z": -0.249077188,
				"element": "H" 
			},
			{
				"x": 1.2482146465,
				"y": 3.4716286203,
				"z": -1.4463837268,
				"element": "H" 
			},
			{
				"x": 0.7322037569,
				"y": 1.408136337,
				"z": -2.598398603,
				"element": "H" 
			},
			{
				"x": -0.6141277238,
				"y": 2.5185840504,
				"z": -2.7775790968,
				"element": "H" 
			},
			{
				"x": -1.4673185677,
				"y": 0.2827180253,
				"z": -2.4193182537,
				"element": "H" 
			},
			{
				"x": -1.9086993382,
				"y": 1.2619523357,
				"z": -1.0355361821,
				"element": "H" 
			},
			{
				"x": 0.4856020156,
				"y": -0.6501881473,
				"z": -1.1037455147,
				"element": "H" 
			},
			{
				"x": -0.0617417175,
				"y": 0.2407330283,
				"z": 0.3196772471,
				"element": "H" 
			},
			{
				"x": -1.7387082941,
				"y": -1.9825600676,
				"z": -1.0491459097,
				"element": "H" 
			},
			{
				"x": -2.7221385316,
				"y": -2.6631574261,
				"z": 2.025895313,
				"element": "H" 
			}
		],
		 "valence_orbital": [ 
			{
				"type": "occ",
				"energy": -0.31895,
				"method": "rhf"
			},
			{
				"type": "occ",
				"energy": -0.31731,
				"method": "rhf"
			},
			{
				"type": "occ",
				"energy": -0.31097,
				"method": "rhf"
			},
			{
				"type": "occ",
				"energy": -0.27135,
				"method": "rhf"
			},
			{
				"type": "occ",
				"energy": -0.24641,
				"method": "rhf"
			},
			{
				"type": "unocc",
				"energy": 0.0091,
				"method": "rhf"
			},
			{
				"type": "unocc",
				"energy": 0.07654,
				"method": "rhf"
			},
			{
				"type": "unocc",
				"energy": 0.08914,
				"method": "rhf"
			},
			{
				"type": "unocc",
				"energy": 0.10791,
				"method": "rhf"
			},
			{
				"type": "unocc",
				"energy": 0.11999,
				"method": "rhf"
			}
		],
		"cosmo_sigma_profile": { 
			"-0.025": 0.0,
			"-0.024": 0.0,
			"-0.023": 0.0,
			"-0.022": 0.0,
			"-0.021": 0.0,
			"-0.02": 0.0,
			"-0.019": 0.0,
			"-0.018": 0.00965848731173,
			"-0.017": 0.597481863932,
			"-0.016": 0.816158711904,
			"-0.015": 1.20140778427,
			"-0.014": 0.750647746842,
			"-0.013": 0.731130799139,
			"-0.012": 0.666965590181,
			"-0.011": 0.592165908276,
			"-0.01": 0.347549704769,
			"-0.009": 0.481588288509,
			"-0.008": 0.896595407646,
			"-0.007": 1.11722058011,
			"-0.006": 2.83187283471,
			"-0.005": 2.82828204449,
			"-0.004": 6.04142381522,
			"-0.003": 14.0339624428,
			"-0.002": 31.0982563028,
			"-0.001": 35.339506763,
			"0.0": 33.8166284902,
			"0.001": 25.4823769854,
			"0.002": 12.7375632789,
			"0.003": 3.05940972762,
			"0.004": 3.37919925796,
			"0.005": 3.47698772929,
			"0.006": 4.42485061641,
			"0.007": 3.08769690641,
			"0.008": 2.55673640714,
			"0.009": 3.31718499767,
			"0.01": 2.77909014135,
			"0.011": 3.46974599324,
			"0.012": 1.4965604888,
			"0.013": 0.826446492778,
			"0.014": 0.50175278244,
			"0.015": 0.0181340523066,
			"0.016": 0.0,
			"0.017": 0.0,
			"0.018": 0.0,
			"0.019": 0.0,
			"0.02": 0.0,
			"0.021": 0.0,
			"0.022": 0.0,
			"0.023": 0.0,
			"0.024": 0.0,
			"0.025": 0.0
		}
	}
}
