{
	 "smiles": "CCCCCCCCC1=CC=C(C=C1)N=NC1=CC=C(OC(=O)CCCCCCC)C=C1", 
	 "Tm": 333.65, 
	 "num_atms": 72, 
	 "gaussian": { 
		 "optdone": 1, 
		 "sigma_profile": "yes", 
		 "theory": "DFT", 
		 "functional": "B3LYP", 
		 "basiset": "6-31G**", 
		 "properties": { 
			 "R2extent": 24639.5786, 
			 "electric_dipole_moment_norm": 3.57039469107, 
			 "electric_quadrupole_moment_norm": 33.3694698681, 
			 "total_energy": -1351.03414506, 
			 "HOMO_LUMO_gap": 0.13454, 
			 "cosmo_polarized_energy": -13.33, 
			 "cosmo_cavitation_energy": 73.52, 
			 "cosmo_dispersion_energy": -47.25, 
			 "cosmo_repulsion_energy": 3.73, 
			 "cosmo_total_nonelectrostatic_energy": 30.0, 
			 "SMD_solvation_energy": 9.56 
		},
		"coords": [
			{
				"x": 3.1953127498,
				"y": -3.9125710205,
				"z": 3.5120076871,
				"element": "C" 
			},
			{
				"x": 2.7232352686,
				"y": -2.460652467,
				"z": 3.6432441322,
				"element": "C" 
			},
			{
				"x": 1.6504198378,
				"y": -2.2775655389,
				"z": 4.7263761374,
				"element": "C" 
			},
			{
				"x": 1.1903766381,
				"y": -0.8259971688,
				"z": 4.9457414169,
				"element": "C" 
			},
			{
				"x": 0.4230059468,
				"y": -0.2148055624,
				"z": 3.7634258649,
				"element": "C" 
			},
			{
				"x": -0.0177125611,
				"y": 1.2454207588,
				"z": 3.9733097136,
				"element": "C" 
			},
			{
				"x": -1.0396031625,
				"y": 1.4900798491,
				"z": 5.0971815248,
				"element": "C" 
			},
			{
				"x": -2.4311283977,
				"y": 0.8511093707,
				"z": 4.8762556993,
				"element": "C" 
			},
			{
				"x": -3.1745493412,
				"y": 1.399418919,
				"z": 3.6766903722,
				"element": "C" 
			},
			{
				"x": -3.7476004645,
				"y": 2.6808957802,
				"z": 3.714943425,
				"element": "C" 
			},
			{
				"x": -4.4352818418,
				"y": 3.1953272768,
				"z": 2.6209271572,
				"element": "C" 
			},
			{
				"x": -4.5157157583,
				"y": 2.4596468994,
				"z": 1.4298916115,
				"element": "C" 
			},
			{
				"x": -3.9684362739,
				"y": 1.1699855765,
				"z": 1.3810579997,
				"element": "C" 
			},
			{
				"x": -3.3171472226,
				"y": 0.6524529911,
				"z": 2.4984677949,
				"element": "C" 
			},
			{
				"x": -5.3334533016,
				"y": 3.0131255493,
				"z": 0.3912218455,
				"element": "N" 
			},
			{
				"x": -5.040037117,
				"y": 2.9833524045,
				"z": -0.8241415528,
				"element": "N" 
			},
			{
				"x": -3.7613109926,
				"y": 2.5825957143,
				"z": -1.3345920375,
				"element": "C" 
			},
			{
				"x": -3.7705296113,
				"y": 1.8152646216,
				"z": -2.5073196291,
				"element": "C" 
			},
			{
				"x": -2.5751332107,
				"y": 1.4763643778,
				"z": -3.1323317026,
				"element": "C" 
			},
			{
				"x": -1.3689252527,
				"y": 1.9557892875,
				"z": -2.6198508964,
				"element": "C" 
			},
			{
				"x": -0.231802523,
				"y": 1.6482029111,
				"z": -3.3633617252,
				"element": "O" 
			},
			{
				"x": 0.9536596116,
				"y": 1.3038809447,
				"z": -2.7593115961,
				"element": "C" 
			},
			{
				"x": 1.1168471216,
				"y": 1.2522658054,
				"z": -1.5646833157,
				"element": "O" 
			},
			{
				"x": 1.9881164334,
				"y": 0.9805842696,
				"z": -3.8136553873,
				"element": "C" 
			},
			{
				"x": 1.6886741624,
				"y": -0.3408048642,
				"z": -4.550962596,
				"element": "C" 
			},
			{
				"x": 2.7594369448,
				"y": -0.6742702579,
				"z": -5.5983716753,
				"element": "C" 
			},
			{
				"x": 2.4648144253,
				"y": -1.9404973417,
				"z": -6.4222801305,
				"element": "C" 
			},
			{
				"x": 2.4150190892,
				"y": -3.2627294017,
				"z": -5.6363097299,
				"element": "C" 
			},
			{
				"x": 3.737235594,
				"y": -3.6633528057,
				"z": -4.9671287615,
				"element": "C" 
			},
			{
				"x": 3.6654594183,
				"y": -5.0291955796,
				"z": -4.2761348664,
				"element": "C" 
			},
			{
				"x": -1.3463440976,
				"y": 2.7743822728,
				"z": -1.4875570296,
				"element": "C" 
			},
			{
				"x": -2.542871682,
				"y": 3.0754655918,
				"z": -0.8426913835,
				"element": "C" 
			},
			{
				"x": 2.3642850853,
				"y": -4.5769373318,
				"z": 3.2480834691,
				"element": "H" 
			},
			{
				"x": 3.962116957,
				"y": -4.016941201,
				"z": 2.7372758981,
				"element": "H" 
			},
			{
				"x": 3.621537553,
				"y": -4.277917514,
				"z": 4.4535555721,
				"element": "H" 
			},
			{
				"x": 3.581982732,
				"y": -1.8158954537,
				"z": 3.8765271237,
				"element": "H" 
			},
			{
				"x": 2.3408337862,
				"y": -2.1176570919,
				"z": 2.6740162226,
				"element": "H" 
			},
			{
				"x": 0.778389601,
				"y": -2.9012911607,
				"z": 4.4806007207,
				"element": "H" 
			},
			{
				"x": 2.0420746316,
				"y": -2.6701659602,
				"z": 5.6749384061,
				"element": "H" 
			},
			{
				"x": 0.5612525252,
				"y": -0.7961811715,
				"z": 5.8444708539,
				"element": "H" 
			},
			{
				"x": 2.0659241797,
				"y": -0.1989726445,
				"z": 5.1696834734,
				"element": "H" 
			},
			{
				"x": -0.4498387482,
				"y": -0.8439014748,
				"z": 3.5391362968,
				"element": "H" 
			},
			{
				"x": 1.0494862849,
				"y": -0.2485577832,
				"z": 2.8642178941,
				"element": "H" 
			},
			{
				"x": -0.4295713275,
				"y": 1.6273849655,
				"z": 3.0311557866,
				"element": "H" 
			},
			{
				"x": 0.873811413,
				"y": 1.8524579476,
				"z": 4.181373702,
				"element": "H" 
			},
			{
				"x": -0.6423990377,
				"y": 1.1270680264,
				"z": 6.0531062156,
				"element": "H" 
			},
			{
				"x": -1.1705752411,
				"y": 2.5730842352,
				"z": 5.2182339614,
				"element": "H" 
			},
			{
				"x": -3.0311125464,
				"y": 1.0208422325,
				"z": 5.7793066788,
				"element": "H" 
			},
			{
				"x": -2.3295922459,
				"y": -0.2353420786,
				"z": 4.7767862572,
				"element": "H" 
			},
			{
				"x": -3.6757781232,
				"y": 3.2717926811,
				"z": 4.6249406828,
				"element": "H" 
			},
			{
				"x": -4.9143000389,
				"y": 4.1686222761,
				"z": 2.6667263847,
				"element": "H" 
			},
			{
				"x": -4.0658218712,
				"y": 0.5719150241,
				"z": 0.4816723229,
				"element": "H" 
			},
			{
				"x": -2.9096754003,
				"y": -0.3542503203,
				"z": 2.4538561018,
				"element": "H" 
			},
			{
				"x": -4.7224003131,
				"y": 1.486113443,
				"z": -2.9116126762,
				"element": "H" 
			},
			{
				"x": -2.5626246391,
				"y": 0.8655881944,
				"z": -4.0288582512,
				"element": "H" 
			},
			{
				"x": 2.9552833211,
				"y": 0.9271252387,
				"z": -3.3072002551,
				"element": "H" 
			},
			{
				"x": 2.0204504864,
				"y": 1.8033845511,
				"z": -4.5372726636,
				"element": "H" 
			},
			{
				"x": 0.7074735266,
				"y": -0.2659961813,
				"z": -5.0346509926,
				"element": "H" 
			},
			{
				"x": 1.6156798422,
				"y": -1.1483856796,
				"z": -3.8127998424,
				"element": "H" 
			},
			{
				"x": 2.8523036833,
				"y": 0.1744842356,
				"z": -6.2893782838,
				"element": "H" 
			},
			{
				"x": 3.7352639344,
				"y": -0.7658919974,
				"z": -5.1037892767,
				"element": "H" 
			},
			{
				"x": 1.508034825,
				"y": -1.8038505444,
				"z": -6.9444111492,
				"element": "H" 
			},
			{
				"x": 3.2274145615,
				"y": -2.0274800205,
				"z": -7.2079660804,
				"element": "H" 
			},
			{
				"x": 1.6231124535,
				"y": -3.220107485,
				"z": -4.876148832,
				"element": "H" 
			},
			{
				"x": 2.1159679012,
				"y": -4.0613852166,
				"z": -6.3286931053,
				"element": "H" 
			},
			{
				"x": 4.5341184808,
				"y": -3.676268774,
				"z": -5.7236813635,
				"element": "H" 
			},
			{
				"x": 4.0306537251,
				"y": -2.9037586237,
				"z": -4.2312405177,
				"element": "H" 
			},
			{
				"x": 3.4152357581,
				"y": -5.8218749264,
				"z": -4.990529123,
				"element": "H" 
			},
			{
				"x": 4.6194438835,
				"y": -5.2924178659,
				"z": -3.8077525675,
				"element": "H" 
			},
			{
				"x": 2.8980563344,
				"y": -5.037473453,
				"z": -3.4935671672,
				"element": "H" 
			},
			{
				"x": -0.4086397172,
				"y": 3.1578413043,
				"z": -1.1085013954,
				"element": "H" 
			},
			{
				"x": -2.5312886458,
				"y": 3.7073284348,
				"z": 0.0382311519,
				"element": "H" 
			}
		],
		 "valence_orbital": [ 
			{
				"type": "occ",
				"energy": -0.2633,
				"method": "rhf"
			},
			{
				"type": "occ",
				"energy": -0.25719,
				"method": "rhf"
			},
			{
				"type": "occ",
				"energy": -0.24746,
				"method": "rhf"
			},
			{
				"type": "occ",
				"energy": -0.24685,
				"method": "rhf"
			},
			{
				"type": "occ",
				"energy": -0.20437,
				"method": "rhf"
			},
			{
				"type": "unocc",
				"energy": -0.06983,
				"method": "rhf"
			},
			{
				"type": "unocc",
				"energy": -0.01512,
				"method": "rhf"
			},
			{
				"type": "unocc",
				"energy": -0.01203,
				"method": "rhf"
			},
			{
				"type": "unocc",
				"energy": -0.00289,
				"method": "rhf"
			},
			{
				"type": "unocc",
				"energy": 0.00979,
				"method": "rhf"
			}
		],
		"cosmo_sigma_profile": { 
			"-0.025": 0.0,
			"-0.024": 0.0,
			"-0.023": 0.0,
			"-0.022": 0.0,
			"-0.021": 0.0,
			"-0.02": 0.0,
			"-0.019": 0.0,
			"-0.018": 0.0,
			"-0.017": 0.0,
			"-0.016": 0.0,
			"-0.015": 0.0,
			"-0.014": 0.0,
			"-0.013": 0.0,
			"-0.012": 0.0,
			"-0.011": 0.0,
			"-0.01": 0.0,
			"-0.009": 0.0,
			"-0.008": 0.0269600872326,
			"-0.007": 3.66152408149,
			"-0.006": 12.1360419961,
			"-0.005": 23.0369416652,
			"-0.004": 27.7695258259,
			"-0.003": 40.3279111139,
			"-0.002": 75.8537523183,
			"-0.001": 87.8794982608,
			"0.0": 93.1560435842,
			"0.001": 79.8993661714,
			"0.002": 47.1146386967,
			"0.003": 23.2773410255,
			"0.004": 17.0459940976,
			"0.005": 7.60525535127,
			"0.006": 4.31619034349,
			"0.007": 3.82120263125,
			"0.008": 3.99902636113,
			"0.009": 3.03341077123,
			"0.01": 4.53609832323,
			"0.011": 6.30112108532,
			"0.012": 4.82796325529,
			"0.013": 2.5113540983,
			"0.014": 1.21555332825,
			"0.015": 0.0442088550604,
			"0.016": 0.0,
			"0.017": 0.0,
			"0.018": 0.0,
			"0.019": 0.0,
			"0.02": 0.0,
			"0.021": 0.0,
			"0.022": 0.0,
			"0.023": 0.0,
			"0.024": 0.0,
			"0.025": 0.0
		}
	}
}
