{
	 "smiles": "NC1=CC=C(C=C1)C1=NOC(=O)N1", 
	 "Tm": 472.15, 
	 "num_atms": 20, 
	 "gaussian": { 
		 "optdone": 1, 
		 "sigma_profile": "yes", 
		 "theory": "DFT", 
		 "functional": "B3LYP", 
		 "basiset": "6-31G**", 
		 "properties": { 
			 "R2extent": 3388.8459, 
			 "electric_dipole_moment_norm": 8.65722903648, 
			 "electric_quadrupole_moment_norm": 19.6725319685, 
			 "total_energy": -623.751947431, 
			 "HOMO_LUMO_gap": 0.17617, 
			 "cosmo_polarized_energy": -21.75, 
			 "cosmo_cavitation_energy": 25.31, 
			 "cosmo_dispersion_energy": -19.08, 
			 "cosmo_repulsion_energy": 1.5, 
			 "cosmo_total_nonelectrostatic_energy": 7.72, 
			 "SMD_solvation_energy": 5.28 
		},
		"coords": [
			{
				"x": -0.7536981997,
				"y": 3.4687803848,
				"z": -1.0681283664,
				"element": "N" 
			},
			{
				"x": -0.4426398943,
				"y": 2.1363987697,
				"z": -0.8605272025,
				"element": "C" 
			},
			{
				"x": -0.3848917178,
				"y": 1.6021579214,
				"z": 0.4404372996,
				"element": "C" 
			},
			{
				"x": -0.0205089387,
				"y": 0.2777879708,
				"z": 0.6442691211,
				"element": "C" 
			},
			{
				"x": 0.3005061806,
				"y": -0.5588310387,
				"z": -0.4354646786,
				"element": "C" 
			},
			{
				"x": 0.2405528706,
				"y": -0.0253800989,
				"z": -1.7355121737,
				"element": "C" 
			},
			{
				"x": -0.1241045338,
				"y": 1.2936918125,
				"z": -1.9458550716,
				"element": "C" 
			},
			{
				"x": 0.6783832003,
				"y": -1.9566176956,
				"z": -0.2420104596,
				"element": "C" 
			},
			{
				"x": 0.7266961039,
				"y": -2.8394084522,
				"z": -1.1993461376,
				"element": "N" 
			},
			{
				"x": 1.1534522779,
				"y": -4.0476518637,
				"z": -0.5818463322,
				"element": "O" 
			},
			{
				"x": 1.3489015781,
				"y": -3.8535928877,
				"z": 0.7619329988,
				"element": "C" 
			},
			{
				"x": 1.719288387,
				"y": -4.685966846,
				"z": 1.550568071,
				"element": "O" 
			},
			{
				"x": 1.0268814433,
				"y": -2.5189423326,
				"z": 0.9667472081,
				"element": "N" 
			},
			{
				"x": -1.0716631711,
				"y": 3.7232709634,
				"z": -1.9917003932,
				"element": "H" 
			},
			{
				"x": -1.2486008776,
				"y": 3.9430154268,
				"z": -0.327218849,
				"element": "H" 
			},
			{
				"x": -0.6300061371,
				"y": 2.2323356174,
				"z": 1.2910493867,
				"element": "H" 
			},
			{
				"x": -0.0116236776,
				"y": -0.1050972712,
				"z": 1.661257224,
				"element": "H" 
			},
			{
				"x": 0.4871328736,
				"y": -0.6635411737,
				"z": -2.5774197466,
				"element": "H" 
			},
			{
				"x": -0.1572409637,
				"y": 1.6898977912,
				"z": -2.9573125988,
				"element": "H" 
			},
			{
				"x": 1.1560831962,
				"y": -2.0556069979,
				"z": 1.8509807003,
				"element": "H" 
			}
		],
		 "valence_orbital": [ 
			{
				"type": "occ",
				"energy": -0.32484,
				"method": "rhf"
			},
			{
				"type": "occ",
				"energy": -0.27576,
				"method": "rhf"
			},
			{
				"type": "occ",
				"energy": -0.27224,
				"method": "rhf"
			},
			{
				"type": "occ",
				"energy": -0.25557,
				"method": "rhf"
			},
			{
				"type": "occ",
				"energy": -0.21697,
				"method": "rhf"
			},
			{
				"type": "unocc",
				"energy": -0.0408,
				"method": "rhf"
			},
			{
				"type": "unocc",
				"energy": -0.02052,
				"method": "rhf"
			},
			{
				"type": "unocc",
				"energy": 0.0406,
				"method": "rhf"
			},
			{
				"type": "unocc",
				"energy": 0.05416,
				"method": "rhf"
			},
			{
				"type": "unocc",
				"energy": 0.05886,
				"method": "rhf"
			}
		],
		"cosmo_sigma_profile": { 
			"-0.025": 0.0,
			"-0.024": 0.0,
			"-0.023": 0.0,
			"-0.022": 0.0,
			"-0.021": 0.0,
			"-0.02": 0.0,
			"-0.019": 0.0254811857218,
			"-0.018": 0.836533014208,
			"-0.017": 1.37386940236,
			"-0.016": 0.588553650757,
			"-0.015": 1.60105295036,
			"-0.014": 1.39374710934,
			"-0.013": 4.02349918601,
			"-0.012": 3.90290718291,
			"-0.011": 4.54227017515,
			"-0.01": 4.49045170718,
			"-0.009": 4.5649711488,
			"-0.008": 3.93441372441,
			"-0.007": 5.97576461517,
			"-0.006": 8.34689705233,
			"-0.005": 8.57368046542,
			"-0.004": 11.2529551378,
			"-0.003": 9.78139114224,
			"-0.002": 9.49301675135,
			"-0.001": 8.91419779713,
			"0.0": 7.72318121539,
			"0.001": 10.1491444051,
			"0.002": 9.84750710398,
			"0.003": 10.7682802563,
			"0.004": 16.4619609057,
			"0.005": 9.55265549986,
			"0.006": 4.7764770821,
			"0.007": 6.40891366124,
			"0.008": 8.92446762704,
			"0.009": 4.22050483698,
			"0.01": 4.38152325381,
			"0.011": 6.77375915334,
			"0.012": 7.65440737488,
			"0.013": 1.55420057021,
			"0.014": 0.0295769784461,
			"0.015": 0.0,
			"0.016": 0.0,
			"0.017": 0.0,
			"0.018": 0.0,
			"0.019": 0.0,
			"0.02": 0.0,
			"0.021": 0.0,
			"0.022": 0.0,
			"0.023": 0.0,
			"0.024": 0.0,
			"0.025": 0.0
		}
	}
}
