{
	 "smiles": "CC(CCC(O)=O)N1N=NC2=C1C=CC=C2", 
	 "Tm": 359.15, 
	 "num_atms": 29, 
	 "gaussian": { 
		 "optdone": 1, 
		 "sigma_profile": "yes", 
		 "theory": "DFT", 
		 "functional": "B3LYP", 
		 "basiset": "6-31G**", 
		 "properties": { 
			 "R2extent": 4336.0917, 
			 "electric_dipole_moment_norm": 3.44150666569, 
			 "electric_quadrupole_moment_norm": 29.0055375544, 
			 "total_energy": -741.692864955, 
			 "HOMO_LUMO_gap": 0.1924, 
			 "cosmo_polarized_energy": -20.88, 
			 "cosmo_cavitation_energy": 32.9, 
			 "cosmo_dispersion_energy": -23.17, 
			 "cosmo_repulsion_energy": 1.81, 
			 "cosmo_total_nonelectrostatic_energy": 11.54, 
			 "SMD_solvation_energy": 4.91 
		},
		"coords": [
			{
				"x": -0.1189219561,
				"y": -0.4462030277,
				"z": -2.7617083735,
				"element": "C" 
			},
			{
				"x": -0.4904028795,
				"y": 0.2048706439,
				"z": -1.4247720769,
				"element": "C" 
			},
			{
				"x": 0.2318571886,
				"y": 1.5385417506,
				"z": -1.142428887,
				"element": "C" 
			},
			{
				"x": 1.7598360165,
				"y": 1.4584400724,
				"z": -1.112140912,
				"element": "C" 
			},
			{
				"x": 2.3936752496,
				"y": 2.794809505,
				"z": -0.7506845887,
				"element": "C" 
			},
			{
				"x": 3.7473237801,
				"y": 2.7758250021,
				"z": -0.6181187818,
				"element": "O" 
			},
			{
				"x": 1.785701479,
				"y": 3.8243687623,
				"z": -0.5945435708,
				"element": "O" 
			},
			{
				"x": -0.3124566203,
				"y": -0.7495641093,
				"z": -0.3206094984,
				"element": "N" 
			},
			{
				"x": 0.8404153046,
				"y": -1.4714054321,
				"z": -0.193962365,
				"element": "N" 
			},
			{
				"x": 0.7822723382,
				"y": -2.1994543519,
				"z": 0.8752011142,
				"element": "N" 
			},
			{
				"x": -0.4284509994,
				"y": -1.9680963301,
				"z": 1.4907937071,
				"element": "C" 
			},
			{
				"x": -1.1474071402,
				"y": -1.0239065167,
				"z": 0.728432798,
				"element": "C" 
			},
			{
				"x": -2.4255016789,
				"y": -0.5799319269,
				"z": 1.1053216591,
				"element": "C" 
			},
			{
				"x": -2.9481496205,
				"y": -1.1227265191,
				"z": 2.2694176066,
				"element": "C" 
			},
			{
				"x": -2.2357367061,
				"y": -2.074015394,
				"z": 3.041860976,
				"element": "C" 
			},
			{
				"x": -0.975131472,
				"y": -2.5080940167,
				"z": 2.6674004368,
				"element": "C" 
			},
			{
				"x": -0.2678621403,
				"y": 0.2704165617,
				"z": -3.5750610171,
				"element": "H" 
			},
			{
				"x": -0.7493451525,
				"y": -1.3191828921,
				"z": -2.9508438473,
				"element": "H" 
			},
			{
				"x": 0.9210338876,
				"y": -0.7773624837,
				"z": -2.7691103648,
				"element": "H" 
			},
			{
				"x": -1.5644731501,
				"y": 0.419374616,
				"z": -1.4360248889,
				"element": "H" 
			},
			{
				"x": -0.0765081681,
				"y": 2.2624842087,
				"z": -1.9041898277,
				"element": "H" 
			},
			{
				"x": -0.1215997422,
				"y": 1.9379830138,
				"z": -0.1865543897,
				"element": "H" 
			},
			{
				"x": 2.0930347615,
				"y": 0.6932220727,
				"z": -0.4004281648,
				"element": "H" 
			},
			{
				"x": 2.159457906,
				"y": 1.1525703943,
				"z": -2.0882231968,
				"element": "H" 
			},
			{
				"x": 4.0840881567,
				"y": 1.8775983894,
				"z": -0.7482037634,
				"element": "H" 
			},
			{
				"x": -2.9797168324,
				"y": 0.1508434492,
				"z": 0.5253684264,
				"element": "H" 
			},
			{
				"x": -3.9331142245,
				"y": -0.8088628093,
				"z": 2.6021652807,
				"element": "H" 
			},
			{
				"x": -2.693984753,
				"y": -2.4648262534,
				"z": 3.9450542769,
				"element": "H" 
			},
			{
				"x": -0.4191328322,
				"y": -3.2351163792,
				"z": 3.2496922329,
				"element": "H" 
			}
		],
		 "valence_orbital": [ 
			{
				"type": "occ",
				"energy": -0.31284,
				"method": "rhf"
			},
			{
				"type": "occ",
				"energy": -0.27461,
				"method": "rhf"
			},
			{
				"type": "occ",
				"energy": -0.2688,
				"method": "rhf"
			},
			{
				"type": "occ",
				"energy": -0.25486,
				"method": "rhf"
			},
			{
				"type": "occ",
				"energy": -0.23941,
				"method": "rhf"
			},
			{
				"type": "unocc",
				"energy": -0.04701,
				"method": "rhf"
			},
			{
				"type": "unocc",
				"energy": 0.0064,
				"method": "rhf"
			},
			{
				"type": "unocc",
				"energy": 0.01023,
				"method": "rhf"
			},
			{
				"type": "unocc",
				"energy": 0.0303,
				"method": "rhf"
			},
			{
				"type": "unocc",
				"energy": 0.05632,
				"method": "rhf"
			}
		],
		"cosmo_sigma_profile": { 
			"-0.025": 0.0,
			"-0.024": 0.0,
			"-0.023": 0.0,
			"-0.022": 0.0,
			"-0.021": 0.0,
			"-0.02": 0.0,
			"-0.019": 0.546404368145,
			"-0.018": 1.15901171179,
			"-0.017": 1.26873668781,
			"-0.016": 0.815392671599,
			"-0.015": 1.02774612574,
			"-0.014": 1.10152776268,
			"-0.013": 1.07269419702,
			"-0.012": 1.1381925784,
			"-0.011": 0.927268336988,
			"-0.01": 1.16311112403,
			"-0.009": 1.80435058571,
			"-0.008": 4.27312118033,
			"-0.007": 9.19985822723,
			"-0.006": 13.8264761514,
			"-0.005": 20.7964023198,
			"-0.004": 26.9852015086,
			"-0.003": 19.3405388523,
			"-0.002": 14.4996879847,
			"-0.001": 16.5683619386,
			"0.0": 14.0572851836,
			"0.001": 12.311686479,
			"0.002": 13.5686270875,
			"0.003": 14.2978457247,
			"0.004": 13.4294875674,
			"0.005": 7.22162045286,
			"0.006": 4.62949639108,
			"0.007": 3.48517367029,
			"0.008": 5.23725988146,
			"0.009": 5.3608517875,
			"0.01": 7.13705739045,
			"0.011": 8.9424378855,
			"0.012": 7.30790277764,
			"0.013": 2.9797183041,
			"0.014": 1.67256789358,
			"0.015": 0.974660311582,
			"0.016": 0.575305672033,
			"0.017": 0.00206047783671,
			"0.018": 0.0,
			"0.019": 0.0,
			"0.02": 0.0,
			"0.021": 0.0,
			"0.022": 0.0,
			"0.023": 0.0,
			"0.024": 0.0,
			"0.025": 0.0
		}
	}
}
