{
	 "smiles": "CCCCCCCCCCCCCCCCCC(N)=O", 
	 "Tm": 382.15, 
	 "num_atms": 57, 
	 "gaussian": { 
		 "optdone": 1, 
		 "sigma_profile": "yes", 
		 "theory": "DFT", 
		 "functional": "B3LYP", 
		 "basiset": "6-31G**", 
		 "properties": { 
			 "R2extent": 18577.605, 
			 "electric_dipole_moment_norm": 3.43733456329, 
			 "electric_quadrupole_moment_norm": 36.4573911637, 
			 "total_energy": -838.254794515, 
			 "HOMO_LUMO_gap": 0.27014, 
			 "cosmo_polarized_energy": -12.37, 
			 "cosmo_cavitation_energy": 55.25, 
			 "cosmo_dispersion_energy": -37.77, 
			 "cosmo_repulsion_energy": 3.04, 
			 "cosmo_total_nonelectrostatic_energy": 20.52, 
			 "SMD_solvation_energy": 7.88 
		},
		"coords": [
			{
				"x": -1.9283431611,
				"y": -0.8280437672,
				"z": 5.5896545929,
				"element": "C" 
			},
			{
				"x": -0.9756641267,
				"y": -0.9602544218,
				"z": 6.7855106681,
				"element": "C" 
			},
			{
				"x": -0.724361379,
				"y": 0.3475186651,
				"z": 7.5683730094,
				"element": "C" 
			},
			{
				"x": 0.454388495,
				"y": 1.2362310722,
				"z": 7.1231356771,
				"element": "C" 
			},
			{
				"x": 0.3918132517,
				"y": 1.8573222846,
				"z": 5.7095927265,
				"element": "C" 
			},
			{
				"x": 1.07397311,
				"y": 1.032467377,
				"z": 4.6071175801,
				"element": "C" 
			},
			{
				"x": 0.9793702849,
				"y": 1.6782645257,
				"z": 3.2185102037,
				"element": "C" 
			},
			{
				"x": 1.7001310106,
				"y": 0.8748659791,
				"z": 2.1263840041,
				"element": "C" 
			},
			{
				"x": 1.6915323157,
				"y": 1.5226185221,
				"z": 0.7308016598,
				"element": "C" 
			},
			{
				"x": 0.3050442262,
				"y": 1.6047925275,
				"z": 0.0738540677,
				"element": "C" 
			},
			{
				"x": 0.2933106792,
				"y": 2.2493692753,
				"z": -1.3239484719,
				"element": "C" 
			},
			{
				"x": 0.9986800133,
				"y": 1.4288288801,
				"z": -2.4143748162,
				"element": "C" 
			},
			{
				"x": 1.0035433602,
				"y": 2.0897840015,
				"z": -3.8049796438,
				"element": "C" 
			},
			{
				"x": -0.3768970053,
				"y": 2.3114371172,
				"z": -4.4530409203,
				"element": "C" 
			},
			{
				"x": -1.2223557564,
				"y": 1.0492620171,
				"z": -4.6945302576,
				"element": "C" 
			},
			{
				"x": -0.5757254222,
				"y": 0.0367532267,
				"z": -5.6506160292,
				"element": "C" 
			},
			{
				"x": -1.4780859502,
				"y": -1.1709798657,
				"z": -5.9932916352,
				"element": "C" 
			},
			{
				"x": -2.6663311673,
				"y": -0.7872517896,
				"z": -6.8697515895,
				"element": "C" 
			},
			{
				"x": -2.5944993566,
				"y": -1.2086880482,
				"z": -8.1701624245,
				"element": "N" 
			},
			{
				"x": -3.6116991389,
				"y": -0.1261170414,
				"z": -6.4587929831,
				"element": "O" 
			},
			{
				"x": -2.078389509,
				"y": -1.7944484733,
				"z": 5.0959549671,
				"element": "H" 
			},
			{
				"x": -1.5585210936,
				"y": -0.1271579296,
				"z": 4.8358566847,
				"element": "H" 
			},
			{
				"x": -2.9108400249,
				"y": -0.4682498711,
				"z": 5.9163948779,
				"element": "H" 
			},
			{
				"x": -1.403424174,
				"y": -1.7003484737,
				"z": 7.4738130669,
				"element": "H" 
			},
			{
				"x": -0.0164849187,
				"y": -1.3826048596,
				"z": 6.4574521458,
				"element": "H" 
			},
			{
				"x": -1.6461479885,
				"y": 0.9470162982,
				"z": 7.5659844702,
				"element": "H" 
			},
			{
				"x": -0.5442819349,
				"y": 0.0898416075,
				"z": 8.6201260714,
				"element": "H" 
			},
			{
				"x": 0.5295671513,
				"y": 2.0496217166,
				"z": 7.8561605275,
				"element": "H" 
			},
			{
				"x": 1.3890921,
				"y": 0.6656585276,
				"z": 7.2217085961,
				"element": "H" 
			},
			{
				"x": 0.8766989712,
				"y": 2.8424453898,
				"z": 5.7352151289,
				"element": "H" 
			},
			{
				"x": -0.6545459397,
				"y": 2.0524090379,
				"z": 5.4369214333,
				"element": "H" 
			},
			{
				"x": 2.1323463409,
				"y": 0.8971509805,
				"z": 4.8726075429,
				"element": "H" 
			},
			{
				"x": 0.6456951655,
				"y": 0.023253149,
				"z": 4.5647106917,
				"element": "H" 
			},
			{
				"x": -0.0792536688,
				"y": 1.8049639037,
				"z": 2.9557411639,
				"element": "H" 
			},
			{
				"x": 1.4042213759,
				"y": 2.6920193442,
				"z": 3.2601611025,
				"element": "H" 
			},
			{
				"x": 1.25576735,
				"y": -0.1289825564,
				"z": 2.0616869199,
				"element": "H" 
			},
			{
				"x": 2.7431083722,
				"y": 0.7222342469,
				"z": 2.4361403959,
				"element": "H" 
			},
			{
				"x": 2.3686014978,
				"y": 0.9524956158,
				"z": 0.0827790526,
				"element": "H" 
			},
			{
				"x": 2.1179725855,
				"y": 2.5342567205,
				"z": 0.7989464886,
				"element": "H" 
			},
			{
				"x": -0.3694233445,
				"y": 2.177180599,
				"z": 0.7224631335,
				"element": "H" 
			},
			{
				"x": -0.1236417992,
				"y": 0.5937670645,
				"z": 0.0094532294,
				"element": "H" 
			},
			{
				"x": 0.7550256658,
				"y": 3.2461781527,
				"z": -1.2667396762,
				"element": "H" 
			},
			{
				"x": -0.7504796827,
				"y": 2.4174320221,
				"z": -1.6165670608,
				"element": "H" 
			},
			{
				"x": 2.040892944,
				"y": 1.2504400584,
				"z": -2.1219577559,
				"element": "H" 
			},
			{
				"x": 0.5314012346,
				"y": 0.4358844286,
				"z": -2.4732090216,
				"element": "H" 
			},
			{
				"x": 1.5085898976,
				"y": 3.062686764,
				"z": -3.7293400761,
				"element": "H" 
			},
			{
				"x": 1.6274454337,
				"y": 1.4859138484,
				"z": -4.4767860563,
				"element": "H" 
			},
			{
				"x": -0.9608054052,
				"y": 3.0074689681,
				"z": -3.8382059595,
				"element": "H" 
			},
			{
				"x": -0.2258390226,
				"y": 2.8231332198,
				"z": -5.4137638002,
				"element": "H" 
			},
			{
				"x": -1.4338556916,
				"y": 0.5488022893,
				"z": -3.7396429415,
				"element": "H" 
			},
			{
				"x": -2.1966140268,
				"y": 1.3416380082,
				"z": -5.0975918691,
				"element": "H" 
			},
			{
				"x": 0.3507425576,
				"y": -0.3541145981,
				"z": -5.2129043881,
				"element": "H" 
			},
			{
				"x": -0.2828512046,
				"y": 0.5423102548,
				"z": -6.5816845608,
				"element": "H" 
			},
			{
				"x": -1.8841610777,
				"y": -1.5972931701,
				"z": -5.069366189,
				"element": "H" 
			},
			{
				"x": -0.8793686806,
				"y": -1.9523388481,
				"z": -6.4763603037,
				"element": "H" 
			},
			{
				"x": -1.8340276959,
				"y": -1.7653121915,
				"z": -8.5225707443,
				"element": "H" 
			},
			{
				"x": -3.3488360428,
				"y": -0.9592317818,
				"z": -8.7918327057,
				"element": "H" 
			}
		],
		 "valence_orbital": [ 
			{
				"type": "occ",
				"energy": -0.29808,
				"method": "rhf"
			},
			{
				"type": "occ",
				"energy": -0.29281,
				"method": "rhf"
			},
			{
				"type": "occ",
				"energy": -0.28843,
				"method": "rhf"
			},
			{
				"type": "occ",
				"energy": -0.26293,
				"method": "rhf"
			},
			{
				"type": "occ",
				"energy": -0.23933,
				"method": "rhf"
			},
			{
				"type": "unocc",
				"energy": 0.03081,
				"method": "rhf"
			},
			{
				"type": "unocc",
				"energy": 0.07133,
				"method": "rhf"
			},
			{
				"type": "unocc",
				"energy": 0.08228,
				"method": "rhf"
			},
			{
				"type": "unocc",
				"energy": 0.08694,
				"method": "rhf"
			},
			{
				"type": "unocc",
				"energy": 0.09669,
				"method": "rhf"
			}
		],
		"cosmo_sigma_profile": { 
			"-0.025": 0.0,
			"-0.024": 0.0,
			"-0.023": 0.0,
			"-0.022": 0.0,
			"-0.021": 0.0,
			"-0.02": 0.0,
			"-0.019": 0.0,
			"-0.018": 0.0,
			"-0.017": 0.0,
			"-0.016": 0.0,
			"-0.015": 0.0,
			"-0.014": 1.07344571553,
			"-0.013": 2.53542574023,
			"-0.012": 2.27965271075,
			"-0.011": 2.26344159447,
			"-0.01": 2.96130215653,
			"-0.009": 1.88096635125,
			"-0.008": 2.54625176741,
			"-0.007": 2.21881484013,
			"-0.006": 2.26619566962,
			"-0.005": 1.69333865581,
			"-0.004": 4.80162293083,
			"-0.003": 8.54759177003,
			"-0.002": 47.0597995874,
			"-0.001": 96.9519710263,
			"0.0": 95.0090613871,
			"0.001": 79.9409723515,
			"0.002": 36.0640287013,
			"0.003": 4.83761154185,
			"0.004": 3.64805880462,
			"0.005": 2.28900089587,
			"0.006": 2.17125270072,
			"0.007": 1.29994010071,
			"0.008": 1.12257603904,
			"0.009": 1.86816131382,
			"0.01": 1.53057625375,
			"0.011": 1.61686901815,
			"0.012": 1.92030227628,
			"0.013": 1.71215041964,
			"0.014": 5.10818866082,
			"0.015": 3.03381691008,
			"0.016": 0.175623265468,
			"0.017": 0.0,
			"0.018": 0.0,
			"0.019": 0.0,
			"0.02": 0.0,
			"0.021": 0.0,
			"0.022": 0.0,
			"0.023": 0.0,
			"0.024": 0.0,
			"0.025": 0.0
		}
	}
}
