{
	 "smiles": "CC(C)(C)C1=CC(=CC(C=O)=C1)C(C)(C)C", 
	 "Tm": 357.65, 
	 "num_atms": 38, 
	 "gaussian": { 
		 "optdone": 1, 
		 "sigma_profile": "yes", 
		 "theory": "DFT", 
		 "functional": "B3LYP", 
		 "basiset": "6-31G**", 
		 "properties": { 
			 "R2extent": 4613.1296, 
			 "electric_dipole_moment_norm": 3.64977311213, 
			 "electric_quadrupole_moment_norm": 14.1305974952, 
			 "total_energy": -660.102081004, 
			 "HOMO_LUMO_gap": 0.18795, 
			 "cosmo_polarized_energy": -7.66, 
			 "cosmo_cavitation_energy": 38.13, 
			 "cosmo_dispersion_energy": -25.52, 
			 "cosmo_repulsion_energy": 1.99, 
			 "cosmo_total_nonelectrostatic_energy": 14.59, 
			 "SMD_solvation_energy": 7.79 
		},
		"coords": [
			{
				"x": 2.6015171044,
				"y": 1.1908719181,
				"z": -0.0663487699,
				"element": "C" 
			},
			{
				"x": 1.5727021104,
				"y": 1.293014,
				"z": 1.0757467371,
				"element": "C" 
			},
			{
				"x": 2.1228167306,
				"y": 0.5109222622,
				"z": 2.2923797769,
				"element": "C" 
			},
			{
				"x": 1.4177933953,
				"y": 2.7854029391,
				"z": 1.4541377637,
				"element": "C" 
			},
			{
				"x": 0.1952530594,
				"y": 0.722381115,
				"z": 0.6855613905,
				"element": "C" 
			},
			{
				"x": -0.0665320304,
				"y": 0.1751376315,
				"z": -0.5841052332,
				"element": "C" 
			},
			{
				"x": -1.3160214521,
				"y": -0.3476463393,
				"z": -0.9528720081,
				"element": "C" 
			},
			{
				"x": -2.3360304021,
				"y": -0.3123860012,
				"z": 0.0056478235,
				"element": "C" 
			},
			{
				"x": -2.1081933064,
				"y": 0.2244832914,
				"z": 1.275875074,
				"element": "C" 
			},
			{
				"x": -3.2070458566,
				"y": 0.2473791551,
				"z": 2.2671403872,
				"element": "C" 
			},
			{
				"x": -3.1160220136,
				"y": 0.6902399371,
				"z": 3.3970687434,
				"element": "O" 
			},
			{
				"x": -0.8501548498,
				"y": 0.7379665143,
				"z": 1.6113900688,
				"element": "C" 
			},
			{
				"x": -1.5908713028,
				"y": -0.9446233391,
				"z": -2.3467809433,
				"element": "C" 
			},
			{
				"x": -2.7293368021,
				"y": -0.1492933572,
				"z": -3.0294487435,
				"element": "C" 
			},
			{
				"x": -2.0189939612,
				"y": -2.4239235652,
				"z": -2.1949662836,
				"element": "C" 
			},
			{
				"x": -0.3547212349,
				"y": -0.8952256068,
				"z": -3.2647873227,
				"element": "C" 
			},
			{
				"x": 3.5580133754,
				"y": 1.6087507245,
				"z": 0.2635812257,
				"element": "H" 
			},
			{
				"x": 2.2869751678,
				"y": 1.7518025337,
				"z": -0.9527989027,
				"element": "H" 
			},
			{
				"x": 2.78229737,
				"y": 0.1523707524,
				"z": -0.3633289385,
				"element": "H" 
			},
			{
				"x": 3.0984517743,
				"y": 0.9102098294,
				"z": 2.5915149625,
				"element": "H" 
			},
			{
				"x": 2.2495642045,
				"y": -0.5499341333,
				"z": 2.0521761292,
				"element": "H" 
			},
			{
				"x": 1.4554263698,
				"y": 0.5803766815,
				"z": 3.1561412239,
				"element": "H" 
			},
			{
				"x": 2.3867508951,
				"y": 3.2065748845,
				"z": 1.7448445811,
				"element": "H" 
			},
			{
				"x": 0.7296051477,
				"y": 2.9228533907,
				"z": 2.2930546587,
				"element": "H" 
			},
			{
				"x": 1.0348933962,
				"y": 3.3668155413,
				"z": 0.6088461748,
				"element": "H" 
			},
			{
				"x": 0.7336168131,
				"y": 0.1564493845,
				"z": -1.310947543,
				"element": "H" 
			},
			{
				"x": -3.324303428,
				"y": -0.7034787912,
				"z": -0.224310722,
				"element": "H" 
			},
			{
				"x": -4.1666037472,
				"y": -0.1842895608,
				"z": 1.9018306705,
				"element": "H" 
			},
			{
				"x": -0.7248515092,
				"y": 1.1434302769,
				"z": 2.6102178735,
				"element": "H" 
			},
			{
				"x": -3.6557800622,
				"y": -0.1824109433,
				"z": -2.4484162957,
				"element": "H" 
			},
			{
				"x": -2.4520135061,
				"y": 0.9023913351,
				"z": -3.1557921546,
				"element": "H" 
			},
			{
				"x": -2.9436492086,
				"y": -0.5655977545,
				"z": -4.0201434132,
				"element": "H" 
			},
			{
				"x": -2.9233096018,
				"y": -2.5267243317,
				"z": -1.587824568,
				"element": "H" 
			},
			{
				"x": -2.2266243453,
				"y": -2.8630631921,
				"z": -3.1771939921,
				"element": "H" 
			},
			{
				"x": -1.228808007,
				"y": -3.0140646373,
				"z": -1.7193107024,
				"element": "H" 
			},
			{
				"x": -0.0155400734,
				"y": 0.1311851874,
				"z": -3.4394521067,
				"element": "H" 
			},
			{
				"x": -0.6034580822,
				"y": -1.3290407146,
				"z": -4.2386004885,
				"element": "H" 
			},
			{
				"x": 0.4830878689,
				"y": -1.4685070184,
				"z": -2.8543261331,
				"element": "H" 
			}
		],
		 "valence_orbital": [ 
			{
				"type": "occ",
				"energy": -0.32289,
				"method": "rhf"
			},
			{
				"type": "occ",
				"energy": -0.31192,
				"method": "rhf"
			},
			{
				"type": "occ",
				"energy": -0.25398,
				"method": "rhf"
			},
			{
				"type": "occ",
				"energy": -0.24928,
				"method": "rhf"
			},
			{
				"type": "occ",
				"energy": -0.24354,
				"method": "rhf"
			},
			{
				"type": "unocc",
				"energy": -0.05559,
				"method": "rhf"
			},
			{
				"type": "unocc",
				"energy": -0.00926,
				"method": "rhf"
			},
			{
				"type": "unocc",
				"energy": 0.04539,
				"method": "rhf"
			},
			{
				"type": "unocc",
				"energy": 0.07265,
				"method": "rhf"
			},
			{
				"type": "unocc",
				"energy": 0.0865,
				"method": "rhf"
			}
		],
		"cosmo_sigma_profile": { 
			"-0.025": 0.0,
			"-0.024": 0.0,
			"-0.023": 0.0,
			"-0.022": 0.0,
			"-0.021": 0.0,
			"-0.02": 0.0,
			"-0.019": 0.0,
			"-0.018": 0.0,
			"-0.017": 0.0,
			"-0.016": 0.0,
			"-0.015": 0.0,
			"-0.014": 0.0,
			"-0.013": 0.0,
			"-0.012": 0.0,
			"-0.011": 0.0,
			"-0.01": 0.0,
			"-0.009": 0.0,
			"-0.008": 0.0380601149903,
			"-0.007": 1.72300397104,
			"-0.006": 6.49863187944,
			"-0.005": 8.28431071598,
			"-0.004": 10.5860190041,
			"-0.003": 36.2745494552,
			"-0.002": 45.5968089336,
			"-0.001": 36.5585372313,
			"0.0": 37.184196909,
			"0.001": 47.45730125,
			"0.002": 22.0472944556,
			"0.003": 10.2858146005,
			"0.004": 10.8203536684,
			"0.005": 5.03437272879,
			"0.006": 1.62586043883,
			"0.007": 1.41759667612,
			"0.008": 1.86764568226,
			"0.009": 2.00383138509,
			"0.01": 1.86289623148,
			"0.011": 4.13581520148,
			"0.012": 3.86856439543,
			"0.013": 1.18623291523,
			"0.014": 0.0589238230118,
			"0.015": 0.0,
			"0.016": 0.0,
			"0.017": 0.0,
			"0.018": 0.0,
			"0.019": 0.0,
			"0.02": 0.0,
			"0.021": 0.0,
			"0.022": 0.0,
			"0.023": 0.0,
			"0.024": 0.0,
			"0.025": 0.0
		}
	}
}
