{
	 "smiles": "CN1CCC23C4OC5=C(OCC6=CC=CC=C6)C=CC(CC1C2C=CC4O)=C35", 
	 "Tm": 405.15, 
	 "num_atms": 53, 
	 "gaussian": { 
		 "optdone": 1, 
		 "sigma_profile": "yes", 
		 "theory": "DFT", 
		 "functional": "B3LYP", 
		 "basiset": "6-31G**", 
		 "properties": { 
			 "R2extent": 9867.7102, 
			 "electric_dipole_moment_norm": 1.31190001906, 
			 "electric_quadrupole_moment_norm": 11.4045437752, 
			 "total_energy": -1209.98305134, 
			 "HOMO_LUMO_gap": 0.19631, 
			 "cosmo_polarized_energy": -13.7, 
			 "cosmo_cavitation_energy": 49.17, 
			 "cosmo_dispersion_energy": -34.04, 
			 "cosmo_repulsion_energy": 2.49, 
			 "cosmo_total_nonelectrostatic_energy": 17.62, 
			 "SMD_solvation_energy": 5.32 
		},
		"coords": [
			{
				"x": -0.154508641,
				"y": 4.6286053409,
				"z": 2.8636900351,
				"element": "C" 
			},
			{
				"x": 0.420174036,
				"y": 3.5398506528,
				"z": 2.0904663012,
				"element": "N" 
			},
			{
				"x": 0.7943389631,
				"y": 2.4000461432,
				"z": 2.9241850627,
				"element": "C" 
			},
			{
				"x": 1.548302257,
				"y": 1.3622234532,
				"z": 2.0948279357,
				"element": "C" 
			},
			{
				"x": 0.8320745544,
				"y": 0.985049842,
				"z": 0.7752884482,
				"element": "C" 
			},
			{
				"x": 1.6922707551,
				"y": -0.0334635683,
				"z": -0.0154296703,
				"element": "C" 
			},
			{
				"x": 0.920320123,
				"y": -1.2801887002,
				"z": -0.0865721734,
				"element": "O" 
			},
			{
				"x": -0.3297353446,
				"y": -1.0334358714,
				"z": 0.4355570727,
				"element": "C" 
			},
			{
				"x": -1.4355359438,
				"y": -1.8822672886,
				"z": 0.3997310349,
				"element": "C" 
			},
			{
				"x": -1.2907543982,
				"y": -3.1949127371,
				"z": 0.0022190821,
				"element": "O" 
			},
			{
				"x": -2.0779937069,
				"y": -3.627441073,
				"z": -1.1124542689,
				"element": "C" 
			},
			{
				"x": -1.5626796257,
				"y": -3.1264193295,
				"z": -2.4470598448,
				"element": "C" 
			},
			{
				"x": -2.4553424109,
				"y": -2.7728580788,
				"z": -3.4634746783,
				"element": "C" 
			},
			{
				"x": -1.9857505792,
				"y": -2.3614540767,
				"z": -4.7132266132,
				"element": "C" 
			},
			{
				"x": -0.614082309,
				"y": -2.2896205254,
				"z": -4.9546623796,
				"element": "C" 
			},
			{
				"x": 0.2855610592,
				"y": -2.6353797277,
				"z": -3.9417478409,
				"element": "C" 
			},
			{
				"x": -0.184524784,
				"y": -3.0559170475,
				"z": -2.6963693885,
				"element": "C" 
			},
			{
				"x": -2.6647452231,
				"y": -1.3370884594,
				"z": 0.8142530877,
				"element": "C" 
			},
			{
				"x": -2.803145577,
				"y": 0.0112293046,
				"z": 1.1617492678,
				"element": "C" 
			},
			{
				"x": -1.6801888091,
				"y": 0.8567353729,
				"z": 1.1959116815,
				"element": "C" 
			},
			{
				"x": -1.7335893199,
				"y": 2.3778792887,
				"z": 1.298309212,
				"element": "C" 
			},
			{
				"x": -0.3877823154,
				"y": 3.1332834372,
				"z": 0.9314959439,
				"element": "C" 
			},
			{
				"x": 0.465257967,
				"y": 2.2664320947,
				"z": -0.0166193603,
				"element": "C" 
			},
			{
				"x": 1.7189736142,
				"y": 2.8092557006,
				"z": -0.6540715307,
				"element": "C" 
			},
			{
				"x": 2.4849207401,
				"y": 1.9387053362,
				"z": -1.3277523427,
				"element": "C" 
			},
			{
				"x": 2.0701408827,
				"y": 0.4756118806,
				"z": -1.4302396978,
				"element": "C" 
			},
			{
				"x": 0.9607174109,
				"y": 0.3776803737,
				"z": -2.318224208,
				"element": "O" 
			},
			{
				"x": -0.4581651637,
				"y": 0.2546052601,
				"z": 0.9354091767,
				"element": "C" 
			},
			{
				"x": 0.5721929957,
				"y": 4.9660044431,
				"z": 3.6107855562,
				"element": "H" 
			},
			{
				"x": -1.0835741526,
				"y": 4.3650607901,
				"z": 3.4040543015,
				"element": "H" 
			},
			{
				"x": -0.377788434,
				"y": 5.4739796929,
				"z": 2.2044341198,
				"element": "H" 
			},
			{
				"x": 1.4404117207,
				"y": 2.7609717864,
				"z": 3.7333363342,
				"element": "H" 
			},
			{
				"x": -0.0831779858,
				"y": 1.9325951161,
				"z": 3.410921369,
				"element": "H" 
			},
			{
				"x": 2.5333881392,
				"y": 1.7669455509,
				"z": 1.8343749309,
				"element": "H" 
			},
			{
				"x": 1.7102225725,
				"y": 0.4573368147,
				"z": 2.6921327985,
				"element": "H" 
			},
			{
				"x": 2.6116575459,
				"y": -0.2754325834,
				"z": 0.5266912614,
				"element": "H" 
			},
			{
				"x": -3.1301982734,
				"y": -3.3438998607,
				"z": -0.9852658342,
				"element": "H" 
			},
			{
				"x": -2.0259673247,
				"y": -4.7212019179,
				"z": -1.0709668887,
				"element": "H" 
			},
			{
				"x": -3.5260665699,
				"y": -2.8146821371,
				"z": -3.2768109525,
				"element": "H" 
			},
			{
				"x": -2.6916355942,
				"y": -2.0859412372,
				"z": -5.4916507967,
				"element": "H" 
			},
			{
				"x": -0.2457421475,
				"y": -1.9609784533,
				"z": -5.9220056202,
				"element": "H" 
			},
			{
				"x": 1.3551280238,
				"y": -2.5809164962,
				"z": -4.1250057996,
				"element": "H" 
			},
			{
				"x": 0.5096181085,
				"y": -3.3123482884,
				"z": -1.9026203364,
				"element": "H" 
			},
			{
				"x": -3.5386666174,
				"y": -1.9820745163,
				"z": 0.8206145143,
				"element": "H" 
			},
			{
				"x": -3.7933250328,
				"y": 0.4026214287,
				"z": 1.3811308786,
				"element": "H" 
			},
			{
				"x": -2.0541727493,
				"y": 2.6975209946,
				"z": 2.2979673974,
				"element": "H" 
			},
			{
				"x": -2.5207126671,
				"y": 2.7257793584,
				"z": 0.6179854938,
				"element": "H" 
			},
			{
				"x": -0.6671747254,
				"y": 4.0581167283,
				"z": 0.4131915155,
				"element": "H" 
			},
			{
				"x": -0.1845714955,
				"y": 1.9515732409,
				"z": -0.8401404148,
				"element": "H" 
			},
			{
				"x": 1.9830185328,
				"y": 3.860621387,
				"z": -0.5680508059,
				"element": "H" 
			},
			{
				"x": 3.3952682075,
				"y": 2.2523484294,
				"z": -1.8303981693,
				"element": "H" 
			},
			{
				"x": 2.9093720668,
				"y": -0.1260990102,
				"z": -1.8118127082,
				"element": "H" 
			},
			{
				"x": 0.6322676453,
				"y": -0.5338482589,
				"z": -2.2668814897,
				"element": "H" 
			}
		],
		 "valence_orbital": [ 
			{
				"type": "occ",
				"energy": -0.24627,
				"method": "rhf"
			},
			{
				"type": "occ",
				"energy": -0.24452,
				"method": "rhf"
			},
			{
				"type": "occ",
				"energy": -0.2219,
				"method": "rhf"
			},
			{
				"type": "occ",
				"energy": -0.20853,
				"method": "rhf"
			},
			{
				"type": "occ",
				"energy": -0.20322,
				"method": "rhf"
			},
			{
				"type": "unocc",
				"energy": -0.00691,
				"method": "rhf"
			},
			{
				"type": "unocc",
				"energy": -0.00279,
				"method": "rhf"
			},
			{
				"type": "unocc",
				"energy": 0.00281,
				"method": "rhf"
			},
			{
				"type": "unocc",
				"energy": 0.00721,
				"method": "rhf"
			},
			{
				"type": "unocc",
				"energy": 0.01632,
				"method": "rhf"
			}
		],
		"cosmo_sigma_profile": { 
			"-0.025": 0.0,
			"-0.024": 0.0,
			"-0.023": 0.0,
			"-0.022": 0.0,
			"-0.021": 0.0,
			"-0.02": 0.0,
			"-0.019": 0.0,
			"-0.018": 0.0,
			"-0.017": 0.0,
			"-0.016": 0.0,
			"-0.015": 0.0,
			"-0.014": 0.0,
			"-0.013": 0.0,
			"-0.012": 0.0,
			"-0.011": 0.0,
			"-0.01": 0.0,
			"-0.009": 0.0,
			"-0.008": 0.0,
			"-0.007": 0.744271876915,
			"-0.006": 13.2260860744,
			"-0.005": 23.8175058478,
			"-0.004": 43.5733780025,
			"-0.003": 49.3104204814,
			"-0.002": 44.1377484405,
			"-0.001": 39.4048169474,
			"0.0": 31.5743438763,
			"0.001": 19.795831911,
			"0.002": 18.4476684812,
			"0.003": 21.109520767,
			"0.004": 22.1956385329,
			"0.005": 19.0234806756,
			"0.006": 11.3708886834,
			"0.007": 5.17796098698,
			"0.008": 4.43304663554,
			"0.009": 5.36131215168,
			"0.01": 4.58456376847,
			"0.011": 3.55962492613,
			"0.012": 1.71525376833,
			"0.013": 2.15605361865,
			"0.014": 1.48784884325,
			"0.015": 0.380712272782,
			"0.016": 0.0,
			"0.017": 0.0,
			"0.018": 0.0,
			"0.019": 0.0,
			"0.02": 0.0,
			"0.021": 0.0,
			"0.022": 0.0,
			"0.023": 0.0,
			"0.024": 0.0,
			"0.025": 0.0
		}
	}
}
