{
	 "smiles": "CCOC1=CC=C(C=C1)C(=O)CBr", 
	 "Tm": 331.15, 
	 "num_atms": 24, 
	 "gaussian": { 
		 "optdone": 1, 
		 "sigma_profile": "yes", 
		 "theory": "DFT", 
		 "functional": "B3LYP", 
		 "basiset": "6-31G**", 
		 "properties": { 
			 "R2extent": 7097.7706, 
			 "electric_dipole_moment_norm": 6.47636597561, 
			 "electric_quadrupole_moment_norm": 11.5417843963, 
			 "total_energy": -3109.5387752, 
			 "HOMO_LUMO_gap": 0.18054, 
			 "cosmo_polarized_energy": -13.9, 
			 "cosmo_cavitation_energy": 30.13, 
			 "cosmo_dispersion_energy": -22.49, 
			 "cosmo_repulsion_energy": 1.8, 
			 "cosmo_total_nonelectrostatic_energy": 9.45, 
			 "SMD_solvation_energy": 4.88 
		},
		"coords": [
			{
				"x": 1.9335127298,
				"y": 2.24671413,
				"z": 4.6029252081,
				"element": "C" 
			},
			{
				"x": 3.2815031016,
				"y": 2.0907436346,
				"z": 3.9082318051,
				"element": "C" 
			},
			{
				"x": 3.2227550195,
				"y": 2.4333897643,
				"z": 2.517305767,
				"element": "O" 
			},
			{
				"x": 2.7598469387,
				"y": 1.5391429802,
				"z": 1.6081692041,
				"element": "C" 
			},
			{
				"x": 2.7261364463,
				"y": 1.9976066044,
				"z": 0.27750375,
				"element": "C" 
			},
			{
				"x": 2.2881670467,
				"y": 1.1650258942,
				"z": -0.7354393445,
				"element": "C" 
			},
			{
				"x": 1.8677110531,
				"y": -0.1518872099,
				"z": -0.4626266081,
				"element": "C" 
			},
			{
				"x": 1.9040560201,
				"y": -0.5972147658,
				"z": 0.8662034827,
				"element": "C" 
			},
			{
				"x": 2.341641842,
				"y": 0.2313878685,
				"z": 1.8982831984,
				"element": "C" 
			},
			{
				"x": 1.4083513445,
				"y": -0.9883815092,
				"z": -1.6082456,
				"element": "C" 
			},
			{
				"x": 1.3929901257,
				"y": -0.5597678385,
				"z": -2.7474884265,
				"element": "O" 
			},
			{
				"x": 0.9576730496,
				"y": -2.415440405,
				"z": -1.2726067959,
				"element": "C" 
			},
			{
				"x": 0.3749546417,
				"y": -3.4318238454,
				"z": -2.8337764012,
				"element": "Br" 
			},
			{
				"x": 2.0403611581,
				"y": 2.0441294343,
				"z": 5.6737170796,
				"element": "H" 
			},
			{
				"x": 1.5606967799,
				"y": 3.2674575609,
				"z": 4.4810339206,
				"element": "H" 
			},
			{
				"x": 1.1853947651,
				"y": 1.5596292064,
				"z": 4.1983911725,
				"element": "H" 
			},
			{
				"x": 3.6900987281,
				"y": 1.0804462337,
				"z": 4.0318745053,
				"element": "H" 
			},
			{
				"x": 4.0088285533,
				"y": 2.7916023913,
				"z": 4.326319501,
				"element": "H" 
			},
			{
				"x": 3.0541663761,
				"y": 3.0118203411,
				"z": 0.075232537,
				"element": "H" 
			},
			{
				"x": 2.2596834771,
				"y": 1.5079666303,
				"z": -1.764115155,
				"element": "H" 
			},
			{
				"x": 1.5870790802,
				"y": -1.6035962419,
				"z": 1.1214104547,
				"element": "H" 
			},
			{
				"x": 2.3495705411,
				"y": -0.1475570244,
				"z": 2.9127761816,
				"element": "H" 
			},
			{
				"x": 1.7735967114,
				"y": -2.9793696034,
				"z": -0.8169416295,
				"element": "H" 
			},
			{
				"x": 0.11732447,
				"y": -2.3996242306,
				"z": -0.5762378071,
				"element": "H" 
			}
		],
		 "valence_orbital": [ 
			{
				"type": "occ",
				"energy": -0.27032,
				"method": "rhf"
			},
			{
				"type": "occ",
				"energy": -0.26872,
				"method": "rhf"
			},
			{
				"type": "occ",
				"energy": -0.26752,
				"method": "rhf"
			},
			{
				"type": "occ",
				"energy": -0.25673,
				"method": "rhf"
			},
			{
				"type": "occ",
				"energy": -0.2354,
				"method": "rhf"
			},
			{
				"type": "unocc",
				"energy": -0.05486,
				"method": "rhf"
			},
			{
				"type": "unocc",
				"energy": -0.01689,
				"method": "rhf"
			},
			{
				"type": "unocc",
				"energy": 0.00568,
				"method": "rhf"
			},
			{
				"type": "unocc",
				"energy": 0.04066,
				"method": "rhf"
			},
			{
				"type": "unocc",
				"energy": 0.07553,
				"method": "rhf"
			}
		],
		"cosmo_sigma_profile": { 
			"-0.025": 0.0,
			"-0.024": 0.0,
			"-0.023": 0.0,
			"-0.022": 0.0,
			"-0.021": 0.0,
			"-0.02": 0.0,
			"-0.019": 0.0,
			"-0.018": 0.0,
			"-0.017": 0.0,
			"-0.016": 0.0,
			"-0.015": 0.0,
			"-0.014": 0.0,
			"-0.013": 0.0,
			"-0.012": 0.0,
			"-0.011": 0.0,
			"-0.01": 0.0270580350536,
			"-0.009": 5.98340796973,
			"-0.008": 8.47039945395,
			"-0.007": 7.57319592662,
			"-0.006": 11.4928587373,
			"-0.005": 14.4527920857,
			"-0.004": 19.8068115101,
			"-0.003": 19.639821651,
			"-0.002": 15.5006505292,
			"-0.001": 15.5167411072,
			"0.0": 16.5129704886,
			"0.001": 13.827027147,
			"0.002": 17.2005888938,
			"0.003": 18.5650885066,
			"0.004": 14.6691978243,
			"0.005": 10.4050743498,
			"0.006": 9.52626137398,
			"0.007": 4.42870689788,
			"0.008": 3.48550439301,
			"0.009": 3.82294932453,
			"0.01": 2.82226762783,
			"0.011": 3.87232578511,
			"0.012": 3.4230466458,
			"0.013": 1.59546537699,
			"0.014": 0.175060485853,
			"0.015": 0.0,
			"0.016": 0.0,
			"0.017": 0.0,
			"0.018": 0.0,
			"0.019": 0.0,
			"0.02": 0.0,
			"0.021": 0.0,
			"0.022": 0.0,
			"0.023": 0.0,
			"0.024": 0.0,
			"0.025": 0.0
		}
	}
}
