{
	 "smiles": "ClC1=CC(I)=CC(Cl)=N1", 
	 "Tm": 436.15, 
	 "num_atms": 11, 
	 "gaussian": { 
		 "optdone": 1, 
		 "sigma_profile": "no", 
		 "theory": "DFT", 
		 "functional": "B3LYP", 
		 "basiset": "6-31G**", 
		 "properties": { 
			 "R2extent": 3461.5151, 
			 "electric_dipole_moment_norm": 2.68687629228, 
			 "electric_quadrupole_moment_norm": 7.94819157482, 
			 "total_energy": -1178.25126812, 
			 "HOMO_LUMO_gap": 0.20544, 
			 "cosmo_polarized_energy": -96242.61, 
			 "cosmo_cavitation_energy": 22.84, 
			 "cosmo_dispersion_energy": -18.72, 
			 "cosmo_repulsion_energy": 1.52, 
			 "cosmo_total_nonelectrostatic_energy": 5.64, 
			 "SMD_solvation_energy": 1.13 
		},
		"coords": [
			{
				"x": -1.4510143193,
				"y": -3.7037902963,
				"z": 2.7365174173,
				"element": "Cl" 
			},
			{
				"x": -0.7686011525,
				"y": -2.9728670879,
				"z": 1.2968190338,
				"element": "C" 
			},
			{
				"x": 0.2604376903,
				"y": -3.6442985811,
				"z": 0.6321107434,
				"element": "C" 
			},
			{
				"x": 0.7719046657,
				"y": -3.0244303132,
				"z": -0.5080566393,
				"element": "C" 
			},
			{
				"x": 2.3285626214,
				"y": -3.9461265905,
				"z": -1.593352981,
				"element": "I" 
			},
			{
				"x": 0.2603939676,
				"y": -1.798905848,
				"z": -0.9349775197,
				"element": "C" 
			},
			{
				"x": -0.7686764085,
				"y": -1.2518007397,
				"z": -0.1647350757,
				"element": "C" 
			},
			{
				"x": -1.4511417029,
				"y": 0.2872497172,
				"z": -0.652738267,
				"element": "Cl" 
			},
			{
				"x": -1.2784172198,
				"y": -1.8105211732,
				"z": 0.9214735228,
				"element": "N" 
			},
			{
				"x": 0.6312175631,
				"y": -4.5938370034,
				"z": 0.9935448158,
				"element": "H" 
			},
			{
				"x": 0.6311342949,
				"y": -1.288372084,
				"z": -1.8134050504,
				"element": "H" 
			}
		],
		 "valence_orbital": [ 
			{
				"type": "occ",
				"energy": -0.3212,
				"method": "rhf"
			},
			{
				"type": "occ",
				"energy": -0.30583,
				"method": "rhf"
			},
			{
				"type": "occ",
				"energy": -0.29344,
				"method": "rhf"
			},
			{
				"type": "occ",
				"energy": -0.27889,
				"method": "rhf"
			},
			{
				"type": "occ",
				"energy": -0.27404,
				"method": "rhf"
			},
			{
				"type": "unocc",
				"energy": -0.0686,
				"method": "rhf"
			},
			{
				"type": "unocc",
				"energy": -0.0631,
				"method": "rhf"
			},
			{
				"type": "unocc",
				"energy": -0.05058,
				"method": "rhf"
			},
			{
				"type": "unocc",
				"energy": 0.01593,
				"method": "rhf"
			},
			{
				"type": "unocc",
				"energy": 0.02422,
				"method": "rhf"
			}
		],
		"cosmo_sigma_profile": { 
			"0.0": 0.0,
			"0.0": 0.0,
			"0.0": 0.0,
			"0.0": 0.0,
			"0.0": 0.0,
			"0.0": 0.0,
			"0.0": 0.0,
			"0.0": 0.0,
			"0.0": 0.0,
			"0.0": 0.0,
			"0.0": 0.0,
			"0.0": 0.0,
			"0.0": 0.0,
			"0.0": 0.0,
			"0.0": 0.0,
			"0.0": 0.0,
			"0.0": 0.0,
			"0.0": 0.0,
			"0.0": 0.0,
			"0.0": 0.0,
			"0.0": 0.0,
			"0.0": 0.0,
			"0.0": 0.0,
			"0.0": 0.0,
			"0.0": 0.0,
			"0.0": 0.0,
			"0.0": 0.0,
			"0.0": 0.0,
			"0.0": 0.0,
			"0.0": 0.0,
			"0.0": 0.0,
			"0.0": 0.0,
			"0.0": 0.0,
			"0.0": 0.0,
			"0.0": 0.0,
			"0.0": 0.0,
			"0.0": 0.0,
			"0.0": 0.0,
			"0.0": 0.0,
			"0.0": 0.0,
			"0.0": 0.0,
			"0.0": 0.0,
			"0.0": 0.0,
			"0.0": 0.0,
			"0.0": 0.0,
			"0.0": 0.0,
			"0.0": 0.0,
			"0.0": 0.0,
			"0.0": 0.0,
			"0.0": 0.0,
			"0.0": 0.0
		}
	}
}
