{
	 "smiles": "FC1=CC2=C(OC(OC2)C2=CC=CC=C2)C(CCl)=C1", 
	 "Tm": 336.15, 
	 "num_atms": 31, 
	 "gaussian": { 
		 "optdone": 1, 
		 "sigma_profile": "yes", 
		 "theory": "DFT", 
		 "functional": "B3LYP", 
		 "basiset": "6-31G**", 
		 "properties": { 
			 "R2extent": 5628.6897, 
			 "electric_dipole_moment_norm": 1.95371681674, 
			 "electric_quadrupole_moment_norm": 9.66629633469, 
			 "total_energy": -1289.29391443, 
			 "HOMO_LUMO_gap": 0.18718, 
			 "cosmo_polarized_energy": -9.34, 
			 "cosmo_cavitation_energy": 36.09, 
			 "cosmo_dispersion_energy": -25.46, 
			 "cosmo_repulsion_energy": 1.92, 
			 "cosmo_total_nonelectrostatic_energy": 12.55, 
			 "SMD_solvation_energy": 6.0 
		},
		"coords": [
			{
				"x": -1.8488191861,
				"y": 2.3125804502,
				"z": -4.1269399317,
				"element": "F" 
			},
			{
				"x": -1.5698432723,
				"y": 2.0355334341,
				"z": -2.8346731294,
				"element": "C" 
			},
			{
				"x": -0.2795903382,
				"y": 2.2350002972,
				"z": -2.3641090384,
				"element": "C" 
			},
			{
				"x": 0.0135475994,
				"y": 1.9537441543,
				"z": -1.027982484,
				"element": "C" 
			},
			{
				"x": -0.9982129848,
				"y": 1.4656328449,
				"z": -0.1909493525,
				"element": "C" 
			},
			{
				"x": -0.7666369842,
				"y": 1.1780851132,
				"z": 1.1284149872,
				"element": "O" 
			},
			{
				"x": 0.605031444,
				"y": 1.1652210276,
				"z": 1.5443322023,
				"element": "C" 
			},
			{
				"x": 1.3251572643,
				"y": 2.2331541489,
				"z": 0.9831749129,
				"element": "O" 
			},
			{
				"x": 1.387306154,
				"y": 2.1726140951,
				"z": -0.4441504989,
				"element": "C" 
			},
			{
				"x": 1.2549506648,
				"y": -0.1936704427,
				"z": 1.3064434589,
				"element": "C" 
			},
			{
				"x": 2.6479831862,
				"y": -0.2991183287,
				"z": 1.4243054476,
				"element": "C" 
			},
			{
				"x": 3.2768948156,
				"y": -1.5337337875,
				"z": 1.2693580401,
				"element": "C" 
			},
			{
				"x": 2.5188830663,
				"y": -2.6757198394,
				"z": 0.9987214685,
				"element": "C" 
			},
			{
				"x": 1.1317605755,
				"y": -2.5751998582,
				"z": 0.8878448886,
				"element": "C" 
			},
			{
				"x": 0.4982276575,
				"y": -1.3400743871,
				"z": 1.0444249763,
				"element": "C" 
			},
			{
				"x": -2.3098621594,
				"y": 1.2842799349,
				"z": -0.6685150881,
				"element": "C" 
			},
			{
				"x": -3.3874348296,
				"y": 0.797435648,
				"z": 0.2465226889,
				"element": "C" 
			},
			{
				"x": -3.4856461729,
				"y": -1.0422231206,
				"z": 0.3051819632,
				"element": "Cl" 
			},
			{
				"x": -2.5853622427,
				"y": 1.5731314822,
				"z": -2.0082542854,
				"element": "C" 
			},
			{
				"x": 0.4821544272,
				"y": 2.6177651372,
				"z": -3.0366544249,
				"element": "H" 
			},
			{
				"x": 0.5609217606,
				"y": 1.3844637954,
				"z": 2.6150431028,
				"element": "H" 
			},
			{
				"x": 1.798776279,
				"y": 3.1351327172,
				"z": -0.7607019368,
				"element": "H" 
			},
			{
				"x": 2.0819732494,
				"y": 1.3827676005,
				"z": -0.7646137755,
				"element": "H" 
			},
			{
				"x": 3.2334036621,
				"y": 0.5916408119,
				"z": 1.6331992663,
				"element": "H" 
			},
			{
				"x": 4.3571717996,
				"y": -1.6044512003,
				"z": 1.3595133347,
				"element": "H" 
			},
			{
				"x": 3.0078657949,
				"y": -3.6380731483,
				"z": 0.8772750834,
				"element": "H" 
			},
			{
				"x": 0.5362413808,
				"y": -3.4592112077,
				"z": 0.6789433233,
				"element": "H" 
			},
			{
				"x": -0.5808883924,
				"y": -1.2684518577,
				"z": 0.9635553227,
				"element": "H" 
			},
			{
				"x": -3.215762287,
				"y": 1.1042900877,
				"z": 1.2761875267,
				"element": "H" 
			},
			{
				"x": -4.3728434378,
				"y": 1.1229132519,
				"z": -0.084354109,
				"element": "H" 
			},
			{
				"x": -3.5833484937,
				"y": 1.4366411458,
				"z": -2.41164394,
				"element": "H" 
			}
		],
		 "valence_orbital": [ 
			{
				"type": "occ",
				"energy": -0.28695,
				"method": "rhf"
			},
			{
				"type": "occ",
				"energy": -0.26141,
				"method": "rhf"
			},
			{
				"type": "occ",
				"energy": -0.25454,
				"method": "rhf"
			},
			{
				"type": "occ",
				"energy": -0.25329,
				"method": "rhf"
			},
			{
				"type": "occ",
				"energy": -0.22639,
				"method": "rhf"
			},
			{
				"type": "unocc",
				"energy": -0.03921,
				"method": "rhf"
			},
			{
				"type": "unocc",
				"energy": -0.0127,
				"method": "rhf"
			},
			{
				"type": "unocc",
				"energy": -0.00567,
				"method": "rhf"
			},
			{
				"type": "unocc",
				"energy": 0.00021,
				"method": "rhf"
			},
			{
				"type": "unocc",
				"energy": 0.0398,
				"method": "rhf"
			}
		],
		"cosmo_sigma_profile": { 
			"-0.025": 0.0,
			"-0.024": 0.0,
			"-0.023": 0.0,
			"-0.022": 0.0,
			"-0.021": 0.0,
			"-0.02": 0.0,
			"-0.019": 0.0,
			"-0.018": 0.0,
			"-0.017": 0.0,
			"-0.016": 0.0,
			"-0.015": 0.0,
			"-0.014": 0.0,
			"-0.013": 0.0,
			"-0.012": 0.0,
			"-0.011": 0.0,
			"-0.01": 0.0,
			"-0.009": 0.184032285958,
			"-0.008": 7.54119876289,
			"-0.007": 11.9182710349,
			"-0.006": 15.1693522906,
			"-0.005": 19.3424471615,
			"-0.004": 20.429851903,
			"-0.003": 17.2190960315,
			"-0.002": 15.2066022073,
			"-0.001": 16.3299210358,
			"0.0": 19.2244793359,
			"0.001": 26.8796097098,
			"0.002": 30.8456757195,
			"0.003": 23.3088331161,
			"0.004": 25.1642329541,
			"0.005": 21.1100582032,
			"0.006": 11.0949023947,
			"0.007": 5.6916444788,
			"0.008": 0.976967423316,
			"0.009": 0.357947744975,
			"0.01": 1.62571454216,
			"0.011": 1.25152116475,
			"0.012": 0.0,
			"0.013": 0.0,
			"0.014": 0.0,
			"0.015": 0.0,
			"0.016": 0.0,
			"0.017": 0.0,
			"0.018": 0.0,
			"0.019": 0.0,
			"0.02": 0.0,
			"0.021": 0.0,
			"0.022": 0.0,
			"0.023": 0.0,
			"0.024": 0.0,
			"0.025": 0.0
		}
	}
}
