{
	 "smiles": "CC1=CC=C(O1)C(=O)C=CC1=CC=C(O1)C1=CC=C(Cl)C=C1", 
	 "Tm": 444.15, 
	 "num_atms": 35, 
	 "gaussian": { 
		 "optdone": 1, 
		 "sigma_profile": "yes", 
		 "theory": "DFT", 
		 "functional": "B3LYP", 
		 "basiset": "6-31G**", 
		 "properties": { 
			 "R2extent": 12493.7714, 
			 "electric_dipole_moment_norm": 1.72498914779, 
			 "electric_quadrupole_moment_norm": 36.9109827444, 
			 "total_energy": -1379.58252601, 
			 "HOMO_LUMO_gap": 0.12459, 
			 "cosmo_polarized_energy": -13.73, 
			 "cosmo_cavitation_energy": 43.88, 
			 "cosmo_dispersion_energy": -31.12, 
			 "cosmo_repulsion_energy": 2.37, 
			 "cosmo_total_nonelectrostatic_energy": 15.14, 
			 "SMD_solvation_energy": 8.58 
		},
		"coords": [
			{
				"x": 4.6160001946,
				"y": -2.820526774,
				"z": 1.7425314279,
				"element": "C" 
			},
			{
				"x": 3.5527472269,
				"y": -3.7476298277,
				"z": 1.2692950548,
				"element": "C" 
			},
			{
				"x": 3.4358133506,
				"y": -5.1141652309,
				"z": 1.2519435906,
				"element": "C" 
			},
			{
				"x": 2.1730852894,
				"y": -5.4087677997,
				"z": 0.6666005513,
				"element": "C" 
			},
			{
				"x": 1.5921031033,
				"y": -4.2052808218,
				"z": 0.3601511267,
				"element": "C" 
			},
			{
				"x": 2.4387639886,
				"y": -3.1826775567,
				"z": 0.7299564181,
				"element": "O" 
			},
			{
				"x": 0.2980644199,
				"y": -3.8936042574,
				"z": -0.2566845806,
				"element": "C" 
			},
			{
				"x": -0.455463555,
				"y": -4.813497157,
				"z": -0.586032681,
				"element": "O" 
			},
			{
				"x": -0.0397935794,
				"y": -2.4691885875,
				"z": -0.4542476894,
				"element": "C" 
			},
			{
				"x": -1.2213463747,
				"y": -2.1338409361,
				"z": -1.0191577657,
				"element": "C" 
			},
			{
				"x": -1.6954292945,
				"y": -0.810304732,
				"z": -1.2778877848,
				"element": "C" 
			},
			{
				"x": -2.8666938495,
				"y": -0.3498272206,
				"z": -1.841226256,
				"element": "C" 
			},
			{
				"x": -2.7958504633,
				"y": 1.0650878841,
				"z": -1.8460316074,
				"element": "C" 
			},
			{
				"x": -1.5831423801,
				"y": 1.4032267191,
				"z": -1.284593486,
				"element": "C" 
			},
			{
				"x": -0.9121561337,
				"y": 0.2651222635,
				"z": -0.9383684967,
				"element": "O" 
			},
			{
				"x": -0.9298036668,
				"y": 2.6737502429,
				"z": -1.0111828241,
				"element": "C" 
			},
			{
				"x": 0.3427663003,
				"y": 2.7183171126,
				"z": -0.4132376853,
				"element": "C" 
			},
			{
				"x": 0.9675787932,
				"y": 3.9338776034,
				"z": -0.151530759,
				"element": "C" 
			},
			{
				"x": 0.3208294563,
				"y": 5.1230739744,
				"z": -0.4877886705,
				"element": "C" 
			},
			{
				"x": 1.1040816152,
				"y": 6.6597713173,
				"z": -0.1599543244,
				"element": "Cl" 
			},
			{
				"x": -0.9423204876,
				"y": 5.1078847409,
				"z": -1.0821649599,
				"element": "C" 
			},
			{
				"x": -1.5590163548,
				"y": 3.8888046789,
				"z": -1.3399676064,
				"element": "C" 
			},
			{
				"x": 5.4493530051,
				"y": -3.3906035521,
				"z": 2.1586610807,
				"element": "H" 
			},
			{
				"x": 4.9972992693,
				"y": -2.2003254612,
				"z": 0.9232550092,
				"element": "H" 
			},
			{
				"x": 4.2384188112,
				"y": -2.1447951618,
				"z": 2.5183521565,
				"element": "H" 
			},
			{
				"x": 4.1711899982,
				"y": -5.8169252698,
				"z": 1.6171035027,
				"element": "H" 
			},
			{
				"x": 1.727533309,
				"y": -6.3751864184,
				"z": 0.4839891379,
				"element": "H" 
			},
			{
				"x": 0.6720311875,
				"y": -1.714242041,
				"z": -0.1398413112,
				"element": "H" 
			},
			{
				"x": -1.8866969262,
				"y": -2.9438035536,
				"z": -1.3102767363,
				"element": "H" 
			},
			{
				"x": -3.6753007989,
				"y": -0.967740213,
				"z": -2.2049420448,
				"element": "H" 
			},
			{
				"x": -3.5443004007,
				"y": 1.7498925758,
				"z": -2.2165227381,
				"element": "H" 
			},
			{
				"x": 0.8419239085,
				"y": 1.7917890736,
				"z": -0.1534670001,
				"element": "H" 
			},
			{
				"x": 1.9485875978,
				"y": 3.9609604593,
				"z": 0.3096358122,
				"element": "H" 
			},
			{
				"x": -1.4335636765,
				"y": 6.0398993942,
				"z": -1.3383730282,
				"element": "H" 
			},
			{
				"x": -2.5409928829,
				"y": 3.8840745325,
				"z": -1.8021948327,
				"element": "H" 
			}
		],
		 "valence_orbital": [ 
			{
				"type": "occ",
				"energy": -0.27202,
				"method": "rhf"
			},
			{
				"type": "occ",
				"energy": -0.26236,
				"method": "rhf"
			},
			{
				"type": "occ",
				"energy": -0.24321,
				"method": "rhf"
			},
			{
				"type": "occ",
				"energy": -0.22663,
				"method": "rhf"
			},
			{
				"type": "occ",
				"energy": -0.20537,
				"method": "rhf"
			},
			{
				"type": "unocc",
				"energy": -0.08078,
				"method": "rhf"
			},
			{
				"type": "unocc",
				"energy": -0.03872,
				"method": "rhf"
			},
			{
				"type": "unocc",
				"energy": -0.02096,
				"method": "rhf"
			},
			{
				"type": "unocc",
				"energy": -0.0022,
				"method": "rhf"
			},
			{
				"type": "unocc",
				"energy": 0.02503,
				"method": "rhf"
			}
		],
		"cosmo_sigma_profile": { 
			"-0.025": 0.0,
			"-0.024": 0.0,
			"-0.023": 0.0,
			"-0.022": 0.0,
			"-0.021": 0.0,
			"-0.02": 0.0,
			"-0.019": 0.0,
			"-0.018": 0.0,
			"-0.017": 0.0,
			"-0.016": 0.0,
			"-0.015": 0.0,
			"-0.014": 0.0,
			"-0.013": 0.0,
			"-0.012": 0.0,
			"-0.011": 0.0,
			"-0.01": 0.0,
			"-0.009": 1.38771314963,
			"-0.008": 7.20825478705,
			"-0.007": 13.9110240737,
			"-0.006": 17.5355595226,
			"-0.005": 21.9625161854,
			"-0.004": 17.9201959832,
			"-0.003": 22.2565549044,
			"-0.002": 21.1502844946,
			"-0.001": 24.4144051625,
			"0.0": 30.5070702036,
			"0.001": 44.0311252607,
			"0.002": 42.7002879777,
			"0.003": 40.5862050583,
			"0.004": 21.5978227539,
			"0.005": 9.45031963388,
			"0.006": 1.61629184061,
			"0.007": 2.60986467101,
			"0.008": 1.22961385816,
			"0.009": 0.85131845661,
			"0.01": 2.00918183272,
			"0.011": 1.93197597434,
			"0.012": 2.62665156595,
			"0.013": 4.6494762464,
			"0.014": 1.62456754112,
			"0.015": 0.0,
			"0.016": 0.0,
			"0.017": 0.0,
			"0.018": 0.0,
			"0.019": 0.0,
			"0.02": 0.0,
			"0.021": 0.0,
			"0.022": 0.0,
			"0.023": 0.0,
			"0.024": 0.0,
			"0.025": 0.0
		}
	}
}
