{
	 "smiles": "CN1C=C(Br)C(N)=N1", 
	 "Tm": 371.15, 
	 "num_atms": 14, 
	 "gaussian": { 
		 "optdone": 1, 
		 "sigma_profile": "yes", 
		 "theory": "DFT", 
		 "functional": "B3LYP", 
		 "basiset": "6-31G**", 
		 "properties": { 
			 "R2extent": 2344.1201, 
			 "electric_dipole_moment_norm": 2.17834635446, 
			 "electric_quadrupole_moment_norm": 8.29785730656, 
			 "total_energy": -2891.67386947, 
			 "HOMO_LUMO_gap": 0.22139, 
			 "cosmo_polarized_energy": -10.4, 
			 "cosmo_cavitation_energy": 20.38, 
			 "cosmo_dispersion_energy": -15.73, 
			 "cosmo_repulsion_energy": 1.32, 
			 "cosmo_total_nonelectrostatic_energy": 5.98, 
			 "SMD_solvation_energy": 1.91 
		},
		"coords": [
			{
				"x": -1.601506438,
				"y": 0.4096944339,
				"z": 1.5841953661,
				"element": "C" 
			},
			{
				"x": -0.2708012548,
				"y": 0.1677648121,
				"z": 1.06933546,
				"element": "N" 
			},
			{
				"x": 0.330936946,
				"y": 0.7359072819,
				"z": -0.0011726204,
				"element": "C" 
			},
			{
				"x": 1.5703893608,
				"y": 0.1348859858,
				"z": -0.1120238025,
				"element": "C" 
			},
			{
				"x": 2.9169482793,
				"y": 0.4948275661,
				"z": -1.3821419715,
				"element": "Br" 
			},
			{
				"x": 1.633761327,
				"y": -0.8039349121,
				"z": 0.9477972914,
				"element": "C" 
			},
			{
				"x": 2.6596218486,
				"y": -1.6956442713,
				"z": 1.2218658672,
				"element": "N" 
			},
			{
				"x": 0.5101452847,
				"y": -0.7762956208,
				"z": 1.6661839365,
				"element": "N" 
			},
			{
				"x": -2.2364710543,
				"y": -0.4705407743,
				"z": 1.4427919873,
				"element": "H" 
			},
			{
				"x": -1.5500183698,
				"y": 0.6395121047,
				"z": 2.6517386891,
				"element": "H" 
			},
			{
				"x": -2.0378222241,
				"y": 1.2577697181,
				"z": 1.0533780814,
				"element": "H" 
			},
			{
				"x": -0.1376684106,
				"y": 1.505253203,
				"z": -0.5959716389,
				"element": "H" 
			},
			{
				"x": 2.6329060765,
				"y": -2.046706462,
				"z": 2.1702036206,
				"element": "H" 
			},
			{
				"x": 3.5757786285,
				"y": -1.354793065,
				"z": 0.9613197336,
				"element": "H" 
			}
		],
		 "valence_orbital": [ 
			{
				"type": "occ",
				"energy": -0.31392,
				"method": "rhf"
			},
			{
				"type": "occ",
				"energy": -0.30118,
				"method": "rhf"
			},
			{
				"type": "occ",
				"energy": -0.27684,
				"method": "rhf"
			},
			{
				"type": "occ",
				"energy": -0.23167,
				"method": "rhf"
			},
			{
				"type": "occ",
				"energy": -0.20192,
				"method": "rhf"
			},
			{
				"type": "unocc",
				"energy": 0.01947,
				"method": "rhf"
			},
			{
				"type": "unocc",
				"energy": 0.02188,
				"method": "rhf"
			},
			{
				"type": "unocc",
				"energy": 0.07817,
				"method": "rhf"
			},
			{
				"type": "unocc",
				"energy": 0.09551,
				"method": "rhf"
			},
			{
				"type": "unocc",
				"energy": 0.10087,
				"method": "rhf"
			}
		],
		"cosmo_sigma_profile": { 
			"-0.025": 0.0,
			"-0.024": 0.0,
			"-0.023": 0.0,
			"-0.022": 0.0,
			"-0.021": 0.0,
			"-0.02": 0.0,
			"-0.019": 0.0,
			"-0.018": 0.0,
			"-0.017": 0.0,
			"-0.016": 0.0,
			"-0.015": 0.0,
			"-0.014": 0.0,
			"-0.013": 0.33722044471,
			"-0.012": 1.77887696738,
			"-0.011": 1.67888563442,
			"-0.01": 3.18185240309,
			"-0.009": 5.29157087493,
			"-0.008": 5.3044485759,
			"-0.007": 4.72920017837,
			"-0.006": 7.17100322095,
			"-0.005": 9.97870783413,
			"-0.004": 11.1895834855,
			"-0.003": 12.9512181693,
			"-0.002": 8.6297002414,
			"-0.001": 7.58465611722,
			"0.0": 6.39643426121,
			"0.001": 7.42954705138,
			"0.002": 9.86813175106,
			"0.003": 12.0408766729,
			"0.004": 18.058512175,
			"0.005": 11.3881160744,
			"0.006": 3.14265890133,
			"0.007": 1.85412608101,
			"0.008": 2.62852642237,
			"0.009": 2.18895833767,
			"0.01": 2.07477681368,
			"0.011": 2.1121273165,
			"0.012": 1.3314395432,
			"0.013": 1.91637789193,
			"0.014": 1.31080563983,
			"0.015": 1.49526954518,
			"0.016": 0.364914888041,
			"0.017": 0.0,
			"0.018": 0.0,
			"0.019": 0.0,
			"0.02": 0.0,
			"0.021": 0.0,
			"0.022": 0.0,
			"0.023": 0.0,
			"0.024": 0.0,
			"0.025": 0.0
		}
	}
}
