{
	 "smiles": "FC1=CC=C(C=C1)C(=O)NC1=C(Cl)N=CC=C1", 
	 "Tm": 414.15, 
	 "num_atms": 25, 
	 "gaussian": { 
		 "optdone": 1, 
		 "sigma_profile": "yes", 
		 "theory": "DFT", 
		 "functional": "B3LYP", 
		 "basiset": "6-31G**", 
		 "properties": { 
			 "R2extent": 5408.2333, 
			 "electric_dipole_moment_norm": 3.4680936233, 
			 "electric_quadrupole_moment_norm": 11.9481425033, 
			 "total_energy": -1206.8588508, 
			 "HOMO_LUMO_gap": 0.18488, 
			 "cosmo_polarized_energy": -12.92, 
			 "cosmo_cavitation_energy": 32.4, 
			 "cosmo_dispersion_energy": -22.92, 
			 "cosmo_repulsion_energy": 1.76, 
			 "cosmo_total_nonelectrostatic_energy": 11.23, 
			 "SMD_solvation_energy": 5.09 
		},
		"coords": [
			{
				"x": -2.1342899524,
				"y": 4.1433994524,
				"z": 1.3865876183,
				"element": "F" 
			},
			{
				"x": -1.8503106058,
				"y": 2.8287744516,
				"z": 1.4300890089,
				"element": "C" 
			},
			{
				"x": -0.8037701453,
				"y": 2.3414692031,
				"z": 0.6529351052,
				"element": "C" 
			},
			{
				"x": -0.5209560892,
				"y": 0.9781547643,
				"z": 0.6918631807,
				"element": "C" 
			},
			{
				"x": -1.2733764242,
				"y": 0.1174966554,
				"z": 1.5057884589,
				"element": "C" 
			},
			{
				"x": -2.3018858941,
				"y": 0.6463774318,
				"z": 2.3001190189,
				"element": "C" 
			},
			{
				"x": -2.6075471331,
				"y": 2.0031416717,
				"z": 2.2563299421,
				"element": "C" 
			},
			{
				"x": -0.9514257031,
				"y": -1.3340615495,
				"z": 1.6717463495,
				"element": "C" 
			},
			{
				"x": -1.0915677178,
				"y": -1.897680269,
				"z": 2.7483526295,
				"element": "O" 
			},
			{
				"x": -0.4063300774,
				"y": -2.0414969471,
				"z": 0.6012227385,
				"element": "N" 
			},
			{
				"x": -0.5628014145,
				"y": -1.883919991,
				"z": -0.7814183764,
				"element": "C" 
			},
			{
				"x": 0.3770065055,
				"y": -2.444080218,
				"z": -1.6754513082,
				"element": "C" 
			},
			{
				"x": 1.7469168735,
				"y": -3.3412046671,
				"z": -1.0089788883,
				"element": "Cl" 
			},
			{
				"x": 0.305663586,
				"y": -2.3721431807,
				"z": -2.9858980144,
				"element": "N" 
			},
			{
				"x": -0.726263976,
				"y": -1.7149639002,
				"z": -3.5315441657,
				"element": "C" 
			},
			{
				"x": -1.7300358117,
				"y": -1.134529296,
				"z": -2.7602812396,
				"element": "C" 
			},
			{
				"x": -1.6551822082,
				"y": -1.2347451902,
				"z": -1.3734983827,
				"element": "C" 
			},
			{
				"x": -0.2266661911,
				"y": 3.0260067624,
				"z": 0.041189797,
				"element": "H" 
			},
			{
				"x": 0.3014156313,
				"y": 0.5892828649,
				"z": 0.101339572,
				"element": "H" 
			},
			{
				"x": -2.8493045794,
				"y": -0.0219128293,
				"z": 2.956016028,
				"element": "H" 
			},
			{
				"x": -3.4061777351,
				"y": 2.4290608571,
				"z": 2.8536174526,
				"element": "H" 
			},
			{
				"x": -0.0024646048,
				"y": -2.9218702583,
				"z": 0.9016414162,
				"element": "H" 
			},
			{
				"x": -0.7438980768,
				"y": -1.6640633163,
				"z": -4.6169946537,
				"element": "H" 
			},
			{
				"x": -2.566578494,
				"y": -0.629626487,
				"z": -3.2318034098,
				"element": "H" 
			},
			{
				"x": -2.4352697622,
				"y": -0.8186660151,
				"z": -0.7472698775,
				"element": "H" 
			}
		],
		 "valence_orbital": [ 
			{
				"type": "occ",
				"energy": -0.28839,
				"method": "rhf"
			},
			{
				"type": "occ",
				"energy": -0.27888,
				"method": "rhf"
			},
			{
				"type": "occ",
				"energy": -0.27238,
				"method": "rhf"
			},
			{
				"type": "occ",
				"energy": -0.25798,
				"method": "rhf"
			},
			{
				"type": "occ",
				"energy": -0.24323,
				"method": "rhf"
			},
			{
				"type": "unocc",
				"energy": -0.05835,
				"method": "rhf"
			},
			{
				"type": "unocc",
				"energy": -0.04313,
				"method": "rhf"
			},
			{
				"type": "unocc",
				"energy": -0.02807,
				"method": "rhf"
			},
			{
				"type": "unocc",
				"energy": -0.0214,
				"method": "rhf"
			},
			{
				"type": "unocc",
				"energy": 0.02312,
				"method": "rhf"
			}
		],
		"cosmo_sigma_profile": { 
			"-0.025": 0.0,
			"-0.024": 0.0,
			"-0.023": 0.0,
			"-0.022": 0.0,
			"-0.021": 0.0,
			"-0.02": 0.0,
			"-0.019": 0.0,
			"-0.018": 0.0,
			"-0.017": 0.0,
			"-0.016": 0.0,
			"-0.015": 0.0,
			"-0.014": 0.0,
			"-0.013": 0.403328123741,
			"-0.012": 0.801448245757,
			"-0.011": 0.943207794978,
			"-0.01": 0.987169293064,
			"-0.009": 0.851355042589,
			"-0.008": 6.09837316105,
			"-0.007": 15.253359505,
			"-0.006": 15.94761759,
			"-0.005": 14.532043312,
			"-0.004": 12.6600336117,
			"-0.003": 12.9864545529,
			"-0.002": 17.0734612624,
			"-0.001": 20.3401799427,
			"0.0": 25.4973452545,
			"0.001": 25.789246214,
			"0.002": 23.125742425,
			"0.003": 17.2820042342,
			"0.004": 18.2757128319,
			"0.005": 5.41495548614,
			"0.006": 4.36979266874,
			"0.007": 3.69148588244,
			"0.008": 2.93759363952,
			"0.009": 2.03774885861,
			"0.01": 2.66241929334,
			"0.011": 3.87995862508,
			"0.012": 5.36446012287,
			"0.013": 3.41607766983,
			"0.014": 0.828102569862,
			"0.015": 0.0402301373529,
			"0.016": 0.0,
			"0.017": 0.0,
			"0.018": 0.0,
			"0.019": 0.0,
			"0.02": 0.0,
			"0.021": 0.0,
			"0.022": 0.0,
			"0.023": 0.0,
			"0.024": 0.0,
			"0.025": 0.0
		}
	}
}
