{
	 "smiles": "CC1=CC=C(Cl)C(C(N)=O)=C1F", 
	 "Tm": 424.15, 
	 "num_atms": 19, 
	 "gaussian": { 
		 "optdone": 1, 
		 "sigma_profile": "yes", 
		 "theory": "DFT", 
		 "functional": "B3LYP", 
		 "basiset": "6-31G**", 
		 "properties": { 
			 "R2extent": 3493.1547, 
			 "electric_dipole_moment_norm": 3.82789695394, 
			 "electric_quadrupole_moment_norm": 14.7201548633, 
			 "total_energy": -999.089981843, 
			 "HOMO_LUMO_gap": 0.21668, 
			 "cosmo_polarized_energy": -13.23, 
			 "cosmo_cavitation_energy": 25.64, 
			 "cosmo_dispersion_energy": -18.5, 
			 "cosmo_repulsion_energy": 1.48, 
			 "cosmo_total_nonelectrostatic_energy": 8.62, 
			 "SMD_solvation_energy": 5.32 
		},
		"coords": [
			{
				"x": 0.7473830479,
				"y": -0.5713476937,
				"z": 1.8870763413,
				"element": "C" 
			},
			{
				"x": -0.1402811256,
				"y": -0.9932754747,
				"z": 0.7453648817,
				"element": "C" 
			},
			{
				"x": -1.3226145516,
				"y": -1.7177379926,
				"z": 0.9234034933,
				"element": "C" 
			},
			{
				"x": -2.1241754335,
				"y": -2.0872570623,
				"z": -0.156017577,
				"element": "C" 
			},
			{
				"x": -1.7410899414,
				"y": -1.7265158563,
				"z": -1.4460581301,
				"element": "C" 
			},
			{
				"x": -2.7711387543,
				"y": -2.220184453,
				"z": -2.787957776,
				"element": "Cl" 
			},
			{
				"x": -0.5640107349,
				"y": -1.0046496135,
				"z": -1.6860548372,
				"element": "C" 
			},
			{
				"x": -0.0285194681,
				"y": -0.6583256823,
				"z": -3.0628708248,
				"element": "C" 
			},
			{
				"x": -0.7800450267,
				"y": 0.2382773664,
				"z": -3.7665819663,
				"element": "N" 
			},
			{
				"x": 1.0236922177,
				"y": -1.119618967,
				"z": -3.4701251107,
				"element": "O" 
			},
			{
				"x": 0.2006890487,
				"y": -0.6651119288,
				"z": -0.5673767586,
				"element": "C" 
			},
			{
				"x": 1.3285588406,
				"y": 0.0467863234,
				"z": -0.7616666674,
				"element": "F" 
			},
			{
				"x": 0.3375972016,
				"y": -0.907311458,
				"z": 2.8424949824,
				"element": "H" 
			},
			{
				"x": 0.8566142749,
				"y": 0.5177269325,
				"z": 1.9238678487,
				"element": "H" 
			},
			{
				"x": 1.7546673065,
				"y": -0.9872417246,
				"z": 1.7796568484,
				"element": "H" 
			},
			{
				"x": -1.6231917631,
				"y": -1.9985537578,
				"z": 1.9288358415,
				"element": "H" 
			},
			{
				"x": -3.0352206368,
				"y": -2.6539780603,
				"z": -0.0031616225,
				"element": "H" 
			},
			{
				"x": -0.5229329896,
				"y": 0.391182835,
				"z": -4.7314696501,
				"element": "H" 
			},
			{
				"x": -1.7237815123,
				"y": 0.4558362675,
				"z": -3.4872593166,
				"element": "H" 
			}
		],
		 "valence_orbital": [ 
			{
				"type": "occ",
				"energy": -0.32535,
				"method": "rhf"
			},
			{
				"type": "occ",
				"energy": -0.27546,
				"method": "rhf"
			},
			{
				"type": "occ",
				"energy": -0.27126,
				"method": "rhf"
			},
			{
				"type": "occ",
				"energy": -0.25016,
				"method": "rhf"
			},
			{
				"type": "occ",
				"energy": -0.24826,
				"method": "rhf"
			},
			{
				"type": "unocc",
				"energy": -0.03158,
				"method": "rhf"
			},
			{
				"type": "unocc",
				"energy": -0.01733,
				"method": "rhf"
			},
			{
				"type": "unocc",
				"energy": 0.01564,
				"method": "rhf"
			},
			{
				"type": "unocc",
				"energy": 0.02928,
				"method": "rhf"
			},
			{
				"type": "unocc",
				"energy": 0.08453,
				"method": "rhf"
			}
		],
		"cosmo_sigma_profile": { 
			"-0.025": 0.0,
			"-0.024": 0.0,
			"-0.023": 0.0,
			"-0.022": 0.0,
			"-0.021": 0.0,
			"-0.02": 0.0,
			"-0.019": 0.0,
			"-0.018": 0.0,
			"-0.017": 0.0,
			"-0.016": 0.0,
			"-0.015": 0.387982671596,
			"-0.014": 1.75132028294,
			"-0.013": 2.35367986288,
			"-0.012": 2.20998231095,
			"-0.011": 2.03237348777,
			"-0.01": 2.49426177232,
			"-0.009": 1.76873988366,
			"-0.008": 2.87361487497,
			"-0.007": 5.99938885625,
			"-0.006": 6.73072567982,
			"-0.005": 9.96272407094,
			"-0.004": 9.84601795978,
			"-0.003": 11.0006832176,
			"-0.002": 13.5583729931,
			"-0.001": 18.52811902,
			"0.0": 18.752802863,
			"0.001": 18.6799754663,
			"0.002": 19.09539437,
			"0.003": 18.046651844,
			"0.004": 13.3395387709,
			"0.005": 3.83428900357,
			"0.006": 2.83738836316,
			"0.007": 2.46665537431,
			"0.008": 1.67526122624,
			"0.009": 1.81669861042,
			"0.01": 2.11224429873,
			"0.011": 1.63195887219,
			"0.012": 3.97528494752,
			"0.013": 5.56287358966,
			"0.014": 1.14747574037,
			"0.015": 0.0,
			"0.016": 0.0,
			"0.017": 0.0,
			"0.018": 0.0,
			"0.019": 0.0,
			"0.02": 0.0,
			"0.021": 0.0,
			"0.022": 0.0,
			"0.023": 0.0,
			"0.024": 0.0,
			"0.025": 0.0
		}
	}
}
