{
	 "smiles": "NC1=C(C=C(SC#N)C=C1)C(O)=O", 
	 "Tm": 439.15, 
	 "num_atms": 19, 
	 "gaussian": { 
		 "optdone": 1, 
		 "sigma_profile": "yes", 
		 "theory": "DFT", 
		 "functional": "B3LYP", 
		 "basiset": "6-31G**", 
		 "properties": { 
			 "R2extent": 3254.8485, 
			 "electric_dipole_moment_norm": 4.64449351814, 
			 "electric_quadrupole_moment_norm": 24.426289307, 
			 "total_energy": -966.590706928, 
			 "HOMO_LUMO_gap": 0.16895, 
			 "cosmo_polarized_energy": -19.22, 
			 "cosmo_cavitation_energy": 26.73, 
			 "cosmo_dispersion_energy": -19.62, 
			 "cosmo_repulsion_energy": 1.52, 
			 "cosmo_total_nonelectrostatic_energy": 8.63, 
			 "SMD_solvation_energy": 7.4 
		},
		"coords": [
			{
				"x": 1.4746566744,
				"y": 1.1238915634,
				"z": -2.098355796,
				"element": "N" 
			},
			{
				"x": 0.7033382223,
				"y": 0.7754715899,
				"z": -1.0411446095,
				"element": "C" 
			},
			{
				"x": 1.0411965317,
				"y": -0.3274939429,
				"z": -0.1932423581,
				"element": "C" 
			},
			{
				"x": 0.220524288,
				"y": -0.6124123018,
				"z": 0.9091145226,
				"element": "C" 
			},
			{
				"x": -0.9350042374,
				"y": 0.1148347214,
				"z": 1.1712417378,
				"element": "C" 
			},
			{
				"x": -1.9874108431,
				"y": -0.3380016935,
				"z": 2.5556740448,
				"element": "S" 
			},
			{
				"x": -1.4573109606,
				"y": 0.7525720686,
				"z": 3.7621834583,
				"element": "C" 
			},
			{
				"x": -1.1400096859,
				"y": 1.4752034348,
				"z": 4.6206186308,
				"element": "N" 
			},
			{
				"x": -1.2959954955,
				"y": 1.1643586769,
				"z": 0.3065491465,
				"element": "C" 
			},
			{
				"x": -0.4925694854,
				"y": 1.4876588564,
				"z": -0.7675122944,
				"element": "C" 
			},
			{
				"x": 2.2671472508,
				"y": -1.1215360402,
				"z": -0.4696270266,
				"element": "C" 
			},
			{
				"x": 2.3993775889,
				"y": -2.3190266422,
				"z": 0.1512810127,
				"element": "O" 
			},
			{
				"x": 3.1562088744,
				"y": -0.760549911,
				"z": -1.2221506551,
				"element": "O" 
			},
			{
				"x": 2.3870448467,
				"y": 0.6892901042,
				"z": -2.1785632007,
				"element": "H" 
			},
			{
				"x": 1.2587187743,
				"y": 1.9577933634,
				"z": -2.6190434364,
				"element": "H" 
			},
			{
				"x": 0.5012775068,
				"y": -1.3925692616,
				"z": 1.6110129911,
				"element": "H" 
			},
			{
				"x": -2.2029125724,
				"y": 1.7300629501,
				"z": 0.4940627654,
				"element": "H" 
			},
			{
				"x": -0.7694495697,
				"y": 2.3100949697,
				"z": -1.4212278318,
				"element": "H" 
			},
			{
				"x": 1.5688722918,
				"y": -2.5847425057,
				"z": 0.5680288987,
				"element": "H" 
			}
		],
		 "valence_orbital": [ 
			{
				"type": "occ",
				"energy": -0.32921,
				"method": "rhf"
			},
			{
				"type": "occ",
				"energy": -0.29482,
				"method": "rhf"
			},
			{
				"type": "occ",
				"energy": -0.28749,
				"method": "rhf"
			},
			{
				"type": "occ",
				"energy": -0.27123,
				"method": "rhf"
			},
			{
				"type": "occ",
				"energy": -0.23552,
				"method": "rhf"
			},
			{
				"type": "unocc",
				"energy": -0.06657,
				"method": "rhf"
			},
			{
				"type": "unocc",
				"energy": -0.03622,
				"method": "rhf"
			},
			{
				"type": "unocc",
				"energy": -0.02326,
				"method": "rhf"
			},
			{
				"type": "unocc",
				"energy": 0.02243,
				"method": "rhf"
			},
			{
				"type": "unocc",
				"energy": 0.04308,
				"method": "rhf"
			}
		],
		"cosmo_sigma_profile": { 
			"-0.025": 0.0,
			"-0.024": 0.0,
			"-0.023": 0.0,
			"-0.022": 0.0,
			"-0.021": 0.0,
			"-0.02": 0.209322942389,
			"-0.019": 0.694345722371,
			"-0.018": 0.791320015307,
			"-0.017": 1.20332908836,
			"-0.016": 0.773241278259,
			"-0.015": 1.13794164593,
			"-0.014": 2.51903637189,
			"-0.013": 2.10468277892,
			"-0.012": 2.91747720407,
			"-0.011": 2.76875656843,
			"-0.01": 2.97977840465,
			"-0.009": 3.38315666395,
			"-0.008": 4.94002841596,
			"-0.007": 7.00511703294,
			"-0.006": 7.53501163074,
			"-0.005": 7.8743060868,
			"-0.004": 10.3720794109,
			"-0.003": 12.3174667155,
			"-0.002": 11.045163732,
			"-0.001": 12.4060747264,
			"0.0": 17.9153481488,
			"0.001": 19.1380411943,
			"0.002": 19.4154058399,
			"0.003": 10.2065387671,
			"0.004": 6.17138914469,
			"0.005": 5.22168156476,
			"0.006": 5.59212688186,
			"0.007": 6.18269754362,
			"0.008": 6.71496182121,
			"0.009": 5.68905488431,
			"0.01": 7.81733413413,
			"0.011": 6.178890955,
			"0.012": 4.68952080135,
			"0.013": 1.9565573195,
			"0.014": 0.0252081796036,
			"0.015": 0.0,
			"0.016": 0.0,
			"0.017": 0.0,
			"0.018": 0.0,
			"0.019": 0.0,
			"0.02": 0.0,
			"0.021": 0.0,
			"0.022": 0.0,
			"0.023": 0.0,
			"0.024": 0.0,
			"0.025": 0.0
		}
	}
}
