{
	 "smiles": "CN(C)C1=CC=C(C=CC(=O)C2=CC=C(C=C2)[N+]([O-])=O)C=C1", 
	 "Tm": 487.15, 
	 "num_atms": 38, 
	 "gaussian": { 
		 "optdone": 1, 
		 "sigma_profile": "yes", 
		 "theory": "DFT", 
		 "functional": "B3LYP", 
		 "basiset": "6-31G**", 
		 "properties": { 
			 "R2extent": 13874.0175, 
			 "electric_dipole_moment_norm": 10.0833673765, 
			 "electric_quadrupole_moment_norm": 20.8512754325, 
			 "total_energy": -992.509781057, 
			 "HOMO_LUMO_gap": 0.10746, 
			 "cosmo_polarized_energy": -17.14, 
			 "cosmo_cavitation_energy": 43.31, 
			 "cosmo_dispersion_energy": -30.78, 
			 "cosmo_repulsion_energy": 2.31, 
			 "cosmo_total_nonelectrostatic_energy": 14.83, 
			 "SMD_solvation_energy": 9.91 
		},
		"coords": [
			{
				"x": -3.5744103745,
				"y": 4.0972955244,
				"z": 1.2658266407,
				"element": "C" 
			},
			{
				"x": -2.1952749466,
				"y": 4.2289993641,
				"z": 0.8246919269,
				"element": "N" 
			},
			{
				"x": -1.6686904797,
				"y": 5.5435500661,
				"z": 0.4938761102,
				"element": "C" 
			},
			{
				"x": -1.402565761,
				"y": 3.1109368246,
				"z": 0.6937996049,
				"element": "C" 
			},
			{
				"x": -1.8938150588,
				"y": 1.8164888866,
				"z": 0.9942095517,
				"element": "C" 
			},
			{
				"x": -1.0813420092,
				"y": 0.7022477218,
				"z": 0.8589606816,
				"element": "C" 
			},
			{
				"x": 0.2545704084,
				"y": 0.7929566676,
				"z": 0.4213337033,
				"element": "C" 
			},
			{
				"x": 1.0503676218,
				"y": -0.4171477248,
				"z": 0.3045289455,
				"element": "C" 
			},
			{
				"x": 2.3275382609,
				"y": -0.528190399,
				"z": -0.1362487272,
				"element": "C" 
			},
			{
				"x": 3.0664993009,
				"y": -1.7828008051,
				"z": -0.329716067,
				"element": "C" 
			},
			{
				"x": 4.0472129311,
				"y": -1.8181432306,
				"z": -1.0717501047,
				"element": "O" 
			},
			{
				"x": 2.6424354328,
				"y": -3.0584251479,
				"z": 0.3611803261,
				"element": "C" 
			},
			{
				"x": 2.8438794829,
				"y": -4.2668844892,
				"z": -0.3249536845,
				"element": "C" 
			},
			{
				"x": 2.5240969005,
				"y": -5.482931876,
				"z": 0.266513969,
				"element": "C" 
			},
			{
				"x": 2.0250347231,
				"y": -5.4793009223,
				"z": 1.5694501403,
				"element": "C" 
			},
			{
				"x": 1.844184241,
				"y": -4.3014840124,
				"z": 2.2900105958,
				"element": "C" 
			},
			{
				"x": 2.1521307158,
				"y": -3.0893690114,
				"z": 1.6760085704,
				"element": "C" 
			},
			{
				"x": 1.6866088125,
				"y": -6.7623171499,
				"z": 2.2077463,
				"element": "N" 
			},
			{
				"x": 1.8586149542,
				"y": -7.7889519055,
				"z": 1.5517446608,
				"element": "O" 
			},
			{
				"x": 1.2501723608,
				"y": -6.7304209311,
				"z": 3.3582460746,
				"element": "O" 
			},
			{
				"x": 0.738094497,
				"y": 2.0841645153,
				"z": 0.1230701879,
				"element": "C" 
			},
			{
				"x": -0.0562738052,
				"y": 3.2090070058,
				"z": 0.2520737571,
				"element": "C" 
			},
			{
				"x": -3.6408413873,
				"y": 3.6491742494,
				"z": 2.2660768206,
				"element": "H" 
			},
			{
				"x": -4.0329469627,
				"y": 5.0853552953,
				"z": 1.3108645863,
				"element": "H" 
			},
			{
				"x": -4.1677754216,
				"y": 3.4800673078,
				"z": 0.5777088539,
				"element": "H" 
			},
			{
				"x": -1.3607198268,
				"y": 5.609397778,
				"z": -0.5583384692,
				"element": "H" 
			},
			{
				"x": -2.4422242599,
				"y": 6.2926843292,
				"z": 0.6642071748,
				"element": "H" 
			},
			{
				"x": -0.8037946849,
				"y": 5.8052298258,
				"z": 1.1176206625,
				"element": "H" 
			},
			{
				"x": -2.9130836299,
				"y": 1.682085946,
				"z": 1.3337916663,
				"element": "H" 
			},
			{
				"x": -1.4921635377,
				"y": -0.2758979809,
				"z": 1.0980492551,
				"element": "H" 
			},
			{
				"x": 0.5284734573,
				"y": -1.3287124344,
				"z": 0.5901232038,
				"element": "H" 
			},
			{
				"x": 2.8724955787,
				"y": 0.338843811,
				"z": -0.5004899904,
				"element": "H" 
			},
			{
				"x": 3.2605608065,
				"y": -4.2305352295,
				"z": -1.3255081963,
				"element": "H" 
			},
			{
				"x": 2.6574792696,
				"y": -6.4249494038,
				"z": -0.2503920549,
				"element": "H" 
			},
			{
				"x": 1.4744368264,
				"y": -4.35003945,
				"z": 3.3064866143,
				"element": "H" 
			},
			{
				"x": 2.0353060772,
				"y": -2.1653787405,
				"z": 2.2312465801,
				"element": "H" 
			},
			{
				"x": 1.7611711481,
				"y": 2.2116106352,
				"z": -0.2172653744,
				"element": "H" 
			},
			{
				"x": 0.3678583382,
				"y": 4.1751850901,
				"z": 0.0088155043,
				"element": "H" 
			}
		],
		 "valence_orbital": [ 
			{
				"type": "occ",
				"energy": -0.27555,
				"method": "rhf"
			},
			{
				"type": "occ",
				"energy": -0.26833,
				"method": "rhf"
			},
			{
				"type": "occ",
				"energy": -0.26394,
				"method": "rhf"
			},
			{
				"type": "occ",
				"energy": -0.24564,
				"method": "rhf"
			},
			{
				"type": "occ",
				"energy": -0.20074,
				"method": "rhf"
			},
			{
				"type": "unocc",
				"energy": -0.09328,
				"method": "rhf"
			},
			{
				"type": "unocc",
				"energy": -0.06391,
				"method": "rhf"
			},
			{
				"type": "unocc",
				"energy": -0.02445,
				"method": "rhf"
			},
			{
				"type": "unocc",
				"energy": -0.01336,
				"method": "rhf"
			},
			{
				"type": "unocc",
				"energy": -0.00874,
				"method": "rhf"
			}
		],
		"cosmo_sigma_profile": { 
			"-0.025": 0.0,
			"-0.024": 0.0,
			"-0.023": 0.0,
			"-0.022": 0.0,
			"-0.021": 0.0,
			"-0.02": 0.0,
			"-0.019": 0.0,
			"-0.018": 0.0,
			"-0.017": 0.0,
			"-0.016": 0.0,
			"-0.015": 0.0,
			"-0.014": 0.0,
			"-0.013": 0.0,
			"-0.012": 0.0,
			"-0.011": 0.0,
			"-0.01": 0.0,
			"-0.009": 0.000217414400334,
			"-0.008": 2.30916008663,
			"-0.007": 11.8893008564,
			"-0.006": 19.8705856267,
			"-0.005": 26.5557006239,
			"-0.004": 33.5905688274,
			"-0.003": 31.030780194,
			"-0.002": 33.7833353463,
			"-0.001": 25.2455673538,
			"0.0": 24.235114417,
			"0.001": 23.5662025688,
			"0.002": 18.042361928,
			"0.003": 16.2495453435,
			"0.004": 16.2225629355,
			"0.005": 16.1974713083,
			"0.006": 7.85951140882,
			"0.007": 10.2958069334,
			"0.008": 8.70305234658,
			"0.009": 5.72729227996,
			"0.01": 3.82020073885,
			"0.011": 2.36130986636,
			"0.012": 3.49833303399,
			"0.013": 4.08545520759,
			"0.014": 1.08965733964,
			"0.015": 0.00216484214178,
			"0.016": 0.0,
			"0.017": 0.0,
			"0.018": 0.0,
			"0.019": 0.0,
			"0.02": 0.0,
			"0.021": 0.0,
			"0.022": 0.0,
			"0.023": 0.0,
			"0.024": 0.0,
			"0.025": 0.0
		}
	}
}
