{
	 "smiles": "NC(=O)C1=C(F)C(F)=C(F)C=C1", 
	 "Tm": 401.15, 
	 "num_atms": 16, 
	 "gaussian": { 
		 "optdone": 1, 
		 "sigma_profile": "yes", 
		 "theory": "DFT", 
		 "functional": "B3LYP", 
		 "basiset": "6-31G**", 
		 "properties": { 
			 "R2extent": 2473.735, 
			 "electric_dipole_moment_norm": 1.20358204124, 
			 "electric_quadrupole_moment_norm": 15.5980584154, 
			 "total_energy": -698.638062663, 
			 "HOMO_LUMO_gap": 0.21397, 
			 "cosmo_polarized_energy": -9.8, 
			 "cosmo_cavitation_energy": 22.25, 
			 "cosmo_dispersion_energy": -16.36, 
			 "cosmo_repulsion_energy": 1.24, 
			 "cosmo_total_nonelectrostatic_energy": 7.12, 
			 "SMD_solvation_energy": 6.0 
		},
		"coords": [
			{
				"x": -1.0410897174,
				"y": 2.2425855738,
				"z": -2.6811835943,
				"element": "N" 
			},
			{
				"x": 0.0413042088,
				"y": 2.0659305349,
				"z": -1.8760957159,
				"element": "C" 
			},
			{
				"x": 0.8168802802,
				"y": 2.978082924,
				"z": -1.6131644385,
				"element": "O" 
			},
			{
				"x": 0.2669783881,
				"y": 0.6855127757,
				"z": -1.3023171039,
				"element": "C" 
			},
			{
				"x": -0.5327111174,
				"y": -0.4408489196,
				"z": -1.5167246465,
				"element": "C" 
			},
			{
				"x": -1.6389531095,
				"y": -0.3973183706,
				"z": -2.297370804,
				"element": "F" 
			},
			{
				"x": -0.2364031796,
				"y": -1.6723641078,
				"z": -0.9389523378,
				"element": "C" 
			},
			{
				"x": -1.0255737226,
				"y": -2.7292745784,
				"z": -1.1669538636,
				"element": "F" 
			},
			{
				"x": 0.8872180318,
				"y": -1.7888657092,
				"z": -0.1242565013,
				"element": "C" 
			},
			{
				"x": 1.1566146249,
				"y": -2.9811611493,
				"z": 0.4229039552,
				"element": "F" 
			},
			{
				"x": 1.7071405155,
				"y": -0.6912257769,
				"z": 0.1128693186,
				"element": "C" 
			},
			{
				"x": 1.3898075487,
				"y": 0.5279200257,
				"z": -0.4756682004,
				"element": "C" 
			},
			{
				"x": -1.1827356334,
				"y": 3.1665758892,
				"z": -3.0587938415,
				"element": "H" 
			},
			{
				"x": -1.6822575781,
				"y": 1.4994922773,
				"z": -2.9020535359,
				"element": "H" 
			},
			{
				"x": 2.5754307382,
				"y": -0.8098146558,
				"z": 0.7510463589,
				"element": "H" 
			},
			{
				"x": 2.0034497218,
				"y": 1.407073267,
				"z": -0.3155850492,
				"element": "H" 
			}
		],
		 "valence_orbital": [ 
			{
				"type": "occ",
				"energy": -0.36305,
				"method": "rhf"
			},
			{
				"type": "occ",
				"energy": -0.27486,
				"method": "rhf"
			},
			{
				"type": "occ",
				"energy": -0.27136,
				"method": "rhf"
			},
			{
				"type": "occ",
				"energy": -0.26432,
				"method": "rhf"
			},
			{
				"type": "occ",
				"energy": -0.26301,
				"method": "rhf"
			},
			{
				"type": "unocc",
				"energy": -0.04904,
				"method": "rhf"
			},
			{
				"type": "unocc",
				"energy": -0.02314,
				"method": "rhf"
			},
			{
				"type": "unocc",
				"energy": 0.03654,
				"method": "rhf"
			},
			{
				"type": "unocc",
				"energy": 0.05746,
				"method": "rhf"
			},
			{
				"type": "unocc",
				"energy": 0.09154,
				"method": "rhf"
			}
		],
		"cosmo_sigma_profile": { 
			"-0.025": 0.0,
			"-0.024": 0.0,
			"-0.023": 0.0,
			"-0.022": 0.0,
			"-0.021": 0.0,
			"-0.02": 0.0,
			"-0.019": 0.0,
			"-0.018": 0.0,
			"-0.017": 0.0,
			"-0.016": 0.0,
			"-0.015": 0.134417549902,
			"-0.014": 1.33479580531,
			"-0.013": 1.21038038882,
			"-0.012": 1.43769785284,
			"-0.011": 2.18919057081,
			"-0.01": 1.99480414543,
			"-0.009": 2.35685880249,
			"-0.008": 3.74963214701,
			"-0.007": 4.25790174292,
			"-0.006": 5.06733463581,
			"-0.005": 4.83329986837,
			"-0.004": 6.66193670158,
			"-0.003": 14.7490947926,
			"-0.002": 16.6646359894,
			"-0.001": 15.5558096395,
			"0.0": 13.2081882101,
			"0.001": 15.3904874309,
			"0.002": 20.0080573195,
			"0.003": 25.7061356087,
			"0.004": 3.7520310291,
			"0.005": 1.28670252111,
			"0.006": 1.43398161471,
			"0.007": 1.80651874975,
			"0.008": 1.31734641878,
			"0.009": 1.14132648333,
			"0.01": 1.3209361526,
			"0.011": 1.3167917162,
			"0.012": 2.03471014658,
			"0.013": 5.3870211977,
			"0.014": 2.28126649188,
			"0.015": 0.0728910601958,
			"0.016": 0.0,
			"0.017": 0.0,
			"0.018": 0.0,
			"0.019": 0.0,
			"0.02": 0.0,
			"0.021": 0.0,
			"0.022": 0.0,
			"0.023": 0.0,
			"0.024": 0.0,
			"0.025": 0.0
		}
	}
}
