{
	 "smiles": "CC(=O)C=P(C1=CC=CC=C1)(C1=CC=CC=C1)C1=CC=CC=C1", 
	 "Tm": 477.15, 
	 "num_atms": 42, 
	 "gaussian": { 
		 "optdone": 1, 
		 "sigma_profile": "yes", 
		 "theory": "DFT", 
		 "functional": "B3LYP", 
		 "basiset": "6-31G**", 
		 "properties": { 
			 "R2extent": 7298.237, 
			 "electric_dipole_moment_norm": 5.23437968149, 
			 "electric_quadrupole_moment_norm": 10.2129942661, 
			 "total_energy": -1228.23715438, 
			 "HOMO_LUMO_gap": 0.14692, 
			 "cosmo_polarized_energy": -16.53, 
			 "cosmo_cavitation_energy": 45.88, 
			 "cosmo_dispersion_energy": -30.6, 
			 "cosmo_repulsion_energy": 2.35, 
			 "cosmo_total_nonelectrostatic_energy": 17.63, 
			 "SMD_solvation_energy": 8.98 
		},
		"coords": [
			{
				"x": -4.1577565734,
				"y": -0.1989697073,
				"z": 0.966222362,
				"element": "C" 
			},
			{
				"x": -2.8343902864,
				"y": -0.1542520481,
				"z": 0.2035294282,
				"element": "C" 
			},
			{
				"x": -2.8636809166,
				"y": 0.0775461723,
				"z": -1.0264382891,
				"element": "O" 
			},
			{
				"x": -1.6396444427,
				"y": -0.3909451043,
				"z": 0.9275462358,
				"element": "C" 
			},
			{
				"x": -0.1320014567,
				"y": -0.4227850279,
				"z": 0.0836652266,
				"element": "P" 
			},
			{
				"x": 0.4557917388,
				"y": 1.1451046715,
				"z": -0.6792305765,
				"element": "C" 
			},
			{
				"x": 1.7506675848,
				"y": 1.6310122839,
				"z": -0.4379499773,
				"element": "C" 
			},
			{
				"x": 2.1731708856,
				"y": 2.827229696,
				"z": -1.0214723053,
				"element": "C" 
			},
			{
				"x": 1.3077399421,
				"y": 3.5475575894,
				"z": -1.8451508753,
				"element": "C" 
			},
			{
				"x": 0.0176804189,
				"y": 3.0685928348,
				"z": -2.0861692764,
				"element": "C" 
			},
			{
				"x": -0.4139136927,
				"y": 1.8729667544,
				"z": -1.5125522755,
				"element": "C" 
			},
			{
				"x": 1.1309833862,
				"y": -0.8817354377,
				"z": 1.3273864235,
				"element": "C" 
			},
			{
				"x": 2.047593847,
				"y": -1.918594222,
				"z": 1.1070901238,
				"element": "C" 
			},
			{
				"x": 2.9867935072,
				"y": -2.2476556072,
				"z": 2.0870230214,
				"element": "C" 
			},
			{
				"x": 3.0201122797,
				"y": -1.5450818953,
				"z": 3.2916188128,
				"element": "C" 
			},
			{
				"x": 2.1110298583,
				"y": -0.5083797625,
				"z": 3.5176163609,
				"element": "C" 
			},
			{
				"x": 1.1721484036,
				"y": -0.1758650603,
				"z": 2.5424008781,
				"element": "C" 
			},
			{
				"x": -0.0454813197,
				"y": -1.6688427526,
				"z": -1.2594953396,
				"element": "C" 
			},
			{
				"x": -0.9073366216,
				"y": -2.7723069299,
				"z": -1.2067733293,
				"element": "C" 
			},
			{
				"x": -0.8403444622,
				"y": -3.7601620161,
				"z": -2.1884528254,
				"element": "C" 
			},
			{
				"x": 0.0860617159,
				"y": -3.6532185302,
				"z": -3.2281346811,
				"element": "C" 
			},
			{
				"x": 0.9438786655,
				"y": -2.5531284035,
				"z": -3.2882450227,
				"element": "C" 
			},
			{
				"x": 0.8768807361,
				"y": -1.5597602479,
				"z": -2.3102801414,
				"element": "C" 
			},
			{
				"x": -4.6556514237,
				"y": 0.7718062675,
				"z": 0.8720122434,
				"element": "H" 
			},
			{
				"x": -4.0432286619,
				"y": -0.4385998495,
				"z": 2.0268219507,
				"element": "H" 
			},
			{
				"x": -4.8140523296,
				"y": -0.9403167532,
				"z": 0.4989822632,
				"element": "H" 
			},
			{
				"x": -1.6194347102,
				"y": -0.6058345391,
				"z": 1.9881803277,
				"element": "H" 
			},
			{
				"x": 2.4311314048,
				"y": 1.0828461944,
				"z": 0.2050800427,
				"element": "H" 
			},
			{
				"x": 3.1774538181,
				"y": 3.1940032647,
				"z": -0.8289280367,
				"element": "H" 
			},
			{
				"x": 1.6368710445,
				"y": 4.4792333533,
				"z": -2.2969906286,
				"element": "H" 
			},
			{
				"x": -0.6594200831,
				"y": 3.6280020434,
				"z": -2.7254315773,
				"element": "H" 
			},
			{
				"x": -1.4152712818,
				"y": 1.4904515465,
				"z": -1.6884879414,
				"element": "H" 
			},
			{
				"x": 2.0255426806,
				"y": -2.4733839042,
				"z": 0.1752708019,
				"element": "H" 
			},
			{
				"x": 3.6895306498,
				"y": -3.0559697426,
				"z": 1.9071586007,
				"element": "H" 
			},
			{
				"x": 3.7507699029,
				"y": -1.8033105776,
				"z": 4.0527190979,
				"element": "H" 
			},
			{
				"x": 2.1325799803,
				"y": 0.0419737314,
				"z": 4.4536694173,
				"element": "H" 
			},
			{
				"x": 0.467372218,
				"y": 0.6298654732,
				"z": 2.7232033826,
				"element": "H" 
			},
			{
				"x": -1.6335256481,
				"y": -2.8374476938,
				"z": -0.4026333719,
				"element": "H" 
			},
			{
				"x": -1.5172612218,
				"y": -4.6084873649,
				"z": -2.1467088976,
				"element": "H" 
			},
			{
				"x": 0.1345165712,
				"y": -4.4218224661,
				"z": -3.9943222363,
				"element": "H" 
			},
			{
				"x": 1.659160114,
				"y": -2.4624678801,
				"z": -4.1006269943,
				"element": "H" 
			},
			{
				"x": 1.5339337786,
				"y": -0.6977683526,
				"z": -2.3715224023,
				"element": "H" 
			}
		],
		 "valence_orbital": [ 
			{
				"type": "occ",
				"energy": -0.25642,
				"method": "rhf"
			},
			{
				"type": "occ",
				"energy": -0.25547,
				"method": "rhf"
			},
			{
				"type": "occ",
				"energy": -0.25045,
				"method": "rhf"
			},
			{
				"type": "occ",
				"energy": -0.19876,
				"method": "rhf"
			},
			{
				"type": "occ",
				"energy": -0.18111,
				"method": "rhf"
			},
			{
				"type": "unocc",
				"energy": -0.03419,
				"method": "rhf"
			},
			{
				"type": "unocc",
				"energy": -0.02707,
				"method": "rhf"
			},
			{
				"type": "unocc",
				"energy": -0.02274,
				"method": "rhf"
			},
			{
				"type": "unocc",
				"energy": -0.01918,
				"method": "rhf"
			},
			{
				"type": "unocc",
				"energy": -0.00606,
				"method": "rhf"
			}
		],
		"cosmo_sigma_profile": { 
			"-0.025": 0.0,
			"-0.024": 0.0,
			"-0.023": 0.0,
			"-0.022": 0.0,
			"-0.021": 0.0,
			"-0.02": 0.0,
			"-0.019": 0.0,
			"-0.018": 0.0,
			"-0.017": 0.0,
			"-0.016": 0.0,
			"-0.015": 0.0,
			"-0.014": 0.0,
			"-0.013": 0.0,
			"-0.012": 0.0,
			"-0.011": 0.0,
			"-0.01": 0.0,
			"-0.009": 0.0,
			"-0.008": 0.0,
			"-0.007": 3.55718546002,
			"-0.006": 22.5125845336,
			"-0.005": 31.6202301776,
			"-0.004": 34.1013220516,
			"-0.003": 31.0007438833,
			"-0.002": 29.6780897028,
			"-0.001": 27.2026150346,
			"0.0": 31.22812766,
			"0.001": 29.8731096521,
			"0.002": 28.1951031875,
			"0.003": 28.8463699793,
			"0.004": 30.2565150724,
			"0.005": 11.8176879637,
			"0.006": 4.62120033945,
			"0.007": 2.70757493424,
			"0.008": 2.78746174201,
			"0.009": 2.59062584406,
			"0.01": 1.33526820065,
			"0.011": 1.26746316667,
			"0.012": 2.1417553311,
			"0.013": 1.57366656892,
			"0.014": 1.58705808005,
			"0.015": 1.63923200289,
			"0.016": 2.14909868341,
			"0.017": 1.81253782134,
			"0.018": 0.31802925371,
			"0.019": 0.0,
			"0.02": 0.0,
			"0.021": 0.0,
			"0.022": 0.0,
			"0.023": 0.0,
			"0.024": 0.0,
			"0.025": 0.0
		}
	}
}
