{
	 "smiles": "OC(=O)C1=CC=CC=C1NN=C1C(=O)NN=C1C(F)(F)F", 
	 "Tm": 547.15, 
	 "num_atms": 28, 
	 "gaussian": { 
		 "optdone": 1, 
		 "sigma_profile": "yes", 
		 "theory": "DFT", 
		 "functional": "B3LYP", 
		 "basiset": "6-31G**", 
		 "properties": { 
			 "R2extent": 7185.6303, 
			 "electric_dipole_moment_norm": 6.70385827863, 
			 "electric_quadrupole_moment_norm": 22.3568727198, 
			 "total_energy": -1167.54251093, 
			 "HOMO_LUMO_gap": 0.11896, 
			 "cosmo_polarized_energy": -20.87, 
			 "cosmo_cavitation_energy": 35.28, 
			 "cosmo_dispersion_energy": -25.11, 
			 "cosmo_repulsion_energy": 1.82, 
			 "cosmo_total_nonelectrostatic_energy": 11.99, 
			 "SMD_solvation_energy": 7.53 
		},
		"coords": [
			{
				"x": -0.7456334026,
				"y": 2.9258104247,
				"z": -0.522975375,
				"element": "O" 
			},
			{
				"x": -1.6269116764,
				"y": 2.9100017042,
				"z": 0.4731028974,
				"element": "C" 
			},
			{
				"x": -2.5016749456,
				"y": 3.7500901382,
				"z": 0.525568713,
				"element": "O" 
			},
			{
				"x": -1.5417227434,
				"y": 1.8536293566,
				"z": 1.5810769299,
				"element": "C" 
			},
			{
				"x": -2.3657922728,
				"y": 2.1714622995,
				"z": 2.6760734639,
				"element": "C" 
			},
			{
				"x": -2.5152711067,
				"y": 1.3502077605,
				"z": 3.7864725487,
				"element": "C" 
			},
			{
				"x": -1.8348247617,
				"y": 0.1336682607,
				"z": 3.8323747481,
				"element": "C" 
			},
			{
				"x": -1.0110020922,
				"y": -0.2206351992,
				"z": 2.77572218,
				"element": "C" 
			},
			{
				"x": -0.838970598,
				"y": 0.6194303803,
				"z": 1.6564590007,
				"element": "C" 
			},
			{
				"x": 0.0420226651,
				"y": 0.0499830584,
				"z": 0.7136390595,
				"element": "N" 
			},
			{
				"x": 0.6350032471,
				"y": 0.6768171016,
				"z": -0.2686683412,
				"element": "N" 
			},
			{
				"x": 1.4806725518,
				"y": -0.0059144191,
				"z": -1.0116896078,
				"element": "C" 
			},
			{
				"x": 1.8359128808,
				"y": -1.4257614131,
				"z": -0.8402212787,
				"element": "C" 
			},
			{
				"x": 1.4216514599,
				"y": -2.2228885947,
				"z": 0.0100326435,
				"element": "O" 
			},
			{
				"x": 2.7382555559,
				"y": -1.6383864821,
				"z": -1.8560937773,
				"element": "N" 
			},
			{
				"x": 2.9847809105,
				"y": -0.5271513533,
				"z": -2.6298884189,
				"element": "N" 
			},
			{
				"x": 2.2520694473,
				"y": 0.4373542199,
				"z": -2.1463521082,
				"element": "C" 
			},
			{
				"x": 2.2887454575,
				"y": 1.8208817141,
				"z": -2.7262806286,
				"element": "C" 
			},
			{
				"x": 3.0007561659,
				"y": 1.8716938217,
				"z": -3.8568687465,
				"element": "F" 
			},
			{
				"x": 1.0353084754,
				"y": 2.2497541333,
				"z": -2.9859158498,
				"element": "F" 
			},
			{
				"x": 2.8298232226,
				"y": 2.6874200769,
				"z": -1.8425194977,
				"element": "F" 
			},
			{
				"x": -0.0904646497,
				"y": 2.1921792983,
				"z": -0.469617771,
				"element": "H" 
			},
			{
				"x": -2.9106928577,
				"y": 3.1048948955,
				"z": 2.6030961505,
				"element": "H" 
			},
			{
				"x": -3.1646026466,
				"y": 1.6532592189,
				"z": 4.6013494354,
				"element": "H" 
			},
			{
				"x": -1.9385358184,
				"y": -0.5342827126,
				"z": 4.6815831601,
				"element": "H" 
			},
			{
				"x": -0.4700896836,
				"y": -1.162720082,
				"z": 2.807562588,
				"element": "H" 
			},
			{
				"x": 0.3089299725,
				"y": -0.9365953281,
				"z": 0.8445677034,
				"element": "H" 
			},
			{
				"x": 3.2099572429,
				"y": -2.5033022789,
				"z": -2.0735898213,
				"element": "H" 
			}
		],
		 "valence_orbital": [ 
			{
				"type": "occ",
				"energy": -0.29029,
				"method": "rhf"
			},
			{
				"type": "occ",
				"energy": -0.28408,
				"method": "rhf"
			},
			{
				"type": "occ",
				"energy": -0.28028,
				"method": "rhf"
			},
			{
				"type": "occ",
				"energy": -0.26558,
				"method": "rhf"
			},
			{
				"type": "occ",
				"energy": -0.24551,
				"method": "rhf"
			},
			{
				"type": "unocc",
				"energy": -0.12655,
				"method": "rhf"
			},
			{
				"type": "unocc",
				"energy": -0.05226,
				"method": "rhf"
			},
			{
				"type": "unocc",
				"energy": -0.02338,
				"method": "rhf"
			},
			{
				"type": "unocc",
				"energy": -0.00962,
				"method": "rhf"
			},
			{
				"type": "unocc",
				"energy": 0.04713,
				"method": "rhf"
			}
		],
		"cosmo_sigma_profile": { 
			"-0.025": 0.0,
			"-0.024": 0.0,
			"-0.023": 0.0,
			"-0.022": 0.0,
			"-0.021": 0.0,
			"-0.02": 0.0,
			"-0.019": 0.0,
			"-0.018": 0.352431286716,
			"-0.017": 1.62148761111,
			"-0.016": 1.20989526183,
			"-0.015": 1.38766675967,
			"-0.014": 0.838617473671,
			"-0.013": 0.458166149252,
			"-0.012": 1.62352253098,
			"-0.011": 2.57300357625,
			"-0.01": 2.29805470052,
			"-0.009": 3.25119015818,
			"-0.008": 5.93346781762,
			"-0.007": 11.32306314,
			"-0.006": 13.0702329741,
			"-0.005": 16.4729381621,
			"-0.004": 15.9265667099,
			"-0.003": 18.245654242,
			"-0.002": 17.6098929103,
			"-0.001": 17.168714524,
			"0.0": 17.5235346201,
			"0.001": 22.7122558467,
			"0.002": 39.271589989,
			"0.003": 17.5481913346,
			"0.004": 5.32596425228,
			"0.005": 5.33493555719,
			"0.006": 5.96741505641,
			"0.007": 4.3308637998,
			"0.008": 5.61051412896,
			"0.009": 5.25907936192,
			"0.01": 5.91004879115,
			"0.011": 8.0872721787,
			"0.012": 7.82897127578,
			"0.013": 2.80588494646,
			"0.014": 0.698321322844,
			"0.015": 0.0,
			"0.016": 0.0,
			"0.017": 0.0,
			"0.018": 0.0,
			"0.019": 0.0,
			"0.02": 0.0,
			"0.021": 0.0,
			"0.022": 0.0,
			"0.023": 0.0,
			"0.024": 0.0,
			"0.025": 0.0
		}
	}
}
