{
	 "smiles": "OC1=CC(=O)OC2=C1C=CC=C2", 
	 "Tm": 486.15, 
	 "num_atms": 18, 
	 "gaussian": { 
		 "optdone": 1, 
		 "sigma_profile": "yes", 
		 "theory": "DFT", 
		 "functional": "B3LYP", 
		 "basiset": "6-31G**", 
		 "properties": { 
			 "R2extent": 2975.796, 
			 "electric_dipole_moment_norm": 6.26278211979, 
			 "electric_quadrupole_moment_norm": 18.8462529549, 
			 "total_energy": -572.244455684, 
			 "HOMO_LUMO_gap": 0.1722, 
			 "cosmo_polarized_energy": -16.22, 
			 "cosmo_cavitation_energy": 22.54, 
			 "cosmo_dispersion_energy": -17.26, 
			 "cosmo_repulsion_energy": 1.35, 
			 "cosmo_total_nonelectrostatic_energy": 6.62, 
			 "SMD_solvation_energy": 5.39 
		},
		"coords": [
			{
				"x": 0.6729048185,
				"y": 1.4419849983,
				"z": -1.6459723421,
				"element": "O" 
			},
			{
				"x": -0.566559664,
				"y": 0.9421674291,
				"z": -1.4457231782,
				"element": "C" 
			},
			{
				"x": -1.6240301532,
				"y": 1.7963503531,
				"z": -1.4659484961,
				"element": "C" 
			},
			{
				"x": -2.9829997642,
				"y": 1.3482042178,
				"z": -1.2614237674,
				"element": "C" 
			},
			{
				"x": -3.9799142736,
				"y": 2.0296886116,
				"z": -1.2618557885,
				"element": "O" 
			},
			{
				"x": -3.1505553629,
				"y": -0.0334234605,
				"z": -1.0387186482,
				"element": "O" 
			},
			{
				"x": -2.1063547068,
				"y": -0.8992299956,
				"z": -1.0149873308,
				"element": "C" 
			},
			{
				"x": -0.7755260238,
				"y": -0.4783244491,
				"z": -1.2125236504,
				"element": "C" 
			},
			{
				"x": 0.2454592866,
				"y": -1.4458065363,
				"z": -1.1713291574,
				"element": "C" 
			},
			{
				"x": -0.0467085608,
				"y": -2.782999801,
				"z": -0.9419615864,
				"element": "C" 
			},
			{
				"x": -1.3774631117,
				"y": -3.1803264837,
				"z": -0.7478445123,
				"element": "C" 
			},
			{
				"x": -2.404728282,
				"y": -2.2461701753,
				"z": -0.7834694211,
				"element": "C" 
			},
			{
				"x": 1.3333357402,
				"y": 0.7390816895,
				"z": -1.6073071824,
				"element": "H" 
			},
			{
				"x": -1.4787324369,
				"y": 2.8547986017,
				"z": -1.6384443767,
				"element": "H" 
			},
			{
				"x": 1.2853426338,
				"y": -1.1613763546,
				"z": -1.3191660351,
				"element": "H" 
			},
			{
				"x": 0.7525121395,
				"y": -3.5161530056,
				"z": -0.9133412141,
				"element": "H" 
			},
			{
				"x": -1.6099832695,
				"y": -4.2254524244,
				"z": -0.5680945592,
				"element": "H" 
			},
			{
				"x": -3.441499009,
				"y": -2.5280132149,
				"z": -0.6363887535,
				"element": "H" 
			}
		],
		 "valence_orbital": [ 
			{
				"type": "occ",
				"energy": -0.3419,
				"method": "rhf"
			},
			{
				"type": "occ",
				"energy": -0.29601,
				"method": "rhf"
			},
			{
				"type": "occ",
				"energy": -0.26985,
				"method": "rhf"
			},
			{
				"type": "occ",
				"energy": -0.26,
				"method": "rhf"
			},
			{
				"type": "occ",
				"energy": -0.23564,
				"method": "rhf"
			},
			{
				"type": "unocc",
				"energy": -0.06344,
				"method": "rhf"
			},
			{
				"type": "unocc",
				"energy": -0.0202,
				"method": "rhf"
			},
			{
				"type": "unocc",
				"energy": 0.00558,
				"method": "rhf"
			},
			{
				"type": "unocc",
				"energy": 0.03555,
				"method": "rhf"
			},
			{
				"type": "unocc",
				"energy": 0.08652,
				"method": "rhf"
			}
		],
		"cosmo_sigma_profile": { 
			"-0.025": 0.0,
			"-0.024": 0.0,
			"-0.023": 0.0,
			"-0.022": 0.0,
			"-0.021": 0.0,
			"-0.02": 0.1782599459,
			"-0.019": 0.660512670306,
			"-0.018": 1.28148393611,
			"-0.017": 1.15033737303,
			"-0.016": 0.694400634988,
			"-0.015": 0.902449062925,
			"-0.014": 0.621773083285,
			"-0.013": 1.51781312633,
			"-0.012": 1.36283535216,
			"-0.011": 0.51690899473,
			"-0.01": 1.1974776827,
			"-0.009": 1.24107310567,
			"-0.008": 3.102136277,
			"-0.007": 7.54732235821,
			"-0.006": 9.87355949609,
			"-0.005": 9.75728534144,
			"-0.004": 9.15997995472,
			"-0.003": 9.87883196392,
			"-0.002": 11.6064109852,
			"-0.001": 11.0626281154,
			"0.0": 13.2300921991,
			"0.001": 15.1725107315,
			"0.002": 17.1552807776,
			"0.003": 11.7770823784,
			"0.004": 5.6230476142,
			"0.005": 4.28610423904,
			"0.006": 3.00016485588,
			"0.007": 2.70439765734,
			"0.008": 4.19669885205,
			"0.009": 4.16893667095,
			"0.01": 3.05886307471,
			"0.011": 2.74710492234,
			"0.012": 6.27281489846,
			"0.013": 4.45325522909,
			"0.014": 0.645482239249,
			"0.015": 0.0,
			"0.016": 0.0,
			"0.017": 0.0,
			"0.018": 0.0,
			"0.019": 0.0,
			"0.02": 0.0,
			"0.021": 0.0,
			"0.022": 0.0,
			"0.023": 0.0,
			"0.024": 0.0,
			"0.025": 0.0
		}
	}
}
