{
	 "smiles": "[O-][N+](=O)C1=CC=CC=C1OCCOC1=CC=CC=C1[N+]([O-])=O", 
	 "Tm": 442.15, 
	 "num_atms": 34, 
	 "gaussian": { 
		 "optdone": 1, 
		 "sigma_profile": "yes", 
		 "theory": "DFT", 
		 "functional": "B3LYP", 
		 "basiset": "6-31G**", 
		 "properties": { 
			 "R2extent": 6127.3135, 
			 "electric_dipole_moment_norm": 3.75558359513, 
			 "electric_quadrupole_moment_norm": 25.1207233558, 
			 "total_energy": -1101.32814578, 
			 "HOMO_LUMO_gap": 0.16157, 
			 "cosmo_polarized_energy": -17.62, 
			 "cosmo_cavitation_energy": 39.65, 
			 "cosmo_dispersion_energy": -26.34, 
			 "cosmo_repulsion_energy": 2.0, 
			 "cosmo_total_nonelectrostatic_energy": 15.31, 
			 "SMD_solvation_energy": 11.09 
		},
		"coords": [
			{
				"x": 1.9575697717,
				"y": 0.850613226,
				"z": 1.0706742505,
				"element": "O" 
			},
			{
				"x": 1.2805187592,
				"y": 1.8248021729,
				"z": 0.7478601458,
				"element": "N" 
			},
			{
				"x": 1.6722147452,
				"y": 2.7315448354,
				"z": 0.0088945283,
				"element": "O" 
			},
			{
				"x": -0.0739808729,
				"y": 1.9526703031,
				"z": 1.2975178073,
				"element": "C" 
			},
			{
				"x": -0.5724918355,
				"y": 3.2465357412,
				"z": 1.4491375291,
				"element": "C" 
			},
			{
				"x": -1.8321544772,
				"y": 3.4545127104,
				"z": 1.9991803246,
				"element": "C" 
			},
			{
				"x": -2.5968569107,
				"y": 2.350458071,
				"z": 2.3791948036,
				"element": "C" 
			},
			{
				"x": -2.1170119958,
				"y": 1.0530826975,
				"z": 2.2099658346,
				"element": "C" 
			},
			{
				"x": -0.8440747861,
				"y": 0.8236104957,
				"z": 1.6649161278,
				"element": "C" 
			},
			{
				"x": -0.3338491593,
				"y": -0.4048615024,
				"z": 1.4441190702,
				"element": "O" 
			},
			{
				"x": -1.1122944284,
				"y": -1.5669919647,
				"z": 1.7422340025,
				"element": "C" 
			},
			{
				"x": -0.3209976767,
				"y": -2.7675145244,
				"z": 1.2476723234,
				"element": "C" 
			},
			{
				"x": -0.456616681,
				"y": -2.9730765167,
				"z": -0.1590330774,
				"element": "O" 
			},
			{
				"x": 0.1435747822,
				"y": -2.1172912583,
				"z": -1.035634623,
				"element": "C" 
			},
			{
				"x": 1.4997017682,
				"y": -1.779820643,
				"z": -0.961066133,
				"element": "C" 
			},
			{
				"x": 2.0905797612,
				"y": -0.9995450229,
				"z": -1.9509691031,
				"element": "C" 
			},
			{
				"x": 1.3525120897,
				"y": -0.5693610752,
				"z": -3.058057311,
				"element": "C" 
			},
			{
				"x": 0.009059862,
				"y": -0.9094963128,
				"z": -3.1571582787,
				"element": "C" 
			},
			{
				"x": -0.594345523,
				"y": -1.6506120595,
				"z": -2.138468691,
				"element": "C" 
			},
			{
				"x": -2.0372260197,
				"y": -1.8931188414,
				"z": -2.2545629904,
				"element": "N" 
			},
			{
				"x": -2.4911276204,
				"y": -2.0380887297,
				"z": -3.3898943106,
				"element": "O" 
			},
			{
				"x": -2.7176971885,
				"y": -1.895414826,
				"z": -1.2282419939,
				"element": "O" 
			},
			{
				"x": 0.0527511315,
				"y": 4.0712835573,
				"z": 1.1297619746,
				"element": "H" 
			},
			{
				"x": -2.2106395029,
				"y": 4.4625560295,
				"z": 2.128508153,
				"element": "H" 
			},
			{
				"x": -3.5843913241,
				"y": 2.4936045956,
				"z": 2.807679054,
				"element": "H" 
			},
			{
				"x": -2.7387311927,
				"y": 0.214138228,
				"z": 2.4957422556,
				"element": "H" 
			},
			{
				"x": -1.2667583008,
				"y": -1.6447457853,
				"z": 2.8275122014,
				"element": "H" 
			},
			{
				"x": -2.078941505,
				"y": -1.5315964407,
				"z": 1.2297320949,
				"element": "H" 
			},
			{
				"x": -0.7261892684,
				"y": -3.6769993351,
				"z": 1.697855211,
				"element": "H" 
			},
			{
				"x": 0.7283636412,
				"y": -2.6676578639,
				"z": 1.5477130409,
				"element": "H" 
			},
			{
				"x": 2.0907176675,
				"y": -2.1289226407,
				"z": -0.1226624498,
				"element": "H" 
			},
			{
				"x": 3.1385223104,
				"y": -0.732934801,
				"z": -1.8585909751,
				"element": "H" 
			},
			{
				"x": 1.819506195,
				"y": 0.0299498789,
				"z": -3.8321556857,
				"element": "H" 
			},
			{
				"x": -0.5983162162,
				"y": -0.5988123986,
				"z": -3.9987751104,
				"element": "H" 
			}
		],
		 "valence_orbital": [ 
			{
				"type": "occ",
				"energy": -0.28796,
				"method": "rhf"
			},
			{
				"type": "occ",
				"energy": -0.27284,
				"method": "rhf"
			},
			{
				"type": "occ",
				"energy": -0.26531,
				"method": "rhf"
			},
			{
				"type": "occ",
				"energy": -0.25083,
				"method": "rhf"
			},
			{
				"type": "occ",
				"energy": -0.24283,
				"method": "rhf"
			},
			{
				"type": "unocc",
				"energy": -0.08126,
				"method": "rhf"
			},
			{
				"type": "unocc",
				"energy": -0.07703,
				"method": "rhf"
			},
			{
				"type": "unocc",
				"energy": -0.01801,
				"method": "rhf"
			},
			{
				"type": "unocc",
				"energy": -0.01469,
				"method": "rhf"
			},
			{
				"type": "unocc",
				"energy": -0.00343,
				"method": "rhf"
			}
		],
		"cosmo_sigma_profile": { 
			"-0.025": 0.0,
			"-0.024": 0.0,
			"-0.023": 0.0,
			"-0.022": 0.0,
			"-0.021": 0.0,
			"-0.02": 0.0,
			"-0.019": 0.0,
			"-0.018": 0.0,
			"-0.017": 0.0,
			"-0.016": 0.0,
			"-0.015": 0.0,
			"-0.014": 0.0,
			"-0.013": 0.0,
			"-0.012": 0.0,
			"-0.011": 0.0,
			"-0.01": 0.0,
			"-0.009": 0.636918677754,
			"-0.008": 8.23221979944,
			"-0.007": 24.3254928716,
			"-0.006": 25.9654392672,
			"-0.005": 23.7665285306,
			"-0.004": 18.6158571476,
			"-0.003": 15.9209980917,
			"-0.002": 14.4328232161,
			"-0.001": 16.5174805652,
			"0.0": 21.7379408074,
			"0.001": 27.3908219891,
			"0.002": 25.5882148813,
			"0.003": 19.1522377093,
			"0.004": 8.75897263669,
			"0.005": 9.06070111324,
			"0.006": 7.41707909455,
			"0.007": 11.3914359941,
			"0.008": 19.2860761655,
			"0.009": 11.1374729336,
			"0.01": 6.88924013955,
			"0.011": 1.34554597235,
			"0.012": 0.124130298173,
			"0.013": 0.0,
			"0.014": 0.0,
			"0.015": 0.0,
			"0.016": 0.0,
			"0.017": 0.0,
			"0.018": 0.0,
			"0.019": 0.0,
			"0.02": 0.0,
			"0.021": 0.0,
			"0.022": 0.0,
			"0.023": 0.0,
			"0.024": 0.0,
			"0.025": 0.0
		}
	}
}
