{
	 "smiles": "CCCC(C)(N)C(O)=O", 
	 "Tm": 543.15, 
	 "num_atms": 22, 
	 "gaussian": { 
		 "optdone": 1, 
		 "sigma_profile": "yes", 
		 "theory": "DFT", 
		 "functional": "B3LYP", 
		 "basiset": "6-31G**", 
		 "properties": { 
			 "R2extent": 1503.6259, 
			 "electric_dipole_moment_norm": 1.34023712081, 
			 "electric_quadrupole_moment_norm": 3.83901004166, 
			 "total_energy": -441.69883839, 
			 "HOMO_LUMO_gap": 0.25219, 
			 "cosmo_polarized_energy": -9.83, 
			 "cosmo_cavitation_energy": 24.16, 
			 "cosmo_dispersion_energy": -17.23, 
			 "cosmo_repulsion_energy": 1.44, 
			 "cosmo_total_nonelectrostatic_energy": 8.37, 
			 "SMD_solvation_energy": 4.76 
		},
		"coords": [
			{
				"x": 2.2174673111,
				"y": 2.2298462473,
				"z": 1.8517942492,
				"element": "C" 
			},
			{
				"x": 1.9240164089,
				"y": 1.0333458105,
				"z": 0.9400351487,
				"element": "C" 
			},
			{
				"x": 0.4296306258,
				"y": 0.6888092409,
				"z": 0.9015117994,
				"element": "C" 
			},
			{
				"x": 0.0337475361,
				"y": -0.4020692419,
				"z": -0.1348089415,
				"element": "C" 
			},
			{
				"x": 0.7572238445,
				"y": -1.7359427197,
				"z": 0.1243114811,
				"element": "C" 
			},
			{
				"x": 0.3779988546,
				"y": 0.0703847857,
				"z": -1.4761171675,
				"element": "N" 
			},
			{
				"x": -1.488532827,
				"y": -0.6089380825,
				"z": -0.0048492141,
				"element": "C" 
			},
			{
				"x": -1.8470689827,
				"y": -1.2097633186,
				"z": 1.1564621472,
				"element": "O" 
			},
			{
				"x": -2.3087979349,
				"y": -0.2583340606,
				"z": -0.8268435606,
				"element": "O" 
			},
			{
				"x": 1.8947380455,
				"y": 2.0384395809,
				"z": 2.8819016452,
				"element": "H" 
			},
			{
				"x": 1.6968992341,
				"y": 3.1302535061,
				"z": 1.5057432222,
				"element": "H" 
			},
			{
				"x": 3.2885875916,
				"y": 2.4553868379,
				"z": 1.8766973917,
				"element": "H" 
			},
			{
				"x": 2.2644834073,
				"y": 1.2404039154,
				"z": -0.0794393607,
				"element": "H" 
			},
			{
				"x": 2.4962043711,
				"y": 0.1661025992,
				"z": 1.291492647,
				"element": "H" 
			},
			{
				"x": -0.1381873138,
				"y": 1.5990010306,
				"z": 0.6594225342,
				"element": "H" 
			},
			{
				"x": 0.090733759,
				"y": 0.3693908637,
				"z": 1.8937872409,
				"element": "H" 
			},
			{
				"x": 0.5960716163,
				"y": -2.0818310501,
				"z": 1.1473198373,
				"element": "H" 
			},
			{
				"x": 1.8279465096,
				"y": -1.6135122687,
				"z": -0.0513837974,
				"element": "H" 
			},
			{
				"x": 0.3918553084,
				"y": -2.5136385493,
				"z": -0.55615609,
				"element": "H" 
			},
			{
				"x": 0.1850588855,
				"y": -0.6676931842,
				"z": -2.1506161294,
				"element": "H" 
			},
			{
				"x": -0.2569057258,
				"y": 0.8262068148,
				"z": -1.7275953024,
				"element": "H" 
			},
			{
				"x": -2.8178705252,
				"y": -1.2635487572,
				"z": 1.1435302194,
				"element": "H" 
			}
		],
		 "valence_orbital": [ 
			{
				"type": "occ",
				"energy": -0.32849,
				"method": "rhf"
			},
			{
				"type": "occ",
				"energy": -0.32405,
				"method": "rhf"
			},
			{
				"type": "occ",
				"energy": -0.31728,
				"method": "rhf"
			},
			{
				"type": "occ",
				"energy": -0.2734,
				"method": "rhf"
			},
			{
				"type": "occ",
				"energy": -0.24415,
				"method": "rhf"
			},
			{
				"type": "unocc",
				"energy": 0.00804,
				"method": "rhf"
			},
			{
				"type": "unocc",
				"energy": 0.06888,
				"method": "rhf"
			},
			{
				"type": "unocc",
				"energy": 0.08758,
				"method": "rhf"
			},
			{
				"type": "unocc",
				"energy": 0.11192,
				"method": "rhf"
			},
			{
				"type": "unocc",
				"energy": 0.12472,
				"method": "rhf"
			}
		],
		"cosmo_sigma_profile": { 
			"-0.025": 0.0,
			"-0.024": 0.0,
			"-0.023": 0.0,
			"-0.022": 0.0,
			"-0.021": 0.0,
			"-0.02": 0.0,
			"-0.019": 0.0506762803186,
			"-0.018": 0.714834729536,
			"-0.017": 0.672990998629,
			"-0.016": 0.902769327169,
			"-0.015": 1.10357110297,
			"-0.014": 0.496104174876,
			"-0.013": 0.602664344637,
			"-0.012": 0.529387585381,
			"-0.011": 0.658148420566,
			"-0.01": 1.4195306923,
			"-0.009": 2.13321667444,
			"-0.008": 3.53824420477,
			"-0.007": 3.37184725193,
			"-0.006": 4.85916106515,
			"-0.005": 4.56593814682,
			"-0.004": 6.58672863369,
			"-0.003": 13.8176351553,
			"-0.002": 22.621999458,
			"-0.001": 22.9149589783,
			"0.0": 23.242044489,
			"0.001": 21.1282481852,
			"0.002": 9.8393695232,
			"0.003": 5.64582266497,
			"0.004": 3.7864409402,
			"0.005": 3.79566961185,
			"0.006": 2.81205881755,
			"0.007": 3.70042490269,
			"0.008": 3.62372762919,
			"0.009": 2.19591701401,
			"0.01": 3.11594635031,
			"0.011": 4.07456529412,
			"0.012": 5.02403813356,
			"0.013": 0.636131228025,
			"0.014": 0.512634364321,
			"0.015": 0.768304263034,
			"0.016": 0.550818490198,
			"0.017": 0.176270930798,
			"0.018": 0.0,
			"0.019": 0.0,
			"0.02": 0.0,
			"0.021": 0.0,
			"0.022": 0.0,
			"0.023": 0.0,
			"0.024": 0.0,
			"0.025": 0.0
		}
	}
}
