{
	 "smiles": "ClC1=C(C=CC=N1)S(Cl)(=O)=O", 
	 "Tm": 316.15, 
	 "num_atms": 14, 
	 "gaussian": { 
		 "optdone": 1, 
		 "sigma_profile": "yes", 
		 "theory": "DFT", 
		 "functional": "B3LYP", 
		 "basiset": "6-31G**", 
		 "properties": { 
			 "R2extent": 3018.8216, 
			 "electric_dipole_moment_norm": 4.9482358523, 
			 "electric_quadrupole_moment_norm": 8.73451001774, 
			 "total_energy": -1716.02170497, 
			 "HOMO_LUMO_gap": 0.19353, 
			 "cosmo_polarized_energy": -10.51, 
			 "cosmo_cavitation_energy": 23.75, 
			 "cosmo_dispersion_energy": -18.33, 
			 "cosmo_repulsion_energy": 1.42, 
			 "cosmo_total_nonelectrostatic_energy": 6.84, 
			 "SMD_solvation_energy": 1.36 
		},
		"coords": [
			{
				"x": -1.4898343352,
				"y": 3.2337479206,
				"z": -0.8530015498,
				"element": "Cl" 
			},
			{
				"x": -1.9216515153,
				"y": 1.5464522257,
				"z": -0.8358507554,
				"element": "C" 
			},
			{
				"x": -0.9702681169,
				"y": 0.5384950231,
				"z": -0.5879772432,
				"element": "C" 
			},
			{
				"x": -1.38312406,
				"y": -0.7945232,
				"z": -0.6179013589,
				"element": "C" 
			},
			{
				"x": -2.721088293,
				"y": -1.0767826345,
				"z": -0.8799785739,
				"element": "C" 
			},
			{
				"x": -3.5838214024,
				"y": -0.0065473746,
				"z": -1.1039729985,
				"element": "C" 
			},
			{
				"x": -3.1907040789,
				"y": 1.273344517,
				"z": -1.0846899786,
				"element": "N" 
			},
			{
				"x": 0.7610726346,
				"y": 0.8222751815,
				"z": -0.1740493532,
				"element": "S" 
			},
			{
				"x": 1.528080073,
				"y": 1.5111310366,
				"z": -2.0230879322,
				"element": "Cl" 
			},
			{
				"x": 0.8891915099,
				"y": 1.9085899865,
				"z": 0.7833997913,
				"element": "O" 
			},
			{
				"x": 1.3712294709,
				"y": -0.4812158755,
				"z": 0.0594025219,
				"element": "O" 
			},
			{
				"x": -0.658931979,
				"y": -1.5798205992,
				"z": -0.4340521658,
				"element": "H" 
			},
			{
				"x": -3.0820351899,
				"y": -2.098733247,
				"z": -0.9090560595,
				"element": "H" 
			},
			{
				"x": -4.638214718,
				"y": -0.1722129601,
				"z": -1.3114843441,
				"element": "H" 
			}
		],
		 "valence_orbital": [ 
			{
				"type": "occ",
				"energy": -0.32932,
				"method": "rhf"
			},
			{
				"type": "occ",
				"energy": -0.32743,
				"method": "rhf"
			},
			{
				"type": "occ",
				"energy": -0.32177,
				"method": "rhf"
			},
			{
				"type": "occ",
				"energy": -0.30416,
				"method": "rhf"
			},
			{
				"type": "occ",
				"energy": -0.29384,
				"method": "rhf"
			},
			{
				"type": "unocc",
				"energy": -0.10031,
				"method": "rhf"
			},
			{
				"type": "unocc",
				"energy": -0.07037,
				"method": "rhf"
			},
			{
				"type": "unocc",
				"energy": -0.06339,
				"method": "rhf"
			},
			{
				"type": "unocc",
				"energy": 0.00889,
				"method": "rhf"
			},
			{
				"type": "unocc",
				"energy": 0.04301,
				"method": "rhf"
			}
		],
		"cosmo_sigma_profile": { 
			"-0.025": 0.0,
			"-0.024": 0.0,
			"-0.023": 0.0,
			"-0.022": 0.0,
			"-0.021": 0.0,
			"-0.02": 0.0,
			"-0.019": 0.0,
			"-0.018": 0.0,
			"-0.017": 0.0,
			"-0.016": 0.0,
			"-0.015": 0.0,
			"-0.014": 0.0,
			"-0.013": 0.0,
			"-0.012": 0.0,
			"-0.011": 0.0200172181655,
			"-0.01": 1.24921080332,
			"-0.009": 6.81840264592,
			"-0.008": 7.25460347569,
			"-0.007": 6.41219040673,
			"-0.006": 6.46641843708,
			"-0.005": 7.37641834517,
			"-0.004": 12.5278137666,
			"-0.003": 14.6786527433,
			"-0.002": 15.7570996213,
			"-0.001": 14.2923932879,
			"0.0": 9.87869131325,
			"0.001": 13.4546082556,
			"0.002": 19.6949661022,
			"0.003": 18.6320478034,
			"0.004": 7.07670565935,
			"0.005": 5.61163562064,
			"0.006": 5.38213691786,
			"0.007": 9.75976184519,
			"0.008": 9.57839744078,
			"0.009": 2.23578968216,
			"0.01": 0.717915708451,
			"0.011": 1.07768358079,
			"0.012": 0.684266557162,
			"0.013": 0.256676815033,
			"0.014": 0.0,
			"0.015": 0.0,
			"0.016": 0.0,
			"0.017": 0.0,
			"0.018": 0.0,
			"0.019": 0.0,
			"0.02": 0.0,
			"0.021": 0.0,
			"0.022": 0.0,
			"0.023": 0.0,
			"0.024": 0.0,
			"0.025": 0.0
		}
	}
}
