{
	 "smiles": "CNC(=O)CN1C=CC2=C1C=C(N)C=C2", 
	 "Tm": 408.15, 
	 "num_atms": 28, 
	 "gaussian": { 
		 "optdone": 1, 
		 "sigma_profile": "yes", 
		 "theory": "DFT", 
		 "functional": "B3LYP", 
		 "basiset": "6-31G**", 
		 "properties": { 
			 "R2extent": 3939.6871, 
			 "electric_dipole_moment_norm": 4.99262318726, 
			 "electric_quadrupole_moment_norm": 28.4899164158, 
			 "total_energy": -666.490698427, 
			 "HOMO_LUMO_gap": 0.17954, 
			 "cosmo_polarized_energy": -23.23, 
			 "cosmo_cavitation_energy": 31.9, 
			 "cosmo_dispersion_energy": -22.62, 
			 "cosmo_repulsion_energy": 1.79, 
			 "cosmo_total_nonelectrostatic_energy": 11.07, 
			 "SMD_solvation_energy": 5.6 
		},
		"coords": [
			{
				"x": 0.4527890232,
				"y": -2.2127261191,
				"z": 4.5392272344,
				"element": "C" 
			},
			{
				"x": 1.3866347463,
				"y": -1.7006306349,
				"z": 3.5499693504,
				"element": "N" 
			},
			{
				"x": 1.1147016675,
				"y": -1.3230232937,
				"z": 2.260889111,
				"element": "C" 
			},
			{
				"x": 1.9624333389,
				"y": -0.8308421923,
				"z": 1.5356769487,
				"element": "O" 
			},
			{
				"x": -0.3293495106,
				"y": -1.5938788349,
				"z": 1.7874627737,
				"element": "C" 
			},
			{
				"x": -0.5981207367,
				"y": -1.0952530576,
				"z": 0.4679103769,
				"element": "N" 
			},
			{
				"x": -0.4267855533,
				"y": -1.8091576784,
				"z": -0.7143402017,
				"element": "C" 
			},
			{
				"x": -0.7231846421,
				"y": -1.0149484348,
				"z": -1.7854625977,
				"element": "C" 
			},
			{
				"x": -1.0857422691,
				"y": 0.2754103428,
				"z": -1.2648287922,
				"element": "C" 
			},
			{
				"x": -0.9820283697,
				"y": 0.1955233107,
				"z": 0.1504855277,
				"element": "C" 
			},
			{
				"x": -1.2513242305,
				"y": 1.282576843,
				"z": 0.989028491,
				"element": "C" 
			},
			{
				"x": -1.6505387829,
				"y": 2.4845540706,
				"z": 0.3985685069,
				"element": "C" 
			},
			{
				"x": -1.9884281202,
				"y": 3.594144428,
				"z": 1.1937841657,
				"element": "N" 
			},
			{
				"x": -1.7702682254,
				"y": 2.5751670677,
				"z": -1.0111703757,
				"element": "C" 
			},
			{
				"x": -1.4915158016,
				"y": 1.4935391127,
				"z": -1.8326256076,
				"element": "C" 
			},
			{
				"x": -0.1062978475,
				"y": -3.0748041859,
				"z": 4.1603439096,
				"element": "H" 
			},
			{
				"x": -0.267996576,
				"y": -1.4568474352,
				"z": 4.8791707703,
				"element": "H" 
			},
			{
				"x": 1.0187802807,
				"y": -2.5496345128,
				"z": 5.409863615,
				"element": "H" 
			},
			{
				"x": 2.330313296,
				"y": -1.4851530534,
				"z": 3.8407861478,
				"element": "H" 
			},
			{
				"x": -0.5095146112,
				"y": -2.6755391621,
				"z": 1.8020870152,
				"element": "H" 
			},
			{
				"x": -1.0439349589,
				"y": -1.1551694313,
				"z": 2.4939364329,
				"element": "H" 
			},
			{
				"x": -0.1055498989,
				"y": -2.8405437912,
				"z": -0.6767045999,
				"element": "H" 
			},
			{
				"x": -0.690856362,
				"y": -1.311378741,
				"z": -2.8243515443,
				"element": "H" 
			},
			{
				"x": -1.1448810908,
				"y": 1.2131427079,
				"z": 2.0683559017,
				"element": "H" 
			},
			{
				"x": -1.8661913316,
				"y": 4.4823039541,
				"z": 0.7245135035,
				"element": "H" 
			},
			{
				"x": -1.5311494252,
				"y": 3.6062675361,
				"z": 2.0964692232,
				"element": "H" 
			},
			{
				"x": -2.0883233933,
				"y": 3.518652371,
				"z": -1.4480700955,
				"element": "H" 
			},
			{
				"x": -1.5832706149,
				"y": 1.5942488142,
				"z": -2.9107751912,
				"element": "H" 
			}
		],
		 "valence_orbital": [ 
			{
				"type": "occ",
				"energy": -0.25722,
				"method": "rhf"
			},
			{
				"type": "occ",
				"energy": -0.25315,
				"method": "rhf"
			},
			{
				"type": "occ",
				"energy": -0.24417,
				"method": "rhf"
			},
			{
				"type": "occ",
				"energy": -0.19866,
				"method": "rhf"
			},
			{
				"type": "occ",
				"energy": -0.16992,
				"method": "rhf"
			},
			{
				"type": "unocc",
				"energy": 0.00962,
				"method": "rhf"
			},
			{
				"type": "unocc",
				"energy": 0.02355,
				"method": "rhf"
			},
			{
				"type": "unocc",
				"energy": 0.04333,
				"method": "rhf"
			},
			{
				"type": "unocc",
				"energy": 0.06582,
				"method": "rhf"
			},
			{
				"type": "unocc",
				"energy": 0.07853,
				"method": "rhf"
			}
		],
		"cosmo_sigma_profile": { 
			"-0.025": 0.0,
			"-0.024": 0.0,
			"-0.023": 0.0,
			"-0.022": 0.0,
			"-0.021": 0.0,
			"-0.02": 0.0,
			"-0.019": 0.0,
			"-0.018": 0.0,
			"-0.017": 0.0,
			"-0.016": 0.0,
			"-0.015": 0.0,
			"-0.014": 0.327568699394,
			"-0.013": 1.25980472208,
			"-0.012": 2.06073865233,
			"-0.011": 3.75359475961,
			"-0.01": 4.11277259907,
			"-0.009": 3.81282101382,
			"-0.008": 10.440047777,
			"-0.007": 15.110714255,
			"-0.006": 14.7024431234,
			"-0.005": 19.8328907261,
			"-0.004": 16.3661871043,
			"-0.003": 16.1458952785,
			"-0.002": 17.9624592172,
			"-0.001": 11.8331994139,
			"0.0": 8.12907570297,
			"0.001": 8.97319516276,
			"0.002": 7.91073261524,
			"0.003": 8.6616893959,
			"0.004": 9.96711903218,
			"0.005": 8.24560559382,
			"0.006": 11.6169363204,
			"0.007": 17.5915909014,
			"0.008": 8.94214680038,
			"0.009": 2.98754006376,
			"0.01": 2.64037457852,
			"0.011": 2.89036217407,
			"0.012": 3.62334135583,
			"0.013": 5.03062727846,
			"0.014": 5.63886689797,
			"0.015": 1.41039987012,
			"0.016": 0.382603627476,
			"0.017": 0.0,
			"0.018": 0.0,
			"0.019": 0.0,
			"0.02": 0.0,
			"0.021": 0.0,
			"0.022": 0.0,
			"0.023": 0.0,
			"0.024": 0.0,
			"0.025": 0.0
		}
	}
}
