{
	 "smiles": "COC1=CC(NC(=O)CCl)=C(OC)C=C1", 
	 "Tm": 443.15, 
	 "num_atms": 27, 
	 "gaussian": { 
		 "optdone": 1, 
		 "sigma_profile": "yes", 
		 "theory": "DFT", 
		 "functional": "B3LYP", 
		 "basiset": "6-31G**", 
		 "properties": { 
			 "R2extent": 5523.1962, 
			 "electric_dipole_moment_norm": 1.37754371618, 
			 "electric_quadrupole_moment_norm": 12.2161693751, 
			 "total_energy": -1128.89594829, 
			 "HOMO_LUMO_gap": 0.19081, 
			 "cosmo_polarized_energy": -13.74, 
			 "cosmo_cavitation_energy": 32.55, 
			 "cosmo_dispersion_energy": -23.53, 
			 "cosmo_repulsion_energy": 1.88, 
			 "cosmo_total_nonelectrostatic_energy": 10.89, 
			 "SMD_solvation_energy": 7.33 
		},
		"coords": [
			{
				"x": 0.0139671647,
				"y": -1.4186307238,
				"z": -3.8906183176,
				"element": "C" 
			},
			{
				"x": -0.129544139,
				"y": -0.1393429435,
				"z": -3.2971570052,
				"element": "O" 
			},
			{
				"x": -0.4512025737,
				"y": -0.0761592245,
				"z": -1.9707570875,
				"element": "C" 
			},
			{
				"x": -0.6528217971,
				"y": -1.1868666412,
				"z": -1.149013823,
				"element": "C" 
			},
			{
				"x": -0.9780879083,
				"y": -1.013699791,
				"z": 0.2040402859,
				"element": "C" 
			},
			{
				"x": -1.2016933442,
				"y": -2.1693638283,
				"z": 1.0016785119,
				"element": "N" 
			},
			{
				"x": -0.5516150384,
				"y": -2.440484756,
				"z": 2.1643529624,
				"element": "C" 
			},
			{
				"x": 0.3169490796,
				"y": -1.7517420951,
				"z": 2.6785278376,
				"element": "O" 
			},
			{
				"x": -0.9545911578,
				"y": -3.715964165,
				"z": 2.9121248006,
				"element": "C" 
			},
			{
				"x": -2.0585717487,
				"y": -4.8718080258,
				"z": 2.0426866803,
				"element": "Cl" 
			},
			{
				"x": -1.1273133218,
				"y": 0.2724535942,
				"z": 0.7425535173,
				"element": "C" 
			},
			{
				"x": -1.5640296094,
				"y": 0.4043435571,
				"z": 2.0337027793,
				"element": "O" 
			},
			{
				"x": -0.7402619049,
				"y": 1.1852389278,
				"z": 2.9030170701,
				"element": "C" 
			},
			{
				"x": -0.9032133185,
				"y": 1.3769589494,
				"z": -0.091377281,
				"element": "C" 
			},
			{
				"x": -0.5691042486,
				"y": 1.2116334406,
				"z": -1.4283199363,
				"element": "C" 
			},
			{
				"x": 0.8217318002,
				"y": -1.9956976763,
				"z": -3.4213733114,
				"element": "H" 
			},
			{
				"x": 0.2637402302,
				"y": -1.240237164,
				"z": -4.9376450087,
				"element": "H" 
			},
			{
				"x": -0.9172454642,
				"y": -1.9982052795,
				"z": -3.8368772237,
				"element": "H" 
			},
			{
				"x": -0.5395381517,
				"y": -2.1964709715,
				"z": -1.5258654421,
				"element": "H" 
			},
			{
				"x": -1.8404913955,
				"y": -2.8717232509,
				"z": 0.6530764182,
				"element": "H" 
			},
			{
				"x": -1.4625076937,
				"y": -3.4295121335,
				"z": 3.8339997796,
				"element": "H" 
			},
			{
				"x": -0.0469054186,
				"y": -4.2638708528,
				"z": 3.1614332383,
				"element": "H" 
			},
			{
				"x": 0.2624212704,
				"y": 0.7534200852,
				"z": 2.9657991933,
				"element": "H" 
			},
			{
				"x": -0.6830638737,
				"y": 2.2324838944,
				"z": 2.5811427821,
				"element": "H" 
			},
			{
				"x": -1.2166911772,
				"y": 1.1468174287,
				"z": 3.8846003131,
				"element": "H" 
			},
			{
				"x": -1.0240273463,
				"y": 2.3768585666,
				"z": 0.3122848982,
				"element": "H" 
			},
			{
				"x": -0.4067889138,
				"y": 2.0661710786,
				"z": -2.0766166319,
				"element": "H" 
			}
		],
		 "valence_orbital": [ 
			{
				"type": "occ",
				"energy": -0.28465,
				"method": "rhf"
			},
			{
				"type": "occ",
				"energy": -0.27525,
				"method": "rhf"
			},
			{
				"type": "occ",
				"energy": -0.2596,
				"method": "rhf"
			},
			{
				"type": "occ",
				"energy": -0.24419,
				"method": "rhf"
			},
			{
				"type": "occ",
				"energy": -0.20747,
				"method": "rhf"
			},
			{
				"type": "unocc",
				"energy": -0.01666,
				"method": "rhf"
			},
			{
				"type": "unocc",
				"energy": 0.01028,
				"method": "rhf"
			},
			{
				"type": "unocc",
				"energy": 0.01405,
				"method": "rhf"
			},
			{
				"type": "unocc",
				"energy": 0.02902,
				"method": "rhf"
			},
			{
				"type": "unocc",
				"energy": 0.0875,
				"method": "rhf"
			}
		],
		"cosmo_sigma_profile": { 
			"-0.025": 0.0,
			"-0.024": 0.0,
			"-0.023": 0.0,
			"-0.022": 0.0,
			"-0.021": 0.0,
			"-0.02": 0.0,
			"-0.019": 0.0,
			"-0.018": 0.0,
			"-0.017": 0.0,
			"-0.016": 0.0,
			"-0.015": 0.0,
			"-0.014": 0.0,
			"-0.013": 0.285559641855,
			"-0.012": 0.936855606839,
			"-0.011": 0.93987281218,
			"-0.01": 1.15797566168,
			"-0.009": 4.14467721324,
			"-0.008": 4.97963585157,
			"-0.007": 8.3354958758,
			"-0.006": 14.9226579746,
			"-0.005": 21.8120729541,
			"-0.004": 21.8163847106,
			"-0.003": 22.8270907399,
			"-0.002": 18.9848134692,
			"-0.001": 13.4027017695,
			"0.0": 10.9945244595,
			"0.001": 12.3809318664,
			"0.002": 13.4439362062,
			"0.003": 16.1570627781,
			"0.004": 19.9487255712,
			"0.005": 16.2046471694,
			"0.006": 7.92957508329,
			"0.007": 5.18605872692,
			"0.008": 5.58183715187,
			"0.009": 3.96174110658,
			"0.01": 4.43787044794,
			"0.011": 3.23751710988,
			"0.012": 3.5920750205,
			"0.013": 2.45785763927,
			"0.014": 0.535213687832,
			"0.015": 0.0,
			"0.016": 0.0,
			"0.017": 0.0,
			"0.018": 0.0,
			"0.019": 0.0,
			"0.02": 0.0,
			"0.021": 0.0,
			"0.022": 0.0,
			"0.023": 0.0,
			"0.024": 0.0,
			"0.025": 0.0
		}
	}
}
