{
	 "smiles": "ClS(=O)(=O)C1CCN(CC1)C(=O)OCC1=CC=CC=C1", 
	 "Tm": 336.15, 
	 "num_atms": 36, 
	 "gaussian": { 
		 "optdone": 1, 
		 "sigma_profile": "yes", 
		 "theory": "DFT", 
		 "functional": "B3LYP", 
		 "basiset": "6-31G**", 
		 "properties": { 
			 "R2extent": 11509.211, 
			 "electric_dipole_moment_norm": 4.56824810841, 
			 "electric_quadrupole_moment_norm": 25.8838317333, 
			 "total_energy": -1719.0126355, 
			 "HOMO_LUMO_gap": 0.16097, 
			 "cosmo_polarized_energy": -16.9, 
			 "cosmo_cavitation_energy": 42.19, 
			 "cosmo_dispersion_energy": -30.28, 
			 "cosmo_repulsion_energy": 2.29, 
			 "cosmo_total_nonelectrostatic_energy": 14.2, 
			 "SMD_solvation_energy": 5.53 
		},
		"coords": [
			{
				"x": -0.4317810337,
				"y": -0.4152270163,
				"z": 5.6884840843,
				"element": "Cl" 
			},
			{
				"x": 1.0623064075,
				"y": -1.7795663486,
				"z": 4.9629189923,
				"element": "S" 
			},
			{
				"x": 0.6934946745,
				"y": -3.0984435388,
				"z": 5.4634171492,
				"element": "O" 
			},
			{
				"x": 2.3587571918,
				"y": -1.180165495,
				"z": 5.2576191124,
				"element": "O" 
			},
			{
				"x": 0.7620448729,
				"y": -1.7137140673,
				"z": 3.1498018295,
				"element": "C" 
			},
			{
				"x": 1.104134351,
				"y": -0.3296789846,
				"z": 2.5864324856,
				"element": "C" 
			},
			{
				"x": 0.7729071131,
				"y": -0.2767684673,
				"z": 1.0901145102,
				"element": "C" 
			},
			{
				"x": -0.6301086483,
				"y": -0.6457035058,
				"z": 0.8645172723,
				"element": "N" 
			},
			{
				"x": -1.4267161562,
				"y": -1.1333726965,
				"z": 1.9887529618,
				"element": "C" 
			},
			{
				"x": -0.6587231389,
				"y": -2.2035210374,
				"z": 2.7723138102,
				"element": "C" 
			},
			{
				"x": -1.1931224525,
				"y": -0.6160587291,
				"z": -0.3834465194,
				"element": "C" 
			},
			{
				"x": -2.3413496994,
				"y": -0.9354876439,
				"z": -0.648199142,
				"element": "O" 
			},
			{
				"x": -0.2924475572,
				"y": -0.177790774,
				"z": -1.3030940516,
				"element": "O" 
			},
			{
				"x": -0.8001120593,
				"y": -0.0982639041,
				"z": -2.6595557618,
				"element": "C" 
			},
			{
				"x": 0.2859477183,
				"y": 0.4795115394,
				"z": -3.5260581917,
				"element": "C" 
			},
			{
				"x": 0.4951376631,
				"y": 1.8641812551,
				"z": -3.5707527255,
				"element": "C" 
			},
			{
				"x": 1.510497672,
				"y": 2.4035132659,
				"z": -4.3596521307,
				"element": "C" 
			},
			{
				"x": 2.3286257246,
				"y": 1.5616087569,
				"z": -5.1172081809,
				"element": "C" 
			},
			{
				"x": 2.1272271588,
				"y": 0.1809311926,
				"z": -5.0810471522,
				"element": "C" 
			},
			{
				"x": 1.1116117982,
				"y": -0.355266798,
				"z": -4.2876999834,
				"element": "C" 
			},
			{
				"x": 1.516139275,
				"y": -2.4411099148,
				"z": 2.8241625728,
				"element": "H" 
			},
			{
				"x": 0.5378981504,
				"y": 0.4408476358,
				"z": 3.1183719568,
				"element": "H" 
			},
			{
				"x": 2.1642672625,
				"y": -0.1123948677,
				"z": 2.7332423771,
				"element": "H" 
			},
			{
				"x": 1.435797733,
				"y": -0.9521413698,
				"z": 0.5331143512,
				"element": "H" 
			},
			{
				"x": 0.9638534887,
				"y": 0.7320990005,
				"z": 0.7111196629,
				"element": "H" 
			},
			{
				"x": -1.7063045365,
				"y": -0.3053184014,
				"z": 2.6528343671,
				"element": "H" 
			},
			{
				"x": -2.3470729932,
				"y": -1.5457371491,
				"z": 1.5750979989,
				"element": "H" 
			},
			{
				"x": -1.2304334976,
				"y": -2.4919270343,
				"z": 3.6590245338,
				"element": "H" 
			},
			{
				"x": -0.5601463254,
				"y": -3.1039889551,
				"z": 2.1590917947,
				"element": "H" 
			},
			{
				"x": -1.0907058622,
				"y": -1.100278862,
				"z": -2.9877642239,
				"element": "H" 
			},
			{
				"x": -1.69872672,
				"y": 0.5250707114,
				"z": -2.6592285336,
				"element": "H" 
			},
			{
				"x": -0.1436228826,
				"y": 2.5201792112,
				"z": -2.9846431832,
				"element": "H" 
			},
			{
				"x": 1.6607226267,
				"y": 3.4789246716,
				"z": -4.3885010371,
				"element": "H" 
			},
			{
				"x": 3.1166056596,
				"y": 1.9810756445,
				"z": -5.7361177355,
				"element": "H" 
			},
			{
				"x": 2.7581535627,
				"y": -0.4776341182,
				"z": -5.6710219694,
				"element": "H" 
			},
			{
				"x": 0.9551434585,
				"y": -1.4307832057,
				"z": -4.2608413012,
				"element": "H" 
			}
		],
		 "valence_orbital": [ 
			{
				"type": "occ",
				"energy": -0.30097,
				"method": "rhf"
			},
			{
				"type": "occ",
				"energy": -0.27869,
				"method": "rhf"
			},
			{
				"type": "occ",
				"energy": -0.2593,
				"method": "rhf"
			},
			{
				"type": "occ",
				"energy": -0.25592,
				"method": "rhf"
			},
			{
				"type": "occ",
				"energy": -0.24879,
				"method": "rhf"
			},
			{
				"type": "unocc",
				"energy": -0.08782,
				"method": "rhf"
			},
			{
				"type": "unocc",
				"energy": -0.01795,
				"method": "rhf"
			},
			{
				"type": "unocc",
				"energy": -0.01018,
				"method": "rhf"
			},
			{
				"type": "unocc",
				"energy": 0.03206,
				"method": "rhf"
			},
			{
				"type": "unocc",
				"energy": 0.04523,
				"method": "rhf"
			}
		],
		"cosmo_sigma_profile": { 
			"-0.025": 0.0,
			"-0.024": 0.0,
			"-0.023": 0.0,
			"-0.022": 0.0,
			"-0.021": 0.0,
			"-0.02": 0.0,
			"-0.019": 0.0,
			"-0.018": 0.0,
			"-0.017": 0.0,
			"-0.016": 0.0,
			"-0.015": 0.0,
			"-0.014": 0.0,
			"-0.013": 0.0,
			"-0.012": 0.716013272727,
			"-0.011": 1.52958281437,
			"-0.01": 3.10917673014,
			"-0.009": 2.95845761699,
			"-0.008": 2.26245027797,
			"-0.007": 3.53063427739,
			"-0.006": 22.7856720424,
			"-0.005": 33.4801528391,
			"-0.004": 33.4115858872,
			"-0.003": 28.7053394436,
			"-0.002": 21.1778749438,
			"-0.001": 20.1653296327,
			"0.0": 18.1643095735,
			"0.001": 19.0730094803,
			"0.002": 17.8251714189,
			"0.003": 19.8898813427,
			"0.004": 20.3588421229,
			"0.005": 16.5319716357,
			"0.006": 11.4066993576,
			"0.007": 7.74491142095,
			"0.008": 12.5516933123,
			"0.009": 8.03802947658,
			"0.01": 1.39322210745,
			"0.011": 1.08170176183,
			"0.012": 1.83002172081,
			"0.013": 3.76892047994,
			"0.014": 2.57871947626,
			"0.015": 0.0,
			"0.016": 0.0,
			"0.017": 0.0,
			"0.018": 0.0,
			"0.019": 0.0,
			"0.02": 0.0,
			"0.021": 0.0,
			"0.022": 0.0,
			"0.023": 0.0,
			"0.024": 0.0,
			"0.025": 0.0
		}
	}
}
