{
	 "smiles": "BrCCC(C#N)(C1=CC=CC=C1)C1=CC=CC=C1", 
	 "Tm": 341.15, 
	 "num_atms": 32, 
	 "gaussian": { 
		 "optdone": 1, 
		 "sigma_profile": "yes", 
		 "theory": "DFT", 
		 "functional": "B3LYP", 
		 "basiset": "6-31G**", 
		 "properties": { 
			 "R2extent": 7348.7574, 
			 "electric_dipole_moment_norm": 3.48108171981, 
			 "electric_quadrupole_moment_norm": 17.2602747145, 
			 "total_energy": -3244.27433711, 
			 "HOMO_LUMO_gap": 0.21986, 
			 "cosmo_polarized_energy": -12.97, 
			 "cosmo_cavitation_energy": 37.28, 
			 "cosmo_dispersion_energy": -25.23, 
			 "cosmo_repulsion_energy": 1.97, 
			 "cosmo_total_nonelectrostatic_energy": 14.02, 
			 "SMD_solvation_energy": 5.98 
		},
		"coords": [
			{
				"x": -3.4687129727,
				"y": 3.1046422606,
				"z": 1.0843801246,
				"element": "Br" 
			},
			{
				"x": -3.1965900628,
				"y": 1.6494578275,
				"z": 2.401301769,
				"element": "C" 
			},
			{
				"x": -1.8131617844,
				"y": 1.002885403,
				"z": 2.3582449346,
				"element": "C" 
			},
			{
				"x": -1.600268554,
				"y": -0.1582257318,
				"z": 1.3312502446,
				"element": "C" 
			},
			{
				"x": -2.6622309874,
				"y": -1.1524059857,
				"z": 1.5993227057,
				"element": "C" 
			},
			{
				"x": -3.5088951334,
				"y": -1.9098147614,
				"z": 1.8407448434,
				"element": "N" 
			},
			{
				"x": -1.6842732802,
				"y": 0.3419732804,
				"z": -0.129912097,
				"element": "C" 
			},
			{
				"x": -2.7490524304,
				"y": 0.0148970837,
				"z": -0.9742542051,
				"element": "C" 
			},
			{
				"x": -2.7895715692,
				"y": 0.502345645,
				"z": -2.283115224,
				"element": "C" 
			},
			{
				"x": -1.7683795062,
				"y": 1.3205670593,
				"z": -2.7614129881,
				"element": "C" 
			},
			{
				"x": -0.6978585858,
				"y": 1.6451005908,
				"z": -1.9241728644,
				"element": "C" 
			},
			{
				"x": -0.6539611917,
				"y": 1.155607464,
				"z": -0.621425097,
				"element": "C" 
			},
			{
				"x": -0.2433491043,
				"y": -0.8789279799,
				"z": 1.5517701194,
				"element": "C" 
			},
			{
				"x": 0.0046206758,
				"y": -2.0648155589,
				"z": 0.8434528541,
				"element": "C" 
			},
			{
				"x": 1.2117776684,
				"y": -2.7427807868,
				"z": 0.9859143167,
				"element": "C" 
			},
			{
				"x": 2.2015573693,
				"y": -2.2439884073,
				"z": 1.8372273552,
				"element": "C" 
			},
			{
				"x": 1.9674027664,
				"y": -1.0656876296,
				"z": 2.5414472317,
				"element": "C" 
			},
			{
				"x": 0.7517639621,
				"y": -0.3875021641,
				"z": 2.4029337215,
				"element": "C" 
			},
			{
				"x": -4.0022200542,
				"y": 0.9363874346,
				"z": 2.2292577367,
				"element": "H" 
			},
			{
				"x": -3.3521851724,
				"y": 2.1343684697,
				"z": 3.3635543241,
				"element": "H" 
			},
			{
				"x": -1.054955861,
				"y": 1.7711606067,
				"z": 2.1881094704,
				"element": "H" 
			},
			{
				"x": -1.6350063089,
				"y": 0.5861666955,
				"z": 3.3570393625,
				"element": "H" 
			},
			{
				"x": -3.5534290527,
				"y": -0.6191068977,
				"z": -0.6154249899,
				"element": "H" 
			},
			{
				"x": -3.625229958,
				"y": 0.2391219548,
				"z": -2.9249723106,
				"element": "H" 
			},
			{
				"x": -1.8009715135,
				"y": 1.6995698083,
				"z": -3.7786591637,
				"element": "H" 
			},
			{
				"x": 0.1076210313,
				"y": 2.2766207447,
				"z": -2.2877163281,
				"element": "H" 
			},
			{
				"x": 0.1927190891,
				"y": 1.3995517522,
				"z": 0.0134784447,
				"element": "H" 
			},
			{
				"x": -0.7564709985,
				"y": -2.4576528761,
				"z": 0.1755388842,
				"element": "H" 
			},
			{
				"x": 1.380025687,
				"y": -3.6614227807,
				"z": 0.4316223401,
				"element": "H" 
			},
			{
				"x": 3.1444524727,
				"y": -2.7710086683,
				"z": 1.9489293893,
				"element": "H" 
			},
			{
				"x": 2.7275042315,
				"y": -0.6662395593,
				"z": 3.2066112117,
				"element": "H" 
			},
			{
				"x": 0.6010291282,
				"y": 0.5245557066,
				"z": 2.9685338838,
				"element": "H" 
			}
		],
		 "valence_orbital": [ 
			{
				"type": "occ",
				"energy": -0.27248,
				"method": "rhf"
			},
			{
				"type": "occ",
				"energy": -0.26274,
				"method": "rhf"
			},
			{
				"type": "occ",
				"energy": -0.26196,
				"method": "rhf"
			},
			{
				"type": "occ",
				"energy": -0.25314,
				"method": "rhf"
			},
			{
				"type": "occ",
				"energy": -0.24227,
				"method": "rhf"
			},
			{
				"type": "unocc",
				"energy": -0.02241,
				"method": "rhf"
			},
			{
				"type": "unocc",
				"energy": -0.01726,
				"method": "rhf"
			},
			{
				"type": "unocc",
				"energy": -0.01235,
				"method": "rhf"
			},
			{
				"type": "unocc",
				"energy": -0.00208,
				"method": "rhf"
			},
			{
				"type": "unocc",
				"energy": 0.00112,
				"method": "rhf"
			}
		],
		"cosmo_sigma_profile": { 
			"-0.025": 0.0,
			"-0.024": 0.0,
			"-0.023": 0.0,
			"-0.022": 0.0,
			"-0.021": 0.0,
			"-0.02": 0.0,
			"-0.019": 0.0,
			"-0.018": 0.0,
			"-0.017": 0.0,
			"-0.016": 0.0,
			"-0.015": 0.0,
			"-0.014": 0.0,
			"-0.013": 0.0,
			"-0.012": 0.0,
			"-0.011": 0.0,
			"-0.01": 0.0,
			"-0.009": 0.00105696351313,
			"-0.008": 1.84813294071,
			"-0.007": 11.1023663164,
			"-0.006": 22.3794353805,
			"-0.005": 28.9749661379,
			"-0.004": 29.4670009512,
			"-0.003": 20.6233094994,
			"-0.002": 17.7372615545,
			"-0.001": 17.438533402,
			"0.0": 14.8801246606,
			"0.001": 17.3763022865,
			"0.002": 17.0850630994,
			"0.003": 19.4744845075,
			"0.004": 23.3263678409,
			"0.005": 21.8533231634,
			"0.006": 14.4996748211,
			"0.007": 7.93689791735,
			"0.008": 3.1121970891,
			"0.009": 2.81206663481,
			"0.01": 2.76825301715,
			"0.011": 2.68642512782,
			"0.012": 2.35038576069,
			"0.013": 1.13660343456,
			"0.014": 0.0,
			"0.015": 0.0,
			"0.016": 0.0,
			"0.017": 0.0,
			"0.018": 0.0,
			"0.019": 0.0,
			"0.02": 0.0,
			"0.021": 0.0,
			"0.022": 0.0,
			"0.023": 0.0,
			"0.024": 0.0,
			"0.025": 0.0
		}
	}
}
