{
	 "smiles": "ClC1=C(C=O)C(=CC=C1)N1CCCC1", 
	 "Tm": 343.15, 
	 "num_atms": 26, 
	 "gaussian": { 
		 "optdone": 1, 
		 "sigma_profile": "yes", 
		 "theory": "DFT", 
		 "functional": "B3LYP", 
		 "basiset": "6-31G**", 
		 "properties": { 
			 "R2extent": 3590.9304, 
			 "electric_dipole_moment_norm": 5.57914573031, 
			 "electric_quadrupole_moment_norm": 11.7818654537, 
			 "total_energy": -1016.54678618, 
			 "HOMO_LUMO_gap": 0.15835, 
			 "cosmo_polarized_energy": -10.35, 
			 "cosmo_cavitation_energy": 29.73, 
			 "cosmo_dispersion_energy": -21.93, 
			 "cosmo_repulsion_energy": 1.72, 
			 "cosmo_total_nonelectrostatic_energy": 9.52, 
			 "SMD_solvation_energy": 4.52 
		},
		"coords": [
			{
				"x": 1.9683725834,
				"y": -2.9647880602,
				"z": 2.119827359,
				"element": "Cl" 
			},
			{
				"x": 0.6174629348,
				"y": -2.0419748486,
				"z": 1.4904872453,
				"element": "C" 
			},
			{
				"x": 0.7727152695,
				"y": -1.1360641275,
				"z": 0.4240796421,
				"element": "C" 
			},
			{
				"x": 2.0134911763,
				"y": -1.0327792867,
				"z": -0.3898309701,
				"element": "C" 
			},
			{
				"x": 3.1458145172,
				"y": -1.2907222796,
				"z": -0.0303359186,
				"element": "O" 
			},
			{
				"x": -0.3707743307,
				"y": -0.3992729794,
				"z": -0.0088912394,
				"element": "C" 
			},
			{
				"x": -1.6251007639,
				"y": -0.6710482366,
				"z": 0.5593788021,
				"element": "C" 
			},
			{
				"x": -1.744258556,
				"y": -1.6118969684,
				"z": 1.5785225088,
				"element": "C" 
			},
			{
				"x": -0.6280752399,
				"y": -2.2872904052,
				"z": 2.0666246823,
				"element": "C" 
			},
			{
				"x": -0.2107748499,
				"y": 0.5717734143,
				"z": -1.0114279956,
				"element": "N" 
			},
			{
				"x": -1.3870225844,
				"y": 1.106235792,
				"z": -1.7009399842,
				"element": "C" 
			},
			{
				"x": -0.7775132861,
				"y": 2.0828164392,
				"z": -2.7183235474,
				"element": "C" 
			},
			{
				"x": 0.5224370715,
				"y": 2.5918973273,
				"z": -2.0347506423,
				"element": "C" 
			},
			{
				"x": 0.6597940541,
				"y": 1.7400894643,
				"z": -0.7554462773,
				"element": "C" 
			},
			{
				"x": 1.8070072702,
				"y": -0.7100559549,
				"z": -1.43080302,
				"element": "H" 
			},
			{
				"x": -2.5031584672,
				"y": -0.1323427509,
				"z": 0.2250036428,
				"element": "H" 
			},
			{
				"x": -2.7190003945,
				"y": -1.8062521796,
				"z": 2.0167801905,
				"element": "H" 
			},
			{
				"x": -0.7139974277,
				"y": -3.0034407663,
				"z": 2.87525706,
				"element": "H" 
			},
			{
				"x": -1.9625603328,
				"y": 0.297762495,
				"z": -2.1607995397,
				"element": "H" 
			},
			{
				"x": -2.0559522227,
				"y": 1.6502083563,
				"z": -1.0099943272,
				"element": "H" 
			},
			{
				"x": -1.4707176047,
				"y": 2.8905617926,
				"z": -2.9673875946,
				"element": "H" 
			},
			{
				"x": -0.5377272714,
				"y": 1.5548014618,
				"z": -3.645210456,
				"element": "H" 
			},
			{
				"x": 1.3852726418,
				"y": 2.4526269623,
				"z": -2.6911764889,
				"element": "H" 
			},
			{
				"x": 0.4711451935,
				"y": 3.6553183749,
				"z": -1.7867696884,
				"element": "H" 
			},
			{
				"x": 1.6890019954,
				"y": 1.4393781297,
				"z": -0.5533076408,
				"element": "H" 
			},
			{
				"x": 0.2968186239,
				"y": 2.2956588343,
				"z": 0.1252341978,
				"element": "H" 
			}
		],
		 "valence_orbital": [ 
			{
				"type": "occ",
				"energy": -0.30746,
				"method": "rhf"
			},
			{
				"type": "occ",
				"energy": -0.28574,
				"method": "rhf"
			},
			{
				"type": "occ",
				"energy": -0.25226,
				"method": "rhf"
			},
			{
				"type": "occ",
				"energy": -0.24229,
				"method": "rhf"
			},
			{
				"type": "occ",
				"energy": -0.2171,
				"method": "rhf"
			},
			{
				"type": "unocc",
				"energy": -0.05875,
				"method": "rhf"
			},
			{
				"type": "unocc",
				"energy": -0.01187,
				"method": "rhf"
			},
			{
				"type": "unocc",
				"energy": 0.02842,
				"method": "rhf"
			},
			{
				"type": "unocc",
				"energy": 0.03789,
				"method": "rhf"
			},
			{
				"type": "unocc",
				"energy": 0.07263,
				"method": "rhf"
			}
		],
		"cosmo_sigma_profile": { 
			"-0.025": 0.0,
			"-0.024": 0.0,
			"-0.023": 0.0,
			"-0.022": 0.0,
			"-0.021": 0.0,
			"-0.02": 0.0,
			"-0.019": 0.0,
			"-0.018": 0.0,
			"-0.017": 0.0,
			"-0.016": 0.0,
			"-0.015": 0.0,
			"-0.014": 0.0,
			"-0.013": 0.0,
			"-0.012": 0.0,
			"-0.011": 0.0,
			"-0.01": 0.0,
			"-0.009": 0.0,
			"-0.008": 0.164466141976,
			"-0.007": 3.85434873552,
			"-0.006": 6.84861258454,
			"-0.005": 11.48734068,
			"-0.004": 19.9237331177,
			"-0.003": 33.6697775329,
			"-0.002": 30.7521763916,
			"-0.001": 22.3948650927,
			"0.0": 17.422423571,
			"0.001": 18.1759681994,
			"0.002": 18.0268856268,
			"0.003": 14.4524802901,
			"0.004": 11.7955114654,
			"0.005": 6.384552816,
			"0.006": 2.6805818837,
			"0.007": 2.58535479344,
			"0.008": 2.06045399601,
			"0.009": 2.29312070607,
			"0.01": 2.1661144976,
			"0.011": 4.3209192681,
			"0.012": 4.51158237869,
			"0.013": 1.57393629383,
			"0.014": 0.00764439381772,
			"0.015": 0.0,
			"0.016": 0.0,
			"0.017": 0.0,
			"0.018": 0.0,
			"0.019": 0.0,
			"0.02": 0.0,
			"0.021": 0.0,
			"0.022": 0.0,
			"0.023": 0.0,
			"0.024": 0.0,
			"0.025": 0.0
		}
	}
}
