{
	 "smiles": "CCOC(=O)C1=NOC(C)=N1", 
	 "Tm": 306.15, 
	 "num_atms": 19, 
	 "gaussian": { 
		 "optdone": 1, 
		 "sigma_profile": "yes", 
		 "theory": "DFT", 
		 "functional": "B3LYP", 
		 "basiset": "6-31G**", 
		 "properties": { 
			 "R2extent": 2972.654, 
			 "electric_dipole_moment_norm": 1.19617014258, 
			 "electric_quadrupole_moment_norm": 22.1859548474, 
			 "total_energy": -568.601843661, 
			 "HOMO_LUMO_gap": 0.22733, 
			 "cosmo_polarized_energy": -12.02, 
			 "cosmo_cavitation_energy": 24.42, 
			 "cosmo_dispersion_energy": -17.94, 
			 "cosmo_repulsion_energy": 1.48, 
			 "cosmo_total_nonelectrostatic_energy": 7.96, 
			 "SMD_solvation_energy": 4.04 
		},
		"coords": [
			{
				"x": 0.6452977285,
				"y": -2.0154208274,
				"z": 3.052076075,
				"element": "C" 
			},
			{
				"x": 1.4910716511,
				"y": -1.0583492439,
				"z": 2.2263428368,
				"element": "C" 
			},
			{
				"x": 1.4012122303,
				"y": -1.3653178995,
				"z": 0.8112892415,
				"element": "O" 
			},
			{
				"x": 0.3664388952,
				"y": -0.825404186,
				"z": 0.1498426417,
				"element": "C" 
			},
			{
				"x": -0.4843085981,
				"y": -0.1087540734,
				"z": 0.6263419414,
				"element": "O" 
			},
			{
				"x": 0.3848524442,
				"y": -1.2172089469,
				"z": -1.2950022204,
				"element": "C" 
			},
			{
				"x": 1.3051529248,
				"y": -1.9963592849,
				"z": -1.8139500244,
				"element": "N" 
			},
			{
				"x": 0.920607805,
				"y": -2.081691558,
				"z": -3.1530493544,
				"element": "O" 
			},
			{
				"x": -0.198443172,
				"y": -1.3351544503,
				"z": -3.2899996035,
				"element": "C" 
			},
			{
				"x": -0.8252085419,
				"y": -1.2511531529,
				"z": -4.6354976552,
				"element": "C" 
			},
			{
				"x": -0.5753562831,
				"y": -0.7790035925,
				"z": -2.1772965379,
				"element": "N" 
			},
			{
				"x": -0.4157940937,
				"y": -1.8880871191,
				"z": 2.8241767187,
				"element": "H" 
			},
			{
				"x": 0.9293688667,
				"y": -3.0533538074,
				"z": 2.8566641566,
				"element": "H" 
			},
			{
				"x": 0.7935793144,
				"y": -1.8122993777,
				"z": 4.1178400847,
				"element": "H" 
			},
			{
				"x": 2.5542393508,
				"y": -1.1614510088,
				"z": 2.4532237292,
				"element": "H" 
			},
			{
				"x": 1.1832124241,
				"y": -0.0215257618,
				"z": 2.3807871167,
				"element": "H" 
			},
			{
				"x": -0.1236127466,
				"y": -0.8292082638,
				"z": -5.3615156985,
				"element": "H" 
			},
			{
				"x": -1.1134134881,
				"y": -2.2458085815,
				"z": -4.9890176565,
				"element": "H" 
			},
			{
				"x": -1.7098967117,
				"y": -0.6174488642,
				"z": -4.5765557913,
				"element": "H" 
			}
		],
		 "valence_orbital": [ 
			{
				"type": "occ",
				"energy": -0.3381,
				"method": "rhf"
			},
			{
				"type": "occ",
				"energy": -0.30684,
				"method": "rhf"
			},
			{
				"type": "occ",
				"energy": -0.30542,
				"method": "rhf"
			},
			{
				"type": "occ",
				"energy": -0.29553,
				"method": "rhf"
			},
			{
				"type": "occ",
				"energy": -0.28556,
				"method": "rhf"
			},
			{
				"type": "unocc",
				"energy": -0.05823,
				"method": "rhf"
			},
			{
				"type": "unocc",
				"energy": -0.00647,
				"method": "rhf"
			},
			{
				"type": "unocc",
				"energy": 0.07943,
				"method": "rhf"
			},
			{
				"type": "unocc",
				"energy": 0.09668,
				"method": "rhf"
			},
			{
				"type": "unocc",
				"energy": 0.10584,
				"method": "rhf"
			}
		],
		"cosmo_sigma_profile": { 
			"-0.025": 0.0,
			"-0.024": 0.0,
			"-0.023": 0.0,
			"-0.022": 0.0,
			"-0.021": 0.0,
			"-0.02": 0.0,
			"-0.019": 0.0,
			"-0.018": 0.0,
			"-0.017": 0.0,
			"-0.016": 0.0,
			"-0.015": 0.0,
			"-0.014": 0.0,
			"-0.013": 0.0,
			"-0.012": 0.0,
			"-0.011": 0.0,
			"-0.01": 0.0,
			"-0.009": 0.0,
			"-0.008": 2.40245144638,
			"-0.007": 7.87037298514,
			"-0.006": 12.1027205092,
			"-0.005": 18.2360682975,
			"-0.004": 25.7911832515,
			"-0.003": 21.6363104742,
			"-0.002": 14.7742156226,
			"-0.001": 12.6301729393,
			"0.0": 11.2657898441,
			"0.001": 6.28330006945,
			"0.002": 5.39053039642,
			"0.003": 5.09076276866,
			"0.004": 5.27221548286,
			"0.005": 7.8588084518,
			"0.006": 5.92246533941,
			"0.007": 3.48541769444,
			"0.008": 4.03880137284,
			"0.009": 5.21860526467,
			"0.01": 6.39383522352,
			"0.011": 6.11023129916,
			"0.012": 3.26949746424,
			"0.013": 1.95133331669,
			"0.014": 1.30084235039,
			"0.015": 0.117455689579,
			"0.016": 0.0,
			"0.017": 0.0,
			"0.018": 0.0,
			"0.019": 0.0,
			"0.02": 0.0,
			"0.021": 0.0,
			"0.022": 0.0,
			"0.023": 0.0,
			"0.024": 0.0,
			"0.025": 0.0
		}
	}
}
