{
	 "smiles": "CCCCCC(O)CCCCC", 
	 "Tm": 298.15, 
	 "num_atms": 36, 
	 "gaussian": { 
		 "optdone": 1, 
		 "sigma_profile": "yes", 
		 "theory": "DFT", 
		 "functional": "B3LYP", 
		 "basiset": "6-31G**", 
		 "properties": { 
			 "R2extent": 3420.9995, 
			 "electric_dipole_moment_norm": 1.37492436883, 
			 "electric_quadrupole_moment_norm": 5.39557815808, 
			 "total_energy": -508.880966531, 
			 "HOMO_LUMO_gap": 0.32767, 
			 "cosmo_polarized_energy": -5.52, 
			 "cosmo_cavitation_energy": 35.28, 
			 "cosmo_dispersion_energy": -23.73, 
			 "cosmo_repulsion_energy": 1.96, 
			 "cosmo_total_nonelectrostatic_energy": 13.51, 
			 "SMD_solvation_energy": 5.1 
		},
		"coords": [
			{
				"x": -2.170026413,
				"y": 2.1988520522,
				"z": 2.4157194063,
				"element": "C" 
			},
			{
				"x": -1.1338816736,
				"y": 1.4549791101,
				"z": 3.2692553768,
				"element": "C" 
			},
			{
				"x": -1.3310534464,
				"y": -0.0730938893,
				"z": 3.3706465192,
				"element": "C" 
			},
			{
				"x": -0.6749083786,
				"y": -0.9245034842,
				"z": 2.2676839761,
				"element": "C" 
			},
			{
				"x": -1.2397865794,
				"y": -0.7392203778,
				"z": 0.8527052905,
				"element": "C" 
			},
			{
				"x": -0.7659667349,
				"y": -1.7963509383,
				"z": -0.150184304,
				"element": "C" 
			},
			{
				"x": -1.5072012835,
				"y": -1.5501038845,
				"z": -1.3505078813,
				"element": "O" 
			},
			{
				"x": 0.7553221649,
				"y": -1.8345772114,
				"z": -0.3945195214,
				"element": "C" 
			},
			{
				"x": 1.4382123301,
				"y": -0.535120569,
				"z": -0.8588144122,
				"element": "C" 
			},
			{
				"x": 1.1023850692,
				"y": -0.0947811843,
				"z": -2.2930302013,
				"element": "C" 
			},
			{
				"x": 1.9003275884,
				"y": 1.126558732,
				"z": -2.7785222148,
				"element": "C" 
			},
			{
				"x": 1.5742191477,
				"y": 2.4312232857,
				"z": -2.0409376248,
				"element": "C" 
			},
			{
				"x": -3.1825102361,
				"y": 2.0327800717,
				"z": 2.8015700687,
				"element": "H" 
			},
			{
				"x": -1.9850382123,
				"y": 3.2784948191,
				"z": 2.4295674083,
				"element": "H" 
			},
			{
				"x": -2.1609095472,
				"y": 1.8762097168,
				"z": 1.3712015875,
				"element": "H" 
			},
			{
				"x": -0.1226668246,
				"y": 1.6655342593,
				"z": 2.8938352928,
				"element": "H" 
			},
			{
				"x": -1.1663967565,
				"y": 1.8758175309,
				"z": 4.2822815097,
				"element": "H" 
			},
			{
				"x": -0.9158208721,
				"y": -0.4114526572,
				"z": 4.3285265745,
				"element": "H" 
			},
			{
				"x": -2.4061877745,
				"y": -0.2982726064,
				"z": 3.4149765938,
				"element": "H" 
			},
			{
				"x": -0.7799623594,
				"y": -1.981671872,
				"z": 2.550815708,
				"element": "H" 
			},
			{
				"x": 0.4046306105,
				"y": -0.7206215673,
				"z": 2.2664271906,
				"element": "H" 
			},
			{
				"x": -2.335035123,
				"y": -0.7940277522,
				"z": 0.8794655835,
				"element": "H" 
			},
			{
				"x": -0.9921673962,
				"y": 0.2525416439,
				"z": 0.4597747115,
				"element": "H" 
			},
			{
				"x": -1.0475557261,
				"y": -2.7861486655,
				"z": 0.2525546103,
				"element": "H" 
			},
			{
				"x": -1.2018657755,
				"y": -2.175693059,
				"z": -2.0202831826,
				"element": "H" 
			},
			{
				"x": 1.2300942005,
				"y": -2.1738724803,
				"z": 0.535138345,
				"element": "H" 
			},
			{
				"x": 0.9587002451,
				"y": -2.6295865136,
				"z": -1.1290742672,
				"element": "H" 
			},
			{
				"x": 1.2031201378,
				"y": 0.2716244546,
				"z": -0.1541034009,
				"element": "H" 
			},
			{
				"x": 2.5249816523,
				"y": -0.6833185203,
				"z": -0.7862840837,
				"element": "H" 
			},
			{
				"x": 1.3062219981,
				"y": -0.937091029,
				"z": -2.9705491791,
				"element": "H" 
			},
			{
				"x": 0.0284727212,
				"y": 0.1056051465,
				"z": -2.3719569696,
				"element": "H" 
			},
			{
				"x": 1.7062627706,
				"y": 1.26800272,
				"z": -3.8495812744,
				"element": "H" 
			},
			{
				"x": 2.9758072045,
				"y": 0.9166484471,
				"z": -2.6912837847,
				"element": "H" 
			},
			{
				"x": 2.1302491523,
				"y": 3.2740249066,
				"z": -2.4650550748,
				"element": "H" 
			},
			{
				"x": 1.8283883952,
				"y": 2.3750192414,
				"z": -0.9773564077,
				"element": "H" 
			},
			{
				"x": 0.5061457243,
				"y": 2.6671921235,
				"z": -2.1137019686,
				"element": "H" 
			}
		],
		 "valence_orbital": [ 
			{
				"type": "occ",
				"energy": -0.3139,
				"method": "rhf"
			},
			{
				"type": "occ",
				"energy": -0.3098,
				"method": "rhf"
			},
			{
				"type": "occ",
				"energy": -0.30638,
				"method": "rhf"
			},
			{
				"type": "occ",
				"energy": -0.29496,
				"method": "rhf"
			},
			{
				"type": "occ",
				"energy": -0.25509,
				"method": "rhf"
			},
			{
				"type": "unocc",
				"energy": 0.07258,
				"method": "rhf"
			},
			{
				"type": "unocc",
				"energy": 0.07908,
				"method": "rhf"
			},
			{
				"type": "unocc",
				"energy": 0.09828,
				"method": "rhf"
			},
			{
				"type": "unocc",
				"energy": 0.1097,
				"method": "rhf"
			},
			{
				"type": "unocc",
				"energy": 0.11517,
				"method": "rhf"
			}
		],
		"cosmo_sigma_profile": { 
			"-0.025": 0.0,
			"-0.024": 0.0,
			"-0.023": 0.0,
			"-0.022": 0.0,
			"-0.021": 0.0,
			"-0.02": 0.0,
			"-0.019": 0.0,
			"-0.018": 0.0,
			"-0.017": 0.0,
			"-0.016": 0.0,
			"-0.015": 0.0611395342728,
			"-0.014": 0.641597028321,
			"-0.013": 0.966290208596,
			"-0.012": 0.775419375339,
			"-0.011": 0.662647551787,
			"-0.01": 0.987522907946,
			"-0.009": 0.991686076607,
			"-0.008": 1.05962855876,
			"-0.007": 1.20142794392,
			"-0.006": 1.08935395128,
			"-0.005": 1.3570853254,
			"-0.004": 1.45264812972,
			"-0.003": 6.18455373794,
			"-0.002": 41.7331808234,
			"-0.001": 57.7886573698,
			"0.0": 58.3266373547,
			"0.001": 52.0664273347,
			"0.002": 22.9083212765,
			"0.003": 3.16481404072,
			"0.004": 1.66010608572,
			"0.005": 1.52661659344,
			"0.006": 1.09348369293,
			"0.007": 1.86660379441,
			"0.008": 1.28867040407,
			"0.009": 1.21335145278,
			"0.01": 1.16455639816,
			"0.011": 0.9702793958,
			"0.012": 1.04099539274,
			"0.013": 1.64713764676,
			"0.014": 1.25709544493,
			"0.015": 1.16194000887,
			"0.016": 0.00250762568504,
			"0.017": 0.0,
			"0.018": 0.0,
			"0.019": 0.0,
			"0.02": 0.0,
			"0.021": 0.0,
			"0.022": 0.0,
			"0.023": 0.0,
			"0.024": 0.0,
			"0.025": 0.0
		}
	}
}
