{
	 "smiles": "CN1CCN(CC1)S(=O)(=O)C1=CC(Br)=CC=C1", 
	 "Tm": 377.15, 
	 "num_atms": 32, 
	 "gaussian": { 
		 "optdone": 1, 
		 "sigma_profile": "yes", 
		 "theory": "DFT", 
		 "functional": "B3LYP", 
		 "basiset": "6-31G**", 
		 "properties": { 
			 "R2extent": 8559.2993, 
			 "electric_dipole_moment_norm": 5.1494290266, 
			 "electric_quadrupole_moment_norm": 16.1031090911, 
			 "total_energy": -3657.65946834, 
			 "HOMO_LUMO_gap": 0.16942, 
			 "cosmo_polarized_energy": -14.51, 
			 "cosmo_cavitation_energy": 37.23, 
			 "cosmo_dispersion_energy": -26.69, 
			 "cosmo_repulsion_energy": 2.04, 
			 "cosmo_total_nonelectrostatic_energy": 12.58, 
			 "SMD_solvation_energy": 0.52 
		},
		"coords": [
			{
				"x": 2.1674762275,
				"y": 2.0932388371,
				"z": 1.7287965041,
				"element": "C" 
			},
			{
				"x": 1.3814166416,
				"y": 1.9714206337,
				"z": 0.5108401481,
				"element": "N" 
			},
			{
				"x": 2.0406744318,
				"y": 1.2150590007,
				"z": -0.5663358594,
				"element": "C" 
			},
			{
				"x": 1.5355006474,
				"y": -0.2251744002,
				"z": -0.7076987462,
				"element": "C" 
			},
			{
				"x": 0.0942864287,
				"y": -0.169940448,
				"z": -1.0213288077,
				"element": "N" 
			},
			{
				"x": -0.6505966498,
				"y": 0.9857711105,
				"z": -0.476009811,
				"element": "C" 
			},
			{
				"x": 0.0206628958,
				"y": 1.5050259185,
				"z": 0.792531469,
				"element": "C" 
			},
			{
				"x": -0.7022470039,
				"y": -1.6133889898,
				"z": -1.2897906578,
				"element": "S" 
			},
			{
				"x": 0.1969815947,
				"y": -2.4317254525,
				"z": -2.104923313,
				"element": "O" 
			},
			{
				"x": -2.0617731584,
				"y": -1.2694831863,
				"z": -1.7114789563,
				"element": "O" 
			},
			{
				"x": -0.8466949394,
				"y": -2.438532972,
				"z": 0.3092478041,
				"element": "C" 
			},
			{
				"x": 0.194328948,
				"y": -3.2650521229,
				"z": 0.7407207339,
				"element": "C" 
			},
			{
				"x": 0.0900393928,
				"y": -3.8573590122,
				"z": 1.9976937687,
				"element": "C" 
			},
			{
				"x": 1.4969152239,
				"y": -4.9918133269,
				"z": 2.6139487583,
				"element": "Br" 
			},
			{
				"x": -1.0240040644,
				"y": -3.6455801771,
				"z": 2.8100997774,
				"element": "C" 
			},
			{
				"x": -2.0591325836,
				"y": -2.8292777234,
				"z": 2.3498661763,
				"element": "C" 
			},
			{
				"x": -1.9794168352,
				"y": -2.2199515546,
				"z": 1.0977006105,
				"element": "C" 
			},
			{
				"x": 2.3377487751,
				"y": 1.1321802378,
				"z": 2.2524078727,
				"element": "H" 
			},
			{
				"x": 1.6519242196,
				"y": 2.7606952957,
				"z": 2.4280175954,
				"element": "H" 
			},
			{
				"x": 3.141244895,
				"y": 2.5387116316,
				"z": 1.5042666873,
				"element": "H" 
			},
			{
				"x": 1.8911720524,
				"y": 1.7279890562,
				"z": -1.5255031651,
				"element": "H" 
			},
			{
				"x": 3.1188544157,
				"y": 1.1953076838,
				"z": -0.3828212333,
				"element": "H" 
			},
			{
				"x": 2.0520988769,
				"y": -0.7387899931,
				"z": -1.5212072117,
				"element": "H" 
			},
			{
				"x": 1.7251373521,
				"y": -0.7811827907,
				"z": 0.2237951718,
				"element": "H" 
			},
			{
				"x": -1.6816901696,
				"y": 0.6906103247,
				"z": -0.2767664763,
				"element": "H" 
			},
			{
				"x": -0.6851746865,
				"y": 1.7770761512,
				"z": -1.2340791719,
				"element": "H" 
			},
			{
				"x": 0.0079777942,
				"y": 0.6980439073,
				"z": 1.5507735999,
				"element": "H" 
			},
			{
				"x": -0.5683540704,
				"y": 2.3347788563,
				"z": 1.204768703,
				"element": "H" 
			},
			{
				"x": 1.0426011266,
				"y": -3.4598831753,
				"z": 0.0963020282,
				"element": "H" 
			},
			{
				"x": -1.0847287621,
				"y": -4.1215730902,
				"z": 3.7820531847,
				"element": "H" 
			},
			{
				"x": -2.9364311538,
				"y": -2.6775612821,
				"z": 2.9712968406,
				"element": "H" 
			},
			{
				"x": -2.7905978627,
				"y": -1.6100389478,
				"z": 0.7169159756,
				"element": "H" 
			}
		],
		 "valence_orbital": [ 
			{
				"type": "occ",
				"energy": -0.29809,
				"method": "rhf"
			},
			{
				"type": "occ",
				"energy": -0.28521,
				"method": "rhf"
			},
			{
				"type": "occ",
				"energy": -0.26266,
				"method": "rhf"
			},
			{
				"type": "occ",
				"energy": -0.25035,
				"method": "rhf"
			},
			{
				"type": "occ",
				"energy": -0.21712,
				"method": "rhf"
			},
			{
				"type": "unocc",
				"energy": -0.0477,
				"method": "rhf"
			},
			{
				"type": "unocc",
				"energy": -0.03457,
				"method": "rhf"
			},
			{
				"type": "unocc",
				"energy": -0.00806,
				"method": "rhf"
			},
			{
				"type": "unocc",
				"energy": 0.0584,
				"method": "rhf"
			},
			{
				"type": "unocc",
				"energy": 0.07054,
				"method": "rhf"
			}
		],
		"cosmo_sigma_profile": { 
			"-0.025": 0.0,
			"-0.024": 0.0,
			"-0.023": 0.0,
			"-0.022": 0.0,
			"-0.021": 0.0,
			"-0.02": 0.0,
			"-0.019": 0.0,
			"-0.018": 0.0,
			"-0.017": 0.0,
			"-0.016": 0.0,
			"-0.015": 0.0,
			"-0.014": 0.0,
			"-0.013": 0.0,
			"-0.012": 0.0,
			"-0.011": 0.0,
			"-0.01": 0.0,
			"-0.009": 0.0198811878713,
			"-0.008": 2.73511114703,
			"-0.007": 7.4417991615,
			"-0.006": 11.1648211941,
			"-0.005": 19.2229252309,
			"-0.004": 32.3279363604,
			"-0.003": 32.3041430831,
			"-0.002": 29.3545776691,
			"-0.001": 24.7654485767,
			"0.0": 24.4745080587,
			"0.001": 24.4230642628,
			"0.002": 16.6862359723,
			"0.003": 12.3912831183,
			"0.004": 15.7862480967,
			"0.005": 6.29659317561,
			"0.006": 4.09594561081,
			"0.007": 4.8444766716,
			"0.008": 3.83079176695,
			"0.009": 4.59741683747,
			"0.01": 6.98059253071,
			"0.011": 8.97683037659,
			"0.012": 3.20586906374,
			"0.013": 0.083021533935,
			"0.014": 0.512783390536,
			"0.015": 0.531147916976,
			"0.016": 0.273787050553,
			"0.017": 0.0,
			"0.018": 0.0,
			"0.019": 0.0,
			"0.02": 0.0,
			"0.021": 0.0,
			"0.022": 0.0,
			"0.023": 0.0,
			"0.024": 0.0,
			"0.025": 0.0
		}
	}
}
