{
	 "smiles": "OC(=O)C1=CNC=C1C(O)=O", 
	 "Tm": 585.15, 
	 "num_atms": 16, 
	 "gaussian": { 
		 "optdone": 1, 
		 "sigma_profile": "yes", 
		 "theory": "DFT", 
		 "functional": "B3LYP", 
		 "basiset": "6-31G**", 
		 "properties": { 
			 "R2extent": 2169.6972, 
			 "electric_dipole_moment_norm": 6.41920158976, 
			 "electric_quadrupole_moment_norm": 26.027207068, 
			 "total_energy": -587.307230731, 
			 "HOMO_LUMO_gap": 0.21709, 
			 "cosmo_polarized_energy": -27.08, 
			 "cosmo_cavitation_energy": 21.77, 
			 "cosmo_dispersion_energy": -16.0, 
			 "cosmo_repulsion_energy": 1.31, 
			 "cosmo_total_nonelectrostatic_energy": 7.08, 
			 "SMD_solvation_energy": 6.57 
		},
		"coords": [
			{
				"x": 1.7327173289,
				"y": -0.3020650428,
				"z": -2.177831432,
				"element": "O" 
			},
			{
				"x": 0.4292609618,
				"y": 0.1089382282,
				"z": -2.1287444263,
				"element": "C" 
			},
			{
				"x": 0.0738737606,
				"y": 1.0814823742,
				"z": -2.7434285925,
				"element": "O" 
			},
			{
				"x": -0.4632972502,
				"y": -0.7780001356,
				"z": -1.3329227316,
				"element": "C" 
			},
			{
				"x": -0.4095521441,
				"y": -2.1595911329,
				"z": -1.3817636385,
				"element": "C" 
			},
			{
				"x": -1.4638892909,
				"y": -2.6532688763,
				"z": -0.6536889438,
				"element": "N" 
			},
			{
				"x": -2.1942867559,
				"y": -1.6233129755,
				"z": -0.1346558814,
				"element": "C" 
			},
			{
				"x": -1.6095456013,
				"y": -0.4366012169,
				"z": -0.5329427283,
				"element": "C" 
			},
			{
				"x": -2.1294456824,
				"y": 0.8610208755,
				"z": -0.068901228,
				"element": "C" 
			},
			{
				"x": -1.263639853,
				"y": 1.8795170839,
				"z": -0.2473277355,
				"element": "O" 
			},
			{
				"x": -3.2177056601,
				"y": 1.0044953913,
				"z": 0.4582181769,
				"element": "O" 
			},
			{
				"x": 1.8743660668,
				"y": -0.9804319122,
				"z": -1.5023556956,
				"element": "H" 
			},
			{
				"x": 0.2493654443,
				"y": -2.8158825649,
				"z": -1.9315342175,
				"element": "H" 
			},
			{
				"x": -1.6783630184,
				"y": -3.6314285225,
				"z": -0.5358350189,
				"element": "H" 
			},
			{
				"x": -3.0570878004,
				"y": -1.7800342247,
				"z": 0.4940523752,
				"element": "H" 
			},
			{
				"x": -1.7164705058,
				"y": 2.6773626513,
				"z": 0.0721617178,
				"element": "H" 
			}
		],
		 "valence_orbital": [ 
			{
				"type": "occ",
				"energy": -0.3087,
				"method": "rhf"
			},
			{
				"type": "occ",
				"energy": -0.28083,
				"method": "rhf"
			},
			{
				"type": "occ",
				"energy": -0.27325,
				"method": "rhf"
			},
			{
				"type": "occ",
				"energy": -0.26234,
				"method": "rhf"
			},
			{
				"type": "occ",
				"energy": -0.24841,
				"method": "rhf"
			},
			{
				"type": "unocc",
				"energy": -0.03132,
				"method": "rhf"
			},
			{
				"type": "unocc",
				"energy": -0.01338,
				"method": "rhf"
			},
			{
				"type": "unocc",
				"energy": 0.0478,
				"method": "rhf"
			},
			{
				"type": "unocc",
				"energy": 0.05065,
				"method": "rhf"
			},
			{
				"type": "unocc",
				"energy": 0.07124,
				"method": "rhf"
			}
		],
		"cosmo_sigma_profile": { 
			"-0.025": 0.0,
			"-0.024": 0.0,
			"-0.023": 0.0,
			"-0.022": 0.0,
			"-0.021": 0.0,
			"-0.02": 0.0,
			"-0.019": 0.00836872479778,
			"-0.018": 1.62123299588,
			"-0.017": 4.05046501378,
			"-0.016": 2.54240723428,
			"-0.015": 3.67969842744,
			"-0.014": 2.83839796416,
			"-0.013": 2.08965422072,
			"-0.012": 3.37779039849,
			"-0.011": 3.87173762844,
			"-0.01": 5.93907007393,
			"-0.009": 6.28558206818,
			"-0.008": 4.61613082319,
			"-0.007": 4.08968598564,
			"-0.006": 4.88676373477,
			"-0.005": 2.96967446196,
			"-0.004": 4.55503842059,
			"-0.003": 5.11165382128,
			"-0.002": 4.89995206404,
			"-0.001": 7.05006149732,
			"0.0": 8.24280518293,
			"0.001": 10.3330004601,
			"0.002": 11.7260473721,
			"0.003": 7.57693650325,
			"0.004": 4.91839435566,
			"0.005": 4.84359791575,
			"0.006": 4.63904603534,
			"0.007": 4.2447319056,
			"0.008": 6.00700441094,
			"0.009": 4.86616353613,
			"0.01": 5.98181898713,
			"0.011": 8.79824162869,
			"0.012": 12.1114426276,
			"0.013": 5.1130232512,
			"0.014": 0.106114272646,
			"0.015": 0.0,
			"0.016": 0.0,
			"0.017": 0.0,
			"0.018": 0.0,
			"0.019": 0.0,
			"0.02": 0.0,
			"0.021": 0.0,
			"0.022": 0.0,
			"0.023": 0.0,
			"0.024": 0.0,
			"0.025": 0.0
		}
	}
}
