{
	 "smiles": "NC1=CC=C(OC2=CC=C(Br)C=C2)C=C1", 
	 "Tm": 332.15, 
	 "num_atms": 25, 
	 "gaussian": { 
		 "optdone": 1, 
		 "sigma_profile": "yes", 
		 "theory": "DFT", 
		 "functional": "B3LYP", 
		 "basiset": "6-31G**", 
		 "properties": { 
			 "R2extent": 7865.9294, 
			 "electric_dipole_moment_norm": 4.09491338248, 
			 "electric_quadrupole_moment_norm": 15.5482899584, 
			 "total_energy": -3164.67555306, 
			 "HOMO_LUMO_gap": 0.19167, 
			 "cosmo_polarized_energy": -10.75, 
			 "cosmo_cavitation_energy": 32.09, 
			 "cosmo_dispersion_energy": -23.68, 
			 "cosmo_repulsion_energy": 1.87, 
			 "cosmo_total_nonelectrostatic_energy": 10.28, 
			 "SMD_solvation_energy": 4.41 
		},
		"coords": [
			{
				"x": -3.0047376211,
				"y": 2.8921561951,
				"z": 2.2653002141,
				"element": "N" 
			},
			{
				"x": -2.0345082716,
				"y": 2.4987373038,
				"z": 1.34145694,
				"element": "C" 
			},
			{
				"x": -0.6736390202,
				"y": 2.7714676695,
				"z": 1.5679337101,
				"element": "C" 
			},
			{
				"x": 0.2883584095,
				"y": 2.4332023861,
				"z": 0.6195020114,
				"element": "C" 
			},
			{
				"x": -0.0944326638,
				"y": 1.8161114029,
				"z": -0.5706996265,
				"element": "C" 
			},
			{
				"x": 0.8581611619,
				"y": 1.5498684992,
				"z": -1.5513171111,
				"element": "O" 
			},
			{
				"x": 1.4876461087,
				"y": 0.3288688692,
				"z": -1.5720012705,
				"element": "C" 
			},
			{
				"x": 1.2452498337,
				"y": -0.6955422947,
				"z": -0.6520176233,
				"element": "C" 
			},
			{
				"x": 1.9410239873,
				"y": -1.9015284995,
				"z": -0.7609082037,
				"element": "C" 
			},
			{
				"x": 2.869901078,
				"y": -2.0766565698,
				"z": -1.7823455242,
				"element": "C" 
			},
			{
				"x": 3.8202863474,
				"y": -3.7317911167,
				"z": -1.926437452,
				"element": "Br" 
			},
			{
				"x": 3.1162547882,
				"y": -1.0576612299,
				"z": -2.7036776157,
				"element": "C" 
			},
			{
				"x": 2.4241086907,
				"y": 0.1443863818,
				"z": -2.5968803022,
				"element": "C" 
			},
			{
				"x": -1.4392897701,
				"y": 1.5401274858,
				"z": -0.8144818285,
				"element": "C" 
			},
			{
				"x": -2.4012918554,
				"y": 1.8779880541,
				"z": 0.1339860725,
				"element": "C" 
			},
			{
				"x": -2.6773338176,
				"y": 2.9970997092,
				"z": 3.2156067424,
				"element": "H" 
			},
			{
				"x": -3.8742583952,
				"y": 2.3790025066,
				"z": 2.221777425,
				"element": "H" 
			},
			{
				"x": -0.3712594808,
				"y": 3.2603895204,
				"z": 2.4905237443,
				"element": "H" 
			},
			{
				"x": 1.3373612161,
				"y": 2.6509954566,
				"z": 0.793267122,
				"element": "H" 
			},
			{
				"x": 0.5217059233,
				"y": -0.5570476588,
				"z": 0.1425305572,
				"element": "H" 
			},
			{
				"x": 1.7566041352,
				"y": -2.6990103965,
				"z": -0.0498528421,
				"element": "H" 
			},
			{
				"x": 3.841431866,
				"y": -1.2020032179,
				"z": -3.4965022289,
				"element": "H" 
			},
			{
				"x": 2.5965734604,
				"y": 0.9526002954,
				"z": -3.2998239659,
				"element": "H" 
			},
			{
				"x": -1.7255305926,
				"y": 1.0678680806,
				"z": -1.748879777,
				"element": "H" 
			},
			{
				"x": -3.449385518,
				"y": 1.6685711674,
				"z": -0.0642591672,
				"element": "H" 
			}
		],
		 "valence_orbital": [ 
			{
				"type": "occ",
				"energy": -0.28011,
				"method": "rhf"
			},
			{
				"type": "occ",
				"energy": -0.26093,
				"method": "rhf"
			},
			{
				"type": "occ",
				"energy": -0.25662,
				"method": "rhf"
			},
			{
				"type": "occ",
				"energy": -0.21701,
				"method": "rhf"
			},
			{
				"type": "occ",
				"energy": -0.20703,
				"method": "rhf"
			},
			{
				"type": "unocc",
				"energy": -0.01536,
				"method": "rhf"
			},
			{
				"type": "unocc",
				"energy": -0.00343,
				"method": "rhf"
			},
			{
				"type": "unocc",
				"energy": 0.00466,
				"method": "rhf"
			},
			{
				"type": "unocc",
				"energy": 0.00895,
				"method": "rhf"
			},
			{
				"type": "unocc",
				"energy": 0.01636,
				"method": "rhf"
			}
		],
		"cosmo_sigma_profile": { 
			"-0.025": 0.0,
			"-0.024": 0.0,
			"-0.023": 0.0,
			"-0.022": 0.0,
			"-0.021": 0.0,
			"-0.02": 0.0,
			"-0.019": 0.0,
			"-0.018": 0.0,
			"-0.017": 0.0,
			"-0.016": 0.0,
			"-0.015": 0.0,
			"-0.014": 0.0,
			"-0.013": 0.46954178017,
			"-0.012": 2.38469950431,
			"-0.011": 3.23494939924,
			"-0.01": 2.44643584591,
			"-0.009": 3.36905929518,
			"-0.008": 3.51610362509,
			"-0.007": 7.55391464481,
			"-0.006": 14.7463807512,
			"-0.005": 14.3959858332,
			"-0.004": 14.6126222833,
			"-0.003": 15.2250838966,
			"-0.002": 12.8010490371,
			"-0.001": 14.6260070219,
			"0.0": 15.3551097722,
			"0.001": 18.3536583419,
			"0.002": 21.2135645219,
			"0.003": 28.2616322101,
			"0.004": 29.1998688689,
			"0.005": 21.3788578781,
			"0.006": 6.25330263855,
			"0.007": 2.78298993621,
			"0.008": 1.74968010758,
			"0.009": 2.29397859583,
			"0.01": 1.07824680088,
			"0.011": 0.723916910325,
			"0.012": 0.680145648431,
			"0.013": 0.718608086339,
			"0.014": 0.579776581227,
			"0.015": 0.117051105571,
			"0.016": 0.0,
			"0.017": 0.0,
			"0.018": 0.0,
			"0.019": 0.0,
			"0.02": 0.0,
			"0.021": 0.0,
			"0.022": 0.0,
			"0.023": 0.0,
			"0.024": 0.0,
			"0.025": 0.0
		}
	}
}
