{
	 "smiles": "NC1=NN(C=N1)C1CCCCC1", 
	 "Tm": 403.15, 
	 "num_atms": 26, 
	 "gaussian": { 
		 "optdone": 1, 
		 "sigma_profile": "yes", 
		 "theory": "DFT", 
		 "functional": "B3LYP", 
		 "basiset": "6-31G**", 
		 "properties": { 
			 "R2extent": 2626.7545, 
			 "electric_dipole_moment_norm": 2.34299296841, 
			 "electric_quadrupole_moment_norm": 10.4386145331, 
			 "total_energy": -532.297292117, 
			 "HOMO_LUMO_gap": 0.22948, 
			 "cosmo_polarized_energy": -12.33, 
			 "cosmo_cavitation_energy": 27.33, 
			 "cosmo_dispersion_energy": -20.28, 
			 "cosmo_repulsion_energy": 1.64, 
			 "cosmo_total_nonelectrostatic_energy": 8.69, 
			 "SMD_solvation_energy": 1.81 
		},
		"coords": [
			{
				"x": -0.0204468185,
				"y": 0.3507055048,
				"z": 4.2681928158,
				"element": "N" 
			},
			{
				"x": 0.5549758773,
				"y": 0.0223421222,
				"z": 3.0540137327,
				"element": "C" 
			},
			{
				"x": -0.1633041844,
				"y": -0.2439716232,
				"z": 1.9650410239,
				"element": "N" 
			},
			{
				"x": 0.8091833414,
				"y": -0.5720608087,
				"z": 1.056225447,
				"element": "N" 
			},
			{
				"x": 2.0167246889,
				"y": -0.4760120018,
				"z": 1.6416535283,
				"element": "C" 
			},
			{
				"x": 1.9064073472,
				"y": -0.1028000177,
				"z": 2.9087014942,
				"element": "N" 
			},
			{
				"x": 0.4691139802,
				"y": -0.9348216729,
				"z": -0.3197855214,
				"element": "C" 
			},
			{
				"x": -0.2252310423,
				"y": 0.2347242964,
				"z": -1.0701078141,
				"element": "C" 
			},
			{
				"x": -1.7529442248,
				"y": 0.0998606568,
				"z": -1.0538427731,
				"element": "C" 
			},
			{
				"x": -2.2103606934,
				"y": -1.1858905476,
				"z": -1.7831441172,
				"element": "C" 
			},
			{
				"x": -1.1756485346,
				"y": -2.3306011222,
				"z": -1.6526505325,
				"element": "C" 
			},
			{
				"x": -0.3878647699,
				"y": -2.2220433857,
				"z": -0.3408356573,
				"element": "C" 
			},
			{
				"x": -0.9428125097,
				"y": 0.7556075558,
				"z": 4.1880258388,
				"element": "H" 
			},
			{
				"x": 0.5987942566,
				"y": 0.8789389213,
				"z": 4.8669857086,
				"element": "H" 
			},
			{
				"x": 2.9408319871,
				"y": -0.683086811,
				"z": 1.1186153018,
				"element": "H" 
			},
			{
				"x": 1.4345457918,
				"y": -1.1335306076,
				"z": -0.7985139235,
				"element": "H" 
			},
			{
				"x": 0.0916755309,
				"y": 1.1829962727,
				"z": -0.6255913826,
				"element": "H" 
			},
			{
				"x": 0.1304828633,
				"y": 0.2387335003,
				"z": -2.1083348602,
				"element": "H" 
			},
			{
				"x": -2.0831884116,
				"y": 0.0833774197,
				"z": -0.0101510791,
				"element": "H" 
			},
			{
				"x": -2.2133662719,
				"y": 0.9808874179,
				"z": -1.5143876944,
				"element": "H" 
			},
			{
				"x": -3.174149125,
				"y": -1.5086742228,
				"z": -1.372689124,
				"element": "H" 
			},
			{
				"x": -2.3839865382,
				"y": -0.9754289259,
				"z": -2.8451592003,
				"element": "H" 
			},
			{
				"x": -0.4731663312,
				"y": -2.3001824485,
				"z": -2.4964704759,
				"element": "H" 
			},
			{
				"x": -1.6746031995,
				"y": -3.3036547076,
				"z": -1.7124229048,
				"element": "H" 
			},
			{
				"x": 0.2566950841,
				"y": -3.0943225908,
				"z": -0.187263487,
				"element": "H" 
			},
			{
				"x": -1.0799580939,
				"y": -2.1854921739,
				"z": 0.5068956566,
				"element": "H" 
			}
		],
		 "valence_orbital": [ 
			{
				"type": "occ",
				"energy": -0.30231,
				"method": "rhf"
			},
			{
				"type": "occ",
				"energy": -0.30135,
				"method": "rhf"
			},
			{
				"type": "occ",
				"energy": -0.26827,
				"method": "rhf"
			},
			{
				"type": "occ",
				"energy": -0.26265,
				"method": "rhf"
			},
			{
				"type": "occ",
				"energy": -0.20597,
				"method": "rhf"
			},
			{
				"type": "unocc",
				"energy": 0.02351,
				"method": "rhf"
			},
			{
				"type": "unocc",
				"energy": 0.07215,
				"method": "rhf"
			},
			{
				"type": "unocc",
				"energy": 0.08137,
				"method": "rhf"
			},
			{
				"type": "unocc",
				"energy": 0.09562,
				"method": "rhf"
			},
			{
				"type": "unocc",
				"energy": 0.10445,
				"method": "rhf"
			}
		],
		"cosmo_sigma_profile": { 
			"-0.025": 0.0,
			"-0.024": 0.0,
			"-0.023": 0.0,
			"-0.022": 0.0,
			"-0.021": 0.0,
			"-0.02": 0.0,
			"-0.019": 0.0,
			"-0.018": 0.0,
			"-0.017": 0.0,
			"-0.016": 0.0,
			"-0.015": 0.0,
			"-0.014": 0.0,
			"-0.013": 0.975760708032,
			"-0.012": 2.08809151407,
			"-0.011": 2.72550057184,
			"-0.01": 2.54473571151,
			"-0.009": 5.52802209957,
			"-0.008": 3.95098484427,
			"-0.007": 4.87060963993,
			"-0.006": 3.48940846601,
			"-0.005": 5.1450145049,
			"-0.004": 8.80266628641,
			"-0.003": 17.6208546845,
			"-0.002": 22.2281452548,
			"-0.001": 29.9788219366,
			"0.0": 27.9467677682,
			"0.001": 18.6422021457,
			"0.002": 9.0603214063,
			"0.003": 4.80186186076,
			"0.004": 5.3784328731,
			"0.005": 3.58677897672,
			"0.006": 5.19173997299,
			"0.007": 3.79557349839,
			"0.008": 5.17297177714,
			"0.009": 3.79706506058,
			"0.01": 3.51554100241,
			"0.011": 2.68346604199,
			"0.012": 2.44350412918,
			"0.013": 2.19896768788,
			"0.014": 1.69796084551,
			"0.015": 1.26456196601,
			"0.016": 0.938089888333,
			"0.017": 0.707708403865,
			"0.018": 0.0770399164179,
			"0.019": 0.0,
			"0.02": 0.0,
			"0.021": 0.0,
			"0.022": 0.0,
			"0.023": 0.0,
			"0.024": 0.0,
			"0.025": 0.0
		}
	}
}
