{
	 "smiles": "ClC(=O)C1=CC2=C(O1)C=CC(Br)=C2", 
	 "Tm": 379.15, 
	 "num_atms": 17, 
	 "gaussian": { 
		 "optdone": 1, 
		 "sigma_profile": "yes", 
		 "theory": "DFT", 
		 "functional": "B3LYP", 
		 "basiset": "6-31G**", 
		 "properties": { 
			 "R2extent": 5670.2846, 
			 "electric_dipole_moment_norm": 2.86915358425, 
			 "electric_quadrupole_moment_norm": 15.8129876295, 
			 "total_energy": -3527.40290062, 
			 "HOMO_LUMO_gap": 0.1587, 
			 "cosmo_polarized_energy": -6.9, 
			 "cosmo_cavitation_energy": 26.97, 
			 "cosmo_dispersion_energy": -20.49, 
			 "cosmo_repulsion_energy": 1.62, 
			 "cosmo_total_nonelectrostatic_energy": 8.1, 
			 "SMD_solvation_energy": 4.42 
		},
		"coords": [
			{
				"x": 2.1638836975,
				"y": 2.2457094107,
				"z": 2.9325729619,
				"element": "Cl" 
			},
			{
				"x": 0.546123514,
				"y": 2.3828576902,
				"z": 2.1040497624,
				"element": "C" 
			},
			{
				"x": -0.2557756401,
				"y": 3.195323213,
				"z": 2.4518908042,
				"element": "O" 
			},
			{
				"x": 0.3923941057,
				"y": 1.4143721127,
				"z": 1.0252503347,
				"element": "C" 
			},
			{
				"x": 1.2078461152,
				"y": 0.4387837538,
				"z": 0.5190043737,
				"element": "C" 
			},
			{
				"x": 0.4749945703,
				"y": -0.1766438828,
				"z": -0.5465213022,
				"element": "C" 
			},
			{
				"x": -0.7602101776,
				"y": 0.5021553331,
				"z": -0.5937197658,
				"element": "C" 
			},
			{
				"x": -0.8132846214,
				"y": 1.4696608977,
				"z": 0.3603359931,
				"element": "O" 
			},
			{
				"x": -1.7658644169,
				"y": 0.1965381419,
				"z": -1.5065802357,
				"element": "C" 
			},
			{
				"x": -1.5023913441,
				"y": -0.8352041224,
				"z": -2.4002654733,
				"element": "C" 
			},
			{
				"x": -0.2714166982,
				"y": -1.5245088601,
				"z": -2.3664217369,
				"element": "C" 
			},
			{
				"x": 0.0136774438,
				"y": -2.9304091355,
				"z": -3.6287396053,
				"element": "Br" 
			},
			{
				"x": 0.7283690274,
				"y": -1.2188006175,
				"z": -1.4568908895,
				"element": "C" 
			},
			{
				"x": 2.2003200309,
				"y": 0.2000938231,
				"z": 0.8694862037,
				"element": "H" 
			},
			{
				"x": -2.7054110456,
				"y": 0.7368727368,
				"z": -1.51794871,
				"element": "H" 
			},
			{
				"x": -2.2468393165,
				"y": -1.1190422455,
				"z": -3.1347345702,
				"element": "H" 
			},
			{
				"x": 1.6652847557,
				"y": -1.7630582491,
				"z": -1.4510681448,
				"element": "H" 
			}
		],
		 "valence_orbital": [ 
			{
				"type": "occ",
				"energy": -0.32072,
				"method": "rhf"
			},
			{
				"type": "occ",
				"energy": -0.30503,
				"method": "rhf"
			},
			{
				"type": "occ",
				"energy": -0.30026,
				"method": "rhf"
			},
			{
				"type": "occ",
				"energy": -0.26061,
				"method": "rhf"
			},
			{
				"type": "occ",
				"energy": -0.25461,
				"method": "rhf"
			},
			{
				"type": "unocc",
				"energy": -0.09591,
				"method": "rhf"
			},
			{
				"type": "unocc",
				"energy": -0.02642,
				"method": "rhf"
			},
			{
				"type": "unocc",
				"energy": -0.01306,
				"method": "rhf"
			},
			{
				"type": "unocc",
				"energy": -0.00796,
				"method": "rhf"
			},
			{
				"type": "unocc",
				"energy": 0.00985,
				"method": "rhf"
			}
		],
		"cosmo_sigma_profile": { 
			"-0.025": 0.0,
			"-0.024": 0.0,
			"-0.023": 0.0,
			"-0.022": 0.0,
			"-0.021": 0.0,
			"-0.02": 0.0,
			"-0.019": 0.0,
			"-0.018": 0.0,
			"-0.017": 0.0,
			"-0.016": 0.0,
			"-0.015": 0.0,
			"-0.014": 0.0,
			"-0.013": 0.0,
			"-0.012": 0.0,
			"-0.011": 0.0,
			"-0.01": 0.717420856261,
			"-0.009": 3.69189303697,
			"-0.008": 7.76591181571,
			"-0.007": 6.8649095235,
			"-0.006": 6.67960020982,
			"-0.005": 7.90074346756,
			"-0.004": 10.1489058411,
			"-0.003": 14.3031968169,
			"-0.002": 16.2269971748,
			"-0.001": 21.7763838498,
			"0.0": 22.3115407007,
			"0.001": 25.2549725976,
			"0.002": 18.3674425064,
			"0.003": 15.3411572517,
			"0.004": 19.2446825327,
			"0.005": 9.29093404226,
			"0.006": 3.18092244165,
			"0.007": 4.65294495168,
			"0.008": 6.09075915887,
			"0.009": 3.50610886519,
			"0.01": 0.297879367907,
			"0.011": 0.0809575577728,
			"0.012": 0.520068892348,
			"0.013": 0.0564961788791,
			"0.014": 0.0,
			"0.015": 0.0,
			"0.016": 0.0,
			"0.017": 0.0,
			"0.018": 0.0,
			"0.019": 0.0,
			"0.02": 0.0,
			"0.021": 0.0,
			"0.022": 0.0,
			"0.023": 0.0,
			"0.024": 0.0,
			"0.025": 0.0
		}
	}
}
