{
	 "smiles": "OC(=O)CCC1=NC2=C(C3=C(CCCC3)S2)C(=O)N1", 
	 "Tm": 414.15, 
	 "num_atms": 33, 
	 "gaussian": { 
		 "optdone": 1, 
		 "sigma_profile": "yes", 
		 "theory": "DFT", 
		 "functional": "B3LYP", 
		 "basiset": "6-31G**", 
		 "properties": { 
			 "R2extent": 7264.5623, 
			 "electric_dipole_moment_norm": 3.07688388634, 
			 "electric_quadrupole_moment_norm": 24.6482718376, 
			 "total_energy": -1237.24963443, 
			 "HOMO_LUMO_gap": 0.16814, 
			 "cosmo_polarized_energy": -16.91, 
			 "cosmo_cavitation_energy": 37.1, 
			 "cosmo_dispersion_energy": -27.84, 
			 "cosmo_repulsion_energy": 2.11, 
			 "cosmo_total_nonelectrostatic_energy": 11.37, 
			 "SMD_solvation_energy": 4.59 
		},
		"coords": [
			{
				"x": 5.011608635,
				"y": 0.6514571653,
				"z": 3.4679819919,
				"element": "O" 
			},
			{
				"x": 4.2239291365,
				"y": 0.8910219985,
				"z": 2.4031328722,
				"element": "C" 
			},
			{
				"x": 4.4439751483,
				"y": 0.4032948343,
				"z": 1.3099431641,
				"element": "O" 
			},
			{
				"x": 3.0839415991,
				"y": 1.8247038709,
				"z": 2.7477121861,
				"element": "C" 
			},
			{
				"x": 2.2395834953,
				"y": 2.2660921299,
				"z": 1.5379009505,
				"element": "C" 
			},
			{
				"x": 1.2316459326,
				"y": 1.250160866,
				"z": 1.0527938454,
				"element": "C" 
			},
			{
				"x": -0.040949474,
				"y": 1.4760315694,
				"z": 1.2493386069,
				"element": "N" 
			},
			{
				"x": -0.875513156,
				"y": 0.5091097111,
				"z": 0.7733612933,
				"element": "C" 
			},
			{
				"x": -0.5113714612,
				"y": -0.6622359961,
				"z": 0.1141544964,
				"element": "C" 
			},
			{
				"x": -1.6328614133,
				"y": -1.4794516866,
				"z": -0.2605407671,
				"element": "C" 
			},
			{
				"x": -2.823614395,
				"y": -0.915950056,
				"z": 0.1134280259,
				"element": "C" 
			},
			{
				"x": -4.1821680524,
				"y": -1.5176187465,
				"z": -0.1217400762,
				"element": "C" 
			},
			{
				"x": -4.089997069,
				"y": -2.6451161293,
				"z": -1.167668528,
				"element": "C" 
			},
			{
				"x": -2.8912254038,
				"y": -3.5650939064,
				"z": -0.8929168462,
				"element": "C" 
			},
			{
				"x": -1.559849982,
				"y": -2.8016251778,
				"z": -0.9866895852,
				"element": "C" 
			},
			{
				"x": -2.6121037924,
				"y": 0.6233645539,
				"z": 0.9385148477,
				"element": "S" 
			},
			{
				"x": 0.9018179573,
				"y": -0.9165019829,
				"z": -0.0947938662,
				"element": "C" 
			},
			{
				"x": 1.4240073044,
				"y": -1.8860921133,
				"z": -0.6334863251,
				"element": "O" 
			},
			{
				"x": 1.7008480176,
				"y": 0.1317679737,
				"z": 0.4196536569,
				"element": "N" 
			},
			{
				"x": 5.7071065273,
				"y": 0.0402186841,
				"z": 3.1701681968,
				"element": "H" 
			},
			{
				"x": 3.5235499899,
				"y": 2.7006266627,
				"z": 3.2380355689,
				"element": "H" 
			},
			{
				"x": 2.4632945964,
				"y": 1.3404655231,
				"z": 3.51108587,
				"element": "H" 
			},
			{
				"x": 2.909022392,
				"y": 2.5441383054,
				"z": 0.7159477771,
				"element": "H" 
			},
			{
				"x": 1.6629608248,
				"y": 3.1493233393,
				"z": 1.8171248774,
				"element": "H" 
			},
			{
				"x": -4.5806539955,
				"y": -1.9177373189,
				"z": 0.8221374605,
				"element": "H" 
			},
			{
				"x": -4.8945828706,
				"y": -0.7514422051,
				"z": -0.4515370357,
				"element": "H" 
			},
			{
				"x": -5.0244020662,
				"y": -3.2173386521,
				"z": -1.1707674455,
				"element": "H" 
			},
			{
				"x": -3.984626968,
				"y": -2.2024957417,
				"z": -2.1666962994,
				"element": "H" 
			},
			{
				"x": -2.9940062777,
				"y": -3.9977671074,
				"z": 0.1114302258,
				"element": "H" 
			},
			{
				"x": -2.8869151483,
				"y": -4.4041578717,
				"z": -1.5973841616,
				"element": "H" 
			},
			{
				"x": -1.3044196843,
				"y": -2.6184032392,
				"z": -2.0397662851,
				"element": "H" 
			},
			{
				"x": -0.7314367069,
				"y": -3.3955585034,
				"z": -0.5901822708,
				"element": "H" 
			},
			{
				"x": 2.7095063603,
				"y": 0.0102092464,
				"z": 0.3383235785,
				"element": "H" 
			}
		],
		 "valence_orbital": [ 
			{
				"type": "occ",
				"energy": -0.2775,
				"method": "rhf"
			},
			{
				"type": "occ",
				"energy": -0.27677,
				"method": "rhf"
			},
			{
				"type": "occ",
				"energy": -0.24871,
				"method": "rhf"
			},
			{
				"type": "occ",
				"energy": -0.24384,
				"method": "rhf"
			},
			{
				"type": "occ",
				"energy": -0.20374,
				"method": "rhf"
			},
			{
				"type": "unocc",
				"energy": -0.0356,
				"method": "rhf"
			},
			{
				"type": "unocc",
				"energy": -0.01778,
				"method": "rhf"
			},
			{
				"type": "unocc",
				"energy": 0.00352,
				"method": "rhf"
			},
			{
				"type": "unocc",
				"energy": 0.02778,
				"method": "rhf"
			},
			{
				"type": "unocc",
				"energy": 0.03586,
				"method": "rhf"
			}
		],
		"cosmo_sigma_profile": { 
			"-0.025": 0.0,
			"-0.024": 0.0,
			"-0.023": 0.0,
			"-0.022": 0.0,
			"-0.021": 0.0,
			"-0.02": 0.0,
			"-0.019": 0.263773595099,
			"-0.018": 1.12726917888,
			"-0.017": 0.622364689257,
			"-0.016": 0.902995483243,
			"-0.015": 0.910934891658,
			"-0.014": 0.874165702746,
			"-0.013": 0.570691934319,
			"-0.012": 0.839108801497,
			"-0.011": 0.897847894193,
			"-0.01": 0.274845943494,
			"-0.009": 0.377346644842,
			"-0.008": 2.7416774449,
			"-0.007": 8.16635106878,
			"-0.006": 12.5114127789,
			"-0.005": 12.1903959758,
			"-0.004": 18.2908834931,
			"-0.003": 29.2249393105,
			"-0.002": 35.0108930743,
			"-0.001": 29.544892579,
			"0.0": 24.1884535828,
			"0.001": 20.41813058,
			"0.002": 18.9901329839,
			"0.003": 17.0690734838,
			"0.004": 12.7134896879,
			"0.005": 6.56245409524,
			"0.006": 4.42326550739,
			"0.007": 5.85115681862,
			"0.008": 4.57163187144,
			"0.009": 5.37811910141,
			"0.01": 3.88808515571,
			"0.011": 4.02450128167,
			"0.012": 3.53057919515,
			"0.013": 5.13685189672,
			"0.014": 3.05757534025,
			"0.015": 0.049605811774,
			"0.016": 0.0,
			"0.017": 0.0,
			"0.018": 0.0,
			"0.019": 0.0,
			"0.02": 0.0,
			"0.021": 0.0,
			"0.022": 0.0,
			"0.023": 0.0,
			"0.024": 0.0,
			"0.025": 0.0
		}
	}
}
