{
	 "smiles": "CC(Cl)C(=O)NCC1=CC=CC=C1", 
	 "Tm": 349.15, 
	 "num_atms": 25, 
	 "gaussian": { 
		 "optdone": 1, 
		 "sigma_profile": "yes", 
		 "theory": "DFT", 
		 "functional": "B3LYP", 
		 "basiset": "6-31G**", 
		 "properties": { 
			 "R2extent": 3873.6613, 
			 "electric_dipole_moment_norm": 3.37226343277, 
			 "electric_quadrupole_moment_norm": 10.8707600489, 
			 "total_energy": -978.480512983, 
			 "HOMO_LUMO_gap": 0.23145, 
			 "cosmo_polarized_energy": -11.47, 
			 "cosmo_cavitation_energy": 30.18, 
			 "cosmo_dispersion_energy": -21.36, 
			 "cosmo_repulsion_energy": 1.71, 
			 "cosmo_total_nonelectrostatic_energy": 10.54, 
			 "SMD_solvation_energy": 5.3 
		},
		"coords": [
			{
				"x": 2.6257720575,
				"y": -2.0791063018,
				"z": -1.8679863527,
				"element": "C" 
			},
			{
				"x": 2.7225670448,
				"y": -2.3904680648,
				"z": -0.3769774769,
				"element": "C" 
			},
			{
				"x": 1.5959101453,
				"y": -3.7673971804,
				"z": 0.0810210784,
				"element": "Cl" 
			},
			{
				"x": 2.5638371742,
				"y": -1.1558546564,
				"z": 0.5256867466,
				"element": "C" 
			},
			{
				"x": 3.575813697,
				"y": -0.6988134735,
				"z": 1.0449946813,
				"element": "O" 
			},
			{
				"x": 1.3539148676,
				"y": -0.54176493,
				"z": 0.6761902924,
				"element": "N" 
			},
			{
				"x": 0.0133252341,
				"y": -0.9198660832,
				"z": 0.2374367853,
				"element": "C" 
			},
			{
				"x": -0.819252586,
				"y": 0.2948184448,
				"z": -0.1317937396,
				"element": "C" 
			},
			{
				"x": -0.2893094296,
				"y": 1.3230353524,
				"z": -0.9231901486,
				"element": "C" 
			},
			{
				"x": -1.0763509485,
				"y": 2.4159642652,
				"z": -1.28550896,
				"element": "C" 
			},
			{
				"x": -2.4056914078,
				"y": 2.4952563447,
				"z": -0.8635136154,
				"element": "C" 
			},
			{
				"x": -2.9410343759,
				"y": 1.4769205201,
				"z": -0.0740727679,
				"element": "C" 
			},
			{
				"x": -2.1498213242,
				"y": 0.3862586696,
				"z": 0.2918422806,
				"element": "C" 
			},
			{
				"x": 2.8639020911,
				"y": -2.9677980268,
				"z": -2.4571364657,
				"element": "H" 
			},
			{
				"x": 1.6330880452,
				"y": -1.7278662488,
				"z": -2.1588397535,
				"element": "H" 
			},
			{
				"x": 3.354087799,
				"y": -1.2971056782,
				"z": -2.1088988031,
				"element": "H" 
			},
			{
				"x": 3.7145480905,
				"y": -2.7679855929,
				"z": -0.1362474754,
				"element": "H" 
			},
			{
				"x": 1.4110559063,
				"y": 0.2487370222,
				"z": 1.307466264,
				"element": "H" 
			},
			{
				"x": 0.1002658749,
				"y": -1.5875463251,
				"z": -0.6216499899,
				"element": "H" 
			},
			{
				"x": -0.5017961892,
				"y": -1.4955820372,
				"z": 1.0173070114,
				"element": "H" 
			},
			{
				"x": 0.7461410113,
				"y": 1.268114399,
				"z": -1.2476140573,
				"element": "H" 
			},
			{
				"x": -0.6517354108,
				"y": 3.2064832129,
				"z": -1.8978085871,
				"element": "H" 
			},
			{
				"x": -3.0176451357,
				"y": 3.34734372,
				"z": -1.1447710765,
				"element": "H" 
			},
			{
				"x": -3.9716182995,
				"y": 1.5334982806,
				"z": 0.2644769674,
				"element": "H" 
			},
			{
				"x": -2.5690739317,
				"y": -0.4010756324,
				"z": 0.9136871623,
				"element": "H" 
			}
		],
		 "valence_orbital": [ 
			{
				"type": "occ",
				"energy": -0.30059,
				"method": "rhf"
			},
			{
				"type": "occ",
				"energy": -0.26691,
				"method": "rhf"
			},
			{
				"type": "occ",
				"energy": -0.25921,
				"method": "rhf"
			},
			{
				"type": "occ",
				"energy": -0.25526,
				"method": "rhf"
			},
			{
				"type": "occ",
				"energy": -0.24648,
				"method": "rhf"
			},
			{
				"type": "unocc",
				"energy": -0.01503,
				"method": "rhf"
			},
			{
				"type": "unocc",
				"energy": -0.01228,
				"method": "rhf"
			},
			{
				"type": "unocc",
				"energy": -0.00866,
				"method": "rhf"
			},
			{
				"type": "unocc",
				"energy": 0.04734,
				"method": "rhf"
			},
			{
				"type": "unocc",
				"energy": 0.07792,
				"method": "rhf"
			}
		],
		"cosmo_sigma_profile": { 
			"-0.025": 0.0,
			"-0.024": 0.0,
			"-0.023": 0.0,
			"-0.022": 0.0,
			"-0.021": 0.0,
			"-0.02": 0.0,
			"-0.019": 0.0,
			"-0.018": 0.0,
			"-0.017": 0.0,
			"-0.016": 0.0,
			"-0.015": 0.0,
			"-0.014": 0.0514721309476,
			"-0.013": 1.03305866664,
			"-0.012": 0.67239927034,
			"-0.011": 0.629780082471,
			"-0.01": 0.668457496267,
			"-0.009": 1.08730181008,
			"-0.008": 1.81253872319,
			"-0.007": 3.68997646739,
			"-0.006": 12.1094798753,
			"-0.005": 22.2659646032,
			"-0.004": 23.3053922173,
			"-0.003": 23.2261902084,
			"-0.002": 19.667327968,
			"-0.001": 17.4686726475,
			"0.0": 14.7015126532,
			"0.001": 13.2063067873,
			"0.002": 12.7997424664,
			"0.003": 13.6677663361,
			"0.004": 13.924054433,
			"0.005": 15.1178447889,
			"0.006": 12.6716561886,
			"0.007": 1.4936656385,
			"0.008": 0.943755552197,
			"0.009": 1.00417798816,
			"0.01": 1.57217819484,
			"0.011": 1.56948932107,
			"0.012": 2.21137817247,
			"0.013": 5.74507982501,
			"0.014": 2.72650577637,
			"0.015": 0.00815578990533,
			"0.016": 0.0,
			"0.017": 0.0,
			"0.018": 0.0,
			"0.019": 0.0,
			"0.02": 0.0,
			"0.021": 0.0,
			"0.022": 0.0,
			"0.023": 0.0,
			"0.024": 0.0,
			"0.025": 0.0
		}
	}
}
