{
	 "smiles": "COC(=O)C1=CC=C(O)C(Cl)=C1", 
	 "Tm": 380.15, 
	 "num_atms": 19, 
	 "gaussian": { 
		 "optdone": 1, 
		 "sigma_profile": "yes", 
		 "theory": "DFT", 
		 "functional": "B3LYP", 
		 "basiset": "6-31G**", 
		 "properties": { 
			 "R2extent": 3573.5161, 
			 "electric_dipole_moment_norm": 1.78911616727, 
			 "electric_quadrupole_moment_norm": 9.74549713457, 
			 "total_energy": -994.944883187, 
			 "HOMO_LUMO_gap": 0.19563, 
			 "cosmo_polarized_energy": -8.94, 
			 "cosmo_cavitation_energy": 25.58, 
			 "cosmo_dispersion_energy": -19.18, 
			 "cosmo_repulsion_energy": 1.53, 
			 "cosmo_total_nonelectrostatic_energy": 7.93, 
			 "SMD_solvation_energy": 6.13 
		},
		"coords": [
			{
				"x": 2.2890873041,
				"y": 0.813659492,
				"z": -2.0539314622,
				"element": "C" 
			},
			{
				"x": 1.6175297179,
				"y": 0.0486886209,
				"z": -1.0413516166,
				"element": "O" 
			},
			{
				"x": 0.2817098025,
				"y": 0.250714714,
				"z": -0.9595933329,
				"element": "C" 
			},
			{
				"x": -0.3196891668,
				"y": 1.020739937,
				"z": -1.6842956991,
				"element": "O" 
			},
			{
				"x": -0.3499807156,
				"y": -0.57006038,
				"z": 0.1059423915,
				"element": "C" 
			},
			{
				"x": 0.3744820231,
				"y": -1.4500488737,
				"z": 0.9250211136,
				"element": "C" 
			},
			{
				"x": -0.2702220234,
				"y": -2.1919964879,
				"z": 1.9050080978,
				"element": "C" 
			},
			{
				"x": -1.6546230363,
				"y": -2.0738028106,
				"z": 2.0917039012,
				"element": "C" 
			},
			{
				"x": -2.2368501081,
				"y": -2.8158664761,
				"z": 3.0574742572,
				"element": "O" 
			},
			{
				"x": -2.3694160693,
				"y": -1.1882690728,
				"z": 1.2642124655,
				"element": "C" 
			},
			{
				"x": -4.1105097499,
				"y": -1.0455833796,
				"z": 1.5057501525,
				"element": "Cl" 
			},
			{
				"x": -1.733453359,
				"y": -0.4439419919,
				"z": 0.2835475421,
				"element": "C" 
			},
			{
				"x": 3.3404298873,
				"y": 0.5349473686,
				"z": -1.9839960588,
				"element": "H" 
			},
			{
				"x": 2.1627053057,
				"y": 1.8844555687,
				"z": -1.875193187,
				"element": "H" 
			},
			{
				"x": 1.8930726138,
				"y": 0.5740248967,
				"z": -3.0440184372,
				"element": "H" 
			},
			{
				"x": 1.4447983345,
				"y": -1.5472717334,
				"z": 0.7872539287,
				"element": "H" 
			},
			{
				"x": 0.2732451111,
				"y": -2.8768256474,
				"z": 2.5471359444,
				"element": "H" 
			},
			{
				"x": -3.1890907722,
				"y": -2.6293615176,
				"z": 3.0681490325,
				"element": "H" 
			},
			{
				"x": -2.2897250995,
				"y": 0.2364977731,
				"z": -0.3507190336,
				"element": "H" 
			}
		],
		 "valence_orbital": [ 
			{
				"type": "occ",
				"energy": -0.33728,
				"method": "rhf"
			},
			{
				"type": "occ",
				"energy": -0.30366,
				"method": "rhf"
			},
			{
				"type": "occ",
				"energy": -0.27625,
				"method": "rhf"
			},
			{
				"type": "occ",
				"energy": -0.26408,
				"method": "rhf"
			},
			{
				"type": "occ",
				"energy": -0.24039,
				"method": "rhf"
			},
			{
				"type": "unocc",
				"energy": -0.04476,
				"method": "rhf"
			},
			{
				"type": "unocc",
				"energy": -0.02135,
				"method": "rhf"
			},
			{
				"type": "unocc",
				"energy": 0.01418,
				"method": "rhf"
			},
			{
				"type": "unocc",
				"energy": 0.05761,
				"method": "rhf"
			},
			{
				"type": "unocc",
				"energy": 0.08121,
				"method": "rhf"
			}
		],
		"cosmo_sigma_profile": { 
			"-0.025": 0.0,
			"-0.024": 0.0,
			"-0.023": 0.0,
			"-0.022": 0.0,
			"-0.021": 0.0,
			"-0.02": 0.0,
			"-0.019": 0.0,
			"-0.018": 0.0,
			"-0.017": 0.0,
			"-0.016": 0.0927204872612,
			"-0.015": 0.677382209128,
			"-0.014": 0.999792053347,
			"-0.013": 0.918600335611,
			"-0.012": 0.306873610612,
			"-0.011": 0.83290690966,
			"-0.01": 1.18716433678,
			"-0.009": 0.758205258072,
			"-0.008": 0.993374791128,
			"-0.007": 4.67767337224,
			"-0.006": 11.3361243169,
			"-0.005": 12.1680067721,
			"-0.004": 12.7236028518,
			"-0.003": 16.2779377563,
			"-0.002": 13.313020584,
			"-0.001": 15.4262940931,
			"0.0": 19.1072896384,
			"0.001": 21.9246527041,
			"0.002": 21.5640547752,
			"0.003": 15.0514303888,
			"0.004": 9.0424827286,
			"0.005": 4.64721568139,
			"0.006": 3.27914569671,
			"0.007": 3.06322844853,
			"0.008": 3.69465971727,
			"0.009": 2.1728212114,
			"0.01": 3.52228672257,
			"0.011": 2.51624656793,
			"0.012": 4.42788312386,
			"0.013": 0.252102453139,
			"0.014": 0.0,
			"0.015": 0.0,
			"0.016": 0.0,
			"0.017": 0.0,
			"0.018": 0.0,
			"0.019": 0.0,
			"0.02": 0.0,
			"0.021": 0.0,
			"0.022": 0.0,
			"0.023": 0.0,
			"0.024": 0.0,
			"0.025": 0.0
		}
	}
}
