{
	 "smiles": "OC(=O)C1=CN=CN1C1=CC=CC=C1", 
	 "Tm": 485.15, 
	 "num_atms": 22, 
	 "gaussian": { 
		 "optdone": 1, 
		 "sigma_profile": "yes", 
		 "theory": "DFT", 
		 "functional": "B3LYP", 
		 "basiset": "6-31G**", 
		 "properties": { 
			 "R2extent": 2902.2978, 
			 "electric_dipole_moment_norm": 2.25207429274, 
			 "electric_quadrupole_moment_norm": 13.6428774197, 
			 "total_energy": -645.842405577, 
			 "HOMO_LUMO_gap": 0.19954, 
			 "cosmo_polarized_energy": -13.58, 
			 "cosmo_cavitation_energy": 27.09, 
			 "cosmo_dispersion_energy": -19.49, 
			 "cosmo_repulsion_energy": 1.52, 
			 "cosmo_total_nonelectrostatic_energy": 9.12, 
			 "SMD_solvation_energy": 4.53 
		},
		"coords": [
			{
				"x": 3.606512084,
				"y": 0.7660154716,
				"z": -0.5273512932,
				"element": "O" 
			},
			{
				"x": 2.4718349067,
				"y": 0.0273272951,
				"z": -0.4053657826,
				"element": "C" 
			},
			{
				"x": 2.4719424501,
				"y": -1.0852929985,
				"z": 0.0878788895,
				"element": "O" 
			},
			{
				"x": 1.3198915237,
				"y": 0.7532125364,
				"z": -0.9316956433,
				"element": "C" 
			},
			{
				"x": 1.2483514289,
				"y": 2.031383351,
				"z": -1.4592733381,
				"element": "C" 
			},
			{
				"x": -0.0342766924,
				"y": 2.3633048722,
				"z": -1.7794400429,
				"element": "N" 
			},
			{
				"x": -0.7487823733,
				"y": 1.3024606091,
				"z": -1.4491428951,
				"element": "C" 
			},
			{
				"x": 0.0026035631,
				"y": 0.2878458966,
				"z": -0.9281037813,
				"element": "N" 
			},
			{
				"x": -0.5425567124,
				"y": -0.9673515079,
				"z": -0.5014193777,
				"element": "C" 
			},
			{
				"x": -1.5914609688,
				"y": -0.9620900207,
				"z": 0.4214056774,
				"element": "C" 
			},
			{
				"x": -2.1864207707,
				"y": -2.167815575,
				"z": 0.7960976398,
				"element": "C" 
			},
			{
				"x": -1.7281584396,
				"y": -3.3709320531,
				"z": 0.2595011241,
				"element": "C" 
			},
			{
				"x": -0.6734927502,
				"y": -3.366930256,
				"z": -0.6573351715,
				"element": "C" 
			},
			{
				"x": -0.0808081604,
				"y": -2.1680413524,
				"z": -1.0463001326,
				"element": "C" 
			},
			{
				"x": 4.3142614762,
				"y": 0.2173443376,
				"z": -0.1518095675,
				"element": "H" 
			},
			{
				"x": 2.0732627607,
				"y": 2.7136165095,
				"z": -1.6084033356,
				"element": "H" 
			},
			{
				"x": -1.8164108809,
				"y": 1.1933963381,
				"z": -1.5825870816,
				"element": "H" 
			},
			{
				"x": -1.9241937534,
				"y": -0.0221028645,
				"z": 0.8501270311,
				"element": "H" 
			},
			{
				"x": -3.000819998,
				"y": -2.1630960794,
				"z": 1.5141676329,
				"element": "H" 
			},
			{
				"x": -2.1874413939,
				"y": -4.3091885166,
				"z": 0.5557153526,
				"element": "H" 
			},
			{
				"x": -0.3125069497,
				"y": -4.30115934,
				"z": -1.076438223,
				"element": "H" 
			},
			{
				"x": 0.7357696506,
				"y": -2.1578066532,
				"z": -1.7581276812,
				"element": "H" 
			}
		],
		 "valence_orbital": [ 
			{
				"type": "occ",
				"energy": -0.29102,
				"method": "rhf"
			},
			{
				"type": "occ",
				"energy": -0.27195,
				"method": "rhf"
			},
			{
				"type": "occ",
				"energy": -0.26247,
				"method": "rhf"
			},
			{
				"type": "occ",
				"energy": -0.25421,
				"method": "rhf"
			},
			{
				"type": "occ",
				"energy": -0.24283,
				"method": "rhf"
			},
			{
				"type": "unocc",
				"energy": -0.04329,
				"method": "rhf"
			},
			{
				"type": "unocc",
				"energy": -0.01441,
				"method": "rhf"
			},
			{
				"type": "unocc",
				"energy": -0.0119,
				"method": "rhf"
			},
			{
				"type": "unocc",
				"energy": 0.03851,
				"method": "rhf"
			},
			{
				"type": "unocc",
				"energy": 0.07865,
				"method": "rhf"
			}
		],
		"cosmo_sigma_profile": { 
			"-0.025": 0.0,
			"-0.024": 0.0,
			"-0.023": 0.0,
			"-0.022": 0.0,
			"-0.021": 0.0,
			"-0.02": 0.0,
			"-0.019": 0.0894157369735,
			"-0.018": 0.770064328959,
			"-0.017": 1.07821597537,
			"-0.016": 0.656272132455,
			"-0.015": 0.532693606114,
			"-0.014": 0.754787853938,
			"-0.013": 0.812533946955,
			"-0.012": 0.821109860679,
			"-0.011": 0.509886457925,
			"-0.01": 1.5890171098,
			"-0.009": 2.17550255257,
			"-0.008": 2.79673087467,
			"-0.007": 8.0001628953,
			"-0.006": 14.7178180846,
			"-0.005": 16.1094963014,
			"-0.004": 14.5222846079,
			"-0.003": 11.7812966497,
			"-0.002": 15.4414305572,
			"-0.001": 14.4824524932,
			"0.0": 12.9895026598,
			"0.001": 15.1452253328,
			"0.002": 12.6348334629,
			"0.003": 13.0654552999,
			"0.004": 14.4545481674,
			"0.005": 7.50559073491,
			"0.006": 4.09125202809,
			"0.007": 5.50825222039,
			"0.008": 5.09789135192,
			"0.009": 2.05528196877,
			"0.01": 3.17259663237,
			"0.011": 4.2697165504,
			"0.012": 5.60985681056,
			"0.013": 0.887479086079,
			"0.014": 1.25555771788,
			"0.015": 0.866356706706,
			"0.016": 1.11724000737,
			"0.017": 0.352848867047,
			"0.018": 0.0,
			"0.019": 0.0,
			"0.02": 0.0,
			"0.021": 0.0,
			"0.022": 0.0,
			"0.023": 0.0,
			"0.024": 0.0,
			"0.025": 0.0
		}
	}
}
