{
	 "smiles": "BrC1=C(C=CC=C1)N1CCCS1(=O)=O", 
	 "Tm": 389.15, 
	 "num_atms": 24, 
	 "gaussian": { 
		 "optdone": 1, 
		 "sigma_profile": "yes", 
		 "theory": "DFT", 
		 "functional": "B3LYP", 
		 "basiset": "6-31G**", 
		 "properties": { 
			 "R2extent": 6167.961, 
			 "electric_dipole_moment_norm": 3.94629552365, 
			 "electric_quadrupole_moment_norm": 18.8910301133, 
			 "total_energy": -3523.69835871, 
			 "HOMO_LUMO_gap": 0.21671, 
			 "cosmo_polarized_energy": -14.71, 
			 "cosmo_cavitation_energy": 30.11, 
			 "cosmo_dispersion_energy": -22.5, 
			 "cosmo_repulsion_energy": 1.71, 
			 "cosmo_total_nonelectrostatic_energy": 9.33, 
			 "SMD_solvation_energy": 2.92 
		},
		"coords": [
			{
				"x": -4.1752228059,
				"y": -1.4679693012,
				"z": 1.5929874091,
				"element": "Br" 
			},
			{
				"x": -2.6617890681,
				"y": -0.3837558174,
				"z": 2.0228295759,
				"element": "C" 
			},
			{
				"x": -1.4612586426,
				"y": -0.5143019374,
				"z": 1.3020576858,
				"element": "C" 
			},
			{
				"x": -0.3828219517,
				"y": 0.3114836792,
				"z": 1.6540189608,
				"element": "C" 
			},
			{
				"x": -0.5073332553,
				"y": 1.2483210644,
				"z": 2.6787630746,
				"element": "C" 
			},
			{
				"x": -1.7020501206,
				"y": 1.3556011551,
				"z": 3.3890705975,
				"element": "C" 
			},
			{
				"x": -2.7809057429,
				"y": 0.5325276894,
				"z": 3.0647901935,
				"element": "C" 
			},
			{
				"x": -1.3712510821,
				"y": -1.4664905122,
				"z": 0.2457104317,
				"element": "N" 
			},
			{
				"x": -1.12495566,
				"y": -2.88863139,
				"z": 0.5315887061,
				"element": "C" 
			},
			{
				"x": -1.4024499749,
				"y": -3.5955938738,
				"z": -0.8054839493,
				"element": "C" 
			},
			{
				"x": -0.8042587201,
				"y": -2.7228417227,
				"z": -1.9228740148,
				"element": "C" 
			},
			{
				"x": -0.5840039422,
				"y": -1.0470761067,
				"z": -1.2149381533,
				"element": "S" 
			},
			{
				"x": 0.8593581714,
				"y": -0.8323367344,
				"z": -1.0103872357,
				"element": "O" 
			},
			{
				"x": -1.3662372015,
				"y": -0.0172226872,
				"z": -1.8993245712,
				"element": "O" 
			},
			{
				"x": 0.5477942912,
				"y": 0.2129558563,
				"z": 1.1066979151,
				"element": "H" 
			},
			{
				"x": 0.3362782202,
				"y": 1.884948859,
				"z": 2.9266014278,
				"element": "H" 
			},
			{
				"x": -1.8026578005,
				"y": 2.0770719387,
				"z": 4.1941004649,
				"element": "H" 
			},
			{
				"x": -3.7175204955,
				"y": 0.6068202368,
				"z": 3.6053244526,
				"element": "H" 
			},
			{
				"x": -0.0970086356,
				"y": -3.0610672661,
				"z": 0.8838736707,
				"element": "H" 
			},
			{
				"x": -1.8209504898,
				"y": -3.2143596151,
				"z": 1.3067311663,
				"element": "H" 
			},
			{
				"x": -0.9770815154,
				"y": -4.6023281161,
				"z": -0.8217140937,
				"element": "H" 
			},
			{
				"x": -2.4838185297,
				"y": -3.673557066,
				"z": -0.9398814677,
				"element": "H" 
			},
			{
				"x": -1.4476715452,
				"y": -2.6227637759,
				"z": -2.7978381657,
				"element": "H" 
			},
			{
				"x": 0.1962164968,
				"y": -3.0319345565,
				"z": -2.2299040812,
				"element": "H" 
			}
		],
		 "valence_orbital": [ 
			{
				"type": "occ",
				"energy": -0.29769,
				"method": "rhf"
			},
			{
				"type": "occ",
				"energy": -0.29227,
				"method": "rhf"
			},
			{
				"type": "occ",
				"energy": -0.27499,
				"method": "rhf"
			},
			{
				"type": "occ",
				"energy": -0.25268,
				"method": "rhf"
			},
			{
				"type": "occ",
				"energy": -0.24087,
				"method": "rhf"
			},
			{
				"type": "unocc",
				"energy": -0.02416,
				"method": "rhf"
			},
			{
				"type": "unocc",
				"energy": -0.01937,
				"method": "rhf"
			},
			{
				"type": "unocc",
				"energy": 0.00137,
				"method": "rhf"
			},
			{
				"type": "unocc",
				"energy": 0.05072,
				"method": "rhf"
			},
			{
				"type": "unocc",
				"energy": 0.0611,
				"method": "rhf"
			}
		],
		"cosmo_sigma_profile": { 
			"-0.025": 0.0,
			"-0.024": 0.0,
			"-0.023": 0.0,
			"-0.022": 0.0,
			"-0.021": 0.0,
			"-0.02": 0.0,
			"-0.019": 0.0,
			"-0.018": 0.0,
			"-0.017": 0.0,
			"-0.016": 0.0,
			"-0.015": 0.0,
			"-0.014": 0.0,
			"-0.013": 0.0,
			"-0.012": 0.0,
			"-0.011": 0.0,
			"-0.01": 0.0,
			"-0.009": 0.552579408611,
			"-0.008": 3.98750999517,
			"-0.007": 10.5287061796,
			"-0.006": 19.8713784227,
			"-0.005": 23.528588553,
			"-0.004": 22.1742027512,
			"-0.003": 17.8613136713,
			"-0.002": 13.8506191472,
			"-0.001": 11.076556224,
			"0.0": 11.4903046995,
			"0.001": 17.0695325278,
			"0.002": 17.4823884733,
			"0.003": 19.3643314647,
			"0.004": 13.370742201,
			"0.005": 5.24216668557,
			"0.006": 3.5044822699,
			"0.007": 3.55560143336,
			"0.008": 3.13461806749,
			"0.009": 3.61382037077,
			"0.01": 7.78993534195,
			"0.011": 10.9370918129,
			"0.012": 3.03527136285,
			"0.013": 0.0211764561229,
			"0.014": 0.0,
			"0.015": 0.0,
			"0.016": 0.0,
			"0.017": 0.0,
			"0.018": 0.0,
			"0.019": 0.0,
			"0.02": 0.0,
			"0.021": 0.0,
			"0.022": 0.0,
			"0.023": 0.0,
			"0.024": 0.0,
			"0.025": 0.0
		}
	}
}
