{
	 "smiles": "OC(=O)C1(CC1)C#N", 
	 "Tm": 419.15, 
	 "num_atms": 13, 
	 "gaussian": { 
		 "optdone": 1, 
		 "sigma_profile": "yes", 
		 "theory": "DFT", 
		 "functional": "B3LYP", 
		 "basiset": "6-31G**", 
		 "properties": { 
			 "R2extent": 1148.2327, 
			 "electric_dipole_moment_norm": 2.5463470659, 
			 "electric_quadrupole_moment_norm": 12.4893768119, 
			 "total_energy": -398.702705985, 
			 "HOMO_LUMO_gap": 0.2761, 
			 "cosmo_polarized_energy": -12.89, 
			 "cosmo_cavitation_energy": 18.21, 
			 "cosmo_dispersion_energy": -12.83, 
			 "cosmo_repulsion_energy": 1.07, 
			 "cosmo_total_nonelectrostatic_energy": 6.45, 
			 "SMD_solvation_energy": 5.61 
		},
		"coords": [
			{
				"x": -0.9709440246,
				"y": -0.8263217064,
				"z": 0.6490905229,
				"element": "O" 
			},
			{
				"x": -0.0554433602,
				"y": 0.0952179145,
				"z": 0.9987707282,
				"element": "C" 
			},
			{
				"x": -0.3596494101,
				"y": 1.0817353842,
				"z": 1.6244238181,
				"element": "O" 
			},
			{
				"x": 1.3790154111,
				"y": -0.1601292196,
				"z": 0.572083005,
				"element": "C" 
			},
			{
				"x": 2.4608588798,
				"y": 0.3646861182,
				"z": 1.5291367885,
				"element": "C" 
			},
			{
				"x": 2.2132400398,
				"y": 1.092360871,
				"z": 0.2616358392,
				"element": "C" 
			},
			{
				"x": 1.6338570233,
				"y": -1.3670175782,
				"z": -0.1704047428,
				"element": "C" 
			},
			{
				"x": 1.7630684076,
				"y": -2.3592125604,
				"z": -0.7648429008,
				"element": "N" 
			},
			{
				"x": -0.5679354275,
				"y": -1.5565107654,
				"z": 0.1515372931,
				"element": "H" 
			},
			{
				"x": 2.0700634545,
				"y": 0.7917492851,
				"z": 2.4460864202,
				"element": "H" 
			},
			{
				"x": 3.3544941473,
				"y": -0.2425363817,
				"z": 1.6230063605,
				"element": "H" 
			},
			{
				"x": 2.9308792197,
				"y": 1.0030511021,
				"z": -0.5465315489,
				"element": "H" 
			},
			{
				"x": 1.6524956393,
				"y": 2.0193275364,
				"z": 0.3079084169,
				"element": "H" 
			}
		],
		 "valence_orbital": [ 
			{
				"type": "occ",
				"energy": -0.37715,
				"method": "rhf"
			},
			{
				"type": "occ",
				"energy": -0.34801,
				"method": "rhf"
			},
			{
				"type": "occ",
				"energy": -0.33624,
				"method": "rhf"
			},
			{
				"type": "occ",
				"energy": -0.31176,
				"method": "rhf"
			},
			{
				"type": "occ",
				"energy": -0.29436,
				"method": "rhf"
			},
			{
				"type": "unocc",
				"energy": -0.01826,
				"method": "rhf"
			},
			{
				"type": "unocc",
				"energy": -0.0027,
				"method": "rhf"
			},
			{
				"type": "unocc",
				"energy": 0.01256,
				"method": "rhf"
			},
			{
				"type": "unocc",
				"energy": 0.05685,
				"method": "rhf"
			},
			{
				"type": "unocc",
				"energy": 0.08051,
				"method": "rhf"
			}
		],
		"cosmo_sigma_profile": { 
			"-0.025": 0.0,
			"-0.024": 0.0,
			"-0.023": 0.0,
			"-0.022": 0.0,
			"-0.021": 0.0,
			"-0.02": 0.0,
			"-0.019": 0.0,
			"-0.018": 0.0,
			"-0.017": 0.0231065060363,
			"-0.016": 0.649434259872,
			"-0.015": 0.765837115838,
			"-0.014": 0.926764116788,
			"-0.013": 1.2535787623,
			"-0.012": 1.34537400478,
			"-0.011": 1.25909834673,
			"-0.01": 1.51902547592,
			"-0.009": 2.21352493023,
			"-0.008": 7.45902463241,
			"-0.007": 7.8912568631,
			"-0.006": 8.49915223763,
			"-0.005": 8.10038072814,
			"-0.004": 12.2042307691,
			"-0.003": 10.9976517789,
			"-0.002": 9.39679827649,
			"-0.001": 5.58086011322,
			"0.0": 5.1829052,
			"0.001": 6.20677623319,
			"0.002": 3.51652001723,
			"0.003": 2.98990069294,
			"0.004": 3.69530051913,
			"0.005": 3.60192320684,
			"0.006": 5.15020317835,
			"0.007": 5.38952899292,
			"0.008": 5.07593563147,
			"0.009": 7.67700410531,
			"0.01": 6.35363848031,
			"0.011": 7.21305132367,
			"0.012": 3.75074396011,
			"0.013": 0.280570182007,
			"0.014": 0.0,
			"0.015": 0.0,
			"0.016": 0.0,
			"0.017": 0.0,
			"0.018": 0.0,
			"0.019": 0.0,
			"0.02": 0.0,
			"0.021": 0.0,
			"0.022": 0.0,
			"0.023": 0.0,
			"0.024": 0.0,
			"0.025": 0.0
		}
	}
}
