{
	 "smiles": "OC(=O)CNC(=O)C1=CC=CS1", 
	 "Tm": 443.15, 
	 "num_atms": 19, 
	 "gaussian": { 
		 "optdone": 1, 
		 "sigma_profile": "yes", 
		 "theory": "DFT", 
		 "functional": "B3LYP", 
		 "basiset": "6-31G**", 
		 "properties": { 
			 "R2extent": 2898.1269, 
			 "electric_dipole_moment_norm": 2.53099400829, 
			 "electric_quadrupole_moment_norm": 19.6795861918, 
			 "total_energy": -949.576115346, 
			 "HOMO_LUMO_gap": 0.1951, 
			 "cosmo_polarized_energy": -17.88, 
			 "cosmo_cavitation_energy": 25.74, 
			 "cosmo_dispersion_energy": -19.39, 
			 "cosmo_repulsion_energy": 1.52, 
			 "cosmo_total_nonelectrostatic_energy": 7.87, 
			 "SMD_solvation_energy": 5.7 
		},
		"coords": [
			{
				"x": 1.2467643109,
				"y": 2.2805436111,
				"z": -2.7624993853,
				"element": "O" 
			},
			{
				"x": 1.5797963962,
				"y": 0.9715315907,
				"z": -2.72400205,
				"element": "C" 
			},
			{
				"x": 2.5325932658,
				"y": 0.5072257478,
				"z": -3.304201978,
				"element": "O" 
			},
			{
				"x": 0.6086974861,
				"y": 0.1293740271,
				"z": -1.9070252248,
				"element": "C" 
			},
			{
				"x": -0.3891241138,
				"y": 0.893069538,
				"z": -1.1860306381,
				"element": "N" 
			},
			{
				"x": -0.779092074,
				"y": 0.7570042997,
				"z": 0.1293815066,
				"element": "C" 
			},
			{
				"x": -1.3128798451,
				"y": 1.6921291296,
				"z": 0.7205475747,
				"element": "O" 
			},
			{
				"x": -0.5709628179,
				"y": -0.5468785388,
				"z": 0.8063541637,
				"element": "C" 
			},
			{
				"x": -0.4381526868,
				"y": -1.8342859201,
				"z": 0.3303520321,
				"element": "C" 
			},
			{
				"x": -0.3498587471,
				"y": -2.8061971488,
				"z": 1.3655976842,
				"element": "C" 
			},
			{
				"x": -0.420456887,
				"y": -2.244433443,
				"z": 2.6146009206,
				"element": "C" 
			},
			{
				"x": -0.6181669919,
				"y": -0.5313868734,
				"z": 2.5504581993,
				"element": "S" 
			},
			{
				"x": 1.9111707686,
				"y": 2.7214626675,
				"z": -3.3184032576,
				"element": "H" 
			},
			{
				"x": 0.1625451036,
				"y": -0.579643415,
				"z": -2.6204288712,
				"element": "H" 
			},
			{
				"x": 1.2142979951,
				"y": -0.4640195554,
				"z": -1.2176278292,
				"element": "H" 
			},
			{
				"x": -0.5724507156,
				"y": 1.8259914671,
				"z": -1.533868555,
				"element": "H" 
			},
			{
				"x": -0.4380875591,
				"y": -2.0898036227,
				"z": -0.7221791451,
				"element": "H" 
			},
			{
				"x": -0.243030202,
				"y": -3.8701985381,
				"z": 1.1886000131,
				"element": "H" 
			},
			{
				"x": -0.3707026861,
				"y": -2.7473850233,
				"z": 3.57097484,
				"element": "H" 
			}
		],
		 "valence_orbital": [ 
			{
				"type": "occ",
				"energy": -0.30365,
				"method": "rhf"
			},
			{
				"type": "occ",
				"energy": -0.26408,
				"method": "rhf"
			},
			{
				"type": "occ",
				"energy": -0.26143,
				"method": "rhf"
			},
			{
				"type": "occ",
				"energy": -0.25488,
				"method": "rhf"
			},
			{
				"type": "occ",
				"energy": -0.24312,
				"method": "rhf"
			},
			{
				"type": "unocc",
				"energy": -0.04802,
				"method": "rhf"
			},
			{
				"type": "unocc",
				"energy": -0.01004,
				"method": "rhf"
			},
			{
				"type": "unocc",
				"energy": 0.02676,
				"method": "rhf"
			},
			{
				"type": "unocc",
				"energy": 0.03552,
				"method": "rhf"
			},
			{
				"type": "unocc",
				"energy": 0.05572,
				"method": "rhf"
			}
		],
		"cosmo_sigma_profile": { 
			"-0.025": 0.0,
			"-0.024": 0.0,
			"-0.023": 0.0,
			"-0.022": 0.0,
			"-0.021": 0.0,
			"-0.02": 0.0,
			"-0.019": 0.459741711797,
			"-0.018": 1.18158376183,
			"-0.017": 1.07843857376,
			"-0.016": 0.708636643849,
			"-0.015": 0.831245727717,
			"-0.014": 0.53744916305,
			"-0.013": 0.276994729705,
			"-0.012": 1.27214788186,
			"-0.011": 1.62509338257,
			"-0.01": 0.907782369478,
			"-0.009": 3.48892762995,
			"-0.008": 10.3021220851,
			"-0.007": 12.9784513082,
			"-0.006": 10.8042906615,
			"-0.005": 11.9352523134,
			"-0.004": 10.3626917667,
			"-0.003": 9.92558664676,
			"-0.002": 8.29853991966,
			"-0.001": 10.1907952717,
			"0.0": 10.6432499794,
			"0.001": 11.4650277188,
			"0.002": 15.7007143749,
			"0.003": 19.3223071069,
			"0.004": 12.6851764358,
			"0.005": 5.1211008566,
			"0.006": 2.89035100212,
			"0.007": 2.93837597511,
			"0.008": 2.23197373409,
			"0.009": 3.2336241077,
			"0.01": 4.32108961579,
			"0.011": 7.21497437331,
			"0.012": 4.61585066389,
			"0.013": 5.41660916941,
			"0.014": 2.71842944304,
			"0.015": 0.0185831495884,
			"0.016": 0.0,
			"0.017": 0.0,
			"0.018": 0.0,
			"0.019": 0.0,
			"0.02": 0.0,
			"0.021": 0.0,
			"0.022": 0.0,
			"0.023": 0.0,
			"0.024": 0.0,
			"0.0": 0.0
		}
	}
}
