{
	 "smiles": "CN1N=C(CO)C=C1C", 
	 "Tm": 323.65, 
	 "num_atms": 19, 
	 "gaussian": { 
		 "optdone": 1, 
		 "sigma_profile": "yes", 
		 "theory": "DFT", 
		 "functional": "B3LYP", 
		 "basiset": "6-31G**", 
		 "properties": { 
			 "R2extent": 1421.2073, 
			 "electric_dipole_moment_norm": 1.21980226266, 
			 "electric_quadrupole_moment_norm": 11.7940521022, 
			 "total_energy": -419.363562099, 
			 "HOMO_LUMO_gap": 0.25028, 
			 "cosmo_polarized_energy": -11.52, 
			 "cosmo_cavitation_energy": 22.37, 
			 "cosmo_dispersion_energy": -16.59, 
			 "cosmo_repulsion_energy": 1.39, 
			 "cosmo_total_nonelectrostatic_energy": 7.17, 
			 "SMD_solvation_energy": 3.2 
		},
		"coords": [
			{
				"x": -2.4741501774,
				"y": -0.0738695066,
				"z": -0.7671985331,
				"element": "C" 
			},
			{
				"x": -1.0672261666,
				"y": -0.0587277501,
				"z": -0.4228979436,
				"element": "N" 
			},
			{
				"x": -0.1618846472,
				"y": 0.3809320454,
				"z": -1.3337445447,
				"element": "N" 
			},
			{
				"x": 1.0156143126,
				"y": 0.2699786942,
				"z": -0.7195431089,
				"element": "C" 
			},
			{
				"x": 2.2804297258,
				"y": 0.6692166278,
				"z": -1.4254943086,
				"element": "C" 
			},
			{
				"x": 3.3710297199,
				"y": 0.4463355423,
				"z": -0.5408623906,
				"element": "O" 
			},
			{
				"x": 0.8752976371,
				"y": -0.2411207668,
				"z": 0.5882727567,
				"element": "C" 
			},
			{
				"x": -0.4856906212,
				"y": -0.4438696808,
				"z": 0.7507098863,
				"element": "C" 
			},
			{
				"x": -1.2721948527,
				"y": -0.9656367823,
				"z": 1.9109329115,
				"element": "C" 
			},
			{
				"x": -3.0546336736,
				"y": 0.567740381,
				"z": -0.0951907487,
				"element": "H" 
			},
			{
				"x": -2.5591574133,
				"y": 0.3037315722,
				"z": -1.7854523759,
				"element": "H" 
			},
			{
				"x": -2.882898657,
				"y": -1.0893872519,
				"z": -0.7240489254,
				"element": "H" 
			},
			{
				"x": 2.214556064,
				"y": 1.727313021,
				"z": -1.7259480621,
				"element": "H" 
			},
			{
				"x": 2.3852644674,
				"y": 0.0808364407,
				"z": -2.3512366732,
				"element": "H" 
			},
			{
				"x": 4.179376943,
				"y": 0.7040997329,
				"z": -0.9988826021,
				"element": "H" 
			},
			{
				"x": 1.6589746067,
				"y": -0.4317874437,
				"z": 1.3045411512,
				"element": "H" 
			},
			{
				"x": -1.9995307274,
				"y": -0.2317430158,
				"z": 2.279606859,
				"element": "H" 
			},
			{
				"x": -1.8289057771,
				"y": -1.8759234692,
				"z": 1.65599293,
				"element": "H" 
			},
			{
				"x": -0.5986707631,
				"y": -1.2085183902,
				"z": 2.7355437221,
				"element": "H" 
			}
		],
		 "valence_orbital": [ 
			{
				"type": "occ",
				"energy": -0.32945,
				"method": "rhf"
			},
			{
				"type": "occ",
				"energy": -0.27152,
				"method": "rhf"
			},
			{
				"type": "occ",
				"energy": -0.2674,
				"method": "rhf"
			},
			{
				"type": "occ",
				"energy": -0.22539,
				"method": "rhf"
			},
			{
				"type": "occ",
				"energy": -0.21941,
				"method": "rhf"
			},
			{
				"type": "unocc",
				"energy": 0.03087,
				"method": "rhf"
			},
			{
				"type": "unocc",
				"energy": 0.08039,
				"method": "rhf"
			},
			{
				"type": "unocc",
				"energy": 0.08696,
				"method": "rhf"
			},
			{
				"type": "unocc",
				"energy": 0.08859,
				"method": "rhf"
			},
			{
				"type": "unocc",
				"energy": 0.12201,
				"method": "rhf"
			}
		],
		"cosmo_sigma_profile": { 
			"-0.025": 0.0,
			"-0.024": 0.0,
			"-0.023": 0.0,
			"-0.022": 0.0,
			"-0.021": 0.0,
			"-0.02": 0.0,
			"-0.019": 0.0,
			"-0.018": 0.0,
			"-0.017": 0.0,
			"-0.016": 0.659686276982,
			"-0.015": 1.31790913251,
			"-0.014": 0.9842756317,
			"-0.013": 0.504050708358,
			"-0.012": 1.09934575686,
			"-0.011": 1.01289790499,
			"-0.01": 0.666697709673,
			"-0.009": 0.865378132585,
			"-0.008": 0.607955049295,
			"-0.007": 1.28656504307,
			"-0.006": 5.13713327479,
			"-0.005": 17.7537774769,
			"-0.004": 20.3099756471,
			"-0.003": 20.800101439,
			"-0.002": 16.7416247312,
			"-0.001": 12.2236369375,
			"0.0": 9.03149096985,
			"0.001": 5.72531996119,
			"0.002": 5.2154419978,
			"0.003": 6.18406009887,
			"0.004": 5.99435735615,
			"0.005": 5.70042201241,
			"0.006": 9.92756465356,
			"0.007": 5.25829084122,
			"0.008": 3.29545878407,
			"0.009": 3.17396208045,
			"0.01": 2.68674913635,
			"0.011": 3.06004531664,
			"0.012": 3.37758314595,
			"0.013": 2.21627204494,
			"0.014": 1.2694985526,
			"0.015": 0.561864271898,
			"0.016": 0.801063804914,
			"0.017": 0.204694221751,
			"0.018": 0.0,
			"0.019": 0.0,
			"0.02": 0.0,
			"0.021": 0.0,
			"0.022": 0.0,
			"0.023": 0.0,
			"0.024": 0.0,
			"0.025": 0.0
		}
	}
}
