{
	 "smiles": "CN(C)C1=NC(=S)SS1", 
	 "Tm": 449.15, 
	 "num_atms": 15, 
	 "gaussian": { 
		 "optdone": 1, 
		 "sigma_profile": "yes", 
		 "theory": "DFT", 
		 "functional": "B3LYP", 
		 "basiset": "6-31G**", 
		 "properties": { 
			 "R2extent": 6549.4318, 
			 "electric_dipole_moment_norm": 7.62289812801, 
			 "electric_quadrupole_moment_norm": 32.3481405039, 
			 "total_energy": -1460.10056396, 
			 "HOMO_LUMO_gap": 0.14738, 
			 "cosmo_polarized_energy": -15.48, 
			 "cosmo_cavitation_energy": 23.53, 
			 "cosmo_dispersion_energy": -19.1, 
			 "cosmo_repulsion_energy": 1.42, 
			 "cosmo_total_nonelectrostatic_energy": 5.86, 
			 "SMD_solvation_energy": 1.03 
		},
		"coords": [
			{
				"x": -0.5294002167,
				"y": -1.7456098712,
				"z": 0.7683815935,
				"element": "C" 
			},
			{
				"x": -1.4351879703,
				"y": -1.0368633281,
				"z": -0.138636782,
				"element": "N" 
			},
			{
				"x": -1.482800284,
				"y": 0.4159918363,
				"z": -0.0335895732,
				"element": "C" 
			},
			{
				"x": -2.0534110394,
				"y": -1.6990467114,
				"z": -1.1350378927,
				"element": "C" 
			},
			{
				"x": -1.9684116704,
				"y": -2.9982282657,
				"z": -1.2710685384,
				"element": "N" 
			},
			{
				"x": -2.6309590231,
				"y": -3.6013314162,
				"z": -2.2761659884,
				"element": "C" 
			},
			{
				"x": -2.6941092972,
				"y": -5.2089823828,
				"z": -2.6551365356,
				"element": "S" 
			},
			{
				"x": -3.581592106,
				"y": -2.4887556295,
				"z": -3.342909307,
				"element": "S" 
			},
			{
				"x": -3.0212322866,
				"y": -0.7341386245,
				"z": -2.309912748,
				"element": "S" 
			},
			{
				"x": -0.7874015682,
				"y": -1.5007285093,
				"z": 1.8034009552,
				"element": "H" 
			},
			{
				"x": 0.5083662839,
				"y": -1.4459273189,
				"z": 0.5802809276,
				"element": "H" 
			},
			{
				"x": -0.6315078921,
				"y": -2.816028953,
				"z": 0.6056826258,
				"element": "H" 
			},
			{
				"x": -0.7620989206,
				"y": 0.8988004746,
				"z": -0.705681557,
				"element": "H" 
			},
			{
				"x": -2.4860031401,
				"y": 0.7869045301,
				"z": -0.2623405019,
				"element": "H" 
			},
			{
				"x": -1.2463508689,
				"y": 0.6978441698,
				"z": 0.9942333222,
				"element": "H" 
			}
		],
		 "valence_orbital": [ 
			{
				"type": "occ",
				"energy": -0.32058,
				"method": "rhf"
			},
			{
				"type": "occ",
				"energy": -0.28989,
				"method": "rhf"
			},
			{
				"type": "occ",
				"energy": -0.25328,
				"method": "rhf"
			},
			{
				"type": "occ",
				"energy": -0.21947,
				"method": "rhf"
			},
			{
				"type": "occ",
				"energy": -0.21483,
				"method": "rhf"
			},
			{
				"type": "unocc",
				"energy": -0.06745,
				"method": "rhf"
			},
			{
				"type": "unocc",
				"energy": -0.06501,
				"method": "rhf"
			},
			{
				"type": "unocc",
				"energy": -0.00216,
				"method": "rhf"
			},
			{
				"type": "unocc",
				"energy": 0.02563,
				"method": "rhf"
			},
			{
				"type": "unocc",
				"energy": 0.05493,
				"method": "rhf"
			}
		],
		"cosmo_sigma_profile": { 
			"-0.025": 0.0,
			"-0.024": 0.0,
			"-0.023": 0.0,
			"-0.022": 0.0,
			"-0.021": 0.0,
			"-0.02": 0.0,
			"-0.019": 0.0,
			"-0.018": 0.0,
			"-0.017": 0.0,
			"-0.016": 0.0,
			"-0.015": 0.0,
			"-0.014": 0.0,
			"-0.013": 0.0,
			"-0.012": 0.0,
			"-0.011": 0.0,
			"-0.01": 0.0,
			"-0.009": 0.0506466291945,
			"-0.008": 3.26022793516,
			"-0.007": 9.82239081428,
			"-0.006": 16.8696823464,
			"-0.005": 17.825193332,
			"-0.004": 19.4129206553,
			"-0.003": 14.9852450183,
			"-0.002": 9.26641219761,
			"-0.001": 10.1961357263,
			"0.0": 9.25620029586,
			"0.001": 9.59963955677,
			"0.002": 11.0242674835,
			"0.003": 12.0756204026,
			"0.004": 9.08366331731,
			"0.005": 6.22542774886,
			"0.006": 6.39464761027,
			"0.007": 6.20240513192,
			"0.008": 9.36345172042,
			"0.009": 6.01437209658,
			"0.01": 4.48166891157,
			"0.011": 3.17189864271,
			"0.012": 0.718921594069,
			"0.013": 0.0,
			"0.014": 0.0,
			"0.015": 0.0,
			"0.016": 0.0,
			"0.017": 0.0,
			"0.018": 0.0,
			"0.019": 0.0,
			"0.02": 0.0,
			"0.021": 0.0,
			"0.022": 0.0,
			"0.023": 0.0,
			"0.024": 0.0,
			"0.025": 0.0
		}
	}
}
