{
	 "smiles": "CC(O)C1=CC(=C(C)C=C1)[N+]([O-])=O", 
	 "Tm": 322.15, 
	 "num_atms": 24, 
	 "gaussian": { 
		 "optdone": 1, 
		 "sigma_profile": "yes", 
		 "theory": "DFT", 
		 "functional": "B3LYP", 
		 "basiset": "6-31G**", 
		 "properties": { 
			 "R2extent": 2770.0919, 
			 "electric_dipole_moment_norm": 4.91370309644, 
			 "electric_quadrupole_moment_norm": 7.42220093773, 
			 "total_energy": -629.913731801, 
			 "HOMO_LUMO_gap": 0.17459, 
			 "cosmo_polarized_energy": -11.91, 
			 "cosmo_cavitation_energy": 27.88, 
			 "cosmo_dispersion_energy": -20.02, 
			 "cosmo_repulsion_energy": 1.6, 
			 "cosmo_total_nonelectrostatic_energy": 9.46, 
			 "SMD_solvation_energy": 6.96 
		},
		"coords": [
			{
				"x": -1.7682451847,
				"y": -0.3020202382,
				"z": 2.981073576,
				"element": "C" 
			},
			{
				"x": -0.3319115827,
				"y": -0.7188687479,
				"z": 2.6588001195,
				"element": "C" 
			},
			{
				"x": -0.3800621761,
				"y": -2.1092953479,
				"z": 2.3604100553,
				"element": "O" 
			},
			{
				"x": 0.2509460471,
				"y": 0.0962040979,
				"z": 1.5114194742,
				"element": "C" 
			},
			{
				"x": 0.1472381598,
				"y": -0.3518856552,
				"z": 0.1968612556,
				"element": "C" 
			},
			{
				"x": 0.6472508746,
				"y": 0.4181715834,
				"z": -0.8555278609,
				"element": "C" 
			},
			{
				"x": 1.2800853725,
				"y": 1.6609797186,
				"z": -0.6555299177,
				"element": "C" 
			},
			{
				"x": 1.8579646425,
				"y": 2.5390944639,
				"z": -1.7381625444,
				"element": "C" 
			},
			{
				"x": 1.3835055744,
				"y": 2.0767606534,
				"z": 0.6814261715,
				"element": "C" 
			},
			{
				"x": 0.8843701235,
				"y": 1.3232720526,
				"z": 1.7399190713,
				"element": "C" 
			},
			{
				"x": 0.4790299148,
				"y": -0.1524585038,
				"z": -2.2054758623,
				"element": "N" 
			},
			{
				"x": 0.196457136,
				"y": -1.3476399291,
				"z": -2.2898665724,
				"element": "O" 
			},
			{
				"x": 0.6212088498,
				"y": 0.5922846298,
				"z": -3.1765941278,
				"element": "O" 
			},
			{
				"x": -2.1516897594,
				"y": -0.9043238908,
				"z": 3.8092928303,
				"element": "H" 
			},
			{
				"x": -1.8137933015,
				"y": 0.7546453366,
				"z": 3.2593132882,
				"element": "H" 
			},
			{
				"x": -2.4082868139,
				"y": -0.4613187727,
				"z": 2.108376969,
				"element": "H" 
			},
			{
				"x": 0.2908579991,
				"y": -0.5414713165,
				"z": 3.5516441082,
				"element": "H" 
			},
			{
				"x": 0.5186424416,
				"y": -2.4073212825,
				"z": 2.1653455946,
				"element": "H" 
			},
			{
				"x": -0.3181685548,
				"y": -1.3045259629,
				"z": -0.021366115,
				"element": "H" 
			},
			{
				"x": 2.5274527717,
				"y": 1.985228943,
				"z": -2.4006546961,
				"element": "H" 
			},
			{
				"x": 2.413420188,
				"y": 3.3637569085,
				"z": -1.2836607464,
				"element": "H" 
			},
			{
				"x": 1.0729205085,
				"y": 2.9519942286,
				"z": -2.3768443493,
				"element": "H" 
			},
			{
				"x": 1.8800003267,
				"y": 3.0204648897,
				"z": 0.8885089382,
				"element": "H" 
			},
			{
				"x": 0.9957064424,
				"y": 1.6923721415,
				"z": 2.7569913403,
				"element": "H" 
			}
		],
		 "valence_orbital": [ 
			{
				"type": "occ",
				"energy": -0.30211,
				"method": "rhf"
			},
			{
				"type": "occ",
				"energy": -0.29192,
				"method": "rhf"
			},
			{
				"type": "occ",
				"energy": -0.28495,
				"method": "rhf"
			},
			{
				"type": "occ",
				"energy": -0.2746,
				"method": "rhf"
			},
			{
				"type": "occ",
				"energy": -0.25856,
				"method": "rhf"
			},
			{
				"type": "unocc",
				"energy": -0.08397,
				"method": "rhf"
			},
			{
				"type": "unocc",
				"energy": -0.02265,
				"method": "rhf"
			},
			{
				"type": "unocc",
				"energy": -0.00296,
				"method": "rhf"
			},
			{
				"type": "unocc",
				"energy": 0.0729,
				"method": "rhf"
			},
			{
				"type": "unocc",
				"energy": 0.08942,
				"method": "rhf"
			}
		],
		"cosmo_sigma_profile": { 
			"-0.025": 0.0,
			"-0.024": 0.0,
			"-0.023": 0.0,
			"-0.022": 0.0,
			"-0.021": 0.0,
			"-0.02": 0.0,
			"-0.019": 0.0,
			"-0.018": 0.0,
			"-0.017": 0.0,
			"-0.016": 0.386655040346,
			"-0.015": 0.826104678221,
			"-0.014": 1.08271078493,
			"-0.013": 1.0286463849,
			"-0.012": 0.627880737896,
			"-0.011": 0.6590793251,
			"-0.01": 1.06392004829,
			"-0.009": 0.873250667833,
			"-0.008": 0.624014212421,
			"-0.007": 4.73359468125,
			"-0.006": 9.80351342868,
			"-0.005": 12.3774303088,
			"-0.004": 18.0647810924,
			"-0.003": 17.6161213868,
			"-0.002": 20.9020609413,
			"-0.001": 22.1953521578,
			"0.0": 23.4530881834,
			"0.001": 16.2913361012,
			"0.002": 12.4188572981,
			"0.003": 9.27270173909,
			"0.004": 4.57084172214,
			"0.005": 5.55525106572,
			"0.006": 3.39951574569,
			"0.007": 6.14078585958,
			"0.008": 9.75889309508,
			"0.009": 5.79340378877,
			"0.01": 4.66570968946,
			"0.011": 1.82234419466,
			"0.012": 1.2722013777,
			"0.013": 1.76493656551,
			"0.014": 0.946014302947,
			"0.015": 0.0,
			"0.016": 0.0,
			"0.017": 0.0,
			"0.018": 0.0,
			"0.019": 0.0,
			"0.02": 0.0,
			"0.021": 0.0,
			"0.022": 0.0,
			"0.023": 0.0,
			"0.024": 0.0,
			"0.025": 0.0
		}
	}
}
