{
	 "smiles": "CS(=O)CCC(O)=O", 
	 "Tm": 331.15, 
	 "num_atms": 16, 
	 "gaussian": { 
		 "optdone": 1, 
		 "sigma_profile": "yes", 
		 "theory": "DFT", 
		 "functional": "B3LYP", 
		 "basiset": "6-31G**", 
		 "properties": { 
			 "R2extent": 1632.4828, 
			 "electric_dipole_moment_norm": 4.57896758451, 
			 "electric_quadrupole_moment_norm": 13.6228304585, 
			 "total_energy": -781.064573063, 
			 "HOMO_LUMO_gap": 0.23908, 
			 "cosmo_polarized_energy": -22.09, 
			 "cosmo_cavitation_energy": 21.26, 
			 "cosmo_dispersion_energy": -16.09, 
			 "cosmo_repulsion_energy": 1.31, 
			 "cosmo_total_nonelectrostatic_energy": 6.48, 
			 "SMD_solvation_energy": 4.73 
		},
		"coords": [
			{
				"x": -0.7885029011,
				"y": 1.9833622516,
				"z": 0.2595825398,
				"element": "C" 
			},
			{
				"x": -1.3819577669,
				"y": 0.2701128569,
				"z": -0.0365785598,
				"element": "S" 
			},
			{
				"x": -1.1997616274,
				"y": -0.0177499852,
				"z": -1.5143174193,
				"element": "O" 
			},
			{
				"x": -0.0078284673,
				"y": -0.6203539738,
				"z": 0.8413332646,
				"element": "C" 
			},
			{
				"x": 1.251396421,
				"y": -0.6689384035,
				"z": -0.0122353922,
				"element": "C" 
			},
			{
				"x": 2.1604614419,
				"y": -1.8325791658,
				"z": 0.3644696833,
				"element": "C" 
			},
			{
				"x": 3.3368579815,
				"y": -1.8841467857,
				"z": -0.3134876453,
				"element": "O" 
			},
			{
				"x": 1.8994127238,
				"y": -2.670390328,
				"z": 1.1905926373,
				"element": "O" 
			},
			{
				"x": -1.4759728073,
				"y": 2.6450097711,
				"z": -0.2707487728,
				"element": "H" 
			},
			{
				"x": 0.2196010947,
				"y": 2.1147768505,
				"z": -0.1398003406,
				"element": "H" 
			},
			{
				"x": -0.8177908696,
				"y": 2.2012761259,
				"z": 1.3306185002,
				"element": "H" 
			},
			{
				"x": -0.3741692815,
				"y": -1.6356772085,
				"z": 1.0101523852,
				"element": "H" 
			},
			{
				"x": 0.140956815,
				"y": -0.1509687208,
				"z": 1.8175655837,
				"element": "H" 
			},
			{
				"x": 1.8255749251,
				"y": 0.263364471,
				"z": 0.0577924167,
				"element": "H" 
			},
			{
				"x": 0.9459597069,
				"y": -0.7728741479,
				"z": -1.0648823002,
				"element": "H" 
			},
			{
				"x": 3.3830626113,
				"y": -1.1694236077,
				"z": -0.9646565806,
				"element": "H" 
			}
		],
		 "valence_orbital": [ 
			{
				"type": "occ",
				"energy": -0.35652,
				"method": "rhf"
			},
			{
				"type": "occ",
				"energy": -0.32278,
				"method": "rhf"
			},
			{
				"type": "occ",
				"energy": -0.28023,
				"method": "rhf"
			},
			{
				"type": "occ",
				"energy": -0.27172,
				"method": "rhf"
			},
			{
				"type": "occ",
				"energy": -0.23539,
				"method": "rhf"
			},
			{
				"type": "unocc",
				"energy": 0.00369,
				"method": "rhf"
			},
			{
				"type": "unocc",
				"energy": 0.03127,
				"method": "rhf"
			},
			{
				"type": "unocc",
				"energy": 0.03349,
				"method": "rhf"
			},
			{
				"type": "unocc",
				"energy": 0.0498,
				"method": "rhf"
			},
			{
				"type": "unocc",
				"energy": 0.06819,
				"method": "rhf"
			}
		],
		"cosmo_sigma_profile": { 
			"-0.025": 0.0,
			"-0.024": 0.0,
			"-0.023": 0.0,
			"-0.022": 0.0,
			"-0.021": 0.0,
			"-0.02": 0.00207520561603,
			"-0.019": 0.881585602205,
			"-0.018": 1.08799630064,
			"-0.017": 1.28366748769,
			"-0.016": 1.1679096448,
			"-0.015": 0.950408871468,
			"-0.014": 0.882382339551,
			"-0.013": 0.66338318091,
			"-0.012": 1.62553720361,
			"-0.011": 1.46977509559,
			"-0.01": 1.34185479088,
			"-0.009": 2.90345641159,
			"-0.008": 6.64550512009,
			"-0.007": 13.5730326747,
			"-0.006": 13.9861577856,
			"-0.005": 10.4130665127,
			"-0.004": 10.3473537898,
			"-0.003": 11.7712483624,
			"-0.002": 8.02566455704,
			"-0.001": 6.39297358049,
			"0.0": 4.31977780797,
			"0.001": 3.80119500392,
			"0.002": 5.15180612691,
			"0.003": 4.7399342171,
			"0.004": 4.65350637817,
			"0.005": 4.00919225998,
			"0.006": 3.07954298613,
			"0.007": 3.90666630112,
			"0.008": 2.96019852512,
			"0.009": 4.41893729263,
			"0.01": 6.21687849535,
			"0.011": 7.2423121154,
			"0.012": 5.90453904199,
			"0.013": 2.71257212065,
			"0.014": 3.78161176394,
			"0.015": 4.05909089685,
			"0.016": 1.86848442537,
			"0.017": 0.0412028190527,
			"0.018": 0.0,
			"0.019": 0.0,
			"0.02": 0.0,
			"0.021": 0.0,
			"0.022": 0.0,
			"0.023": 0.0,
			"0.024": 0.0,
			"0.025": 0.0
		}
	}
}
