{
	 "smiles": "CC(=O)C1=C(Cl)C=CC=C1Cl", 
	 "Tm": 316.15, 
	 "num_atms": 17, 
	 "gaussian": { 
		 "optdone": 1, 
		 "sigma_profile": "yes", 
		 "theory": "DFT", 
		 "functional": "B3LYP", 
		 "basiset": "6-31G**", 
		 "properties": { 
			 "R2extent": 2222.7009, 
			 "electric_dipole_moment_norm": 3.41962543124, 
			 "electric_quadrupole_moment_norm": 9.30766530286, 
			 "total_energy": -1304.06443881, 
			 "HOMO_LUMO_gap": 0.22309, 
			 "cosmo_polarized_energy": -8.1, 
			 "cosmo_cavitation_energy": 25.17, 
			 "cosmo_dispersion_energy": -17.91, 
			 "cosmo_repulsion_energy": 1.45, 
			 "cosmo_total_nonelectrostatic_energy": 8.7, 
			 "SMD_solvation_energy": 4.56 
		},
		"coords": [
			{
				"x": -0.7591326594,
				"y": 0.9941330874,
				"z": -2.675653142,
				"element": "C" 
			},
			{
				"x": 0.1213285781,
				"y": 0.0446585083,
				"z": -1.8826332609,
				"element": "C" 
			},
			{
				"x": 1.0117054096,
				"y": -0.5975754955,
				"z": -2.3942596391,
				"element": "O" 
			},
			{
				"x": -0.1481445796,
				"y": -0.0854073543,
				"z": -0.3871127779,
				"element": "C" 
			},
			{
				"x": 0.5027899364,
				"y": 0.7303753798,
				"z": 0.5450364681,
				"element": "C" 
			},
			{
				"x": 1.6032441867,
				"y": 1.9787835473,
				"z": -0.0256975631,
				"element": "Cl" 
			},
			{
				"x": 0.3012611119,
				"y": 0.5936523237,
				"z": 1.9173404713,
				"element": "C" 
			},
			{
				"x": -0.5788176825,
				"y": -0.3842504937,
				"z": 2.3780549174,
				"element": "C" 
			},
			{
				"x": -1.2535564832,
				"y": -1.2099544634,
				"z": 1.4802611839,
				"element": "C" 
			},
			{
				"x": -1.0308774835,
				"y": -1.048671093,
				"z": 0.1139109018,
				"element": "C" 
			},
			{
				"x": -1.9002273707,
				"y": -2.0854830041,
				"z": -1.0106043278,
				"element": "Cl" 
			},
			{
				"x": -1.5097393132,
				"y": 1.491601402,
				"z": -2.0588428872,
				"element": "H" 
			},
			{
				"x": -0.1236807657,
				"y": 1.7461378547,
				"z": -3.1535309851,
				"element": "H" 
			},
			{
				"x": -1.2566149537,
				"y": 0.4303345172,
				"z": -3.4708360085,
				"element": "H" 
			},
			{
				"x": 0.8277351655,
				"y": 1.2439025244,
				"z": 2.6064470448,
				"element": "H" 
			},
			{
				"x": -0.7423771928,
				"y": -0.5017370069,
				"z": 3.4446586685,
				"element": "H" 
			},
			{
				"x": -1.9432959038,
				"y": -1.970600234,
				"z": 1.8274609359,
				"element": "H" 
			}
		],
		 "valence_orbital": [ 
			{
				"type": "occ",
				"energy": -0.33105,
				"method": "rhf"
			},
			{
				"type": "occ",
				"energy": -0.32272,
				"method": "rhf"
			},
			{
				"type": "occ",
				"energy": -0.27305,
				"method": "rhf"
			},
			{
				"type": "occ",
				"energy": -0.25934,
				"method": "rhf"
			},
			{
				"type": "occ",
				"energy": -0.25806,
				"method": "rhf"
			},
			{
				"type": "unocc",
				"energy": -0.03497,
				"method": "rhf"
			},
			{
				"type": "unocc",
				"energy": -0.03234,
				"method": "rhf"
			},
			{
				"type": "unocc",
				"energy": -0.03055,
				"method": "rhf"
			},
			{
				"type": "unocc",
				"energy": -0.00108,
				"method": "rhf"
			},
			{
				"type": "unocc",
				"energy": 0.0428,
				"method": "rhf"
			}
		],
		"cosmo_sigma_profile": { 
			"-0.025": 0.0,
			"-0.024": 0.0,
			"-0.023": 0.0,
			"-0.022": 0.0,
			"-0.021": 0.0,
			"-0.02": 0.0,
			"-0.019": 0.0,
			"-0.018": 0.0,
			"-0.017": 0.0,
			"-0.016": 0.0,
			"-0.015": 0.0,
			"-0.014": 0.0,
			"-0.013": 0.0,
			"-0.012": 0.0,
			"-0.011": 0.0,
			"-0.01": 0.0,
			"-0.009": 0.070752216944,
			"-0.008": 4.29893889755,
			"-0.007": 7.95257567427,
			"-0.006": 11.2470707379,
			"-0.005": 10.9012672253,
			"-0.004": 10.9810642162,
			"-0.003": 13.4341367575,
			"-0.002": 15.7282069584,
			"-0.001": 17.0719500322,
			"0.0": 18.1720318363,
			"0.001": 23.8835103855,
			"0.002": 20.7587134593,
			"0.003": 17.1822803984,
			"0.004": 15.2627389406,
			"0.005": 2.02321982926,
			"0.006": 1.98161224672,
			"0.007": 1.71151506757,
			"0.008": 2.02492743616,
			"0.009": 2.00981555007,
			"0.01": 4.15897381555,
			"0.011": 3.88432338307,
			"0.012": 1.24618773718,
			"0.013": 0.0,
			"0.014": 0.0,
			"0.015": 0.0,
			"0.016": 0.0,
			"0.017": 0.0,
			"0.018": 0.0,
			"0.019": 0.0,
			"0.02": 0.0,
			"0.021": 0.0,
			"0.022": 0.0,
			"0.023": 0.0,
			"0.024": 0.0,
			"0.025": 0.0
		}
	}
}
