{
	 "smiles": "CCC1=NOC(=N1)C1=C(N)C=CC(Cl)=C1", 
	 "Tm": 381.15, 
	 "num_atms": 25, 
	 "gaussian": { 
		 "optdone": 1, 
		 "sigma_profile": "yes", 
		 "theory": "DFT", 
		 "functional": "B3LYP", 
		 "basiset": "6-31G**", 
		 "properties": { 
			 "R2extent": 5823.9247, 
			 "electric_dipole_moment_norm": 4.68881314087, 
			 "electric_quadrupole_moment_norm": 11.0445577331, 
			 "total_energy": -1086.74995792, 
			 "HOMO_LUMO_gap": 0.15131, 
			 "cosmo_polarized_energy": -10.15, 
			 "cosmo_cavitation_energy": 31.15, 
			 "cosmo_dispersion_energy": -23.14, 
			 "cosmo_repulsion_energy": 1.83, 
			 "cosmo_total_nonelectrostatic_energy": 9.83, 
			 "SMD_solvation_energy": 3.7 
		},
		"coords": [
			{
				"x": -1.9838219058,
				"y": -0.2903270842,
				"z": 2.6938522327,
				"element": "C" 
			},
			{
				"x": -1.971322886,
				"y": 0.9155026808,
				"z": 1.7405911756,
				"element": "C" 
			},
			{
				"x": -0.7336745894,
				"y": 0.9736354766,
				"z": 0.9010658314,
				"element": "C" 
			},
			{
				"x": 0.1185489987,
				"y": 1.9643924586,
				"z": 0.9792718618,
				"element": "N" 
			},
			{
				"x": 1.1149319325,
				"y": 1.6144990937,
				"z": 0.0433031436,
				"element": "O" 
			},
			{
				"x": 0.7478854891,
				"y": 0.4377008125,
				"z": -0.4998984146,
				"element": "C" 
			},
			{
				"x": -0.3874047241,
				"y": -0.0046479391,
				"z": -0.004282234,
				"element": "N" 
			},
			{
				"x": 1.5892441717,
				"y": -0.1669921884,
				"z": -1.5154523258,
				"element": "C" 
			},
			{
				"x": 1.2372696601,
				"y": -1.4168690495,
				"z": -2.1058729365,
				"element": "C" 
			},
			{
				"x": 0.1316082387,
				"y": -2.1133014785,
				"z": -1.7187670865,
				"element": "N" 
			},
			{
				"x": 2.0942273134,
				"y": -1.9335285109,
				"z": -3.1056930711,
				"element": "C" 
			},
			{
				"x": 3.23882489,
				"y": -1.2634517603,
				"z": -3.499177006,
				"element": "C" 
			},
			{
				"x": 3.5727328644,
				"y": -0.0398544894,
				"z": -2.9019599894,
				"element": "C" 
			},
			{
				"x": 5.0306414257,
				"y": 0.8044776845,
				"z": -3.4060481911,
				"element": "Cl" 
			},
			{
				"x": 2.7601533711,
				"y": 0.5023986329,
				"z": -1.9243322526,
				"element": "C" 
			},
			{
				"x": -1.8949733202,
				"y": -1.2280866679,
				"z": 2.1382986343,
				"element": "H" 
			},
			{
				"x": -2.9174369663,
				"y": -0.3159943666,
				"z": 3.2633788544,
				"element": "H" 
			},
			{
				"x": -1.1531640215,
				"y": -0.2370262551,
				"z": 3.4039961911,
				"element": "H" 
			},
			{
				"x": -2.8374885884,
				"y": 0.8645778677,
				"z": 1.0698899279,
				"element": "H" 
			},
			{
				"x": -2.046174657,
				"y": 1.8524225264,
				"z": 2.2996474186,
				"element": "H" 
			},
			{
				"x": -0.5148713608,
				"y": -1.6806601037,
				"z": -1.0686486875,
				"element": "H" 
			},
			{
				"x": -0.1566290514,
				"y": -2.9161037151,
				"z": -2.2522534811,
				"element": "H" 
			},
			{
				"x": 1.8430838982,
				"y": -2.8839523415,
				"z": -3.5685305686,
				"element": "H" 
			},
			{
				"x": 3.8793349405,
				"y": -1.6822621245,
				"z": -4.2678811121,
				"element": "H" 
			},
			{
				"x": 3.0138748769,
				"y": 1.4505508411,
				"z": -1.4655979144,
				"element": "H" 
			}
		],
		 "valence_orbital": [ 
			{
				"type": "occ",
				"energy": -0.31043,
				"method": "rhf"
			},
			{
				"type": "occ",
				"energy": -0.30161,
				"method": "rhf"
			},
			{
				"type": "occ",
				"energy": -0.29576,
				"method": "rhf"
			},
			{
				"type": "occ",
				"energy": -0.25643,
				"method": "rhf"
			},
			{
				"type": "occ",
				"energy": -0.20907,
				"method": "rhf"
			},
			{
				"type": "unocc",
				"energy": -0.05776,
				"method": "rhf"
			},
			{
				"type": "unocc",
				"energy": -0.00149,
				"method": "rhf"
			},
			{
				"type": "unocc",
				"energy": 0.01479,
				"method": "rhf"
			},
			{
				"type": "unocc",
				"energy": 0.03139,
				"method": "rhf"
			},
			{
				"type": "unocc",
				"energy": 0.05459,
				"method": "rhf"
			}
		],
		"cosmo_sigma_profile": { 
			"-0.025": 0.0,
			"-0.024": 0.0,
			"-0.023": 0.0,
			"-0.022": 0.0,
			"-0.021": 0.0,
			"-0.02": 0.0,
			"-0.019": 0.0,
			"-0.018": 0.0,
			"-0.017": 0.0,
			"-0.016": 0.0,
			"-0.015": 0.0,
			"-0.014": 0.810294872234,
			"-0.013": 1.51085592372,
			"-0.012": 1.60722323539,
			"-0.011": 1.51106864214,
			"-0.01": 1.1355649892,
			"-0.009": 2.09062216699,
			"-0.008": 2.94770693895,
			"-0.007": 5.21506707659,
			"-0.006": 6.83574443159,
			"-0.005": 9.96392467824,
			"-0.004": 13.2172208874,
			"-0.003": 19.4381990752,
			"-0.002": 23.0009881414,
			"-0.001": 23.5459116213,
			"0.0": 22.9256070759,
			"0.001": 20.1884576243,
			"0.002": 23.6351203373,
			"0.003": 23.7463558765,
			"0.004": 15.395610006,
			"0.005": 13.0267951253,
			"0.006": 5.99338493872,
			"0.007": 3.50949074266,
			"0.008": 2.70734594325,
			"0.009": 1.42033117144,
			"0.01": 1.2730457739,
			"0.011": 1.61975708824,
			"0.012": 1.22556222859,
			"0.013": 1.23150127965,
			"0.014": 0.301452616044,
			"0.015": 0.0,
			"0.016": 0.0,
			"0.017": 0.0,
			"0.018": 0.0,
			"0.019": 0.0,
			"0.02": 0.0,
			"0.021": 0.0,
			"0.022": 0.0,
			"0.023": 0.0,
			"0.024": 0.0,
			"0.025": 0.0
		}
	}
}
