{
	 "smiles": "NS(=O)(=O)C1=CC(F)=C(Br)C=C1", 
	 "Tm": 412.15, 
	 "num_atms": 17, 
	 "gaussian": { 
		 "optdone": 1, 
		 "sigma_profile": "yes", 
		 "theory": "DFT", 
		 "functional": "B3LYP", 
		 "basiset": "6-31G**", 
		 "properties": { 
			 "R2extent": 4529.3875, 
			 "electric_dipole_moment_norm": 3.07771293983, 
			 "electric_quadrupole_moment_norm": 14.5443436933, 
			 "total_energy": -3506.20095973, 
			 "HOMO_LUMO_gap": 0.20682, 
			 "cosmo_polarized_energy": -13.88, 
			 "cosmo_cavitation_energy": 25.97, 
			 "cosmo_dispersion_energy": -20.02, 
			 "cosmo_repulsion_energy": 1.53, 
			 "cosmo_total_nonelectrostatic_energy": 7.49, 
			 "SMD_solvation_energy": 3.49 
		},
		"coords": [
			{
				"x": -3.1983556152,
				"y": -0.5537368034,
				"z": -0.2530780133,
				"element": "N" 
			},
			{
				"x": -2.500718374,
				"y": 0.6285630577,
				"z": 0.7364773528,
				"element": "S" 
			},
			{
				"x": -3.1610786771,
				"y": 1.8991766683,
				"z": 0.427436295,
				"element": "O" 
			},
			{
				"x": -2.4400241634,
				"y": 0.0761988146,
				"z": 2.0918481726,
				"element": "O" 
			},
			{
				"x": -0.8165250013,
				"y": 0.7351782342,
				"z": 0.1248803326,
				"element": "C" 
			},
			{
				"x": -0.5248310738,
				"y": 1.649541242,
				"z": -0.8860841986,
				"element": "C" 
			},
			{
				"x": 0.7802844915,
				"y": 1.7200040557,
				"z": -1.3555831863,
				"element": "C" 
			},
			{
				"x": 1.0749378319,
				"y": 2.5949286467,
				"z": -2.3256269498,
				"element": "F" 
			},
			{
				"x": 1.7816977966,
				"y": 0.9009760683,
				"z": -0.8287488848,
				"element": "C" 
			},
			{
				"x": 3.5494318046,
				"y": 1.0342719471,
				"z": -1.4993346956,
				"element": "Br" 
			},
			{
				"x": 1.4721889932,
				"y": 0.0004852695,
				"z": 0.1910432221,
				"element": "C" 
			},
			{
				"x": 0.1678106127,
				"y": -0.085858253,
				"z": 0.6753696306,
				"element": "C" 
			},
			{
				"x": -3.9663524633,
				"y": -0.1467262845,
				"z": -0.7803493815,
				"element": "H" 
			},
			{
				"x": -3.5092936348,
				"y": -1.3344250839,
				"z": 0.31900915,
				"element": "H" 
			},
			{
				"x": -1.2835343694,
				"y": 2.3087431193,
				"z": -1.2913580435,
				"element": "H" 
			},
			{
				"x": 2.2555935841,
				"y": -0.6242150298,
				"z": 0.6044031654,
				"element": "H" 
			},
			{
				"x": -0.0799317423,
				"y": -0.7669056687,
				"z": 1.4811960323,
				"element": "H" 
			}
		],
		 "valence_orbital": [ 
			{
				"type": "occ",
				"energy": -0.31672,
				"method": "rhf"
			},
			{
				"type": "occ",
				"energy": -0.30404,
				"method": "rhf"
			},
			{
				"type": "occ",
				"energy": -0.30307,
				"method": "rhf"
			},
			{
				"type": "occ",
				"energy": -0.28079,
				"method": "rhf"
			},
			{
				"type": "occ",
				"energy": -0.26208,
				"method": "rhf"
			},
			{
				"type": "unocc",
				"energy": -0.05526,
				"method": "rhf"
			},
			{
				"type": "unocc",
				"energy": -0.03189,
				"method": "rhf"
			},
			{
				"type": "unocc",
				"energy": -0.01268,
				"method": "rhf"
			},
			{
				"type": "unocc",
				"energy": 0.04575,
				"method": "rhf"
			},
			{
				"type": "unocc",
				"energy": 0.07568,
				"method": "rhf"
			}
		],
		"cosmo_sigma_profile": { 
			"-0.025": 0.0,
			"-0.024": 0.0,
			"-0.023": 0.0,
			"-0.022": 0.0,
			"-0.021": 0.0,
			"-0.02": 0.0,
			"-0.019": 0.0,
			"-0.018": 0.0,
			"-0.017": 0.0,
			"-0.016": 0.0668629629815,
			"-0.015": 1.55100386767,
			"-0.014": 2.73711676536,
			"-0.013": 2.3209660009,
			"-0.012": 2.74309474171,
			"-0.011": 1.65363842721,
			"-0.01": 1.9972159848,
			"-0.009": 3.38939365312,
			"-0.008": 5.70599439302,
			"-0.007": 7.39477857688,
			"-0.006": 7.16659752275,
			"-0.005": 8.55039187913,
			"-0.004": 6.59969719568,
			"-0.003": 9.77892629399,
			"-0.002": 13.9376928262,
			"-0.001": 18.6956717118,
			"0.0": 20.0396087915,
			"0.001": 14.1696236557,
			"0.002": 12.3166755331,
			"0.003": 22.3350885454,
			"0.004": 11.5091630343,
			"0.005": 4.26697395092,
			"0.006": 3.3269946479,
			"0.007": 3.02800819166,
			"0.008": 2.90371147543,
			"0.009": 5.41219241794,
			"0.01": 9.17755518244,
			"0.011": 7.79841444017,
			"0.012": 1.29780815526,
			"0.013": 0.0,
			"0.014": 0.0,
			"0.015": 0.0,
			"0.016": 0.0,
			"0.017": 0.0,
			"0.018": 0.0,
			"0.019": 0.0,
			"0.02": 0.0,
			"0.021": 0.0,
			"0.022": 0.0,
			"0.023": 0.0,
			"0.024": 0.0,
			"0.025": 0.0
		}
	}
}
