{
	 "smiles": "CCCCCCCCC(O)CCCCCCCC", 
	 "Tm": 334.15, 
	 "num_atms": 54, 
	 "gaussian": { 
		 "optdone": 1, 
		 "sigma_profile": "yes", 
		 "theory": "DFT", 
		 "functional": "B3LYP", 
		 "basiset": "6-31G**", 
		 "properties": { 
			 "R2extent": 11442.5867, 
			 "electric_dipole_moment_norm": 1.51949943402, 
			 "electric_quadrupole_moment_norm": 7.69593028685, 
			 "total_energy": -744.77292471, 
			 "HOMO_LUMO_gap": 0.32757, 
			 "cosmo_polarized_energy": -5.79, 
			 "cosmo_cavitation_energy": 51.46, 
			 "cosmo_dispersion_energy": -34.35, 
			 "cosmo_repulsion_energy": 2.77, 
			 "cosmo_total_nonelectrostatic_energy": 19.88, 
			 "SMD_solvation_energy": 6.86 
		},
		"coords": [
			{
				"x": -7.4142169597,
				"y": -2.0684743987,
				"z": -1.4740976236,
				"element": "C" 
			},
			{
				"x": -5.8895927231,
				"y": -1.9735089733,
				"z": -1.5911255269,
				"element": "C" 
			},
			{
				"x": -5.3523862643,
				"y": -0.5531744294,
				"z": -1.3737999953,
				"element": "C" 
			},
			{
				"x": -3.8261939932,
				"y": -0.4482142463,
				"z": -1.4902099471,
				"element": "C" 
			},
			{
				"x": -3.2996861982,
				"y": 0.9776786779,
				"z": -1.273084531,
				"element": "C" 
			},
			{
				"x": -1.7805078303,
				"y": 1.1437120041,
				"z": -1.4517156841,
				"element": "C" 
			},
			{
				"x": -0.9333504227,
				"y": 0.4335150635,
				"z": -0.3837421363,
				"element": "C" 
			},
			{
				"x": 0.5868137212,
				"y": 0.5427004778,
				"z": -0.5871502735,
				"element": "C" 
			},
			{
				"x": 1.1825065682,
				"y": 1.9548264679,
				"z": -0.5258454695,
				"element": "C" 
			},
			{
				"x": 2.5712366404,
				"y": 1.78911341,
				"z": -0.8457918373,
				"element": "O" 
			},
			{
				"x": 0.97075096,
				"y": 2.6985809183,
				"z": 0.8069766669,
				"element": "C" 
			},
			{
				"x": 1.5979428347,
				"y": 2.0747691787,
				"z": 2.0696460681,
				"element": "C" 
			},
			{
				"x": 3.0962941417,
				"y": 2.3674846317,
				"z": 2.2521121949,
				"element": "C" 
			},
			{
				"x": 3.694186337,
				"y": 1.8118267889,
				"z": 3.5553133986,
				"element": "C" 
			},
			{
				"x": 3.7707549691,
				"y": 0.2790053897,
				"z": 3.7013043134,
				"element": "C" 
			},
			{
				"x": 4.7309822494,
				"y": -0.4486743502,
				"z": 2.7337611902,
				"element": "C" 
			},
			{
				"x": 4.1136267669,
				"y": -0.9353542551,
				"z": 1.4126298944,
				"element": "C" 
			},
			{
				"x": 5.1142104536,
				"y": -1.7048478885,
				"z": 0.5433197229,
				"element": "C" 
			},
			{
				"x": -7.765997421,
				"y": -3.0930488623,
				"z": -1.6339089248,
				"element": "H" 
			},
			{
				"x": -7.7561520901,
				"y": -1.7506012768,
				"z": -0.4823787413,
				"element": "H" 
			},
			{
				"x": -7.9091031749,
				"y": -1.4281339087,
				"z": -2.2133561177,
				"element": "H" 
			},
			{
				"x": -5.4235875959,
				"y": -2.6515664365,
				"z": -0.8630763744,
				"element": "H" 
			},
			{
				"x": -5.5753548764,
				"y": -2.3311598251,
				"z": -2.5812258094,
				"element": "H" 
			},
			{
				"x": -5.6666773556,
				"y": -0.1955635244,
				"z": -0.3825294834,
				"element": "H" 
			},
			{
				"x": -5.8201958646,
				"y": 0.1259797146,
				"z": -2.1012303333,
				"element": "H" 
			},
			{
				"x": -3.3665344661,
				"y": -1.1343388222,
				"z": -0.7667034201,
				"element": "H" 
			},
			{
				"x": -3.5130811477,
				"y": -0.800344361,
				"z": -2.4839031761,
				"element": "H" 
			},
			{
				"x": -3.810649985,
				"y": 1.6494105611,
				"z": -1.9762565493,
				"element": "H" 
			},
			{
				"x": -3.5856004996,
				"y": 1.3208942874,
				"z": -0.2681608817,
				"element": "H" 
			},
			{
				"x": -1.5493827645,
				"y": 2.21646613,
				"z": -1.4485519519,
				"element": "H" 
			},
			{
				"x": -1.4895765617,
				"y": 0.7756279969,
				"z": -2.446280351,
				"element": "H" 
			},
			{
				"x": -1.1878042416,
				"y": -0.6330282246,
				"z": -0.3710772826,
				"element": "H" 
			},
			{
				"x": -1.2105080369,
				"y": 0.8151987104,
				"z": 0.6086370233,
				"element": "H" 
			},
			{
				"x": 0.855737033,
				"y": 0.1279349753,
				"z": -1.5665546825,
				"element": "H" 
			},
			{
				"x": 1.0993928114,
				"y": -0.0815662028,
				"z": 0.1536750664,
				"element": "H" 
			},
			{
				"x": 0.7069249725,
				"y": 2.564030258,
				"z": -1.3120984726,
				"element": "H" 
			},
			{
				"x": 2.9820482193,
				"y": 2.6634626097,
				"z": -0.8450902866,
				"element": "H" 
			},
			{
				"x": 1.3498833594,
				"y": 3.725466065,
				"z": 0.6899604826,
				"element": "H" 
			},
			{
				"x": -0.1114412433,
				"y": 2.8081734431,
				"z": 0.952701071,
				"element": "H" 
			},
			{
				"x": 1.4223210274,
				"y": 0.9928746561,
				"z": 2.0734904407,
				"element": "H" 
			},
			{
				"x": 1.0643489599,
				"y": 2.4647204369,
				"z": 2.9473378439,
				"element": "H" 
			},
			{
				"x": 3.2339104688,
				"y": 3.458829114,
				"z": 2.2526820484,
				"element": "H" 
			},
			{
				"x": 3.6525055615,
				"y": 1.9919319114,
				"z": 1.388719543,
				"element": "H" 
			},
			{
				"x": 4.7095543551,
				"y": 2.215187597,
				"z": 3.6724996854,
				"element": "H" 
			},
			{
				"x": 3.1151423436,
				"y": 2.2100887708,
				"z": 4.4009513189,
				"element": "H" 
			},
			{
				"x": 2.7677108787,
				"y": -0.161361791,
				"z": 3.6199356716,
				"element": "H" 
			},
			{
				"x": 4.0951296085,
				"y": 0.0747006738,
				"z": 4.7296135468,
				"element": "H" 
			},
			{
				"x": 5.1472705876,
				"y": -1.325608292,
				"z": 3.2483220102,
				"element": "H" 
			},
			{
				"x": 5.5916935883,
				"y": 0.20125421,
				"z": 2.5177814618,
				"element": "H" 
			},
			{
				"x": 3.7109143456,
				"y": -0.0963548995,
				"z": 0.8349510473,
				"element": "H" 
			},
			{
				"x": 3.2589555624,
				"y": -1.5872115369,
				"z": 1.6435326659,
				"element": "H" 
			},
			{
				"x": 5.9670824341,
				"y": -1.073087144,
				"z": 0.2688961347,
				"element": "H" 
			},
			{
				"x": 5.5102736924,
				"y": -2.5810037322,
				"z": 1.0705610872,
				"element": "H" 
			},
			{
				"x": 4.6507762647,
				"y": -2.0545177486,
				"z": -0.384965735,
				"element": "H" 
			}
		],
		 "valence_orbital": [ 
			{
				"type": "occ",
				"energy": -0.30275,
				"method": "rhf"
			},
			{
				"type": "occ",
				"energy": -0.2989,
				"method": "rhf"
			},
			{
				"type": "occ",
				"energy": -0.29785,
				"method": "rhf"
			},
			{
				"type": "occ",
				"energy": -0.29246,
				"method": "rhf"
			},
			{
				"type": "occ",
				"energy": -0.25716,
				"method": "rhf"
			},
			{
				"type": "unocc",
				"energy": 0.07041,
				"method": "rhf"
			},
			{
				"type": "unocc",
				"energy": 0.08298,
				"method": "rhf"
			},
			{
				"type": "unocc",
				"energy": 0.08848,
				"method": "rhf"
			},
			{
				"type": "unocc",
				"energy": 0.09531,
				"method": "rhf"
			},
			{
				"type": "unocc",
				"energy": 0.10347,
				"method": "rhf"
			}
		],
		"cosmo_sigma_profile": { 
			"-0.025": 0.0,
			"-0.024": 0.0,
			"-0.023": 0.0,
			"-0.022": 0.0,
			"-0.021": 0.0,
			"-0.02": 0.0,
			"-0.019": 0.0,
			"-0.018": 0.0,
			"-0.017": 0.0,
			"-0.016": 0.0,
			"-0.015": 0.0973505008757,
			"-0.014": 0.719135402233,
			"-0.013": 0.972617588277,
			"-0.012": 0.853251131824,
			"-0.011": 0.552984604338,
			"-0.01": 0.948620804048,
			"-0.009": 1.07313662382,
			"-0.008": 0.813499170683,
			"-0.007": 1.40915297073,
			"-0.006": 1.5173123169,
			"-0.005": 0.727738916445,
			"-0.004": 1.85567311615,
			"-0.003": 7.94427393369,
			"-0.002": 49.9385786245,
			"-0.001": 88.4710491478,
			"0.0": 94.6656005699,
			"0.001": 78.5094398327,
			"0.002": 40.3100100793,
			"0.003": 4.26815276836,
			"0.004": 2.39699579352,
			"0.005": 2.31388846948,
			"0.006": 2.31232711656,
			"0.007": 1.45042842207,
			"0.008": 1.66721921587,
			"0.009": 1.39867122422,
			"0.01": 1.16586182609,
			"0.011": 0.987647112782,
			"0.012": 0.742755050171,
			"0.013": 1.02172628695,
			"0.014": 0.999481590317,
			"0.015": 0.335033580382,
			"0.016": 0.0,
			"0.017": 0.0,
			"0.018": 0.0,
			"0.019": 0.0,
			"0.02": 0.0,
			"0.021": 0.0,
			"0.022": 0.0,
			"0.023": 0.0,
			"0.024": 0.0,
			"0.025": 0.0
		}
	}
}
