{
	 "smiles": "CC1=CC=C(C=C1)C1=NC(N)=NC(N)=N1", 
	 "Tm": 514.65, 
	 "num_atms": 26, 
	 "gaussian": { 
		 "optdone": 1, 
		 "sigma_profile": "yes", 
		 "theory": "DFT", 
		 "functional": "B3LYP", 
		 "basiset": "6-31G**", 
		 "properties": { 
			 "R2extent": 4075.548, 
			 "electric_dipole_moment_norm": 1.43063434182, 
			 "electric_quadrupole_moment_norm": 15.4962839991, 
			 "total_energy": -661.511221193, 
			 "HOMO_LUMO_gap": 0.18891, 
			 "cosmo_polarized_energy": -14.45, 
			 "cosmo_cavitation_energy": 30.47, 
			 "cosmo_dispersion_energy": -22.85, 
			 "cosmo_repulsion_energy": 1.81, 
			 "cosmo_total_nonelectrostatic_energy": 9.43, 
			 "SMD_solvation_energy": 1.57 
		},
		"coords": [
			{
				"x": 4.5344093202,
				"y": -1.9293652847,
				"z": 0.496655108,
				"element": "C" 
			},
			{
				"x": 3.137837681,
				"y": -1.399044852,
				"z": 0.2770791938,
				"element": "C" 
			},
			{
				"x": 2.7837933433,
				"y": -0.1061197359,
				"z": 0.6891089827,
				"element": "C" 
			},
			{
				"x": 1.4897706358,
				"y": 0.375800146,
				"z": 0.515992464,
				"element": "C" 
			},
			{
				"x": 0.5064458371,
				"y": -0.4266066221,
				"z": -0.0810735213,
				"element": "C" 
			},
			{
				"x": 0.853556699,
				"y": -1.7196767725,
				"z": -0.4991008296,
				"element": "C" 
			},
			{
				"x": 2.1499460232,
				"y": -2.1938189301,
				"z": -0.3222201486,
				"element": "C" 
			},
			{
				"x": -0.8739434678,
				"y": 0.0843011074,
				"z": -0.2706494736,
				"element": "C" 
			},
			{
				"x": -1.1347576602,
				"y": 1.3303831812,
				"z": 0.1497082836,
				"element": "N" 
			},
			{
				"x": -2.4027596709,
				"y": 1.7362563942,
				"z": -0.0550066789,
				"element": "C" 
			},
			{
				"x": -2.7220249294,
				"y": 2.9836619464,
				"z": 0.3765835399,
				"element": "N" 
			},
			{
				"x": -3.3807457376,
				"y": 1.0195384095,
				"z": -0.6301845239,
				"element": "N" 
			},
			{
				"x": -2.9941812901,
				"y": -0.2116838717,
				"z": -0.9984705556,
				"element": "C" 
			},
			{
				"x": -3.9356531956,
				"y": -1.0136470188,
				"z": -1.5594619539,
				"element": "N" 
			},
			{
				"x": -1.7620078115,
				"y": -0.7355474718,
				"z": -0.8508509577,
				"element": "N" 
			},
			{
				"x": 4.8090897755,
				"y": -2.6640347304,
				"z": -0.2663717575,
				"element": "H" 
			},
			{
				"x": 4.6192427882,
				"y": -2.4267073237,
				"z": 1.4714177966,
				"element": "H" 
			},
			{
				"x": 5.2763324417,
				"y": -1.1252434096,
				"z": 0.4781085938,
				"element": "H" 
			},
			{
				"x": 3.5348535214,
				"y": 0.5306654062,
				"z": 1.150702242,
				"element": "H" 
			},
			{
				"x": 1.2210239861,
				"y": 1.3763666961,
				"z": 0.835145573,
				"element": "H" 
			},
			{
				"x": 0.0934820348,
				"y": -2.3373407638,
				"z": -0.9638559222,
				"element": "H" 
			},
			{
				"x": 2.4028825976,
				"y": -3.1976461169,
				"z": -0.6553946027,
				"element": "H" 
			},
			{
				"x": -3.610214094,
				"y": 3.371515079,
				"z": 0.1051659959,
				"element": "H" 
			},
			{
				"x": -1.9733348952,
				"y": 3.590875685,
				"z": 0.6657938031,
				"element": "H" 
			},
			{
				"x": -3.6329954393,
				"y": -1.8755923235,
				"z": -1.9817640873,
				"element": "H" 
			},
			{
				"x": -4.8177484934,
				"y": -0.6057888236,
				"z": -1.8212565636,
				"element": "H" 
			}
		],
		 "valence_orbital": [ 
			{
				"type": "occ",
				"energy": -0.25003,
				"method": "rhf"
			},
			{
				"type": "occ",
				"energy": -0.24927,
				"method": "rhf"
			},
			{
				"type": "occ",
				"energy": -0.24298,
				"method": "rhf"
			},
			{
				"type": "occ",
				"energy": -0.23281,
				"method": "rhf"
			},
			{
				"type": "occ",
				"energy": -0.22667,
				"method": "rhf"
			},
			{
				"type": "unocc",
				"energy": -0.03776,
				"method": "rhf"
			},
			{
				"type": "unocc",
				"energy": 0.00473,
				"method": "rhf"
			},
			{
				"type": "unocc",
				"energy": 0.0212,
				"method": "rhf"
			},
			{
				"type": "unocc",
				"energy": 0.04545,
				"method": "rhf"
			},
			{
				"type": "unocc",
				"energy": 0.09187,
				"method": "rhf"
			}
		],
		"cosmo_sigma_profile": { 
			"-0.025": 0.0,
			"-0.024": 0.0,
			"-0.023": 0.0,
			"-0.022": 0.0,
			"-0.021": 0.0,
			"-0.02": 0.0,
			"-0.019": 0.0,
			"-0.018": 0.0,
			"-0.017": 0.0,
			"-0.016": 0.0,
			"-0.015": 0.00319863684175,
			"-0.014": 2.48506894759,
			"-0.013": 4.2267701566,
			"-0.012": 3.97497256406,
			"-0.011": 3.63563101201,
			"-0.01": 3.72105068702,
			"-0.009": 4.83654661474,
			"-0.008": 2.47825573465,
			"-0.007": 2.87809935973,
			"-0.006": 3.8516810636,
			"-0.005": 8.94361393472,
			"-0.004": 16.8157724802,
			"-0.003": 15.5119020883,
			"-0.002": 14.6277547591,
			"-0.001": 18.0928755321,
			"0.0": 17.6380548158,
			"0.001": 17.5215606476,
			"0.002": 15.8678037157,
			"0.003": 16.8909520009,
			"0.004": 16.9327468124,
			"0.005": 19.1612301597,
			"0.006": 8.83548798273,
			"0.007": 5.95391970593,
			"0.008": 4.79637164437,
			"0.009": 4.83915355354,
			"0.01": 3.81579491628,
			"0.011": 1.64603124495,
			"0.012": 1.09786433372,
			"0.013": 0.897597516073,
			"0.014": 0.446803598068,
			"0.015": 0.0,
			"0.016": 0.0,
			"0.017": 0.0,
			"0.018": 0.0,
			"0.019": 0.0,
			"0.02": 0.0,
			"0.021": 0.0,
			"0.022": 0.0,
			"0.023": 0.0,
			"0.024": 0.0,
			"0.025": 0.0
		}
	}
}
