{
	 "smiles": "CCN(CC)S(=O)(=O)C1=CC2=C(NCCC2)C=C1", 
	 "Tm": 405.15, 
	 "num_atms": 38, 
	 "gaussian": { 
		 "optdone": 1, 
		 "sigma_profile": "yes", 
		 "theory": "DFT", 
		 "functional": "B3LYP", 
		 "basiset": "6-31G**", 
		 "properties": { 
			 "R2extent": 6608.2852, 
			 "electric_dipole_moment_norm": 6.19408368203, 
			 "electric_quadrupole_moment_norm": 23.0194519424, 
			 "total_energy": -1165.52485606, 
			 "HOMO_LUMO_gap": 0.19113, 
			 "cosmo_polarized_energy": -16.54, 
			 "cosmo_cavitation_energy": 39.49, 
			 "cosmo_dispersion_energy": -28.45, 
			 "cosmo_repulsion_energy": 2.18, 
			 "cosmo_total_nonelectrostatic_energy": 13.23, 
			 "SMD_solvation_energy": 4.27 
		},
		"coords": [
			{
				"x": -2.6841616649,
				"y": 1.9933781628,
				"z": 4.3526388183,
				"element": "C" 
			},
			{
				"x": -3.0601992548,
				"y": 2.2784602038,
				"z": 2.8978237026,
				"element": "C" 
			},
			{
				"x": -1.9597994956,
				"y": 1.9393430666,
				"z": 1.9747464712,
				"element": "N" 
			},
			{
				"x": -0.7348473405,
				"y": 2.7595592385,
				"z": 2.0412839792,
				"element": "C" 
			},
			{
				"x": -0.9105499221,
				"y": 4.2591260872,
				"z": 1.7761818028,
				"element": "C" 
			},
			{
				"x": -2.4015678302,
				"y": 1.4238027436,
				"z": 0.4174812133,
				"element": "S" 
			},
			{
				"x": -3.7052585322,
				"y": 0.7629495336,
				"z": 0.5655820274,
				"element": "O" 
			},
			{
				"x": -2.2400143044,
				"y": 2.501080888,
				"z": -0.5747029394,
				"element": "O" 
			},
			{
				"x": -1.154236933,
				"y": 0.1979903557,
				"z": 0.0671007949,
				"element": "C" 
			},
			{
				"x": -0.30666932,
				"y": 0.3677788798,
				"z": -1.0287356601,
				"element": "C" 
			},
			{
				"x": 0.6349862827,
				"y": -0.6021136592,
				"z": -1.3679849579,
				"element": "C" 
			},
			{
				"x": 0.7286776199,
				"y": -1.7702769212,
				"z": -0.5729332016,
				"element": "C" 
			},
			{
				"x": 1.6836730183,
				"y": -2.7322468674,
				"z": -0.8432715611,
				"element": "N" 
			},
			{
				"x": 2.4215758251,
				"y": -2.7356101869,
				"z": -2.0989875184,
				"element": "C" 
			},
			{
				"x": 2.7997347763,
				"y": -1.2999591965,
				"z": -2.4694884629,
				"element": "C" 
			},
			{
				"x": 1.5377127049,
				"y": -0.4326473069,
				"z": -2.5759913573,
				"element": "C" 
			},
			{
				"x": -0.1375338663,
				"y": -1.9302198338,
				"z": 0.5310095362,
				"element": "C" 
			},
			{
				"x": -1.0750299702,
				"y": -0.9616070829,
				"z": 0.8471086834,
				"element": "C" 
			},
			{
				"x": -1.8645388932,
				"y": 2.6276120326,
				"z": 4.7049336377,
				"element": "H" 
			},
			{
				"x": -2.3860528165,
				"y": 0.9481329688,
				"z": 4.4776440282,
				"element": "H" 
			},
			{
				"x": -3.5472626122,
				"y": 2.1863363988,
				"z": 4.9980902616,
				"element": "H" 
			},
			{
				"x": -3.9140998363,
				"y": 1.6643965136,
				"z": 2.6102798082,
				"element": "H" 
			},
			{
				"x": -3.3637693733,
				"y": 3.3287981894,
				"z": 2.7851315884,
				"element": "H" 
			},
			{
				"x": -0.0210787971,
				"y": 2.3351451132,
				"z": 1.3287951637,
				"element": "H" 
			},
			{
				"x": -0.2994483106,
				"y": 2.5984648998,
				"z": 3.0337777884,
				"element": "H" 
			},
			{
				"x": 0.0645142148,
				"y": 4.7559888559,
				"z": 1.8246723203,
				"element": "H" 
			},
			{
				"x": -1.5557041642,
				"y": 4.7322963294,
				"z": 2.5230906842,
				"element": "H" 
			},
			{
				"x": -1.3400638183,
				"y": 4.4272264374,
				"z": 0.7864801268,
				"element": "H" 
			},
			{
				"x": -0.3969604041,
				"y": 1.2702863279,
				"z": -1.6256199411,
				"element": "H" 
			},
			{
				"x": 1.5479010105,
				"y": -3.6269801404,
				"z": -0.3963303954,
				"element": "H" 
			},
			{
				"x": 3.318374668,
				"y": -3.3503123603,
				"z": -1.968575712,
				"element": "H" 
			},
			{
				"x": 1.8327940022,
				"y": -3.1839347207,
				"z": -2.9170548103,
				"element": "H" 
			},
			{
				"x": 3.4665637353,
				"y": -0.8995472083,
				"z": -1.6971563762,
				"element": "H" 
			},
			{
				"x": 3.3506103471,
				"y": -1.2958227496,
				"z": -3.4154806996,
				"element": "H" 
			},
			{
				"x": 1.8089254488,
				"y": 0.6224192599,
				"z": -2.6932224353,
				"element": "H" 
			},
			{
				"x": 0.9871221621,
				"y": -0.7078667827,
				"z": -3.4868230138,
				"element": "H" 
			},
			{
				"x": -0.0616176117,
				"y": -2.8295248878,
				"z": 1.1375031927,
				"element": "H" 
			},
			{
				"x": -1.7407007442,
				"y": -1.0968025819,
				"z": 1.692703413,
				"element": "H" 
			}
		],
		 "valence_orbital": [ 
			{
				"type": "occ",
				"energy": -0.28795,
				"method": "rhf"
			},
			{
				"type": "occ",
				"energy": -0.28155,
				"method": "rhf"
			},
			{
				"type": "occ",
				"energy": -0.25202,
				"method": "rhf"
			},
			{
				"type": "occ",
				"energy": -0.23529,
				"method": "rhf"
			},
			{
				"type": "occ",
				"energy": -0.20325,
				"method": "rhf"
			},
			{
				"type": "unocc",
				"energy": -0.01212,
				"method": "rhf"
			},
			{
				"type": "unocc",
				"energy": -0.00845,
				"method": "rhf"
			},
			{
				"type": "unocc",
				"energy": 0.0686,
				"method": "rhf"
			},
			{
				"type": "unocc",
				"energy": 0.07827,
				"method": "rhf"
			},
			{
				"type": "unocc",
				"energy": 0.08499,
				"method": "rhf"
			}
		],
		"cosmo_sigma_profile": { 
			"-0.025": 0.0,
			"-0.024": 0.0,
			"-0.023": 0.0,
			"-0.022": 0.0,
			"-0.021": 0.0,
			"-0.02": 0.0,
			"-0.019": 0.0,
			"-0.018": 0.0,
			"-0.017": 0.0,
			"-0.016": 0.0,
			"-0.015": 0.0,
			"-0.014": 0.141868571109,
			"-0.013": 1.20107325779,
			"-0.012": 1.62580900309,
			"-0.011": 1.60865820133,
			"-0.01": 1.09564470271,
			"-0.009": 1.41376779693,
			"-0.008": 1.81836043246,
			"-0.007": 2.27057017284,
			"-0.006": 4.28587099524,
			"-0.005": 9.89382450869,
			"-0.004": 28.4485482695,
			"-0.003": 42.7018805276,
			"-0.002": 43.0078587512,
			"-0.001": 33.4601048709,
			"0.0": 29.0179434799,
			"0.001": 21.6760789432,
			"0.002": 11.9494915555,
			"0.003": 11.1262803704,
			"0.004": 16.1637985015,
			"0.005": 9.90455236238,
			"0.006": 4.72123859306,
			"0.007": 4.07034994428,
			"0.008": 2.98900891352,
			"0.009": 4.2278360227,
			"0.01": 4.60830971268,
			"0.011": 6.919737851,
			"0.012": 6.99799147175,
			"0.013": 2.08021418083,
			"0.014": 0.0,
			"0.015": 0.0,
			"0.016": 0.0,
			"0.017": 0.0,
			"0.018": 0.0,
			"0.019": 0.0,
			"0.02": 0.0,
			"0.021": 0.0,
			"0.022": 0.0,
			"0.023": 0.0,
			"0.024": 0.0,
			"0.025": 0.0
		}
	}
}
