{
	 "smiles": "CC(N)=CC(C)=O", 
	 "Tm": 312.15, 
	 "num_atms": 16, 
	 "gaussian": { 
		 "optdone": 1, 
		 "sigma_profile": "yes", 
		 "theory": "DFT", 
		 "functional": "B3LYP", 
		 "basiset": "6-31G**", 
		 "properties": { 
			 "R2extent": 1364.0492, 
			 "electric_dipole_moment_norm": 3.28060062031, 
			 "electric_quadrupole_moment_norm": 14.6378000577, 
			 "total_energy": -325.941449226, 
			 "HOMO_LUMO_gap": 0.18828, 
			 "cosmo_polarized_energy": -9.69, 
			 "cosmo_cavitation_energy": 19.23, 
			 "cosmo_dispersion_energy": -14.37, 
			 "cosmo_repulsion_energy": 1.24, 
			 "cosmo_total_nonelectrostatic_energy": 6.1, 
			 "SMD_solvation_energy": 4.28 
		},
		"coords": [
			{
				"x": -0.8463987005,
				"y": -0.5281221169,
				"z": -2.3807122419,
				"element": "C" 
			},
			{
				"x": -0.822313693,
				"y": 0.6978456837,
				"z": -1.5054096518,
				"element": "C" 
			},
			{
				"x": -0.9669214101,
				"y": 1.8845386732,
				"z": -2.1310351615,
				"element": "N" 
			},
			{
				"x": -0.6611472174,
				"y": 0.609825922,
				"z": -0.1390354233,
				"element": "C" 
			},
			{
				"x": -0.6348998042,
				"y": 1.7709962436,
				"z": 0.7190438919,
				"element": "C" 
			},
			{
				"x": -0.4495035286,
				"y": 1.5329475862,
				"z": 2.2111989476,
				"element": "C" 
			},
			{
				"x": -0.7549359617,
				"y": 2.9376404462,
				"z": 0.2982593762,
				"element": "O" 
			},
			{
				"x": -0.0426569853,
				"y": -0.486550322,
				"z": -3.1253861278,
				"element": "H" 
			},
			{
				"x": -0.7231634253,
				"y": -1.4376392045,
				"z": -1.7913579555,
				"element": "H" 
			},
			{
				"x": -1.7955032892,
				"y": -0.5946629888,
				"z": -2.9257257939,
				"element": "H" 
			},
			{
				"x": -1.0839305857,
				"y": 1.9392049832,
				"z": -3.1287161165,
				"element": "H" 
			},
			{
				"x": -0.9497625538,
				"y": 2.7114872549,
				"z": -1.5327355098,
				"element": "H" 
			},
			{
				"x": -0.5500010764,
				"y": -0.3730497681,
				"z": 0.3042313724,
				"element": "H" 
			},
			{
				"x": -1.2520343286,
				"y": 0.8988351158,
				"z": 2.6052496029,
				"element": "H" 
			},
			{
				"x": -0.4525947833,
				"y": 2.4898989315,
				"z": 2.7349461924,
				"element": "H" 
			},
			{
				"x": 0.4961673431,
				"y": 1.0140035598,
				"z": 2.4058845988,
				"element": "H" 
			}
		],
		 "valence_orbital": [ 
			{
				"type": "occ",
				"energy": -0.36472,
				"method": "rhf"
			},
			{
				"type": "occ",
				"energy": -0.34811,
				"method": "rhf"
			},
			{
				"type": "occ",
				"energy": -0.31596,
				"method": "rhf"
			},
			{
				"type": "occ",
				"energy": -0.22681,
				"method": "rhf"
			},
			{
				"type": "occ",
				"energy": -0.20671,
				"method": "rhf"
			},
			{
				"type": "unocc",
				"energy": -0.01843,
				"method": "rhf"
			},
			{
				"type": "unocc",
				"energy": 0.07999,
				"method": "rhf"
			},
			{
				"type": "unocc",
				"energy": 0.09068,
				"method": "rhf"
			},
			{
				"type": "unocc",
				"energy": 0.12145,
				"method": "rhf"
			},
			{
				"type": "unocc",
				"energy": 0.12906,
				"method": "rhf"
			}
		],
		"cosmo_sigma_profile": { 
			"-0.025": 0.0,
			"-0.024": 0.0,
			"-0.023": 0.0,
			"-0.022": 0.0,
			"-0.021": 0.0,
			"-0.02": 0.0,
			"-0.019": 0.0,
			"-0.018": 0.0,
			"-0.017": 0.0,
			"-0.016": 0.0,
			"-0.015": 0.0344367726924,
			"-0.014": 0.744215418616,
			"-0.013": 1.04746800639,
			"-0.012": 1.28569588972,
			"-0.011": 0.730695914178,
			"-0.01": 1.35639030105,
			"-0.009": 1.27800039463,
			"-0.008": 2.1979661603,
			"-0.007": 2.6044844232,
			"-0.006": 3.07444286157,
			"-0.005": 10.030911654,
			"-0.004": 14.2998351103,
			"-0.003": 13.2297944078,
			"-0.002": 16.207683188,
			"-0.001": 14.9855488678,
			"0.0": 12.5585809759,
			"0.001": 8.81816014766,
			"0.002": 4.58490700598,
			"0.003": 5.05120024557,
			"0.004": 4.92332641981,
			"0.005": 8.61730451597,
			"0.006": 6.63567487541,
			"0.007": 2.57464799305,
			"0.008": 1.54483262666,
			"0.009": 1.71015678469,
			"0.01": 1.18549457134,
			"0.011": 1.58941888871,
			"0.012": 2.20592031635,
			"0.013": 1.61133434574,
			"0.014": 2.21853898906,
			"0.015": 1.58606351565,
			"0.016": 0.403561701169,
			"0.017": 0.0,
			"0.018": 0.0,
			"0.019": 0.0,
			"0.02": 0.0,
			"0.021": 0.0,
			"0.022": 0.0,
			"0.023": 0.0,
			"0.024": 0.0,
			"0.025": 0.0
		}
	}
}
