{
	 "smiles": "NC1=NC=C(S1)C1=CC(F)=CC=C1", 
	 "Tm": 442.15, 
	 "num_atms": 20, 
	 "gaussian": { 
		 "optdone": 1, 
		 "sigma_profile": "yes", 
		 "theory": "DFT", 
		 "functional": "B3LYP", 
		 "basiset": "6-31G**", 
		 "properties": { 
			 "R2extent": 3400.207, 
			 "electric_dipole_moment_norm": 2.86433173184, 
			 "electric_quadrupole_moment_norm": 12.7203420583, 
			 "total_energy": -954.699447786, 
			 "HOMO_LUMO_gap": 0.16379, 
			 "cosmo_polarized_energy": -11.28, 
			 "cosmo_cavitation_energy": 26.68, 
			 "cosmo_dispersion_energy": -20.22, 
			 "cosmo_repulsion_energy": 1.52, 
			 "cosmo_total_nonelectrostatic_energy": 7.98, 
			 "SMD_solvation_energy": 3.07 
		},
		"coords": [
			{
				"x": -3.6074975415,
				"y": 2.1749173842,
				"z": 0.4167293957,
				"element": "N" 
			},
			{
				"x": -2.3138515778,
				"y": 1.7185106671,
				"z": 0.3323620874,
				"element": "C" 
			},
			{
				"x": -1.3011896131,
				"y": 2.2985352117,
				"z": 0.9153533219,
				"element": "N" 
			},
			{
				"x": -0.129564337,
				"y": 1.6619807544,
				"z": 0.5857743388,
				"element": "C" 
			},
			{
				"x": -0.201846825,
				"y": 0.5736062948,
				"z": -0.2429044999,
				"element": "C" 
			},
			{
				"x": -1.9002553177,
				"y": 0.3280767356,
				"z": -0.6757605155,
				"element": "S" 
			},
			{
				"x": 0.8698292892,
				"y": -0.2920030062,
				"z": -0.7362327791,
				"element": "C" 
			},
			{
				"x": 2.0814247983,
				"y": -0.3826021214,
				"z": -0.0247830668,
				"element": "C" 
			},
			{
				"x": 3.1014470296,
				"y": -1.1838991637,
				"z": -0.5143182187,
				"element": "C" 
			},
			{
				"x": 4.2556078069,
				"y": -1.2551492469,
				"z": 0.1832450033,
				"element": "F" 
			},
			{
				"x": 2.9758200265,
				"y": -1.9302462103,
				"z": -1.6814757277,
				"element": "C" 
			},
			{
				"x": 1.7694602673,
				"y": -1.850612672,
				"z": -2.3779041737,
				"element": "C" 
			},
			{
				"x": 0.7308406503,
				"y": -1.0421453132,
				"z": -1.9195104227,
				"element": "C" 
			},
			{
				"x": -4.3466364192,
				"y": 1.4916226081,
				"z": 0.3368865818,
				"element": "H" 
			},
			{
				"x": -3.741035229,
				"y": 2.8478107623,
				"z": 1.1603829543,
				"element": "H" 
			},
			{
				"x": 0.7999471474,
				"y": 2.0543402675,
				"z": 0.982782427,
				"element": "H" 
			},
			{
				"x": 2.2290682735,
				"y": 0.1441862489,
				"z": 0.9108800151,
				"element": "H" 
			},
			{
				"x": 3.7988806828,
				"y": -2.5504076099,
				"z": -2.018143218,
				"element": "H" 
			},
			{
				"x": 1.641402174,
				"y": -2.4202048203,
				"z": -3.2935252881,
				"element": "H" 
			},
			{
				"x": -0.1888512859,
				"y": -0.9769167707,
				"z": -2.4925382151,
				"element": "H" 
			}
		],
		 "valence_orbital": [ 
			{
				"type": "occ",
				"energy": -0.28299,
				"method": "rhf"
			},
			{
				"type": "occ",
				"energy": -0.27572,
				"method": "rhf"
			},
			{
				"type": "occ",
				"energy": -0.26483,
				"method": "rhf"
			},
			{
				"type": "occ",
				"energy": -0.24647,
				"method": "rhf"
			},
			{
				"type": "occ",
				"energy": -0.2025,
				"method": "rhf"
			},
			{
				"type": "unocc",
				"energy": -0.03871,
				"method": "rhf"
			},
			{
				"type": "unocc",
				"energy": -0.00503,
				"method": "rhf"
			},
			{
				"type": "unocc",
				"energy": 0.00538,
				"method": "rhf"
			},
			{
				"type": "unocc",
				"energy": 0.02569,
				"method": "rhf"
			},
			{
				"type": "unocc",
				"energy": 0.06387,
				"method": "rhf"
			}
		],
		"cosmo_sigma_profile": { 
			"-0.025": 0.0,
			"-0.024": 0.0,
			"-0.023": 0.0,
			"-0.022": 0.0,
			"-0.021": 0.0,
			"-0.02": 0.0,
			"-0.019": 0.0,
			"-0.018": 0.0,
			"-0.017": 0.0,
			"-0.016": 0.0,
			"-0.015": 0.562902677235,
			"-0.014": 1.98377652595,
			"-0.013": 2.93461391634,
			"-0.012": 2.91837175,
			"-0.011": 2.55124827631,
			"-0.01": 2.39726949716,
			"-0.009": 1.55475291297,
			"-0.008": 3.5989969038,
			"-0.007": 7.87318335259,
			"-0.006": 9.48803517483,
			"-0.005": 9.68713532969,
			"-0.004": 10.9944230689,
			"-0.003": 9.44566130653,
			"-0.002": 7.42994628128,
			"-0.001": 9.10082850709,
			"0.0": 13.3346245999,
			"0.001": 19.675271759,
			"0.002": 21.6327435947,
			"0.003": 25.6113859257,
			"0.004": 27.541575207,
			"0.005": 10.0038871194,
			"0.006": 2.20242243378,
			"0.007": 2.64541073688,
			"0.008": 2.71859768701,
			"0.009": 1.45685392241,
			"0.01": 1.62612115683,
			"0.011": 1.31414439457,
			"0.012": 1.02537798954,
			"0.013": 0.94742203932,
			"0.014": 1.35450918768,
			"0.015": 0.816402352139,
			"0.016": 0.097782272453,
			"0.017": 0.0,
			"0.018": 0.0,
			"0.019": 0.0,
			"0.02": 0.0,
			"0.021": 0.0,
			"0.022": 0.0,
			"0.023": 0.0,
			"0.024": 0.0,
			"0.025": 0.0
		}
	}
}
