{
	 "smiles": "NC(=N)NCCS(O)(=O)=O", 
	 "Tm": 537.15, 
	 "num_atms": 19, 
	 "gaussian": { 
		 "optdone": 1, 
		 "sigma_profile": "yes", 
		 "theory": "DFT", 
		 "functional": "B3LYP", 
		 "basiset": "6-31G**", 
		 "properties": { 
			 "R2extent": 2783.3628, 
			 "electric_dipole_moment_norm": 1.94524820267, 
			 "electric_quadrupole_moment_norm": 23.9621891352, 
			 "total_energy": -907.788799303, 
			 "HOMO_LUMO_gap": 0.26185, 
			 "cosmo_polarized_energy": -24.1, 
			 "cosmo_cavitation_energy": 24.65, 
			 "cosmo_dispersion_energy": -18.4, 
			 "cosmo_repulsion_energy": 1.49, 
			 "cosmo_total_nonelectrostatic_energy": 7.73, 
			 "SMD_solvation_energy": 1.29 
		},
		"coords": [
			{
				"x": -2.9426316907,
				"y": -0.2334396594,
				"z": 0.5923868914,
				"element": "N" 
			},
			{
				"x": -1.8736066407,
				"y": 0.3098291082,
				"z": 1.3104584977,
				"element": "C" 
			},
			{
				"x": -1.7332672435,
				"y": 0.3696409804,
				"z": 2.5837232496,
				"element": "N" 
			},
			{
				"x": -0.8494832259,
				"y": 0.8067071912,
				"z": 0.4987505057,
				"element": "N" 
			},
			{
				"x": -0.4375993929,
				"y": 0.1321193471,
				"z": -0.7234610959,
				"element": "C" 
			},
			{
				"x": 0.0701652864,
				"y": -1.3042569521,
				"z": -0.482340874,
				"element": "C" 
			},
			{
				"x": 0.6062368799,
				"y": -2.0582137683,
				"z": -2.0290373357,
				"element": "S" 
			},
			{
				"x": 0.9428861446,
				"y": -3.5787059586,
				"z": -1.494333039,
				"element": "O" 
			},
			{
				"x": -0.5329720548,
				"y": -2.1287382916,
				"z": -2.9352063166,
				"element": "O" 
			},
			{
				"x": 1.877030333,
				"y": -1.4715398999,
				"z": -2.4617362361,
				"element": "O" 
			},
			{
				"x": -3.7540032064,
				"y": -0.4408639988,
				"z": 1.1582198381,
				"element": "H" 
			},
			{
				"x": -3.1885394882,
				"y": 0.2597381322,
				"z": -0.2574317199,
				"element": "H" 
			},
			{
				"x": -2.5916015079,
				"y": 0.1014720211,
				"z": 3.0655790267,
				"element": "H" 
			},
			{
				"x": -0.0847018636,
				"y": 1.1163590172,
				"z": 1.0866817895,
				"element": "H" 
			},
			{
				"x": 0.3526072933,
				"y": 0.7307355544,
				"z": -1.1847114559,
				"element": "H" 
			},
			{
				"x": -1.2640787674,
				"y": 0.0964973819,
				"z": -1.4373270215,
				"element": "H" 
			},
			{
				"x": 0.9289793968,
				"y": -1.326300106,
				"z": 0.19283025,
				"element": "H" 
			},
			{
				"x": -0.7269675206,
				"y": -1.9362333403,
				"z": -0.0839153036,
				"element": "H" 
			},
			{
				"x": 1.8592472685,
				"y": -3.7638067585,
				"z": -1.7619296504,
				"element": "H" 
			}
		],
		 "valence_orbital": [ 
			{
				"type": "occ",
				"energy": -0.32436,
				"method": "rhf"
			},
			{
				"type": "occ",
				"energy": -0.30807,
				"method": "rhf"
			},
			{
				"type": "occ",
				"energy": -0.27581,
				"method": "rhf"
			},
			{
				"type": "occ",
				"energy": -0.26606,
				"method": "rhf"
			},
			{
				"type": "occ",
				"energy": -0.23488,
				"method": "rhf"
			},
			{
				"type": "unocc",
				"energy": 0.02697,
				"method": "rhf"
			},
			{
				"type": "unocc",
				"energy": 0.04045,
				"method": "rhf"
			},
			{
				"type": "unocc",
				"energy": 0.05847,
				"method": "rhf"
			},
			{
				"type": "unocc",
				"energy": 0.06165,
				"method": "rhf"
			},
			{
				"type": "unocc",
				"energy": 0.08273,
				"method": "rhf"
			}
		],
		"cosmo_sigma_profile": { 
			"-0.025": 0.0,
			"-0.024": 0.0,
			"-0.023": 0.0,
			"-0.022": 0.0,
			"-0.021": 0.0,
			"-0.02": 0.427292604949,
			"-0.019": 1.08275112465,
			"-0.018": 0.792539710591,
			"-0.017": 0.880995132649,
			"-0.016": 0.687274503649,
			"-0.015": 0.676925277083,
			"-0.014": 0.602578439855,
			"-0.013": 4.52870740191,
			"-0.012": 4.73026993369,
			"-0.011": 6.24870812387,
			"-0.01": 5.2896229526,
			"-0.009": 7.39345883721,
			"-0.008": 8.66773281141,
			"-0.007": 9.02498018169,
			"-0.006": 8.99555024551,
			"-0.005": 8.00202827704,
			"-0.004": 7.70325912882,
			"-0.003": 8.05160917066,
			"-0.002": 6.39262303365,
			"-0.001": 6.51019979014,
			"0.0": 6.1363621608,
			"0.001": 5.74332005952,
			"0.002": 5.24537244981,
			"0.003": 6.30324594075,
			"0.004": 5.36035701491,
			"0.005": 7.27611364409,
			"0.006": 5.55810851785,
			"0.007": 5.8932131709,
			"0.008": 8.0161905387,
			"0.009": 9.76726280664,
			"0.01": 14.0993575004,
			"0.011": 7.84299927552,
			"0.012": 0.834663429739,
			"0.013": 0.982386497432,
			"0.014": 1.51945180799,
			"0.015": 1.31038932221,
			"0.016": 1.40915251482,
			"0.017": 0.4824465925,
			"0.018": 1.4711645852,
			"0.019": 0.897104597526,
			"0.02": 0.0444052530774,
			"0.021": 0.0,
			"0.022": 0.0,
			"0.023": 0.0,
			"0.024": 0.0,
			"0.025": 0.0
		}
	}
}
