{
	 "smiles": "COC1=C(OC)C(=O)OC1C(COS(C)(=O)=O)OS(C)(=O)=O", 
	 "Tm": 351.15, 
	 "num_atms": 38, 
	 "gaussian": { 
		 "optdone": 1, 
		 "sigma_profile": "yes", 
		 "theory": "DFT", 
		 "functional": "B3LYP", 
		 "basiset": "6-31G**", 
		 "properties": { 
			 "R2extent": 9025.2527, 
			 "electric_dipole_moment_norm": 5.90418872581, 
			 "electric_quadrupole_moment_norm": 33.0917177807, 
			 "total_energy": -1939.13590335, 
			 "HOMO_LUMO_gap": 0.19563, 
			 "cosmo_polarized_energy": -28.75, 
			 "cosmo_cavitation_energy": 44.0, 
			 "cosmo_dispersion_energy": -30.08, 
			 "cosmo_repulsion_energy": 2.23, 
			 "cosmo_total_nonelectrostatic_energy": 16.15, 
			 "SMD_solvation_energy": 9.22 
		},
		"coords": [
			{
				"x": -3.3521319975,
				"y": 0.1753048025,
				"z": -0.1035990999,
				"element": "C" 
			},
			{
				"x": -2.0425246497,
				"y": 0.6298181091,
				"z": -0.4870424717,
				"element": "O" 
			},
			{
				"x": -1.181620515,
				"y": -0.284221229,
				"z": -0.9656845399,
				"element": "C" 
			},
			{
				"x": -0.4615708836,
				"y": -0.1757171493,
				"z": -2.103240874,
				"element": "C" 
			},
			{
				"x": -0.5924928004,
				"y": 0.7886057247,
				"z": -3.0355865389,
				"element": "O" 
			},
			{
				"x": 0.6159084502,
				"y": 1.2686097404,
				"z": -3.6515062467,
				"element": "C" 
			},
			{
				"x": 0.417216327,
				"y": -1.3575959851,
				"z": -2.2197031958,
				"element": "C" 
			},
			{
				"x": 1.1828872086,
				"y": -1.6842227279,
				"z": -3.0914222466,
				"element": "O" 
			},
			{
				"x": 0.2166124585,
				"y": -2.1458397487,
				"z": -1.0964980593,
				"element": "O" 
			},
			{
				"x": -0.7604084632,
				"y": -1.5458361288,
				"z": -0.2369981267,
				"element": "C" 
			},
			{
				"x": -0.1104539852,
				"y": -1.2797943531,
				"z": 1.1393751937,
				"element": "C" 
			},
			{
				"x": 0.6755671164,
				"y": -2.4786629347,
				"z": 1.6578969993,
				"element": "C" 
			},
			{
				"x": 1.3325521275,
				"y": -2.1388407422,
				"z": 2.9046079202,
				"element": "O" 
			},
			{
				"x": 2.9438207057,
				"y": -1.725496806,
				"z": 2.7990766684,
				"element": "S" 
			},
			{
				"x": 2.9517837577,
				"y": -0.4464461997,
				"z": 4.0534673793,
				"element": "C" 
			},
			{
				"x": 3.7351719526,
				"y": -2.8625896613,
				"z": 3.2521603295,
				"element": "O" 
			},
			{
				"x": 3.1723376385,
				"y": -1.1381689497,
				"z": 1.480015163,
				"element": "O" 
			},
			{
				"x": -1.218828894,
				"y": -1.0114881872,
				"z": 2.0410146029,
				"element": "O" 
			},
			{
				"x": -1.1608029953,
				"y": 0.2444500213,
				"z": 3.1117644743,
				"element": "S" 
			},
			{
				"x": -1.1500185189,
				"y": -0.6828019754,
				"z": 4.6487702497,
				"element": "C" 
			},
			{
				"x": -2.4322126372,
				"y": 0.9435042254,
				"z": 2.9943136462,
				"element": "O" 
			},
			{
				"x": 0.1078944388,
				"y": 0.9565827518,
				"z": 2.9534753652,
				"element": "O" 
			},
			{
				"x": -3.8953919186,
				"y": -0.1895332043,
				"z": -0.9825170377,
				"element": "H" 
			},
			{
				"x": -3.8551961712,
				"y": 1.0469403215,
				"z": 0.3126282946,
				"element": "H" 
			},
			{
				"x": -3.2996498993,
				"y": -0.6006135945,
				"z": 0.6634376953,
				"element": "H" 
			},
			{
				"x": 1.1494294694,
				"y": 0.4618264522,
				"z": -4.1568116526,
				"element": "H" 
			},
			{
				"x": 0.294736682,
				"y": 2.0223611841,
				"z": -4.371239538,
				"element": "H" 
			},
			{
				"x": 1.269199895,
				"y": 1.7341912175,
				"z": -2.9042734962,
				"element": "H" 
			},
			{
				"x": -1.5801013225,
				"y": -2.2638554872,
				"z": -0.1040788008,
				"element": "H" 
			},
			{
				"x": 0.543675207,
				"y": -0.4071304736,
				"z": 1.0848873042,
				"element": "H" 
			},
			{
				"x": 0.0072340015,
				"y": -3.3099881752,
				"z": 1.8961957595,
				"element": "H" 
			},
			{
				"x": 1.3975090342,
				"y": -2.7957709204,
				"z": 0.9049410242,
				"element": "H" 
			},
			{
				"x": 2.6848790769,
				"y": -0.8985734293,
				"z": 5.0092452133,
				"element": "H" 
			},
			{
				"x": 3.9724883401,
				"y": -0.0619816202,
				"z": 4.0909544617,
				"element": "H" 
			},
			{
				"x": 2.2433577114,
				"y": 0.3288117138,
				"z": 3.7605012879,
				"element": "H" 
			},
			{
				"x": -0.2693746797,
				"y": -1.3242201883,
				"z": 4.6561422599,
				"element": "H" 
			},
			{
				"x": -2.0674931545,
				"y": -1.2697861682,
				"z": 4.6950829813,
				"element": "H" 
			},
			{
				"x": -1.122488113,
				"y": 0.0454697748,
				"z": 5.4611476511,
				"element": "H" 
			}
		],
		 "valence_orbital": [ 
			{
				"type": "occ",
				"energy": -0.31255,
				"method": "rhf"
			},
			{
				"type": "occ",
				"energy": -0.30428,
				"method": "rhf"
			},
			{
				"type": "occ",
				"energy": -0.30138,
				"method": "rhf"
			},
			{
				"type": "occ",
				"energy": -0.26807,
				"method": "rhf"
			},
			{
				"type": "occ",
				"energy": -0.23431,
				"method": "rhf"
			},
			{
				"type": "unocc",
				"energy": -0.03868,
				"method": "rhf"
			},
			{
				"type": "unocc",
				"energy": 0.00913,
				"method": "rhf"
			},
			{
				"type": "unocc",
				"energy": 0.01994,
				"method": "rhf"
			},
			{
				"type": "unocc",
				"energy": 0.04036,
				"method": "rhf"
			},
			{
				"type": "unocc",
				"energy": 0.05692,
				"method": "rhf"
			}
		],
		"cosmo_sigma_profile": { 
			"-0.025": 0.0,
			"-0.024": 0.0,
			"-0.023": 0.0,
			"-0.022": 0.0,
			"-0.021": 0.0,
			"-0.02": 0.0,
			"-0.019": 0.0,
			"-0.018": 0.0,
			"-0.017": 0.0,
			"-0.016": 0.0,
			"-0.015": 0.0,
			"-0.014": 0.0,
			"-0.013": 0.0,
			"-0.012": 0.0,
			"-0.011": 0.796468376197,
			"-0.01": 4.76364871774,
			"-0.009": 12.3977016055,
			"-0.008": 14.0060606466,
			"-0.007": 13.5465509199,
			"-0.006": 23.2253622,
			"-0.005": 32.6178440892,
			"-0.004": 33.0574209724,
			"-0.003": 27.3376255352,
			"-0.002": 15.3522362327,
			"-0.001": 15.5217376413,
			"0.0": 13.2821341002,
			"0.001": 11.952876633,
			"0.002": 10.838643153,
			"0.003": 10.4687596174,
			"0.004": 11.2225012047,
			"0.005": 10.0819309001,
			"0.006": 11.9879107942,
			"0.007": 10.9898055159,
			"0.008": 13.4737198562,
			"0.009": 16.9854294218,
			"0.01": 23.6810820724,
			"0.011": 9.19740309837,
			"0.012": 2.05359179494,
			"0.013": 0.200748154112,
			"0.014": 0.0,
			"0.015": 0.0,
			"0.016": 0.0,
			"0.017": 0.0,
			"0.018": 0.0,
			"0.019": 0.0,
			"0.02": 0.0,
			"0.021": 0.0,
			"0.022": 0.0,
			"0.023": 0.0,
			"0.024": 0.0,
			"0.025": 0.0
		}
	}
}
