{
	 "smiles": "CC1=NC(O)=C(C)C(C)=N1", 
	 "Tm": 550.15, 
	 "num_atms": 20, 
	 "gaussian": { 
		 "optdone": 1, 
		 "sigma_profile": "yes", 
		 "theory": "DFT", 
		 "functional": "B3LYP", 
		 "basiset": "6-31G**", 
		 "properties": { 
			 "R2extent": 1523.9844, 
			 "electric_dipole_moment_norm": 1.02712827339, 
			 "electric_quadrupole_moment_norm": 4.54855945438, 
			 "total_energy": -457.529511609, 
			 "HOMO_LUMO_gap": 0.22073, 
			 "cosmo_polarized_energy": -7.96, 
			 "cosmo_cavitation_energy": 23.32, 
			 "cosmo_dispersion_energy": -17.39, 
			 "cosmo_repulsion_energy": 1.43, 
			 "cosmo_total_nonelectrostatic_energy": 7.36, 
			 "SMD_solvation_energy": 2.08 
		},
		"coords": [
			{
				"x": -0.0322690235,
				"y": 0.7842579471,
				"z": -3.0692520826,
				"element": "C" 
			},
			{
				"x": 0.124875372,
				"y": 0.4930922482,
				"z": -1.6009051253,
				"element": "C" 
			},
			{
				"x": 0.5809692212,
				"y": 1.492749499,
				"z": -0.8286224083,
				"element": "N" 
			},
			{
				"x": 0.7177271711,
				"y": 1.2291099249,
				"z": 0.4674869154,
				"element": "C" 
			},
			{
				"x": 1.1762718657,
				"y": 2.2322658833,
				"z": 1.2478546864,
				"element": "O" 
			},
			{
				"x": 0.4158664148,
				"y": -0.012359797,
				"z": 1.0515361224,
				"element": "C" 
			},
			{
				"x": 0.5847929254,
				"y": -0.2705817816,
				"z": 2.5258816815,
				"element": "C" 
			},
			{
				"x": -0.0506791184,
				"y": -0.9758913283,
				"z": 0.1502561928,
				"element": "C" 
			},
			{
				"x": -0.4197653937,
				"y": -2.3609513306,
				"z": 0.6141351033,
				"element": "C" 
			},
			{
				"x": -0.1965234225,
				"y": -0.7283354148,
				"z": -1.1681575692,
				"element": "N" 
			},
			{
				"x": -0.7231106533,
				"y": 1.6202928383,
				"z": -3.2206197862,
				"element": "H" 
			},
			{
				"x": 0.9280256382,
				"y": 1.0805371962,
				"z": -3.504283512,
				"element": "H" 
			},
			{
				"x": -0.4094240328,
				"y": -0.0972526581,
				"z": -3.5883620386,
				"element": "H" 
			},
			{
				"x": 1.3176097928,
				"y": 2.9843216147,
				"z": 0.6502858451,
				"element": "H" 
			},
			{
				"x": -0.3662626287,
				"y": -0.5504878496,
				"z": 2.9943824264,
				"element": "H" 
			},
			{
				"x": 0.9639243907,
				"y": 0.6159180423,
				"z": 3.0353385428,
				"element": "H" 
			},
			{
				"x": 1.2854001254,
				"y": -1.0936864824,
				"z": 2.7099749503,
				"element": "H" 
			},
			{
				"x": 0.434790668,
				"y": -2.8645371445,
				"z": 1.0813596921,
				"element": "H" 
			},
			{
				"x": -1.217924912,
				"y": -2.329090131,
				"z": 1.3651871839,
				"element": "H" 
			},
			{
				"x": -0.7574944005,
				"y": -2.9519712761,
				"z": -0.2376768201,
				"element": "H" 
			}
		],
		 "valence_orbital": [ 
			{
				"type": "occ",
				"energy": -0.34854,
				"method": "rhf"
			},
			{
				"type": "occ",
				"energy": -0.29647,
				"method": "rhf"
			},
			{
				"type": "occ",
				"energy": -0.27946,
				"method": "rhf"
			},
			{
				"type": "occ",
				"energy": -0.24487,
				"method": "rhf"
			},
			{
				"type": "occ",
				"energy": -0.24149,
				"method": "rhf"
			},
			{
				"type": "unocc",
				"energy": -0.02076,
				"method": "rhf"
			},
			{
				"type": "unocc",
				"energy": -0.00058,
				"method": "rhf"
			},
			{
				"type": "unocc",
				"energy": 0.08293,
				"method": "rhf"
			},
			{
				"type": "unocc",
				"energy": 0.09936,
				"method": "rhf"
			},
			{
				"type": "unocc",
				"energy": 0.12857,
				"method": "rhf"
			}
		],
		"cosmo_sigma_profile": { 
			"-0.025": 0.0,
			"-0.024": 0.0,
			"-0.023": 0.0,
			"-0.022": 0.0,
			"-0.021": 0.0,
			"-0.02": 0.0,
			"-0.019": 0.0,
			"-0.018": 0.0,
			"-0.017": 0.529214936709,
			"-0.016": 0.993030534563,
			"-0.015": 0.651417016764,
			"-0.014": 0.304104680438,
			"-0.013": 0.764323857734,
			"-0.012": 0.996608222198,
			"-0.011": 0.305956146276,
			"-0.01": 0.826058579026,
			"-0.009": 0.93682631116,
			"-0.008": 0.388243133464,
			"-0.007": 0.341490472424,
			"-0.006": 1.02727158727,
			"-0.005": 10.0952222989,
			"-0.004": 16.2137300678,
			"-0.003": 15.4638226813,
			"-0.002": 17.1974081152,
			"-0.001": 23.6135883681,
			"0.0": 29.8864439658,
			"0.001": 15.6520310299,
			"0.002": 7.69779796184,
			"0.003": 5.74361140651,
			"0.004": 4.81697333437,
			"0.005": 5.53431235814,
			"0.006": 4.0008147695,
			"0.007": 3.88032135241,
			"0.008": 3.89537478899,
			"0.009": 4.21358601875,
			"0.01": 1.74052262261,
			"0.011": 1.6433005998,
			"0.012": 1.38975624914,
			"0.013": 1.38479056502,
			"0.014": 0.812452778571,
			"0.015": 0.793858805778,
			"0.016": 0.128695164564,
			"0.017": 0.0,
			"0.018": 0.0,
			"0.019": 0.0,
			"0.02": 0.0,
			"0.021": 0.0,
			"0.022": 0.0,
			"0.023": 0.0,
			"0.024": 0.0,
			"0.025": 0.0
		}
	}
}
