{
	 "smiles": "OC(=O)C(Br)=C(Br)C=O", 
	 "Tm": 396.15, 
	 "num_atms": 11, 
	 "gaussian": { 
		 "optdone": 1, 
		 "sigma_profile": "yes", 
		 "theory": "DFT", 
		 "functional": "B3LYP", 
		 "basiset": "6-31G**", 
		 "properties": { 
			 "R2extent": 2680.4774, 
			 "electric_dipole_moment_norm": 3.67472205343, 
			 "electric_quadrupole_moment_norm": 5.29277440951, 
			 "total_energy": -5522.06531162, 
			 "HOMO_LUMO_gap": 0.15928, 
			 "cosmo_polarized_energy": -11.27, 
			 "cosmo_cavitation_energy": 20.86, 
			 "cosmo_dispersion_energy": -16.29, 
			 "cosmo_repulsion_energy": 1.33, 
			 "cosmo_total_nonelectrostatic_energy": 5.9, 
			 "SMD_solvation_energy": 4.32 
		},
		"coords": [
			{
				"x": -2.0879709434,
				"y": -0.4759919379,
				"z": 1.3965516778,
				"element": "O" 
			},
			{
				"x": -0.8194798591,
				"y": -0.8682387548,
				"z": 1.227806199,
				"element": "C" 
			},
			{
				"x": -0.2396161993,
				"y": -1.4749648862,
				"z": 2.0992671179,
				"element": "O" 
			},
			{
				"x": -0.1565745666,
				"y": -0.5110531989,
				"z": -0.0914580906,
				"element": "C" 
			},
			{
				"x": -1.352258227,
				"y": 0.087098239,
				"z": -1.4665958171,
				"element": "Br" 
			},
			{
				"x": 1.175239161,
				"y": -0.5975751792,
				"z": -0.3264240924,
				"element": "C" 
			},
			{
				"x": 1.9306886892,
				"y": -0.1707629307,
				"z": -2.0040201815,
				"element": "Br" 
			},
			{
				"x": 2.2084486041,
				"y": -0.998568847,
				"z": 0.7051985603,
				"element": "C" 
			},
			{
				"x": 3.3845632748,
				"y": -1.0748774384,
				"z": 0.4329810742,
				"element": "O" 
			},
			{
				"x": -2.4232615712,
				"y": -0.0298179802,
				"z": 0.5994232123,
				"element": "H" 
			},
			{
				"x": 1.8027216374,
				"y": -1.2069470857,
				"z": 1.7023703401,
				"element": "H" 
			}
		],
		 "valence_orbital": [ 
			{
				"type": "occ",
				"energy": -0.3358,
				"method": "rhf"
			},
			{
				"type": "occ",
				"energy": -0.31536,
				"method": "rhf"
			},
			{
				"type": "occ",
				"energy": -0.30161,
				"method": "rhf"
			},
			{
				"type": "occ",
				"energy": -0.28523,
				"method": "rhf"
			},
			{
				"type": "occ",
				"energy": -0.27803,
				"method": "rhf"
			},
			{
				"type": "unocc",
				"energy": -0.11875,
				"method": "rhf"
			},
			{
				"type": "unocc",
				"energy": -0.06086,
				"method": "rhf"
			},
			{
				"type": "unocc",
				"energy": -0.01394,
				"method": "rhf"
			},
			{
				"type": "unocc",
				"energy": 0.00889,
				"method": "rhf"
			},
			{
				"type": "unocc",
				"energy": 0.05194,
				"method": "rhf"
			}
		],
		"cosmo_sigma_profile": { 
			"-0.025": 0.0,
			"-0.024": 0.0,
			"-0.023": 0.0,
			"-0.022": 0.0,
			"-0.021": 0.0,
			"-0.02": 0.0,
			"-0.019": 0.0,
			"-0.018": 0.0,
			"-0.017": 0.0,
			"-0.016": 0.501388622587,
			"-0.015": 0.770851349145,
			"-0.014": 0.73338520818,
			"-0.013": 1.03026642509,
			"-0.012": 1.2912384668,
			"-0.011": 1.17209102425,
			"-0.01": 0.791601993796,
			"-0.009": 1.65110372634,
			"-0.008": 4.57037032153,
			"-0.007": 7.90492265067,
			"-0.006": 8.73044868128,
			"-0.005": 10.4312686587,
			"-0.004": 11.9059781027,
			"-0.003": 11.607450901,
			"-0.002": 9.71975915803,
			"-0.001": 9.91659557149,
			"0.0": 11.7488847838,
			"0.001": 13.3542725697,
			"0.002": 15.7380028595,
			"0.003": 7.95442527072,
			"0.004": 4.04496827949,
			"0.005": 4.26188561002,
			"0.006": 4.80946890503,
			"0.007": 4.7820900173,
			"0.008": 7.54905160542,
			"0.009": 7.93401642047,
			"0.01": 6.94640026725,
			"0.011": 2.82688652743,
			"0.012": 0.113158614198,
			"0.013": 0.0,
			"0.014": 0.0,
			"0.015": 0.0,
			"0.016": 0.0,
			"0.017": 0.0,
			"0.018": 0.0,
			"0.019": 0.0,
			"0.02": 0.0,
			"0.021": 0.0,
			"0.022": 0.0,
			"0.023": 0.0,
			"0.024": 0.0,
			"0.025": 0.0
		}
	}
}
