{
	 "smiles": "CC1=CC(=CC=C1)C1=NC(CC(O)=O)=CS1", 
	 "Tm": 384.15, 
	 "num_atms": 27, 
	 "gaussian": { 
		 "optdone": 1, 
		 "sigma_profile": "yes", 
		 "theory": "DFT", 
		 "functional": "B3LYP", 
		 "basiset": "6-31G**", 
		 "properties": { 
			 "R2extent": 5387.2528, 
			 "electric_dipole_moment_norm": 2.02173578392, 
			 "electric_quadrupole_moment_norm": 15.4579489529, 
			 "total_energy": -1067.31580326, 
			 "HOMO_LUMO_gap": 0.1667, 
			 "cosmo_polarized_energy": -13.48, 
			 "cosmo_cavitation_energy": 33.65, 
			 "cosmo_dispersion_energy": -24.48, 
			 "cosmo_repulsion_energy": 1.9, 
			 "cosmo_total_nonelectrostatic_energy": 11.06, 
			 "SMD_solvation_energy": 5.63 
		},
		"coords": [
			{
				"x": -1.4826090915,
				"y": 4.0787940388,
				"z": 0.1618637753,
				"element": "C" 
			},
			{
				"x": -1.9750612524,
				"y": 2.7962832842,
				"z": 0.7913649355,
				"element": "C" 
			},
			{
				"x": -1.5184933185,
				"y": 1.5562003758,
				"z": 0.3434799642,
				"element": "C" 
			},
			{
				"x": -1.9773814739,
				"y": 0.3561411771,
				"z": 0.9161090579,
				"element": "C" 
			},
			{
				"x": -2.9123728297,
				"y": 0.4125277447,
				"z": 1.9595600352,
				"element": "C" 
			},
			{
				"x": -3.3736618382,
				"y": 1.6463289118,
				"z": 2.4143861572,
				"element": "C" 
			},
			{
				"x": -2.9106653878,
				"y": 2.8279107909,
				"z": 1.8377028606,
				"element": "C" 
			},
			{
				"x": -1.45732794,
				"y": -0.9174600736,
				"z": 0.4002501256,
				"element": "C" 
			},
			{
				"x": -0.5783577931,
				"y": -1.0155827243,
				"z": -0.562064823,
				"element": "N" 
			},
			{
				"x": -0.265270469,
				"y": -2.3231627233,
				"z": -0.8493401377,
				"element": "C" 
			},
			{
				"x": 0.72896182,
				"y": -2.6051355669,
				"z": -1.9425866956,
				"element": "C" 
			},
			{
				"x": 2.1207261161,
				"y": -2.0519283831,
				"z": -1.6728605275,
				"element": "C" 
			},
			{
				"x": 2.5639672046,
				"y": -2.375766711,
				"z": -0.4356194497,
				"element": "O" 
			},
			{
				"x": 2.7861336323,
				"y": -1.4266338838,
				"z": -2.466081782,
				"element": "O" 
			},
			{
				"x": -0.9180198088,
				"y": -3.2587574771,
				"z": -0.0955854656,
				"element": "C" 
			},
			{
				"x": -1.9782448367,
				"y": -2.4860961305,
				"z": 1.0338722271,
				"element": "S" 
			},
			{
				"x": -0.6865978262,
				"y": 3.8875527238,
				"z": -0.5623368582,
				"element": "H" 
			},
			{
				"x": -1.0925091019,
				"y": 4.7693943687,
				"z": 0.9177538701,
				"element": "H" 
			},
			{
				"x": -2.2925369521,
				"y": 4.599765407,
				"z": -0.3623616383,
				"element": "H" 
			},
			{
				"x": -0.7940241824,
				"y": 1.4963106978,
				"z": -0.4620164109,
				"element": "H" 
			},
			{
				"x": -3.2803309363,
				"y": -0.500203376,
				"z": 2.4198146001,
				"element": "H" 
			},
			{
				"x": -4.096690603,
				"y": 1.6851291246,
				"z": 3.2239523357,
				"element": "H" 
			},
			{
				"x": -3.2764306455,
				"y": 3.7850518441,
				"z": 2.2015446732,
				"element": "H" 
			},
			{
				"x": 0.8257147703,
				"y": -3.6874308581,
				"z": -2.0838120656,
				"element": "H" 
			},
			{
				"x": 0.3991848156,
				"y": -2.168296672,
				"z": -2.8883004386,
				"element": "H" 
			},
			{
				"x": 3.4522790201,
				"y": -1.9885904061,
				"z": -0.3599955221,
				"element": "H" 
			},
			{
				"x": -0.8317810922,
				"y": -4.3351455033,
				"z": -0.1365928029,
				"element": "H" 
			}
		],
		 "valence_orbital": [ 
			{
				"type": "occ",
				"energy": -0.28188,
				"method": "rhf"
			},
			{
				"type": "occ",
				"energy": -0.27554,
				"method": "rhf"
			},
			{
				"type": "occ",
				"energy": -0.26598,
				"method": "rhf"
			},
			{
				"type": "occ",
				"energy": -0.24781,
				"method": "rhf"
			},
			{
				"type": "occ",
				"energy": -0.22035,
				"method": "rhf"
			},
			{
				"type": "unocc",
				"energy": -0.05365,
				"method": "rhf"
			},
			{
				"type": "unocc",
				"energy": -0.00246,
				"method": "rhf"
			},
			{
				"type": "unocc",
				"energy": 0.00694,
				"method": "rhf"
			},
			{
				"type": "unocc",
				"energy": 0.01925,
				"method": "rhf"
			},
			{
				"type": "unocc",
				"energy": 0.02257,
				"method": "rhf"
			}
		],
		"cosmo_sigma_profile": { 
			"-0.025": 0.0,
			"-0.024": 0.0,
			"-0.023": 0.0,
			"-0.022": 0.0,
			"-0.021": 0.0,
			"-0.02": 0.0,
			"-0.019": 0.0499415684925,
			"-0.018": 0.849792814393,
			"-0.017": 1.06088243409,
			"-0.016": 0.534667992438,
			"-0.015": 0.838124551775,
			"-0.014": 0.805779027589,
			"-0.013": 0.842378988436,
			"-0.012": 0.499136037254,
			"-0.011": 0.606870974699,
			"-0.01": 1.08949675807,
			"-0.009": 2.89422580735,
			"-0.008": 5.36536984807,
			"-0.007": 6.56384504259,
			"-0.006": 10.7388273673,
			"-0.005": 14.3968427384,
			"-0.004": 20.2276708324,
			"-0.003": 19.2159824789,
			"-0.002": 17.5286562685,
			"-0.001": 19.4353790298,
			"0.0": 21.864659748,
			"0.001": 20.9697123306,
			"0.002": 21.6580947518,
			"0.003": 20.142967648,
			"0.004": 16.5733595663,
			"0.005": 14.0481206234,
			"0.006": 6.06850495846,
			"0.007": 3.97652125171,
			"0.008": 4.29245403001,
			"0.009": 5.10235076206,
			"0.01": 3.43764897466,
			"0.011": 4.35021272554,
			"0.012": 4.18209529362,
			"0.013": 0.455742345217,
			"0.014": 0.0,
			"0.015": 0.0,
			"0.016": 0.0,
			"0.017": 0.0,
			"0.018": 0.0,
			"0.019": 0.0,
			"0.02": 0.0,
			"0.021": 0.0,
			"0.022": 0.0,
			"0.023": 0.0,
			"0.024": 0.0,
			"0.025": 0.0
		}
	}
}
