{
	 "smiles": "OC1=C(C=O)C=CC=C1[N+]([O-])=O", 
	 "Tm": 382.65, 
	 "num_atms": 17, 
	 "gaussian": { 
		 "optdone": 1, 
		 "sigma_profile": "yes", 
		 "theory": "DFT", 
		 "functional": "B3LYP", 
		 "basiset": "6-31G**", 
		 "properties": { 
			 "R2extent": 2445.7601, 
			 "electric_dipole_moment_norm": 4.58050103264, 
			 "electric_quadrupole_moment_norm": 13.5042495504, 
			 "total_energy": -625.2920462, 
			 "HOMO_LUMO_gap": 0.14721, 
			 "cosmo_polarized_energy": -13.92, 
			 "cosmo_cavitation_energy": 22.42, 
			 "cosmo_dispersion_energy": -16.84, 
			 "cosmo_repulsion_energy": 1.32, 
			 "cosmo_total_nonelectrostatic_energy": 6.9, 
			 "SMD_solvation_energy": 7.44 
		},
		"coords": [
			{
				"x": 0.9655338256,
				"y": -1.4201919546,
				"z": 0.3762337922,
				"element": "O" 
			},
			{
				"x": -0.1604542659,
				"y": -0.8928789496,
				"z": 0.8283743955,
				"element": "C" 
			},
			{
				"x": -0.2241328184,
				"y": -0.4147986653,
				"z": 2.1681940932,
				"element": "C" 
			},
			{
				"x": 0.9251313747,
				"y": -0.4754974386,
				"z": 3.1069806478,
				"element": "C" 
			},
			{
				"x": 2.0298896382,
				"y": -0.9189273584,
				"z": 2.8804248209,
				"element": "O" 
			},
			{
				"x": -1.4123931331,
				"y": 0.1412506761,
				"z": 2.6438973208,
				"element": "C" 
			},
			{
				"x": -2.5592813839,
				"y": 0.2510754885,
				"z": 1.8514885355,
				"element": "C" 
			},
			{
				"x": -2.5161079509,
				"y": -0.2084733601,
				"z": 0.5460949699,
				"element": "C" 
			},
			{
				"x": -1.3377325022,
				"y": -0.7719455775,
				"z": 0.0390749872,
				"element": "C" 
			},
			{
				"x": -1.354641996,
				"y": -1.2350525893,
				"z": -1.3347408761,
				"element": "N" 
			},
			{
				"x": -0.3078166073,
				"y": -1.7417805494,
				"z": -1.8017558169,
				"element": "O" 
			},
			{
				"x": -2.3809014146,
				"y": -1.118718021,
				"z": -1.9921549898,
				"element": "O" 
			},
			{
				"x": 0.7933379962,
				"y": -1.6832740686,
				"z": -0.5630904057,
				"element": "H" 
			},
			{
				"x": 0.6747175196,
				"y": -0.0514003277,
				"z": 4.1071889775,
				"element": "H" 
			},
			{
				"x": -1.432122744,
				"y": 0.498147728,
				"z": 3.6712285918,
				"element": "H" 
			},
			{
				"x": -3.4682541169,
				"y": 0.6879116478,
				"z": 2.249046317,
				"element": "H" 
			},
			{
				"x": -3.3749714212,
				"y": -0.1479466801,
				"z": -0.1108853609,
				"element": "H" 
			}
		],
		 "valence_orbital": [ 
			{
				"type": "occ",
				"energy": -0.33204,
				"method": "rhf"
			},
			{
				"type": "occ",
				"energy": -0.31725,
				"method": "rhf"
			},
			{
				"type": "occ",
				"energy": -0.30023,
				"method": "rhf"
			},
			{
				"type": "occ",
				"energy": -0.26332,
				"method": "rhf"
			},
			{
				"type": "occ",
				"energy": -0.26009,
				"method": "rhf"
			},
			{
				"type": "unocc",
				"energy": -0.11288,
				"method": "rhf"
			},
			{
				"type": "unocc",
				"energy": -0.07227,
				"method": "rhf"
			},
			{
				"type": "unocc",
				"energy": -0.01805,
				"method": "rhf"
			},
			{
				"type": "unocc",
				"energy": 0.02503,
				"method": "rhf"
			},
			{
				"type": "unocc",
				"energy": 0.06865,
				"method": "rhf"
			}
		],
		"cosmo_sigma_profile": { 
			"-0.025": 0.0,
			"-0.024": 0.0,
			"-0.023": 0.0,
			"-0.022": 0.0,
			"-0.021": 0.0,
			"-0.02": 0.0,
			"-0.019": 0.0,
			"-0.018": 0.0,
			"-0.017": 0.0,
			"-0.016": 0.0,
			"-0.015": 0.0,
			"-0.014": 0.0,
			"-0.013": 0.0,
			"-0.012": 0.0,
			"-0.011": 0.0,
			"-0.01": 0.72590134294,
			"-0.009": 4.04481480213,
			"-0.008": 10.2615149576,
			"-0.007": 12.4410896809,
			"-0.006": 10.9152750319,
			"-0.005": 11.0134572166,
			"-0.004": 9.48782943422,
			"-0.003": 12.8468761627,
			"-0.002": 15.0348433552,
			"-0.001": 11.8988042214,
			"0.0": 12.1779266874,
			"0.001": 9.27107294547,
			"0.002": 4.9637268065,
			"0.003": 3.87202863463,
			"0.004": 4.44201671719,
			"0.005": 5.62672665835,
			"0.006": 6.49233327111,
			"0.007": 8.32192009144,
			"0.008": 5.7174333694,
			"0.009": 6.09648198637,
			"0.01": 3.49010628071,
			"0.011": 4.65614564224,
			"0.012": 3.48792599023,
			"0.013": 1.95988006755,
			"0.014": 1.2668858632,
			"0.015": 0.411566805566,
			"0.016": 0.0,
			"0.017": 0.0,
			"0.018": 0.0,
			"0.019": 0.0,
			"0.02": 0.0,
			"0.021": 0.0,
			"0.022": 0.0,
			"0.023": 0.0,
			"0.024": 0.0,
			"0.025": 0.0
		}
	}
}
