{
	 "smiles": "CC(=C)C1CCC2(C)CCC3(C)C(CCC4C5(C)CCC(O)C(C)(C)C5CCC34C)C12", 
	 "Tm": 489.15, 
	 "num_atms": 81, 
	 "gaussian": { 
		 "optdone": 1, 
		 "sigma_profile": "yes", 
		 "theory": "DFT", 
		 "functional": "B3LYP", 
		 "basiset": "6-31G**", 
		 "properties": { 
			 "R2extent": 14541.0851, 
			 "electric_dipole_moment_norm": 1.12357060748, 
			 "electric_quadrupole_moment_norm": 12.6296866382, 
			 "total_energy": -1248.53157375, 
			 "HOMO_LUMO_gap": 0.26096, 
			 "cosmo_polarized_energy": -7.67, 
			 "cosmo_cavitation_energy": 61.9, 
			 "cosmo_dispersion_energy": -41.62, 
			 "cosmo_repulsion_energy": 2.95, 
			 "cosmo_total_nonelectrostatic_energy": 23.23, 
			 "SMD_solvation_energy": 9.53 
		},
		"coords": [
			{
				"x": 4.6724051961,
				"y": -1.2861317417,
				"z": 1.7198673472,
				"element": "C" 
			},
			{
				"x": 3.8465957995,
				"y": -0.3009212466,
				"z": 2.5149908068,
				"element": "C" 
			},
			{
				"x": 4.3935263397,
				"y": 0.8270501576,
				"z": 2.9820220745,
				"element": "C" 
			},
			{
				"x": 2.411145596,
				"y": -0.7429383177,
				"z": 2.7760651088,
				"element": "C" 
			},
			{
				"x": 2.2965399608,
				"y": -1.6368871781,
				"z": 4.0443138201,
				"element": "C" 
			},
			{
				"x": 0.812289757,
				"y": -1.5655361939,
				"z": 4.4210770918,
				"element": "C" 
			},
			{
				"x": 0.4166987984,
				"y": -0.0848504127,
				"z": 4.1790989415,
				"element": "C" 
			},
			{
				"x": 0.7495112228,
				"y": 0.7436134579,
				"z": 5.4361997189,
				"element": "C" 
			},
			{
				"x": -1.0807301336,
				"y": 0.1036898778,
				"z": 3.8588829587,
				"element": "C" 
			},
			{
				"x": -1.5427063221,
				"y": -0.5017809117,
				"z": 2.5239598039,
				"element": "C" 
			},
			{
				"x": -0.665615784,
				"y": -0.121215272,
				"z": 1.2734224488,
				"element": "C" 
			},
			{
				"x": -0.1628271387,
				"y": -1.4670099662,
				"z": 0.6889158059,
				"element": "C" 
			},
			{
				"x": 0.508300482,
				"y": 0.8126771833,
				"z": 1.7343295495,
				"element": "C" 
			},
			{
				"x": 1.395231294,
				"y": 1.2566637532,
				"z": 0.5609812634,
				"element": "C" 
			},
			{
				"x": 0.6014636033,
				"y": 1.9209116726,
				"z": -0.5797012276,
				"element": "C" 
			},
			{
				"x": -0.5723238252,
				"y": 1.0319520808,
				"z": -1.0389208019,
				"element": "C" 
			},
			{
				"x": -1.2985317574,
				"y": 1.4562897459,
				"z": -2.3784696698,
				"element": "C" 
			},
			{
				"x": -2.1732431915,
				"y": 2.7234399205,
				"z": -2.2316437876,
				"element": "C" 
			},
			{
				"x": -0.2409627166,
				"y": 1.8100282022,
				"z": -3.4584630513,
				"element": "C" 
			},
			{
				"x": 0.570224952,
				"y": 0.6295636719,
				"z": -4.0136098321,
				"element": "C" 
			},
			{
				"x": -0.240323344,
				"y": -0.6777601071,
				"z": -4.1522571314,
				"element": "C" 
			},
			{
				"x": 0.1589798389,
				"y": -1.4087941644,
				"z": -5.3161209013,
				"element": "O" 
			},
			{
				"x": -1.7700154948,
				"y": -0.4629124861,
				"z": -4.2133342026,
				"element": "C" 
			},
			{
				"x": -2.4447634318,
				"y": -1.8469234662,
				"z": -4.3781704313,
				"element": "C" 
			},
			{
				"x": -2.1935992682,
				"y": 0.342208568,
				"z": -5.4667505404,
				"element": "C" 
			},
			{
				"x": -2.2273602025,
				"y": 0.2509341762,
				"z": -2.877421705,
				"element": "C" 
			},
			{
				"x": -2.4792581552,
				"y": -0.7753334858,
				"z": -1.7447647288,
				"element": "C" 
			},
			{
				"x": -2.7173886405,
				"y": -0.1465914532,
				"z": -0.3679410604,
				"element": "C" 
			},
			{
				"x": -1.5194620629,
				"y": 0.6949602379,
				"z": 0.176489745,
				"element": "C" 
			},
			{
				"x": -2.1104185974,
				"y": 1.9657741517,
				"z": 0.851455488,
				"element": "C" 
			},
			{
				"x": 1.3309431579,
				"y": 0.3692126914,
				"z": 2.9769290256,
				"element": "C" 
			},
			{
				"x": 4.6748524649,
				"y": -2.2756038229,
				"z": 2.1948999121,
				"element": "H" 
			},
			{
				"x": 5.7102397706,
				"y": -0.9587907222,
				"z": 1.6142941836,
				"element": "H" 
			},
			{
				"x": 4.2537253398,
				"y": -1.4262029489,
				"z": 0.7144967265,
				"element": "H" 
			},
			{
				"x": 3.8374530265,
				"y": 1.5558583481,
				"z": 3.5629846608,
				"element": "H" 
			},
			{
				"x": 5.4389000213,
				"y": 1.0599435781,
				"z": 2.7990364985,
				"element": "H" 
			},
			{
				"x": 2.1206028006,
				"y": -1.3624993085,
				"z": 1.9226603694,
				"element": "H" 
			},
			{
				"x": 2.6477712007,
				"y": -2.6598195062,
				"z": 3.8718786883,
				"element": "H" 
			},
			{
				"x": 2.9168804244,
				"y": -1.2156427619,
				"z": 4.8434126248,
				"element": "H" 
			},
			{
				"x": 0.2339596064,
				"y": -2.2316924906,
				"z": 3.7705238357,
				"element": "H" 
			},
			{
				"x": 0.6165176487,
				"y": -1.8816780712,
				"z": 5.4522398436,
				"element": "H" 
			},
			{
				"x": 0.5719542955,
				"y": 1.8108962963,
				"z": 5.259317492,
				"element": "H" 
			},
			{
				"x": 0.1260800594,
				"y": 0.4384591982,
				"z": 6.2851717044,
				"element": "H" 
			},
			{
				"x": 1.7974317531,
				"y": 0.630110936,
				"z": 5.7336983389,
				"element": "H" 
			},
			{
				"x": -1.6786989959,
				"y": -0.3312259324,
				"z": 4.6712003221,
				"element": "H" 
			},
			{
				"x": -1.3051420301,
				"y": 1.1785275816,
				"z": 3.8712422097,
				"element": "H" 
			},
			{
				"x": -1.5585456597,
				"y": -1.5923592909,
				"z": 2.6255928221,
				"element": "H" 
			},
			{
				"x": -2.5898614489,
				"y": -0.2245748041,
				"z": 2.3693880935,
				"element": "H" 
			},
			{
				"x": -1.001785015,
				"y": -2.0540888429,
				"z": 0.3051847243,
				"element": "H" 
			},
			{
				"x": 0.5680178347,
				"y": -1.3652979701,
				"z": -0.1164951543,
				"element": "H" 
			},
			{
				"x": 0.3001842366,
				"y": -2.0755769573,
				"z": 1.4675623131,
				"element": "H" 
			},
			{
				"x": 0.0161458558,
				"y": 1.7253659293,
				"z": 2.0871559279,
				"element": "H" 
			},
			{
				"x": 2.16052965,
				"y": 1.9506977593,
				"z": 0.928414836,
				"element": "H" 
			},
			{
				"x": 1.9479056335,
				"y": 0.3984722741,
				"z": 0.1565065183,
				"element": "H" 
			},
			{
				"x": 0.2502825326,
				"y": 2.9107174143,
				"z": -0.2630583261,
				"element": "H" 
			},
			{
				"x": 1.2956174736,
				"y": 2.1004701425,
				"z": -1.4051351433,
				"element": "H" 
			},
			{
				"x": -0.100600236,
				"y": 0.0808111854,
				"z": -1.3060885866,
				"element": "H" 
			},
			{
				"x": -3.0870293809,
				"y": 2.5415030284,
				"z": -1.6643052652,
				"element": "H" 
			},
			{
				"x": -2.484821241,
				"y": 3.0738282848,
				"z": -3.2220818943,
				"element": "H" 
			},
			{
				"x": -1.6311066019,
				"y": 3.5441401851,
				"z": -1.7491598069,
				"element": "H" 
			},
			{
				"x": -0.7640882405,
				"y": 2.2901373611,
				"z": -4.2872849949,
				"element": "H" 
			},
			{
				"x": 0.4340250566,
				"y": 2.5830077529,
				"z": -3.0805816333,
				"element": "H" 
			},
			{
				"x": 1.4559070896,
				"y": 0.4402930118,
				"z": -3.3928473324,
				"element": "H" 
			},
			{
				"x": 0.9402969121,
				"y": 0.896169431,
				"z": -5.0105738369,
				"element": "H" 
			},
			{
				"x": -0.0508897842,
				"y": -1.3033100442,
				"z": -3.2641360162,
				"element": "H" 
			},
			{
				"x": 1.1126649761,
				"y": -1.5489205207,
				"z": -5.2608967693,
				"element": "H" 
			},
			{
				"x": -2.1212768739,
				"y": -2.5691335008,
				"z": -3.6240852707,
				"element": "H" 
			},
			{
				"x": -3.5354657632,
				"y": -1.7591905903,
				"z": -4.3214093203,
				"element": "H" 
			},
			{
				"x": -2.1874778608,
				"y": -2.2622836621,
				"z": -5.3547959984,
				"element": "H" 
			},
			{
				"x": -1.7647480014,
				"y": -0.1132391651,
				"z": -6.3634653764,
				"element": "H" 
			},
			{
				"x": -1.894859678,
				"y": 1.3904503061,
				"z": -5.4494930111,
				"element": "H" 
			},
			{
				"x": -3.2847336077,
				"y": 0.3196967243,
				"z": -5.5657465347,
				"element": "H" 
			},
			{
				"x": -3.2056130543,
				"y": 0.6935263182,
				"z": -3.1091723099,
				"element": "H" 
			},
			{
				"x": -1.6455808614,
				"y": -1.4819286561,
				"z": -1.6842357984,
				"element": "H" 
			},
			{
				"x": -3.3562620054,
				"y": -1.3772154684,
				"z": -2.0009469817,
				"element": "H" 
			},
			{
				"x": -2.9898456079,
				"y": -0.9367940777,
				"z": 0.340547978,
				"element": "H" 
			},
			{
				"x": -3.6064136515,
				"y": 0.49252231,
				"z": -0.4372002379,
				"element": "H" 
			},
			{
				"x": -1.3729857376,
				"y": 2.7436212427,
				"z": 1.054885892,
				"element": "H" 
			},
			{
				"x": -2.8854493202,
				"y": 2.4212268899,
				"z": 0.2376714749,
				"element": "H" 
			},
			{
				"x": -2.583698897,
				"y": 1.7144798359,
				"z": 1.8044889018,
				"element": "H" 
			},
			{
				"x": 1.850807959,
				"y": 1.279852645,
				"z": 3.2919067799,
				"element": "H" 
			}
		],
		 "valence_orbital": [ 
			{
				"type": "occ",
				"energy": -0.27492,
				"method": "rhf"
			},
			{
				"type": "occ",
				"energy": -0.26117,
				"method": "rhf"
			},
			{
				"type": "occ",
				"energy": -0.25751,
				"method": "rhf"
			},
			{
				"type": "occ",
				"energy": -0.25343,
				"method": "rhf"
			},
			{
				"type": "occ",
				"energy": -0.23473,
				"method": "rhf"
			},
			{
				"type": "unocc",
				"energy": 0.02623,
				"method": "rhf"
			},
			{
				"type": "unocc",
				"energy": 0.06263,
				"method": "rhf"
			},
			{
				"type": "unocc",
				"energy": 0.07498,
				"method": "rhf"
			},
			{
				"type": "unocc",
				"energy": 0.08195,
				"method": "rhf"
			},
			{
				"type": "unocc",
				"energy": 0.08381,
				"method": "rhf"
			}
		],
		"cosmo_sigma_profile": { 
			"-0.025": 0.0,
			"-0.024": 0.0,
			"-0.023": 0.0,
			"-0.022": 0.0,
			"-0.021": 0.0,
			"-0.02": 0.0,
			"-0.019": 0.0,
			"-0.018": 0.0,
			"-0.017": 0.0,
			"-0.016": 0.0,
			"-0.015": 0.4348942551,
			"-0.014": 0.896136985945,
			"-0.013": 0.799957054569,
			"-0.012": 1.09072748128,
			"-0.011": 0.612627573379,
			"-0.01": 0.983914273217,
			"-0.009": 0.734754417185,
			"-0.008": 0.842732763541,
			"-0.007": 0.610638440347,
			"-0.006": 1.16659360892,
			"-0.005": 1.4379912276,
			"-0.004": 4.75161201624,
			"-0.003": 26.9777327881,
			"-0.002": 73.1881290062,
			"-0.001": 97.0734983229,
			"0.0": 88.5581599474,
			"0.001": 74.6165051476,
			"0.002": 52.2620690991,
			"0.003": 14.4768052714,
			"0.004": 7.02975314788,
			"0.005": 4.63785311877,
			"0.006": 4.84895094849,
			"0.007": 3.80985078886,
			"0.008": 1.7876156019,
			"0.009": 1.59141853772,
			"0.01": 1.33555639659,
			"0.011": 1.88691286199,
			"0.012": 1.90923162407,
			"0.013": 1.43930987949,
			"0.014": 0.0357547451579,
			"0.015": 0.0,
			"0.016": 0.0,
			"0.017": 0.0,
			"0.018": 0.0,
			"0.019": 0.0,
			"0.02": 0.0,
			"0.021": 0.0,
			"0.022": 0.0,
			"0.023": 0.0,
			"0.024": 0.0,
			"0.025": 0.0
		}
	}
}
