{
	 "smiles": "FC(F)(F)C(=O)NC1CC(=O)C2=C1C=CC=C2", 
	 "Tm": 423.15, 
	 "num_atms": 25, 
	 "gaussian": { 
		 "optdone": 1, 
		 "sigma_profile": "yes", 
		 "theory": "DFT", 
		 "functional": "B3LYP", 
		 "basiset": "6-31G**", 
		 "properties": { 
			 "R2extent": 4405.8566, 
			 "electric_dipole_moment_norm": 4.09787156094, 
			 "electric_quadrupole_moment_norm": 17.9494828505, 
			 "total_energy": -928.713907377, 
			 "HOMO_LUMO_gap": 0.18554, 
			 "cosmo_polarized_energy": -16.23, 
			 "cosmo_cavitation_energy": 30.34, 
			 "cosmo_dispersion_energy": -21.14, 
			 "cosmo_repulsion_energy": 1.59, 
			 "cosmo_total_nonelectrostatic_energy": 10.8, 
			 "SMD_solvation_energy": 7.05 
		},
		"coords": [
			{
				"x": -1.262898052,
				"y": -2.0099913751,
				"z": 3.9350422696,
				"element": "F" 
			},
			{
				"x": -0.4342895708,
				"y": -1.4117800751,
				"z": 3.0829962241,
				"element": "C" 
			},
			{
				"x": 0.8130436987,
				"y": -1.4471846499,
				"z": 3.6097170876,
				"element": "F" 
			},
			{
				"x": -0.4124330343,
				"y": -2.1310744361,
				"z": 1.9415100083,
				"element": "F" 
			},
			{
				"x": -0.8608500125,
				"y": 0.0617365725,
				"z": 2.8722887023,
				"element": "C" 
			},
			{
				"x": -1.5294175525,
				"y": 0.593047415,
				"z": 3.7416777701,
				"element": "O" 
			},
			{
				"x": -0.4227755982,
				"y": 0.7418422301,
				"z": 1.7713704177,
				"element": "N" 
			},
			{
				"x": 0.2951098102,
				"y": 0.3739613841,
				"z": 0.5411932844,
				"element": "C" 
			},
			{
				"x": 1.70469807,
				"y": -0.2558557898,
				"z": 0.6940895401,
				"element": "C" 
			},
			{
				"x": 1.8051889068,
				"y": -1.3099261761,
				"z": -0.4211878092,
				"element": "C" 
			},
			{
				"x": 2.8158220554,
				"y": -1.8981283493,
				"z": -0.7523334142,
				"element": "O" 
			},
			{
				"x": 0.448770414,
				"y": -1.4706323355,
				"z": -0.998990784,
				"element": "C" 
			},
			{
				"x": -0.4375654858,
				"y": -0.5618767316,
				"z": -0.4157359919,
				"element": "C" 
			},
			{
				"x": -1.780647555,
				"y": -0.5536526904,
				"z": -0.7842879112,
				"element": "C" 
			},
			{
				"x": -2.2103540442,
				"y": -1.4716656315,
				"z": -1.7465473171,
				"element": "C" 
			},
			{
				"x": -1.3161369554,
				"y": -2.3780292992,
				"z": -2.3381348321,
				"element": "C" 
			},
			{
				"x": 0.0264343897,
				"y": -2.3845694763,
				"z": -1.9674805984,
				"element": "C" 
			},
			{
				"x": -0.7316485956,
				"y": 1.7042213254,
				"z": 1.8263228328,
				"element": "H" 
			},
			{
				"x": 0.411435188,
				"y": 1.3351400331,
				"z": 0.0280543713,
				"element": "H" 
			},
			{
				"x": 1.825539818,
				"y": -0.7548561361,
				"z": 1.6578367126,
				"element": "H" 
			},
			{
				"x": 2.5129891532,
				"y": 0.474790405,
				"z": 0.607530644,
				"element": "H" 
			},
			{
				"x": -2.4832431202,
				"y": 0.1405044426,
				"z": -0.3317801168,
				"element": "H" 
			},
			{
				"x": -3.2552874898,
				"y": -1.4840237597,
				"z": -2.0433529187,
				"element": "H" 
			},
			{
				"x": -1.6790577046,
				"y": -3.0779896121,
				"z": -3.0847491774,
				"element": "H" 
			},
			{
				"x": 0.738473267,
				"y": -3.0799072841,
				"z": -2.4013489937,
				"element": "H" 
			}
		],
		 "valence_orbital": [ 
			{
				"type": "occ",
				"energy": -0.28722,
				"method": "rhf"
			},
			{
				"type": "occ",
				"energy": -0.2833,
				"method": "rhf"
			},
			{
				"type": "occ",
				"energy": -0.27239,
				"method": "rhf"
			},
			{
				"type": "occ",
				"energy": -0.26751,
				"method": "rhf"
			},
			{
				"type": "occ",
				"energy": -0.25087,
				"method": "rhf"
			},
			{
				"type": "unocc",
				"energy": -0.06533,
				"method": "rhf"
			},
			{
				"type": "unocc",
				"energy": -0.02792,
				"method": "rhf"
			},
			{
				"type": "unocc",
				"energy": -0.02206,
				"method": "rhf"
			},
			{
				"type": "unocc",
				"energy": 0.03417,
				"method": "rhf"
			},
			{
				"type": "unocc",
				"energy": 0.05101,
				"method": "rhf"
			}
		],
		"cosmo_sigma_profile": { 
			"-0.025": 0.0,
			"-0.024": 0.0,
			"-0.023": 0.0,
			"-0.022": 0.0,
			"-0.021": 0.0,
			"-0.02": 0.0,
			"-0.019": 0.0,
			"-0.018": 0.0,
			"-0.017": 0.0,
			"-0.016": 0.324746907774,
			"-0.015": 1.20789626473,
			"-0.014": 1.79570749907,
			"-0.013": 0.984201898003,
			"-0.012": 0.964532543816,
			"-0.011": 1.03522293472,
			"-0.01": 1.75117094524,
			"-0.009": 1.92392334551,
			"-0.008": 4.22650686552,
			"-0.007": 8.00110552756,
			"-0.006": 15.6173041226,
			"-0.005": 14.3558519997,
			"-0.004": 16.9246306506,
			"-0.003": 16.0783546187,
			"-0.002": 13.275434569,
			"-0.001": 14.817769577,
			"0.0": 15.5570875347,
			"0.001": 22.9028125648,
			"0.002": 28.7042268312,
			"0.003": 16.9423883372,
			"0.004": 6.72564325259,
			"0.005": 3.2606430593,
			"0.006": 3.00657177633,
			"0.007": 2.56378972933,
			"0.008": 3.0109259752,
			"0.009": 3.79285261038,
			"0.01": 4.18958350702,
			"0.011": 7.71400694047,
			"0.012": 9.37186944576,
			"0.013": 1.78751916822,
			"0.014": 0.0456439779602,
			"0.015": 0.0,
			"0.016": 0.0,
			"0.017": 0.0,
			"0.018": 0.0,
			"0.019": 0.0,
			"0.02": 0.0,
			"0.021": 0.0,
			"0.022": 0.0,
			"0.023": 0.0,
			"0.024": 0.0,
			"0.025": 0.0
		}
	}
}
