{
	 "smiles": "COC1=C(OCC(C)C)C=C(C=O)C=C1", 
	 "Tm": 314.15, 
	 "num_atms": 31, 
	 "gaussian": { 
		 "optdone": 1, 
		 "sigma_profile": "yes", 
		 "theory": "DFT", 
		 "functional": "B3LYP", 
		 "basiset": "6-31G**", 
		 "properties": { 
			 "R2extent": 4540.2471, 
			 "electric_dipole_moment_norm": 3.59242276605, 
			 "electric_quadrupole_moment_norm": 14.4864027964, 
			 "total_energy": -692.567346177, 
			 "HOMO_LUMO_gap": 0.18318, 
			 "cosmo_polarized_energy": -9.35, 
			 "cosmo_cavitation_energy": 34.3, 
			 "cosmo_dispersion_energy": -23.25, 
			 "cosmo_repulsion_energy": 1.83, 
			 "cosmo_total_nonelectrostatic_energy": 12.89, 
			 "SMD_solvation_energy": 7.79 
		},
		"coords": [
			{
				"x": -0.4686560834,
				"y": -3.0565255985,
				"z": -1.440953039,
				"element": "C" 
			},
			{
				"x": 0.8392950377,
				"y": -2.8483940977,
				"z": -0.8876781173,
				"element": "O" 
			},
			{
				"x": 1.4951852253,
				"y": -1.7285412882,
				"z": -1.3285462872,
				"element": "C" 
			},
			{
				"x": 1.0422596029,
				"y": -0.4267890236,
				"z": -1.0066731732,
				"element": "C" 
			},
			{
				"x": -0.1028407207,
				"y": -0.2306078242,
				"z": -0.2725607098,
				"element": "O" 
			},
			{
				"x": -0.003585533,
				"y": -0.5654103784,
				"z": 1.1294396502,
				"element": "C" 
			},
			{
				"x": -1.2564757374,
				"y": -0.0636549668,
				"z": 1.8482882148,
				"element": "C" 
			},
			{
				"x": -2.5281736638,
				"y": -0.7479274501,
				"z": 1.3256094484,
				"element": "C" 
			},
			{
				"x": -1.371420331,
				"y": 1.4664428067,
				"z": 1.7857019657,
				"element": "C" 
			},
			{
				"x": 1.7516493186,
				"y": 0.6754356427,
				"z": -1.466397681,
				"element": "C" 
			},
			{
				"x": 2.9183231148,
				"y": 0.5066857317,
				"z": -2.228097724,
				"element": "C" 
			},
			{
				"x": 3.6674258793,
				"y": 1.6858967611,
				"z": -2.7088234134,
				"element": "C" 
			},
			{
				"x": 3.3494004831,
				"y": 2.8427800249,
				"z": -2.5039873515,
				"element": "O" 
			},
			{
				"x": 3.3795744128,
				"y": -0.7836762325,
				"z": -2.5168820145,
				"element": "C" 
			},
			{
				"x": 2.6672153646,
				"y": -1.894114993,
				"z": -2.0718773454,
				"element": "C" 
			},
			{
				"x": -0.4067458876,
				"y": -3.1988380079,
				"z": -2.5267775193,
				"element": "H" 
			},
			{
				"x": -1.134723509,
				"y": -2.2189417575,
				"z": -1.2180854088,
				"element": "H" 
			},
			{
				"x": -0.8501807233,
				"y": -3.9687554066,
				"z": -0.978881971,
				"element": "H" 
			},
			{
				"x": 0.1060253634,
				"y": -1.6512091712,
				"z": 1.2387146458,
				"element": "H" 
			},
			{
				"x": 0.892720493,
				"y": -0.0844693389,
				"z": 1.5441285274,
				"element": "H" 
			},
			{
				"x": -1.1184635494,
				"y": -0.3565223497,
				"z": 2.8997026119,
				"element": "H" 
			},
			{
				"x": -3.4042394117,
				"y": -0.432786233,
				"z": 1.9017325679,
				"element": "H" 
			},
			{
				"x": -2.454483022,
				"y": -1.8388584574,
				"z": 1.398237766,
				"element": "H" 
			},
			{
				"x": -2.7051516999,
				"y": -0.4885592432,
				"z": 0.2771607883,
				"element": "H" 
			},
			{
				"x": -2.2451526606,
				"y": 1.8155635049,
				"z": 2.3454738378,
				"element": "H" 
			},
			{
				"x": -1.4738120673,
				"y": 1.8043010849,
				"z": 0.750292657,
				"element": "H" 
			},
			{
				"x": -0.4853311085,
				"y": 1.9503174716,
				"z": 2.211254815,
				"element": "H" 
			},
			{
				"x": 1.4059379062,
				"y": 1.6764906024,
				"z": -1.2304982601,
				"element": "H" 
			},
			{
				"x": 4.5816769356,
				"y": 1.4415614395,
				"z": -3.2954400369,
				"element": "H" 
			},
			{
				"x": 4.2882449508,
				"y": -0.9148013692,
				"z": -3.09922622,
				"element": "H" 
			},
			{
				"x": 2.9945016205,
				"y": -2.9054918828,
				"z": -2.2900512237,
				"element": "H" 
			}
		],
		 "valence_orbital": [ 
			{
				"type": "occ",
				"energy": -0.3047,
				"method": "rhf"
			},
			{
				"type": "occ",
				"energy": -0.27289,
				"method": "rhf"
			},
			{
				"type": "occ",
				"energy": -0.25552,
				"method": "rhf"
			},
			{
				"type": "occ",
				"energy": -0.25082,
				"method": "rhf"
			},
			{
				"type": "occ",
				"energy": -0.24177,
				"method": "rhf"
			},
			{
				"type": "unocc",
				"energy": -0.05859,
				"method": "rhf"
			},
			{
				"type": "unocc",
				"energy": -0.01087,
				"method": "rhf"
			},
			{
				"type": "unocc",
				"energy": 0.04236,
				"method": "rhf"
			},
			{
				"type": "unocc",
				"energy": 0.07071,
				"method": "rhf"
			},
			{
				"type": "unocc",
				"energy": 0.09585,
				"method": "rhf"
			}
		],
		"cosmo_sigma_profile": { 
			"-0.025": 0.0,
			"-0.024": 0.0,
			"-0.023": 0.0,
			"-0.022": 0.0,
			"-0.021": 0.0,
			"-0.02": 0.0,
			"-0.019": 0.0,
			"-0.018": 0.0,
			"-0.017": 0.0,
			"-0.016": 0.0,
			"-0.015": 0.0,
			"-0.014": 0.0,
			"-0.013": 0.0,
			"-0.012": 0.0,
			"-0.011": 0.0,
			"-0.01": 0.0,
			"-0.009": 0.0,
			"-0.008": 0.815577247431,
			"-0.007": 5.80839224672,
			"-0.006": 8.2502794072,
			"-0.005": 11.7583881562,
			"-0.004": 15.9285579984,
			"-0.003": 32.4167328194,
			"-0.002": 33.2464374071,
			"-0.001": 32.1992292077,
			"0.0": 26.3473336772,
			"0.001": 27.8224742699,
			"0.002": 23.4325735216,
			"0.003": 14.1816865075,
			"0.004": 5.05529501309,
			"0.005": 4.95907415307,
			"0.006": 4.70604178443,
			"0.007": 2.33799514333,
			"0.008": 3.98745879433,
			"0.009": 3.46784160683,
			"0.01": 3.66096256414,
			"0.011": 4.69974949029,
			"0.012": 3.69552277097,
			"0.013": 1.10921037611,
			"0.014": 0.0623427580577,
			"0.015": 0.0,
			"0.016": 0.0,
			"0.017": 0.0,
			"0.018": 0.0,
			"0.019": 0.0,
			"0.02": 0.0,
			"0.021": 0.0,
			"0.022": 0.0,
			"0.023": 0.0,
			"0.024": 0.0,
			"0.025": 0.0
		}
	}
}
