{
	 "smiles": "CCCCC#C", 
	 "Tm": 141.15, 
	 "num_atms": 16, 
	 "gaussian": { 
		 "optdone": 1, 
		 "sigma_profile": "yes", 
		 "theory": "DFT", 
		 "functional": "B3LYP", 
		 "basiset": "6-31G**", 
		 "properties": { 
			 "R2extent": 798.2639, 
			 "electric_dipole_moment_norm": 0.626247307379, 
			 "electric_quadrupole_moment_norm": 2.65724538385, 
			 "total_energy": -234.60323917, 
			 "HOMO_LUMO_gap": 0.31269, 
			 "cosmo_polarized_energy": -3.47, 
			 "cosmo_cavitation_energy": 19.19, 
			 "cosmo_dispersion_energy": -13.34, 
			 "cosmo_repulsion_energy": 1.16, 
			 "cosmo_total_nonelectrostatic_energy": 7.01, 
			 "SMD_solvation_energy": 4.57 
		},
		"coords": [
			{
				"x": -0.0978518689,
				"y": -1.2900614431,
				"z": 1.0574555304,
				"element": "C" 
			},
			{
				"x": -0.9966188067,
				"y": -0.3569304251,
				"z": 0.2377926736,
				"element": "C" 
			},
			{
				"x": -0.5288463364,
				"y": -0.1351961058,
				"z": -1.2081803063,
				"element": "C" 
			},
			{
				"x": 0.834649334,
				"y": 0.5821912713,
				"z": -1.3469253843,
				"element": "C" 
			},
			{
				"x": 0.8545394359,
				"y": 1.921908847,
				"z": -0.7571383668,
				"element": "C" 
			},
			{
				"x": 0.8555187579,
				"y": 3.0265704951,
				"z": -0.2673198704,
				"element": "C" 
			},
			{
				"x": -0.5149121851,
				"y": -1.4580514685,
				"z": 2.0556826674,
				"element": "H" 
			},
			{
				"x": 0.0074975312,
				"y": -2.2682486246,
				"z": 0.5732032309,
				"element": "H" 
			},
			{
				"x": 0.9065662202,
				"y": -0.8751732649,
				"z": 1.1924571635,
				"element": "H" 
			},
			{
				"x": -2.0127024831,
				"y": -0.7701628397,
				"z": 0.2096059014,
				"element": "H" 
			},
			{
				"x": -1.0729135772,
				"y": 0.615139609,
				"z": 0.7400113378,
				"element": "H" 
			},
			{
				"x": -1.2836392007,
				"y": 0.4502879255,
				"z": -1.7459439372,
				"element": "H" 
			},
			{
				"x": -0.4529948544,
				"y": -1.1016742058,
				"z": -1.7237074635,
				"element": "H" 
			},
			{
				"x": 1.0926177366,
				"y": 0.6554030598,
				"z": -2.4113508283,
				"element": "H" 
			},
			{
				"x": 1.6251476482,
				"y": -0.0248579014,
				"z": -0.8874257242,
				"element": "H" 
			},
			{
				"x": 0.8630426484,
				"y": 4.001955071,
				"z": 0.1604833761,
				"element": "H" 
			}
		],
		 "valence_orbital": [ 
			{
				"type": "occ",
				"energy": -0.33109,
				"method": "rhf"
			},
			{
				"type": "occ",
				"energy": -0.33055,
				"method": "rhf"
			},
			{
				"type": "occ",
				"energy": -0.32792,
				"method": "rhf"
			},
			{
				"type": "occ",
				"energy": -0.25833,
				"method": "rhf"
			},
			{
				"type": "occ",
				"energy": -0.25754,
				"method": "rhf"
			},
			{
				"type": "unocc",
				"energy": 0.05515,
				"method": "rhf"
			},
			{
				"type": "unocc",
				"energy": 0.06151,
				"method": "rhf"
			},
			{
				"type": "unocc",
				"energy": 0.09765,
				"method": "rhf"
			},
			{
				"type": "unocc",
				"energy": 0.12584,
				"method": "rhf"
			},
			{
				"type": "unocc",
				"energy": 0.12984,
				"method": "rhf"
			}
		],
		"cosmo_sigma_profile": { 
			"-0.025": 0.0,
			"-0.024": 0.0,
			"-0.023": 0.0,
			"-0.022": 0.0,
			"-0.021": 0.0,
			"-0.02": 0.0,
			"-0.019": 0.0,
			"-0.018": 0.0,
			"-0.017": 0.0,
			"-0.016": 0.0,
			"-0.015": 0.0,
			"-0.014": 0.0,
			"-0.013": 0.0,
			"-0.012": 0.00570640453367,
			"-0.011": 0.677103879896,
			"-0.01": 1.18992966981,
			"-0.009": 1.63540479109,
			"-0.008": 0.460395087556,
			"-0.007": 1.32552077559,
			"-0.006": 1.10667303121,
			"-0.005": 3.91159134406,
			"-0.004": 6.72201013588,
			"-0.003": 12.8251148704,
			"-0.002": 22.9853964902,
			"-0.001": 19.3468604722,
			"0.0": 21.5340139392,
			"0.001": 18.3321778113,
			"0.002": 8.48278076851,
			"0.003": 4.22546216816,
			"0.004": 4.94890775858,
			"0.005": 4.81699629715,
			"0.006": 5.42581361334,
			"0.007": 6.64605419016,
			"0.008": 4.1125921323,
			"0.009": 0.0,
			"0.01": 0.0,
			"0.011": 0.0,
			"0.012": 0.0,
			"0.013": 0.0,
			"0.014": 0.0,
			"0.015": 0.0,
			"0.016": 0.0,
			"0.017": 0.0,
			"0.018": 0.0,
			"0.019": 0.0,
			"0.02": 0.0,
			"0.021": 0.0,
			"0.022": 0.0,
			"0.023": 0.0,
			"0.024": 0.0,
			"0.025": 0.0
		}
	}
}
