{
	 "smiles": "CNC(=O)OC1=CC=CC=C1C(C)C", 
	 "Tm": 367.15, 
	 "num_atms": 29, 
	 "gaussian": { 
		 "optdone": 1, 
		 "sigma_profile": "yes", 
		 "theory": "DFT", 
		 "functional": "B3LYP", 
		 "basiset": "6-31G**", 
		 "properties": { 
			 "R2extent": 2894.5856, 
			 "electric_dipole_moment_norm": 2.8064622766, 
			 "electric_quadrupole_moment_norm": 13.2431989387, 
			 "total_energy": -633.43736215, 
			 "HOMO_LUMO_gap": 0.23413, 
			 "cosmo_polarized_energy": -11.16, 
			 "cosmo_cavitation_energy": 31.73, 
			 "cosmo_dispersion_energy": -21.72, 
			 "cosmo_repulsion_energy": 1.73, 
			 "cosmo_total_nonelectrostatic_energy": 11.74, 
			 "SMD_solvation_energy": 6.12 
		},
		"coords": [
			{
				"x": 1.2141878116,
				"y": -3.0634317765,
				"z": 1.8208330722,
				"element": "C" 
			},
			{
				"x": 1.0311904132,
				"y": -1.8445294052,
				"z": 2.5920571314,
				"element": "N" 
			},
			{
				"x": 0.4951540872,
				"y": -0.6743843629,
				"z": 2.1460585531,
				"element": "C" 
			},
			{
				"x": 0.3998795604,
				"y": 0.3408748001,
				"z": 2.8036742081,
				"element": "O" 
			},
			{
				"x": 0.0762611627,
				"y": -0.81888642,
				"z": 0.8407127106,
				"element": "O" 
			},
			{
				"x": -0.6037987022,
				"y": 0.2349722327,
				"z": 0.2209398671,
				"element": "C" 
			},
			{
				"x": -1.7323669004,
				"y": 0.7869115602,
				"z": 0.8266772907,
				"element": "C" 
			},
			{
				"x": -2.452692244,
				"y": 1.7818074509,
				"z": 0.1692600173,
				"element": "C" 
			},
			{
				"x": -2.0444307432,
				"y": 2.2121920142,
				"z": -1.0927072376,
				"element": "C" 
			},
			{
				"x": -0.917051925,
				"y": 1.6430668998,
				"z": -1.6829301227,
				"element": "C" 
			},
			{
				"x": -0.162781833,
				"y": 0.6448438924,
				"z": -1.047678408,
				"element": "C" 
			},
			{
				"x": 1.0551363531,
				"y": 0.0626446717,
				"z": -1.7575224507,
				"element": "C" 
			},
			{
				"x": 2.3704630873,
				"y": 0.2760334689,
				"z": -0.9840599538,
				"element": "C" 
			},
			{
				"x": 0.8592858054,
				"y": -1.4156912442,
				"z": -2.1473070105,
				"element": "C" 
			},
			{
				"x": 1.456703845,
				"y": -3.87506702,
				"z": 2.5103899239,
				"element": "H" 
			},
			{
				"x": 0.2945515284,
				"y": -3.3231540225,
				"z": 1.2921025094,
				"element": "H" 
			},
			{
				"x": 2.0235481239,
				"y": -2.9790191952,
				"z": 1.085403702,
				"element": "H" 
			},
			{
				"x": 1.427891718,
				"y": -1.7764136524,
				"z": 3.5159839016,
				"element": "H" 
			},
			{
				"x": -2.0294496724,
				"y": 0.4434407923,
				"z": 1.8099742806,
				"element": "H" 
			},
			{
				"x": -3.3281764418,
				"y": 2.2143092288,
				"z": 0.6442055971,
				"element": "H" 
			},
			{
				"x": -2.5988411665,
				"y": 2.9856922723,
				"z": -1.6158654824,
				"element": "H" 
			},
			{
				"x": -0.6020007533,
				"y": 1.9793653443,
				"z": -2.6676398671,
				"element": "H" 
			},
			{
				"x": 1.14686154,
				"y": 0.6277331646,
				"z": -2.6943049797,
				"element": "H" 
			},
			{
				"x": 2.3955452193,
				"y": -0.3100660146,
				"z": -0.0621360712,
				"element": "H" 
			},
			{
				"x": 2.5061915176,
				"y": 1.3288769176,
				"z": -0.7183169391,
				"element": "H" 
			},
			{
				"x": 3.2232676323,
				"y": -0.0310459876,
				"z": -1.5998408133,
				"element": "H" 
			},
			{
				"x": 0.7629492397,
				"y": -2.0484468464,
				"z": -1.2615455723,
				"element": "H" 
			},
			{
				"x": -0.0416127827,
				"y": -1.5456230087,
				"z": -2.755465529,
				"element": "H" 
			},
			{
				"x": 1.7156345196,
				"y": -1.7723057546,
				"z": -2.7308523275,
				"element": "H" 
			}
		],
		 "valence_orbital": [ 
			{
				"type": "occ",
				"energy": -0.30474,
				"method": "rhf"
			},
			{
				"type": "occ",
				"energy": -0.27194,
				"method": "rhf"
			},
			{
				"type": "occ",
				"energy": -0.2568,
				"method": "rhf"
			},
			{
				"type": "occ",
				"energy": -0.24063,
				"method": "rhf"
			},
			{
				"type": "occ",
				"energy": -0.23082,
				"method": "rhf"
			},
			{
				"type": "unocc",
				"energy": 0.00331,
				"method": "rhf"
			},
			{
				"type": "unocc",
				"energy": 0.00431,
				"method": "rhf"
			},
			{
				"type": "unocc",
				"energy": 0.0536,
				"method": "rhf"
			},
			{
				"type": "unocc",
				"energy": 0.07089,
				"method": "rhf"
			},
			{
				"type": "unocc",
				"energy": 0.09363,
				"method": "rhf"
			}
		],
		"cosmo_sigma_profile": { 
			"-0.025": 0.0,
			"-0.024": 0.0,
			"-0.023": 0.0,
			"-0.022": 0.0,
			"-0.021": 0.0,
			"-0.02": 0.0,
			"-0.019": 0.0,
			"-0.018": 0.0,
			"-0.017": 0.0,
			"-0.016": 0.0,
			"-0.015": 0.17288107026,
			"-0.014": 1.12066428362,
			"-0.013": 1.22091184668,
			"-0.012": 0.953298552319,
			"-0.011": 1.0596171729,
			"-0.01": 1.25572432591,
			"-0.009": 1.02601361592,
			"-0.008": 1.07531398058,
			"-0.007": 1.13660737394,
			"-0.006": 6.39743556409,
			"-0.005": 13.0107510766,
			"-0.004": 17.3356792155,
			"-0.003": 23.8234328847,
			"-0.002": 29.4852600699,
			"-0.001": 28.3711021864,
			"0.0": 24.0429221986,
			"0.001": 26.3727651617,
			"0.002": 16.2376909891,
			"0.003": 11.4139170533,
			"0.004": 10.2665293865,
			"0.005": 9.96840736256,
			"0.006": 5.79721746186,
			"0.007": 1.51299956782,
			"0.008": 1.13586679291,
			"0.009": 1.60145585224,
			"0.01": 1.98405838316,
			"0.011": 2.0900901353,
			"0.012": 2.45820278174,
			"0.013": 5.89833827787,
			"0.014": 1.48701045501,
			"0.015": 0.0,
			"0.016": 0.0,
			"0.017": 0.0,
			"0.018": 0.0,
			"0.019": 0.0,
			"0.02": 0.0,
			"0.021": 0.0,
			"0.022": 0.0,
			"0.023": 0.0,
			"0.024": 0.0,
			"0.025": 0.0
		}
	}
}
