{
	 "smiles": "CCOC(=O)C(=CC1=CC=CC=C1)C(C)=O", 
	 "Tm": 333.65, 
	 "num_atms": 30, 
	 "gaussian": { 
		 "optdone": 1, 
		 "sigma_profile": "yes", 
		 "theory": "DFT", 
		 "functional": "B3LYP", 
		 "basiset": "6-31G**", 
		 "properties": { 
			 "R2extent": 5211.5689, 
			 "electric_dipole_moment_norm": 3.69237008573, 
			 "electric_quadrupole_moment_norm": 10.3799040607, 
			 "total_energy": -729.489878608, 
			 "HOMO_LUMO_gap": 0.16579, 
			 "cosmo_polarized_energy": -10.02, 
			 "cosmo_cavitation_energy": 34.19, 
			 "cosmo_dispersion_energy": -24.15, 
			 "cosmo_repulsion_energy": 1.92, 
			 "cosmo_total_nonelectrostatic_energy": 11.96, 
			 "SMD_solvation_energy": 7.63 
		},
		"coords": [
			{
				"x": -3.9457013229,
				"y": 1.1177226787,
				"z": 3.3953562469,
				"element": "C" 
			},
			{
				"x": -3.8154876919,
				"y": -0.2132188363,
				"z": 2.6703005131,
				"element": "C" 
			},
			{
				"x": -2.9880050156,
				"y": -0.0924983241,
				"z": 1.488399889,
				"element": "O" 
			},
			{
				"x": -1.6527153001,
				"y": -0.2130731515,
				"z": 1.6703212578,
				"element": "C" 
			},
			{
				"x": -1.1487251517,
				"y": -0.3992201824,
				"z": 2.7655763128,
				"element": "O" 
			},
			{
				"x": -0.8674407706,
				"y": -0.1317066502,
				"z": 0.4037764808,
				"element": "C" 
			},
			{
				"x": -1.5192646786,
				"y": 0.0072204998,
				"z": -0.7798133703,
				"element": "C" 
			},
			{
				"x": -1.0645337716,
				"y": 0.1280515354,
				"z": -2.1684670969,
				"element": "C" 
			},
			{
				"x": -1.9300657458,
				"y": 0.8095516086,
				"z": -3.0516254153,
				"element": "C" 
			},
			{
				"x": -1.5960321746,
				"y": 0.9964818679,
				"z": -4.3889404804,
				"element": "C" 
			},
			{
				"x": -0.3967559231,
				"y": 0.4786036106,
				"z": -4.8839958983,
				"element": "C" 
			},
			{
				"x": 0.4552561424,
				"y": -0.2275556349,
				"z": -4.0320173831,
				"element": "C" 
			},
			{
				"x": 0.1319992504,
				"y": -0.4063680328,
				"z": -2.6884483417,
				"element": "C" 
			},
			{
				"x": 0.6350094234,
				"y": -0.1823442153,
				"z": 0.5809034583,
				"element": "C" 
			},
			{
				"x": 1.2618330935,
				"y": 0.8482681136,
				"z": 1.4980812705,
				"element": "C" 
			},
			{
				"x": 1.3214211815,
				"y": -0.9943190284,
				"z": -0.0167200861,
				"element": "O" 
			},
			{
				"x": -2.9772749534,
				"y": 1.4376542618,
				"z": 3.7870856854,
				"element": "H" 
			},
			{
				"x": -4.6391989769,
				"y": 1.0147422906,
				"z": 4.2366369055,
				"element": "H" 
			},
			{
				"x": -4.3318831127,
				"y": 1.8915248834,
				"z": 2.725243564,
				"element": "H" 
			},
			{
				"x": -4.7796980553,
				"y": -0.5582449319,
				"z": 2.2893122222,
				"element": "H" 
			},
			{
				"x": -3.3872283364,
				"y": -0.9774138122,
				"z": 3.3227081559,
				"element": "H" 
			},
			{
				"x": -2.5967211462,
				"y": 0.1147922202,
				"z": -0.6788673648,
				"element": "H" 
			},
			{
				"x": -2.8677238935,
				"y": 1.2066506459,
				"z": -2.6710634597,
				"element": "H" 
			},
			{
				"x": -2.2723527173,
				"y": 1.5357116657,
				"z": -5.0457310124,
				"element": "H" 
			},
			{
				"x": -0.1358247984,
				"y": 0.6118305713,
				"z": -5.9300334319,
				"element": "H" 
			},
			{
				"x": 1.3772033913,
				"y": -0.6529063405,
				"z": -4.4179038519,
				"element": "H" 
			},
			{
				"x": 0.7816359091,
				"y": -0.979997797,
				"z": -2.0411368555,
				"element": "H" 
			},
			{
				"x": 2.3477919226,
				"y": 0.7736096693,
				"z": 1.4236139913,
				"element": "H" 
			},
			{
				"x": 0.938043526,
				"y": 0.6711245591,
				"z": 2.526300452,
				"element": "H" 
			},
			{
				"x": 0.9353396964,
				"y": 1.8565262556,
				"z": 1.2182476426,
				"element": "H" 
			}
		],
		 "valence_orbital": [ 
			{
				"type": "occ",
				"energy": -0.30137,
				"method": "rhf"
			},
			{
				"type": "occ",
				"energy": -0.2775,
				"method": "rhf"
			},
			{
				"type": "occ",
				"energy": -0.25703,
				"method": "rhf"
			},
			{
				"type": "occ",
				"energy": -0.25088,
				"method": "rhf"
			},
			{
				"type": "occ",
				"energy": -0.2374,
				"method": "rhf"
			},
			{
				"type": "unocc",
				"energy": -0.07161,
				"method": "rhf"
			},
			{
				"type": "unocc",
				"energy": -0.01869,
				"method": "rhf"
			},
			{
				"type": "unocc",
				"energy": -0.00623,
				"method": "rhf"
			},
			{
				"type": "unocc",
				"energy": 0.01388,
				"method": "rhf"
			},
			{
				"type": "unocc",
				"energy": 0.08415,
				"method": "rhf"
			}
		],
		"cosmo_sigma_profile": { 
			"-0.025": 0.0,
			"-0.024": 0.0,
			"-0.023": 0.0,
			"-0.022": 0.0,
			"-0.021": 0.0,
			"-0.02": 0.0,
			"-0.019": 0.0,
			"-0.018": 0.0,
			"-0.017": 0.0,
			"-0.016": 0.0,
			"-0.015": 0.0,
			"-0.014": 0.0,
			"-0.013": 0.0,
			"-0.012": 0.0,
			"-0.011": 0.0,
			"-0.01": 0.0,
			"-0.009": 0.0,
			"-0.008": 0.435319813243,
			"-0.007": 3.17269237887,
			"-0.006": 11.9421549847,
			"-0.005": 19.3004208363,
			"-0.004": 25.6142117745,
			"-0.003": 25.3035872142,
			"-0.002": 26.5681560334,
			"-0.001": 28.1219667148,
			"0.0": 25.9302952988,
			"0.001": 19.874861763,
			"0.002": 16.712924285,
			"0.003": 15.9264036712,
			"0.004": 18.7132991699,
			"0.005": 9.21000417965,
			"0.006": 3.32766856567,
			"0.007": 3.15927313586,
			"0.008": 3.17504704658,
			"0.009": 3.5773554498,
			"0.01": 4.37595473329,
			"0.011": 4.66530674023,
			"0.012": 2.90372999349,
			"0.013": 0.163392720554,
			"0.014": 0.0,
			"0.015": 0.0,
			"0.016": 0.0,
			"0.017": 0.0,
			"0.018": 0.0,
			"0.019": 0.0,
			"0.02": 0.0,
			"0.021": 0.0,
			"0.022": 0.0,
			"0.023": 0.0,
			"0.024": 0.0,
			"0.025": 0.0
		}
	}
}
