{
	 "smiles": "CCOC(=O)C1=C(N)N=CN1", 
	 "Tm": 403.15, 
	 "num_atms": 20, 
	 "gaussian": { 
		 "optdone": 1, 
		 "sigma_profile": "yes", 
		 "theory": "DFT", 
		 "functional": "B3LYP", 
		 "basiset": "6-31G**", 
		 "properties": { 
			 "R2extent": 2239.7974, 
			 "electric_dipole_moment_norm": 1.30457423706, 
			 "electric_quadrupole_moment_norm": 12.1345870993, 
			 "total_energy": -548.788542743, 
			 "HOMO_LUMO_gap": 0.18251, 
			 "cosmo_polarized_energy": -14.51, 
			 "cosmo_cavitation_energy": 24.5, 
			 "cosmo_dispersion_energy": -18.03, 
			 "cosmo_repulsion_energy": 1.48, 
			 "cosmo_total_nonelectrostatic_energy": 7.94, 
			 "SMD_solvation_energy": 3.84 
		},
		"coords": [
			{
				"x": 0.9935868314,
				"y": 1.6408705133,
				"z": -2.366098314,
				"element": "C" 
			},
			{
				"x": -0.2074547027,
				"y": 1.4020657315,
				"z": -1.4703613553,
				"element": "C" 
			},
			{
				"x": 0.2384720143,
				"y": 0.6157882497,
				"z": -0.3443716274,
				"element": "O" 
			},
			{
				"x": -0.7261593988,
				"y": 0.2941683796,
				"z": 0.5663319084,
				"element": "C" 
			},
			{
				"x": -1.8934214273,
				"y": 0.6453931074,
				"z": 0.465236509,
				"element": "O" 
			},
			{
				"x": -0.1986357956,
				"y": -0.4937762925,
				"z": 1.6497633131,
				"element": "C" 
			},
			{
				"x": 1.062242897,
				"y": -0.998444169,
				"z": 1.9803636327,
				"element": "C" 
			},
			{
				"x": 2.2202904435,
				"y": -0.9375202977,
				"z": 1.249026687,
				"element": "N" 
			},
			{
				"x": 1.014978499,
				"y": -1.659633352,
				"z": 3.1787960435,
				"element": "N" 
			},
			{
				"x": -0.2470295726,
				"y": -1.5714291965,
				"z": 3.5761213793,
				"element": "C" 
			},
			{
				"x": -1.0182611892,
				"y": -0.8911989322,
				"z": 2.7056417804,
				"element": "N" 
			},
			{
				"x": 0.695740897,
				"y": 2.2321635785,
				"z": -3.2375484448,
				"element": "H" 
			},
			{
				"x": 1.4117689791,
				"y": 0.6942174218,
				"z": -2.720856206,
				"element": "H" 
			},
			{
				"x": 1.777554409,
				"y": 2.1885739798,
				"z": -1.8341549429,
				"element": "H" 
			},
			{
				"x": -1.0030754646,
				"y": 0.8585035421,
				"z": -1.9894792137,
				"element": "H" 
			},
			{
				"x": -0.6372623412,
				"y": 2.3393272329,
				"z": -1.1026474123,
				"element": "H" 
			},
			{
				"x": 2.2501028609,
				"y": -0.2238129023,
				"z": 0.5359580482,
				"element": "H" 
			},
			{
				"x": 3.0659804006,
				"y": -1.0732719691,
				"z": 1.7830717415,
				"element": "H" 
			},
			{
				"x": -0.6350388158,
				"y": -1.9922307424,
				"z": 4.4938515849,
				"element": "H" 
			},
			{
				"x": -2.0023795242,
				"y": -0.673753883,
				"z": 2.7590548883,
				"element": "H" 
			}
		],
		 "valence_orbital": [ 
			{
				"type": "occ",
				"energy": -0.29401,
				"method": "rhf"
			},
			{
				"type": "occ",
				"energy": -0.28965,
				"method": "rhf"
			},
			{
				"type": "occ",
				"energy": -0.26553,
				"method": "rhf"
			},
			{
				"type": "occ",
				"energy": -0.26084,
				"method": "rhf"
			},
			{
				"type": "occ",
				"energy": -0.20024,
				"method": "rhf"
			},
			{
				"type": "unocc",
				"energy": -0.01773,
				"method": "rhf"
			},
			{
				"type": "unocc",
				"energy": 0.05057,
				"method": "rhf"
			},
			{
				"type": "unocc",
				"energy": 0.0894,
				"method": "rhf"
			},
			{
				"type": "unocc",
				"energy": 0.09136,
				"method": "rhf"
			},
			{
				"type": "unocc",
				"energy": 0.10528,
				"method": "rhf"
			}
		],
		"cosmo_sigma_profile": { 
			"-0.025": 0.0,
			"-0.024": 0.0,
			"-0.023": 0.0,
			"-0.022": 0.0,
			"-0.021": 0.0,
			"-0.02": 0.0,
			"-0.019": 0.0,
			"-0.018": 0.0,
			"-0.017": 0.245622604945,
			"-0.016": 0.740059585751,
			"-0.015": 0.764679970204,
			"-0.014": 1.25630929218,
			"-0.013": 1.66576683536,
			"-0.012": 1.7946569772,
			"-0.011": 2.43997537191,
			"-0.01": 4.51209462703,
			"-0.009": 4.82014178557,
			"-0.008": 3.96854378659,
			"-0.007": 4.33631540519,
			"-0.006": 3.66313175101,
			"-0.005": 7.4827627532,
			"-0.004": 13.8751993107,
			"-0.003": 15.7397665759,
			"-0.002": 14.7702967582,
			"-0.001": 16.1013630369,
			"0.0": 16.2041481845,
			"0.001": 12.6810463461,
			"0.002": 13.7054664533,
			"0.003": 7.3670659822,
			"0.004": 5.49049121707,
			"0.005": 5.01590864621,
			"0.006": 3.49107971112,
			"0.007": 4.43090159516,
			"0.008": 3.88883517592,
			"0.009": 3.06790687706,
			"0.01": 2.94184605576,
			"0.011": 3.06573018456,
			"0.012": 5.49538957288,
			"0.013": 5.42150804126,
			"0.014": 0.670561055349,
			"0.015": 1.0089530145,
			"0.016": 1.11774767879,
			"0.017": 0.56173380912,
			"0.018": 0.0227600472581,
			"0.019": 0.0,
			"0.02": 0.0,
			"0.021": 0.0,
			"0.022": 0.0,
			"0.023": 0.0,
			"0.024": 0.0,
			"0.025": 0.0
		}
	}
}
