{
	 "smiles": "ClC1=CC=C(NC2=C(N=NC(=S)N2)C2=CC=CC=C2)C=C1", 
	 "Tm": 587.15, 
	 "num_atms": 32, 
	 "gaussian": { 
		 "optdone": 1, 
		 "sigma_profile": "yes", 
		 "theory": "DFT", 
		 "functional": "B3LYP", 
		 "basiset": "6-31G**", 
		 "properties": { 
			 "R2extent": 11239.5941, 
			 "electric_dipole_moment_norm": 9.69967668997, 
			 "electric_quadrupole_moment_norm": 33.5222975237, 
			 "total_energy": -1655.56922365, 
			 "HOMO_LUMO_gap": 0.12189, 
			 "cosmo_polarized_energy": -31.99, 
			 "cosmo_cavitation_energy": 40.81, 
			 "cosmo_dispersion_energy": -29.55, 
			 "cosmo_repulsion_energy": 2.23, 
			 "cosmo_total_nonelectrostatic_energy": 13.48, 
			 "SMD_solvation_energy": 3.55 
		},
		"coords": [
			{
				"x": -3.7375339666,
				"y": 5.8096542696,
				"z": -2.6702072272,
				"element": "Cl" 
			},
			{
				"x": -2.885468417,
				"y": 4.3622635381,
				"z": -2.1750019662,
				"element": "C" 
			},
			{
				"x": -3.1943364646,
				"y": 3.7656348411,
				"z": -0.9513945208,
				"element": "C" 
			},
			{
				"x": -2.5258627818,
				"y": 2.6066552826,
				"z": -0.5662744751,
				"element": "C" 
			},
			{
				"x": -1.5353312782,
				"y": 2.0540149957,
				"z": -1.3883486593,
				"element": "C" 
			},
			{
				"x": -0.8354452712,
				"y": 0.9009229623,
				"z": -0.9438086262,
				"element": "N" 
			},
			{
				"x": -0.6085229707,
				"y": -0.2510264936,
				"z": -1.6359146406,
				"element": "C" 
			},
			{
				"x": 0.0920099441,
				"y": -1.3558830282,
				"z": -1.1135002628,
				"element": "C" 
			},
			{
				"x": 0.1257250625,
				"y": -2.5083386181,
				"z": -1.8256229306,
				"element": "N" 
			},
			{
				"x": -0.3677403684,
				"y": -2.6406033217,
				"z": -3.0258047581,
				"element": "N" 
			},
			{
				"x": -0.9779990185,
				"y": -1.571089565,
				"z": -3.6421881109,
				"element": "C" 
			},
			{
				"x": -1.5645556858,
				"y": -1.5994616681,
				"z": -5.2013010391,
				"element": "S" 
			},
			{
				"x": -1.1193037389,
				"y": -0.4038997401,
				"z": -2.8776082423,
				"element": "N" 
			},
			{
				"x": 0.7128378658,
				"y": -1.3786107504,
				"z": 0.2303291158,
				"element": "C" 
			},
			{
				"x": 1.4326107982,
				"y": -0.2850655679,
				"z": 0.7480046721,
				"element": "C" 
			},
			{
				"x": 2.0099769642,
				"y": -0.3488809968,
				"z": 2.0179367398,
				"element": "C" 
			},
			{
				"x": 1.890093727,
				"y": -1.5063772966,
				"z": 2.7863105402,
				"element": "C" 
			},
			{
				"x": 1.1983416078,
				"y": -2.6069389109,
				"z": 2.2714655877,
				"element": "C" 
			},
			{
				"x": 0.6154506608,
				"y": -2.5461154982,
				"z": 1.0089799044,
				"element": "C" 
			},
			{
				"x": -1.2155149244,
				"y": 2.6779360434,
				"z": -2.6029469146,
				"element": "C" 
			},
			{
				"x": -1.9021430036,
				"y": 3.8230870591,
				"z": -3.0041683219,
				"element": "C" 
			},
			{
				"x": -3.9594929059,
				"y": 4.1952249065,
				"z": -0.314788292,
				"element": "H" 
			},
			{
				"x": -2.7791565186,
				"y": 2.123022402,
				"z": 0.3725389056,
				"element": "H" 
			},
			{
				"x": -0.6072686208,
				"y": 0.8461794236,
				"z": 0.0411483419,
				"element": "H" 
			},
			{
				"x": -1.6686763353,
				"y": 0.3332489241,
				"z": -3.3069150698,
				"element": "H" 
			},
			{
				"x": 1.5896038912,
				"y": 0.6013823387,
				"z": 0.1396172303,
				"element": "H" 
			},
			{
				"x": 2.5690594869,
				"y": 0.5022455806,
				"z": 2.3958638235,
				"element": "H" 
			},
			{
				"x": 2.3400526413,
				"y": -1.5561313097,
				"z": 3.7733427447,
				"element": "H" 
			},
			{
				"x": 1.1102317204,
				"y": -3.5162353755,
				"z": 2.8589337691,
				"element": "H" 
			},
			{
				"x": 0.0853647134,
				"y": -3.4002048539,
				"z": 0.6019252908,
				"element": "H" 
			},
			{
				"x": -0.4133983937,
				"y": 2.2917177248,
				"z": -3.224002205,
				"element": "H" 
			},
			{
				"x": -1.6596084197,
				"y": 4.3034727023,
				"z": -3.9452004035,
				"element": "H" 
			}
		],
		 "valence_orbital": [ 
			{
				"type": "occ",
				"energy": -0.26805,
				"method": "rhf"
			},
			{
				"type": "occ",
				"energy": -0.25637,
				"method": "rhf"
			},
			{
				"type": "occ",
				"energy": -0.23682,
				"method": "rhf"
			},
			{
				"type": "occ",
				"energy": -0.20738,
				"method": "rhf"
			},
			{
				"type": "occ",
				"energy": -0.20554,
				"method": "rhf"
			},
			{
				"type": "unocc",
				"energy": -0.08365,
				"method": "rhf"
			},
			{
				"type": "unocc",
				"energy": -0.05526,
				"method": "rhf"
			},
			{
				"type": "unocc",
				"energy": -0.05189,
				"method": "rhf"
			},
			{
				"type": "unocc",
				"energy": -0.0345,
				"method": "rhf"
			},
			{
				"type": "unocc",
				"energy": -0.02078,
				"method": "rhf"
			}
		],
		"cosmo_sigma_profile": { 
			"-0.025": 0.0,
			"-0.024": 0.0,
			"-0.023": 0.0,
			"-0.022": 0.0,
			"-0.021": 0.0,
			"-0.02": 0.0,
			"-0.019": 0.0,
			"-0.018": 0.0,
			"-0.017": 0.0,
			"-0.016": 0.133136463157,
			"-0.015": 0.772258405059,
			"-0.014": 1.3742554614,
			"-0.013": 1.78226211848,
			"-0.012": 2.24455755555,
			"-0.011": 3.20747390901,
			"-0.01": 4.35002933425,
			"-0.009": 6.30326131476,
			"-0.008": 9.58017875685,
			"-0.007": 14.6026632364,
			"-0.006": 23.7300791146,
			"-0.005": 21.7307191526,
			"-0.004": 19.1180725669,
			"-0.003": 15.9553906854,
			"-0.002": 17.6805533999,
			"-0.001": 16.4870855502,
			"0.0": 19.37745448,
			"0.001": 24.3183874389,
			"0.002": 25.0940281889,
			"0.003": 17.8064678235,
			"0.004": 24.2027870222,
			"0.005": 11.314780493,
			"0.006": 4.46793769311,
			"0.007": 5.57623112203,
			"0.008": 5.71763656709,
			"0.009": 8.31932988303,
			"0.01": 8.31614074266,
			"0.011": 5.94121939111,
			"0.012": 4.48965959784,
			"0.013": 4.30307096447,
			"0.014": 2.93273942938,
			"0.015": 1.68063082181,
			"0.016": 1.18284541324,
			"0.017": 0.394948979312,
			"0.018": 0.0,
			"0.019": 0.0,
			"0.02": 0.0,
			"0.021": 0.0,
			"0.022": 0.0,
			"0.023": 0.0,
			"0.024": 0.0,
			"0.025": 0.0
		}
	}
}
