{
	 "smiles": "CC(O)C(N)=O", 
	 "Tm": 326.15, 
	 "num_atms": 13, 
	 "gaussian": { 
		 "optdone": 1, 
		 "sigma_profile": "yes", 
		 "theory": "DFT", 
		 "functional": "B3LYP", 
		 "basiset": "6-31G**", 
		 "properties": { 
			 "R2extent": 985.0815, 
			 "electric_dipole_moment_norm": 2.73085295283, 
			 "electric_quadrupole_moment_norm": 10.7808231921, 
			 "total_energy": -323.750225694, 
			 "HOMO_LUMO_gap": 0.26468, 
			 "cosmo_polarized_energy": -13.49, 
			 "cosmo_cavitation_energy": 16.4, 
			 "cosmo_dispersion_energy": -12.3, 
			 "cosmo_repulsion_energy": 1.09, 
			 "cosmo_total_nonelectrostatic_energy": 5.19, 
			 "SMD_solvation_energy": 3.92 
		},
		"coords": [
			{
				"x": -0.0862489444,
				"y": -0.27502227,
				"z": 0.8800652594,
				"element": "C" 
			},
			{
				"x": 0.8309086012,
				"y": -1.1057791287,
				"z": -0.0123613466,
				"element": "C" 
			},
			{
				"x": 1.2756479558,
				"y": -2.3107956568,
				"z": 0.6173319156,
				"element": "O" 
			},
			{
				"x": 0.1797334233,
				"y": -1.3635688174,
				"z": -1.387510737,
				"element": "C" 
			},
			{
				"x": 0.3272115198,
				"y": -2.6378763625,
				"z": -1.8411300973,
				"element": "N" 
			},
			{
				"x": -0.4022687773,
				"y": -0.4770989574,
				"z": -1.9980576278,
				"element": "O" 
			},
			{
				"x": -0.9885167904,
				"y": -0.8423363559,
				"z": 1.1419660298,
				"element": "H" 
			},
			{
				"x": 0.4292741213,
				"y": 0.0068639297,
				"z": 1.8018722817,
				"element": "H" 
			},
			{
				"x": -0.4052445527,
				"y": 0.6229797772,
				"z": 0.3480504588,
				"element": "H" 
			},
			{
				"x": 1.7470386516,
				"y": -0.5377027867,
				"z": -0.2167095186,
				"element": "H" 
			},
			{
				"x": 0.5106374766,
				"y": -2.7047402261,
				"z": 1.0591711908,
				"element": "H" 
			},
			{
				"x": 0.926690667,
				"y": -3.2705675922,
				"z": -1.3337571283,
				"element": "H" 
			},
			{
				"x": 0.0299366481,
				"y": -2.8517555531,
				"z": -2.7805306805,
				"element": "H" 
			}
		],
		 "valence_orbital": [ 
			{
				"type": "occ",
				"energy": -0.36828,
				"method": "rhf"
			},
			{
				"type": "occ",
				"energy": -0.33889,
				"method": "rhf"
			},
			{
				"type": "occ",
				"energy": -0.31104,
				"method": "rhf"
			},
			{
				"type": "occ",
				"energy": -0.26569,
				"method": "rhf"
			},
			{
				"type": "occ",
				"energy": -0.23643,
				"method": "rhf"
			},
			{
				"type": "unocc",
				"energy": 0.02825,
				"method": "rhf"
			},
			{
				"type": "unocc",
				"energy": 0.06744,
				"method": "rhf"
			},
			{
				"type": "unocc",
				"energy": 0.10406,
				"method": "rhf"
			},
			{
				"type": "unocc",
				"energy": 0.1274,
				"method": "rhf"
			},
			{
				"type": "unocc",
				"energy": 0.13568,
				"method": "rhf"
			}
		],
		"cosmo_sigma_profile": { 
			"-0.025": 0.0,
			"-0.024": 0.0,
			"-0.023": 0.0,
			"-0.022": 0.0,
			"-0.021": 0.0,
			"-0.02": 0.0,
			"-0.019": 0.0,
			"-0.018": 0.0,
			"-0.017": 0.0,
			"-0.016": 0.4136249689,
			"-0.015": 1.06179463638,
			"-0.014": 1.28758298383,
			"-0.013": 2.5735587603,
			"-0.012": 2.78727454962,
			"-0.011": 2.24586595311,
			"-0.01": 3.60549315692,
			"-0.009": 2.70110783138,
			"-0.008": 2.88806044031,
			"-0.007": 2.41613546726,
			"-0.006": 6.10551452225,
			"-0.005": 5.99068516137,
			"-0.004": 7.262912974,
			"-0.003": 7.77945064545,
			"-0.002": 10.4091716579,
			"-0.001": 9.55376102974,
			"0.0": 9.67081116176,
			"0.001": 5.40696269765,
			"0.002": 3.36425809331,
			"0.003": 3.5449460119,
			"0.004": 3.39581729888,
			"0.005": 3.35008985133,
			"0.006": 2.80652907073,
			"0.007": 2.7455395855,
			"0.008": 2.21653306822,
			"0.009": 1.96497435957,
			"0.01": 2.14828400611,
			"0.011": 2.37309156413,
			"0.012": 3.09630234221,
			"0.013": 4.64594130116,
			"0.014": 5.96962066247,
			"0.015": 1.77487142834,
			"0.016": 0.0463998539979,
			"0.017": 0.0,
			"0.018": 0.0,
			"0.019": 0.0,
			"0.02": 0.0,
			"0.021": 0.0,
			"0.022": 0.0,
			"0.023": 0.0,
			"0.024": 0.0,
			"0.025": 0.0
		}
	}
}
