{
	 "smiles": "CC1=NC(Cl)=NC(C)=C1CC1=CC=CC=C1", 
	 "Tm": 316.15, 
	 "num_atms": 29, 
	 "gaussian": { 
		 "optdone": 1, 
		 "sigma_profile": "yes", 
		 "theory": "DFT", 
		 "functional": "B3LYP", 
		 "basiset": "6-31G**", 
		 "properties": { 
			 "R2extent": 5003.9435, 
			 "electric_dipole_moment_norm": 4.91827853115, 
			 "electric_quadrupole_moment_norm": 15.0183378125, 
			 "total_energy": -1072.93236641, 
			 "HOMO_LUMO_gap": 0.20896, 
			 "cosmo_polarized_energy": -10.76, 
			 "cosmo_cavitation_energy": 34.11, 
			 "cosmo_dispersion_energy": -24.09, 
			 "cosmo_repulsion_energy": 1.89, 
			 "cosmo_total_nonelectrostatic_energy": 11.92, 
			 "SMD_solvation_energy": 2.69 
		},
		"coords": [
			{
				"x": -0.4267658749,
				"y": -3.2806354449,
				"z": -1.1925272197,
				"element": "C" 
			},
			{
				"x": -1.1860719368,
				"y": -2.0161809122,
				"z": -0.8757719942,
				"element": "C" 
			},
			{
				"x": -2.4577257533,
				"y": -2.1884024025,
				"z": -0.4681961369,
				"element": "N" 
			},
			{
				"x": -3.1324595152,
				"y": -1.0854000942,
				"z": -0.1919423075,
				"element": "C" 
			},
			{
				"x": -4.7942576462,
				"y": -1.3171348783,
				"z": 0.3367810953,
				"element": "Cl" 
			},
			{
				"x": -2.7202943288,
				"y": 0.1706082187,
				"z": -0.2586591543,
				"element": "N" 
			},
			{
				"x": -1.4512296028,
				"y": 0.3515803388,
				"z": -0.6635543113,
				"element": "C" 
			},
			{
				"x": -0.979597002,
				"y": 1.7790311341,
				"z": -0.7450703846,
				"element": "C" 
			},
			{
				"x": -0.6192904437,
				"y": -0.7349769303,
				"z": -0.9966854827,
				"element": "C" 
			},
			{
				"x": 0.805310723,
				"y": -0.5202250264,
				"z": -1.4608309596,
				"element": "C" 
			},
			{
				"x": 1.824983461,
				"y": -0.2270470934,
				"z": -0.3619031008,
				"element": "C" 
			},
			{
				"x": 2.9597581772,
				"y": 0.5399649636,
				"z": -0.6614552209,
				"element": "C" 
			},
			{
				"x": 3.9365523362,
				"y": 0.7832110767,
				"z": 0.3041219861,
				"element": "C" 
			},
			{
				"x": 3.7922684925,
				"y": 0.2647366001,
				"z": 1.5925961434,
				"element": "C" 
			},
			{
				"x": 2.6645479626,
				"y": -0.4952015217,
				"z": 1.9042577045,
				"element": "C" 
			},
			{
				"x": 1.6887735971,
				"y": -0.7381034601,
				"z": 0.9351097138,
				"element": "C" 
			},
			{
				"x": -1.0336078354,
				"y": -4.1408534591,
				"z": -0.9086937306,
				"element": "H" 
			},
			{
				"x": 0.5289120237,
				"y": -3.3231556587,
				"z": -0.6603501822,
				"element": "H" 
			},
			{
				"x": -0.2067351884,
				"y": -3.3515957154,
				"z": -2.2643375102,
				"element": "H" 
			},
			{
				"x": -1.7535022184,
				"y": 2.4381978755,
				"z": -0.3512015287,
				"element": "H" 
			},
			{
				"x": -0.0530327417,
				"y": 1.9237224366,
				"z": -0.18077211,
				"element": "H" 
			},
			{
				"x": -0.7733562584,
				"y": 2.0646404215,
				"z": -1.7839359994,
				"element": "H" 
			},
			{
				"x": 0.8296278159,
				"y": 0.3048379562,
				"z": -2.1818457222,
				"element": "H" 
			},
			{
				"x": 1.1387822419,
				"y": -1.4026767327,
				"z": -2.0184055526,
				"element": "H" 
			},
			{
				"x": 3.0788261178,
				"y": 0.9495924568,
				"z": -1.6620125643,
				"element": "H" 
			},
			{
				"x": 4.8068458506,
				"y": 1.3823523032,
				"z": 0.0514101201,
				"element": "H" 
			},
			{
				"x": 4.5494852525,
				"y": 0.4557933243,
				"z": 2.3473198663,
				"element": "H" 
			},
			{
				"x": 2.5389547229,
				"y": -0.898803968,
				"z": 2.9049966236,
				"element": "H" 
			},
			{
				"x": 0.8100975711,
				"y": -1.3208758083,
				"z": 1.1957579195,
				"element": "H" 
			}
		],
		 "valence_orbital": [ 
			{
				"type": "occ",
				"energy": -0.30782,
				"method": "rhf"
			},
			{
				"type": "occ",
				"energy": -0.26265,
				"method": "rhf"
			},
			{
				"type": "occ",
				"energy": -0.25821,
				"method": "rhf"
			},
			{
				"type": "occ",
				"energy": -0.25647,
				"method": "rhf"
			},
			{
				"type": "occ",
				"energy": -0.24987,
				"method": "rhf"
			},
			{
				"type": "unocc",
				"energy": -0.04091,
				"method": "rhf"
			},
			{
				"type": "unocc",
				"energy": -0.03181,
				"method": "rhf"
			},
			{
				"type": "unocc",
				"energy": -0.01074,
				"method": "rhf"
			},
			{
				"type": "unocc",
				"energy": -0.00946,
				"method": "rhf"
			},
			{
				"type": "unocc",
				"energy": 0.04588,
				"method": "rhf"
			}
		],
		"cosmo_sigma_profile": { 
			"-0.025": 0.0,
			"-0.024": 0.0,
			"-0.023": 0.0,
			"-0.022": 0.0,
			"-0.021": 0.0,
			"-0.02": 0.0,
			"-0.019": 0.0,
			"-0.018": 0.0,
			"-0.017": 0.0,
			"-0.016": 0.0,
			"-0.015": 0.0,
			"-0.014": 0.0,
			"-0.013": 0.0,
			"-0.012": 0.0,
			"-0.011": 0.0,
			"-0.01": 0.0,
			"-0.009": 0.0,
			"-0.008": 0.0,
			"-0.007": 0.689858478113,
			"-0.006": 11.3197283335,
			"-0.005": 24.0681759754,
			"-0.004": 25.7357130608,
			"-0.003": 28.9527977673,
			"-0.002": 28.4702684954,
			"-0.001": 31.8946155653,
			"0.0": 18.1126304621,
			"0.001": 13.9050490235,
			"0.002": 12.4506743462,
			"0.003": 15.4753217607,
			"0.004": 19.0307160393,
			"0.005": 15.5295721188,
			"0.006": 11.5630081633,
			"0.007": 3.88603006372,
			"0.008": 2.53248955886,
			"0.009": 2.60895116544,
			"0.01": 2.37139988661,
			"0.011": 1.61430694228,
			"0.012": 1.68231578524,
			"0.013": 1.80161411842,
			"0.014": 0.431147016784,
			"0.015": 0.0,
			"0.016": 0.0,
			"0.017": 0.0,
			"0.018": 0.0,
			"0.019": 0.0,
			"0.02": 0.0,
			"0.021": 0.0,
			"0.022": 0.0,
			"0.023": 0.0,
			"0.024": 0.0,
			"0.025": 0.0
		}
	}
}
