{
	 "smiles": "CC(=O)C1=CC=C(Cl)C(Cl)=C1Cl", 
	 "Tm": 335.15, 
	 "num_atms": 17, 
	 "gaussian": { 
		 "optdone": 1, 
		 "sigma_profile": "yes", 
		 "theory": "DFT", 
		 "functional": "B3LYP", 
		 "basiset": "6-31G**", 
		 "properties": { 
			 "R2extent": 5735.1266, 
			 "electric_dipole_moment_norm": 1.01794849084, 
			 "electric_quadrupole_moment_norm": 10.4087796984, 
			 "total_energy": -1763.65120968, 
			 "HOMO_LUMO_gap": 0.18662, 
			 "cosmo_polarized_energy": -6.42, 
			 "cosmo_cavitation_energy": 26.41, 
			 "cosmo_dispersion_energy": -19.84, 
			 "cosmo_repulsion_energy": 1.56, 
			 "cosmo_total_nonelectrostatic_energy": 8.14, 
			 "SMD_solvation_energy": 4.53 
		},
		"coords": [
			{
				"x": -0.606549207,
				"y": 0.1035750102,
				"z": 2.0572497734,
				"element": "C" 
			},
			{
				"x": -0.2505641499,
				"y": 0.4696729866,
				"z": 0.6305952566,
				"element": "C" 
			},
			{
				"x": 0.7178590409,
				"y": 1.1777167005,
				"z": 0.4089812048,
				"element": "O" 
			},
			{
				"x": -1.0094746211,
				"y": -0.0889120504,
				"z": -0.5611249934,
				"element": "C" 
			},
			{
				"x": -0.2494819511,
				"y": -0.1886341299,
				"z": -1.7374578097,
				"element": "C" 
			},
			{
				"x": -0.7734211424,
				"y": -0.7091879663,
				"z": -2.908686058,
				"element": "C" 
			},
			{
				"x": -2.101975493,
				"y": -1.1327225723,
				"z": -2.9402980663,
				"element": "C" 
			},
			{
				"x": -2.7303956551,
				"y": -1.7861663419,
				"z": -4.42773725,
				"element": "Cl" 
			},
			{
				"x": -2.9083529932,
				"y": -1.0234761225,
				"z": -1.7965500519,
				"element": "C" 
			},
			{
				"x": -4.5722881972,
				"y": -1.5214598032,
				"z": -1.8570606424,
				"element": "Cl" 
			},
			{
				"x": -2.3537808198,
				"y": -0.5008391729,
				"z": -0.6100825046,
				"element": "C" 
			},
			{
				"x": -3.4095670158,
				"y": -0.3209794729,
				"z": 0.7729611154,
				"element": "Cl" 
			},
			{
				"x": -0.9675198982,
				"y": -0.9232389142,
				"z": 2.1504689692,
				"element": "H" 
			},
			{
				"x": -1.3939483997,
				"y": 0.7631689009,
				"z": 2.4341252054,
				"element": "H" 
			},
			{
				"x": 0.2886870276,
				"y": 0.2509989681,
				"z": 2.6638673232,
				"element": "H" 
			},
			{
				"x": 0.7765154601,
				"y": 0.1585100198,
				"z": -1.6979846492,
				"element": "H" 
			},
			{
				"x": -0.1670419852,
				"y": -0.7927260398,
				"z": -3.8030668228,
				"element": "H" 
			}
		],
		 "valence_orbital": [ 
			{
				"type": "occ",
				"energy": -0.33552,
				"method": "rhf"
			},
			{
				"type": "occ",
				"energy": -0.31298,
				"method": "rhf"
			},
			{
				"type": "occ",
				"energy": -0.27156,
				"method": "rhf"
			},
			{
				"type": "occ",
				"energy": -0.26969,
				"method": "rhf"
			},
			{
				"type": "occ",
				"energy": -0.26214,
				"method": "rhf"
			},
			{
				"type": "unocc",
				"energy": -0.07552,
				"method": "rhf"
			},
			{
				"type": "unocc",
				"energy": -0.04153,
				"method": "rhf"
			},
			{
				"type": "unocc",
				"energy": -0.02676,
				"method": "rhf"
			},
			{
				"type": "unocc",
				"energy": 0.00487,
				"method": "rhf"
			},
			{
				"type": "unocc",
				"energy": 0.03537,
				"method": "rhf"
			}
		],
		"cosmo_sigma_profile": { 
			"-0.025": 0.0,
			"-0.024": 0.0,
			"-0.023": 0.0,
			"-0.022": 0.0,
			"-0.021": 0.0,
			"-0.02": 0.0,
			"-0.019": 0.0,
			"-0.018": 0.0,
			"-0.017": 0.0,
			"-0.016": 0.0,
			"-0.015": 0.0,
			"-0.014": 0.0,
			"-0.013": 0.0,
			"-0.012": 0.0,
			"-0.011": 0.0,
			"-0.01": 0.0,
			"-0.009": 0.719799606983,
			"-0.008": 2.11476213201,
			"-0.007": 4.21140989145,
			"-0.006": 6.8915626147,
			"-0.005": 10.826675354,
			"-0.004": 12.9268044226,
			"-0.003": 15.5900285797,
			"-0.002": 25.1526021551,
			"-0.001": 30.918466216,
			"0.0": 20.2993525329,
			"0.001": 18.0849354029,
			"0.002": 16.0585399678,
			"0.003": 23.1938297436,
			"0.004": 13.8775122833,
			"0.005": 3.18395798899,
			"0.006": 1.43172369257,
			"0.007": 0.966800963505,
			"0.008": 1.84265980647,
			"0.009": 2.10648948302,
			"0.01": 2.65646565177,
			"0.011": 3.66423885569,
			"0.012": 1.69187290725,
			"0.013": 0.152371617613,
			"0.014": 0.0,
			"0.015": 0.0,
			"0.016": 0.0,
			"0.017": 0.0,
			"0.018": 0.0,
			"0.019": 0.0,
			"0.02": 0.0,
			"0.021": 0.0,
			"0.022": 0.0,
			"0.023": 0.0,
			"0.024": 0.0,
			"0.025": 0.0
		}
	}
}
