{
	 "smiles": "OCCN1C(CSC2=NN=C(O2)C2=CC3=C(OCO3)C=C2)=NC2=C1C=C(Cl)C=C2", 
	 "Tm": 476.15, 
	 "num_atms": 44, 
	 "gaussian": { 
		 "optdone": 1, 
		 "sigma_profile": "yes", 
		 "theory": "DFT", 
		 "functional": "B3LYP", 
		 "basiset": "6-31G**", 
		 "properties": { 
			 "R2extent": 15450.2457, 
			 "electric_dipole_moment_norm": 3.66558033877, 
			 "electric_quadrupole_moment_norm": 39.2426579031, 
			 "total_energy": -2111.29261496, 
			 "HOMO_LUMO_gap": 0.1591, 
			 "cosmo_polarized_energy": -21.87, 
			 "cosmo_cavitation_energy": 52.09, 
			 "cosmo_dispersion_energy": -36.25, 
			 "cosmo_repulsion_energy": 2.68, 
			 "cosmo_total_nonelectrostatic_energy": 18.53, 
			 "SMD_solvation_energy": 5.19 
		},
		"coords": [
			{
				"x": -3.4093046602,
				"y": 2.4546015638,
				"z": -1.9505359061,
				"element": "O" 
			},
			{
				"x": -3.6276601482,
				"y": 3.0796108882,
				"z": -0.7157185133,
				"element": "C" 
			},
			{
				"x": -4.1067397012,
				"y": 2.1238141317,
				"z": 0.3946650541,
				"element": "C" 
			},
			{
				"x": -3.0561540498,
				"y": 1.2677610539,
				"z": 0.9453755922,
				"element": "N" 
			},
			{
				"x": -2.8647886632,
				"y": -0.0987287326,
				"z": 0.8052104837,
				"element": "C" 
			},
			{
				"x": -3.748474407,
				"y": -1.0175696018,
				"z": 0.0389238807,
				"element": "C" 
			},
			{
				"x": -3.4475357988,
				"y": -1.0715239832,
				"z": -1.8185205449,
				"element": "S" 
			},
			{
				"x": -1.7520405476,
				"y": -0.6573871467,
				"z": -1.8904435018,
				"element": "C" 
			},
			{
				"x": -1.23406853,
				"y": 0.5341271874,
				"z": -1.9752354369,
				"element": "N" 
			},
			{
				"x": 0.1383403506,
				"y": 0.3873437113,
				"z": -2.0211454938,
				"element": "N" 
			},
			{
				"x": 0.3697428255,
				"y": -0.8987976591,
				"z": -1.9657620155,
				"element": "C" 
			},
			{
				"x": -0.7827302353,
				"y": -1.6201456606,
				"z": -1.8852928383,
				"element": "O" 
			},
			{
				"x": 1.6535251971,
				"y": -1.5811518516,
				"z": -1.9891711885,
				"element": "C" 
			},
			{
				"x": 2.826818919,
				"y": -0.7924029252,
				"z": -2.0921280729,
				"element": "C" 
			},
			{
				"x": 4.0228483517,
				"y": -1.4697496873,
				"z": -2.1113702482,
				"element": "C" 
			},
			{
				"x": 4.0903926223,
				"y": -2.8634704832,
				"z": -2.0342672349,
				"element": "C" 
			},
			{
				"x": 5.3949234256,
				"y": -3.2667368222,
				"z": -2.074671076,
				"element": "O" 
			},
			{
				"x": 6.1831441638,
				"y": -2.0708190978,
				"z": -2.1848863541,
				"element": "C" 
			},
			{
				"x": 5.2896562441,
				"y": -0.9525444212,
				"z": -2.2031059052,
				"element": "O" 
			},
			{
				"x": 2.9563295265,
				"y": -3.6469905115,
				"z": -1.9330597854,
				"element": "C" 
			},
			{
				"x": 1.7229494476,
				"y": -2.9788796632,
				"z": -1.9110549204,
				"element": "C" 
			},
			{
				"x": -1.79931098,
				"y": -0.5460715799,
				"z": 1.4370490225,
				"element": "N" 
			},
			{
				"x": -1.2502250695,
				"y": 0.5633965622,
				"z": 2.0482276703,
				"element": "C" 
			},
			{
				"x": -2.0248176329,
				"y": 1.7111392275,
				"z": 1.7585393664,
				"element": "C" 
			},
			{
				"x": -1.7208292072,
				"y": 2.973349651,
				"z": 2.2783825641,
				"element": "C" 
			},
			{
				"x": -0.5964366035,
				"y": 3.039643536,
				"z": 3.0935689986,
				"element": "C" 
			},
			{
				"x": -0.1487002267,
				"y": 4.5955689213,
				"z": 3.7862951019,
				"element": "Cl" 
			},
			{
				"x": 0.201504865,
				"y": 1.9176008413,
				"z": 3.3917231,
				"element": "C" 
			},
			{
				"x": -0.1223394875,
				"y": 0.6708113458,
				"z": 2.8721128682,
				"element": "C" 
			},
			{
				"x": -2.5597006332,
				"y": 1.9723652433,
				"z": -1.9402013954,
				"element": "H" 
			},
			{
				"x": -4.427944678,
				"y": 3.8157590316,
				"z": -0.863865347,
				"element": "H" 
			},
			{
				"x": -2.7436057389,
				"y": 3.6320764398,
				"z": -0.3623941502,
				"element": "H" 
			},
			{
				"x": -4.533631458,
				"y": 2.7044106084,
				"z": 1.2223470373,
				"element": "H" 
			},
			{
				"x": -4.8965295174,
				"y": 1.4875857675,
				"z": -0.0098562803,
				"element": "H" 
			},
			{
				"x": -3.5922176644,
				"y": -2.0212536123,
				"z": 0.4314117282,
				"element": "H" 
			},
			{
				"x": -4.8067550997,
				"y": -0.7570639554,
				"z": 0.1170840984,
				"element": "H" 
			},
			{
				"x": 2.7680784795,
				"y": 0.2873259338,
				"z": -2.1511977398,
				"element": "H" 
			},
			{
				"x": 6.8505103542,
				"y": -1.9952171845,
				"z": -1.318413343,
				"element": "H" 
			},
			{
				"x": 6.7568762044,
				"y": -2.0994263504,
				"z": -3.1187416939,
				"element": "H" 
			},
			{
				"x": 3.0203147116,
				"y": -4.7270184994,
				"z": -1.8726974195,
				"element": "H" 
			},
			{
				"x": 0.8072230472,
				"y": -3.5531064664,
				"z": -1.8302986906,
				"element": "H" 
			},
			{
				"x": -2.3114637448,
				"y": 3.8576387619,
				"z": 2.0722947578,
				"element": "H" 
			},
			{
				"x": 1.0667453667,
				"y": 2.0414689655,
				"z": 4.0327091309,
				"element": "H" 
			},
			{
				"x": 0.4766803808,
				"y": -0.2049434774,
				"z": 3.0984146408,
				"element": "H" 
			}
		],
		 "valence_orbital": [ 
			{
				"type": "occ",
				"energy": -0.25817,
				"method": "rhf"
			},
			{
				"type": "occ",
				"energy": -0.25472,
				"method": "rhf"
			},
			{
				"type": "occ",
				"energy": -0.23275,
				"method": "rhf"
			},
			{
				"type": "occ",
				"energy": -0.22463,
				"method": "rhf"
			},
			{
				"type": "occ",
				"energy": -0.22089,
				"method": "rhf"
			},
			{
				"type": "unocc",
				"energy": -0.06179,
				"method": "rhf"
			},
			{
				"type": "unocc",
				"energy": -0.04104,
				"method": "rhf"
			},
			{
				"type": "unocc",
				"energy": -0.02099,
				"method": "rhf"
			},
			{
				"type": "unocc",
				"energy": -0.01091,
				"method": "rhf"
			},
			{
				"type": "unocc",
				"energy": 0.00696,
				"method": "rhf"
			}
		],
		"cosmo_sigma_profile": { 
			"-0.025": 0.0,
			"-0.024": 0.0,
			"-0.023": 0.0,
			"-0.022": 0.0,
			"-0.021": 0.0,
			"-0.02": 0.0,
			"-0.019": 0.0,
			"-0.018": 0.0,
			"-0.017": 0.0,
			"-0.016": 0.0,
			"-0.015": 0.0,
			"-0.014": 0.0,
			"-0.013": 0.0,
			"-0.012": 0.0,
			"-0.011": 0.0758867530062,
			"-0.01": 2.45496388612,
			"-0.009": 3.63553356619,
			"-0.008": 14.5943281839,
			"-0.007": 21.3488820326,
			"-0.006": 26.3691902144,
			"-0.005": 26.8274372719,
			"-0.004": 25.9515770346,
			"-0.003": 21.1788368504,
			"-0.002": 23.0493737866,
			"-0.001": 25.4492677579,
			"0.0": 29.4062621001,
			"0.001": 34.1456190908,
			"0.002": 42.2744726156,
			"0.003": 35.7966140404,
			"0.004": 27.0826015927,
			"0.005": 17.0047414011,
			"0.006": 7.57487926489,
			"0.007": 6.84611378049,
			"0.008": 6.3946594038,
			"0.009": 6.95734530959,
			"0.01": 3.79821738292,
			"0.011": 2.69185910967,
			"0.012": 2.69319810886,
			"0.013": 3.03627959585,
			"0.014": 3.02228870611,
			"0.015": 2.30391890456,
			"0.016": 0.606065987386,
			"0.017": 0.179858477642,
			"0.018": 0.0,
			"0.019": 0.0,
			"0.02": 0.0,
			"0.021": 0.0,
			"0.022": 0.0,
			"0.023": 0.0,
			"0.024": 0.0,
			"0.025": 0.0
		}
	}
}
