{
	 "smiles": "CC(C)CC1CCCC1", 
	 "Tm": 158.15, 
	 "num_atms": 27, 
	 "gaussian": { 
		 "optdone": 1, 
		 "sigma_profile": "yes", 
		 "theory": "DFT", 
		 "functional": "B3LYP", 
		 "basiset": "6-31G**", 
		 "properties": { 
			 "R2extent": 2234.8123, 
			 "electric_dipole_moment_norm": 0.0880118741989, 
			 "electric_quadrupole_moment_norm": 0.383743429911, 
			 "total_energy": -353.828468662, 
			 "HOMO_LUMO_gap": 0.3674, 
			 "cosmo_polarized_energy": -0.71, 
			 "cosmo_cavitation_energy": 26.21, 
			 "cosmo_dispersion_energy": -19.02, 
			 "cosmo_repulsion_energy": 1.57, 
			 "cosmo_total_nonelectrostatic_energy": 8.76, 
			 "SMD_solvation_energy": 3.82 
		},
		"coords": [
			{
				"x": -1.4491464228,
				"y": 1.8175368694,
				"z": -2.3824828606,
				"element": "C" 
			},
			{
				"x": -2.2828495702,
				"y": 1.6288951625,
				"z": -1.1056557257,
				"element": "C" 
			},
			{
				"x": -3.7748760923,
				"y": 1.5077338873,
				"z": -1.4530869085,
				"element": "C" 
			},
			{
				"x": -1.828245618,
				"y": 0.408487195,
				"z": -0.2779926554,
				"element": "C" 
			},
			{
				"x": -0.3941523195,
				"y": 0.4523879616,
				"z": 0.287999621,
				"element": "C" 
			},
			{
				"x": -0.0361825693,
				"y": -0.8464556472,
				"z": 1.0465262123,
				"element": "C" 
			},
			{
				"x": -0.615897666,
				"y": -0.6649033906,
				"z": 2.4718504936,
				"element": "C" 
			},
			{
				"x": -0.7327864721,
				"y": 0.8735785373,
				"z": 2.6860698673,
				"element": "C" 
			},
			{
				"x": -0.1914000629,
				"y": 1.5201545831,
				"z": 1.3874473303,
				"element": "C" 
			},
			{
				"x": -0.3901712276,
				"y": 1.986070015,
				"z": -2.164457681,
				"element": "H" 
			},
			{
				"x": -1.8065009302,
				"y": 2.6775292069,
				"z": -2.9595377777,
				"element": "H" 
			},
			{
				"x": -1.5201605222,
				"y": 0.9331562605,
				"z": -3.0281838687,
				"element": "H" 
			},
			{
				"x": -2.1606276384,
				"y": 2.530233023,
				"z": -0.4879616845,
				"element": "H" 
			},
			{
				"x": -4.1257401964,
				"y": 2.3809731019,
				"z": -2.0139773523,
				"element": "H" 
			},
			{
				"x": -4.3902956659,
				"y": 1.4190686171,
				"z": -0.5509460666,
				"element": "H" 
			},
			{
				"x": -3.9621390745,
				"y": 0.6205553084,
				"z": -2.0707833224,
				"element": "H" 
			},
			{
				"x": -2.5377689669,
				"y": 0.2672599945,
				"z": 0.5491595758,
				"element": "H" 
			},
			{
				"x": -1.9243229141,
				"y": -0.4877470094,
				"z": -0.9088694257,
				"element": "H" 
			},
			{
				"x": 0.3062190076,
				"y": 0.6107765332,
				"z": -0.5404923421,
				"element": "H" 
			},
			{
				"x": -0.4112175523,
				"y": -1.746734185,
				"z": 0.5474245693,
				"element": "H" 
			},
			{
				"x": 1.0552645349,
				"y": -0.9415316111,
				"z": 1.0990708212,
				"element": "H" 
			},
			{
				"x": 0.0199953078,
				"y": -1.1392985649,
				"z": 3.2257348713,
				"element": "H" 
			},
			{
				"x": -1.5993583128,
				"y": -1.1392971354,
				"z": 2.5535539632,
				"element": "H" 
			},
			{
				"x": -0.1771741735,
				"y": 1.2135079738,
				"z": 3.5655852929,
				"element": "H" 
			},
			{
				"x": -1.7772352774,
				"y": 1.1582695622,
				"z": 2.8514721612,
				"element": "H" 
			},
			{
				"x": -0.6710204004,
				"y": 2.4780113591,
				"z": 1.1619965085,
				"element": "H" 
			},
			{
				"x": 0.8817907953,
				"y": 1.7217823918,
				"z": 1.4920363834,
				"element": "H" 
			}
		],
		 "valence_orbital": [ 
			{
				"type": "occ",
				"energy": -0.32138,
				"method": "rhf"
			},
			{
				"type": "occ",
				"energy": -0.30966,
				"method": "rhf"
			},
			{
				"type": "occ",
				"energy": -0.30697,
				"method": "rhf"
			},
			{
				"type": "occ",
				"energy": -0.29994,
				"method": "rhf"
			},
			{
				"type": "occ",
				"energy": -0.2927,
				"method": "rhf"
			},
			{
				"type": "unocc",
				"energy": 0.0747,
				"method": "rhf"
			},
			{
				"type": "unocc",
				"energy": 0.09524,
				"method": "rhf"
			},
			{
				"type": "unocc",
				"energy": 0.10516,
				"method": "rhf"
			},
			{
				"type": "unocc",
				"energy": 0.12139,
				"method": "rhf"
			},
			{
				"type": "unocc",
				"energy": 0.1306,
				"method": "rhf"
			}
		],
		"cosmo_sigma_profile": { 
			"-0.025": 0.0,
			"-0.024": 0.0,
			"-0.023": 0.0,
			"-0.022": 0.0,
			"-0.021": 0.0,
			"-0.02": 0.0,
			"-0.019": 0.0,
			"-0.018": 0.0,
			"-0.017": 0.0,
			"-0.016": 0.0,
			"-0.015": 0.0,
			"-0.014": 0.0,
			"-0.013": 0.0,
			"-0.012": 0.0,
			"-0.011": 0.0,
			"-0.01": 0.0,
			"-0.009": 0.0,
			"-0.008": 0.0,
			"-0.007": 0.0,
			"-0.006": 0.0,
			"-0.005": 0.0,
			"-0.004": 0.0,
			"-0.003": 2.84576663488,
			"-0.002": 28.9701332762,
			"-0.001": 44.9303851366,
			"0.0": 48.6385192847,
			"0.001": 41.08344338,
			"0.002": 31.1867124759,
			"0.003": 2.82197274384,
			"0.004": 0.0,
			"0.005": 0.0,
			"0.006": 0.0,
			"0.007": 0.0,
			"0.008": 0.0,
			"0.009": 0.0,
			"0.01": 0.0,
			"0.011": 0.0,
			"0.012": 0.0,
			"0.013": 0.0,
			"0.014": 0.0,
			"0.015": 0.0,
			"0.016": 0.0,
			"0.017": 0.0,
			"0.018": 0.0,
			"0.019": 0.0,
			"0.02": 0.0,
			"0.021": 0.0,
			"0.022": 0.0,
			"0.023": 0.0,
			"0.024": 0.0,
			"0.025": 0.0
		}
	}
}
