{
	 "smiles": "OCCNC1=C(C=CC=N1)C#N", 
	 "Tm": 353.15, 
	 "num_atms": 21, 
	 "gaussian": { 
		 "optdone": 1, 
		 "sigma_profile": "yes", 
		 "theory": "DFT", 
		 "functional": "B3LYP", 
		 "basiset": "6-31G**", 
		 "properties": { 
			 "R2extent": 2451.9397, 
			 "electric_dipole_moment_norm": 3.52594074539, 
			 "electric_quadrupole_moment_norm": 11.0064582441, 
			 "total_energy": -549.731116056, 
			 "HOMO_LUMO_gap": 0.16617, 
			 "cosmo_polarized_energy": -14.15, 
			 "cosmo_cavitation_energy": 26.21, 
			 "cosmo_dispersion_energy": -18.55, 
			 "cosmo_repulsion_energy": 1.52, 
			 "cosmo_total_nonelectrostatic_energy": 9.18, 
			 "SMD_solvation_energy": 4.42 
		},
		"coords": [
			{
				"x": -1.6390560754,
				"y": 0.1338153677,
				"z": 3.6719469647,
				"element": "O" 
			},
			{
				"x": -1.0356875187,
				"y": -0.4359296928,
				"z": 2.5208234921,
				"element": "C" 
			},
			{
				"x": 0.19961224,
				"y": 0.3668026639,
				"z": 2.0830067432,
				"element": "C" 
			},
			{
				"x": 0.8726948817,
				"y": -0.2006586387,
				"z": 0.9247285939,
				"element": "N" 
			},
			{
				"x": 0.4892664886,
				"y": 0.0271880584,
				"z": -0.3606598596,
				"element": "C" 
			},
			{
				"x": 1.1896283363,
				"y": -0.5809352141,
				"z": -1.4522577755,
				"element": "C" 
			},
			{
				"x": 0.7662348266,
				"y": -0.3024500242,
				"z": -2.7543951679,
				"element": "C" 
			},
			{
				"x": -0.3126305532,
				"y": 0.5536643534,
				"z": -2.9565709009,
				"element": "C" 
			},
			{
				"x": -0.927450987,
				"y": 1.0958271616,
				"z": -1.8269767184,
				"element": "C" 
			},
			{
				"x": -0.5553261391,
				"y": 0.8480097471,
				"z": -0.5690042768,
				"element": "N" 
			},
			{
				"x": 2.290102826,
				"y": -1.4468325516,
				"z": -1.1863856739,
				"element": "C" 
			},
			{
				"x": 3.1786595365,
				"y": -2.1455470114,
				"z": -0.9020654749,
				"element": "N" 
			},
			{
				"x": -2.0590071037,
				"y": 0.9618741928,
				"z": 3.405621735,
				"element": "H" 
			},
			{
				"x": -1.7369007557,
				"y": -0.5107528689,
				"z": 1.6780975299,
				"element": "H" 
			},
			{
				"x": -0.7393053959,
				"y": -1.4526114138,
				"z": 2.7994060104,
				"element": "H" 
			},
			{
				"x": 0.9142229708,
				"y": 0.4106832041,
				"z": 2.9100819903,
				"element": "H" 
			},
			{
				"x": -0.1006731954,
				"y": 1.3904954744,
				"z": 1.8399106875,
				"element": "H" 
			},
			{
				"x": 1.6253847477,
				"y": -0.8560734284,
				"z": 1.075663695,
				"element": "H" 
			},
			{
				"x": 1.2879723273,
				"y": -0.7581531897,
				"z": -3.589901945,
				"element": "H" 
			},
			{
				"x": -0.6680205564,
				"y": 0.7919039616,
				"z": -3.9521147673,
				"element": "H" 
			},
			{
				"x": -1.7760209012,
				"y": 1.7690798488,
				"z": -1.938954882,
				"element": "H" 
			}
		],
		 "valence_orbital": [ 
			{
				"type": "occ",
				"energy": -0.32245,
				"method": "rhf"
			},
			{
				"type": "occ",
				"energy": -0.29323,
				"method": "rhf"
			},
			{
				"type": "occ",
				"energy": -0.27701,
				"method": "rhf"
			},
			{
				"type": "occ",
				"energy": -0.27633,
				"method": "rhf"
			},
			{
				"type": "occ",
				"energy": -0.22356,
				"method": "rhf"
			},
			{
				"type": "unocc",
				"energy": -0.05739,
				"method": "rhf"
			},
			{
				"type": "unocc",
				"energy": -0.01458,
				"method": "rhf"
			},
			{
				"type": "unocc",
				"energy": 0.02364,
				"method": "rhf"
			},
			{
				"type": "unocc",
				"energy": 0.06793,
				"method": "rhf"
			},
			{
				"type": "unocc",
				"energy": 0.07,
				"method": "rhf"
			}
		],
		"cosmo_sigma_profile": { 
			"-0.025": 0.0,
			"-0.024": 0.0,
			"-0.023": 0.0,
			"-0.022": 0.0,
			"-0.021": 0.0,
			"-0.02": 0.0,
			"-0.019": 0.0,
			"-0.018": 0.0,
			"-0.017": 0.0,
			"-0.016": 0.302279894942,
			"-0.015": 1.38420574112,
			"-0.014": 0.69959986477,
			"-0.013": 1.77343609747,
			"-0.012": 1.77087560417,
			"-0.011": 2.46917450189,
			"-0.01": 1.80218405638,
			"-0.009": 2.29009997469,
			"-0.008": 4.56336648879,
			"-0.007": 9.16370602683,
			"-0.006": 10.3496307441,
			"-0.005": 13.1333151163,
			"-0.004": 12.0954420735,
			"-0.003": 12.0906876368,
			"-0.002": 13.441044135,
			"-0.001": 16.8844500659,
			"0.0": 18.5234145523,
			"0.001": 14.4840417731,
			"0.002": 12.6390910969,
			"0.003": 8.30223003577,
			"0.004": 5.72656625178,
			"0.005": 4.40715278163,
			"0.006": 4.92330041898,
			"0.007": 5.42877974912,
			"0.008": 5.59302605018,
			"0.009": 5.19828882956,
			"0.01": 4.5633986136,
			"0.011": 4.17268478216,
			"0.012": 4.99793939099,
			"0.013": 3.12500103793,
			"0.014": 2.46459720638,
			"0.015": 0.375407077238,
			"0.016": 0.0,
			"0.017": 0.0,
			"0.018": 0.0,
			"0.019": 0.0,
			"0.02": 0.0,
			"0.021": 0.0,
			"0.022": 0.0,
			"0.023": 0.0,
			"0.024": 0.0,
			"0.025": 0.0
		}
	}
}
