{
	 "smiles": "CC(Cl)C1=NC=C(O1)C1=CC=CC=C1", 
	 "Tm": 328.15, 
	 "num_atms": 24, 
	 "gaussian": { 
		 "optdone": 1, 
		 "sigma_profile": "yes", 
		 "theory": "DFT", 
		 "functional": "B3LYP", 
		 "basiset": "6-31G**", 
		 "properties": { 
			 "R2extent": 4568.1298, 
			 "electric_dipole_moment_norm": 2.79491167302, 
			 "electric_quadrupole_moment_norm": 11.7191603279, 
			 "total_energy": -1015.36695618, 
			 "HOMO_LUMO_gap": 0.17091, 
			 "cosmo_polarized_energy": -8.83, 
			 "cosmo_cavitation_energy": 30.26, 
			 "cosmo_dispersion_energy": -21.99, 
			 "cosmo_repulsion_energy": 1.73, 
			 "cosmo_total_nonelectrostatic_energy": 10.01, 
			 "SMD_solvation_energy": 3.62 
		},
		"coords": [
			{
				"x": 0.3445239227,
				"y": -1.7135739819,
				"z": 4.4231720883,
				"element": "C" 
			},
			{
				"x": -0.0655525618,
				"y": -0.5314502704,
				"z": 3.5589403496,
				"element": "C" 
			},
			{
				"x": 0.2834247285,
				"y": 1.05093239,
				"z": 4.4613888523,
				"element": "Cl" 
			},
			{
				"x": 0.6248084128,
				"y": -0.5070587275,
				"z": 2.2433177605,
				"element": "C" 
			},
			{
				"x": 1.7151215457,
				"y": -1.1213277111,
				"z": 1.8914934199,
				"element": "N" 
			},
			{
				"x": 1.9188112242,
				"y": -0.7442219973,
				"z": 0.5781445432,
				"element": "C" 
			},
			{
				"x": 0.9212763627,
				"y": 0.1040077319,
				"z": 0.1770037568,
				"element": "C" 
			},
			{
				"x": 0.0808024347,
				"y": 0.2545537763,
				"z": 1.2552206443,
				"element": "O" 
			},
			{
				"x": 0.6004186968,
				"y": 0.8104419162,
				"z": -1.0550488117,
				"element": "C" 
			},
			{
				"x": 1.399482035,
				"y": 0.6344922623,
				"z": -2.1993472359,
				"element": "C" 
			},
			{
				"x": 1.1003213893,
				"y": 1.3099268484,
				"z": -3.3786255112,
				"element": "C" 
			},
			{
				"x": 0.000295995,
				"y": 2.1699159369,
				"z": -3.4393449205,
				"element": "C" 
			},
			{
				"x": -0.7982000532,
				"y": 2.3490921562,
				"z": -2.3081832823,
				"element": "C" 
			},
			{
				"x": -0.5038897466,
				"y": 1.6773644768,
				"z": -1.1235897137,
				"element": "C" 
			},
			{
				"x": 1.4249199904,
				"y": -1.7212302927,
				"z": 4.5753146285,
				"element": "H" 
			},
			{
				"x": 0.0632247883,
				"y": -2.6448429891,
				"z": 3.9212194306,
				"element": "H" 
			},
			{
				"x": -0.1582723469,
				"y": -1.66538665,
				"z": 5.3908663575,
				"element": "H" 
			},
			{
				"x": -1.1451049447,
				"y": -0.4974507614,
				"z": 3.4031408644,
				"element": "H" 
			},
			{
				"x": 2.7653214295,
				"y": -1.1055592269,
				"z": 0.0133465518,
				"element": "H" 
			},
			{
				"x": 2.2544473426,
				"y": -0.0340107916,
				"z": -2.1648197431,
				"element": "H" 
			},
			{
				"x": 1.7266637189,
				"y": 1.1638887791,
				"z": -4.2537758806,
				"element": "H" 
			},
			{
				"x": -0.231318877,
				"y": 2.6953808144,
				"z": -4.360972291,
				"element": "H" 
			},
			{
				"x": -1.6541763746,
				"y": 3.0165224217,
				"z": -2.3462497972,
				"element": "H" 
			},
			{
				"x": -1.1232491124,
				"y": 1.8214938897,
				"z": -0.2451120607,
				"element": "H" 
			}
		],
		 "valence_orbital": [ 
			{
				"type": "occ",
				"energy": -0.29674,
				"method": "rhf"
			},
			{
				"type": "occ",
				"energy": -0.29458,
				"method": "rhf"
			},
			{
				"type": "occ",
				"energy": -0.29015,
				"method": "rhf"
			},
			{
				"type": "occ",
				"energy": -0.26085,
				"method": "rhf"
			},
			{
				"type": "occ",
				"energy": -0.22228,
				"method": "rhf"
			},
			{
				"type": "unocc",
				"energy": -0.05137,
				"method": "rhf"
			},
			{
				"type": "unocc",
				"energy": -0.0137,
				"method": "rhf"
			},
			{
				"type": "unocc",
				"energy": -0.00741,
				"method": "rhf"
			},
			{
				"type": "unocc",
				"energy": 0.05121,
				"method": "rhf"
			},
			{
				"type": "unocc",
				"energy": 0.07349,
				"method": "rhf"
			}
		],
		"cosmo_sigma_profile": { 
			"-0.025": 0.0,
			"-0.024": 0.0,
			"-0.023": 0.0,
			"-0.022": 0.0,
			"-0.021": 0.0,
			"-0.02": 0.0,
			"-0.019": 0.0,
			"-0.018": 0.0,
			"-0.017": 0.0,
			"-0.016": 0.0,
			"-0.015": 0.0,
			"-0.014": 0.0,
			"-0.013": 0.0,
			"-0.012": 0.0,
			"-0.011": 0.0,
			"-0.01": 0.0,
			"-0.009": 2.35673830094,
			"-0.008": 5.48654337419,
			"-0.007": 4.88717173682,
			"-0.006": 13.5908550197,
			"-0.005": 17.4258383159,
			"-0.004": 18.3042223707,
			"-0.003": 16.2702187617,
			"-0.002": 15.6281569312,
			"-0.001": 17.3304106453,
			"0.0": 18.4725563586,
			"0.001": 20.0088009253,
			"0.002": 18.7313956829,
			"0.003": 19.1197526083,
			"0.004": 19.3495894553,
			"0.005": 16.1693761739,
			"0.006": 11.4943188211,
			"0.007": 2.71456925748,
			"0.008": 1.37345850733,
			"0.009": 0.951166452007,
			"0.01": 1.02454346454,
			"0.011": 1.16004572057,
			"0.012": 0.627514075518,
			"0.013": 0.960187252524,
			"0.014": 0.874763862034,
			"0.015": 0.0740257749989,
			"0.016": 0.0,
			"0.017": 0.0,
			"0.018": 0.0,
			"0.019": 0.0,
			"0.02": 0.0,
			"0.021": 0.0,
			"0.022": 0.0,
			"0.023": 0.0,
			"0.024": 0.0,
			"0.025": 0.0
		}
	}
}
