{
	 "smiles": "CC(=O)C1=C(C)N(N=N1)C1=C2C=CC=NC2=CC=C1", 
	 "Tm": 390.15, 
	 "num_atms": 31, 
	 "gaussian": { 
		 "optdone": 1, 
		 "sigma_profile": "yes", 
		 "theory": "DFT", 
		 "functional": "B3LYP", 
		 "basiset": "6-31G**", 
		 "properties": { 
			 "R2extent": 6088.6347, 
			 "electric_dipole_moment_norm": 2.16418829818, 
			 "electric_quadrupole_moment_norm": 16.5874654914, 
			 "total_energy": -834.928955014, 
			 "HOMO_LUMO_gap": 0.1738, 
			 "cosmo_polarized_energy": -14.95, 
			 "cosmo_cavitation_energy": 35.67, 
			 "cosmo_dispersion_energy": -25.22, 
			 "cosmo_repulsion_energy": 1.91, 
			 "cosmo_total_nonelectrostatic_energy": 12.36, 
			 "SMD_solvation_energy": 4.13 
		},
		"coords": [
			{
				"x": 3.2720385152,
				"y": -2.4200650384,
				"z": 0.8723615963,
				"element": "C" 
			},
			{
				"x": 2.9692726153,
				"y": -0.938168411,
				"z": 0.9409108942,
				"element": "C" 
			},
			{
				"x": 3.7119848458,
				"y": -0.1480778191,
				"z": 1.5114419944,
				"element": "O" 
			},
			{
				"x": 1.726241048,
				"y": -0.4784414693,
				"z": 0.2878757911,
				"element": "C" 
			},
			{
				"x": 1.2113795097,
				"y": 0.8121861085,
				"z": 0.2069865808,
				"element": "C" 
			},
			{
				"x": 1.7137035807,
				"y": 2.1127409159,
				"z": 0.7378680859,
				"element": "C" 
			},
			{
				"x": 0.0497208351,
				"y": 0.6476834221,
				"z": -0.4828033664,
				"element": "N" 
			},
			{
				"x": -0.1443194718,
				"y": -0.6789283579,
				"z": -0.8094328789,
				"element": "N" 
			},
			{
				"x": 0.8631816198,
				"y": -1.3369436724,
				"z": -0.3418925182,
				"element": "N" 
			},
			{
				"x": -0.9070919175,
				"y": 1.6341769347,
				"z": -0.8752453403,
				"element": "C" 
			},
			{
				"x": -2.2454693143,
				"y": 1.5518269775,
				"z": -0.3875951961,
				"element": "C" 
			},
			{
				"x": -2.72225347,
				"y": 0.5344021653,
				"z": 0.4796769039,
				"element": "C" 
			},
			{
				"x": -4.0338539748,
				"y": 0.5696171829,
				"z": 0.8883365021,
				"element": "C" 
			},
			{
				"x": -4.8704846093,
				"y": 1.6174562872,
				"z": 0.4288893938,
				"element": "C" 
			},
			{
				"x": -4.4719376679,
				"y": 2.5817572818,
				"z": -0.3749143573,
				"element": "N" 
			},
			{
				"x": -3.1715545066,
				"y": 2.5682186986,
				"z": -0.7901418311,
				"element": "C" 
			},
			{
				"x": -2.7382447246,
				"y": 3.613576294,
				"z": -1.6484372646,
				"element": "C" 
			},
			{
				"x": -1.4390880166,
				"y": 3.6557917229,
				"z": -2.098626054,
				"element": "C" 
			},
			{
				"x": -0.5163840724,
				"y": 2.655934468,
				"z": -1.7143985352,
				"element": "C" 
			},
			{
				"x": 3.3332635594,
				"y": -2.7499846395,
				"z": -0.1696865926,
				"element": "H" 
			},
			{
				"x": 2.4625554487,
				"y": -2.9970248796,
				"z": 1.3310514581,
				"element": "H" 
			},
			{
				"x": 4.2134217457,
				"y": -2.6153801671,
				"z": 1.3869915446,
				"element": "H" 
			},
			{
				"x": 2.1467470423,
				"y": 2.7283042085,
				"z": -0.058360261,
				"element": "H" 
			},
			{
				"x": 0.9072028428,
				"y": 2.6904248345,
				"z": 1.1995379831,
				"element": "H" 
			},
			{
				"x": 2.4975969414,
				"y": 1.9095844511,
				"z": 1.4669144936,
				"element": "H" 
			},
			{
				"x": -2.0586630989,
				"y": -0.2632671139,
				"z": 0.7922732313,
				"element": "H" 
			},
			{
				"x": -4.4349134515,
				"y": -0.1917579179,
				"z": 1.5494489126,
				"element": "H" 
			},
			{
				"x": -5.9126909891,
				"y": 1.6509474823,
				"z": 0.7443421673,
				"element": "H" 
			},
			{
				"x": -3.4687778528,
				"y": 4.364413118,
				"z": -1.9298199358,
				"element": "H" 
			},
			{
				"x": -1.1122439226,
				"y": 4.4520182151,
				"z": -2.7598273099,
				"element": "H" 
			},
			{
				"x": 0.5011609107,
				"y": 2.6793787172,
				"z": -2.0899260917,
				"element": "H" 
			}
		],
		 "valence_orbital": [ 
			{
				"type": "occ",
				"energy": -0.26933,
				"method": "rhf"
			},
			{
				"type": "occ",
				"energy": -0.26764,
				"method": "rhf"
			},
			{
				"type": "occ",
				"energy": -0.26447,
				"method": "rhf"
			},
			{
				"type": "occ",
				"energy": -0.25059,
				"method": "rhf"
			},
			{
				"type": "occ",
				"energy": -0.2463,
				"method": "rhf"
			},
			{
				"type": "unocc",
				"energy": -0.0725,
				"method": "rhf"
			},
			{
				"type": "unocc",
				"energy": -0.04253,
				"method": "rhf"
			},
			{
				"type": "unocc",
				"energy": -0.03383,
				"method": "rhf"
			},
			{
				"type": "unocc",
				"energy": -0.02184,
				"method": "rhf"
			},
			{
				"type": "unocc",
				"energy": 0.00884,
				"method": "rhf"
			}
		],
		"cosmo_sigma_profile": { 
			"-0.025": 0.0,
			"-0.024": 0.0,
			"-0.023": 0.0,
			"-0.022": 0.0,
			"-0.021": 0.0,
			"-0.02": 0.0,
			"-0.019": 0.0,
			"-0.018": 0.0,
			"-0.017": 0.0,
			"-0.016": 0.0,
			"-0.015": 0.0,
			"-0.014": 0.0,
			"-0.013": 0.0,
			"-0.012": 0.0,
			"-0.011": 0.0,
			"-0.01": 0.0,
			"-0.009": 0.1029917176,
			"-0.008": 3.50905212017,
			"-0.007": 12.2059933916,
			"-0.006": 21.2179166855,
			"-0.005": 22.7844459161,
			"-0.004": 21.2217339401,
			"-0.003": 20.6568867374,
			"-0.002": 24.599920244,
			"-0.001": 25.9038253947,
			"0.0": 21.9839547309,
			"0.001": 23.4163190154,
			"0.002": 22.4023381279,
			"0.003": 11.4071093053,
			"0.004": 5.3548427188,
			"0.005": 4.83048632352,
			"0.006": 6.52808599179,
			"0.007": 4.74747382433,
			"0.008": 5.25792662208,
			"0.009": 5.24812095866,
			"0.01": 6.2280861845,
			"0.011": 5.90394277665,
			"0.012": 5.5243631462,
			"0.013": 3.06086749486,
			"0.014": 1.47108865972,
			"0.015": 0.636075601517,
			"0.016": 0.276755554804,
			"0.017": 0.0,
			"0.018": 0.0,
			"0.019": 0.0,
			"0.02": 0.0,
			"0.021": 0.0,
			"0.022": 0.0,
			"0.023": 0.0,
			"0.024": 0.0,
			"0.025": 0.0
		}
	}
}
