{
	 "smiles": "CC1=CC(=CC=C1[N+]([O-])=O)C(O)=O", 
	 "Tm": 490.65, 
	 "num_atms": 20, 
	 "gaussian": { 
		 "optdone": 1, 
		 "sigma_profile": "yes", 
		 "theory": "DFT", 
		 "functional": "B3LYP", 
		 "basiset": "6-31G**", 
		 "properties": { 
			 "R2extent": 2766.6309, 
			 "electric_dipole_moment_norm": 3.0316727297, 
			 "electric_quadrupole_moment_norm": 26.9393362036, 
			 "total_energy": -664.625059889, 
			 "HOMO_LUMO_gap": 0.17567, 
			 "cosmo_polarized_energy": -17.01, 
			 "cosmo_cavitation_energy": 25.25, 
			 "cosmo_dispersion_energy": -18.56, 
			 "cosmo_repulsion_energy": 1.45, 
			 "cosmo_total_nonelectrostatic_energy": 8.14, 
			 "SMD_solvation_energy": 7.69 
		},
		"coords": [
			{
				"x": 1.500391841,
				"y": -1.8310370047,
				"z": -1.48560845,
				"element": "C" 
			},
			{
				"x": 0.6051545679,
				"y": -0.9797766385,
				"z": -0.6187489745,
				"element": "C" 
			},
			{
				"x": 0.1990752697,
				"y": 0.2753277662,
				"z": -1.0966827074,
				"element": "C" 
			},
			{
				"x": -0.6192418195,
				"y": 1.1373922915,
				"z": -0.3597591845,
				"element": "C" 
			},
			{
				"x": -1.0332316966,
				"y": 0.7655428057,
				"z": 0.9246565387,
				"element": "C" 
			},
			{
				"x": -0.6527266328,
				"y": -0.4666424458,
				"z": 1.4333431076,
				"element": "C" 
			},
			{
				"x": 0.1428625651,
				"y": -1.3230669408,
				"z": 0.6664938834,
				"element": "C" 
			},
			{
				"x": 0.4821475816,
				"y": -2.6192197078,
				"z": 1.2887275916,
				"element": "N" 
			},
			{
				"x": 0.3039330221,
				"y": -2.7306294336,
				"z": 2.5003446861,
				"element": "O" 
			},
			{
				"x": 0.91168177,
				"y": -3.5167639316,
				"z": 0.5641470481,
				"element": "O" 
			},
			{
				"x": -1.0440807384,
				"y": 2.4875226363,
				"z": -0.8683896623,
				"element": "C" 
			},
			{
				"x": -1.0454604928,
				"y": 2.6629521728,
				"z": -2.2144843778,
				"element": "O" 
			},
			{
				"x": -1.3715428692,
				"y": 3.3883321826,
				"z": -0.1346371737,
				"element": "O" 
			},
			{
				"x": 2.3791215964,
				"y": -2.1838196017,
				"z": -0.9411228815,
				"element": "H" 
			},
			{
				"x": 0.9790331528,
				"y": -2.7256151834,
				"z": -1.8351452762,
				"element": "H" 
			},
			{
				"x": 1.8316761509,
				"y": -1.2532347319,
				"z": -2.352404195,
				"element": "H" 
			},
			{
				"x": 0.5810471489,
				"y": 0.5846976329,
				"z": -2.0664677579,
				"element": "H" 
			},
			{
				"x": -1.6447034713,
				"y": 1.4496187996,
				"z": 1.5016858133,
				"element": "H" 
			},
			{
				"x": -0.9549160385,
				"y": -0.7884815942,
				"z": 2.4216722752,
				"element": "H" 
			},
			{
				"x": -0.9252209073,
				"y": 1.8167009264,
				"z": -2.667320303,
				"element": "H" 
			}
		],
		 "valence_orbital": [ 
			{
				"type": "occ",
				"energy": -0.31786,
				"method": "rhf"
			},
			{
				"type": "occ",
				"energy": -0.30661,
				"method": "rhf"
			},
			{
				"type": "occ",
				"energy": -0.29683,
				"method": "rhf"
			},
			{
				"type": "occ",
				"energy": -0.291,
				"method": "rhf"
			},
			{
				"type": "occ",
				"energy": -0.28326,
				"method": "rhf"
			},
			{
				"type": "unocc",
				"energy": -0.10759,
				"method": "rhf"
			},
			{
				"type": "unocc",
				"energy": -0.04574,
				"method": "rhf"
			},
			{
				"type": "unocc",
				"energy": -0.04289,
				"method": "rhf"
			},
			{
				"type": "unocc",
				"energy": 0.03132,
				"method": "rhf"
			},
			{
				"type": "unocc",
				"energy": 0.04597,
				"method": "rhf"
			}
		],
		"cosmo_sigma_profile": { 
			"-0.025": 0.0,
			"-0.024": 0.0,
			"-0.023": 0.0,
			"-0.022": 0.0,
			"-0.021": 0.0,
			"-0.02": 0.0,
			"-0.019": 0.670433807577,
			"-0.018": 1.1865685027,
			"-0.017": 1.10495828733,
			"-0.016": 0.87104482459,
			"-0.015": 0.8558563418,
			"-0.014": 1.30515329189,
			"-0.013": 0.751599807351,
			"-0.012": 1.51291541648,
			"-0.011": 1.19539626434,
			"-0.01": 1.05910878402,
			"-0.009": 2.28262964959,
			"-0.008": 4.19514222652,
			"-0.007": 7.04541830779,
			"-0.006": 8.18086818525,
			"-0.005": 11.7540273488,
			"-0.004": 11.6243135658,
			"-0.003": 14.3209292523,
			"-0.002": 16.1941509582,
			"-0.001": 20.3056135736,
			"0.0": 16.5201615693,
			"0.001": 10.1395213041,
			"0.002": 5.25553902524,
			"0.003": 4.59163384757,
			"0.004": 4.90764888768,
			"0.005": 5.4736728805,
			"0.006": 6.44779897597,
			"0.007": 9.49621333609,
			"0.008": 8.92010833603,
			"0.009": 8.71727577819,
			"0.01": 6.75297607344,
			"0.011": 5.36547186568,
			"0.012": 2.71324169153,
			"0.013": 0.390576341789,
			"0.014": 0.0,
			"0.015": 0.0,
			"0.016": 0.0,
			"0.017": 0.0,
			"0.018": 0.0,
			"0.019": 0.0,
			"0.02": 0.0,
			"0.021": 0.0,
			"0.022": 0.0,
			"0.023": 0.0,
			"0.024": 0.0,
			"0.025": 0.0
		}
	}
}
