{
	 "smiles": "OC(=O)C1=C(Cl)C(=CC=C1)[N+]([O-])=O", 
	 "Tm": 455.15, 
	 "num_atms": 17, 
	 "gaussian": { 
		 "optdone": 1, 
		 "sigma_profile": "yes", 
		 "theory": "DFT", 
		 "functional": "B3LYP", 
		 "basiset": "6-31G**", 
		 "properties": { 
			 "R2extent": 3154.3991, 
			 "electric_dipole_moment_norm": 2.36102002745, 
			 "electric_quadrupole_moment_norm": 21.0967682279, 
			 "total_energy": -1084.88100703, 
			 "HOMO_LUMO_gap": 0.18397, 
			 "cosmo_polarized_energy": -13.93, 
			 "cosmo_cavitation_energy": 24.25, 
			 "cosmo_dispersion_energy": -18.21, 
			 "cosmo_repulsion_energy": 1.42, 
			 "cosmo_total_nonelectrostatic_energy": 7.46, 
			 "SMD_solvation_energy": 7.47 
		},
		"coords": [
			{
				"x": 1.0241367248,
				"y": 1.9298519968,
				"z": 1.7648104435,
				"element": "O" 
			},
			{
				"x": 0.0666706398,
				"y": 1.0356015642,
				"z": 1.4805501232,
				"element": "C" 
			},
			{
				"x": -0.7688353721,
				"y": 0.7583101161,
				"z": 2.3099554441,
				"element": "O" 
			},
			{
				"x": 0.0021652574,
				"y": 0.4042722612,
				"z": 0.0925441434,
				"element": "C" 
			},
			{
				"x": 0.9920494076,
				"y": 0.3843565766,
				"z": -0.9100238422,
				"element": "C" 
			},
			{
				"x": 2.5849479546,
				"y": 1.0743989297,
				"z": -0.634793802,
				"element": "Cl" 
			},
			{
				"x": 0.7306321792,
				"y": -0.2758772951,
				"z": -2.1216343321,
				"element": "C" 
			},
			{
				"x": -0.4818794372,
				"y": -0.9229418404,
				"z": -2.3483518598,
				"element": "C" 
			},
			{
				"x": -1.468233648,
				"y": -0.8917810729,
				"z": -1.3700819164,
				"element": "C" 
			},
			{
				"x": -1.2200615741,
				"y": -0.2378259981,
				"z": -0.1702909827,
				"element": "C" 
			},
			{
				"x": 1.6996541852,
				"y": -0.3271017013,
				"z": -3.2366428234,
				"element": "N" 
			},
			{
				"x": 1.7412648223,
				"y": -1.3771597445,
				"z": -3.8744027776,
				"element": "O" 
			},
			{
				"x": 2.3569614828,
				"y": 0.6792338665,
				"z": -3.4772537547,
				"element": "O" 
			},
			{
				"x": 1.6459481757,
				"y": 2.040590916,
				"z": 1.027448638,
				"element": "H" 
			},
			{
				"x": -0.6228141007,
				"y": -1.4376888092,
				"z": -3.2911245011,
				"element": "H" 
			},
			{
				"x": -2.4207340184,
				"y": -1.3816570465,
				"z": -1.5405475011,
				"element": "H" 
			},
			{
				"x": -1.9610726789,
				"y": -0.2128827191,
				"z": 0.620039301,
				"element": "H" 
			}
		],
		 "valence_orbital": [ 
			{
				"type": "occ",
				"energy": -0.32564,
				"method": "rhf"
			},
			{
				"type": "occ",
				"energy": -0.31913,
				"method": "rhf"
			},
			{
				"type": "occ",
				"energy": -0.30051,
				"method": "rhf"
			},
			{
				"type": "occ",
				"energy": -0.29515,
				"method": "rhf"
			},
			{
				"type": "occ",
				"energy": -0.28991,
				"method": "rhf"
			},
			{
				"type": "unocc",
				"energy": -0.10594,
				"method": "rhf"
			},
			{
				"type": "unocc",
				"energy": -0.0824,
				"method": "rhf"
			},
			{
				"type": "unocc",
				"energy": -0.04045,
				"method": "rhf"
			},
			{
				"type": "unocc",
				"energy": -0.01849,
				"method": "rhf"
			},
			{
				"type": "unocc",
				"energy": 0.02532,
				"method": "rhf"
			}
		],
		"cosmo_sigma_profile": { 
			"-0.025": 0.0,
			"-0.024": 0.0,
			"-0.023": 0.0,
			"-0.022": 0.0,
			"-0.021": 0.0,
			"-0.02": 0.0,
			"-0.019": 0.0,
			"-0.018": 0.0,
			"-0.017": 0.0,
			"-0.016": 0.0,
			"-0.015": 0.000858817613905,
			"-0.014": 0.188658064638,
			"-0.013": 1.23809106806,
			"-0.012": 1.59180945557,
			"-0.011": 1.16380552294,
			"-0.01": 1.10199146825,
			"-0.009": 4.55450696096,
			"-0.008": 9.17293285484,
			"-0.007": 9.50606869358,
			"-0.006": 9.81150349914,
			"-0.005": 10.1312231442,
			"-0.004": 11.415889391,
			"-0.003": 14.4877581949,
			"-0.002": 14.9099388012,
			"-0.001": 14.1981983776,
			"0.0": 14.7287247205,
			"0.001": 8.23487787604,
			"0.002": 6.82811569122,
			"0.003": 5.11258936845,
			"0.004": 5.45621894588,
			"0.005": 5.71884135178,
			"0.006": 9.40094540287,
			"0.007": 13.2873766323,
			"0.008": 7.48458393332,
			"0.009": 6.10973718022,
			"0.01": 5.37855406501,
			"0.011": 4.47397075464,
			"0.012": 2.03571451353,
			"0.013": 0.306151350738,
			"0.014": 0.0,
			"0.015": 0.0,
			"0.016": 0.0,
			"0.017": 0.0,
			"0.018": 0.0,
			"0.019": 0.0,
			"0.02": 0.0,
			"0.021": 0.0,
			"0.022": 0.0,
			"0.023": 0.0,
			"0.024": 0.0,
			"0.025": 0.0
		}
	}
}
