{
	 "smiles": "COC(=O)CN1CCC(CC1)C(N)=O", 
	 "Tm": 400.15, 
	 "num_atms": 30, 
	 "gaussian": { 
		 "optdone": 1, 
		 "sigma_profile": "yes", 
		 "theory": "DFT", 
		 "functional": "B3LYP", 
		 "basiset": "6-31G**", 
		 "properties": { 
			 "R2extent": 3095.5423, 
			 "electric_dipole_moment_norm": 4.31420044968, 
			 "electric_quadrupole_moment_norm": 13.1280971519, 
			 "total_energy": -687.783005911, 
			 "HOMO_LUMO_gap": 0.22728, 
			 "cosmo_polarized_energy": -19.35, 
			 "cosmo_cavitation_energy": 31.61, 
			 "cosmo_dispersion_energy": -21.98, 
			 "cosmo_repulsion_energy": 1.76, 
			 "cosmo_total_nonelectrostatic_energy": 11.39, 
			 "SMD_solvation_energy": 6.24 
		},
		"coords": [
			{
				"x": 0.8096464777,
				"y": -3.2018085665,
				"z": -1.0141182765,
				"element": "C" 
			},
			{
				"x": 1.0310360841,
				"y": -1.7835580586,
				"z": -0.9563984937,
				"element": "O" 
			},
			{
				"x": 1.1570291038,
				"y": -1.171963649,
				"z": -2.1463664442,
				"element": "C" 
			},
			{
				"x": 1.1293156755,
				"y": -1.7481028966,
				"z": -3.2133824567,
				"element": "O" 
			},
			{
				"x": 1.3996633779,
				"y": 0.3307892229,
				"z": -2.0150942654,
				"element": "C" 
			},
			{
				"x": 0.8159190458,
				"y": 0.9406741197,
				"z": -0.8403694816,
				"element": "N" 
			},
			{
				"x": -0.6530837512,
				"y": 0.9529820656,
				"z": -0.8834777136,
				"element": "C" 
			},
			{
				"x": -1.2342250174,
				"y": 1.8271094854,
				"z": 0.2468089401,
				"element": "C" 
			},
			{
				"x": -0.2750580746,
				"y": 1.9067306122,
				"z": 1.4422876199,
				"element": "C" 
			},
			{
				"x": 1.066822948,
				"y": 2.5471436231,
				"z": 0.9848320309,
				"element": "C" 
			},
			{
				"x": 1.3545964989,
				"y": 2.2525242794,
				"z": -0.5031339917,
				"element": "C" 
			},
			{
				"x": -0.16019627,
				"y": 0.5267958082,
				"z": 2.1164949176,
				"element": "C" 
			},
			{
				"x": 0.7795827369,
				"y": 0.4165352714,
				"z": 3.1064308792,
				"element": "N" 
			},
			{
				"x": -0.9247950915,
				"y": -0.3944977413,
				"z": 1.862236836,
				"element": "O" 
			},
			{
				"x": 0.6465535932,
				"y": -3.5133285402,
				"z": 0.0171060927,
				"element": "H" 
			},
			{
				"x": 1.6794336889,
				"y": -3.7101247536,
				"z": -1.4393238802,
				"element": "H" 
			},
			{
				"x": -0.0651019211,
				"y": -3.430383495,
				"z": -1.6275752146,
				"element": "H" 
			},
			{
				"x": 1.0609785016,
				"y": 0.7732210938,
				"z": -2.9695438434,
				"element": "H" 
			},
			{
				"x": 2.4895556672,
				"y": 0.4587740457,
				"z": -1.9773328906,
				"element": "H" 
			},
			{
				"x": -1.0170844122,
				"y": 1.3271737286,
				"z": -1.860316576,
				"element": "H" 
			},
			{
				"x": -0.9993910416,
				"y": -0.0759146568,
				"z": -0.7626545642,
				"element": "H" 
			},
			{
				"x": -2.1957292969,
				"y": 1.4172598758,
				"z": 0.5624000851,
				"element": "H" 
			},
			{
				"x": -1.4139509273,
				"y": 2.8463081904,
				"z": -0.1145296057,
				"element": "H" 
			},
			{
				"x": -0.7184445062,
				"y": 2.5574595245,
				"z": 2.2089065151,
				"element": "H" 
			},
			{
				"x": 1.0332093848,
				"y": 3.6313408232,
				"z": 1.1405743248,
				"element": "H" 
			},
			{
				"x": 1.9023708873,
				"y": 2.170533493,
				"z": 1.5836159074,
				"element": "H" 
			},
			{
				"x": 0.9380077867,
				"y": 3.0546391979,
				"z": -1.1434015155,
				"element": "H" 
			},
			{
				"x": 2.435534224,
				"y": 2.2498842168,
				"z": -0.677955319,
				"element": "H" 
			},
			{
				"x": 0.8981565558,
				"y": -0.4918722633,
				"z": 3.5280517507,
				"element": "H" 
			},
			{
				"x": 1.482248072,
				"y": 1.1170759434,
				"z": 3.2716286331,
				"element": "H" 
			}
		],
		 "valence_orbital": [ 
			{
				"type": "occ",
				"energy": -0.29274,
				"method": "rhf"
			},
			{
				"type": "occ",
				"energy": -0.26373,
				"method": "rhf"
			},
			{
				"type": "occ",
				"energy": -0.26035,
				"method": "rhf"
			},
			{
				"type": "occ",
				"energy": -0.24041,
				"method": "rhf"
			},
			{
				"type": "occ",
				"energy": -0.21092,
				"method": "rhf"
			},
			{
				"type": "unocc",
				"energy": 0.01636,
				"method": "rhf"
			},
			{
				"type": "unocc",
				"energy": 0.03371,
				"method": "rhf"
			},
			{
				"type": "unocc",
				"energy": 0.06661,
				"method": "rhf"
			},
			{
				"type": "unocc",
				"energy": 0.08409,
				"method": "rhf"
			},
			{
				"type": "unocc",
				"energy": 0.10804,
				"method": "rhf"
			}
		],
		"cosmo_sigma_profile": { 
			"-0.025": 0.0,
			"-0.024": 0.0,
			"-0.023": 0.0,
			"-0.022": 0.0,
			"-0.021": 0.0,
			"-0.02": 0.0,
			"-0.019": 0.0,
			"-0.018": 0.0,
			"-0.017": 0.0,
			"-0.016": 0.0,
			"-0.015": 0.0,
			"-0.014": 0.571575393504,
			"-0.013": 2.20636217782,
			"-0.012": 2.53197679634,
			"-0.011": 1.88761240417,
			"-0.01": 2.24724151752,
			"-0.009": 3.07162117586,
			"-0.008": 1.81948788032,
			"-0.007": 4.94503769019,
			"-0.006": 10.3420440516,
			"-0.005": 13.4290350807,
			"-0.004": 18.4005469903,
			"-0.003": 31.4786826516,
			"-0.002": 37.000097327,
			"-0.001": 25.4349813778,
			"0.0": 13.7200661954,
			"0.001": 6.7929008993,
			"0.002": 6.11367436488,
			"0.003": 4.37361046136,
			"0.004": 5.0479490857,
			"0.005": 5.16189617066,
			"0.006": 4.8660640048,
			"0.007": 4.16073305945,
			"0.008": 4.49827460743,
			"0.009": 5.0542697275,
			"0.01": 4.28174281775,
			"0.011": 6.41073208964,
			"0.012": 8.04006678182,
			"0.013": 4.98190353203,
			"0.014": 4.87417849328,
			"0.015": 1.64581559749,
			"0.016": 0.0353135718126,
			"0.017": 0.0,
			"0.018": 0.0,
			"0.019": 0.0,
			"0.02": 0.0,
			"0.021": 0.0,
			"0.022": 0.0,
			"0.023": 0.0,
			"0.024": 0.0,
			"0.025": 0.0
		}
	}
}
