{
	 "smiles": "FC1=C(CC2=NN=C(S)O2)C=CC=C1", 
	 "Tm": 408.15, 
	 "num_atms": 21, 
	 "gaussian": { 
		 "optdone": 1, 
		 "sigma_profile": "yes", 
		 "theory": "DFT", 
		 "functional": "B3LYP", 
		 "basiset": "6-31G**", 
		 "properties": { 
			 "R2extent": 4029.4529, 
			 "electric_dipole_moment_norm": 3.88940410089, 
			 "electric_quadrupole_moment_norm": 17.5293388866, 
			 "total_energy": -1029.88483298, 
			 "HOMO_LUMO_gap": 0.22514, 
			 "cosmo_polarized_energy": -12.29, 
			 "cosmo_cavitation_energy": 28.79, 
			 "cosmo_dispersion_energy": -20.99, 
			 "cosmo_repulsion_energy": 1.6, 
			 "cosmo_total_nonelectrostatic_energy": 9.4, 
			 "SMD_solvation_energy": 3.13 
		},
		"coords": [
			{
				"x": 0.4367700758,
				"y": 2.5387196724,
				"z": 1.0224852248,
				"element": "F" 
			},
			{
				"x": 0.1357636025,
				"y": 1.8271075488,
				"z": -0.0903444539,
				"element": "C" 
			},
			{
				"x": 0.6715221488,
				"y": 0.547724938,
				"z": -0.2367785933,
				"element": "C" 
			},
			{
				"x": 1.587001651,
				"y": -0.0418964183,
				"z": 0.8248033213,
				"element": "C" 
			},
			{
				"x": 1.0963042884,
				"y": -1.3429922261,
				"z": 1.3611708518,
				"element": "C" 
			},
			{
				"x": 1.5448238503,
				"y": -2.5339014491,
				"z": 1.1310255452,
				"element": "N" 
			},
			{
				"x": 0.7146396163,
				"y": -3.4233615913,
				"z": 1.8287887325,
				"element": "N" 
			},
			{
				"x": -0.162559843,
				"y": -2.6839839911,
				"z": 2.4264855177,
				"element": "C" 
			},
			{
				"x": -1.442289049,
				"y": -3.2331272949,
				"z": 3.4973980742,
				"element": "S" 
			},
			{
				"x": 0.0001686891,
				"y": -1.3514228606,
				"z": 2.1892720937,
				"element": "O" 
			},
			{
				"x": 0.3409707301,
				"y": -0.1594818019,
				"z": -1.4001024299,
				"element": "C" 
			},
			{
				"x": -0.4892099204,
				"y": 0.3991865464,
				"z": -2.3711189978,
				"element": "C" 
			},
			{
				"x": -1.0068469259,
				"y": 1.6847643458,
				"z": -2.1916191546,
				"element": "C" 
			},
			{
				"x": -0.6936379802,
				"y": 2.4093232013,
				"z": -1.042267084,
				"element": "C" 
			},
			{
				"x": 1.7048310129,
				"y": 0.6712918303,
				"z": 1.6442352408,
				"element": "H" 
			},
			{
				"x": 2.5791664754,
				"y": -0.2354416158,
				"z": 0.4056508608,
				"element": "H" 
			},
			{
				"x": -2.0697143361,
				"y": -2.0417873756,
				"z": 3.535264655,
				"element": "H" 
			},
			{
				"x": 0.7416544203,
				"y": -1.1609499952,
				"z": -1.53363688,
				"element": "H" 
			},
			{
				"x": -0.7314522737,
				"y": -0.1666991993,
				"z": -3.2651109548,
				"element": "H" 
			},
			{
				"x": -1.6535258073,
				"y": 2.1253466636,
				"z": -2.9442541127,
				"element": "H" 
			},
			{
				"x": -1.0768804253,
				"y": 3.4091810722,
				"z": -0.8696474568,
				"element": "H" 
			}
		],
		 "valence_orbital": [ 
			{
				"type": "occ",
				"energy": -0.32329,
				"method": "rhf"
			},
			{
				"type": "occ",
				"energy": -0.28445,
				"method": "rhf"
			},
			{
				"type": "occ",
				"energy": -0.26611,
				"method": "rhf"
			},
			{
				"type": "occ",
				"energy": -0.2539,
				"method": "rhf"
			},
			{
				"type": "occ",
				"energy": -0.249,
				"method": "rhf"
			},
			{
				"type": "unocc",
				"energy": -0.02386,
				"method": "rhf"
			},
			{
				"type": "unocc",
				"energy": -0.01801,
				"method": "rhf"
			},
			{
				"type": "unocc",
				"energy": -0.00694,
				"method": "rhf"
			},
			{
				"type": "unocc",
				"energy": 8e-05,
				"method": "rhf"
			},
			{
				"type": "unocc",
				"energy": 0.02955,
				"method": "rhf"
			}
		],
		"cosmo_sigma_profile": { 
			"-0.025": 0.0,
			"-0.024": 0.0,
			"-0.023": 0.0,
			"-0.022": 0.0,
			"-0.021": 0.0,
			"-0.02": 0.0,
			"-0.019": 0.0,
			"-0.018": 0.0,
			"-0.017": 0.0,
			"-0.016": 0.0,
			"-0.015": 0.0,
			"-0.014": 0.0299415208609,
			"-0.013": 2.00406712433,
			"-0.012": 1.68544620182,
			"-0.011": 1.54984543449,
			"-0.01": 1.50031479929,
			"-0.009": 1.13688333594,
			"-0.008": 2.97967773863,
			"-0.007": 6.94639102953,
			"-0.006": 12.2772307803,
			"-0.005": 14.9668536219,
			"-0.004": 19.2448911329,
			"-0.003": 15.2946581685,
			"-0.002": 15.1378786996,
			"-0.001": 14.7196876675,
			"0.0": 17.7314928495,
			"0.001": 18.4443926414,
			"0.002": 17.3925940708,
			"0.003": 18.9053245539,
			"0.004": 21.693574471,
			"0.005": 7.61666317017,
			"0.006": 2.7065284741,
			"0.007": 1.89967620048,
			"0.008": 1.97426914697,
			"0.009": 2.31214673987,
			"0.01": 2.74451705263,
			"0.011": 3.36377231722,
			"0.012": 2.60543826309,
			"0.013": 2.11755702476,
			"0.014": 2.74829781974,
			"0.015": 0.696480967767,
			"0.016": 0.0,
			"0.017": 0.0,
			"0.018": 0.0,
			"0.019": 0.0,
			"0.02": 0.0,
			"0.021": 0.0,
			"0.022": 0.0,
			"0.023": 0.0,
			"0.024": 0.0,
			"0.025": 0.0
		}
	}
}
