{
	 "smiles": "COC(=O)NC1=CC(=CC=C1)C(O)=O", 
	 "Tm": 503.15, 
	 "num_atms": 23, 
	 "gaussian": { 
		 "optdone": 1, 
		 "sigma_profile": "yes", 
		 "theory": "DFT", 
		 "functional": "B3LYP", 
		 "basiset": "6-31G**", 
		 "properties": { 
			 "R2extent": 4419.0232, 
			 "electric_dipole_moment_norm": 7.08939824456, 
			 "electric_quadrupole_moment_norm": 27.901330555, 
			 "total_energy": -704.060087984, 
			 "HOMO_LUMO_gap": 0.18777, 
			 "cosmo_polarized_energy": -18.44, 
			 "cosmo_cavitation_energy": 28.24, 
			 "cosmo_dispersion_energy": -20.8, 
			 "cosmo_repulsion_energy": 1.63, 
			 "cosmo_total_nonelectrostatic_energy": 9.07, 
			 "SMD_solvation_energy": 7.69 
		},
		"coords": [
			{
				"x": -3.6791142857,
				"y": -0.6489280112,
				"z": -3.1309276355,
				"element": "C" 
			},
			{
				"x": -2.4697137612,
				"y": -0.9207949315,
				"z": -2.4060087625,
				"element": "O" 
			},
			{
				"x": -1.9883032538,
				"y": 0.1256081031,
				"z": -1.6900124809,
				"element": "C" 
			},
			{
				"x": -2.5124071228,
				"y": 1.2230676871,
				"z": -1.6364054963,
				"element": "O" 
			},
			{
				"x": -0.8351392815,
				"y": -0.2687460321,
				"z": -1.0561483159,
				"element": "N" 
			},
			{
				"x": -0.0194724356,
				"y": 0.4904356842,
				"z": -0.1983399018,
				"element": "C" 
			},
			{
				"x": -0.2346293266,
				"y": 1.8535898571,
				"z": 0.0473115461,
				"element": "C" 
			},
			{
				"x": 0.6218069458,
				"y": 2.548582402,
				"z": 0.9098552298,
				"element": "C" 
			},
			{
				"x": 1.7065637054,
				"y": 1.9006040916,
				"z": 1.5115213502,
				"element": "C" 
			},
			{
				"x": 1.9145484823,
				"y": 0.5459268267,
				"z": 1.2654945171,
				"element": "C" 
			},
			{
				"x": 1.059364077,
				"y": -0.1585674543,
				"z": 0.4213269407,
				"element": "C" 
			},
			{
				"x": 0.4375448216,
				"y": 4.0099783301,
				"z": 1.2073074225,
				"element": "C" 
			},
			{
				"x": -0.7789122919,
				"y": 4.546538504,
				"z": 0.9331145099,
				"element": "O" 
			},
			{
				"x": 1.3116604105,
				"y": 4.7025436932,
				"z": 1.6746988293,
				"element": "O" 
			},
			{
				"x": -3.5256141276,
				"y": 0.1604154804,
				"z": -3.8487321215,
				"element": "H" 
			},
			{
				"x": -4.484916329,
				"y": -0.3699589036,
				"z": -2.4476783488,
				"element": "H" 
			},
			{
				"x": -3.9218641163,
				"y": -1.5769610084,
				"z": -3.648143028,
				"element": "H" 
			},
			{
				"x": -0.5666501447,
				"y": -1.229443197,
				"z": -1.2142033028,
				"element": "H" 
			},
			{
				"x": -1.0495549088,
				"y": 2.339239028,
				"z": -0.4739415722,
				"element": "H" 
			},
			{
				"x": 2.3621186608,
				"y": 2.4706834236,
				"z": 2.1594404714,
				"element": "H" 
			},
			{
				"x": 2.7473422112,
				"y": 0.0289737862,
				"z": 1.7324349309,
				"element": "H" 
			},
			{
				"x": 1.2285179421,
				"y": -1.2166210942,
				"z": 0.2358901784,
				"element": "H" 
			},
			{
				"x": -1.4080758711,
				"y": 3.8534337353,
				"z": 0.6883450399,
				"element": "H" 
			}
		],
		 "valence_orbital": [ 
			{
				"type": "occ",
				"energy": -0.3082,
				"method": "rhf"
			},
			{
				"type": "occ",
				"energy": -0.29414,
				"method": "rhf"
			},
			{
				"type": "occ",
				"energy": -0.27359,
				"method": "rhf"
			},
			{
				"type": "occ",
				"energy": -0.26586,
				"method": "rhf"
			},
			{
				"type": "occ",
				"energy": -0.23671,
				"method": "rhf"
			},
			{
				"type": "unocc",
				"energy": -0.04894,
				"method": "rhf"
			},
			{
				"type": "unocc",
				"energy": -0.0215,
				"method": "rhf"
			},
			{
				"type": "unocc",
				"energy": 0.03624,
				"method": "rhf"
			},
			{
				"type": "unocc",
				"energy": 0.06163,
				"method": "rhf"
			},
			{
				"type": "unocc",
				"energy": 0.06714,
				"method": "rhf"
			}
		],
		"cosmo_sigma_profile": { 
			"-0.025": 0.0,
			"-0.024": 0.0,
			"-0.023": 0.0,
			"-0.022": 0.0,
			"-0.021": 0.0,
			"-0.02": 0.0,
			"-0.019": 0.0,
			"-0.018": 0.169019517527,
			"-0.017": 0.734000466251,
			"-0.016": 1.26070927297,
			"-0.015": 1.60877727464,
			"-0.014": 3.16477585536,
			"-0.013": 1.57876140178,
			"-0.012": 2.01531051729,
			"-0.011": 2.19699858595,
			"-0.01": 1.55200482437,
			"-0.009": 2.4182311149,
			"-0.008": 2.83338885215,
			"-0.007": 5.17877109374,
			"-0.006": 11.5474433044,
			"-0.005": 14.2322621429,
			"-0.004": 15.5688821795,
			"-0.003": 16.8245061725,
			"-0.002": 13.4735260275,
			"-0.001": 13.5326243705,
			"0.0": 14.403851777,
			"0.001": 14.6539376545,
			"0.002": 14.661821365,
			"0.003": 16.1760661621,
			"0.004": 7.92241878676,
			"0.005": 4.6438355724,
			"0.006": 5.94260785063,
			"0.007": 4.99388047803,
			"0.008": 4.12885485723,
			"0.009": 4.71745682464,
			"0.01": 6.67492871666,
			"0.011": 7.22705208495,
			"0.012": 7.6976097395,
			"0.013": 1.96820371261,
			"0.014": 0.0769974107877,
			"0.015": 0.0,
			"0.016": 0.0,
			"0.017": 0.0,
			"0.018": 0.0,
			"0.019": 0.0,
			"0.02": 0.0,
			"0.021": 0.0,
			"0.022": 0.0,
			"0.023": 0.0,
			"0.024": 0.0,
			"0.025": 0.0
		}
	}
}
