{
	 "smiles": "CNC1=C(C=CC=N1)C#N", 
	 "Tm": 361.15, 
	 "num_atms": 17, 
	 "gaussian": { 
		 "optdone": 1, 
		 "sigma_profile": "yes", 
		 "theory": "DFT", 
		 "functional": "B3LYP", 
		 "basiset": "6-31G**", 
		 "properties": { 
			 "R2extent": 1483.2393, 
			 "electric_dipole_moment_norm": 2.60495653323, 
			 "electric_quadrupole_moment_norm": 18.2991055623, 
			 "total_energy": -435.206080107, 
			 "HOMO_LUMO_gap": 0.16806, 
			 "cosmo_polarized_energy": -10.04, 
			 "cosmo_cavitation_energy": 22.05, 
			 "cosmo_dispersion_energy": -15.89, 
			 "cosmo_repulsion_energy": 1.3, 
			 "cosmo_total_nonelectrostatic_energy": 7.46, 
			 "SMD_solvation_energy": 3.71 
		},
		"coords": [
			{
				"x": -2.4430638997,
				"y": -0.5103367632,
				"z": -0.5880306537,
				"element": "C" 
			},
			{
				"x": -1.4633754808,
				"y": 0.3223347394,
				"z": 0.0871984643,
				"element": "N" 
			},
			{
				"x": -0.1518863711,
				"y": -0.0125818326,
				"z": 0.1855736014,
				"element": "C" 
			},
			{
				"x": 0.7784955676,
				"y": 0.8417212769,
				"z": 0.8622441086,
				"element": "C" 
			},
			{
				"x": 2.1162333712,
				"y": 0.4452574855,
				"z": 0.9320572033,
				"element": "C" 
			},
			{
				"x": 2.506301049,
				"y": -0.7571438049,
				"z": 0.3483594362,
				"element": "C" 
			},
			{
				"x": 1.5227600137,
				"y": -1.5168573817,
				"z": -0.2872330145,
				"element": "C" 
			},
			{
				"x": 0.2359317144,
				"y": -1.1717789664,
				"z": -0.374574013,
				"element": "N" 
			},
			{
				"x": 0.3202870126,
				"y": 2.0609581875,
				"z": 1.440560105,
				"element": "C" 
			},
			{
				"x": -0.1191494262,
				"y": 3.042340302,
				"z": 1.8907512196,
				"element": "N" 
			},
			{
				"x": -2.1843421183,
				"y": -0.6549533533,
				"z": -1.6419366987,
				"element": "H" 
			},
			{
				"x": -3.4143616709,
				"y": -0.0163571449,
				"z": -0.5242964666,
				"element": "H" 
			},
			{
				"x": -2.5139040016,
				"y": -1.498913509,
				"z": -0.1229831676,
				"element": "H" 
			},
			{
				"x": -1.7610826595,
				"y": 1.1903086296,
				"z": 0.5050696217,
				"element": "H" 
			},
			{
				"x": 2.8321129726,
				"y": 1.0824274775,
				"z": 1.4415185724,
				"element": "H" 
			},
			{
				"x": 3.5351353011,
				"y": -1.0956939988,
				"z": 0.3833568701,
				"element": "H" 
			},
			{
				"x": 1.7849086258,
				"y": -2.4639313436,
				"z": -0.7567351886,
				"element": "H" 
			}
		],
		 "valence_orbital": [ 
			{
				"type": "occ",
				"energy": -0.33796,
				"method": "rhf"
			},
			{
				"type": "occ",
				"energy": -0.32086,
				"method": "rhf"
			},
			{
				"type": "occ",
				"energy": -0.287,
				"method": "rhf"
			},
			{
				"type": "occ",
				"energy": -0.27086,
				"method": "rhf"
			},
			{
				"type": "occ",
				"energy": -0.22114,
				"method": "rhf"
			},
			{
				"type": "unocc",
				"energy": -0.05308,
				"method": "rhf"
			},
			{
				"type": "unocc",
				"energy": -0.00937,
				"method": "rhf"
			},
			{
				"type": "unocc",
				"energy": 0.02696,
				"method": "rhf"
			},
			{
				"type": "unocc",
				"energy": 0.0728,
				"method": "rhf"
			},
			{
				"type": "unocc",
				"energy": 0.07963,
				"method": "rhf"
			}
		],
		"cosmo_sigma_profile": { 
			"-0.025": 0.0,
			"-0.024": 0.0,
			"-0.023": 0.0,
			"-0.022": 0.0,
			"-0.021": 0.0,
			"-0.02": 0.0,
			"-0.019": 0.0,
			"-0.018": 0.0,
			"-0.017": 0.0,
			"-0.016": 0.0,
			"-0.015": 0.0,
			"-0.014": 0.144434926414,
			"-0.013": 0.821192635616,
			"-0.012": 0.944047958037,
			"-0.011": 0.89295507358,
			"-0.01": 1.00006481422,
			"-0.009": 1.47207847221,
			"-0.008": 4.27551566983,
			"-0.007": 6.84420383742,
			"-0.006": 10.1845265507,
			"-0.005": 10.6168233778,
			"-0.004": 11.5728422249,
			"-0.003": 12.1123880433,
			"-0.002": 14.0569331638,
			"-0.001": 15.1032501439,
			"0.0": 15.307391016,
			"0.001": 13.6286332097,
			"0.002": 12.7041353024,
			"0.003": 7.95159338038,
			"0.004": 4.28592548991,
			"0.005": 4.00771706371,
			"0.006": 3.44803018104,
			"0.007": 3.89169379221,
			"0.008": 3.7437543671,
			"0.009": 4.06818258032,
			"0.01": 4.39711707775,
			"0.011": 3.72894274351,
			"0.012": 3.32177886309,
			"0.013": 2.45383997864,
			"0.014": 0.434798139455,
			"0.015": 0.0,
			"0.016": 0.0,
			"0.017": 0.0,
			"0.018": 0.0,
			"0.019": 0.0,
			"0.02": 0.0,
			"0.021": 0.0,
			"0.022": 0.0,
			"0.023": 0.0,
			"0.024": 0.0,
			"0.025": 0.0
		}
	}
}
