{
	 "smiles": "CC(=O)CC(=O)NC1=CC(Cl)=CC=C1Cl", 
	 "Tm": 368.15, 
	 "num_atms": 24, 
	 "gaussian": { 
		 "optdone": 1, 
		 "sigma_profile": "yes", 
		 "theory": "DFT", 
		 "functional": "B3LYP", 
		 "basiset": "6-31G**", 
		 "properties": { 
			 "R2extent": 4685.0498, 
			 "electric_dipole_moment_norm": 1.89685718492, 
			 "electric_quadrupole_moment_norm": 14.7132741254, 
			 "total_energy": -1512.08663766, 
			 "HOMO_LUMO_gap": 0.19846, 
			 "cosmo_polarized_energy": -12.1, 
			 "cosmo_cavitation_energy": 31.99, 
			 "cosmo_dispersion_energy": -22.83, 
			 "cosmo_repulsion_energy": 1.79, 
			 "cosmo_total_nonelectrostatic_energy": 10.96, 
			 "SMD_solvation_energy": 6.22 
		},
		"coords": [
			{
				"x": 1.4965083228,
				"y": -2.8621326792,
				"z": -2.7728537753,
				"element": "C" 
			},
			{
				"x": 1.6053359601,
				"y": -1.7887261549,
				"z": -1.7190651248,
				"element": "C" 
			},
			{
				"x": 2.1962114713,
				"y": -1.9449598257,
				"z": -0.6667426482,
				"element": "O" 
			},
			{
				"x": 0.8744888571,
				"y": -0.4683410464,
				"z": -2.0187915461,
				"element": "C" 
			},
			{
				"x": -0.5908312934,
				"y": -0.6099809791,
				"z": -1.6136741398,
				"element": "C" 
			},
			{
				"x": -1.3631930164,
				"y": -1.2847714437,
				"z": -2.2798689028,
				"element": "O" 
			},
			{
				"x": -1.0486892639,
				"y": 0.0380165971,
				"z": -0.4822068616,
				"element": "N" 
			},
			{
				"x": -0.4108834029,
				"y": 0.8645965259,
				"z": 0.4615604452,
				"element": "C" 
			},
			{
				"x": 0.8546606238,
				"y": 0.5617520821,
				"z": 0.9899585405,
				"element": "C" 
			},
			{
				"x": 1.4293209383,
				"y": 1.4112770642,
				"z": 1.9326705573,
				"element": "C" 
			},
			{
				"x": 3.0207154009,
				"y": 1.0275734965,
				"z": 2.5623953164,
				"element": "Cl" 
			},
			{
				"x": 0.7635305527,
				"y": 2.5395956023,
				"z": 2.4080466342,
				"element": "C" 
			},
			{
				"x": -0.5091546732,
				"y": 2.8217037972,
				"z": 1.9167715914,
				"element": "C" 
			},
			{
				"x": -1.0857509543,
				"y": 2.0001894484,
				"z": 0.9527159515,
				"element": "C" 
			},
			{
				"x": -2.6890936134,
				"y": 2.3952132933,
				"z": 0.3520818874,
				"element": "Cl" 
			},
			{
				"x": 1.9268254449,
				"y": -3.7957103034,
				"z": -2.4087772631,
				"element": "H" 
			},
			{
				"x": 0.4422006103,
				"y": -2.9929644166,
				"z": -3.0412991866,
				"element": "H" 
			},
			{
				"x": 2.0205678384,
				"y": -2.5434206582,
				"z": -3.6821410099,
				"element": "H" 
			},
			{
				"x": 0.8630526253,
				"y": -0.2829202286,
				"z": -3.0958850919,
				"element": "H" 
			},
			{
				"x": 1.3818090037,
				"y": 0.349803959,
				"z": -1.508726066,
				"element": "H" 
			},
			{
				"x": -2.0596312056,
				"y": -0.012966851,
				"z": -0.4172598895,
				"element": "H" 
			},
			{
				"x": 1.380344965,
				"y": -0.3340159131,
				"z": 0.6750486585,
				"element": "H" 
			},
			{
				"x": 1.2245493827,
				"y": 3.1802229922,
				"z": 3.150492387,
				"element": "H" 
			},
			{
				"x": -1.054994574,
				"y": 3.6879656419,
				"z": 2.273249536,
				"element": "H" 
			}
		],
		 "valence_orbital": [ 
			{
				"type": "occ",
				"energy": -0.31243,
				"method": "rhf"
			},
			{
				"type": "occ",
				"energy": -0.27711,
				"method": "rhf"
			},
			{
				"type": "occ",
				"energy": -0.26288,
				"method": "rhf"
			},
			{
				"type": "occ",
				"energy": -0.26178,
				"method": "rhf"
			},
			{
				"type": "occ",
				"energy": -0.24401,
				"method": "rhf"
			},
			{
				"type": "unocc",
				"energy": -0.04555,
				"method": "rhf"
			},
			{
				"type": "unocc",
				"energy": -0.03355,
				"method": "rhf"
			},
			{
				"type": "unocc",
				"energy": -0.02689,
				"method": "rhf"
			},
			{
				"type": "unocc",
				"energy": 0.00639,
				"method": "rhf"
			},
			{
				"type": "unocc",
				"energy": 0.01747,
				"method": "rhf"
			}
		],
		"cosmo_sigma_profile": { 
			"-0.025": 0.0,
			"-0.024": 0.0,
			"-0.023": 0.0,
			"-0.022": 0.0,
			"-0.021": 0.0,
			"-0.02": 0.0,
			"-0.019": 0.0,
			"-0.018": 0.0,
			"-0.017": 0.0,
			"-0.016": 0.0,
			"-0.015": 0.0,
			"-0.014": 0.0,
			"-0.013": 0.408733909687,
			"-0.012": 1.09952074888,
			"-0.011": 0.697738774004,
			"-0.01": 0.880518563805,
			"-0.009": 0.868009116784,
			"-0.008": 6.65758669951,
			"-0.007": 11.1452100696,
			"-0.006": 11.39653261,
			"-0.005": 14.7262111901,
			"-0.004": 15.6786004457,
			"-0.003": 16.1128496609,
			"-0.002": 20.4222560921,
			"-0.001": 21.4989806796,
			"0.0": 23.9113289802,
			"0.001": 26.958107654,
			"0.002": 21.1365584058,
			"0.003": 15.6842729297,
			"0.004": 18.1163829489,
			"0.005": 5.85494752328,
			"0.006": 2.98990286521,
			"0.007": 2.20696208735,
			"0.008": 3.12048221175,
			"0.009": 2.51691402745,
			"0.01": 4.51006354095,
			"0.011": 4.09066844406,
			"0.012": 5.42368611883,
			"0.013": 2.4156511104,
			"0.014": 0.0246188304091,
			"0.015": 0.0,
			"0.016": 0.0,
			"0.017": 0.0,
			"0.018": 0.0,
			"0.019": 0.0,
			"0.02": 0.0,
			"0.021": 0.0,
			"0.022": 0.0,
			"0.023": 0.0,
			"0.024": 0.0,
			"0.025": 0.0
		}
	}
}
