{
	 "smiles": "CCCCC1=CC=C(NC(=S)NN)C=C1", 
	 "Tm": 399.15, 
	 "num_atms": 32, 
	 "gaussian": { 
		 "optdone": 1, 
		 "sigma_profile": "yes", 
		 "theory": "DFT", 
		 "functional": "B3LYP", 
		 "basiset": "6-31G**", 
		 "properties": { 
			 "R2extent": 6854.9731, 
			 "electric_dipole_moment_norm": 5.49184147805, 
			 "electric_quadrupole_moment_norm": 28.6618279213, 
			 "total_energy": -991.853173911, 
			 "HOMO_LUMO_gap": 0.16938, 
			 "cosmo_polarized_energy": -15.77, 
			 "cosmo_cavitation_energy": 36.23, 
			 "cosmo_dispersion_energy": -25.89, 
			 "cosmo_repulsion_energy": 2.04, 
			 "cosmo_total_nonelectrostatic_energy": 12.37, 
			 "SMD_solvation_energy": 5.12 
		},
		"coords": [
			{
				"x": -2.5948963993,
				"y": 1.7763075092,
				"z": -2.8437444812,
				"element": "C" 
			},
			{
				"x": -2.2038511937,
				"y": 0.5291419465,
				"z": -2.0445099433,
				"element": "C" 
			},
			{
				"x": -0.8695868874,
				"y": -0.0755100067,
				"z": -2.4977390797,
				"element": "C" 
			},
			{
				"x": -0.4468006664,
				"y": -1.3420115509,
				"z": -1.7204206345,
				"element": "C" 
			},
			{
				"x": -0.1349625124,
				"y": -1.0986855773,
				"z": -0.2583920804,
				"element": "C" 
			},
			{
				"x": 1.0648974842,
				"y": -0.4839803826,
				"z": 0.1273780723,
				"element": "C" 
			},
			{
				"x": 1.3622663632,
				"y": -0.2272885312,
				"z": 1.4648547301,
				"element": "C" 
			},
			{
				"x": 0.4595452336,
				"y": -0.6116383673,
				"z": 2.4678788167,
				"element": "C" 
			},
			{
				"x": 0.6832454537,
				"y": -0.3504607307,
				"z": 3.8467730675,
				"element": "N" 
			},
			{
				"x": 1.8598102942,
				"y": -0.0603516248,
				"z": 4.4976374962,
				"element": "C" 
			},
			{
				"x": 1.8965273232,
				"y": 0.9850676725,
				"z": 5.8093824147,
				"element": "S" 
			},
			{
				"x": 2.997040447,
				"y": -0.6805124249,
				"z": 4.0522531355,
				"element": "N" 
			},
			{
				"x": 3.0401077375,
				"y": -1.9618306823,
				"z": 3.4598483114,
				"element": "N" 
			},
			{
				"x": -0.7429225193,
				"y": -1.2275324315,
				"z": 2.0994564504,
				"element": "C" 
			},
			{
				"x": -1.0324140881,
				"y": -1.4578321085,
				"z": 0.7560259181,
				"element": "C" 
			},
			{
				"x": -1.8419111753,
				"y": 2.5657028073,
				"z": -2.7389627634,
				"element": "H" 
			},
			{
				"x": -2.6898355577,
				"y": 1.5509555777,
				"z": -3.9122074148,
				"element": "H" 
			},
			{
				"x": -3.552285519,
				"y": 2.184389481,
				"z": -2.5039772056,
				"element": "H" 
			},
			{
				"x": -2.9932322393,
				"y": -0.2296425798,
				"z": -2.1396353424,
				"element": "H" 
			},
			{
				"x": -2.1485380275,
				"y": 0.7796707397,
				"z": -0.9779707343,
				"element": "H" 
			},
			{
				"x": -0.9321798347,
				"y": -0.3299114393,
				"z": -3.564322125,
				"element": "H" 
			},
			{
				"x": -0.0782015134,
				"y": 0.6813918675,
				"z": -2.4098855231,
				"element": "H" 
			},
			{
				"x": -1.2409614967,
				"y": -2.094384887,
				"z": -1.8025927512,
				"element": "H" 
			},
			{
				"x": 0.4367624266,
				"y": -1.7713946892,
				"z": -2.2090346891,
				"element": "H" 
			},
			{
				"x": 1.7812091143,
				"y": -0.1856728459,
				"z": -0.6344633919,
				"element": "H" 
			},
			{
				"x": 2.2814773707,
				"y": 0.2839440366,
				"z": 1.7328505429,
				"element": "H" 
			},
			{
				"x": -0.1137534163,
				"y": 0.0222694142,
				"z": 4.3466723824,
				"element": "H" 
			},
			{
				"x": 3.8098684907,
				"y": -0.4709733967,
				"z": 4.6167567217,
				"element": "H" 
			},
			{
				"x": 2.3297343344,
				"y": -2.555979973,
				"z": 3.8852038526,
				"element": "H" 
			},
			{
				"x": 2.8193900425,
				"y": -1.8809761825,
				"z": 2.4696073154,
				"element": "H" 
			},
			{
				"x": -1.4459504419,
				"y": -1.5316107822,
				"z": 2.8703266945,
				"element": "H" 
			},
			{
				"x": -1.9707986275,
				"y": -1.9390598578,
				"z": 0.4928522377,
				"element": "H" 
			}
		],
		 "valence_orbital": [ 
			{
				"type": "occ",
				"energy": -0.28198,
				"method": "rhf"
			},
			{
				"type": "occ",
				"energy": -0.26621,
				"method": "rhf"
			},
			{
				"type": "occ",
				"energy": -0.24118,
				"method": "rhf"
			},
			{
				"type": "occ",
				"energy": -0.21928,
				"method": "rhf"
			},
			{
				"type": "occ",
				"energy": -0.20516,
				"method": "rhf"
			},
			{
				"type": "unocc",
				"energy": -0.03578,
				"method": "rhf"
			},
			{
				"type": "unocc",
				"energy": -0.02125,
				"method": "rhf"
			},
			{
				"type": "unocc",
				"energy": 0.00668,
				"method": "rhf"
			},
			{
				"type": "unocc",
				"energy": 0.06871,
				"method": "rhf"
			},
			{
				"type": "unocc",
				"energy": 0.08303,
				"method": "rhf"
			}
		],
		"cosmo_sigma_profile": { 
			"-0.025": 0.0,
			"-0.024": 0.0,
			"-0.023": 0.0,
			"-0.022": 0.0,
			"-0.021": 0.0,
			"-0.02": 0.0,
			"-0.019": 0.0,
			"-0.018": 0.0,
			"-0.017": 0.0,
			"-0.016": 0.0,
			"-0.015": 0.16234928498,
			"-0.014": 1.29861213275,
			"-0.013": 1.21189289365,
			"-0.012": 2.718154813,
			"-0.011": 2.59361591201,
			"-0.01": 3.91325780064,
			"-0.009": 3.96868192919,
			"-0.008": 4.44065761799,
			"-0.007": 4.6045709223,
			"-0.006": 8.51490628529,
			"-0.005": 12.0108505477,
			"-0.004": 14.3669086479,
			"-0.003": 20.4214578344,
			"-0.002": 27.0847291407,
			"-0.001": 30.0812637216,
			"0.0": 31.1277688903,
			"0.001": 32.7398622031,
			"0.002": 17.5386956225,
			"0.003": 10.462515476,
			"0.004": 10.7442718566,
			"0.005": 8.6218077273,
			"0.006": 3.29769126627,
			"0.007": 3.80330174553,
			"0.008": 4.61738101847,
			"0.009": 5.91363562532,
			"0.01": 7.69108505421,
			"0.011": 6.79447884397,
			"0.012": 3.44470603463,
			"0.013": 1.13666817439,
			"0.014": 0.738202913839,
			"0.015": 0.425254865346,
			"0.016": 0.238575602151,
			"0.017": 0.0,
			"0.018": 0.0,
			"0.019": 0.0,
			"0.02": 0.0,
			"0.021": 0.0,
			"0.022": 0.0,
			"0.023": 0.0,
			"0.024": 0.0,
			"0.025": 0.0
		}
	}
}
