{
	 "smiles": "CC(C)(C)NS(=O)(=O)C1=C(F)C=C(F)C(N)=C1", 
	 "Tm": 383.15, 
	 "num_atms": 31, 
	 "gaussian": { 
		 "optdone": 1, 
		 "sigma_profile": "yes", 
		 "theory": "DFT", 
		 "functional": "B3LYP", 
		 "basiset": "6-31G**", 
		 "properties": { 
			 "R2extent": 5833.6271, 
			 "electric_dipole_moment_norm": 6.20559949481, 
			 "electric_quadrupole_moment_norm": 11.5098957159, 
			 "total_energy": -1247.24427607, 
			 "HOMO_LUMO_gap": 0.18747, 
			 "cosmo_polarized_energy": -18.63, 
			 "cosmo_cavitation_energy": 35.49, 
			 "cosmo_dispersion_energy": -24.71, 
			 "cosmo_repulsion_energy": 1.82, 
			 "cosmo_total_nonelectrostatic_energy": 12.61, 
			 "SMD_solvation_energy": 6.41 
		},
		"coords": [
			{
				"x": -1.058164513,
				"y": 1.4565734094,
				"z": -2.1427885882,
				"element": "C" 
			},
			{
				"x": -0.4665988548,
				"y": 1.9474159402,
				"z": -0.8097947287,
				"element": "C" 
			},
			{
				"x": -1.5930347623,
				"y": 2.1333972409,
				"z": 0.2178360261,
				"element": "C" 
			},
			{
				"x": 0.2985071314,
				"y": 3.2659200291,
				"z": -1.0307544636,
				"element": "C" 
			},
			{
				"x": 0.4493599407,
				"y": 0.8428343652,
				"z": -0.3738705008,
				"element": "N" 
			},
			{
				"x": 1.293624516,
				"y": 0.831505406,
				"z": 1.0864412516,
				"element": "S" 
			},
			{
				"x": 1.1558119271,
				"y": 2.1136810108,
				"z": 1.7832533648,
				"element": "O" 
			},
			{
				"x": 2.6172587513,
				"y": 0.2891038271,
				"z": 0.7631578979,
				"element": "O" 
			},
			{
				"x": 0.4086392929,
				"y": -0.3999764398,
				"z": 2.0562843363,
				"element": "C" 
			},
			{
				"x": 0.7248766219,
				"y": -0.5331137927,
				"z": 3.4095491317,
				"element": "C" 
			},
			{
				"x": 1.6472374478,
				"y": 0.2607613072,
				"z": 3.9767995007,
				"element": "F" 
			},
			{
				"x": 0.09680937,
				"y": -1.4933814639,
				"z": 4.194421435,
				"element": "C" 
			},
			{
				"x": -0.8384623993,
				"y": -2.3209419477,
				"z": 3.5977621365,
				"element": "C" 
			},
			{
				"x": -1.4751356756,
				"y": -3.2528856032,
				"z": 4.3446386029,
				"element": "F" 
			},
			{
				"x": -1.1793201733,
				"y": -2.241662648,
				"z": 2.2387713564,
				"element": "C" 
			},
			{
				"x": -2.0788066008,
				"y": -3.1532270198,
				"z": 1.6930546569,
				"element": "N" 
			},
			{
				"x": -0.5294377524,
				"y": -1.2605687124,
				"z": 1.4791253772,
				"element": "C" 
			},
			{
				"x": -1.6095482461,
				"y": 0.5210331827,
				"z": -2.009395362,
				"element": "H" 
			},
			{
				"x": -0.2729454956,
				"y": 1.2892797017,
				"z": -2.8892995557,
				"element": "H" 
			},
			{
				"x": -1.7429261849,
				"y": 2.2082454567,
				"z": -2.5468949083,
				"element": "H" 
			},
			{
				"x": -2.3057167946,
				"y": 2.8739759964,
				"z": -0.1576145878,
				"element": "H" 
			},
			{
				"x": -1.2054107216,
				"y": 2.4885364432,
				"z": 1.1742672084,
				"element": "H" 
			},
			{
				"x": -2.1317494225,
				"y": 1.1952454441,
				"z": 0.3821311348,
				"element": "H" 
			},
			{
				"x": -0.3791681961,
				"y": 4.0387496322,
				"z": -1.4091084213,
				"element": "H" 
			},
			{
				"x": 1.097339312,
				"y": 3.1308540916,
				"z": -1.7687517093,
				"element": "H" 
			},
			{
				"x": 0.7443080564,
				"y": 3.6165911849,
				"z": -0.0986520147,
				"element": "H" 
			},
			{
				"x": 1.1297176738,
				"y": 0.5934629833,
				"z": -1.0881037121,
				"element": "H" 
			},
			{
				"x": 0.333564318,
				"y": -1.5898795625,
				"z": 5.2470581558,
				"element": "H" 
			},
			{
				"x": -2.5837011141,
				"y": -2.8296152116,
				"z": 0.8804073277,
				"element": "H" 
			},
			{
				"x": -2.6768188365,
				"y": -3.6034883858,
				"z": 2.371895119,
				"element": "H" 
			},
			{
				"x": -0.7469086159,
				"y": -1.1570258655,
				"z": 0.4223745328,
				"element": "H" 
			}
		],
		 "valence_orbital": [ 
			{
				"type": "occ",
				"energy": -0.30592,
				"method": "rhf"
			},
			{
				"type": "occ",
				"energy": -0.29917,
				"method": "rhf"
			},
			{
				"type": "occ",
				"energy": -0.27231,
				"method": "rhf"
			},
			{
				"type": "occ",
				"energy": -0.26503,
				"method": "rhf"
			},
			{
				"type": "occ",
				"energy": -0.21932,
				"method": "rhf"
			},
			{
				"type": "unocc",
				"energy": -0.03185,
				"method": "rhf"
			},
			{
				"type": "unocc",
				"energy": -0.00759,
				"method": "rhf"
			},
			{
				"type": "unocc",
				"energy": 0.04441,
				"method": "rhf"
			},
			{
				"type": "unocc",
				"energy": 0.0612,
				"method": "rhf"
			},
			{
				"type": "unocc",
				"energy": 0.06447,
				"method": "rhf"
			}
		],
		"cosmo_sigma_profile": { 
			"-0.025": 0.0,
			"-0.024": 0.0,
			"-0.023": 0.0,
			"-0.022": 0.0,
			"-0.021": 0.0,
			"-0.02": 0.0,
			"-0.019": 0.0,
			"-0.018": 0.0,
			"-0.017": 0.0,
			"-0.016": 0.0,
			"-0.015": 0.0,
			"-0.014": 0.310550655373,
			"-0.013": 2.66621879684,
			"-0.012": 3.42254609887,
			"-0.011": 3.28698818753,
			"-0.01": 4.23204468278,
			"-0.009": 5.98035897616,
			"-0.008": 5.06618827969,
			"-0.007": 5.0757972272,
			"-0.006": 4.95612495026,
			"-0.005": 6.62385108101,
			"-0.004": 15.8295468823,
			"-0.003": 20.8542556751,
			"-0.002": 20.4145220036,
			"-0.001": 25.5281695328,
			"0.0": 41.4074543757,
			"0.001": 29.6824255313,
			"0.002": 11.4900206261,
			"0.003": 16.8607899725,
			"0.004": 12.1847210791,
			"0.005": 5.16123061553,
			"0.006": 3.82217870964,
			"0.007": 4.00336783112,
			"0.008": 4.99398762007,
			"0.009": 4.52986678166,
			"0.01": 7.55266832966,
			"0.011": 10.5390458039,
			"0.012": 2.89462679378,
			"0.013": 0.398626536249,
			"0.014": 0.0958188321672,
			"0.015": 0.0,
			"0.016": 0.0,
			"0.017": 0.0,
			"0.018": 0.0,
			"0.019": 0.0,
			"0.02": 0.0,
			"0.021": 0.0,
			"0.022": 0.0,
			"0.023": 0.0,
			"0.024": 0.0,
			"0.025": 0.0
		}
	}
}
