{
	 "smiles": "CCCNC(=O)C1=C(N)C=CC=C1", 
	 "Tm": 480.15, 
	 "num_atms": 27, 
	 "gaussian": { 
		 "optdone": 1, 
		 "sigma_profile": "yes", 
		 "theory": "DFT", 
		 "functional": "B3LYP", 
		 "basiset": "6-31G**", 
		 "properties": { 
			 "R2extent": 3879.0061, 
			 "electric_dipole_moment_norm": 1.60379317869, 
			 "electric_quadrupole_moment_norm": 10.8005851508, 
			 "total_energy": -574.266582579, 
			 "HOMO_LUMO_gap": 0.17109, 
			 "cosmo_polarized_energy": -11.85, 
			 "cosmo_cavitation_energy": 29.49, 
			 "cosmo_dispersion_energy": -21.48, 
			 "cosmo_repulsion_energy": 1.72, 
			 "cosmo_total_nonelectrostatic_energy": 9.73, 
			 "SMD_solvation_energy": 4.78 
		},
		"coords": [
			{
				"x": 0.9160918823,
				"y": 4.1583806591,
				"z": -1.5910403122,
				"element": "C" 
			},
			{
				"x": -0.0054678424,
				"y": 3.3082581487,
				"z": -2.4699545548,
				"element": "C" 
			},
			{
				"x": 0.0533194791,
				"y": 1.8034201428,
				"z": -2.1640092929,
				"element": "C" 
			},
			{
				"x": -0.3901370628,
				"y": 1.4596461872,
				"z": -0.8191719618,
				"element": "N" 
			},
			{
				"x": 0.4770216969,
				"y": 1.1154872974,
				"z": 0.1831940108,
				"element": "C" 
			},
			{
				"x": 1.6995971561,
				"y": 1.0703711374,
				"z": -0.0188115413,
				"element": "O" 
			},
			{
				"x": -0.1334908221,
				"y": 0.8004838106,
				"z": 1.5099405214,
				"element": "C" 
			},
			{
				"x": 0.6542191292,
				"y": 0.9003712203,
				"z": 2.6940290304,
				"element": "C" 
			},
			{
				"x": 1.9625128737,
				"y": 1.3151861991,
				"z": 2.6554503833,
				"element": "N" 
			},
			{
				"x": 0.0391080207,
				"y": 0.6110901353,
				"z": 3.9326824864,
				"element": "C" 
			},
			{
				"x": -1.2861131964,
				"y": 0.2116329657,
				"z": 4.0055033342,
				"element": "C" 
			},
			{
				"x": -2.0550183496,
				"y": 0.0782686331,
				"z": 2.8427762146,
				"element": "C" 
			},
			{
				"x": -1.4687087475,
				"y": 0.3729943681,
				"z": 1.6185137561,
				"element": "C" 
			},
			{
				"x": 1.9593687883,
				"y": 3.8433018251,
				"z": -1.6930201637,
				"element": "H" 
			},
			{
				"x": 0.8507170139,
				"y": 5.2165742867,
				"z": -1.8639659298,
				"element": "H" 
			},
			{
				"x": 0.6497528975,
				"y": 4.0688691545,
				"z": -0.5335359687,
				"element": "H" 
			},
			{
				"x": -1.0430150159,
				"y": 3.6577833174,
				"z": -2.370588266,
				"element": "H" 
			},
			{
				"x": 0.2575783934,
				"y": 3.4415250855,
				"z": -3.5274954329,
				"element": "H" 
			},
			{
				"x": -0.5626000617,
				"y": 1.2546165557,
				"z": -2.8878007117,
				"element": "H" 
			},
			{
				"x": 1.0789058406,
				"y": 1.4378008557,
				"z": -2.2498067981,
				"element": "H" 
			},
			{
				"x": -1.3467433739,
				"y": 1.6598016455,
				"z": -0.570930702,
				"element": "H" 
			},
			{
				"x": 2.4100243462,
				"y": 1.2343282633,
				"z": 1.7483230712,
				"element": "H" 
			},
			{
				"x": 2.524426575,
				"y": 1.132617042,
				"z": 3.4721993924,
				"element": "H" 
			},
			{
				"x": 0.6316597145,
				"y": 0.7025575017,
				"z": 4.8398156153,
				"element": "H" 
			},
			{
				"x": -1.7222669787,
				"y": -0.0114243955,
				"z": 4.9755270632,
				"element": "H" 
			},
			{
				"x": -3.0847783219,
				"y": -0.2596892689,
				"z": 2.8930360357,
				"element": "H" 
			},
			{
				"x": -2.0506640348,
				"y": 0.2266472262,
				"z": 0.7127407208,
				"element": "H" 
			}
		],
		 "valence_orbital": [ 
			{
				"type": "occ",
				"energy": -0.30715,
				"method": "rhf"
			},
			{
				"type": "occ",
				"energy": -0.2565,
				"method": "rhf"
			},
			{
				"type": "occ",
				"energy": -0.2461,
				"method": "rhf"
			},
			{
				"type": "occ",
				"energy": -0.24468,
				"method": "rhf"
			},
			{
				"type": "occ",
				"energy": -0.19714,
				"method": "rhf"
			},
			{
				"type": "unocc",
				"energy": -0.02605,
				"method": "rhf"
			},
			{
				"type": "unocc",
				"energy": 0.0153,
				"method": "rhf"
			},
			{
				"type": "unocc",
				"energy": 0.06434,
				"method": "rhf"
			},
			{
				"type": "unocc",
				"energy": 0.08244,
				"method": "rhf"
			},
			{
				"type": "unocc",
				"energy": 0.10043,
				"method": "rhf"
			}
		],
		"cosmo_sigma_profile": { 
			"-0.025": 0.0,
			"-0.024": 0.0,
			"-0.023": 0.0,
			"-0.022": 0.0,
			"-0.021": 0.0,
			"-0.02": 0.0,
			"-0.019": 0.0,
			"-0.018": 0.0,
			"-0.017": 0.0,
			"-0.016": 0.0,
			"-0.015": 0.0,
			"-0.014": 0.298169648617,
			"-0.013": 1.05735433327,
			"-0.012": 2.63868830787,
			"-0.011": 2.17781698184,
			"-0.01": 2.67061581573,
			"-0.009": 3.2369902905,
			"-0.008": 3.44662235585,
			"-0.007": 3.59924480408,
			"-0.006": 6.64599886606,
			"-0.005": 9.73319431072,
			"-0.004": 13.1963729132,
			"-0.003": 19.9795023472,
			"-0.002": 22.6645009319,
			"-0.001": 23.3978644386,
			"0.0": 19.2508543324,
			"0.001": 18.6199453945,
			"0.002": 12.9320013649,
			"0.003": 11.0606919603,
			"0.004": 12.1610410624,
			"0.005": 12.9821710558,
			"0.006": 11.7117204598,
			"0.007": 3.21553872845,
			"0.008": 2.59733754665,
			"0.009": 2.71535765257,
			"0.01": 2.07566697886,
			"0.011": 2.59760635189,
			"0.012": 1.82566308029,
			"0.013": 2.60030640204,
			"0.014": 1.10466731158,
			"0.015": 0.0,
			"0.016": 0.0,
			"0.017": 0.0,
			"0.018": 0.0,
			"0.019": 0.0,
			"0.02": 0.0,
			"0.021": 0.0,
			"0.022": 0.0,
			"0.023": 0.0,
			"0.024": 0.0,
			"0.025": 0.0
		}
	}
}
