{
	 "smiles": "NC1=C(I)C=C(C=C1)C(F)(F)F", 
	 "Tm": 324.15, 
	 "num_atms": 17, 
	 "gaussian": { 
		 "optdone": 1, 
		 "sigma_profile": "no", 
		 "theory": "DFT", 
		 "functional": "B3LYP", 
		 "basiset": "6-31G**", 
		 "properties": { 
			 "R2extent": 3841.6433, 
			 "electric_dipole_moment_norm": 3.99393276108, 
			 "electric_quadrupole_moment_norm": 11.2858983103, 
			 "total_energy": -635.42850553, 
			 "HOMO_LUMO_gap": 0.17892, 
			 "cosmo_polarized_energy": -86403.44, 
			 "cosmo_cavitation_energy": 25.63, 
			 "cosmo_dispersion_energy": -19.91, 
			 "cosmo_repulsion_energy": 1.5, 
			 "cosmo_total_nonelectrostatic_energy": 7.22, 
			 "SMD_solvation_energy": 4.63 
		},
		"coords": [
			{
				"x": -2.9893977869,
				"y": 0.1842750512,
				"z": 0.0996660337,
				"element": "N" 
			},
			{
				"x": -1.9281148317,
				"y": 0.2486706677,
				"z": -0.775505255,
				"element": "C" 
			},
			{
				"x": -0.9550209963,
				"y": -0.7696123996,
				"z": -0.8787481213,
				"element": "C" 
			},
			{
				"x": -1.0364402258,
				"y": -2.4612044378,
				"z": 0.4039361128,
				"element": "I" 
			},
			{
				"x": 0.0761332466,
				"y": -0.6984007284,
				"z": -1.810446666,
				"element": "C" 
			},
			{
				"x": 0.1681878939,
				"y": 0.3944671131,
				"z": -2.6731937222,
				"element": "C" 
			},
			{
				"x": -0.7833920149,
				"y": 1.4168114731,
				"z": -2.5893864392,
				"element": "C" 
			},
			{
				"x": -1.8078677227,
				"y": 1.3433275159,
				"z": -1.6605652823,
				"element": "C" 
			},
			{
				"x": 1.3133690064,
				"y": 0.5029878709,
				"z": -3.6354735983,
				"element": "C" 
			},
			{
				"x": 2.3424106025,
				"y": 1.2221634732,
				"z": -3.1236258524,
				"element": "F" 
			},
			{
				"x": 1.8137211779,
				"y": -0.7085218071,
				"z": -3.9670814408,
				"element": "F" 
			},
			{
				"x": 0.9461322816,
				"y": 1.1215274343,
				"z": -4.7817093965,
				"element": "F" 
			},
			{
				"x": -2.9125813659,
				"y": -0.4504051801,
				"z": 0.8814151794,
				"element": "H" 
			},
			{
				"x": -3.4635141132,
				"y": 1.0505721987,
				"z": 0.3046643247,
				"element": "H" 
			},
			{
				"x": 0.8075492834,
				"y": -1.4948857014,
				"z": -1.8726433174,
				"element": "H" 
			},
			{
				"x": -0.7233170215,
				"y": 2.2672717186,
				"z": -3.2600381737,
				"element": "H" 
			},
			{
				"x": -2.5495574132,
				"y": 2.1359557377,
				"z": -1.6084643857,
				"element": "H" 
			}
		],
		 "valence_orbital": [ 
			{
				"type": "occ",
				"energy": -0.33324,
				"method": "rhf"
			},
			{
				"type": "occ",
				"energy": -0.30493,
				"method": "rhf"
			},
			{
				"type": "occ",
				"energy": -0.28055,
				"method": "rhf"
			},
			{
				"type": "occ",
				"energy": -0.25481,
				"method": "rhf"
			},
			{
				"type": "occ",
				"energy": -0.22438,
				"method": "rhf"
			},
			{
				"type": "unocc",
				"energy": -0.04546,
				"method": "rhf"
			},
			{
				"type": "unocc",
				"energy": -0.02465,
				"method": "rhf"
			},
			{
				"type": "unocc",
				"energy": -0.0174,
				"method": "rhf"
			},
			{
				"type": "unocc",
				"energy": 0.0328,
				"method": "rhf"
			},
			{
				"type": "unocc",
				"energy": 0.0474,
				"method": "rhf"
			}
		],
		"cosmo_sigma_profile": { 
			"0.0": 0.0,
			"0.0": 0.0,
			"0.0": 0.0,
			"0.0": 0.0,
			"0.0": 0.0,
			"0.0": 0.0,
			"0.0": 0.0,
			"0.0": 0.0,
			"0.0": 0.0,
			"0.0": 0.0,
			"0.0": 0.0,
			"0.0": 0.0,
			"0.0": 0.0,
			"0.0": 0.0,
			"0.0": 0.0,
			"0.0": 0.0,
			"0.0": 0.0,
			"0.0": 0.0,
			"0.0": 0.0,
			"0.0": 0.0,
			"0.0": 0.0,
			"0.0": 0.0,
			"0.0": 0.0,
			"0.0": 0.0,
			"0.0": 0.0,
			"0.0": 0.0,
			"0.0": 0.0,
			"0.0": 0.0,
			"0.0": 0.0,
			"0.0": 0.0,
			"0.0": 0.0,
			"0.0": 0.0,
			"0.0": 0.0,
			"0.0": 0.0,
			"0.0": 0.0,
			"0.0": 0.0,
			"0.0": 0.0,
			"0.0": 0.0,
			"0.0": 0.0,
			"0.0": 0.0,
			"0.0": 0.0,
			"0.0": 0.0,
			"0.0": 0.0,
			"0.0": 0.0,
			"0.0": 0.0,
			"0.0": 0.0,
			"0.0": 0.0,
			"0.0": 0.0,
			"0.0": 0.0,
			"0.0": 0.0,
			"0.0": 0.0
		}
	}
}
