{
	 "smiles": "ClC1=NN=C(S1)C1=CC=CC=C1", 
	 "Tm": 356.15, 
	 "num_atms": 17, 
	 "gaussian": { 
		 "optdone": 1, 
		 "sigma_profile": "yes", 
		 "theory": "DFT", 
		 "functional": "B3LYP", 
		 "basiset": "6-31G**", 
		 "properties": { 
			 "R2extent": 4576.3116, 
			 "electric_dipole_moment_norm": 3.81365045068, 
			 "electric_quadrupole_moment_norm": 9.65615459383, 
			 "total_energy": -1275.70975334, 
			 "HOMO_LUMO_gap": 0.17403, 
			 "cosmo_polarized_energy": -8.08, 
			 "cosmo_cavitation_energy": 25.32, 
			 "cosmo_dispersion_energy": -19.68, 
			 "cosmo_repulsion_energy": 1.5, 
			 "cosmo_total_nonelectrostatic_energy": 7.14, 
			 "SMD_solvation_energy": 2.03 
		},
		"coords": [
			{
				"x": 3.2751425303,
				"y": -2.5442654068,
				"z": -1.2703039424,
				"element": "Cl" 
			},
			{
				"x": 2.2098201027,
				"y": -1.6136361554,
				"z": -0.2873709944,
				"element": "C" 
			},
			{
				"x": 1.7881061132,
				"y": -0.4338999336,
				"z": -0.6178413538,
				"element": "N" 
			},
			{
				"x": 0.956460463,
				"y": 0.096070455,
				"z": 0.3240486293,
				"element": "N" 
			},
			{
				"x": 0.7515370396,
				"y": -0.679065107,
				"z": 1.3594578442,
				"element": "C" 
			},
			{
				"x": 1.6193616397,
				"y": -2.2131762999,
				"z": 1.2470275941,
				"element": "S" 
			},
			{
				"x": -0.1074902362,
				"y": -0.3103389214,
				"z": 2.4907326933,
				"element": "C" 
			},
			{
				"x": -0.3016648805,
				"y": -1.1688513581,
				"z": 3.5841762595,
				"element": "C" 
			},
			{
				"x": -1.1240347761,
				"y": -0.7876838984,
				"z": 4.6421817643,
				"element": "C" 
			},
			{
				"x": -1.7619675823,
				"y": 0.4539463674,
				"z": 4.6215349919,
				"element": "C" 
			},
			{
				"x": -1.5731145577,
				"y": 1.3139154413,
				"z": 3.5358390426,
				"element": "C" 
			},
			{
				"x": -0.7531980106,
				"y": 0.9393547487,
				"z": 2.4761536992,
				"element": "C" 
			},
			{
				"x": 0.1887747412,
				"y": -2.1381805294,
				"z": 3.6132886805,
				"element": "H" 
			},
			{
				"x": -1.265936247,
				"y": -1.4609385699,
				"z": 5.4820906097,
				"element": "H" 
			},
			{
				"x": -2.4028222499,
				"y": 0.7502414248,
				"z": 5.4466550426,
				"element": "H" 
			},
			{
				"x": -2.0672122916,
				"y": 2.2807160467,
				"z": 3.515283751,
				"element": "H" 
			},
			{
				"x": -0.5986617977,
				"y": 1.5972916959,
				"z": 1.6284456883,
				"element": "H" 
			}
		],
		 "valence_orbital": [ 
			{
				"type": "occ",
				"energy": -0.31489,
				"method": "rhf"
			},
			{
				"type": "occ",
				"energy": -0.2981,
				"method": "rhf"
			},
			{
				"type": "occ",
				"energy": -0.27638,
				"method": "rhf"
			},
			{
				"type": "occ",
				"energy": -0.26838,
				"method": "rhf"
			},
			{
				"type": "occ",
				"energy": -0.246,
				"method": "rhf"
			},
			{
				"type": "unocc",
				"energy": -0.07197,
				"method": "rhf"
			},
			{
				"type": "unocc",
				"energy": -0.0199,
				"method": "rhf"
			},
			{
				"type": "unocc",
				"energy": -0.01643,
				"method": "rhf"
			},
			{
				"type": "unocc",
				"energy": -0.00907,
				"method": "rhf"
			},
			{
				"type": "unocc",
				"energy": 0.01194,
				"method": "rhf"
			}
		],
		"cosmo_sigma_profile": { 
			"-0.025": 0.0,
			"-0.024": 0.0,
			"-0.023": 0.0,
			"-0.022": 0.0,
			"-0.021": 0.0,
			"-0.02": 0.0,
			"-0.019": 0.0,
			"-0.018": 0.0,
			"-0.017": 0.0,
			"-0.016": 0.0,
			"-0.015": 0.0,
			"-0.014": 0.0,
			"-0.013": 0.0,
			"-0.012": 0.0,
			"-0.011": 0.0,
			"-0.01": 0.0,
			"-0.009": 0.0536169782396,
			"-0.008": 1.53059315234,
			"-0.007": 4.46882866339,
			"-0.006": 10.084884092,
			"-0.005": 13.0772140514,
			"-0.004": 18.5150918486,
			"-0.003": 18.1156808748,
			"-0.002": 18.3843115079,
			"-0.001": 16.9057114564,
			"0.0": 18.6264189089,
			"0.001": 18.3341490303,
			"0.002": 20.7859489202,
			"0.003": 16.0948302458,
			"0.004": 13.2757991617,
			"0.005": 2.46312124266,
			"0.006": 2.61255117387,
			"0.007": 2.19405464024,
			"0.008": 2.32669482763,
			"0.009": 2.73393663825,
			"0.01": 3.50621474259,
			"0.011": 2.64470487845,
			"0.012": 2.07532914737,
			"0.013": 0.802618238713,
			"0.014": 0.104915946199,
			"0.015": 0.0,
			"0.016": 0.0,
			"0.017": 0.0,
			"0.018": 0.0,
			"0.019": 0.0,
			"0.02": 0.0,
			"0.021": 0.0,
			"0.022": 0.0,
			"0.023": 0.0,
			"0.024": 0.0,
			"0.025": 0.0
		}
	}
}
