{
	 "smiles": "CCOC(=O)CCC(C)C1CCC2C3C(CC(O)C12C)C1(C)CCC(O)CC1CC3=O", 
	 "Tm": 434.15, 
	 "num_atms": 73, 
	 "gaussian": { 
		 "optdone": 1, 
		 "sigma_profile": "yes", 
		 "theory": "DFT", 
		 "functional": "B3LYP", 
		 "basiset": "6-31G**", 
		 "properties": { 
			 "R2extent": 18565.2952, 
			 "electric_dipole_moment_norm": 3.11161597084, 
			 "electric_quadrupole_moment_norm": 11.5765985544, 
			 "total_energy": -1392.20129188, 
			 "HOMO_LUMO_gap": 0.21791, 
			 "cosmo_polarized_energy": -22.26, 
			 "cosmo_cavitation_energy": 63.15, 
			 "cosmo_dispersion_energy": -42.06, 
			 "cosmo_repulsion_energy": 3.11, 
			 "cosmo_total_nonelectrostatic_energy": 24.2, 
			 "SMD_solvation_energy": 10.45 
		},
		"coords": [
			{
				"x": -6.2460249309,
				"y": 2.7559754904,
				"z": 2.9696650393,
				"element": "C" 
			},
			{
				"x": -6.5575200091,
				"y": 1.3456101362,
				"z": 3.448074121,
				"element": "C" 
			},
			{
				"x": -5.3627653499,
				"y": 0.5298054836,
				"z": 3.4952109847,
				"element": "O" 
			},
			{
				"x": -5.0049550277,
				"y": -0.0862954639,
				"z": 2.3435302637,
				"element": "C" 
			},
			{
				"x": -5.6183061556,
				"y": 0.0242882889,
				"z": 1.302274336,
				"element": "O" 
			},
			{
				"x": -3.7737976599,
				"y": -0.9493726154,
				"z": 2.5510847289,
				"element": "C" 
			},
			{
				"x": -2.9785692688,
				"y": -1.1553474004,
				"z": 1.2551042914,
				"element": "C" 
			},
			{
				"x": -1.9299142737,
				"y": -2.2828926098,
				"z": 1.3452607381,
				"element": "C" 
			},
			{
				"x": -0.8383210578,
				"y": -2.0003277027,
				"z": 2.3922223113,
				"element": "C" 
			},
			{
				"x": -1.4777420187,
				"y": -2.8364168773,
				"z": -0.0517507669,
				"element": "C" 
			},
			{
				"x": -0.6595807781,
				"y": -4.1463486527,
				"z": 0.1166270238,
				"element": "C" 
			},
			{
				"x": 0.8085470217,
				"y": -3.7366889119,
				"z": -0.0270637697,
				"element": "C" 
			},
			{
				"x": 0.8006199033,
				"y": -2.7180189842,
				"z": -1.1846996342,
				"element": "C" 
			},
			{
				"x": 1.9602166784,
				"y": -1.6838174646,
				"z": -1.1577956379,
				"element": "C" 
			},
			{
				"x": 1.7873620875,
				"y": -0.6265835198,
				"z": -0.0489765343,
				"element": "C" 
			},
			{
				"x": 0.4364136138,
				"y": 0.1201953095,
				"z": -0.2159836598,
				"element": "C" 
			},
			{
				"x": -0.5055751134,
				"y": -0.5248714554,
				"z": -1.2379890636,
				"element": "C" 
			},
			{
				"x": -1.7280492239,
				"y": 0.2001531841,
				"z": -1.1517915847,
				"element": "O" 
			},
			{
				"x": -0.649600637,
				"y": -2.0746895511,
				"z": -1.1947943405,
				"element": "C" 
			},
			{
				"x": -1.3323033657,
				"y": -2.4774785929,
				"z": -2.5289313292,
				"element": "C" 
			},
			{
				"x": 3.0378738502,
				"y": 0.3079240582,
				"z": 0.0959676257,
				"element": "C" 
			},
			{
				"x": 2.8206696594,
				"y": 1.2182242656,
				"z": 1.3243199667,
				"element": "C" 
			},
			{
				"x": 3.2410265725,
				"y": 1.1796541036,
				"z": -1.1714993308,
				"element": "C" 
			},
			{
				"x": 4.4766086892,
				"y": 2.0983574877,
				"z": -1.1104154733,
				"element": "C" 
			},
			{
				"x": 5.7220234054,
				"y": 1.3934497147,
				"z": -0.5379433418,
				"element": "C" 
			},
			{
				"x": 6.8359830916,
				"y": 1.7982007419,
				"z": -1.3330167198,
				"element": "O" 
			},
			{
				"x": 5.532947466,
				"y": -0.1240726472,
				"z": -0.5412183831,
				"element": "C" 
			},
			{
				"x": 4.343900516,
				"y": -0.5667923115,
				"z": 0.3397802117,
				"element": "C" 
			},
			{
				"x": 4.1180193397,
				"y": -2.0917414626,
				"z": 0.1730843374,
				"element": "C" 
			},
			{
				"x": 3.3009679254,
				"y": -2.4126621638,
				"z": -1.0609914303,
				"element": "C" 
			},
			{
				"x": 3.6693624958,
				"y": -3.1924963239,
				"z": -1.9213286043,
				"element": "O" 
			},
			{
				"x": -7.1492813943,
				"y": 3.3736413767,
				"z": 3.0164271442,
				"element": "H" 
			},
			{
				"x": -5.8943471204,
				"y": 2.7401322303,
				"z": 1.9352887085,
				"element": "H" 
			},
			{
				"x": -5.4797793621,
				"y": 3.2200404049,
				"z": 3.5977900244,
				"element": "H" 
			},
			{
				"x": -6.9287534995,
				"y": 1.3448795375,
				"z": 4.4760274391,
				"element": "H" 
			},
			{
				"x": -7.2902272288,
				"y": 0.8631031622,
				"z": 2.7966191281,
				"element": "H" 
			},
			{
				"x": -4.1334233748,
				"y": -1.9145203807,
				"z": 2.9388639388,
				"element": "H" 
			},
			{
				"x": -3.1757913397,
				"y": -0.505472141,
				"z": 3.3517849093,
				"element": "H" 
			},
			{
				"x": -3.6963282131,
				"y": -1.3985045881,
				"z": 0.4641874995,
				"element": "H" 
			},
			{
				"x": -2.5191454881,
				"y": -0.2135469364,
				"z": 0.9500023832,
				"element": "H" 
			},
			{
				"x": -2.4815606473,
				"y": -3.1502219281,
				"z": 1.7440976685,
				"element": "H" 
			},
			{
				"x": -0.1781969369,
				"y": -2.8608850191,
				"z": 2.5310319053,
				"element": "H" 
			},
			{
				"x": -1.2923595714,
				"y": -1.795416679,
				"z": 3.3669759801,
				"element": "H" 
			},
			{
				"x": -0.2187473725,
				"y": -1.136921998,
				"z": 2.1401358751,
				"element": "H" 
			},
			{
				"x": -2.4386418435,
				"y": -3.0912400475,
				"z": -0.5139541486,
				"element": "H" 
			},
			{
				"x": -0.9163832369,
				"y": -4.8532469322,
				"z": -0.6818212056,
				"element": "H" 
			},
			{
				"x": -0.8736189414,
				"y": -4.6539806568,
				"z": 1.0631515319,
				"element": "H" 
			},
			{
				"x": 1.4716956724,
				"y": -4.5824343966,
				"z": -0.2341237945,
				"element": "H" 
			},
			{
				"x": 1.1584916007,
				"y": -3.27323094,
				"z": 0.901651306,
				"element": "H" 
			},
			{
				"x": 0.9335774101,
				"y": -3.281801413,
				"z": -2.1140628491,
				"element": "H" 
			},
			{
				"x": 1.9747640054,
				"y": -1.1914601711,
				"z": -2.1384304175,
				"element": "H" 
			},
			{
				"x": 1.7265046528,
				"y": -1.1752920199,
				"z": 0.8993045669,
				"element": "H" 
			},
			{
				"x": 0.5868870812,
				"y": 1.1500033359,
				"z": -0.5523124591,
				"element": "H" 
			},
			{
				"x": -0.0830116812,
				"y": 0.2023153135,
				"z": 0.7411814692,
				"element": "H" 
			},
			{
				"x": -0.0614757587,
				"y": -0.3294615239,
				"z": -2.2288278513,
				"element": "H" 
			},
			{
				"x": -2.3192315013,
				"y": -0.1018457922,
				"z": -1.852360969,
				"element": "H" 
			},
			{
				"x": -2.3422238231,
				"y": -2.0563262892,
				"z": -2.6156125078,
				"element": "H" 
			},
			{
				"x": -1.4369080213,
				"y": -3.5637213575,
				"z": -2.6089800815,
				"element": "H" 
			},
			{
				"x": -0.7473879715,
				"y": -2.1389730326,
				"z": -3.3917997077,
				"element": "H" 
			},
			{
				"x": 2.6312876092,
				"y": 0.6172802583,
				"z": 2.221657573,
				"element": "H" 
			},
			{
				"x": 3.697974782,
				"y": 1.8393441164,
				"z": 1.5280414488,
				"element": "H" 
			},
			{
				"x": 1.9678901989,
				"y": 1.8906286268,
				"z": 1.1864060356,
				"element": "H" 
			},
			{
				"x": 3.3352211718,
				"y": 0.5274129421,
				"z": -2.046799751,
				"element": "H" 
			},
			{
				"x": 2.3537322798,
				"y": 1.7948694032,
				"z": -1.3521166327,
				"element": "H" 
			},
			{
				"x": 4.7301336926,
				"y": 2.4276599604,
				"z": -2.1232645325,
				"element": "H" 
			},
			{
				"x": 4.2595863812,
				"y": 3.0035753992,
				"z": -0.5342677391,
				"element": "H" 
			},
			{
				"x": 5.8794792898,
				"y": 1.7154088497,
				"z": 0.5059202039,
				"element": "H" 
			},
			{
				"x": 7.6305101405,
				"y": 1.3946871344,
				"z": -0.9590917605,
				"element": "H" 
			},
			{
				"x": 6.4450653351,
				"y": -0.6136437555,
				"z": -0.1735467915,
				"element": "H" 
			},
			{
				"x": 5.4008065591,
				"y": -0.4618537871,
				"z": -1.5769362556,
				"element": "H" 
			},
			{
				"x": 4.6453089842,
				"y": -0.4096016446,
				"z": 1.3831182504,
				"element": "H" 
			},
			{
				"x": 3.566806223,
				"y": -2.47974085,
				"z": 1.0401137338,
				"element": "H" 
			},
			{
				"x": 5.0689838125,
				"y": -2.6289613247,
				"z": 0.120914355,
				"element": "H" 
			}
		],
		 "valence_orbital": [ 
			{
				"type": "occ",
				"energy": -0.28348,
				"method": "rhf"
			},
			{
				"type": "occ",
				"energy": -0.26423,
				"method": "rhf"
			},
			{
				"type": "occ",
				"energy": -0.26064,
				"method": "rhf"
			},
			{
				"type": "occ",
				"energy": -0.25857,
				"method": "rhf"
			},
			{
				"type": "occ",
				"energy": -0.23323,
				"method": "rhf"
			},
			{
				"type": "unocc",
				"energy": -0.01532,
				"method": "rhf"
			},
			{
				"type": "unocc",
				"energy": 0.01866,
				"method": "rhf"
			},
			{
				"type": "unocc",
				"energy": 0.05622,
				"method": "rhf"
			},
			{
				"type": "unocc",
				"energy": 0.06274,
				"method": "rhf"
			},
			{
				"type": "unocc",
				"energy": 0.07053,
				"method": "rhf"
			}
		],
		"cosmo_sigma_profile": { 
			"-0.025": 0.0,
			"-0.024": 0.0,
			"-0.023": 0.0,
			"-0.022": 0.0,
			"-0.021": 0.0,
			"-0.02": 0.0,
			"-0.019": 0.0,
			"-0.018": 0.0,
			"-0.017": 0.0,
			"-0.016": 0.0,
			"-0.015": 0.360117683551,
			"-0.014": 1.73849403257,
			"-0.013": 1.55267277878,
			"-0.012": 1.72025215116,
			"-0.011": 1.7930592844,
			"-0.01": 1.60688039017,
			"-0.009": 2.03228698211,
			"-0.008": 2.62659065797,
			"-0.007": 1.93311734272,
			"-0.006": 4.80396307465,
			"-0.005": 16.2518350324,
			"-0.004": 31.3071222015,
			"-0.003": 64.6372720549,
			"-0.002": 76.1880659794,
			"-0.001": 75.9029726547,
			"0.0": 53.7105306814,
			"0.001": 39.6175535867,
			"0.002": 18.1692033547,
			"0.003": 9.25582276131,
			"0.004": 7.86029600984,
			"0.005": 7.39809526934,
			"0.006": 8.34951946398,
			"0.007": 7.59301145246,
			"0.008": 6.06610993385,
			"0.009": 7.6312945071,
			"0.01": 5.50019422144,
			"0.011": 6.14785070827,
			"0.012": 10.4672667493,
			"0.013": 8.16318292504,
			"0.014": 3.51439861992,
			"0.015": 0.928861718352,
			"0.016": 0.0,
			"0.017": 0.0,
			"0.018": 0.0,
			"0.019": 0.0,
			"0.02": 0.0,
			"0.021": 0.0,
			"0.022": 0.0,
			"0.023": 0.0,
			"0.024": 0.0,
			"0.025": 0.0
		}
	}
}
