{
	 "smiles": "CC1=CC(C)=NC(N)=N1", 
	 "Tm": 425.15, 
	 "num_atms": 18, 
	 "gaussian": { 
		 "optdone": 1, 
		 "sigma_profile": "yes", 
		 "theory": "DFT", 
		 "functional": "B3LYP", 
		 "basiset": "6-31G**", 
		 "properties": { 
			 "R2extent": 1415.024, 
			 "electric_dipole_moment_norm": 0.758429627586, 
			 "electric_quadrupole_moment_norm": 7.25722574955, 
			 "total_energy": -398.347687042, 
			 "HOMO_LUMO_gap": 0.19798, 
			 "cosmo_polarized_energy": -9.01, 
			 "cosmo_cavitation_energy": 21.64, 
			 "cosmo_dispersion_energy": -16.3, 
			 "cosmo_repulsion_energy": 1.37, 
			 "cosmo_total_nonelectrostatic_energy": 6.71, 
			 "SMD_solvation_energy": 1.16 
		},
		"coords": [
			{
				"x": -1.9202163143,
				"y": 1.6214553351,
				"z": 0.1868370135,
				"element": "C" 
			},
			{
				"x": -0.8606203879,
				"y": 0.6055360574,
				"z": 0.5257731431,
				"element": "C" 
			},
			{
				"x": -0.8166975216,
				"y": -0.0315263764,
				"z": 1.7700473823,
				"element": "C" 
			},
			{
				"x": 0.214532927,
				"y": -0.9504243949,
				"z": 1.9896459066,
				"element": "C" 
			},
			{
				"x": 0.363158323,
				"y": -1.6852015512,
				"z": 3.2964511672,
				"element": "C" 
			},
			{
				"x": 1.124393312,
				"y": -1.2227757798,
				"z": 1.0461654597,
				"element": "N" 
			},
			{
				"x": 0.9839153733,
				"y": -0.5653491995,
				"z": -0.1198110811,
				"element": "C" 
			},
			{
				"x": 1.8809368743,
				"y": -0.8731376038,
				"z": -1.1057704696,
				"element": "N" 
			},
			{
				"x": 0.0413845405,
				"y": 0.3444950538,
				"z": -0.4284021163,
				"element": "N" 
			},
			{
				"x": -1.4547551871,
				"y": 2.5713589187,
				"z": -0.0952110795,
				"element": "H" 
			},
			{
				"x": -2.502547601,
				"y": 1.2836153965,
				"z": -0.6767377773,
				"element": "H" 
			},
			{
				"x": -2.6001431516,
				"y": 1.7949622018,
				"z": 1.02442523,
				"element": "H" 
			},
			{
				"x": -1.5492067157,
				"y": 0.1858923844,
				"z": 2.5391219269,
				"element": "H" 
			},
			{
				"x": -0.3944796217,
				"y": -1.3809178334,
				"z": 4.0226459588,
				"element": "H" 
			},
			{
				"x": 0.2809660028,
				"y": -2.764764421,
				"z": 3.1322698948,
				"element": "H" 
			},
			{
				"x": 1.3557097226,
				"y": -1.50252069,
				"z": 3.7205103562,
				"element": "H" 
			},
			{
				"x": 1.9346308006,
				"y": -0.240090834,
				"z": -1.8874446519,
				"element": "H" 
			},
			{
				"x": 2.713338625,
				"y": -1.3672066636,
				"z": -0.8271162636,
				"element": "H" 
			}
		],
		 "valence_orbital": [ 
			{
				"type": "occ",
				"energy": -0.30593,
				"method": "rhf"
			},
			{
				"type": "occ",
				"energy": -0.29481,
				"method": "rhf"
			},
			{
				"type": "occ",
				"energy": -0.28285,
				"method": "rhf"
			},
			{
				"type": "occ",
				"energy": -0.23553,
				"method": "rhf"
			},
			{
				"type": "occ",
				"energy": -0.21796,
				"method": "rhf"
			},
			{
				"type": "unocc",
				"energy": -0.01998,
				"method": "rhf"
			},
			{
				"type": "unocc",
				"energy": 0.01592,
				"method": "rhf"
			},
			{
				"type": "unocc",
				"energy": 0.09898,
				"method": "rhf"
			},
			{
				"type": "unocc",
				"energy": 0.11293,
				"method": "rhf"
			},
			{
				"type": "unocc",
				"energy": 0.12657,
				"method": "rhf"
			}
		],
		"cosmo_sigma_profile": { 
			"-0.025": 0.0,
			"-0.024": 0.0,
			"-0.023": 0.0,
			"-0.022": 0.0,
			"-0.021": 0.0,
			"-0.02": 0.0,
			"-0.019": 0.0,
			"-0.018": 0.0,
			"-0.017": 0.0,
			"-0.016": 0.0,
			"-0.015": 0.0,
			"-0.014": 0.111673644916,
			"-0.013": 1.4900480452,
			"-0.012": 1.98073635285,
			"-0.011": 2.08118579591,
			"-0.01": 2.02531202145,
			"-0.009": 1.41819412291,
			"-0.008": 1.87604793605,
			"-0.007": 2.13868931008,
			"-0.006": 2.82925256507,
			"-0.005": 11.1739751055,
			"-0.004": 14.2461353272,
			"-0.003": 12.2823852195,
			"-0.002": 14.2427743591,
			"-0.001": 17.8637281613,
			"0.0": 18.0807017775,
			"0.001": 12.2416558968,
			"0.002": 11.8214746603,
			"0.003": 8.36648012024,
			"0.004": 5.03254396081,
			"0.005": 4.47483660546,
			"0.006": 4.01902770981,
			"0.007": 3.65203983954,
			"0.008": 3.21178240863,
			"0.009": 2.9227473479,
			"0.01": 2.7518130219,
			"0.011": 1.92888687556,
			"0.012": 2.11324253232,
			"0.013": 1.39195522482,
			"0.014": 1.45971781557,
			"0.015": 1.17242702914,
			"0.016": 0.416070392787,
			"0.017": 0.0,
			"0.018": 0.0,
			"0.019": 0.0,
			"0.02": 0.0,
			"0.021": 0.0,
			"0.022": 0.0,
			"0.023": 0.0,
			"0.024": 0.0,
			"0.025": 0.0
		}
	}
}
