{
	 "smiles": "C(CCC1=CC=CC=C1)CC1=CC=CC=C1", 
	 "Tm": 325.65, 
	 "num_atms": 34, 
	 "gaussian": { 
		 "optdone": 1, 
		 "sigma_profile": "yes", 
		 "theory": "DFT", 
		 "functional": "B3LYP", 
		 "basiset": "6-31G**", 
		 "properties": { 
			 "R2extent": 5707.7274, 
			 "electric_dipole_moment_norm": 0.484297945484, 
			 "electric_quadrupole_moment_norm": 5.99846948396, 
			 "total_energy": -620.569750306, 
			 "HOMO_LUMO_gap": 0.23398, 
			 "cosmo_polarized_energy": -5.86, 
			 "cosmo_cavitation_energy": 36.69, 
			 "cosmo_dispersion_energy": -25.06, 
			 "cosmo_repulsion_energy": 1.96, 
			 "cosmo_total_nonelectrostatic_energy": 13.59, 
			 "SMD_solvation_energy": 5.4 
		},
		"coords": [
			{
				"x": 0.7814526173,
				"y": 1.3271342085,
				"z": -0.2745048807,
				"element": "C" 
			},
			{
				"x": 1.6851089841,
				"y": 0.5880447945,
				"z": -1.2733026826,
				"element": "C" 
			},
			{
				"x": 0.9522651251,
				"y": -0.1360742357,
				"z": -2.4264076011,
				"element": "C" 
			},
			{
				"x": 0.0019655347,
				"y": -1.2252260621,
				"z": -1.9699128851,
				"element": "C" 
			},
			{
				"x": -1.3866287445,
				"y": -1.0724037218,
				"z": -2.0784959968,
				"element": "C" 
			},
			{
				"x": -2.2590820077,
				"y": -2.0735437102,
				"z": -1.6447938139,
				"element": "C" 
			},
			{
				"x": -1.7541403567,
				"y": -3.2512184814,
				"z": -1.0935152583,
				"element": "C" 
			},
			{
				"x": -0.3717559505,
				"y": -3.4204542185,
				"z": -0.9827206651,
				"element": "C" 
			},
			{
				"x": 0.4942490545,
				"y": -2.4176086522,
				"z": -1.4174368838,
				"element": "C" 
			},
			{
				"x": 0.0162260223,
				"y": 2.5259078054,
				"z": -0.8728099315,
				"element": "C" 
			},
			{
				"x": -0.824723251,
				"y": 3.2545365158,
				"z": 0.1539066222,
				"element": "C" 
			},
			{
				"x": -0.3470505763,
				"y": 4.4048403217,
				"z": 0.7955918408,
				"element": "C" 
			},
			{
				"x": -1.1104046286,
				"y": 5.0563179729,
				"z": 1.7662105026,
				"element": "C" 
			},
			{
				"x": -2.369883073,
				"y": 4.5650163225,
				"z": 2.112873107,
				"element": "C" 
			},
			{
				"x": -2.8587742537,
				"y": 3.4191407806,
				"z": 1.4815475362,
				"element": "C" 
			},
			{
				"x": -2.092152548,
				"y": 2.7724855111,
				"z": 0.5118889071,
				"element": "C" 
			},
			{
				"x": 1.3975933054,
				"y": 1.6897730846,
				"z": 0.5577428295,
				"element": "H" 
			},
			{
				"x": 0.0623461838,
				"y": 0.6241106365,
				"z": 0.162930907,
				"element": "H" 
			},
			{
				"x": 2.2829374364,
				"y": -0.1490613153,
				"z": -0.7223912156,
				"element": "H" 
			},
			{
				"x": 2.4017945583,
				"y": 1.2968583473,
				"z": -1.7102358349,
				"element": "H" 
			},
			{
				"x": 0.4038469292,
				"y": 0.5921206886,
				"z": -3.0345399316,
				"element": "H" 
			},
			{
				"x": 1.7113589546,
				"y": -0.5726590657,
				"z": -3.0881601822,
				"element": "H" 
			},
			{
				"x": -1.7892334735,
				"y": -0.1620260508,
				"z": -2.5166181241,
				"element": "H" 
			},
			{
				"x": -3.3322193704,
				"y": -1.9331846353,
				"z": -1.7417548723,
				"element": "H" 
			},
			{
				"x": -2.4297185779,
				"y": -4.0324771776,
				"z": -0.7571909902,
				"element": "H" 
			},
			{
				"x": 0.0320277226,
				"y": -4.3370888448,
				"z": -0.5614250068,
				"element": "H" 
			},
			{
				"x": 1.5688847233,
				"y": -2.5634055147,
				"z": -1.3332033041,
				"element": "H" 
			},
			{
				"x": 0.7355819526,
				"y": 3.222895225,
				"z": -1.3217269263,
				"element": "H" 
			},
			{
				"x": -0.6305528455,
				"y": 2.17954705,
				"z": -1.6877297876,
				"element": "H" 
			},
			{
				"x": 0.631893649,
				"y": 4.7962262053,
				"z": 0.5278952781,
				"element": "H" 
			},
			{
				"x": -0.7224093206,
				"y": 5.9495191437,
				"z": 2.248363248,
				"element": "H" 
			},
			{
				"x": -2.9669634589,
				"y": 5.0718847809,
				"z": 2.8656154545,
				"element": "H" 
			},
			{
				"x": -3.8397434181,
				"y": 3.0308250285,
				"z": 1.7417892538,
				"element": "H" 
			},
			{
				"x": -2.4798968983,
				"y": 1.8812472626,
				"z": 0.0234212878,
				"element": "H" 
			}
		],
		 "valence_orbital": [ 
			{
				"type": "occ",
				"energy": -0.31478,
				"method": "rhf"
			},
			{
				"type": "occ",
				"energy": -0.24663,
				"method": "rhf"
			},
			{
				"type": "occ",
				"energy": -0.24293,
				"method": "rhf"
			},
			{
				"type": "occ",
				"energy": -0.23796,
				"method": "rhf"
			},
			{
				"type": "occ",
				"energy": -0.23412,
				"method": "rhf"
			},
			{
				"type": "unocc",
				"energy": -0.00014,
				"method": "rhf"
			},
			{
				"type": "unocc",
				"energy": 0.00302,
				"method": "rhf"
			},
			{
				"type": "unocc",
				"energy": 0.00503,
				"method": "rhf"
			},
			{
				"type": "unocc",
				"energy": 0.00669,
				"method": "rhf"
			},
			{
				"type": "unocc",
				"energy": 0.07948,
				"method": "rhf"
			}
		],
		"cosmo_sigma_profile": { 
			"-0.025": 0.0,
			"-0.024": 0.0,
			"-0.023": 0.0,
			"-0.022": 0.0,
			"-0.021": 0.0,
			"-0.02": 0.0,
			"-0.019": 0.0,
			"-0.018": 0.0,
			"-0.017": 0.0,
			"-0.016": 0.0,
			"-0.015": 0.0,
			"-0.014": 0.0,
			"-0.013": 0.0,
			"-0.012": 0.0,
			"-0.011": 0.0,
			"-0.01": 0.0,
			"-0.009": 0.0,
			"-0.008": 0.0,
			"-0.007": 0.0,
			"-0.006": 2.0315835336,
			"-0.005": 16.4221761929,
			"-0.004": 24.1703365702,
			"-0.003": 37.8761269103,
			"-0.002": 33.6110327288,
			"-0.001": 33.4280289128,
			"0.0": 29.3701199621,
			"0.001": 23.517553848,
			"0.002": 17.2534493395,
			"0.003": 16.0396737468,
			"0.004": 15.094238138,
			"0.005": 16.0533686441,
			"0.006": 15.9795693617,
			"0.007": 8.67427015966,
			"0.008": 0.00367879052631,
			"0.009": 0.0,
			"0.01": 0.0,
			"0.011": 0.0,
			"0.012": 0.0,
			"0.013": 0.0,
			"0.014": 0.0,
			"0.015": 0.0,
			"0.016": 0.0,
			"0.017": 0.0,
			"0.018": 0.0,
			"0.019": 0.0,
			"0.02": 0.0,
			"0.021": 0.0,
			"0.022": 0.0,
			"0.023": 0.0,
			"0.024": 0.0,
			"0.025": 0.0
		}
	}
}
