{
	 "smiles": "ClC(=O)C1=C(SC2=CC=C(Cl)C=C2)N=CC=C1", 
	 "Tm": 375.15, 
	 "num_atms": 24, 
	 "gaussian": { 
		 "optdone": 1, 
		 "sigma_profile": "yes", 
		 "theory": "DFT", 
		 "functional": "B3LYP", 
		 "basiset": "6-31G**", 
		 "properties": { 
			 "R2extent": 7761.995, 
			 "electric_dipole_moment_norm": 3.2065579895, 
			 "electric_quadrupole_moment_norm": 18.5214098448, 
			 "total_energy": -1910.03111683, 
			 "HOMO_LUMO_gap": 0.15867, 
			 "cosmo_polarized_energy": -9.72, 
			 "cosmo_cavitation_energy": 34.79, 
			 "cosmo_dispersion_energy": -25.34, 
			 "cosmo_repulsion_energy": 1.95, 
			 "cosmo_total_nonelectrostatic_energy": 11.4, 
			 "SMD_solvation_energy": 5.21 
		},
		"coords": [
			{
				"x": -2.1416763261,
				"y": 1.4955337608,
				"z": 2.2394200335,
				"element": "Cl" 
			},
			{
				"x": -3.4045325368,
				"y": 0.5463125691,
				"z": 1.3531041687,
				"element": "C" 
			},
			{
				"x": -4.5573517367,
				"y": 0.7764923704,
				"z": 1.5747452335,
				"element": "O" 
			},
			{
				"x": -2.9192140008,
				"y": -0.5436351335,
				"z": 0.4656401448,
				"element": "C" 
			},
			{
				"x": -1.7158756763,
				"y": -0.6142420882,
				"z": -0.2900712393,
				"element": "C" 
			},
			{
				"x": -0.5233584478,
				"y": 0.7291939572,
				"z": -0.3443006745,
				"element": "S" 
			},
			{
				"x": 0.5464310019,
				"y": 0.2063847995,
				"z": -1.6851411237,
				"element": "C" 
			},
			{
				"x": 0.2635035026,
				"y": 0.5931173408,
				"z": -2.9997297928,
				"element": "C" 
			},
			{
				"x": 1.1372718386,
				"y": 0.2627083206,
				"z": -4.0346192671,
				"element": "C" 
			},
			{
				"x": 2.2985365202,
				"y": -0.451859924,
				"z": -3.739961271,
				"element": "C" 
			},
			{
				"x": 3.4055753137,
				"y": -0.8675686441,
				"z": -5.0382209405,
				"element": "Cl" 
			},
			{
				"x": 2.6008002977,
				"y": -0.837466046,
				"z": -2.4339519778,
				"element": "C" 
			},
			{
				"x": 1.7191855141,
				"y": -0.5035388818,
				"z": -1.406944538,
				"element": "C" 
			},
			{
				"x": -1.4320523197,
				"y": -1.6755961858,
				"z": -1.0485110616,
				"element": "N" 
			},
			{
				"x": -2.2907127805,
				"y": -2.6943156248,
				"z": -1.1132626992,
				"element": "C" 
			},
			{
				"x": -3.512620426,
				"y": -2.7131715454,
				"z": -0.4429747472,
				"element": "C" 
			},
			{
				"x": -3.8219246006,
				"y": -1.614273713,
				"z": 0.3449995571,
				"element": "C" 
			},
			{
				"x": -0.6400066152,
				"y": 1.153899588,
				"z": -3.2152212121,
				"element": "H" 
			},
			{
				"x": 0.923976785,
				"y": 0.5582040012,
				"z": -5.0558173719,
				"element": "H" 
			},
			{
				"x": 3.5109624285,
				"y": -1.3887233776,
				"z": -2.2257576,
				"element": "H" 
			},
			{
				"x": 1.9423013035,
				"y": -0.7970333351,
				"z": -0.3867219805,
				"element": "H" 
			},
			{
				"x": -1.9826459865,
				"y": -3.5324048176,
				"z": -1.735885608,
				"element": "H" 
			},
			{
				"x": -4.1905676695,
				"y": -3.5543529345,
				"z": -0.5346599081,
				"element": "H" 
			},
			{
				"x": -4.7578053832,
				"y": -1.5582644562,
				"z": 0.8902438755,
				"element": "H" 
			}
		],
		 "valence_orbital": [ 
			{
				"type": "occ",
				"energy": -0.29773,
				"method": "rhf"
			},
			{
				"type": "occ",
				"energy": -0.27642,
				"method": "rhf"
			},
			{
				"type": "occ",
				"energy": -0.27289,
				"method": "rhf"
			},
			{
				"type": "occ",
				"energy": -0.25435,
				"method": "rhf"
			},
			{
				"type": "occ",
				"energy": -0.2431,
				"method": "rhf"
			},
			{
				"type": "unocc",
				"energy": -0.08443,
				"method": "rhf"
			},
			{
				"type": "unocc",
				"energy": -0.0433,
				"method": "rhf"
			},
			{
				"type": "unocc",
				"energy": -0.03668,
				"method": "rhf"
			},
			{
				"type": "unocc",
				"energy": -0.02279,
				"method": "rhf"
			},
			{
				"type": "unocc",
				"energy": -0.00322,
				"method": "rhf"
			}
		],
		"cosmo_sigma_profile": { 
			"-0.025": 0.0,
			"-0.024": 0.0,
			"-0.023": 0.0,
			"-0.022": 0.0,
			"-0.021": 0.0,
			"-0.02": 0.0,
			"-0.019": 0.0,
			"-0.018": 0.0,
			"-0.017": 0.0,
			"-0.016": 0.0,
			"-0.015": 0.0,
			"-0.014": 0.0,
			"-0.013": 0.0,
			"-0.012": 0.0,
			"-0.011": 0.0,
			"-0.01": 0.0,
			"-0.009": 0.11227572039,
			"-0.008": 7.81071181439,
			"-0.007": 14.8317811439,
			"-0.006": 14.8924212861,
			"-0.005": 13.0459462702,
			"-0.004": 13.9620544078,
			"-0.003": 12.0790669328,
			"-0.002": 19.1059289166,
			"-0.001": 26.2572800259,
			"0.0": 29.5007081107,
			"0.001": 26.9729416275,
			"0.002": 25.4588844088,
			"0.003": 24.2790688293,
			"0.004": 24.739318789,
			"0.005": 11.5054655008,
			"0.006": 6.50733545438,
			"0.007": 4.67716907603,
			"0.008": 5.87495981984,
			"0.009": 3.00598459071,
			"0.01": 1.55817611868,
			"0.011": 0.724634234569,
			"0.012": 0.261449428563,
			"0.013": 0.0,
			"0.014": 0.0,
			"0.015": 0.0,
			"0.016": 0.0,
			"0.017": 0.0,
			"0.018": 0.0,
			"0.019": 0.0,
			"0.02": 0.0,
			"0.021": 0.0,
			"0.022": 0.0,
			"0.023": 0.0,
			"0.024": 0.0,
			"0.025": 0.0
		}
	}
}
