{
	 "smiles": "ClC1=C(Cl)C=C(C=C1)C(=O)CBr", 
	 "Tm": 330.15, 
	 "num_atms": 17, 
	 "gaussian": { 
		 "optdone": 1, 
		 "sigma_profile": "yes", 
		 "theory": "DFT", 
		 "functional": "B3LYP", 
		 "basiset": "6-31G**", 
		 "properties": { 
			 "R2extent": 6031.5895, 
			 "electric_dipole_moment_norm": 1.78753636327, 
			 "electric_quadrupole_moment_norm": 13.0071874685, 
			 "total_energy": -3874.86838047, 
			 "HOMO_LUMO_gap": 0.18397, 
			 "cosmo_polarized_energy": -11.37, 
			 "cosmo_cavitation_energy": 27.77, 
			 "cosmo_dispersion_energy": -21.01, 
			 "cosmo_repulsion_energy": 1.68, 
			 "cosmo_total_nonelectrostatic_energy": 8.45, 
			 "SMD_solvation_energy": 3.53 
		},
		"coords": [
			{
				"x": -0.1658874269,
				"y": -3.6823116698,
				"z": 3.1963981531,
				"element": "Cl" 
			},
			{
				"x": -0.0079542438,
				"y": -2.4504275245,
				"z": 1.976916022,
				"element": "C" 
			},
			{
				"x": 0.2856547719,
				"y": -2.7738798653,
				"z": 0.644292865,
				"element": "C" 
			},
			{
				"x": 0.5090200169,
				"y": -4.4279725357,
				"z": 0.1348783522,
				"element": "Cl" 
			},
			{
				"x": 0.4043548413,
				"y": -1.758580878,
				"z": -0.3054193679,
				"element": "C" 
			},
			{
				"x": 0.2330080312,
				"y": -0.4175536786,
				"z": 0.0589944291,
				"element": "C" 
			},
			{
				"x": -0.0606429252,
				"y": -0.1049255453,
				"z": 1.3950182037,
				"element": "C" 
			},
			{
				"x": -0.1797695273,
				"y": -1.11060305,
				"z": 2.3434110365,
				"element": "C" 
			},
			{
				"x": 0.3477498726,
				"y": 0.7208041479,
				"z": -0.9149347824,
				"element": "C" 
			},
			{
				"x": 0.1908550695,
				"y": 1.8688771244,
				"z": -0.5511501017,
				"element": "O" 
			},
			{
				"x": 0.6679715608,
				"y": 0.3537072435,
				"z": -2.3646639054,
				"element": "C" 
			},
			{
				"x": 0.795531626,
				"y": 1.9010919274,
				"z": -3.5425635055,
				"element": "Br" 
			},
			{
				"x": 0.6318238384,
				"y": -2.0441094527,
				"z": -1.3256501232,
				"element": "H" 
			},
			{
				"x": -0.1914433189,
				"y": 0.9364829331,
				"z": 1.6666018502,
				"element": "H" 
			},
			{
				"x": -0.4065825939,
				"y": -0.8745978562,
				"z": 3.3771110583,
				"element": "H" 
			},
			{
				"x": 1.6235563563,
				"y": -0.1712988638,
				"z": -2.4239043433,
				"element": "H" 
			},
			{
				"x": -0.1081459489,
				"y": -0.2957024564,
				"z": -2.7748358409,
				"element": "H" 
			}
		],
		 "valence_orbital": [ 
			{
				"type": "occ",
				"energy": -0.28627,
				"method": "rhf"
			},
			{
				"type": "occ",
				"energy": -0.28206,
				"method": "rhf"
			},
			{
				"type": "occ",
				"energy": -0.27982,
				"method": "rhf"
			},
			{
				"type": "occ",
				"energy": -0.27818,
				"method": "rhf"
			},
			{
				"type": "occ",
				"energy": -0.26801,
				"method": "rhf"
			},
			{
				"type": "unocc",
				"energy": -0.08404,
				"method": "rhf"
			},
			{
				"type": "unocc",
				"energy": -0.04229,
				"method": "rhf"
			},
			{
				"type": "unocc",
				"energy": -0.01593,
				"method": "rhf"
			},
			{
				"type": "unocc",
				"energy": -0.00355,
				"method": "rhf"
			},
			{
				"type": "unocc",
				"energy": 0.00767,
				"method": "rhf"
			}
		],
		"cosmo_sigma_profile": { 
			"-0.025": 0.0,
			"-0.024": 0.0,
			"-0.023": 0.0,
			"-0.022": 0.0,
			"-0.021": 0.0,
			"-0.02": 0.0,
			"-0.019": 0.0,
			"-0.018": 0.0,
			"-0.017": 0.0,
			"-0.016": 0.0,
			"-0.015": 0.0,
			"-0.014": 0.0,
			"-0.013": 0.0,
			"-0.012": 0.0,
			"-0.011": 1.16875434198,
			"-0.01": 6.89613004812,
			"-0.009": 7.19860769647,
			"-0.008": 6.65030253066,
			"-0.007": 5.96445641942,
			"-0.006": 8.05986626974,
			"-0.005": 5.85905710306,
			"-0.004": 7.87745784009,
			"-0.003": 11.4053320488,
			"-0.002": 13.5765911633,
			"-0.001": 21.6868079771,
			"0.0": 26.3749912322,
			"0.001": 20.3519354384,
			"0.002": 15.6486026946,
			"0.003": 21.2354837296,
			"0.004": 16.8256028239,
			"0.005": 11.8614215135,
			"0.006": 6.56265022496,
			"0.007": 2.16459031831,
			"0.008": 2.67483463235,
			"0.009": 2.43942640265,
			"0.01": 3.66057725021,
			"0.011": 3.13892046948,
			"0.012": 1.65846541661,
			"0.013": 0.129543794489,
			"0.014": 0.0,
			"0.015": 0.0,
			"0.016": 0.0,
			"0.017": 0.0,
			"0.018": 0.0,
			"0.019": 0.0,
			"0.02": 0.0,
			"0.021": 0.0,
			"0.022": 0.0,
			"0.023": 0.0,
			"0.024": 0.0,
			"0.025": 0.0
		}
	}
}
