{
	 "smiles": "CC1=CC=C(C(N)=C1)[N+]([O-])=O", 
	 "Tm": 381.15, 
	 "num_atms": 19, 
	 "gaussian": { 
		 "optdone": 1, 
		 "sigma_profile": "yes", 
		 "theory": "DFT", 
		 "functional": "B3LYP", 
		 "basiset": "6-31G**", 
		 "properties": { 
			 "R2extent": 1915.9318, 
			 "electric_dipole_moment_norm": 5.21975420303, 
			 "electric_quadrupole_moment_norm": 12.411710928, 
			 "total_energy": -531.434511959, 
			 "HOMO_LUMO_gap": 0.14391, 
			 "cosmo_polarized_energy": -11.32, 
			 "cosmo_cavitation_energy": 23.02, 
			 "cosmo_dispersion_energy": -17.41, 
			 "cosmo_repulsion_energy": 1.39, 
			 "cosmo_total_nonelectrostatic_energy": 7.0, 
			 "SMD_solvation_energy": 6.03 
		},
		"coords": [
			{
				"x": 1.999778176,
				"y": 1.5468289946,
				"z": 2.0963505634,
				"element": "C" 
			},
			{
				"x": 1.2846097578,
				"y": 0.8522761137,
				"z": 0.9643279825,
				"element": "C" 
			},
			{
				"x": 1.8488668218,
				"y": 0.8500393162,
				"z": -0.3330000802,
				"element": "C" 
			},
			{
				"x": 1.1942054993,
				"y": 0.2154252279,
				"z": -1.3658076373,
				"element": "C" 
			},
			{
				"x": -0.0343067526,
				"y": -0.4353791387,
				"z": -1.1526114264,
				"element": "C" 
			},
			{
				"x": -0.631610747,
				"y": -0.4536570931,
				"z": 0.1389707734,
				"element": "C" 
			},
			{
				"x": -1.8115561705,
				"y": -1.0606815949,
				"z": 0.4164840398,
				"element": "N" 
			},
			{
				"x": 0.0753241112,
				"y": 0.2115734413,
				"z": 1.1741840239,
				"element": "C" 
			},
			{
				"x": -0.6507577312,
				"y": -1.0745751998,
				"z": -2.2917691957,
				"element": "N" 
			},
			{
				"x": -0.0780289573,
				"y": -1.0197419606,
				"z": -3.3819301491,
				"element": "O" 
			},
			{
				"x": -1.7414069175,
				"y": -1.6613904994,
				"z": -2.1385999968,
				"element": "O" 
			},
			{
				"x": 2.1391927797,
				"y": 2.6111902155,
				"z": 1.8754057394,
				"element": "H" 
			},
			{
				"x": 1.4489057732,
				"y": 1.465422045,
				"z": 3.0366860654,
				"element": "H" 
			},
			{
				"x": 2.9972347301,
				"y": 1.1191415662,
				"z": 2.2488434387,
				"element": "H" 
			},
			{
				"x": 2.7964118195,
				"y": 1.3478874087,
				"z": -0.5136787634,
				"element": "H" 
			},
			{
				"x": 1.6014011137,
				"y": 0.1970938413,
				"z": -2.3687016375,
				"element": "H" 
			},
			{
				"x": -2.1793892258,
				"y": -1.0362951776,
				"z": 1.3522146289,
				"element": "H" 
			},
			{
				"x": -2.2986073351,
				"y": -1.5281103914,
				"z": -0.3344957778,
				"element": "H" 
			},
			{
				"x": -0.3651667454,
				"y": 0.208652885,
				"z": 2.1684274089,
				"element": "H" 
			}
		],
		 "valence_orbital": [ 
			{
				"type": "occ",
				"energy": -0.29769,
				"method": "rhf"
			},
			{
				"type": "occ",
				"energy": -0.29584,
				"method": "rhf"
			},
			{
				"type": "occ",
				"energy": -0.27844,
				"method": "rhf"
			},
			{
				"type": "occ",
				"energy": -0.26425,
				"method": "rhf"
			},
			{
				"type": "occ",
				"energy": -0.21922,
				"method": "rhf"
			},
			{
				"type": "unocc",
				"energy": -0.07531,
				"method": "rhf"
			},
			{
				"type": "unocc",
				"energy": -0.00177,
				"method": "rhf"
			},
			{
				"type": "unocc",
				"energy": 0.01355,
				"method": "rhf"
			},
			{
				"type": "unocc",
				"energy": 0.07987,
				"method": "rhf"
			},
			{
				"type": "unocc",
				"energy": 0.08921,
				"method": "rhf"
			}
		],
		"cosmo_sigma_profile": { 
			"-0.025": 0.0,
			"-0.024": 0.0,
			"-0.023": 0.0,
			"-0.022": 0.0,
			"-0.021": 0.0,
			"-0.02": 0.0,
			"-0.019": 0.0,
			"-0.018": 0.0,
			"-0.017": 0.0,
			"-0.016": 0.0,
			"-0.015": 0.292813967566,
			"-0.014": 1.15032125749,
			"-0.013": 1.64871971564,
			"-0.012": 1.54751146721,
			"-0.011": 1.21349383706,
			"-0.01": 1.99119936296,
			"-0.009": 2.68304739973,
			"-0.008": 2.23854410253,
			"-0.007": 2.37072926149,
			"-0.006": 5.59577416257,
			"-0.005": 10.3864554469,
			"-0.004": 13.6871334688,
			"-0.003": 14.8513305061,
			"-0.002": 12.0615263068,
			"-0.001": 15.2578601653,
			"0.0": 15.7339252812,
			"0.001": 12.0832828163,
			"0.002": 14.6958377579,
			"0.003": 12.9516355821,
			"0.004": 9.99885546121,
			"0.005": 4.18236215239,
			"0.006": 3.2308278197,
			"0.007": 3.13738091017,
			"0.008": 4.63373239919,
			"0.009": 6.62938308274,
			"0.01": 4.06382345753,
			"0.011": 3.80585965493,
			"0.012": 0.99613914542,
			"0.013": 0.0,
			"0.014": 0.0,
			"0.015": 0.0,
			"0.016": 0.0,
			"0.017": 0.0,
			"0.018": 0.0,
			"0.019": 0.0,
			"0.02": 0.0,
			"0.021": 0.0,
			"0.022": 0.0,
			"0.023": 0.0,
			"0.024": 0.0,
			"0.025": 0.0
		}
	}
}
