{
	 "smiles": "CC(C)(C)N(NC(=O)C1=CC=CC=C1)C(=O)C1=CC=CC(=C1)C(F)(F)F", 
	 "Tm": 477.15, 
	 "num_atms": 45, 
	 "gaussian": { 
		 "optdone": 1, 
		 "sigma_profile": "yes", 
		 "theory": "DFT", 
		 "functional": "B3LYP", 
		 "basiset": "6-31G**", 
		 "properties": { 
			 "R2extent": 10209.2919, 
			 "electric_dipole_moment_norm": 2.97777018589, 
			 "electric_quadrupole_moment_norm": 19.2636528493, 
			 "total_energy": -1294.94827415, 
			 "HOMO_LUMO_gap": 0.19845, 
			 "cosmo_polarized_energy": -16.36, 
			 "cosmo_cavitation_energy": 48.4, 
			 "cosmo_dispersion_energy": -30.84, 
			 "cosmo_repulsion_energy": 2.25, 
			 "cosmo_total_nonelectrostatic_energy": 19.81, 
			 "SMD_solvation_energy": 10.74 
		},
		"coords": [
			{
				"x": 2.9423788389,
				"y": -0.80099069,
				"z": 2.7153504539,
				"element": "C" 
			},
			{
				"x": 1.528204816,
				"y": -1.2801573661,
				"z": 2.3314290488,
				"element": "C" 
			},
			{
				"x": 0.4796247927,
				"y": -0.7535262781,
				"z": 3.3289634216,
				"element": "C" 
			},
			{
				"x": 1.5177222571,
				"y": -2.8169060329,
				"z": 2.3457800209,
				"element": "C" 
			},
			{
				"x": 1.2055377786,
				"y": -0.786732638,
				"z": 0.9251805397,
				"element": "N" 
			},
			{
				"x": 0.841519409,
				"y": -1.6903359961,
				"z": -0.0704540359,
				"element": "N" 
			},
			{
				"x": -0.3847545063,
				"y": -2.3593356363,
				"z": -0.1578904046,
				"element": "C" 
			},
			{
				"x": -0.4039293764,
				"y": -3.4407377806,
				"z": -0.7289252471,
				"element": "O" 
			},
			{
				"x": -1.6260106023,
				"y": -1.7473434685,
				"z": 0.4104612373,
				"element": "C" 
			},
			{
				"x": -1.9131923251,
				"y": -0.3762533205,
				"z": 0.3732607386,
				"element": "C" 
			},
			{
				"x": -3.1283988781,
				"y": 0.0974345731,
				"z": 0.8679068073,
				"element": "C" 
			},
			{
				"x": -4.0592504552,
				"y": -0.7886138777,
				"z": 1.4129245822,
				"element": "C" 
			},
			{
				"x": -3.7842203255,
				"y": -2.1583272683,
				"z": 1.4399716946,
				"element": "C" 
			},
			{
				"x": -2.5809489944,
				"y": -2.6366284788,
				"z": 0.9275422261,
				"element": "C" 
			},
			{
				"x": 1.3197728679,
				"y": 0.55571131,
				"z": 0.5980197814,
				"element": "C" 
			},
			{
				"x": 1.4383730096,
				"y": 1.4205402655,
				"z": 1.4604620343,
				"element": "O" 
			},
			{
				"x": 1.3078991021,
				"y": 0.9764986387,
				"z": -0.8529404499,
				"element": "C" 
			},
			{
				"x": 0.6548233164,
				"y": 2.1807895543,
				"z": -1.1502396174,
				"element": "C" 
			},
			{
				"x": 0.6655483854,
				"y": 2.6938972057,
				"z": -2.4462623567,
				"element": "C" 
			},
			{
				"x": 1.3654361067,
				"y": 2.0325673309,
				"z": -3.4535704675,
				"element": "C" 
			},
			{
				"x": 2.0547607445,
				"y": 0.8539692179,
				"z": -3.1533483423,
				"element": "C" 
			},
			{
				"x": 2.0214323361,
				"y": 0.3229311989,
				"z": -1.8640544248,
				"element": "C" 
			},
			{
				"x": 2.8830242475,
				"y": 0.1883448268,
				"z": -4.220264352,
				"element": "C" 
			},
			{
				"x": 2.2938279003,
				"y": 0.271757337,
				"z": -5.4332609348,
				"element": "F" 
			},
			{
				"x": 4.1008728972,
				"y": 0.7671476161,
				"z": -4.336522622,
				"element": "F" 
			},
			{
				"x": 3.092670792,
				"y": -1.1201812894,
				"z": -3.9567515411,
				"element": "F" 
			},
			{
				"x": 3.0020901452,
				"y": 0.2863501339,
				"z": 2.7452102897,
				"element": "H" 
			},
			{
				"x": 3.1985719177,
				"y": -1.1892985122,
				"z": 3.7060495758,
				"element": "H" 
			},
			{
				"x": 3.6850699481,
				"y": -1.1779189268,
				"z": 2.0037984567,
				"element": "H" 
			},
			{
				"x": 0.7244542824,
				"y": -1.1095290274,
				"z": 4.3355044237,
				"element": "H" 
			},
			{
				"x": 0.467807031,
				"y": 0.3361718898,
				"z": 3.3365317145,
				"element": "H" 
			},
			{
				"x": -0.5187532413,
				"y": -1.1173134439,
				"z": 3.0722194831,
				"element": "H" 
			},
			{
				"x": 0.535863244,
				"y": -3.2383504494,
				"z": 2.1200394123,
				"element": "H" 
			},
			{
				"x": 2.2482386796,
				"y": -3.2473440248,
				"z": 1.6539763181,
				"element": "H" 
			},
			{
				"x": 1.7903068703,
				"y": -3.14356866,
				"z": 3.3530368317,
				"element": "H" 
			},
			{
				"x": 1.5850777523,
				"y": -2.286369361,
				"z": -0.4220435533,
				"element": "H" 
			},
			{
				"x": -1.2115851622,
				"y": 0.3170330722,
				"z": -0.0729814003,
				"element": "H" 
			},
			{
				"x": -3.3479886217,
				"y": 1.1600655799,
				"z": 0.8250527553,
				"element": "H" 
			},
			{
				"x": -5.0000846293,
				"y": -0.4144748984,
				"z": 1.8062175098,
				"element": "H" 
			},
			{
				"x": -4.5110966009,
				"y": -2.8528035198,
				"z": 1.8506628223,
				"element": "H" 
			},
			{
				"x": -2.3643035009,
				"y": -3.6996028141,
				"z": 0.9131734841,
				"element": "H" 
			},
			{
				"x": 0.1500413845,
				"y": 2.7097182859,
				"z": -0.3486233939,
				"element": "H" 
			},
			{
				"x": 0.1369429518,
				"y": 3.6154697264,
				"z": -2.6690250549,
				"element": "H" 
			},
			{
				"x": 1.3811732512,
				"y": 2.4242384907,
				"z": -4.4650847916,
				"element": "H" 
			},
			{
				"x": 2.5661501631,
				"y": -0.5892924943,
				"z": -1.6592826737,
				"element": "H" 
			}
		],
		 "valence_orbital": [ 
			{
				"type": "occ",
				"energy": -0.27298,
				"method": "rhf"
			},
			{
				"type": "occ",
				"energy": -0.26817,
				"method": "rhf"
			},
			{
				"type": "occ",
				"energy": -0.26231,
				"method": "rhf"
			},
			{
				"type": "occ",
				"energy": -0.2549,
				"method": "rhf"
			},
			{
				"type": "occ",
				"energy": -0.24886,
				"method": "rhf"
			},
			{
				"type": "unocc",
				"energy": -0.05041,
				"method": "rhf"
			},
			{
				"type": "unocc",
				"energy": -0.04612,
				"method": "rhf"
			},
			{
				"type": "unocc",
				"energy": -0.0312,
				"method": "rhf"
			},
			{
				"type": "unocc",
				"energy": -0.01412,
				"method": "rhf"
			},
			{
				"type": "unocc",
				"energy": 0.02654,
				"method": "rhf"
			}
		],
		"cosmo_sigma_profile": { 
			"-0.025": 0.0,
			"-0.024": 0.0,
			"-0.023": 0.0,
			"-0.022": 0.0,
			"-0.021": 0.0,
			"-0.02": 0.0,
			"-0.019": 0.0,
			"-0.018": 0.0,
			"-0.017": 0.0,
			"-0.016": 0.0,
			"-0.015": 0.0,
			"-0.014": 0.630190567765,
			"-0.013": 1.65814388898,
			"-0.012": 1.18973241228,
			"-0.011": 1.59928535898,
			"-0.01": 1.50055825274,
			"-0.009": 1.73751843088,
			"-0.008": 2.421940055,
			"-0.007": 7.47640020405,
			"-0.006": 17.1806845072,
			"-0.005": 22.1131141412,
			"-0.004": 28.1616343541,
			"-0.003": 27.5743425288,
			"-0.002": 26.6068466728,
			"-0.001": 29.7359667455,
			"0.0": 38.6559836894,
			"0.001": 38.0953788972,
			"0.002": 42.2639255666,
			"0.003": 45.8326722742,
			"0.004": 14.2058988317,
			"0.005": 4.29154183054,
			"0.006": 3.46848165227,
			"0.007": 3.23285377285,
			"0.008": 3.20087019391,
			"0.009": 2.98771024229,
			"0.01": 2.73037485947,
			"0.011": 3.75344041702,
			"0.012": 6.77010629102,
			"0.013": 5.21257305679,
			"0.014": 0.253476769498,
			"0.015": 0.0,
			"0.016": 0.0,
			"0.017": 0.0,
			"0.018": 0.0,
			"0.019": 0.0,
			"0.02": 0.0,
			"0.021": 0.0,
			"0.022": 0.0,
			"0.023": 0.0,
			"0.024": 0.0,
			"0.025": 0.0
		}
	}
}
