{
	 "smiles": "CSC1=NC(NC(C)C)=NC(NC(C)C)=N1", 
	 "Tm": 392.15, 
	 "num_atms": 35, 
	 "gaussian": { 
		 "optdone": 1, 
		 "sigma_profile": "yes", 
		 "theory": "DFT", 
		 "functional": "B3LYP", 
		 "basiset": "6-31G**", 
		 "properties": { 
			 "R2extent": 6164.8485, 
			 "electric_dipole_moment_norm": 3.10641184649, 
			 "electric_quadrupole_moment_norm": 15.9913914876, 
			 "total_energy": -1064.52385698, 
			 "HOMO_LUMO_gap": 0.2185, 
			 "cosmo_polarized_energy": -11.91, 
			 "cosmo_cavitation_energy": 38.92, 
			 "cosmo_dispersion_energy": -27.15, 
			 "cosmo_repulsion_energy": 2.14, 
			 "cosmo_total_nonelectrostatic_energy": 13.91, 
			 "SMD_solvation_energy": 3.63 
		},
		"coords": [
			{
				"x": -2.3721968436,
				"y": -0.9223557296,
				"z": -5.4171266143,
				"element": "C" 
			},
			{
				"x": -1.0006524085,
				"y": -1.9435328929,
				"z": -4.781656537,
				"element": "S" 
			},
			{
				"x": -0.6453833951,
				"y": -1.142481036,
				"z": -3.2373312227,
				"element": "C" 
			},
			{
				"x": -1.3609117017,
				"y": -0.0796005074,
				"z": -2.8790740999,
				"element": "N" 
			},
			{
				"x": -0.9940963916,
				"y": 0.4474342531,
				"z": -1.6824928499,
				"element": "C" 
			},
			{
				"x": -1.7097011017,
				"y": 1.5326706883,
				"z": -1.2967981059,
				"element": "N" 
			},
			{
				"x": -1.5931757898,
				"y": 2.309263422,
				"z": -0.055210187,
				"element": "C" 
			},
			{
				"x": -1.9326619331,
				"y": 1.4733208607,
				"z": 1.1879445039,
				"element": "C" 
			},
			{
				"x": -0.2343079288,
				"y": 3.0145197521,
				"z": 0.0653355163,
				"element": "C" 
			},
			{
				"x": -0.0091268511,
				"y": -0.0137344091,
				"z": -0.8954793123,
				"element": "N" 
			},
			{
				"x": 0.6229997986,
				"y": -1.0982487766,
				"z": -1.3830637646,
				"element": "C" 
			},
			{
				"x": 1.615866432,
				"y": -1.6571067308,
				"z": -0.6478842569,
				"element": "N" 
			},
			{
				"x": 2.1807004746,
				"y": -1.1096532654,
				"z": 0.582934955,
				"element": "C" 
			},
			{
				"x": 3.2924519205,
				"y": -0.0899453714,
				"z": 0.2906133425,
				"element": "C" 
			},
			{
				"x": 2.6728644914,
				"y": -2.2613851373,
				"z": 1.4649109668,
				"element": "C" 
			},
			{
				"x": 0.3505700518,
				"y": -1.7102081005,
				"z": -2.5562540704,
				"element": "N" 
			},
			{
				"x": -2.0536172068,
				"y": 0.1109466083,
				"z": -5.5569529288,
				"element": "H" 
			},
			{
				"x": -3.2238891637,
				"y": -0.9509192537,
				"z": -4.7369980111,
				"element": "H" 
			},
			{
				"x": -2.6485205766,
				"y": -1.360539632,
				"z": -6.3788979517,
				"element": "H" 
			},
			{
				"x": -2.4292013027,
				"y": 1.7864255407,
				"z": -1.9566972621,
				"element": "H" 
			},
			{
				"x": -2.3621181174,
				"y": 3.0846874531,
				"z": -0.1556900822,
				"element": "H" 
			},
			{
				"x": -2.926865849,
				"y": 1.0257150965,
				"z": 1.0941042253,
				"element": "H" 
			},
			{
				"x": -1.2035516582,
				"y": 0.6716245344,
				"z": 1.321192433,
				"element": "H" 
			},
			{
				"x": -1.9244911679,
				"y": 2.1070267996,
				"z": 2.081064227,
				"element": "H" 
			},
			{
				"x": -0.039872398,
				"y": 3.6327637233,
				"z": -0.8163934665,
				"element": "H" 
			},
			{
				"x": -0.2252648104,
				"y": 3.6626314653,
				"z": 0.9480763109,
				"element": "H" 
			},
			{
				"x": 0.5698277706,
				"y": 2.2823761627,
				"z": 0.1598349015,
				"element": "H" 
			},
			{
				"x": 2.0940286699,
				"y": -2.4179779356,
				"z": -1.1104216006,
				"element": "H" 
			},
			{
				"x": 1.3609178161,
				"y": -0.5936631245,
				"z": 1.0900705505,
				"element": "H" 
			},
			{
				"x": 4.1313211753,
				"y": -0.5658135999,
				"z": -0.230281097,
				"element": "H" 
			},
			{
				"x": 3.6740386507,
				"y": 0.3461978577,
				"z": 1.220270979,
				"element": "H" 
			},
			{
				"x": 2.9132405705,
				"y": 0.7195951456,
				"z": -0.3389589241,
				"element": "H" 
			},
			{
				"x": 1.8604967385,
				"y": -2.9574647919,
				"z": 1.6926988359,
				"element": "H" 
			},
			{
				"x": 3.4749827709,
				"y": -2.8216894791,
				"z": 0.9683439082,
				"element": "H" 
			},
			{
				"x": 3.0752992643,
				"y": -1.8775795897,
				"z": 2.4070666891,
				"element": "H" 
			}
		],
		 "valence_orbital": [ 
			{
				"type": "occ",
				"energy": -0.25532,
				"method": "rhf"
			},
			{
				"type": "occ",
				"energy": -0.24898,
				"method": "rhf"
			},
			{
				"type": "occ",
				"energy": -0.2362,
				"method": "rhf"
			},
			{
				"type": "occ",
				"energy": -0.22549,
				"method": "rhf"
			},
			{
				"type": "occ",
				"energy": -0.22014,
				"method": "rhf"
			},
			{
				"type": "unocc",
				"energy": -0.00164,
				"method": "rhf"
			},
			{
				"type": "unocc",
				"energy": 0.0135,
				"method": "rhf"
			},
			{
				"type": "unocc",
				"energy": 0.04989,
				"method": "rhf"
			},
			{
				"type": "unocc",
				"energy": 0.07569,
				"method": "rhf"
			},
			{
				"type": "unocc",
				"energy": 0.08265,
				"method": "rhf"
			}
		],
		"cosmo_sigma_profile": { 
			"-0.025": 0.0,
			"-0.024": 0.0,
			"-0.023": 0.0,
			"-0.022": 0.0,
			"-0.021": 0.0,
			"-0.02": 0.0,
			"-0.019": 0.0,
			"-0.018": 0.0,
			"-0.017": 0.0,
			"-0.016": 0.0,
			"-0.015": 0.0,
			"-0.014": 0.101152562364,
			"-0.013": 1.52170325683,
			"-0.012": 1.81776666847,
			"-0.011": 1.81605819383,
			"-0.01": 1.64817391994,
			"-0.009": 2.04090982316,
			"-0.008": 1.59467215225,
			"-0.007": 3.65397051422,
			"-0.006": 5.91836948033,
			"-0.005": 8.47117198345,
			"-0.004": 14.7812007312,
			"-0.003": 31.3175416405,
			"-0.002": 34.1052729169,
			"-0.001": 34.914647569,
			"0.0": 36.3074114607,
			"0.001": 36.2142077125,
			"0.002": 21.198188967,
			"0.003": 14.2250677304,
			"0.004": 13.3076849387,
			"0.005": 11.6151835512,
			"0.006": 8.08484048577,
			"0.007": 7.30592380914,
			"0.008": 6.03285636158,
			"0.009": 3.31726815742,
			"0.01": 1.60658973878,
			"0.011": 0.753208842127,
			"0.012": 1.16058555409,
			"0.013": 1.00536854334,
			"0.014": 0.556519113972,
			"0.015": 0.0,
			"0.016": 0.0,
			"0.017": 0.0,
			"0.018": 0.0,
			"0.019": 0.0,
			"0.02": 0.0,
			"0.021": 0.0,
			"0.022": 0.0,
			"0.023": 0.0,
			"0.024": 0.0,
			"0.025": 0.0
		}
	}
}
