{
	 "smiles": "NC(=NO)C1CCCC1", 
	 "Tm": 348.15, 
	 "num_atms": 21, 
	 "gaussian": { 
		 "optdone": 1, 
		 "sigma_profile": "yes", 
		 "theory": "DFT", 
		 "functional": "B3LYP", 
		 "basiset": "6-31G**", 
		 "properties": { 
			 "R2extent": 1786.0326, 
			 "electric_dipole_moment_norm": 1.65184813769, 
			 "electric_quadrupole_moment_norm": 5.93671850436, 
			 "total_energy": -420.553351035, 
			 "HOMO_LUMO_gap": 0.25203, 
			 "cosmo_polarized_energy": -10.06, 
			 "cosmo_cavitation_energy": 22.66, 
			 "cosmo_dispersion_energy": -17.1, 
			 "cosmo_repulsion_energy": 1.45, 
			 "cosmo_total_nonelectrostatic_energy": 7.01, 
			 "SMD_solvation_energy": 3.45 
		},
		"coords": [
			{
				"x": 1.8669167799,
				"y": -1.0103378657,
				"z": -2.8097469967,
				"element": "N" 
			},
			{
				"x": 1.3320370727,
				"y": -1.1500032448,
				"z": -1.5470456968,
				"element": "C" 
			},
			{
				"x": 1.6695533163,
				"y": -2.0874601664,
				"z": -0.7276655137,
				"element": "N" 
			},
			{
				"x": 2.710221299,
				"y": -2.8786231233,
				"z": -1.3106833868,
				"element": "O" 
			},
			{
				"x": 0.2851547223,
				"y": -0.1328019457,
				"z": -1.1387915053,
				"element": "C" 
			},
			{
				"x": 0.9464702283,
				"y": 1.2195116128,
				"z": -0.704879218,
				"element": "C" 
			},
			{
				"x": 0.8667844721,
				"y": 1.2141187821,
				"z": 0.8291693988,
				"element": "C" 
			},
			{
				"x": -0.5111097722,
				"y": 0.590725442,
				"z": 1.0950044305,
				"element": "C" 
			},
			{
				"x": -0.5914592562,
				"y": -0.5657986433,
				"z": 0.0757772966,
				"element": "C" 
			},
			{
				"x": 1.8204788943,
				"y": -0.093837953,
				"z": -3.2279266667,
				"element": "H" 
			},
			{
				"x": 2.7256627129,
				"y": -1.5193535401,
				"z": -2.9666066657,
				"element": "H" 
			},
			{
				"x": 2.8816180009,
				"y": -3.5205320291,
				"z": -0.6118714922,
				"element": "H" 
			},
			{
				"x": -0.339616871,
				"y": 0.0347331498,
				"z": -2.0246096613,
				"element": "H" 
			},
			{
				"x": 1.9674233101,
				"y": 1.3321512795,
				"z": -1.0845628325,
				"element": "H" 
			},
			{
				"x": 0.3582790994,
				"y": 2.0565448069,
				"z": -1.100526008,
				"element": "H" 
			},
			{
				"x": 1.6524673498,
				"y": 0.5674669741,
				"z": 1.2383483801,
				"element": "H" 
			},
			{
				"x": 0.9907637775,
				"y": 2.2100708478,
				"z": 1.266902354,
				"element": "H" 
			},
			{
				"x": -0.6401246689,
				"y": 0.2493831765,
				"z": 2.1270523853,
				"element": "H" 
			},
			{
				"x": -1.2944761262,
				"y": 1.3344902776,
				"z": 0.8984218553,
				"element": "H" 
			},
			{
				"x": -0.1757853845,
				"y": -1.4790225952,
				"z": 0.505723808,
				"element": "H" 
			},
			{
				"x": -1.6186589563,
				"y": -0.7844252426,
				"z": -0.2304842649,
				"element": "H" 
			}
		],
		 "valence_orbital": [ 
			{
				"type": "occ",
				"energy": -0.32146,
				"method": "rhf"
			},
			{
				"type": "occ",
				"energy": -0.31729,
				"method": "rhf"
			},
			{
				"type": "occ",
				"energy": -0.2963,
				"method": "rhf"
			},
			{
				"type": "occ",
				"energy": -0.26146,
				"method": "rhf"
			},
			{
				"type": "occ",
				"energy": -0.206,
				"method": "rhf"
			},
			{
				"type": "unocc",
				"energy": 0.04603,
				"method": "rhf"
			},
			{
				"type": "unocc",
				"energy": 0.07461,
				"method": "rhf"
			},
			{
				"type": "unocc",
				"energy": 0.08562,
				"method": "rhf"
			},
			{
				"type": "unocc",
				"energy": 0.10665,
				"method": "rhf"
			},
			{
				"type": "unocc",
				"energy": 0.11213,
				"method": "rhf"
			}
		],
		"cosmo_sigma_profile": { 
			"-0.025": 0.0,
			"-0.024": 0.0,
			"-0.023": 0.0,
			"-0.022": 0.0,
			"-0.021": 0.0,
			"-0.02": 0.0,
			"-0.019": 0.0,
			"-0.018": 0.0,
			"-0.017": 0.0456256480727,
			"-0.016": 0.684367739891,
			"-0.015": 1.24621184279,
			"-0.014": 0.663664288637,
			"-0.013": 0.963112317815,
			"-0.012": 1.75183218022,
			"-0.011": 3.04641051694,
			"-0.01": 1.6614001879,
			"-0.009": 3.68650880482,
			"-0.008": 2.76460750924,
			"-0.007": 2.86601228004,
			"-0.006": 2.75598259689,
			"-0.005": 2.91791020764,
			"-0.004": 4.64189314058,
			"-0.003": 12.3797094083,
			"-0.002": 20.6822319009,
			"-0.001": 20.5192333685,
			"0.0": 21.0149792768,
			"0.001": 20.7278934512,
			"0.002": 10.0747777111,
			"0.003": 3.31945319642,
			"0.004": 4.15928673454,
			"0.005": 3.58452646885,
			"0.006": 3.04023106026,
			"0.007": 3.75689136166,
			"0.008": 5.84806703979,
			"0.009": 5.24372580761,
			"0.01": 4.53557875651,
			"0.011": 3.02376797257,
			"0.012": 2.49234377296,
			"0.013": 0.992952830938,
			"0.014": 0.155962204577,
			"0.015": 0.0,
			"0.016": 0.0,
			"0.017": 0.0,
			"0.018": 0.0,
			"0.019": 0.0,
			"0.02": 0.0,
			"0.021": 0.0,
			"0.022": 0.0,
			"0.023": 0.0,
			"0.024": 0.0,
			"0.025": 0.0
		}
	}
}
