{
	 "smiles": "OC(=O)C1=CSC(I)=C1", 
	 "Tm": 410.15, 
	 "num_atms": 12, 
	 "gaussian": { 
		 "optdone": 1, 
		 "sigma_profile": "yes", 
		 "theory": "DFT", 
		 "functional": "B3LYP", 
		 "basiset": "6-31G**", 
		 "properties": { 
			 "R2extent": 2362.3801, 
			 "electric_dipole_moment_norm": 3.53473654747, 
			 "electric_quadrupole_moment_norm": 14.481620275, 
			 "total_energy": -752.344065065, 
			 "HOMO_LUMO_gap": 0.18792, 
			 "cosmo_polarized_energy": -13.48, 
			 "cosmo_cavitation_energy": 21.93, 
			 "cosmo_dispersion_energy": -18.26, 
			 "cosmo_repulsion_energy": 1.41, 
			 "cosmo_total_nonelectrostatic_energy": 5.08, 
			 "SMD_solvation_energy": 4.06 
		},
		"coords": [
			{
				"x": 0.3936200041,
				"y": 2.5557181005,
				"z": -0.5471469653,
				"element": "O" 
			},
			{
				"x": 0.899459693,
				"y": 2.2770088836,
				"z": 0.683336047,
				"element": "C" 
			},
			{
				"x": 0.991638797,
				"y": 3.1492704565,
				"z": 1.5139118183,
				"element": "O" 
			},
			{
				"x": 1.3175663912,
				"y": 0.8668968703,
				"z": 0.9326279802,
				"element": "C" 
			},
			{
				"x": 1.5949612505,
				"y": 0.4469389392,
				"z": 2.210929101,
				"element": "C" 
			},
			{
				"x": 2.0541252648,
				"y": -1.2112141105,
				"z": 2.262192604,
				"element": "S" 
			},
			{
				"x": 1.886022464,
				"y": -1.3560290001,
				"z": 0.532894836,
				"element": "C" 
			},
			{
				"x": 2.2864385589,
				"y": -3.1534016155,
				"z": -0.4467682823,
				"element": "I" 
			},
			{
				"x": 1.4915581552,
				"y": -0.1770873435,
				"z": -0.0373748877,
				"element": "C" 
			},
			{
				"x": 0.2634814448,
				"y": 1.7455442373,
				"z": -1.058322007,
				"element": "H" 
			},
			{
				"x": 1.5424241049,
				"y": 1.0492646901,
				"z": 3.10716746,
				"element": "H" 
			},
			{
				"x": 1.3680038717,
				"y": -0.0643101081,
				"z": -1.108647704,
				"element": "H" 
			}
		],
		 "valence_orbital": [ 
			{
				"type": "occ",
				"energy": -0.31249,
				"method": "rhf"
			},
			{
				"type": "occ",
				"energy": -0.2936,
				"method": "rhf"
			},
			{
				"type": "occ",
				"energy": -0.28639,
				"method": "rhf"
			},
			{
				"type": "occ",
				"energy": -0.28004,
				"method": "rhf"
			},
			{
				"type": "occ",
				"energy": -0.24998,
				"method": "rhf"
			},
			{
				"type": "unocc",
				"energy": -0.06206,
				"method": "rhf"
			},
			{
				"type": "unocc",
				"energy": -0.05895,
				"method": "rhf"
			},
			{
				"type": "unocc",
				"energy": -0.0211,
				"method": "rhf"
			},
			{
				"type": "unocc",
				"energy": -0.00248,
				"method": "rhf"
			},
			{
				"type": "unocc",
				"energy": 0.03526,
				"method": "rhf"
			}
		],
		"cosmo_sigma_profile": { 
			"-0.025": 0.0,
			"-0.024": 0.0,
			"-0.023": 0.0,
			"-0.022": 0.0,
			"-0.021": 0.0,
			"-0.02": 0.00237286339363,
			"-0.019": 0.811223724048,
			"-0.018": 1.03047216836,
			"-0.017": 1.16195579338,
			"-0.016": 0.82634836066,
			"-0.015": 1.59213443475,
			"-0.014": 0.657118293898,
			"-0.013": 1.11665716558,
			"-0.012": 1.26992931879,
			"-0.011": 1.3781858813,
			"-0.01": 2.11769094073,
			"-0.009": 3.8270998666,
			"-0.008": 4.92246849392,
			"-0.007": 3.99215247592,
			"-0.006": 4.22926373187,
			"-0.005": 5.72068988442,
			"-0.004": 6.40347515395,
			"-0.003": 8.89709517373,
			"-0.002": 10.9392332639,
			"-0.001": 12.8457802433,
			"0.0": 16.5339646649,
			"0.001": 25.2682091196,
			"0.002": 19.4453496558,
			"0.003": 15.4038024198,
			"0.004": 4.59625362603,
			"0.005": 2.69454726051,
			"0.006": 1.98117588518,
			"0.007": 1.9616772597,
			"0.008": 2.71036509457,
			"0.009": 3.79484435233,
			"0.01": 4.43211714566,
			"0.011": 5.51245963291,
			"0.012": 4.46222173484,
			"0.013": 1.53424678866,
			"0.014": 0.0576139349499,
			"0.015": 0.0,
			"0.016": 0.0,
			"0.017": 0.0,
			"0.018": 0.0,
			"0.019": 0.0,
			"0.02": 0.0,
			"0.021": 0.0,
			"0.022": 0.0,
			"0.023": 0.0,
			"0.024": 0.0,
			"0.025": 0.0
		}
	}
}
