{
	 "smiles": "CCC(C)C1=CC=C(C=C1)C(O)=O", 
	 "Tm": 362.15, 
	 "num_atms": 27, 
	 "gaussian": { 
		 "optdone": 1, 
		 "sigma_profile": "yes", 
		 "theory": "DFT", 
		 "functional": "B3LYP", 
		 "basiset": "6-31G**", 
		 "properties": { 
			 "R2extent": 4338.7554, 
			 "electric_dipole_moment_norm": 5.32848442711, 
			 "electric_quadrupole_moment_norm": 33.130012781, 
			 "total_energy": -578.081849393, 
			 "HOMO_LUMO_gap": 0.20871, 
			 "cosmo_polarized_energy": -13.5, 
			 "cosmo_cavitation_energy": 30.0, 
			 "cosmo_dispersion_energy": -21.37, 
			 "cosmo_repulsion_energy": 1.7, 
			 "cosmo_total_nonelectrostatic_energy": 10.34, 
			 "SMD_solvation_energy": 6.26 
		},
		"coords": [
			{
				"x": -1.5734408122,
				"y": -2.7537553728,
				"z": -0.919192662,
				"element": "C" 
			},
			{
				"x": -1.1967042204,
				"y": -1.3075409755,
				"z": -0.5789585228,
				"element": "C" 
			},
			{
				"x": 0.048041584,
				"y": -0.7768706131,
				"z": -1.3325874897,
				"element": "C" 
			},
			{
				"x": -0.1614368684,
				"y": -0.7226203828,
				"z": -2.8584151339,
				"element": "C" 
			},
			{
				"x": 0.4782945268,
				"y": 0.5752030461,
				"z": -0.7829315565,
				"element": "C" 
			},
			{
				"x": -0.3367830689,
				"y": 1.7126902853,
				"z": -0.9136288677,
				"element": "C" 
			},
			{
				"x": 0.0592909238,
				"y": 2.94399202,
				"z": -0.4049120557,
				"element": "C" 
			},
			{
				"x": 1.2814157304,
				"y": 3.0757249079,
				"z": 0.2696091284,
				"element": "C" 
			},
			{
				"x": 2.1073293509,
				"y": 1.9509949841,
				"z": 0.3938952865,
				"element": "C" 
			},
			{
				"x": 1.7073592029,
				"y": 0.7210503801,
				"z": -0.1267212506,
				"element": "C" 
			},
			{
				"x": 1.6504762164,
				"y": 4.4307307806,
				"z": 0.7895600699,
				"element": "C" 
			},
			{
				"x": 2.6073153312,
				"y": 4.4764272256,
				"z": 1.7572952489,
				"element": "O" 
			},
			{
				"x": 1.1446298692,
				"y": 5.4558041133,
				"z": 0.3959070454,
				"element": "O" 
			},
			{
				"x": -0.7344517975,
				"y": -3.4353304162,
				"z": -0.7367013186,
				"element": "H" 
			},
			{
				"x": -2.4123177102,
				"y": -3.089788652,
				"z": -0.3013699271,
				"element": "H" 
			},
			{
				"x": -1.8727501193,
				"y": -2.8670273793,
				"z": -1.9656359077,
				"element": "H" 
			},
			{
				"x": -1.0053213167,
				"y": -1.2304408923,
				"z": 0.4983784035,
				"element": "H" 
			},
			{
				"x": -2.0499854017,
				"y": -0.6473245769,
				"z": -0.7831939142,
				"element": "H" 
			},
			{
				"x": 0.869248569,
				"y": -1.4802143758,
				"z": -1.1364183062,
				"element": "H" 
			},
			{
				"x": 0.7286098391,
				"y": -0.3320611853,
				"z": -3.3609564982,
				"element": "H" 
			},
			{
				"x": -0.3657119744,
				"y": -1.7172385167,
				"z": -3.2650038522,
				"element": "H" 
			},
			{
				"x": -1.004627603,
				"y": -0.0750378319,
				"z": -3.1228794778,
				"element": "H" 
			},
			{
				"x": -1.2926657886,
				"y": 1.635203071,
				"z": -1.4237800235,
				"element": "H" 
			},
			{
				"x": -0.5647493881,
				"y": 3.8242943426,
				"z": -0.5165777439,
				"element": "H" 
			},
			{
				"x": 3.0877575559,
				"y": 2.0264991385,
				"z": 0.8592917819,
				"element": "H" 
			},
			{
				"x": 2.3651730813,
				"y": -0.1387551174,
				"z": -0.0295514823,
				"element": "H" 
			},
			{
				"x": 2.7947042885,
				"y": 3.584591993,
				"z": 2.0807790261,
				"element": "H" 
			}
		],
		 "valence_orbital": [ 
			{
				"type": "occ",
				"energy": -0.32726,
				"method": "rhf"
			},
			{
				"type": "occ",
				"energy": -0.31163,
				"method": "rhf"
			},
			{
				"type": "occ",
				"energy": -0.27155,
				"method": "rhf"
			},
			{
				"type": "occ",
				"energy": -0.2667,
				"method": "rhf"
			},
			{
				"type": "occ",
				"energy": -0.25543,
				"method": "rhf"
			},
			{
				"type": "unocc",
				"energy": -0.04672,
				"method": "rhf"
			},
			{
				"type": "unocc",
				"energy": -0.01876,
				"method": "rhf"
			},
			{
				"type": "unocc",
				"energy": 0.0507,
				"method": "rhf"
			},
			{
				"type": "unocc",
				"energy": 0.06398,
				"method": "rhf"
			},
			{
				"type": "unocc",
				"energy": 0.08016,
				"method": "rhf"
			}
		],
		"cosmo_sigma_profile": { 
			"-0.025": 0.0,
			"-0.024": 0.0,
			"-0.023": 0.0,
			"-0.022": 0.0,
			"-0.021": 0.0,
			"-0.02": 0.0,
			"-0.019": 0.0125414471686,
			"-0.018": 0.493051775381,
			"-0.017": 1.13499529394,
			"-0.016": 0.975772866704,
			"-0.015": 1.30155875658,
			"-0.014": 0.568021738125,
			"-0.013": 0.886577693329,
			"-0.012": 1.0131544048,
			"-0.011": 1.48119969997,
			"-0.01": 1.26170069201,
			"-0.009": 1.21819774063,
			"-0.008": 1.24928948939,
			"-0.007": 2.25829630111,
			"-0.006": 5.32443548178,
			"-0.005": 10.9127168369,
			"-0.004": 11.330934861,
			"-0.003": 20.3469884945,
			"-0.002": 24.1191257282,
			"-0.001": 28.10334288,
			"0.0": 29.0282037487,
			"0.001": 25.0565354128,
			"0.002": 14.1323398658,
			"0.003": 10.7933612692,
			"0.004": 11.8546466198,
			"0.005": 2.53173121701,
			"0.006": 3.22387509053,
			"0.007": 2.06343086682,
			"0.008": 2.25975043469,
			"0.009": 3.82118889586,
			"0.01": 3.7652351977,
			"0.011": 5.55222373043,
			"0.012": 5.5257088984,
			"0.013": 2.11734389239,
			"0.014": 0.163844966341,
			"0.015": 0.0,
			"0.016": 0.0,
			"0.017": 0.0,
			"0.018": 0.0,
			"0.019": 0.0,
			"0.02": 0.0,
			"0.021": 0.0,
			"0.022": 0.0,
			"0.023": 0.0,
			"0.024": 0.0,
			"0.025": 0.0
		}
	}
}
