{
	 "smiles": "CC1=NC(=CN1CCC(O)=O)[N+]([O-])=O", 
	 "Tm": 491.15, 
	 "num_atms": 23, 
	 "gaussian": { 
		 "optdone": 1, 
		 "sigma_profile": "yes", 
		 "theory": "DFT", 
		 "functional": "B3LYP", 
		 "basiset": "6-31G**", 
		 "properties": { 
			 "R2extent": 4854.7213, 
			 "electric_dipole_moment_norm": 5.62937954041, 
			 "electric_quadrupole_moment_norm": 40.9366477504, 
			 "total_energy": -737.224036911, 
			 "HOMO_LUMO_gap": 0.18507, 
			 "cosmo_polarized_energy": -30.61, 
			 "cosmo_cavitation_energy": 29.22, 
			 "cosmo_dispersion_energy": -20.43, 
			 "cosmo_repulsion_energy": 1.64, 
			 "cosmo_total_nonelectrostatic_energy": 10.43, 
			 "SMD_solvation_energy": 7.14 
		},
		"coords": [
			{
				"x": -0.4240834657,
				"y": 2.1480822396,
				"z": -0.0404021506,
				"element": "C" 
			},
			{
				"x": 0.8630735245,
				"y": 1.6806737837,
				"z": -0.637593859,
				"element": "C" 
			},
			{
				"x": 1.8541616771,
				"y": 2.4663668185,
				"z": -1.0036879115,
				"element": "N" 
			},
			{
				"x": 2.8022178686,
				"y": 1.6236614385,
				"z": -1.4990051271,
				"element": "C" 
			},
			{
				"x": 2.4090490739,
				"y": 0.3084986345,
				"z": -1.4472286499,
				"element": "C" 
			},
			{
				"x": 1.1544246095,
				"y": 0.3486727117,
				"z": -0.8923268864,
				"element": "N" 
			},
			{
				"x": 0.3297793208,
				"y": -0.8131795827,
				"z": -0.5721617677,
				"element": "C" 
			},
			{
				"x": 0.691877497,
				"y": -1.4253866007,
				"z": 0.7868608396,
				"element": "C" 
			},
			{
				"x": -0.216077379,
				"y": -2.6053053934,
				"z": 1.1148607527,
				"element": "C" 
			},
			{
				"x": 0.0564179424,
				"y": -3.2566694689,
				"z": 2.2713904287,
				"element": "O" 
			},
			{
				"x": -1.1311432203,
				"y": -2.9578902676,
				"z": 0.4135161855,
				"element": "O" 
			},
			{
				"x": 4.0665768694,
				"y": 2.0848463926,
				"z": -2.0173610606,
				"element": "N" 
			},
			{
				"x": 4.834759211,
				"y": 1.207497605,
				"z": -2.4322927779,
				"element": "O" 
			},
			{
				"x": 4.2961762462,
				"y": 3.2890519354,
				"z": -2.0115844301,
				"element": "O" 
			},
			{
				"x": -0.5930729901,
				"y": 1.7377519531,
				"z": 0.9618794287,
				"element": "H" 
			},
			{
				"x": -0.3830455067,
				"y": 3.2349521894,
				"z": 0.0366868181,
				"element": "H" 
			},
			{
				"x": -1.2865119856,
				"y": 1.8784395047,
				"z": -0.660664077,
				"element": "H" 
			},
			{
				"x": 2.8966016197,
				"y": -0.60070126,
				"z": -1.7588080043,
				"element": "H" 
			},
			{
				"x": -0.7190205895,
				"y": -0.5139127641,
				"z": -0.5783581683,
				"element": "H" 
			},
			{
				"x": 0.44888644,
				"y": -1.556460276,
				"z": -1.3632795187,
				"element": "H" 
			},
			{
				"x": 0.6017122077,
				"y": -0.6726156023,
				"z": 1.5809062277,
				"element": "H" 
			},
			{
				"x": 1.7388825956,
				"y": -1.7546422969,
				"z": 0.7903511732,
				"element": "H" 
			},
			{
				"x": 0.8185584336,
				"y": -2.8626316942,
				"z": 2.7198025346,
				"element": "H" 
			}
		],
		 "valence_orbital": [ 
			{
				"type": "occ",
				"energy": -0.29859,
				"method": "rhf"
			},
			{
				"type": "occ",
				"energy": -0.29514,
				"method": "rhf"
			},
			{
				"type": "occ",
				"energy": -0.29471,
				"method": "rhf"
			},
			{
				"type": "occ",
				"energy": -0.27861,
				"method": "rhf"
			},
			{
				"type": "occ",
				"energy": -0.2565,
				"method": "rhf"
			},
			{
				"type": "unocc",
				"energy": -0.07143,
				"method": "rhf"
			},
			{
				"type": "unocc",
				"energy": -0.01919,
				"method": "rhf"
			},
			{
				"type": "unocc",
				"energy": -0.00287,
				"method": "rhf"
			},
			{
				"type": "unocc",
				"energy": 0.02879,
				"method": "rhf"
			},
			{
				"type": "unocc",
				"energy": 0.05018,
				"method": "rhf"
			}
		],
		"cosmo_sigma_profile": { 
			"-0.025": 0.0,
			"-0.024": 0.0,
			"-0.023": 0.0,
			"-0.022": 0.0,
			"-0.021": 0.0,
			"-0.02": 0.153731618119,
			"-0.019": 1.12868757125,
			"-0.018": 1.10409376053,
			"-0.017": 1.34466647874,
			"-0.016": 1.20787514097,
			"-0.015": 1.14197966956,
			"-0.014": 0.914991735888,
			"-0.013": 1.20180421055,
			"-0.012": 0.972987575014,
			"-0.011": 3.13761924923,
			"-0.01": 4.00268677992,
			"-0.009": 5.53509873656,
			"-0.008": 12.1445490285,
			"-0.007": 15.1782262945,
			"-0.006": 12.5420204612,
			"-0.005": 11.5547595559,
			"-0.004": 13.8194095149,
			"-0.003": 11.331663719,
			"-0.002": 14.5675447091,
			"-0.001": 12.7861931671,
			"0.0": 8.92631599525,
			"0.001": 6.08698830612,
			"0.002": 5.86349345038,
			"0.003": 5.52900595759,
			"0.004": 4.19724279569,
			"0.005": 5.91707318831,
			"0.006": 6.20082245885,
			"0.007": 7.29383214756,
			"0.008": 13.3130331787,
			"0.009": 12.0838648516,
			"0.01": 11.2109653128,
			"0.011": 8.50011944025,
			"0.012": 4.77797180622,
			"0.013": 2.54732369846,
			"0.014": 1.20016448922,
			"0.015": 1.30472203858,
			"0.016": 1.00098481458,
			"0.017": 0.0614070583192,
			"0.018": 0.0,
			"0.019": 0.0,
			"0.02": 0.0,
			"0.021": 0.0,
			"0.022": 0.0,
			"0.023": 0.0,
			"0.024": 0.0,
			"0.025": 0.0
		}
	}
}
