{
	 "smiles": "NC(=S)CCC1=CC=CC=C1", 
	 "Tm": 356.15, 
	 "num_atms": 22, 
	 "gaussian": { 
		 "optdone": 1, 
		 "sigma_profile": "yes", 
		 "theory": "DFT", 
		 "functional": "B3LYP", 
		 "basiset": "6-31G**", 
		 "properties": { 
			 "R2extent": 2520.8458, 
			 "electric_dipole_moment_norm": 4.66237777749, 
			 "electric_quadrupole_moment_norm": 19.6803378472, 
			 "total_energy": -802.542033043, 
			 "HOMO_LUMO_gap": 0.17392, 
			 "cosmo_polarized_energy": -14.9, 
			 "cosmo_cavitation_energy": 27.13, 
			 "cosmo_dispersion_energy": -19.27, 
			 "cosmo_repulsion_energy": 1.52, 
			 "cosmo_total_nonelectrostatic_energy": 9.38, 
			 "SMD_solvation_energy": 3.34 
		},
		"coords": [
			{
				"x": -2.1408881472,
				"y": -0.7980813742,
				"z": 1.3851167472,
				"element": "N" 
			},
			{
				"x": -1.1536143559,
				"y": -0.7902449157,
				"z": 2.3010239972,
				"element": "C" 
			},
			{
				"x": -1.35297364,
				"y": -0.1593035861,
				"z": 3.8297735102,
				"element": "S" 
			},
			{
				"x": 0.1631662914,
				"y": -1.3726703841,
				"z": 1.8210673946,
				"element": "C" 
			},
			{
				"x": 1.1231534615,
				"y": -0.2920218152,
				"z": 1.2529950928,
				"element": "C" 
			},
			{
				"x": 0.6126138273,
				"y": 0.3826774035,
				"z": -0.0026023371,
				"element": "C" 
			},
			{
				"x": 0.0585541806,
				"y": 1.6693099482,
				"z": 0.0418024545,
				"element": "C" 
			},
			{
				"x": -0.4352914096,
				"y": 2.2770372776,
				"z": -1.1144476699,
				"element": "C" 
			},
			{
				"x": -0.3857750372,
				"y": 1.6053240939,
				"z": -2.3369153735,
				"element": "C" 
			},
			{
				"x": 0.1641090224,
				"y": 0.3225299188,
				"z": -2.3963204112,
				"element": "C" 
			},
			{
				"x": 0.6592178657,
				"y": -0.2803319303,
				"z": -1.2390640753,
				"element": "C" 
			},
			{
				"x": -1.9581474885,
				"y": -1.0439603856,
				"z": 0.4224175668,
				"element": "H" 
			},
			{
				"x": -3.0116595514,
				"y": -0.3360140661,
				"z": 1.6059381485,
				"element": "H" 
			},
			{
				"x": -0.0196985349,
				"y": -2.1350672176,
				"z": 1.0526183576,
				"element": "H" 
			},
			{
				"x": 0.6459842685,
				"y": -1.8606516859,
				"z": 2.6697570635,
				"element": "H" 
			},
			{
				"x": 1.303716092,
				"y": 0.4505228189,
				"z": 2.0360192695,
				"element": "H" 
			},
			{
				"x": 2.0813451721,
				"y": -0.7830209078,
				"z": 1.0459134301,
				"element": "H" 
			},
			{
				"x": 0.0142948896,
				"y": 2.1963740508,
				"z": 0.9912371874,
				"element": "H" 
			},
			{
				"x": -0.8570023161,
				"y": 3.2767402965,
				"z": -1.0590704914,
				"element": "H" 
			},
			{
				"x": -0.7668090507,
				"y": 2.0785452334,
				"z": -3.2372821491,
				"element": "H" 
			},
			{
				"x": 0.2160169225,
				"y": -0.2047237792,
				"z": -3.3449450587,
				"element": "H" 
			},
			{
				"x": 1.0990875379,
				"y": -1.2739689939,
				"z": -1.2970326538,
				"element": "H" 
			}
		],
		 "valence_orbital": [ 
			{
				"type": "occ",
				"energy": -0.33791,
				"method": "rhf"
			},
			{
				"type": "occ",
				"energy": -0.25765,
				"method": "rhf"
			},
			{
				"type": "occ",
				"energy": -0.25197,
				"method": "rhf"
			},
			{
				"type": "occ",
				"energy": -0.22683,
				"method": "rhf"
			},
			{
				"type": "occ",
				"energy": -0.20378,
				"method": "rhf"
			},
			{
				"type": "unocc",
				"energy": -0.02986,
				"method": "rhf"
			},
			{
				"type": "unocc",
				"energy": -0.01153,
				"method": "rhf"
			},
			{
				"type": "unocc",
				"energy": -0.00708,
				"method": "rhf"
			},
			{
				"type": "unocc",
				"energy": 0.06989,
				"method": "rhf"
			},
			{
				"type": "unocc",
				"energy": 0.08632,
				"method": "rhf"
			}
		],
		"cosmo_sigma_profile": { 
			"-0.025": 0.0,
			"-0.024": 0.0,
			"-0.023": 0.0,
			"-0.022": 0.0,
			"-0.021": 0.0,
			"-0.02": 0.0,
			"-0.019": 0.0,
			"-0.018": 0.0,
			"-0.017": 0.0,
			"-0.016": 0.0,
			"-0.015": 0.487048982609,
			"-0.014": 1.91811028702,
			"-0.013": 2.42968681387,
			"-0.012": 2.6287973005,
			"-0.011": 1.5743289971,
			"-0.01": 2.0807599534,
			"-0.009": 2.11840427904,
			"-0.008": 1.79553325623,
			"-0.007": 2.4521041918,
			"-0.006": 5.15779212496,
			"-0.005": 17.6459810608,
			"-0.004": 20.9357424222,
			"-0.003": 21.3241212321,
			"-0.002": 15.7980652532,
			"-0.001": 14.3421145745,
			"0.0": 10.3793432961,
			"0.001": 10.3372342199,
			"0.002": 10.9020301488,
			"0.003": 12.234215588,
			"0.004": 11.8925809909,
			"0.005": 11.383975833,
			"0.006": 8.20764672428,
			"0.007": 4.95461569334,
			"0.008": 4.42800263313,
			"0.009": 5.92462936002,
			"0.01": 5.5945687131,
			"0.011": 3.76755876568,
			"0.012": 3.02676354451,
			"0.013": 1.42421380217,
			"0.014": 0.00459635076162,
			"0.015": 0.0,
			"0.016": 0.0,
			"0.017": 0.0,
			"0.018": 0.0,
			"0.019": 0.0,
			"0.02": 0.0,
			"0.021": 0.0,
			"0.022": 0.0,
			"0.023": 0.0,
			"0.024": 0.0,
			"0.025": 0.0
		}
	}
}
