{
	 "smiles": "CC1=C(SC=C1)C1CC1C(O)=O", 
	 "Tm": 332.15, 
	 "num_atms": 22, 
	 "gaussian": { 
		 "optdone": 1, 
		 "sigma_profile": "yes", 
		 "theory": "DFT", 
		 "functional": "B3LYP", 
		 "basiset": "6-31G**", 
		 "properties": { 
			 "R2extent": 3433.8491, 
			 "electric_dipole_moment_norm": 4.34451685346, 
			 "electric_quadrupole_moment_norm": 10.1901042507, 
			 "total_energy": -897.591863428, 
			 "HOMO_LUMO_gap": 0.21347, 
			 "cosmo_polarized_energy": -14.41, 
			 "cosmo_cavitation_energy": 27.37, 
			 "cosmo_dispersion_energy": -19.98, 
			 "cosmo_repulsion_energy": 1.57, 
			 "cosmo_total_nonelectrostatic_energy": 8.96, 
			 "SMD_solvation_energy": 5.51 
		},
		"coords": [
			{
				"x": 0.2840478434,
				"y": 2.7691733472,
				"z": -1.3759053656,
				"element": "C" 
			},
			{
				"x": -0.4542662581,
				"y": 1.5672490286,
				"z": -1.9039598596,
				"element": "C" 
			},
			{
				"x": -0.1786610484,
				"y": 0.2598025842,
				"z": -1.5730038979,
				"element": "C" 
			},
			{
				"x": -1.2951753815,
				"y": -0.8379067714,
				"z": -2.3625946105,
				"element": "S" 
			},
			{
				"x": -2.1124176104,
				"y": 0.4720393868,
				"z": -3.1482201256,
				"element": "C" 
			},
			{
				"x": -1.5617172758,
				"y": 1.6739909772,
				"z": -2.8112156537,
				"element": "C" 
			},
			{
				"x": 0.8448277717,
				"y": -0.2654493351,
				"z": -0.6303665054,
				"element": "C" 
			},
			{
				"x": 2.3101786869,
				"y": -0.0498497993,
				"z": -0.8682528178,
				"element": "C" 
			},
			{
				"x": 1.7328657919,
				"y": -1.4411919157,
				"z": -1.0402371974,
				"element": "C" 
			},
			{
				"x": 2.0478860146,
				"y": -2.4433667701,
				"z": 0.0238133807,
				"element": "C" 
			},
			{
				"x": 2.1379863101,
				"y": -3.7382322873,
				"z": -0.378191203,
				"element": "O" 
			},
			{
				"x": 2.2165193976,
				"y": -2.1550253172,
				"z": 1.1856483691,
				"element": "O" 
			},
			{
				"x": -0.3775865339,
				"y": 3.4005000928,
				"z": -0.7710204179,
				"element": "H" 
			},
			{
				"x": 1.1308636583,
				"y": 2.4820178158,
				"z": -0.7499625302,
				"element": "H" 
			},
			{
				"x": 0.6619015772,
				"y": 3.3929707335,
				"z": -2.1943164345,
				"element": "H" 
			},
			{
				"x": -2.9427006339,
				"y": 0.2763675926,
				"z": -3.8125502449,
				"element": "H" 
			},
			{
				"x": -1.9239175132,
				"y": 2.6224815252,
				"z": -3.1942866942,
				"element": "H" 
			},
			{
				"x": 0.5589951435,
				"y": -0.3067604724,
				"z": 0.419679379,
				"element": "H" 
			},
			{
				"x": 2.9418368279,
				"y": 0.0965380183,
				"z": 0.0015900649,
				"element": "H" 
			},
			{
				"x": 2.6130341185,
				"y": 0.4656773223,
				"z": -1.7734204467,
				"element": "H" 
			},
			{
				"x": 1.618640016,
				"y": -1.7992290952,
				"z": -2.0602184423,
				"element": "H" 
			},
			{
				"x": 1.9670590976,
				"y": -3.807596661,
				"z": -1.3277087465,
				"element": "H" 
			}
		],
		 "valence_orbital": [ 
			{
				"type": "occ",
				"energy": -0.31285,
				"method": "rhf"
			},
			{
				"type": "occ",
				"energy": -0.30196,
				"method": "rhf"
			},
			{
				"type": "occ",
				"energy": -0.27404,
				"method": "rhf"
			},
			{
				"type": "occ",
				"energy": -0.24665,
				"method": "rhf"
			},
			{
				"type": "occ",
				"energy": -0.22902,
				"method": "rhf"
			},
			{
				"type": "unocc",
				"energy": -0.01555,
				"method": "rhf"
			},
			{
				"type": "unocc",
				"energy": 0.00508,
				"method": "rhf"
			},
			{
				"type": "unocc",
				"energy": 0.02894,
				"method": "rhf"
			},
			{
				"type": "unocc",
				"energy": 0.0529,
				"method": "rhf"
			},
			{
				"type": "unocc",
				"energy": 0.05501,
				"method": "rhf"
			}
		],
		"cosmo_sigma_profile": { 
			"-0.025": 0.0,
			"-0.024": 0.0,
			"-0.023": 0.0,
			"-0.022": 0.0,
			"-0.021": 0.0,
			"-0.02": 0.0,
			"-0.019": 0.805961871539,
			"-0.018": 1.02544138434,
			"-0.017": 1.24529274112,
			"-0.016": 1.00618242587,
			"-0.015": 1.59045979339,
			"-0.014": 0.790936563183,
			"-0.013": 0.722016189086,
			"-0.012": 1.02206055303,
			"-0.011": 0.775726425487,
			"-0.01": 1.52764629755,
			"-0.009": 0.741077589464,
			"-0.008": 2.66075424002,
			"-0.007": 3.9955716771,
			"-0.006": 6.95537909615,
			"-0.005": 9.23405383472,
			"-0.004": 14.4022396125,
			"-0.003": 18.8811017949,
			"-0.002": 22.157091346,
			"-0.001": 21.642066994,
			"0.0": 18.0650837352,
			"0.001": 12.747431893,
			"0.002": 10.633539093,
			"0.003": 10.3923331528,
			"0.004": 10.7507744306,
			"0.005": 13.8689096275,
			"0.006": 6.33751243041,
			"0.007": 3.15000276009,
			"0.008": 2.42066299499,
			"0.009": 3.20001148391,
			"0.01": 3.90691014748,
			"0.011": 4.37588417026,
			"0.012": 5.31745611425,
			"0.013": 2.51802444685,
			"0.014": 0.311432917291,
			"0.015": 0.0,
			"0.016": 0.0,
			"0.017": 0.0,
			"0.018": 0.0,
			"0.019": 0.0,
			"0.02": 0.0,
			"0.021": 0.0,
			"0.022": 0.0,
			"0.023": 0.0,
			"0.024": 0.0,
			"0.025": 0.0
		}
	}
}
