{
	 "smiles": "CC1=C(F)C=C(Cl)C(=C1)[N+]([O-])=O", 
	 "Tm": 317.15, 
	 "num_atms": 17, 
	 "gaussian": { 
		 "optdone": 1, 
		 "sigma_profile": "yes", 
		 "theory": "DFT", 
		 "functional": "B3LYP", 
		 "basiset": "6-31G**", 
		 "properties": { 
			 "R2extent": 2803.6282, 
			 "electric_dipole_moment_norm": 4.27982596258, 
			 "electric_quadrupole_moment_norm": 10.4781188674, 
			 "total_energy": -1034.87804847, 
			 "HOMO_LUMO_gap": 0.17717, 
			 "cosmo_polarized_energy": -8.21, 
			 "cosmo_cavitation_energy": 24.32, 
			 "cosmo_dispersion_energy": -17.82, 
			 "cosmo_repulsion_energy": 1.4, 
			 "cosmo_total_nonelectrostatic_energy": 7.9, 
			 "SMD_solvation_energy": 6.71 
		},
		"coords": [
			{
				"x": -0.7070501506,
				"y": 0.4396931717,
				"z": -2.3696678529,
				"element": "C" 
			},
			{
				"x": -0.6264110062,
				"y": 0.1608689345,
				"z": -0.8923713924,
				"element": "C" 
			},
			{
				"x": -1.5267064536,
				"y": 0.7553604962,
				"z": -0.0019005221,
				"element": "C" 
			},
			{
				"x": -2.462067657,
				"y": 1.5838586434,
				"z": -0.4992876783,
				"element": "F" 
			},
			{
				"x": -1.5002064903,
				"y": 0.5428788264,
				"z": 1.3681651661,
				"element": "C" 
			},
			{
				"x": -0.548278074,
				"y": -0.3215080714,
				"z": 1.9131531198,
				"element": "C" 
			},
			{
				"x": -0.538819091,
				"y": -0.5004808561,
				"z": 3.6441982434,
				"element": "Cl" 
			},
			{
				"x": 0.367538626,
				"y": -0.9391286528,
				"z": 1.0468521188,
				"element": "C" 
			},
			{
				"x": 0.3249536884,
				"y": -0.6830863691,
				"z": -0.3281689392,
				"element": "C" 
			},
			{
				"x": 1.4033302882,
				"y": -1.8816835,
				"z": 1.498627996,
				"element": "N" 
			},
			{
				"x": 2.4160875799,
				"y": -1.9669240849,
				"z": 0.8019769321,
				"element": "O" 
			},
			{
				"x": 1.1899457966,
				"y": -2.5386019459,
				"z": 2.5121500293,
				"element": "O" 
			},
			{
				"x": -1.6744599212,
				"y": 0.1285233289,
				"z": -2.7777385304,
				"element": "H" 
			},
			{
				"x": -0.6037596661,
				"y": 1.5102576003,
				"z": -2.5746563498,
				"element": "H" 
			},
			{
				"x": 0.0799966789,
				"y": -0.0911124622,
				"z": -2.9091850235,
				"element": "H" 
			},
			{
				"x": -2.2131626377,
				"y": 1.0505155503,
				"z": 2.0060029556,
				"element": "H" 
			},
			{
				"x": 1.0654684896,
				"y": -1.1697306093,
				"z": -0.9516502726,
				"element": "H" 
			}
		],
		 "valence_orbital": [ 
			{
				"type": "occ",
				"energy": -0.31267,
				"method": "rhf"
			},
			{
				"type": "occ",
				"energy": -0.30951,
				"method": "rhf"
			},
			{
				"type": "occ",
				"energy": -0.29711,
				"method": "rhf"
			},
			{
				"type": "occ",
				"energy": -0.28079,
				"method": "rhf"
			},
			{
				"type": "occ",
				"energy": -0.26843,
				"method": "rhf"
			},
			{
				"type": "unocc",
				"energy": -0.09126,
				"method": "rhf"
			},
			{
				"type": "unocc",
				"energy": -0.04268,
				"method": "rhf"
			},
			{
				"type": "unocc",
				"energy": -0.01376,
				"method": "rhf"
			},
			{
				"type": "unocc",
				"energy": 0.00615,
				"method": "rhf"
			},
			{
				"type": "unocc",
				"energy": 0.08966,
				"method": "rhf"
			}
		],
		"cosmo_sigma_profile": { 
			"-0.025": 0.0,
			"-0.024": 0.0,
			"-0.023": 0.0,
			"-0.022": 0.0,
			"-0.021": 0.0,
			"-0.02": 0.0,
			"-0.019": 0.0,
			"-0.018": 0.0,
			"-0.017": 0.0,
			"-0.016": 0.0,
			"-0.015": 0.0,
			"-0.014": 0.0,
			"-0.013": 0.0,
			"-0.012": 0.0,
			"-0.011": 0.0,
			"-0.01": 0.26577117502,
			"-0.009": 1.59526169466,
			"-0.008": 3.53597581166,
			"-0.007": 5.25297505579,
			"-0.006": 6.72235710342,
			"-0.005": 10.4534910337,
			"-0.004": 12.6096704911,
			"-0.003": 14.2123507223,
			"-0.002": 23.5783195303,
			"-0.001": 28.7454074081,
			"0.0": 14.6997353065,
			"0.001": 8.70567862126,
			"0.002": 11.3463880435,
			"0.003": 17.3489917257,
			"0.004": 6.58645929707,
			"0.005": 3.57866678067,
			"0.006": 4.49582976719,
			"0.007": 9.12983227574,
			"0.008": 8.88992894928,
			"0.009": 4.24649947919,
			"0.01": 1.45845775179,
			"0.011": 0.0,
			"0.012": 0.0,
			"0.013": 0.0,
			"0.014": 0.0,
			"0.015": 0.0,
			"0.016": 0.0,
			"0.017": 0.0,
			"0.018": 0.0,
			"0.019": 0.0,
			"0.02": 0.0,
			"0.021": 0.0,
			"0.022": 0.0,
			"0.023": 0.0,
			"0.024": 0.0,
			"0.025": 0.0
		}
	}
}
