{
	 "smiles": "CCC1=CC=C(C=C1)C1=NNN=N1", 
	 "Tm": 511.15, 
	 "num_atms": 23, 
	 "gaussian": { 
		 "optdone": 1, 
		 "sigma_profile": "yes", 
		 "theory": "DFT", 
		 "functional": "B3LYP", 
		 "basiset": "6-31G**", 
		 "properties": { 
			 "R2extent": 3255.6865, 
			 "electric_dipole_moment_norm": 2.10105217689, 
			 "electric_quadrupole_moment_norm": 17.5236950153, 
			 "total_energy": -567.955139618, 
			 "HOMO_LUMO_gap": 0.19467, 
			 "cosmo_polarized_energy": -11.75, 
			 "cosmo_cavitation_energy": 27.43, 
			 "cosmo_dispersion_energy": -20.22, 
			 "cosmo_repulsion_energy": 1.6, 
			 "cosmo_total_nonelectrostatic_energy": 8.82, 
			 "SMD_solvation_energy": 2.39 
		},
		"coords": [
			{
				"x": 1.4659019155,
				"y": -3.3572733635,
				"z": -2.3983949797,
				"element": "C" 
			},
			{
				"x": 0.3074938598,
				"y": -3.478264712,
				"z": -1.3910613087,
				"element": "C" 
			},
			{
				"x": -0.0066703127,
				"y": -2.1695180752,
				"z": -0.6993689031,
				"element": "C" 
			},
			{
				"x": 0.6408549533,
				"y": -1.8085989838,
				"z": 0.4907139567,
				"element": "C" 
			},
			{
				"x": 0.3851130021,
				"y": -0.5890648841,
				"z": 1.1113513356,
				"element": "C" 
			},
			{
				"x": -0.5355809212,
				"y": 0.3074249916,
				"z": 0.5497674247,
				"element": "C" 
			},
			{
				"x": -1.1912340389,
				"y": -0.0430062725,
				"z": -0.6396935795,
				"element": "C" 
			},
			{
				"x": -0.926617517,
				"y": -1.2651569588,
				"z": -1.2502073743,
				"element": "C" 
			},
			{
				"x": -0.8067325729,
				"y": 1.5888699322,
				"z": 1.2063380989,
				"element": "C" 
			},
			{
				"x": -1.666116489,
				"y": 2.5058661273,
				"z": 0.7510509147,
				"element": "N" 
			},
			{
				"x": -1.5463031658,
				"y": 3.4506820713,
				"z": 1.6772678488,
				"element": "N" 
			},
			{
				"x": -0.6852416572,
				"y": 3.1745672014,
				"z": 2.6513767558,
				"element": "N" 
			},
			{
				"x": -0.2056752578,
				"y": 1.9932641384,
				"z": 2.3660323698,
				"element": "N" 
			},
			{
				"x": 1.2310396589,
				"y": -2.6279259984,
				"z": -3.18033087,
				"element": "H" 
			},
			{
				"x": 2.3839990374,
				"y": -3.0266907426,
				"z": -1.9021467426,
				"element": "H" 
			},
			{
				"x": 1.6670871763,
				"y": -4.3197855848,
				"z": -2.8801870342,
				"element": "H" 
			},
			{
				"x": -0.5868492401,
				"y": -3.8403366736,
				"z": -1.9120249085,
				"element": "H" 
			},
			{
				"x": 0.5602479843,
				"y": -4.2365821763,
				"z": -0.640536887,
				"element": "H" 
			},
			{
				"x": 1.3536100989,
				"y": -2.4961051495,
				"z": 0.9398678036,
				"element": "H" 
			},
			{
				"x": 0.8890552737,
				"y": -0.3215158553,
				"z": 2.0340780416,
				"element": "H" 
			},
			{
				"x": -1.9085879247,
				"y": 0.6448266051,
				"z": -1.0755973102,
				"element": "H" 
			},
			{
				"x": -1.4456919508,
				"y": -1.5258691712,
				"z": -2.1695033298,
				"element": "H" 
			},
			{
				"x": -2.0688019122,
				"y": 4.3155935342,
				"z": 1.6478086776,
				"element": "H" 
			}
		],
		 "valence_orbital": [ 
			{
				"type": "occ",
				"energy": -0.31859,
				"method": "rhf"
			},
			{
				"type": "occ",
				"energy": -0.30987,
				"method": "rhf"
			},
			{
				"type": "occ",
				"energy": -0.29078,
				"method": "rhf"
			},
			{
				"type": "occ",
				"energy": -0.25306,
				"method": "rhf"
			},
			{
				"type": "occ",
				"energy": -0.23259,
				"method": "rhf"
			},
			{
				"type": "unocc",
				"energy": -0.03792,
				"method": "rhf"
			},
			{
				"type": "unocc",
				"energy": -0.02175,
				"method": "rhf"
			},
			{
				"type": "unocc",
				"energy": -0.0013,
				"method": "rhf"
			},
			{
				"type": "unocc",
				"energy": 0.06521,
				"method": "rhf"
			},
			{
				"type": "unocc",
				"energy": 0.06635,
				"method": "rhf"
			}
		],
		"cosmo_sigma_profile": { 
			"-0.025": 0.0,
			"-0.024": 0.0,
			"-0.023": 0.0,
			"-0.022": 0.0,
			"-0.021": 0.0,
			"-0.02": 0.372980317311,
			"-0.019": 2.09833832587,
			"-0.018": 1.27616728952,
			"-0.017": 0.908124512066,
			"-0.016": 0.794776628876,
			"-0.015": 1.4239341413,
			"-0.014": 1.06105299153,
			"-0.013": 0.223576861682,
			"-0.012": 0.641877951777,
			"-0.011": 1.1350406716,
			"-0.01": 0.817811430639,
			"-0.009": 1.08568628397,
			"-0.008": 0.49412270427,
			"-0.007": 0.295677255721,
			"-0.006": 3.04697108978,
			"-0.005": 8.81179434786,
			"-0.004": 14.1179475361,
			"-0.003": 20.2023600237,
			"-0.002": 19.6310551042,
			"-0.001": 20.3036327581,
			"0.0": 21.1207648887,
			"0.001": 22.242101885,
			"0.002": 15.9839360411,
			"0.003": 11.0306088019,
			"0.004": 13.1053849304,
			"0.005": 11.1766744539,
			"0.006": 4.03648469607,
			"0.007": 3.70464429228,
			"0.008": 3.66198235514,
			"0.009": 4.29226090986,
			"0.01": 4.24539373,
			"0.011": 2.70880880297,
			"0.012": 1.65035879133,
			"0.013": 0.796684683718,
			"0.014": 0.158358138603,
			"0.015": 0.0,
			"0.016": 0.0,
			"0.017": 0.0,
			"0.018": 0.0,
			"0.019": 0.0,
			"0.02": 0.0,
			"0.021": 0.0,
			"0.022": 0.0,
			"0.023": 0.0,
			"0.024": 0.0,
			"0.025": 0.0
		}
	}
}
