{
	 "smiles": "CC1=CC=C(C=C1)S(=O)(=O)NC(C(NS(=O)(=O)C1=CC=C(C)C=C1)C1=CC=CC=C1)C1=CC=CC=C1", 
	 "Tm": 479.15, 
	 "num_atms": 64, 
	 "gaussian": { 
		 "optdone": 1, 
		 "sigma_profile": "yes", 
		 "theory": "DFT", 
		 "functional": "B3LYP", 
		 "basiset": "6-31G**", 
		 "properties": { 
			 "R2extent": 19269.2066, 
			 "electric_dipole_moment_norm": 6.90848486645, 
			 "electric_quadrupole_moment_norm": 29.631653645, 
			 "total_energy": -2290.50743078, 
			 "HOMO_LUMO_gap": 0.2026, 
			 "cosmo_polarized_energy": -26.11, 
			 "cosmo_cavitation_energy": 68.67, 
			 "cosmo_dispersion_energy": -42.85, 
			 "cosmo_repulsion_energy": 3.16, 
			 "cosmo_total_nonelectrostatic_energy": 28.98, 
			 "SMD_solvation_energy": 9.79 
		},
		"coords": [
			{
				"x": 0.6604288672,
				"y": -4.6337604058,
				"z": 4.5041397886,
				"element": "C" 
			},
			{
				"x": -0.0715023301,
				"y": -3.3925009032,
				"z": 4.054177974,
				"element": "C" 
			},
			{
				"x": -0.7410092589,
				"y": -3.3680353387,
				"z": 2.8196243243,
				"element": "C" 
			},
			{
				"x": -1.445886849,
				"y": -2.2438801028,
				"z": 2.399742558,
				"element": "C" 
			},
			{
				"x": -1.4706807838,
				"y": -1.1167941841,
				"z": 3.2277095725,
				"element": "C" 
			},
			{
				"x": -0.8164251037,
				"y": -1.1100187839,
				"z": 4.4591264571,
				"element": "C" 
			},
			{
				"x": -0.1194749759,
				"y": -2.2496473041,
				"z": 4.8620862661,
				"element": "C" 
			},
			{
				"x": -2.3980723852,
				"y": 0.3341126266,
				"z": 2.7384433152,
				"element": "S" 
			},
			{
				"x": -2.3223701159,
				"y": 1.2994793719,
				"z": 3.843131661,
				"element": "O" 
			},
			{
				"x": -3.6963182554,
				"y": -0.0874018575,
				"z": 2.1957784072,
				"element": "O" 
			},
			{
				"x": -1.5025820204,
				"y": 0.9426145271,
				"z": 1.4153071877,
				"element": "N" 
			},
			{
				"x": -2.2907920144,
				"y": 1.4900283863,
				"z": 0.2780348904,
				"element": "C" 
			},
			{
				"x": -2.6170714374,
				"y": 0.3441388376,
				"z": -0.7419017706,
				"element": "C" 
			},
			{
				"x": -1.3899090552,
				"y": -0.0376690101,
				"z": -1.4424480488,
				"element": "N" 
			},
			{
				"x": -1.1298257865,
				"y": -1.6277196044,
				"z": -1.9259964163,
				"element": "S" 
			},
			{
				"x": -1.356512002,
				"y": -1.787458955,
				"z": -3.3682424282,
				"element": "O" 
			},
			{
				"x": -1.8561803262,
				"y": -2.4674932824,
				"z": -0.9634411054,
				"element": "O" 
			},
			{
				"x": 0.6347794856,
				"y": -1.7910492734,
				"z": -1.6527266592,
				"element": "C" 
			},
			{
				"x": 1.1748995717,
				"y": -1.5210744467,
				"z": -0.3904203801,
				"element": "C" 
			},
			{
				"x": 2.5387707325,
				"y": -1.7017873393,
				"z": -0.1878973715,
				"element": "C" 
			},
			{
				"x": 3.3759340657,
				"y": -2.1548247229,
				"z": -1.2224198943,
				"element": "C" 
			},
			{
				"x": 4.8533983442,
				"y": -2.3484781379,
				"z": -0.9795059508,
				"element": "C" 
			},
			{
				"x": 2.8060709798,
				"y": -2.4206586371,
				"z": -2.4725137011,
				"element": "C" 
			},
			{
				"x": 1.439070138,
				"y": -2.2436295686,
				"z": -2.6961916337,
				"element": "C" 
			},
			{
				"x": -3.8038686527,
				"y": 0.7125703202,
				"z": -1.6313274469,
				"element": "C" 
			},
			{
				"x": -3.6957240036,
				"y": 0.9135549204,
				"z": -3.010505297,
				"element": "C" 
			},
			{
				"x": -4.8156667344,
				"y": 1.2671633006,
				"z": -3.768200145,
				"element": "C" 
			},
			{
				"x": -6.0590543933,
				"y": 1.4208446523,
				"z": -3.1575676423,
				"element": "C" 
			},
			{
				"x": -6.1809792263,
				"y": 1.2052736346,
				"z": -1.7822774085,
				"element": "C" 
			},
			{
				"x": -5.064618551,
				"y": 0.8515744588,
				"z": -1.0269515119,
				"element": "C" 
			},
			{
				"x": -1.5493384206,
				"y": 2.6600053739,
				"z": -0.346671741,
				"element": "C" 
			},
			{
				"x": -2.2714313237,
				"y": 3.7843526518,
				"z": -0.7710875375,
				"element": "C" 
			},
			{
				"x": -1.6223767108,
				"y": 4.8652831069,
				"z": -1.3678260474,
				"element": "C" 
			},
			{
				"x": -0.237705214,
				"y": 4.8421549782,
				"z": -1.544485704,
				"element": "C" 
			},
			{
				"x": 0.4921127118,
				"y": 3.7291404289,
				"z": -1.1250404178,
				"element": "C" 
			},
			{
				"x": -0.1575052303,
				"y": 2.6433302058,
				"z": -0.5339679846,
				"element": "C" 
			},
			{
				"x": -0.0440181462,
				"y": -5.3948405056,
				"z": 4.861232649,
				"element": "H" 
			},
			{
				"x": 1.3539099857,
				"y": -4.4175446182,
				"z": 5.3213571423,
				"element": "H" 
			},
			{
				"x": 1.2282832661,
				"y": -5.0820698658,
				"z": 3.6826649758,
				"element": "H" 
			},
			{
				"x": -0.7132448717,
				"y": -4.24227082,
				"z": 2.1748439037,
				"element": "H" 
			},
			{
				"x": -1.952176618,
				"y": -2.2511028526,
				"z": 1.440317369,
				"element": "H" 
			},
			{
				"x": -0.863021043,
				"y": -0.2274273788,
				"z": 5.0871455945,
				"element": "H" 
			},
			{
				"x": 0.3913474088,
				"y": -2.2493805697,
				"z": 5.8213086138,
				"element": "H" 
			},
			{
				"x": -0.8625913813,
				"y": 1.6396411089,
				"z": 1.7903721724,
				"element": "H" 
			},
			{
				"x": -3.2562401782,
				"y": 1.8587467052,
				"z": 0.6337646003,
				"element": "H" 
			},
			{
				"x": -2.9096434312,
				"y": -0.5183908416,
				"z": -0.1415459666,
				"element": "H" 
			},
			{
				"x": -1.0751955537,
				"y": 0.6157498543,
				"z": -2.1534392335,
				"element": "H" 
			},
			{
				"x": 0.5367615621,
				"y": -1.1640697298,
				"z": 0.4108158646,
				"element": "H" 
			},
			{
				"x": 2.9642148721,
				"y": -1.4895421253,
				"z": 0.7897816937,
				"element": "H" 
			},
			{
				"x": 5.0308777777,
				"y": -3.1089422127,
				"z": -0.2103409485,
				"element": "H" 
			},
			{
				"x": 5.3712778203,
				"y": -2.6649254017,
				"z": -1.8884888294,
				"element": "H" 
			},
			{
				"x": 5.3228273761,
				"y": -1.4224442383,
				"z": -0.6289627357,
				"element": "H" 
			},
			{
				"x": 3.4371124968,
				"y": -2.7706252333,
				"z": -3.2849637783,
				"element": "H" 
			},
			{
				"x": 0.9954775609,
				"y": -2.4470689563,
				"z": -3.6644411252,
				"element": "H" 
			},
			{
				"x": -2.7476668477,
				"y": 0.7618479968,
				"z": -3.5156991264,
				"element": "H" 
			},
			{
				"x": -4.7118783685,
				"y": 1.4132889603,
				"z": -4.8395863131,
				"element": "H" 
			},
			{
				"x": -6.9291853474,
				"y": 1.6928159285,
				"z": -3.7481589945,
				"element": "H" 
			},
			{
				"x": -7.1487196222,
				"y": 1.3023285231,
				"z": -1.2982343952,
				"element": "H" 
			},
			{
				"x": -5.1689663249,
				"y": 0.6626824433,
				"z": 0.0386701225,
				"element": "H" 
			},
			{
				"x": -3.3482815524,
				"y": 3.8104653758,
				"z": -0.6321728557,
				"element": "H" 
			},
			{
				"x": -2.1988930787,
				"y": 5.7282890567,
				"z": -1.6879119937,
				"element": "H" 
			},
			{
				"x": 0.2687427937,
				"y": 5.686347859,
				"z": -2.003286622,
				"element": "H" 
			},
			{
				"x": 1.5698767321,
				"y": 3.7021424785,
				"z": -1.2586478942,
				"element": "H" 
			},
			{
				"x": 0.4166289769,
				"y": 1.7756591351,
				"z": -0.2243820472,
				"element": "H" 
			}
		],
		 "valence_orbital": [ 
			{
				"type": "occ",
				"energy": -0.25715,
				"method": "rhf"
			},
			{
				"type": "occ",
				"energy": -0.25413,
				"method": "rhf"
			},
			{
				"type": "occ",
				"energy": -0.25034,
				"method": "rhf"
			},
			{
				"type": "occ",
				"energy": -0.24488,
				"method": "rhf"
			},
			{
				"type": "occ",
				"energy": -0.23927,
				"method": "rhf"
			},
			{
				"type": "unocc",
				"energy": -0.03667,
				"method": "rhf"
			},
			{
				"type": "unocc",
				"energy": -0.03518,
				"method": "rhf"
			},
			{
				"type": "unocc",
				"energy": -0.01961,
				"method": "rhf"
			},
			{
				"type": "unocc",
				"energy": -0.01584,
				"method": "rhf"
			},
			{
				"type": "unocc",
				"energy": -0.01512,
				"method": "rhf"
			}
		],
		"cosmo_sigma_profile": { 
			"-0.025": 0.0,
			"-0.024": 0.0,
			"-0.023": 0.0,
			"-0.022": 0.0,
			"-0.021": 0.0,
			"-0.02": 0.0,
			"-0.019": 0.0,
			"-0.018": 0.0,
			"-0.017": 0.0,
			"-0.016": 0.0,
			"-0.015": 0.00165879748839,
			"-0.014": 0.535876706709,
			"-0.013": 1.50079032103,
			"-0.012": 1.79904442673,
			"-0.011": 2.20548167118,
			"-0.01": 1.54484852612,
			"-0.009": 1.85969867239,
			"-0.008": 2.39152992232,
			"-0.007": 5.44421071629,
			"-0.006": 26.8596710072,
			"-0.005": 42.5431863825,
			"-0.004": 49.9307187593,
			"-0.003": 43.8017409654,
			"-0.002": 42.5093242784,
			"-0.001": 48.4661273812,
			"0.0": 44.5557848959,
			"0.001": 38.1949830139,
			"0.002": 39.7830471119,
			"0.003": 45.4623884911,
			"0.004": 28.6362805294,
			"0.005": 23.5217013668,
			"0.006": 9.2356385095,
			"0.007": 5.4305340975,
			"0.008": 6.51107901345,
			"0.009": 6.97402345425,
			"0.01": 11.2789935043,
			"0.011": 12.2119696565,
			"0.012": 4.80368327512,
			"0.013": 0.0,
			"0.014": 0.0,
			"0.015": 0.0,
			"0.016": 0.0,
			"0.017": 0.0,
			"0.018": 0.0,
			"0.019": 0.0,
			"0.02": 0.0,
			"0.021": 0.0,
			"0.022": 0.0,
			"0.023": 0.0,
			"0.024": 0.0,
			"0.025": 0.0
		}
	}
}
