{
	 "smiles": "N=C1NS(=O)(=O)CC2=C1C=CC=C2", 
	 "Tm": 538.15, 
	 "num_atms": 21, 
	 "gaussian": { 
		 "optdone": 1, 
		 "sigma_profile": "yes", 
		 "theory": "DFT", 
		 "functional": "B3LYP", 
		 "basiset": "6-31G**", 
		 "properties": { 
			 "R2extent": 3052.463, 
			 "electric_dipole_moment_norm": 5.7175327721, 
			 "electric_quadrupole_moment_norm": 15.4116895437, 
			 "total_energy": -967.737963327, 
			 "HOMO_LUMO_gap": 0.19541, 
			 "cosmo_polarized_energy": -18.29, 
			 "cosmo_cavitation_energy": 25.81, 
			 "cosmo_dispersion_energy": -19.91, 
			 "cosmo_repulsion_energy": 1.5, 
			 "cosmo_total_nonelectrostatic_energy": 7.4, 
			 "SMD_solvation_energy": 2.38 
		},
		"coords": [
			{
				"x": -0.0823520496,
				"y": -0.4920987053,
				"z": 2.0660487681,
				"element": "N" 
			},
			{
				"x": -0.6810087837,
				"y": -0.3557340013,
				"z": 0.9448911251,
				"element": "C" 
			},
			{
				"x": -2.0824690428,
				"y": -0.276938264,
				"z": 1.001002958,
				"element": "N" 
			},
			{
				"x": -3.049252599,
				"y": 0.3792763646,
				"z": -0.2243320948,
				"element": "S" 
			},
			{
				"x": -4.4174355109,
				"y": -0.0220221401,
				"z": 0.0993771041,
				"element": "O" 
			},
			{
				"x": -2.731828065,
				"y": 1.7815223044,
				"z": -0.4938128411,
				"element": "O" 
			},
			{
				"x": -2.3578483515,
				"y": -0.6362832604,
				"z": -1.5471728364,
				"element": "C" 
			},
			{
				"x": -0.855216249,
				"y": -0.4766626782,
				"z": -1.5974428366,
				"element": "C" 
			},
			{
				"x": -0.0773960751,
				"y": -0.3416696855,
				"z": -0.4262191538,
				"element": "C" 
			},
			{
				"x": 1.3087401405,
				"y": -0.1712718355,
				"z": -0.5553808622,
				"element": "C" 
			},
			{
				"x": 1.9256409843,
				"y": -0.1678842969,
				"z": -1.8018279357,
				"element": "C" 
			},
			{
				"x": 1.1555277819,
				"y": -0.3221409349,
				"z": -2.9549807467,
				"element": "C" 
			},
			{
				"x": -0.2258187374,
				"y": -0.4637686858,
				"z": -2.8463315807,
				"element": "C" 
			},
			{
				"x": 0.9164694618,
				"y": -0.647707726,
				"z": 1.9432982516,
				"element": "H" 
			},
			{
				"x": -2.473092814,
				"y": -0.2190466074,
				"z": 1.9370740415,
				"element": "H" 
			},
			{
				"x": -2.8291826043,
				"y": -0.3062588236,
				"z": -2.4759721155,
				"element": "H" 
			},
			{
				"x": -2.6754542013,
				"y": -1.6605559969,
				"z": -1.3284021905,
				"element": "H" 
			},
			{
				"x": 1.9133372365,
				"y": -0.0159600321,
				"z": 0.3324507424,
				"element": "H" 
			},
			{
				"x": 3.0003292108,
				"y": -0.0329408678,
				"z": -1.8727452496,
				"element": "H" 
			},
			{
				"x": 1.6241882326,
				"y": -0.3144096501,
				"z": -3.9342285866,
				"element": "H" 
			},
			{
				"x": -0.8305779646,
				"y": -0.5623444772,
				"z": -3.7434939608,
				"element": "H" 
			}
		],
		 "valence_orbital": [ 
			{
				"type": "occ",
				"energy": -0.31009,
				"method": "rhf"
			},
			{
				"type": "occ",
				"energy": -0.2856,
				"method": "rhf"
			},
			{
				"type": "occ",
				"energy": -0.28207,
				"method": "rhf"
			},
			{
				"type": "occ",
				"energy": -0.27492,
				"method": "rhf"
			},
			{
				"type": "occ",
				"energy": -0.25723,
				"method": "rhf"
			},
			{
				"type": "unocc",
				"energy": -0.06182,
				"method": "rhf"
			},
			{
				"type": "unocc",
				"energy": -0.03346,
				"method": "rhf"
			},
			{
				"type": "unocc",
				"energy": 0.03053,
				"method": "rhf"
			},
			{
				"type": "unocc",
				"energy": 0.05375,
				"method": "rhf"
			},
			{
				"type": "unocc",
				"energy": 0.06225,
				"method": "rhf"
			}
		],
		"cosmo_sigma_profile": { 
			"-0.025": 0.0,
			"-0.024": 0.0,
			"-0.023": 0.0,
			"-0.022": 0.0,
			"-0.021": 0.0,
			"-0.02": 0.0,
			"-0.019": 0.0,
			"-0.018": 0.0,
			"-0.017": 0.0,
			"-0.016": 0.673426791571,
			"-0.015": 0.898642722561,
			"-0.014": 0.676523227575,
			"-0.013": 1.3127949757,
			"-0.012": 2.13045997595,
			"-0.011": 2.38822820818,
			"-0.01": 4.39607153542,
			"-0.009": 7.27247468716,
			"-0.008": 7.61218275543,
			"-0.007": 10.2170807805,
			"-0.006": 14.6546287921,
			"-0.005": 12.0025882899,
			"-0.004": 9.16140286167,
			"-0.003": 9.16150772405,
			"-0.002": 8.24773444642,
			"-0.001": 8.64884098249,
			"0.0": 10.9559760772,
			"0.001": 12.3082121114,
			"0.002": 12.1873785351,
			"0.003": 15.156271574,
			"0.004": 6.30633168847,
			"0.005": 4.70022939902,
			"0.006": 3.33859243009,
			"0.007": 3.73234710416,
			"0.008": 4.88257022338,
			"0.009": 5.56523674454,
			"0.01": 13.1095487543,
			"0.011": 8.92809501088,
			"0.012": 1.82491661566,
			"0.013": 1.09438203813,
			"0.014": 0.973211990747,
			"0.015": 0.927813993938,
			"0.016": 0.966119458534,
			"0.017": 0.0984132437637,
			"0.018": 0.0,
			"0.019": 0.0,
			"0.02": 0.0,
			"0.021": 0.0,
			"0.022": 0.0,
			"0.023": 0.0,
			"0.024": 0.0,
			"0.025": 0.0
		}
	}
}
