{
	 "smiles": "COCCOCCOCCOCCOC", 
	 "Tm": 243.15, 
	 "num_atms": 37, 
	 "gaussian": { 
		 "optdone": 1, 
		 "sigma_profile": "yes", 
		 "theory": "DFT", 
		 "functional": "B3LYP", 
		 "basiset": "6-31G**", 
		 "properties": { 
			 "R2extent": 7618.9813, 
			 "electric_dipole_moment_norm": 2.5209491883, 
			 "electric_quadrupole_moment_norm": 19.4944508958, 
			 "total_energy": -770.356657917, 
			 "HOMO_LUMO_gap": 0.30538, 
			 "cosmo_polarized_energy": -12.97, 
			 "cosmo_cavitation_energy": 39.05, 
			 "cosmo_dispersion_energy": -27.09, 
			 "cosmo_repulsion_energy": 2.22, 
			 "cosmo_total_nonelectrostatic_energy": 14.18, 
			 "SMD_solvation_energy": 7.81 
		},
		"coords": [
			{
				"x": 0.9450867936,
				"y": -2.7183415721,
				"z": 4.156678188,
				"element": "C" 
			},
			{
				"x": 2.3127780012,
				"y": -3.0744180032,
				"z": 4.2663693685,
				"element": "O" 
			},
			{
				"x": 2.9152960504,
				"y": -3.4918203218,
				"z": 3.0571037179,
				"element": "C" 
			},
			{
				"x": 3.3277809814,
				"y": -2.342088174,
				"z": 2.1353928386,
				"element": "C" 
			},
			{
				"x": 2.2490476627,
				"y": -1.6753441231,
				"z": 1.4885182926,
				"element": "O" 
			},
			{
				"x": 1.7374069855,
				"y": -2.3392827702,
				"z": 0.3422167364,
				"element": "C" 
			},
			{
				"x": 0.7869966913,
				"y": -1.4077773069,
				"z": -0.3979706235,
				"element": "C" 
			},
			{
				"x": 1.4566472446,
				"y": -0.3608975679,
				"z": -1.0796547833,
				"element": "O" 
			},
			{
				"x": 1.6671591146,
				"y": 0.8362791699,
				"z": -0.3269788741,
				"element": "C" 
			},
			{
				"x": 0.4931167941,
				"y": 1.8113399658,
				"z": -0.3941074428,
				"element": "C" 
			},
			{
				"x": 0.3414522839,
				"y": 2.4592173418,
				"z": -1.6439190056,
				"element": "O" 
			},
			{
				"x": -0.2638580662,
				"y": 1.6833577895,
				"z": -2.669064053,
				"element": "C" 
			},
			{
				"x": -0.540066861,
				"y": 2.636960583,
				"z": -3.83246507,
				"element": "C" 
			},
			{
				"x": -1.1050371082,
				"y": 1.9765664523,
				"z": -4.9523952974,
				"element": "O" 
			},
			{
				"x": -2.5003977473,
				"y": 1.7725956843,
				"z": -4.8634477369,
				"element": "C" 
			},
			{
				"x": 0.7956695907,
				"y": -1.8249762503,
				"z": 3.5394595215,
				"element": "H" 
			},
			{
				"x": 0.5880451073,
				"y": -2.5227429665,
				"z": 5.171220384,
				"element": "H" 
			},
			{
				"x": 0.3502428328,
				"y": -3.541780735,
				"z": 3.7289577191,
				"element": "H" 
			},
			{
				"x": 2.26620917,
				"y": -4.205347125,
				"z": 2.5220448295,
				"element": "H" 
			},
			{
				"x": 3.825775,
				"y": -4.0317872162,
				"z": 3.3451219765,
				"element": "H" 
			},
			{
				"x": 3.8349282941,
				"y": -1.5816697814,
				"z": 2.7379522014,
				"element": "H" 
			},
			{
				"x": 4.0427645948,
				"y": -2.7194035097,
				"z": 1.3852618873,
				"element": "H" 
			},
			{
				"x": 2.5593423046,
				"y": -2.624646939,
				"z": -0.3328821738,
				"element": "H" 
			},
			{
				"x": 1.1931853972,
				"y": -3.2573437011,
				"z": 0.6198188739,
				"element": "H" 
			},
			{
				"x": 0.0344899964,
				"y": -1.0219334424,
				"z": 0.3051662198,
				"element": "H" 
			},
			{
				"x": 0.2591805838,
				"y": -1.9922780479,
				"z": -1.1609178979,
				"element": "H" 
			},
			{
				"x": 2.5457328563,
				"y": 1.318744853,
				"z": -0.7685561366,
				"element": "H" 
			},
			{
				"x": 1.8953013357,
				"y": 0.598221699,
				"z": 0.7187081798,
				"element": "H" 
			},
			{
				"x": 0.6717647149,
				"y": 2.6105750193,
				"z": 0.3360337887,
				"element": "H" 
			},
			{
				"x": -0.4427134176,
				"y": 1.3027419315,
				"z": -0.105994299,
				"element": "H" 
			},
			{
				"x": 0.3868090028,
				"y": 0.8657115877,
				"z": -2.9999538153,
				"element": "H" 
			},
			{
				"x": -1.2010207651,
				"y": 1.2337460558,
				"z": -2.3002027677,
				"element": "H" 
			},
			{
				"x": -1.1817947835,
				"y": 3.4630932304,
				"z": -3.4885820752,
				"element": "H" 
			},
			{
				"x": 0.4080051633,
				"y": 3.0693298697,
				"z": -4.1678632678,
				"element": "H" 
			},
			{
				"x": -3.0406747383,
				"y": 2.7215147465,
				"z": -4.7181803167,
				"element": "H" 
			},
			{
				"x": -2.7833610275,
				"y": 1.0897382988,
				"z": -4.0484153565,
				"element": "H" 
			},
			{
				"x": -2.8195900333,
				"y": 1.3288452754,
				"z": -5.8100737308,
				"element": "H" 
			}
		],
		 "valence_orbital": [ 
			{
				"type": "occ",
				"energy": -0.28489,
				"method": "rhf"
			},
			{
				"type": "occ",
				"energy": -0.27451,
				"method": "rhf"
			},
			{
				"type": "occ",
				"energy": -0.24792,
				"method": "rhf"
			},
			{
				"type": "occ",
				"energy": -0.24133,
				"method": "rhf"
			},
			{
				"type": "occ",
				"energy": -0.23087,
				"method": "rhf"
			},
			{
				"type": "unocc",
				"energy": 0.07451,
				"method": "rhf"
			},
			{
				"type": "unocc",
				"energy": 0.09004,
				"method": "rhf"
			},
			{
				"type": "unocc",
				"energy": 0.09174,
				"method": "rhf"
			},
			{
				"type": "unocc",
				"energy": 0.10143,
				"method": "rhf"
			},
			{
				"type": "unocc",
				"energy": 0.11189,
				"method": "rhf"
			}
		],
		"cosmo_sigma_profile": { 
			"-0.025": 0.0,
			"-0.024": 0.0,
			"-0.023": 0.0,
			"-0.022": 0.0,
			"-0.021": 0.0,
			"-0.02": 0.0,
			"-0.019": 0.0,
			"-0.018": 0.0,
			"-0.017": 0.0,
			"-0.016": 0.0,
			"-0.015": 0.0,
			"-0.014": 0.0,
			"-0.013": 0.0,
			"-0.012": 0.0,
			"-0.011": 0.0,
			"-0.01": 0.0,
			"-0.009": 0.0,
			"-0.008": 0.0,
			"-0.007": 0.0,
			"-0.006": 0.179574372986,
			"-0.005": 17.9714647031,
			"-0.004": 52.1788792816,
			"-0.003": 49.8699461462,
			"-0.002": 41.2514276322,
			"-0.001": 28.1257816745,
			"0.0": 16.5056814903,
			"0.001": 12.1404748068,
			"0.002": 10.9662339956,
			"0.003": 10.5217770004,
			"0.004": 8.55184345383,
			"0.005": 8.06825212336,
			"0.006": 9.03927831689,
			"0.007": 7.55382186551,
			"0.008": 5.32953690271,
			"0.009": 4.05253850893,
			"0.01": 3.68845253427,
			"0.011": 5.23138570368,
			"0.012": 5.06782920478,
			"0.013": 4.48591769989,
			"0.014": 1.59695202144,
			"0.015": 0.0,
			"0.016": 0.0,
			"0.017": 0.0,
			"0.018": 0.0,
			"0.019": 0.0,
			"0.02": 0.0,
			"0.021": 0.0,
			"0.022": 0.0,
			"0.023": 0.0,
			"0.024": 0.0,
			"0.025": 0.0
		}
	}
}
