{
	 "smiles": "CC1=CC(C)=C(C)C=C1N", 
	 "Tm": 341.15, 
	 "num_atms": 23, 
	 "gaussian": { 
		 "optdone": 1, 
		 "sigma_profile": "yes", 
		 "theory": "DFT", 
		 "functional": "B3LYP", 
		 "basiset": "6-31G**", 
		 "properties": { 
			 "R2extent": 1809.555, 
			 "electric_dipole_moment_norm": 1.40542365499, 
			 "electric_quadrupole_moment_norm": 8.04332155394, 
			 "total_energy": -405.568389084, 
			 "HOMO_LUMO_gap": 0.20482, 
			 "cosmo_polarized_energy": -7.36, 
			 "cosmo_cavitation_energy": 25.06, 
			 "cosmo_dispersion_energy": -18.43, 
			 "cosmo_repulsion_energy": 1.49, 
			 "cosmo_total_nonelectrostatic_energy": 8.12, 
			 "SMD_solvation_energy": 4.23 
		},
		"coords": [
			{
				"x": 0.1299743602,
				"y": -2.9550390944,
				"z": -0.1131684174,
				"element": "C" 
			},
			{
				"x": 0.467968815,
				"y": -1.4850002522,
				"z": -0.0893592556,
				"element": "C" 
			},
			{
				"x": -0.2590169922,
				"y": -0.5587522055,
				"z": -0.8412820686,
				"element": "C" 
			},
			{
				"x": 0.0290953237,
				"y": 0.8092672633,
				"z": -0.8618446173,
				"element": "C" 
			},
			{
				"x": -0.7975334261,
				"y": 1.755392998,
				"z": -1.7004266943,
				"element": "C" 
			},
			{
				"x": 1.1080734147,
				"y": 1.2733412002,
				"z": -0.0823531671,
				"element": "C" 
			},
			{
				"x": 1.4740585308,
				"y": 2.7388246624,
				"z": -0.0593103135,
				"element": "C" 
			},
			{
				"x": 1.8394630075,
				"y": 0.3599842497,
				"z": 0.6790505612,
				"element": "C" 
			},
			{
				"x": 1.5415741933,
				"y": -1.0103690681,
				"z": 0.6906772088,
				"element": "C" 
			},
			{
				"x": 2.3408863201,
				"y": -1.9041922175,
				"z": 1.4192150066,
				"element": "N" 
			},
			{
				"x": 0.9927023694,
				"y": -3.5617052865,
				"z": -0.4161673917,
				"element": "H" 
			},
			{
				"x": -0.6863191685,
				"y": -3.1594104789,
				"z": -0.8108334901,
				"element": "H" 
			},
			{
				"x": -0.1891227849,
				"y": -3.3241646746,
				"z": 0.8727737987,
				"element": "H" 
			},
			{
				"x": -1.0893365409,
				"y": -0.9253900795,
				"z": -1.4424269281,
				"element": "H" 
			},
			{
				"x": -1.5843796081,
				"y": 1.2178989382,
				"z": -2.2371977037,
				"element": "H" 
			},
			{
				"x": -1.2829391952,
				"y": 2.5287762183,
				"z": -1.0912716498,
				"element": "H" 
			},
			{
				"x": -0.1893114657,
				"y": 2.2819328941,
				"z": -2.4470406593,
				"element": "H" 
			},
			{
				"x": 1.7337096916,
				"y": 3.1066056245,
				"z": -1.0597183356,
				"element": "H" 
			},
			{
				"x": 2.3301019483,
				"y": 2.9243847147,
				"z": 0.5951818081,
				"element": "H" 
			},
			{
				"x": 0.6418002169,
				"y": 3.359370647,
				"z": 0.2955135557,
				"element": "H" 
			},
			{
				"x": 2.671692606,
				"y": 0.720345577,
				"z": 1.2816421715,
				"element": "H" 
			},
			{
				"x": 2.8851464819,
				"y": -1.4679172485,
				"z": 2.1516773452,
				"element": "H" 
			},
			{
				"x": 1.857211902,
				"y": -2.7221843819,
				"z": 1.7650692362,
				"element": "H" 
			}
		],
		 "valence_orbital": [ 
			{
				"type": "occ",
				"energy": -0.32838,
				"method": "rhf"
			},
			{
				"type": "occ",
				"energy": -0.32,
				"method": "rhf"
			},
			{
				"type": "occ",
				"energy": -0.28564,
				"method": "rhf"
			},
			{
				"type": "occ",
				"energy": -0.22429,
				"method": "rhf"
			},
			{
				"type": "occ",
				"energy": -0.1869,
				"method": "rhf"
			},
			{
				"type": "unocc",
				"energy": 0.01792,
				"method": "rhf"
			},
			{
				"type": "unocc",
				"energy": 0.02802,
				"method": "rhf"
			},
			{
				"type": "unocc",
				"energy": 0.08163,
				"method": "rhf"
			},
			{
				"type": "unocc",
				"energy": 0.10204,
				"method": "rhf"
			},
			{
				"type": "unocc",
				"energy": 0.11404,
				"method": "rhf"
			}
		],
		"cosmo_sigma_profile": { 
			"-0.025": 0.0,
			"-0.024": 0.0,
			"-0.023": 0.0,
			"-0.022": 0.0,
			"-0.021": 0.0,
			"-0.02": 0.0,
			"-0.019": 0.0,
			"-0.018": 0.0,
			"-0.017": 0.0,
			"-0.016": 0.0,
			"-0.015": 0.0,
			"-0.014": 0.0,
			"-0.013": 0.0,
			"-0.012": 0.576611849362,
			"-0.011": 2.04361699973,
			"-0.01": 2.28180874554,
			"-0.009": 3.04902095065,
			"-0.008": 3.66405629237,
			"-0.007": 2.33903574477,
			"-0.006": 3.06093388434,
			"-0.005": 3.75429836397,
			"-0.004": 11.5781609351,
			"-0.003": 23.5528623289,
			"-0.002": 19.7282827368,
			"-0.001": 19.0303729407,
			"0.0": 21.2667753886,
			"0.001": 22.4227959956,
			"0.002": 10.8409986491,
			"0.003": 6.80148995303,
			"0.004": 6.82017978044,
			"0.005": 6.42147249592,
			"0.006": 7.66006772796,
			"0.007": 7.56907301299,
			"0.008": 5.81240629497,
			"0.009": 1.07148045595,
			"0.01": 1.23370982572,
			"0.011": 0.689233550469,
			"0.012": 0.708331453268,
			"0.013": 0.420713443486,
			"0.014": 0.579551927289,
			"0.015": 0.753438895144,
			"0.016": 0.0994931157932,
			"0.017": 0.0,
			"0.018": 0.0,
			"0.019": 0.0,
			"0.02": 0.0,
			"0.021": 0.0,
			"0.022": 0.0,
			"0.023": 0.0,
			"0.024": 0.0,
			"0.025": 0.0
		}
	}
}
