{
	 "smiles": "FC(F)(F)C(F)(F)C(F)(F)C(F)(F)C(F)(F)C(F)(F)C(F)(F)C(F)(F)C(=O)NC1=CC=C(Br)C=C1Br", 
	 "Tm": 368.15, 
	 "num_atms": 40, 
	 "gaussian": { 
		 "optdone": 1, 
		 "sigma_profile": "yes", 
		 "theory": "DFT", 
		 "functional": "B3LYP", 
		 "basiset": "6-31G**", 
		 "properties": { 
			 "R2extent": 25275.3741, 
			 "electric_dipole_moment_norm": 2.51733115223, 
			 "electric_quadrupole_moment_norm": 8.50493529487, 
			 "total_energy": -7544.00086651, 
			 "HOMO_LUMO_gap": 0.19144, 
			 "cosmo_polarized_energy": -8.76, 
			 "cosmo_cavitation_energy": 54.96, 
			 "cosmo_dispersion_energy": -35.59, 
			 "cosmo_repulsion_energy": 2.38, 
			 "cosmo_total_nonelectrostatic_energy": 21.74, 
			 "SMD_solvation_energy": 12.38 
		},
		"coords": [
			{
				"x": 6.7414707236,
				"y": -0.8076333712,
				"z": 2.0916730859,
				"element": "F" 
			},
			{
				"x": 5.5636504262,
				"y": -0.2897292506,
				"z": 2.4523602285,
				"element": "C" 
			},
			{
				"x": 4.8542200022,
				"y": -1.2205115597,
				"z": 3.1047065785,
				"element": "F" 
			},
			{
				"x": 5.7793542406,
				"y": 0.7443941676,
				"z": 3.2735356275,
				"element": "F" 
			},
			{
				"x": 4.7842152327,
				"y": 0.2148743273,
				"z": 1.208292122,
				"element": "C" 
			},
			{
				"x": 5.6167639393,
				"y": 1.0113235953,
				"z": 0.5013272556,
				"element": "F" 
			},
			{
				"x": 3.7331533923,
				"y": 0.9421379064,
				"z": 1.6507942039,
				"element": "F" 
			},
			{
				"x": 4.2458932848,
				"y": -0.9146587365,
				"z": 0.2930394057,
				"element": "C" 
			},
			{
				"x": 5.2454889811,
				"y": -1.8101295354,
				"z": 0.0961613509,
				"element": "F" 
			},
			{
				"x": 3.2264532509,
				"y": -1.532805023,
				"z": 0.9266272872,
				"element": "F" 
			},
			{
				"x": 3.7639060226,
				"y": -0.501761804,
				"z": -1.1370513044,
				"element": "C" 
			},
			{
				"x": 3.2826882307,
				"y": -1.6363094811,
				"z": -1.6979716104,
				"element": "F" 
			},
			{
				"x": 4.8369693578,
				"y": -0.0859250355,
				"z": -1.8407680613,
				"element": "F" 
			},
			{
				"x": 2.6699596851,
				"y": 0.6044682284,
				"z": -1.2021755356,
				"element": "C" 
			},
			{
				"x": 3.2636994752,
				"y": 1.7778946688,
				"z": -0.9052795992,
				"element": "F" 
			},
			{
				"x": 1.711444454,
				"y": 0.3264496103,
				"z": -0.2763106427,
				"element": "F" 
			},
			{
				"x": 1.9639546242,
				"y": 0.7212261463,
				"z": -2.5775001892,
				"element": "C" 
			},
			{
				"x": 1.2460401412,
				"y": -0.4042021179,
				"z": -2.7873787913,
				"element": "F" 
			},
			{
				"x": 2.9245324966,
				"y": 0.8167419485,
				"z": -3.5287334479,
				"element": "F" 
			},
			{
				"x": 1.0144754773,
				"y": 1.94475027,
				"z": -2.8031007027,
				"element": "C" 
			},
			{
				"x": 1.7326560452,
				"y": 3.0800926633,
				"z": -2.7722531859,
				"element": "F" 
			},
			{
				"x": 0.5457395747,
				"y": 1.7698842802,
				"z": -4.0681836087,
				"element": "F" 
			},
			{
				"x": -0.2643399013,
				"y": 2.0747958138,
				"z": -1.9154334261,
				"element": "C" 
			},
			{
				"x": -1.0374852476,
				"y": 3.0228013499,
				"z": -2.5318293243,
				"element": "F" 
			},
			{
				"x": -0.9195286184,
				"y": 0.8873825238,
				"z": -1.9838193826,
				"element": "F" 
			},
			{
				"x": -0.0585466808,
				"y": 2.5391645373,
				"z": -0.4551757424,
				"element": "C" 
			},
			{
				"x": 0.9304628181,
				"y": 3.1868572037,
				"z": -0.1633933133,
				"element": "O" 
			},
			{
				"x": -1.0055821355,
				"y": 2.2155988484,
				"z": 0.4827532928,
				"element": "N" 
			},
			{
				"x": -2.281339006,
				"y": 1.6110103849,
				"z": 0.4233087698,
				"element": "C" 
			},
			{
				"x": -3.2183815853,
				"y": 1.9316097615,
				"z": -0.5685927569,
				"element": "C" 
			},
			{
				"x": -4.4817527317,
				"y": 1.3502072012,
				"z": -0.5799116774,
				"element": "C" 
			},
			{
				"x": -4.8370582801,
				"y": 0.4603757909,
				"z": 0.4323339043,
				"element": "C" 
			},
			{
				"x": -6.5704830171,
				"y": -0.3296145487,
				"z": 0.4363311355,
				"element": "Br" 
			},
			{
				"x": -3.9424682016,
				"y": 0.146824052,
				"z": 1.4521535847,
				"element": "C" 
			},
			{
				"x": -2.6729540268,
				"y": 0.7193588875,
				"z": 1.4369454988,
				"element": "C" 
			},
			{
				"x": -1.4653125574,
				"y": 0.2821974952,
				"z": 2.8490976403,
				"element": "Br" 
			},
			{
				"x": -0.6745237011,
				"y": 2.4504029363,
				"z": 1.4136640003,
				"element": "H" 
			},
			{
				"x": -2.9515357393,
				"y": 2.6448572733,
				"z": -1.33773118,
				"element": "H" 
			},
			{
				"x": -5.1897529468,
				"y": 1.6027718818,
				"z": -1.3601837771,
				"element": "H" 
			},
			{
				"x": -4.2211474998,
				"y": -0.5360732905,
				"z": 2.2441722873,
				"element": "H" 
			}
		],
		 "valence_orbital": [ 
			{
				"type": "occ",
				"energy": -0.30407,
				"method": "rhf"
			},
			{
				"type": "occ",
				"energy": -0.30385,
				"method": "rhf"
			},
			{
				"type": "occ",
				"energy": -0.29499,
				"method": "rhf"
			},
			{
				"type": "occ",
				"energy": -0.27568,
				"method": "rhf"
			},
			{
				"type": "occ",
				"energy": -0.24995,
				"method": "rhf"
			},
			{
				"type": "unocc",
				"energy": -0.05851,
				"method": "rhf"
			},
			{
				"type": "unocc",
				"energy": -0.04272,
				"method": "rhf"
			},
			{
				"type": "unocc",
				"energy": -0.03217,
				"method": "rhf"
			},
			{
				"type": "unocc",
				"energy": -0.0197,
				"method": "rhf"
			},
			{
				"type": "unocc",
				"energy": 0.00734,
				"method": "rhf"
			}
		],
		"cosmo_sigma_profile": { 
			"-0.025": 0.0,
			"-0.024": 0.0,
			"-0.023": 0.0,
			"-0.022": 0.0,
			"-0.021": 0.0,
			"-0.02": 0.0,
			"-0.019": 0.0,
			"-0.018": 0.0,
			"-0.017": 0.0,
			"-0.016": 0.0,
			"-0.015": 0.00985834740571,
			"-0.014": 0.600230924183,
			"-0.013": 0.734780995627,
			"-0.012": 1.41868725665,
			"-0.011": 0.655611052412,
			"-0.01": 0.814704003202,
			"-0.009": 1.69608812511,
			"-0.008": 4.46058649616,
			"-0.007": 6.6616270967,
			"-0.006": 7.50144992994,
			"-0.005": 8.71070166456,
			"-0.004": 12.4216724382,
			"-0.003": 18.3383816698,
			"-0.002": 29.1137926926,
			"-0.001": 45.2449021461,
			"0.0": 86.1514163926,
			"0.001": 140.423183115,
			"0.002": 36.8887637799,
			"0.003": 19.0763368294,
			"0.004": 12.6540808743,
			"0.005": 2.35720678408,
			"0.006": 2.2459217565,
			"0.007": 1.96196445589,
			"0.008": 1.83186026531,
			"0.009": 2.42814391402,
			"0.01": 3.01993875791,
			"0.011": 1.69448293674,
			"0.012": 0.0504844098747,
			"0.013": 0.0,
			"0.014": 0.0,
			"0.015": 0.0,
			"0.016": 0.0,
			"0.017": 0.0,
			"0.018": 0.0,
			"0.019": 0.0,
			"0.02": 0.0,
			"0.021": 0.0,
			"0.022": 0.0,
			"0.023": 0.0,
			"0.024": 0.0,
			"0.025": 0.0
		}
	}
}
