{
	 "smiles": "OC(=O)C1=NOC(=C1)C1=CC(Cl)=CC=C1", 
	 "Tm": 449.15, 
	 "num_atms": 21, 
	 "gaussian": { 
		 "optdone": 1, 
		 "sigma_profile": "yes", 
		 "theory": "DFT", 
		 "functional": "B3LYP", 
		 "basiset": "6-31G**", 
		 "properties": { 
			 "R2extent": 5551.7775, 
			 "electric_dipole_moment_norm": 5.66516431359, 
			 "electric_quadrupole_moment_norm": 27.6979103181, 
			 "total_energy": -1125.24350414, 
			 "HOMO_LUMO_gap": 0.17878, 
			 "cosmo_polarized_energy": -19.49, 
			 "cosmo_cavitation_energy": 29.23, 
			 "cosmo_dispersion_energy": -21.5, 
			 "cosmo_repulsion_energy": 1.67, 
			 "cosmo_total_nonelectrostatic_energy": 9.39, 
			 "SMD_solvation_energy": 5.69 
		},
		"coords": [
			{
				"x": -2.3057695947,
				"y": -2.819707881,
				"z": -3.9807275384,
				"element": "O" 
			},
			{
				"x": -2.1044974201,
				"y": -3.2919932813,
				"z": -2.7220371916,
				"element": "C" 
			},
			{
				"x": -2.3825002522,
				"y": -4.4228541286,
				"z": -2.4263730646,
				"element": "O" 
			},
			{
				"x": -1.4937344472,
				"y": -2.297443909,
				"z": -1.779374954,
				"element": "C" 
			},
			{
				"x": -1.7572001598,
				"y": -2.3810696237,
				"z": -0.4904742971,
				"element": "N" 
			},
			{
				"x": -1.0453997561,
				"y": -1.3453574807,
				"z": 0.0917871039,
				"element": "O" 
			},
			{
				"x": -0.3555348795,
				"y": -0.6583576502,
				"z": -0.8508841735,
				"element": "C" 
			},
			{
				"x": -0.6113905636,
				"y": -1.2197004779,
				"z": -2.0745033787,
				"element": "C" 
			},
			{
				"x": 0.4662429605,
				"y": 0.4623332819,
				"z": -0.3989384131,
				"element": "C" 
			},
			{
				"x": 1.1820487378,
				"y": 1.2250269828,
				"z": -1.3362176442,
				"element": "C" 
			},
			{
				"x": 1.9621716706,
				"y": 2.2896931304,
				"z": -0.8984555174,
				"element": "C" 
			},
			{
				"x": 2.85279946,
				"y": 3.2375088379,
				"z": -2.0773053956,
				"element": "Cl" 
			},
			{
				"x": 2.0498772749,
				"y": 2.6189589983,
				"z": 0.455034193,
				"element": "C" 
			},
			{
				"x": 1.3354233873,
				"y": 1.8563612528,
				"z": 1.3800300164,
				"element": "C" 
			},
			{
				"x": 0.5481016602,
				"y": 0.7851329131,
				"z": 0.9655666145,
				"element": "C" 
			},
			{
				"x": -2.1659458096,
				"y": -1.8623977852,
				"z": -4.0103533941,
				"element": "H" 
			},
			{
				"x": -0.192955611,
				"y": -0.9426968041,
				"z": -3.0300858375,
				"element": "H" 
			},
			{
				"x": 1.1348291347,
				"y": 0.996399346,
				"z": -2.3946369431,
				"element": "H" 
			},
			{
				"x": 2.6645604074,
				"y": 3.4535574282,
				"z": 0.7726142064,
				"element": "H" 
			},
			{
				"x": 1.3965210376,
				"y": 2.102716321,
				"z": 2.4354197118,
				"element": "H" 
			},
			{
				"x": -0.0029472372,
				"y": 0.1960905294,
				"z": 1.6894158968,
				"element": "H" 
			}
		],
		 "valence_orbital": [ 
			{
				"type": "occ",
				"energy": -0.32091,
				"method": "rhf"
			},
			{
				"type": "occ",
				"energy": -0.31829,
				"method": "rhf"
			},
			{
				"type": "occ",
				"energy": -0.28768,
				"method": "rhf"
			},
			{
				"type": "occ",
				"energy": -0.27378,
				"method": "rhf"
			},
			{
				"type": "occ",
				"energy": -0.25789,
				"method": "rhf"
			},
			{
				"type": "unocc",
				"energy": -0.07911,
				"method": "rhf"
			},
			{
				"type": "unocc",
				"energy": -0.04688,
				"method": "rhf"
			},
			{
				"type": "unocc",
				"energy": -0.0348,
				"method": "rhf"
			},
			{
				"type": "unocc",
				"energy": 0.01029,
				"method": "rhf"
			},
			{
				"type": "unocc",
				"energy": 0.02171,
				"method": "rhf"
			}
		],
		"cosmo_sigma_profile": { 
			"-0.025": 0.0,
			"-0.024": 0.0,
			"-0.023": 0.0,
			"-0.022": 0.0,
			"-0.021": 0.0,
			"-0.02": 0.0774229373666,
			"-0.019": 0.765102753154,
			"-0.018": 0.874237869314,
			"-0.017": 1.1551585198,
			"-0.016": 1.29350953424,
			"-0.015": 1.63178047945,
			"-0.014": 0.952861293613,
			"-0.013": 1.18193602347,
			"-0.012": 1.79110677897,
			"-0.011": 2.23212111148,
			"-0.01": 3.30031980682,
			"-0.009": 3.92457200386,
			"-0.008": 3.72130334991,
			"-0.007": 8.58940148345,
			"-0.006": 10.5950664752,
			"-0.005": 9.86367767402,
			"-0.004": 7.63998719045,
			"-0.003": 11.0211776747,
			"-0.002": 16.7616561274,
			"-0.001": 18.0414802925,
			"0.0": 18.8559148239,
			"0.001": 19.6186276263,
			"0.002": 19.2705447749,
			"0.003": 13.9142536944,
			"0.004": 14.3999364301,
			"0.005": 7.5747815944,
			"0.006": 5.60586938232,
			"0.007": 3.87708021518,
			"0.008": 5.23538416307,
			"0.009": 6.55596171547,
			"0.01": 7.94794385841,
			"0.011": 7.09736547731,
			"0.012": 2.69294879513,
			"0.013": 0.34781623591,
			"0.014": 0.0,
			"0.015": 0.0,
			"0.016": 0.0,
			"0.017": 0.0,
			"0.018": 0.0,
			"0.019": 0.0,
			"0.02": 0.0,
			"0.021": 0.0,
			"0.022": 0.0,
			"0.023": 0.0,
			"0.024": 0.0,
			"0.025": 0.0
		}
	}
}
