{
	 "smiles": "COC1=C(OCCO)C=C(N)C=C1", 
	 "Tm": 373.15, 
	 "num_atms": 26, 
	 "gaussian": { 
		 "optdone": 1, 
		 "sigma_profile": "yes", 
		 "theory": "DFT", 
		 "functional": "B3LYP", 
		 "basiset": "6-31G**", 
		 "properties": { 
			 "R2extent": 4177.6326, 
			 "electric_dipole_moment_norm": 2.43706183344, 
			 "electric_quadrupole_moment_norm": 14.9087647335, 
			 "total_energy": -631.173818696, 
			 "HOMO_LUMO_gap": 0.20086, 
			 "cosmo_polarized_energy": -16.48, 
			 "cosmo_cavitation_energy": 29.66, 
			 "cosmo_dispersion_energy": -21.36, 
			 "cosmo_repulsion_energy": 1.74, 
			 "cosmo_total_nonelectrostatic_energy": 10.04, 
			 "SMD_solvation_energy": 6.0 
		},
		"coords": [
			{
				"x": 3.1249171232,
				"y": 0.1595265867,
				"z": -0.6773513745,
				"element": "C" 
			},
			{
				"x": 3.2100382712,
				"y": -0.8222578135,
				"z": 0.3542922069,
				"element": "O" 
			},
			{
				"x": 2.4559681047,
				"y": -0.5569599263,
				"z": 1.4776291702,
				"element": "C" 
			},
			{
				"x": 1.0517754441,
				"y": -0.703607413,
				"z": 1.4723441478,
				"element": "C" 
			},
			{
				"x": 0.4930553169,
				"y": -1.0689624692,
				"z": 0.2783902108,
				"element": "O" 
			},
			{
				"x": -0.9036986152,
				"y": -1.3184683882,
				"z": 0.2216672728,
				"element": "C" 
			},
			{
				"x": -1.2262837644,
				"y": -1.7631008695,
				"z": -1.203541191,
				"element": "C" 
			},
			{
				"x": -2.6129909438,
				"y": -2.0212772417,
				"z": -1.3569096706,
				"element": "O" 
			},
			{
				"x": 0.3216399424,
				"y": -0.4807676983,
				"z": 2.6408651305,
				"element": "C" 
			},
			{
				"x": 0.9713244767,
				"y": -0.119600194,
				"z": 3.8360723726,
				"element": "C" 
			},
			{
				"x": 0.2284859315,
				"y": 0.0373545123,
				"z": 5.0142510247,
				"element": "N" 
			},
			{
				"x": 2.3650780893,
				"y": 0.0149379484,
				"z": 3.8392034197,
				"element": "C" 
			},
			{
				"x": 3.0867605982,
				"y": -0.1999120639,
				"z": 2.664149585,
				"element": "C" 
			},
			{
				"x": 2.1074085421,
				"y": 0.2390034434,
				"z": -1.074836434,
				"element": "H" 
			},
			{
				"x": 3.7983569312,
				"y": -0.1689813817,
				"z": -1.4726636525,
				"element": "H" 
			},
			{
				"x": 3.4496988386,
				"y": 1.1443253429,
				"z": -0.3146824401,
				"element": "H" 
			},
			{
				"x": -1.182078895,
				"y": -2.1068621076,
				"z": 0.9381402005,
				"element": "H" 
			},
			{
				"x": -1.4811909509,
				"y": -0.4171116032,
				"z": 0.4680830603,
				"element": "H" 
			},
			{
				"x": -0.978366288,
				"y": -0.9581960234,
				"z": -1.9015516307,
				"element": "H" 
			},
			{
				"x": -0.604559627,
				"y": -2.6309016884,
				"z": -1.4658951945,
				"element": "H" 
			},
			{
				"x": -2.8167942715,
				"y": -2.8454307683,
				"z": -0.8967026957,
				"element": "H" 
			},
			{
				"x": -0.7566147678,
				"y": -0.5964530476,
				"z": 2.6440950103,
				"element": "H" 
			},
			{
				"x": -0.730933505,
				"y": 0.324019144,
				"z": 4.8726866491,
				"element": "H" 
			},
			{
				"x": 0.6790753793,
				"y": 0.6094491633,
				"z": 5.7159183841,
				"element": "H" 
			},
			{
				"x": 2.8826491804,
				"y": 0.2842104869,
				"z": 4.7558128265,
				"element": "H" 
			},
			{
				"x": 4.167979459,
				"y": -0.1019759303,
				"z": 2.6533336118,
				"element": "H" 
			}
		],
		 "valence_orbital": [ 
			{
				"type": "occ",
				"energy": -0.27953,
				"method": "rhf"
			},
			{
				"type": "occ",
				"energy": -0.27828,
				"method": "rhf"
			},
			{
				"type": "occ",
				"energy": -0.25843,
				"method": "rhf"
			},
			{
				"type": "occ",
				"energy": -0.22639,
				"method": "rhf"
			},
			{
				"type": "occ",
				"energy": -0.18781,
				"method": "rhf"
			},
			{
				"type": "unocc",
				"energy": 0.01305,
				"method": "rhf"
			},
			{
				"type": "unocc",
				"energy": 0.02694,
				"method": "rhf"
			},
			{
				"type": "unocc",
				"energy": 0.0619,
				"method": "rhf"
			},
			{
				"type": "unocc",
				"energy": 0.08077,
				"method": "rhf"
			},
			{
				"type": "unocc",
				"energy": 0.09751,
				"method": "rhf"
			}
		],
		"cosmo_sigma_profile": { 
			"-0.025": 0.0,
			"-0.024": 0.0,
			"-0.023": 0.0,
			"-0.022": 0.0,
			"-0.021": 0.0,
			"-0.02": 0.0,
			"-0.019": 0.0,
			"-0.018": 0.0,
			"-0.017": 0.0,
			"-0.016": 0.59655273969,
			"-0.015": 1.22533915146,
			"-0.014": 1.06778192842,
			"-0.013": 1.05854473118,
			"-0.012": 2.86949351751,
			"-0.011": 4.35335884553,
			"-0.01": 4.09659215992,
			"-0.009": 3.95007789245,
			"-0.008": 3.32147503074,
			"-0.007": 5.43817385061,
			"-0.006": 7.48629817245,
			"-0.005": 15.2988978412,
			"-0.004": 19.5653948173,
			"-0.003": 18.0491942741,
			"-0.002": 19.8523812081,
			"-0.001": 14.1944113024,
			"0.0": 11.0948193199,
			"0.001": 10.1280127268,
			"0.002": 10.1541165807,
			"0.003": 9.632405001,
			"0.004": 11.1984568666,
			"0.005": 11.0452910168,
			"0.006": 12.4080319914,
			"0.007": 7.68582254625,
			"0.008": 3.23015831835,
			"0.009": 3.79823881019,
			"0.01": 4.28957972017,
			"0.011": 4.28454073137,
			"0.012": 4.25690749586,
			"0.013": 3.71821226403,
			"0.014": 2.74897538482,
			"0.015": 0.584904612069,
			"0.016": 0.0736239497111,
			"0.017": 0.0,
			"0.018": 0.0,
			"0.019": 0.0,
			"0.02": 0.0,
			"0.021": 0.0,
			"0.022": 0.0,
			"0.023": 0.0,
			"0.024": 0.0,
			"0.025": 0.0
		}
	}
}
