{
	 "smiles": "NS(=O)(=O)C1=CC(F)=C(C=C1)C(O)=O", 
	 "Tm": 463.15, 
	 "num_atms": 20, 
	 "gaussian": { 
		 "optdone": 1, 
		 "sigma_profile": "yes", 
		 "theory": "DFT", 
		 "functional": "B3LYP", 
		 "basiset": "6-31G**", 
		 "properties": { 
			 "R2extent": 4622.6544, 
			 "electric_dipole_moment_norm": 3.84987897602, 
			 "electric_quadrupole_moment_norm": 40.6266785318, 
			 "total_energy": -1123.96519284, 
			 "HOMO_LUMO_gap": 0.20342, 
			 "cosmo_polarized_energy": -24.28, 
			 "cosmo_cavitation_energy": 27.03, 
			 "cosmo_dispersion_energy": -20.46, 
			 "cosmo_repulsion_energy": 1.53, 
			 "cosmo_total_nonelectrostatic_energy": 8.1, 
			 "SMD_solvation_energy": 5.95 
		},
		"coords": [
			{
				"x": 3.4247153143,
				"y": 1.0860774676,
				"z": -3.4450952197,
				"element": "N" 
			},
			{
				"x": 3.3162073848,
				"y": 0.4523452608,
				"z": -1.9011525713,
				"element": "S" 
			},
			{
				"x": 3.9388141445,
				"y": -0.8662519438,
				"z": -1.9643374667,
				"element": "O" 
			},
			{
				"x": 3.757673271,
				"y": 1.5133603529,
				"z": -1.0001726925,
				"element": "O" 
			},
			{
				"x": 1.5588573895,
				"y": 0.1865345548,
				"z": -1.575148873,
				"element": "C" 
			},
			{
				"x": 0.8377598405,
				"y": 1.1875042836,
				"z": -0.926585285,
				"element": "C" 
			},
			{
				"x": -0.5136230399,
				"y": 0.969239496,
				"z": -0.7055147453,
				"element": "C" 
			},
			{
				"x": -1.2037072955,
				"y": 1.95698454,
				"z": -0.0652514424,
				"element": "F" 
			},
			{
				"x": -1.1766827555,
				"y": -0.196776589,
				"z": -1.0997900886,
				"element": "C" 
			},
			{
				"x": -0.4089176617,
				"y": -1.1831880929,
				"z": -1.7384872982,
				"element": "C" 
			},
			{
				"x": 0.9497211607,
				"y": -1.0060743438,
				"z": -1.9759829204,
				"element": "C" 
			},
			{
				"x": -2.644576638,
				"y": -0.4938605204,
				"z": -0.8964423571,
				"element": "C" 
			},
			{
				"x": -3.3929401043,
				"y": 0.4259910045,
				"z": -0.2603709622,
				"element": "O" 
			},
			{
				"x": -3.1351565572,
				"y": -1.5247058722,
				"z": -1.2939291866,
				"element": "O" 
			},
			{
				"x": 3.0343333674,
				"y": 2.0172140967,
				"z": -3.5406083957,
				"element": "H" 
			},
			{
				"x": 3.1549424526,
				"y": 0.4402647924,
				"z": -4.1790705553,
				"element": "H" 
			},
			{
				"x": 1.3144498765,
				"y": 2.097050825,
				"z": -0.579844117,
				"element": "H" 
			},
			{
				"x": -0.9196625583,
				"y": -2.0933702738,
				"z": -2.0331499038,
				"element": "H" 
			},
			{
				"x": 1.5407895211,
				"y": -1.7863925891,
				"z": -2.4423423977,
				"element": "H" 
			},
			{
				"x": -2.8566971124,
				"y": 1.1919535507,
				"z": -0.0024235215,
				"element": "H" 
			}
		],
		 "valence_orbital": [ 
			{
				"type": "occ",
				"energy": -0.3235,
				"method": "rhf"
			},
			{
				"type": "occ",
				"energy": -0.32286,
				"method": "rhf"
			},
			{
				"type": "occ",
				"energy": -0.29739,
				"method": "rhf"
			},
			{
				"type": "occ",
				"energy": -0.29258,
				"method": "rhf"
			},
			{
				"type": "occ",
				"energy": -0.29185,
				"method": "rhf"
			},
			{
				"type": "unocc",
				"energy": -0.08843,
				"method": "rhf"
			},
			{
				"type": "unocc",
				"energy": -0.04654,
				"method": "rhf"
			},
			{
				"type": "unocc",
				"energy": 0.01417,
				"method": "rhf"
			},
			{
				"type": "unocc",
				"energy": 0.02962,
				"method": "rhf"
			},
			{
				"type": "unocc",
				"energy": 0.05204,
				"method": "rhf"
			}
		],
		"cosmo_sigma_profile": { 
			"-0.025": 0.0,
			"-0.024": 0.0,
			"-0.023": 0.0,
			"-0.022": 0.0,
			"-0.021": 0.0,
			"-0.02": 0.0,
			"-0.019": 0.0,
			"-0.018": 0.0,
			"-0.017": 0.0,
			"-0.016": 1.10095666664,
			"-0.015": 3.07268713762,
			"-0.014": 2.92880075312,
			"-0.013": 3.53459835642,
			"-0.012": 4.63372412593,
			"-0.011": 3.53708956748,
			"-0.01": 4.02756427357,
			"-0.009": 4.41871046682,
			"-0.008": 7.30416592777,
			"-0.007": 9.33254787327,
			"-0.006": 8.1889551013,
			"-0.005": 7.13848249827,
			"-0.004": 8.7785498303,
			"-0.003": 13.4921752691,
			"-0.002": 14.7119834119,
			"-0.001": 14.5113097192,
			"0.0": 12.4124194061,
			"0.001": 10.0787659471,
			"0.002": 8.21558128984,
			"0.003": 4.49852535779,
			"0.004": 5.20832804153,
			"0.005": 5.05686744484,
			"0.006": 5.88008702227,
			"0.007": 6.83965061029,
			"0.008": 7.1601256686,
			"0.009": 8.88465401475,
			"0.01": 14.8384927287,
			"0.011": 13.6520798176,
			"0.012": 3.18258424911,
			"0.013": 0.5724363478,
			"0.014": 0.0,
			"0.015": 0.0,
			"0.016": 0.0,
			"0.017": 0.0,
			"0.018": 0.0,
			"0.019": 0.0,
			"0.02": 0.0,
			"0.021": 0.0,
			"0.022": 0.0,
			"0.023": 0.0,
			"0.024": 0.0,
			"0.025": 0.0
		}
	}
}
