{
	 "smiles": "CCOC(=O)C(C#N)=C(N)C(Cl)(Cl)Cl", 
	 "Tm": 368.15, 
	 "num_atms": 21, 
	 "gaussian": { 
		 "optdone": 1, 
		 "sigma_profile": "yes", 
		 "theory": "DFT", 
		 "functional": "B3LYP", 
		 "basiset": "6-31G**", 
		 "properties": { 
			 "R2extent": 6274.9303, 
			 "electric_dipole_moment_norm": 1.74916861108, 
			 "electric_quadrupole_moment_norm": 21.9697801578, 
			 "total_energy": -1911.44483139, 
			 "HOMO_LUMO_gap": 0.16908, 
			 "cosmo_polarized_energy": -15.27, 
			 "cosmo_cavitation_energy": 31.1, 
			 "cosmo_dispersion_energy": -22.02, 
			 "cosmo_repulsion_energy": 1.77, 
			 "cosmo_total_nonelectrostatic_energy": 10.85, 
			 "SMD_solvation_energy": 6.48 
		},
		"coords": [
			{
				"x": -0.9209899929,
				"y": -1.9761585113,
				"z": 2.9955719233,
				"element": "C" 
			},
			{
				"x": -0.1238626181,
				"y": -0.7093248752,
				"z": 2.7242043071,
				"element": "C" 
			},
			{
				"x": 1.0990389016,
				"y": -1.0001929871,
				"z": 2.0062598549,
				"element": "O" 
			},
			{
				"x": 1.0059657345,
				"y": -1.0773806907,
				"z": 0.6586475902,
				"element": "C" 
			},
			{
				"x": -0.0271943387,
				"y": -0.9097245859,
				"z": 0.0416058438,
				"element": "O" 
			},
			{
				"x": 2.3367823327,
				"y": -1.3846018212,
				"z": 0.0902288715,
				"element": "C" 
			},
			{
				"x": 3.4200285542,
				"y": -1.5354758975,
				"z": 1.0071196299,
				"element": "C" 
			},
			{
				"x": 4.3821162213,
				"y": -1.6826123213,
				"z": 1.6497143357,
				"element": "N" 
			},
			{
				"x": 2.6837565372,
				"y": -1.5500240107,
				"z": -1.2469601469,
				"element": "C" 
			},
			{
				"x": 3.95743168,
				"y": -1.8265232616,
				"z": -1.581165902,
				"element": "N" 
			},
			{
				"x": 1.6912416019,
				"y": -1.4378746365,
				"z": -2.4323746646,
				"element": "C" 
			},
			{
				"x": 0.4251501099,
				"y": -2.6936857464,
				"z": -2.304458487,
				"element": "Cl" 
			},
			{
				"x": 1.0125014632,
				"y": 0.2132475494,
				"z": -2.5205030279,
				"element": "Cl" 
			},
			{
				"x": 2.5280680223,
				"y": -1.7271665719,
				"z": -4.0394046241,
				"element": "Cl" 
			},
			{
				"x": -1.797408767,
				"y": -1.7374246575,
				"z": 3.607275611,
				"element": "H" 
			},
			{
				"x": -1.2674523288,
				"y": -2.4208110987,
				"z": 2.0595133538,
				"element": "H" 
			},
			{
				"x": -0.3143628404,
				"y": -2.7092460188,
				"z": 3.5350322236,
				"element": "H" 
			},
			{
				"x": -0.7082935248,
				"y": 0.010556705,
				"z": 2.14643832,
				"element": "H" 
			},
			{
				"x": 0.2164271975,
				"y": -0.2425031043,
				"z": 3.6511995966,
				"element": "H" 
			},
			{
				"x": 4.2306477412,
				"y": -1.951767035,
				"z": -2.542147291,
				"element": "H" 
			},
			{
				"x": 4.6506083131,
				"y": -1.9106064226,
				"z": -0.8493973182,
				"element": "H" 
			}
		],
		 "valence_orbital": [ 
			{
				"type": "occ",
				"energy": -0.33324,
				"method": "rhf"
			},
			{
				"type": "occ",
				"energy": -0.32108,
				"method": "rhf"
			},
			{
				"type": "occ",
				"energy": -0.29845,
				"method": "rhf"
			},
			{
				"type": "occ",
				"energy": -0.27576,
				"method": "rhf"
			},
			{
				"type": "occ",
				"energy": -0.24829,
				"method": "rhf"
			},
			{
				"type": "unocc",
				"energy": -0.07921,
				"method": "rhf"
			},
			{
				"type": "unocc",
				"energy": -0.06155,
				"method": "rhf"
			},
			{
				"type": "unocc",
				"energy": -0.0333,
				"method": "rhf"
			},
			{
				"type": "unocc",
				"energy": 0.01169,
				"method": "rhf"
			},
			{
				"type": "unocc",
				"energy": 0.02394,
				"method": "rhf"
			}
		],
		"cosmo_sigma_profile": { 
			"-0.025": 0.0,
			"-0.024": 0.0,
			"-0.023": 0.0,
			"-0.022": 0.0,
			"-0.021": 0.0,
			"-0.02": 0.0,
			"-0.019": 0.0,
			"-0.018": 0.0,
			"-0.017": 0.0236699789367,
			"-0.016": 0.719581109528,
			"-0.015": 1.71199252911,
			"-0.014": 2.08547893871,
			"-0.013": 1.55481127555,
			"-0.012": 2.07419969939,
			"-0.011": 1.16427167044,
			"-0.01": 1.60745856559,
			"-0.009": 2.01220765431,
			"-0.008": 2.40730599271,
			"-0.007": 2.83982727532,
			"-0.006": 5.1849508604,
			"-0.005": 11.6979722296,
			"-0.004": 17.8693579474,
			"-0.003": 23.5210766989,
			"-0.002": 23.4314046699,
			"-0.001": 23.7047952425,
			"0.0": 23.4543164818,
			"0.001": 20.9818387794,
			"0.002": 24.5584722456,
			"0.003": 12.6450774432,
			"0.004": 6.63886614949,
			"0.005": 4.59781589872,
			"0.006": 5.47543262347,
			"0.007": 5.40638822878,
			"0.008": 6.67734480928,
			"0.009": 5.55090336456,
			"0.01": 4.67170252402,
			"0.011": 4.61960616997,
			"0.012": 4.11261251321,
			"0.013": 1.58147905649,
			"0.014": 0.0956958086844,
			"0.015": 0.0,
			"0.016": 0.0,
			"0.017": 0.0,
			"0.018": 0.0,
			"0.019": 0.0,
			"0.02": 0.0,
			"0.021": 0.0,
			"0.022": 0.0,
			"0.023": 0.0,
			"0.024": 0.0,
			"0.025": 0.0
		}
	}
}
