{
	 "smiles": "NS(=O)(=O)C1=CC2=CC=CC=C2C=C1", 
	 "Tm": 492.15, 
	 "num_atms": 23, 
	 "gaussian": { 
		 "optdone": 1, 
		 "sigma_profile": "yes", 
		 "theory": "DFT", 
		 "functional": "B3LYP", 
		 "basiset": "6-31G**", 
		 "properties": { 
			 "R2extent": 3864.5151, 
			 "electric_dipole_moment_norm": 6.41454107712, 
			 "electric_quadrupole_moment_norm": 17.7863030183, 
			 "total_energy": -989.816332746, 
			 "HOMO_LUMO_gap": 0.17384, 
			 "cosmo_polarized_energy": -18.82, 
			 "cosmo_cavitation_energy": 28.48, 
			 "cosmo_dispersion_energy": -21.55, 
			 "cosmo_repulsion_energy": 1.62, 
			 "cosmo_total_nonelectrostatic_energy": 8.56, 
			 "SMD_solvation_energy": 4.22 
		},
		"coords": [
			{
				"x": 0.5573571485,
				"y": -3.1131157526,
				"z": -0.0142923579,
				"element": "N" 
			},
			{
				"x": 1.5049436141,
				"y": -2.1798756101,
				"z": 1.0175500771,
				"element": "S" 
			},
			{
				"x": 2.8120976975,
				"y": -2.0818950609,
				"z": 0.3704064989,
				"element": "O" 
			},
			{
				"x": 1.3142687834,
				"y": -2.7544174908,
				"z": 2.3483003196,
				"element": "O" 
			},
			{
				"x": 0.7811692768,
				"y": -0.5338862629,
				"z": 1.0331391089,
				"element": "C" 
			},
			{
				"x": 1.3123015121,
				"y": 0.442634897,
				"z": 0.2212075188,
				"element": "C" 
			},
			{
				"x": 0.7353695949,
				"y": 1.7399393233,
				"z": 0.2013231015,
				"element": "C" 
			},
			{
				"x": 1.250713232,
				"y": 2.7782795326,
				"z": -0.6206637213,
				"element": "C" 
			},
			{
				"x": 0.6685098515,
				"y": 4.0256212238,
				"z": -0.6221627754,
				"element": "C" 
			},
			{
				"x": -0.454093851,
				"y": 4.2915205901,
				"z": 0.2003011671,
				"element": "C" 
			},
			{
				"x": -0.9746283805,
				"y": 3.3071228521,
				"z": 1.0105735579,
				"element": "C" 
			},
			{
				"x": -0.399135753,
				"y": 2.0091056241,
				"z": 1.0359736125,
				"element": "C" 
			},
			{
				"x": -0.9039573729,
				"y": 0.9718717371,
				"z": 1.8686802554,
				"element": "C" 
			},
			{
				"x": -0.3296717594,
				"y": -0.2769695404,
				"z": 1.8766579111,
				"element": "C" 
			},
			{
				"x": -0.387953577,
				"y": -3.2447311334,
				"z": 0.3313567622,
				"element": "H" 
			},
			{
				"x": 0.587387732,
				"y": -2.7884099967,
				"z": -0.9756662622,
				"element": "H" 
			},
			{
				"x": 2.1822450231,
				"y": 0.2240838817,
				"z": -0.3902873731,
				"element": "H" 
			},
			{
				"x": 2.1131521359,
				"y": 2.5698398792,
				"z": -1.2479695453,
				"element": "H" 
			},
			{
				"x": 1.0691022635,
				"y": 4.81266689,
				"z": -1.2540099563,
				"element": "H" 
			},
			{
				"x": -0.903071493,
				"y": 5.28034088,
				"z": 0.190152476,
				"element": "H" 
			},
			{
				"x": -1.833613528,
				"y": 3.5119435668,
				"z": 1.6439934924,
				"element": "H" 
			},
			{
				"x": -1.7513711509,
				"y": 1.1852051422,
				"z": 2.514709925,
				"element": "H" 
			},
			{
				"x": -0.6933209995,
				"y": -1.0579751723,
				"z": 2.5358262073,
				"element": "H" 
			}
		],
		 "valence_orbital": [ 
			{
				"type": "occ",
				"energy": -0.3029,
				"method": "rhf"
			},
			{
				"type": "occ",
				"energy": -0.30093,
				"method": "rhf"
			},
			{
				"type": "occ",
				"energy": -0.30024,
				"method": "rhf"
			},
			{
				"type": "occ",
				"energy": -0.26117,
				"method": "rhf"
			},
			{
				"type": "occ",
				"energy": -0.23569,
				"method": "rhf"
			},
			{
				"type": "unocc",
				"energy": -0.06185,
				"method": "rhf"
			},
			{
				"type": "unocc",
				"energy": -0.03628,
				"method": "rhf"
			},
			{
				"type": "unocc",
				"energy": 0.01147,
				"method": "rhf"
			},
			{
				"type": "unocc",
				"energy": 0.05177,
				"method": "rhf"
			},
			{
				"type": "unocc",
				"energy": 0.05907,
				"method": "rhf"
			}
		],
		"cosmo_sigma_profile": { 
			"-0.025": 0.0,
			"-0.024": 0.0,
			"-0.023": 0.0,
			"-0.022": 0.0,
			"-0.021": 0.0,
			"-0.02": 0.0,
			"-0.019": 0.0,
			"-0.018": 0.0,
			"-0.017": 0.0,
			"-0.016": 0.300978644251,
			"-0.015": 1.92626132248,
			"-0.014": 2.7243749579,
			"-0.013": 2.69271135968,
			"-0.012": 2.94870500291,
			"-0.011": 2.29476837406,
			"-0.01": 2.53468733382,
			"-0.009": 1.76776173177,
			"-0.008": 2.11845663052,
			"-0.007": 10.1076787837,
			"-0.006": 16.0328658998,
			"-0.005": 14.8089404979,
			"-0.004": 12.8086864696,
			"-0.003": 10.9588030721,
			"-0.002": 10.086265168,
			"-0.001": 9.47190043755,
			"0.0": 10.3354938892,
			"0.001": 13.7559558042,
			"0.002": 23.2478998375,
			"0.003": 19.5915761404,
			"0.004": 12.985871242,
			"0.005": 3.95776862928,
			"0.006": 3.9337321222,
			"0.007": 4.10812620748,
			"0.008": 4.14451530405,
			"0.009": 4.67429057957,
			"0.01": 6.91831456852,
			"0.011": 11.1195110241,
			"0.012": 5.54743617985,
			"0.013": 0.169734669635,
			"0.014": 0.0,
			"0.015": 0.0,
			"0.016": 0.0,
			"0.017": 0.0,
			"0.018": 0.0,
			"0.019": 0.0,
			"0.02": 0.0,
			"0.021": 0.0,
			"0.022": 0.0,
			"0.023": 0.0,
			"0.024": 0.0,
			"0.025": 0.0
		}
	}
}
