{
	 "smiles": "BrC1=CC=C2N=CC=NC2=C1", 
	 "Tm": 327.65, 
	 "num_atms": 16, 
	 "gaussian": { 
		 "optdone": 1, 
		 "sigma_profile": "yes", 
		 "theory": "DFT", 
		 "functional": "B3LYP", 
		 "basiset": "6-31G**", 
		 "properties": { 
			 "R2extent": 4068.4952, 
			 "electric_dipole_moment_norm": 1.28169187015, 
			 "electric_quadrupole_moment_norm": 6.8682741675, 
			 "total_energy": -2988.76555354, 
			 "HOMO_LUMO_gap": 0.1679, 
			 "cosmo_polarized_energy": -6.56, 
			 "cosmo_cavitation_energy": 22.9, 
			 "cosmo_dispersion_energy": -17.76, 
			 "cosmo_repulsion_energy": 1.4, 
			 "cosmo_total_nonelectrostatic_energy": 6.54, 
			 "SMD_solvation_energy": -0.25 
		},
		"coords": [
			{
				"x": 0.6805311341,
				"y": 4.0396969941,
				"z": -2.4124852309,
				"element": "Br" 
			},
			{
				"x": 0.542480811,
				"y": 2.3476341521,
				"z": -1.5396160298,
				"element": "C" 
			},
			{
				"x": 1.2624085112,
				"y": 1.2520667628,
				"z": -2.0805554941,
				"element": "C" 
			},
			{
				"x": 1.1841968046,
				"y": 0.0196369661,
				"z": -1.4750641565,
				"element": "C" 
			},
			{
				"x": 0.3882414988,
				"y": -0.1605585605,
				"z": -0.3140605096,
				"element": "C" 
			},
			{
				"x": 0.3223342445,
				"y": -1.3891402716,
				"z": 0.2731881188,
				"element": "N" 
			},
			{
				"x": -0.4351116941,
				"y": -1.481746315,
				"z": 1.34622353,
				"element": "C" 
			},
			{
				"x": -1.1507819068,
				"y": -0.3728418019,
				"z": 1.8759010053,
				"element": "C" 
			},
			{
				"x": -1.1083609727,
				"y": 0.8255719053,
				"z": 1.332918065,
				"element": "N" 
			},
			{
				"x": -0.3313671175,
				"y": 0.9541940553,
				"z": 0.2186339702,
				"element": "C" 
			},
			{
				"x": -0.2405483326,
				"y": 2.2195012383,
				"z": -0.4174251345,
				"element": "C" 
			},
			{
				"x": 1.8676669937,
				"y": 1.3994752798,
				"z": -2.9675229349,
				"element": "H" 
			},
			{
				"x": 1.7224537103,
				"y": -0.8386839287,
				"z": -1.863602659,
				"element": "H" 
			},
			{
				"x": -0.5020714804,
				"y": -2.4543134688,
				"z": 1.8313493498,
				"element": "H" 
			},
			{
				"x": -1.765120937,
				"y": -0.4978559353,
				"z": 2.766372269,
				"element": "H" 
			},
			{
				"x": -0.7931512672,
				"y": 3.0519629281,
				"z": 0.0012458411,
				"element": "H" 
			}
		],
		 "valence_orbital": [ 
			{
				"type": "occ",
				"energy": -0.31247,
				"method": "rhf"
			},
			{
				"type": "occ",
				"energy": -0.29517,
				"method": "rhf"
			},
			{
				"type": "occ",
				"energy": -0.26553,
				"method": "rhf"
			},
			{
				"type": "occ",
				"energy": -0.25588,
				"method": "rhf"
			},
			{
				"type": "occ",
				"energy": -0.24896,
				"method": "rhf"
			},
			{
				"type": "unocc",
				"energy": -0.08106,
				"method": "rhf"
			},
			{
				"type": "unocc",
				"energy": -0.03638,
				"method": "rhf"
			},
			{
				"type": "unocc",
				"energy": -0.00405,
				"method": "rhf"
			},
			{
				"type": "unocc",
				"energy": -0.00082,
				"method": "rhf"
			},
			{
				"type": "unocc",
				"energy": 0.06598,
				"method": "rhf"
			}
		],
		"cosmo_sigma_profile": { 
			"-0.025": 0.0,
			"-0.024": 0.0,
			"-0.023": 0.0,
			"-0.022": 0.0,
			"-0.021": 0.0,
			"-0.02": 0.0,
			"-0.019": 0.0,
			"-0.018": 0.0,
			"-0.017": 0.0,
			"-0.016": 0.0,
			"-0.015": 0.0,
			"-0.014": 0.0,
			"-0.013": 0.0,
			"-0.012": 0.0,
			"-0.011": 0.0,
			"-0.01": 0.0,
			"-0.009": 0.00431659913323,
			"-0.008": 5.69436790756,
			"-0.007": 10.4781554355,
			"-0.006": 9.09965123522,
			"-0.005": 8.57927949213,
			"-0.004": 8.3278330226,
			"-0.003": 11.4016837029,
			"-0.002": 12.6601657332,
			"-0.001": 17.2391435324,
			"0.0": 18.6640451605,
			"0.001": 24.9432792042,
			"0.002": 16.136431272,
			"0.003": 11.4673710324,
			"0.004": 13.7925957022,
			"0.005": 3.02069906914,
			"0.006": 3.74032581319,
			"0.007": 2.15540658567,
			"0.008": 1.84152462813,
			"0.009": 1.35393791118,
			"0.01": 1.96915838125,
			"0.011": 1.90813252744,
			"0.012": 1.15223655806,
			"0.013": 1.36604608462,
			"0.014": 1.56370147689,
			"0.015": 0.277190185382,
			"0.016": 0.0,
			"0.017": 0.0,
			"0.018": 0.0,
			"0.019": 0.0,
			"0.02": 0.0,
			"0.021": 0.0,
			"0.022": 0.0,
			"0.023": 0.0,
			"0.024": 0.0,
			"0.025": 0.0
		}
	}
}
