{
	 "smiles": "COC1=CC=C(Br)C=C1C=O", 
	 "Tm": 389.15, 
	 "num_atms": 18, 
	 "gaussian": { 
		 "optdone": 1, 
		 "sigma_profile": "yes", 
		 "theory": "DFT", 
		 "functional": "B3LYP", 
		 "basiset": "6-31G**", 
		 "properties": { 
			 "R2extent": 3689.1538, 
			 "electric_dipole_moment_norm": 5.42083912785, 
			 "electric_quadrupole_moment_norm": 8.99051174628, 
			 "total_energy": -3030.89851135, 
			 "HOMO_LUMO_gap": 0.16567, 
			 "cosmo_polarized_energy": -9.55, 
			 "cosmo_cavitation_energy": 24.94, 
			 "cosmo_dispersion_energy": -18.66, 
			 "cosmo_repulsion_energy": 1.5, 
			 "cosmo_total_nonelectrostatic_energy": 7.78, 
			 "SMD_solvation_energy": 5.04 
		},
		"coords": [
			{
				"x": -2.9530466075,
				"y": 0.0953034965,
				"z": -0.9643949841,
				"element": "C" 
			},
			{
				"x": -1.7703074478,
				"y": 0.8703203535,
				"z": -0.8100761133,
				"element": "O" 
			},
			{
				"x": -0.799591796,
				"y": 0.4264867947,
				"z": 0.0306358863,
				"element": "C" 
			},
			{
				"x": -0.8852680855,
				"y": -0.7622004201,
				"z": 0.7680239291,
				"element": "C" 
			},
			{
				"x": 0.1614360072,
				"y": -1.1408166515,
				"z": 1.6083644677,
				"element": "C" 
			},
			{
				"x": 1.2977549301,
				"y": -0.338650879,
				"z": 1.7187740529,
				"element": "C" 
			},
			{
				"x": 2.7206422588,
				"y": -0.8750354588,
				"z": 2.8754013727,
				"element": "Br" 
			},
			{
				"x": 1.3958794987,
				"y": 0.8406684712,
				"z": 0.9946809306,
				"element": "C" 
			},
			{
				"x": 0.3542993389,
				"y": 1.2358553752,
				"z": 0.1462844897,
				"element": "C" 
			},
			{
				"x": 0.4971124937,
				"y": 2.5034811174,
				"z": -0.6108985615,
				"element": "C" 
			},
			{
				"x": 1.4780126476,
				"y": 3.2224619715,
				"z": -0.5331461032,
				"element": "O" 
			},
			{
				"x": -3.4921501999,
				"y": -0.0070814013,
				"z": -0.0148613204,
				"element": "H" 
			},
			{
				"x": -2.7304051956,
				"y": -0.9005287286,
				"z": -1.3662433849,
				"element": "H" 
			},
			{
				"x": -3.5747773815,
				"y": 0.6403574469,
				"z": -1.6752113759,
				"element": "H" 
			},
			{
				"x": -1.7577541199,
				"y": -1.399914389,
				"z": 0.6976844258,
				"element": "H" 
			},
			{
				"x": 0.0898771334,
				"y": -2.0615916838,
				"z": 2.1766396625,
				"element": "H" 
			},
			{
				"x": 2.2669164523,
				"y": 1.4829423153,
				"z": 1.0612723832,
				"element": "H" 
			},
			{
				"x": -0.353829927,
				"y": 2.7673422697,
				"z": -1.2648297571,
				"element": "H" 
			}
		],
		 "valence_orbital": [ 
			{
				"type": "occ",
				"energy": -0.29905,
				"method": "rhf"
			},
			{
				"type": "occ",
				"energy": -0.2901,
				"method": "rhf"
			},
			{
				"type": "occ",
				"energy": -0.27345,
				"method": "rhf"
			},
			{
				"type": "occ",
				"energy": -0.25276,
				"method": "rhf"
			},
			{
				"type": "occ",
				"energy": -0.23369,
				"method": "rhf"
			},
			{
				"type": "unocc",
				"energy": -0.06802,
				"method": "rhf"
			},
			{
				"type": "unocc",
				"energy": -0.01287,
				"method": "rhf"
			},
			{
				"type": "unocc",
				"energy": 0.00427,
				"method": "rhf"
			},
			{
				"type": "unocc",
				"energy": 0.0309,
				"method": "rhf"
			},
			{
				"type": "unocc",
				"energy": 0.08314,
				"method": "rhf"
			}
		],
		"cosmo_sigma_profile": { 
			"-0.025": 0.0,
			"-0.024": 0.0,
			"-0.023": 0.0,
			"-0.022": 0.0,
			"-0.021": 0.0,
			"-0.02": 0.0,
			"-0.019": 0.0,
			"-0.018": 0.0,
			"-0.017": 0.0,
			"-0.016": 0.0,
			"-0.015": 0.0,
			"-0.014": 0.0,
			"-0.013": 0.0,
			"-0.012": 0.0,
			"-0.011": 0.0,
			"-0.01": 0.0,
			"-0.009": 0.0,
			"-0.008": 2.6397369524,
			"-0.007": 7.2700810584,
			"-0.006": 14.2903556382,
			"-0.005": 14.1991087626,
			"-0.004": 16.2663338888,
			"-0.003": 13.5401287077,
			"-0.002": 11.1740390762,
			"-0.001": 13.0027382591,
			"0.0": 16.6503568576,
			"0.001": 22.0857571553,
			"0.002": 19.8466729493,
			"0.003": 10.9166772535,
			"0.004": 14.3698698987,
			"0.005": 9.42049906244,
			"0.006": 2.10124950884,
			"0.007": 1.65051388142,
			"0.008": 1.54061286492,
			"0.009": 2.13467346447,
			"0.01": 2.61579233786,
			"0.011": 4.1521041623,
			"0.012": 2.64739868548,
			"0.013": 0.788753794368,
			"0.014": 0.0,
			"0.015": 0.0,
			"0.016": 0.0,
			"0.017": 0.0,
			"0.018": 0.0,
			"0.019": 0.0,
			"0.02": 0.0,
			"0.021": 0.0,
			"0.022": 0.0,
			"0.023": 0.0,
			"0.024": 0.0,
			"0.025": 0.0
		}
	}
}
