{
	 "smiles": "COC1=C(OCC2=CN3C=CC=CC3=N2)C=C(N)C=C1", 
	 "Tm": 464.15, 
	 "num_atms": 35, 
	 "gaussian": { 
		 "optdone": 1, 
		 "sigma_profile": "yes", 
		 "theory": "DFT", 
		 "functional": "B3LYP", 
		 "basiset": "6-31G**", 
		 "properties": { 
			 "R2extent": 8538.1534, 
			 "electric_dipole_moment_norm": 2.1762700338, 
			 "electric_quadrupole_moment_norm": 21.1624745687, 
			 "total_energy": -895.305374372, 
			 "HOMO_LUMO_gap": 0.14669, 
			 "cosmo_polarized_energy": -19.11, 
			 "cosmo_cavitation_energy": 39.49, 
			 "cosmo_dispersion_energy": -28.72, 
			 "cosmo_repulsion_energy": 2.19, 
			 "cosmo_total_nonelectrostatic_energy": 12.95, 
			 "SMD_solvation_energy": 6.06 
		},
		"coords": [
			{
				"x": -0.8955928256,
				"y": 2.5399933337,
				"z": 2.7535902996,
				"element": "C" 
			},
			{
				"x": -0.4422605166,
				"y": 1.6936469894,
				"z": 1.7157851731,
				"element": "O" 
			},
			{
				"x": 0.6435394695,
				"y": 2.1137933776,
				"z": 0.9901747074,
				"element": "C" 
			},
			{
				"x": 1.0738608892,
				"y": 1.2391923611,
				"z": -0.0377603273,
				"element": "C" 
			},
			{
				"x": 0.3480078625,
				"y": 0.0930241405,
				"z": -0.1689992033,
				"element": "O" 
			},
			{
				"x": 0.7203597015,
				"y": -0.8423677926,
				"z": -1.1693934116,
				"element": "C" 
			},
			{
				"x": -0.2300316916,
				"y": -1.9952871431,
				"z": -1.0848671768,
				"element": "C" 
			},
			{
				"x": -1.2703115129,
				"y": -2.1475843501,
				"z": -0.1903762015,
				"element": "C" 
			},
			{
				"x": -1.8446308139,
				"y": -3.360792256,
				"z": -0.509496011,
				"element": "N" 
			},
			{
				"x": -2.9110191364,
				"y": -4.0320596952,
				"z": 0.0361938728,
				"element": "C" 
			},
			{
				"x": -3.2773339409,
				"y": -5.2428585949,
				"z": -0.4821687427,
				"element": "C" 
			},
			{
				"x": -2.5603063,
				"y": -5.8031473235,
				"z": -1.5775432142,
				"element": "C" 
			},
			{
				"x": -1.4927013956,
				"y": -5.132165044,
				"z": -2.1246773962,
				"element": "C" 
			},
			{
				"x": -1.1071807256,
				"y": -3.879350523,
				"z": -1.5946976034,
				"element": "C" 
			},
			{
				"x": -0.1266504246,
				"y": -3.0496685733,
				"z": -1.9441495461,
				"element": "N" 
			},
			{
				"x": 2.1668072397,
				"y": 1.5758338822,
				"z": -0.8309620165,
				"element": "C" 
			},
			{
				"x": 2.8602349432,
				"y": 2.7862738624,
				"z": -0.6305359627,
				"element": "C" 
			},
			{
				"x": 3.9979602379,
				"y": 3.0746899903,
				"z": -1.4030546346,
				"element": "N" 
			},
			{
				"x": 2.4316714454,
				"y": 3.6452832016,
				"z": 0.3814707425,
				"element": "C" 
			},
			{
				"x": 1.3336608628,
				"y": 3.3054090741,
				"z": 1.1831424806,
				"element": "C" 
			},
			{
				"x": -1.7509258657,
				"y": 2.0349893359,
				"z": 3.2066263583,
				"element": "H" 
			},
			{
				"x": -1.2181454844,
				"y": 3.5190008457,
				"z": 2.3724090848,
				"element": "H" 
			},
			{
				"x": -0.1242019554,
				"y": 2.6968648764,
				"z": 3.5203832169,
				"element": "H" 
			},
			{
				"x": 0.6734383641,
				"y": -0.3873158606,
				"z": -2.1699236531,
				"element": "H" 
			},
			{
				"x": 1.7525960626,
				"y": -1.1904767468,
				"z": -1.0159192894,
				"element": "H" 
			},
			{
				"x": -1.6268473487,
				"y": -1.5169805853,
				"z": 0.6070881911,
				"element": "H" 
			},
			{
				"x": -3.4115933545,
				"y": -3.5494576567,
				"z": 0.8670067059,
				"element": "H" 
			},
			{
				"x": -4.1199433144,
				"y": -5.7676232677,
				"z": -0.04672022,
				"element": "H" 
			},
			{
				"x": -2.8631016605,
				"y": -6.7651502689,
				"z": -1.9778070911,
				"element": "H" 
			},
			{
				"x": -0.9234374564,
				"y": -5.5271338599,
				"z": -2.958195116,
				"element": "H" 
			},
			{
				"x": 2.5028714841,
				"y": 0.9005138028,
				"z": -1.6097845129,
				"element": "H" 
			},
			{
				"x": 3.9815328752,
				"y": 2.6703730868,
				"z": -2.33046013,
				"element": "H" 
			},
			{
				"x": 4.2209522021,
				"y": 4.0604598735,
				"z": -1.4488872758,
				"element": "H" 
			},
			{
				"x": 2.9531122135,
				"y": 4.5822427566,
				"z": 0.5570072448,
				"element": "H" 
			},
			{
				"x": 1.0235098702,
				"y": 3.9932347505,
				"z": 1.9611006585,
				"element": "H" 
			}
		],
		 "valence_orbital": [ 
			{
				"type": "occ",
				"energy": -0.26578,
				"method": "rhf"
			},
			{
				"type": "occ",
				"energy": -0.23396,
				"method": "rhf"
			},
			{
				"type": "occ",
				"energy": -0.22185,
				"method": "rhf"
			},
			{
				"type": "occ",
				"energy": -0.20459,
				"method": "rhf"
			},
			{
				"type": "occ",
				"energy": -0.17549,
				"method": "rhf"
			},
			{
				"type": "unocc",
				"energy": -0.0288,
				"method": "rhf"
			},
			{
				"type": "unocc",
				"energy": 0.00959,
				"method": "rhf"
			},
			{
				"type": "unocc",
				"energy": 0.01771,
				"method": "rhf"
			},
			{
				"type": "unocc",
				"energy": 0.03545,
				"method": "rhf"
			},
			{
				"type": "unocc",
				"energy": 0.07122,
				"method": "rhf"
			}
		],
		"cosmo_sigma_profile": { 
			"-0.025": 0.0,
			"-0.024": 0.0,
			"-0.023": 0.0,
			"-0.022": 0.0,
			"-0.021": 0.0,
			"-0.02": 0.0,
			"-0.019": 0.0,
			"-0.018": 0.0,
			"-0.017": 0.0,
			"-0.016": 0.0,
			"-0.015": 0.0,
			"-0.014": 0.0,
			"-0.013": 0.0,
			"-0.012": 1.36196116762,
			"-0.011": 2.72774859478,
			"-0.01": 3.05229863043,
			"-0.009": 6.55993389148,
			"-0.008": 6.72246225024,
			"-0.007": 11.7574062864,
			"-0.006": 19.3731531423,
			"-0.005": 26.5642760558,
			"-0.004": 23.2620019709,
			"-0.003": 22.0405501556,
			"-0.002": 17.1390647119,
			"-0.001": 14.2860140868,
			"0.0": 18.1131166543,
			"0.001": 16.4009276578,
			"0.002": 19.6097146166,
			"0.003": 21.5739666906,
			"0.004": 21.6288205333,
			"0.005": 12.0146315267,
			"0.006": 12.4998159671,
			"0.007": 10.2683928397,
			"0.008": 4.63249112149,
			"0.009": 4.4995411366,
			"0.01": 4.58420133354,
			"0.011": 3.77175853466,
			"0.012": 2.92628945081,
			"0.013": 1.86195370491,
			"0.014": 1.30361957407,
			"0.015": 2.09243135698,
			"0.016": 1.14637852061,
			"0.017": 0.715417064864,
			"0.018": 0.391684713146,
			"0.019": 0.0,
			"0.02": 0.0,
			"0.021": 0.0,
			"0.022": 0.0,
			"0.023": 0.0,
			"0.024": 0.0,
			"0.025": 0.0
		}
	}
}
