{
	 "smiles": "CC1=CC(C(O)=O)=C(N)C(Cl)=C1", 
	 "Tm": 475.15, 
	 "num_atms": 20, 
	 "gaussian": { 
		 "optdone": 1, 
		 "sigma_profile": "yes", 
		 "theory": "DFT", 
		 "functional": "B3LYP", 
		 "basiset": "6-31G**", 
		 "properties": { 
			 "R2extent": 3280.5587, 
			 "electric_dipole_moment_norm": 3.41478127411, 
			 "electric_quadrupole_moment_norm": 14.3548560797, 
			 "total_energy": -975.091504934, 
			 "HOMO_LUMO_gap": 0.15952, 
			 "cosmo_polarized_energy": -12.62, 
			 "cosmo_cavitation_energy": 25.38, 
			 "cosmo_dispersion_energy": -19.33, 
			 "cosmo_repulsion_energy": 1.54, 
			 "cosmo_total_nonelectrostatic_energy": 7.58, 
			 "SMD_solvation_energy": 5.01 
		},
		"coords": [
			{
				"x": -2.9643349441,
				"y": 2.1061873844,
				"z": -0.5580371513,
				"element": "C" 
			},
			{
				"x": -1.9823183928,
				"y": 1.3018199145,
				"z": 0.259822385,
				"element": "C" 
			},
			{
				"x": -0.731513357,
				"y": 1.7946843554,
				"z": 0.6088239889,
				"element": "C" 
			},
			{
				"x": 0.2020684595,
				"y": 1.0570070076,
				"z": 1.3617134718,
				"element": "C" 
			},
			{
				"x": 1.5247650214,
				"y": 1.632469285,
				"z": 1.7166413693,
				"element": "C" 
			},
			{
				"x": 1.6626275741,
				"y": 2.9808385324,
				"z": 1.6285777014,
				"element": "O" 
			},
			{
				"x": 2.4875570299,
				"y": 0.9783756478,
				"z": 2.0806202942,
				"element": "O" 
			},
			{
				"x": -0.1068117922,
				"y": -0.2771603275,
				"z": 1.7638970729,
				"element": "C" 
			},
			{
				"x": 0.7610791813,
				"y": -1.0410493867,
				"z": 2.4747683806,
				"element": "N" 
			},
			{
				"x": -1.3977732823,
				"y": -0.7527686357,
				"z": 1.4134377247,
				"element": "C" 
			},
			{
				"x": -1.8525341352,
				"y": -2.3840029402,
				"z": 1.9050068164,
				"element": "Cl" 
			},
			{
				"x": -2.3025972454,
				"y": 0.0029309014,
				"z": 0.6923452973,
				"element": "C" 
			},
			{
				"x": -3.2194577204,
				"y": 1.5990150185,
				"z": -1.4956536745,
				"element": "H" 
			},
			{
				"x": -3.9021646762,
				"y": 2.2696282347,
				"z": -0.0144431153,
				"element": "H" 
			},
			{
				"x": -2.5555077518,
				"y": 3.0875763052,
				"z": -0.8144496703,
				"element": "H" 
			},
			{
				"x": -0.4549808472,
				"y": 2.7795798322,
				"z": 0.2387946993,
				"element": "H" 
			},
			{
				"x": 0.7970589,
				"y": 3.3976999988,
				"z": 1.5217630644,
				"element": "H" 
			},
			{
				"x": 0.5423491006,
				"y": -2.0123369596,
				"z": 2.6238039445,
				"element": "H" 
			},
			{
				"x": 1.7182170875,
				"y": -0.7139031788,
				"z": 2.5252278882,
				"element": "H" 
			},
			{
				"x": -3.2688282096,
				"y": -0.4293909894,
				"z": 0.4506395123,
				"element": "H" 
			}
		],
		 "valence_orbital": [ 
			{
				"type": "occ",
				"energy": -0.32175,
				"method": "rhf"
			},
			{
				"type": "occ",
				"energy": -0.31683,
				"method": "rhf"
			},
			{
				"type": "occ",
				"energy": -0.27969,
				"method": "rhf"
			},
			{
				"type": "occ",
				"energy": -0.26287,
				"method": "rhf"
			},
			{
				"type": "occ",
				"energy": -0.21297,
				"method": "rhf"
			},
			{
				"type": "unocc",
				"energy": -0.05345,
				"method": "rhf"
			},
			{
				"type": "unocc",
				"energy": -0.00412,
				"method": "rhf"
			},
			{
				"type": "unocc",
				"energy": 0.02151,
				"method": "rhf"
			},
			{
				"type": "unocc",
				"energy": 0.04205,
				"method": "rhf"
			},
			{
				"type": "unocc",
				"energy": 0.06321,
				"method": "rhf"
			}
		],
		"cosmo_sigma_profile": { 
			"-0.025": 0.0,
			"-0.024": 0.0,
			"-0.023": 0.0,
			"-0.022": 0.0,
			"-0.021": 0.0,
			"-0.02": 0.0,
			"-0.019": 0.0633375346206,
			"-0.018": 0.75191414088,
			"-0.017": 0.977930893826,
			"-0.016": 1.02910196563,
			"-0.015": 1.1090288041,
			"-0.014": 0.476444212114,
			"-0.013": 1.05756847455,
			"-0.012": 1.61637731616,
			"-0.011": 2.15643064242,
			"-0.01": 1.80141074613,
			"-0.009": 2.61885233943,
			"-0.008": 3.67817456961,
			"-0.007": 5.75335291579,
			"-0.006": 4.5489936254,
			"-0.005": 6.88695190552,
			"-0.004": 11.938325886,
			"-0.003": 11.5896188172,
			"-0.002": 15.0504394583,
			"-0.001": 15.3093349146,
			"0.0": 17.4123501423,
			"0.001": 18.8439099109,
			"0.002": 19.5156929236,
			"0.003": 17.05530711,
			"0.004": 12.0235816414,
			"0.005": 6.01671808632,
			"0.006": 3.52885685526,
			"0.007": 2.69085112269,
			"0.008": 2.94308917881,
			"0.009": 3.67172319602,
			"0.01": 4.16731041638,
			"0.011": 3.76977618538,
			"0.012": 2.68878532836,
			"0.013": 1.67263479213,
			"0.014": 0.155044760223,
			"0.015": 0.0,
			"0.016": 0.0,
			"0.017": 0.0,
			"0.018": 0.0,
			"0.019": 0.0,
			"0.02": 0.0,
			"0.021": 0.0,
			"0.022": 0.0,
			"0.023": 0.0,
			"0.024": 0.0,
			"0.025": 0.0
		}
	}
}
