{
	 "smiles": "CC1=C(SC2=C1C=CC=C2Cl)S(N)(=O)=O", 
	 "Tm": 535.15, 
	 "num_atms": 23, 
	 "gaussian": { 
		 "optdone": 1, 
		 "sigma_profile": "yes", 
		 "theory": "DFT", 
		 "functional": "B3LYP", 
		 "basiset": "6-31G**", 
		 "properties": { 
			 "R2extent": 4804.9085, 
			 "electric_dipole_moment_norm": 4.37969181793, 
			 "electric_quadrupole_moment_norm": 27.1995325405, 
			 "total_energy": -1809.47590286, 
			 "HOMO_LUMO_gap": 0.17773, 
			 "cosmo_polarized_energy": -17.27, 
			 "cosmo_cavitation_energy": 31.37, 
			 "cosmo_dispersion_energy": -23.97, 
			 "cosmo_repulsion_energy": 1.77, 
			 "cosmo_total_nonelectrostatic_energy": 9.17, 
			 "SMD_solvation_energy": 4.26 
		},
		"coords": [
			{
				"x": 0.3012228689,
				"y": 2.7092014374,
				"z": -1.6658967767,
				"element": "C" 
			},
			{
				"x": -0.1659561581,
				"y": 1.4868991356,
				"z": -0.9271399506,
				"element": "C" 
			},
			{
				"x": -0.404103953,
				"y": 1.3724759574,
				"z": 0.4142276827,
				"element": "C" 
			},
			{
				"x": -0.975811861,
				"y": -0.2186992634,
				"z": 0.9229614609,
				"element": "S" 
			},
			{
				"x": -0.8891430041,
				"y": -0.7784333185,
				"z": -0.7293954716,
				"element": "C" 
			},
			{
				"x": -0.4395553448,
				"y": 0.2359823544,
				"z": -1.6084206114,
				"element": "C" 
			},
			{
				"x": -0.307682563,
				"y": -0.0526102788,
				"z": -2.9788505134,
				"element": "C" 
			},
			{
				"x": -0.6167017391,
				"y": -1.3234936639,
				"z": -3.4426441624,
				"element": "C" 
			},
			{
				"x": -1.0575448271,
				"y": -2.3292454545,
				"z": -2.5655739444,
				"element": "C" 
			},
			{
				"x": -1.1907584238,
				"y": -2.0563661253,
				"z": -1.210488799,
				"element": "C" 
			},
			{
				"x": -1.7371028833,
				"y": -3.2999528873,
				"z": -0.1034642157,
				"element": "Cl" 
			},
			{
				"x": -0.3372662209,
				"y": 2.6864811546,
				"z": 1.6320152972,
				"element": "S" 
			},
			{
				"x": -0.0637724024,
				"y": 1.9270850642,
				"z": 3.0925543,
				"element": "N" 
			},
			{
				"x": -1.663610769,
				"y": 3.2876135135,
				"z": 1.7402105783,
				"element": "O" 
			},
			{
				"x": 0.8521903531,
				"y": 3.4844593797,
				"z": 1.3421606739,
				"element": "O" 
			},
			{
				"x": 0.5393899239,
				"y": 3.5268433825,
				"z": -0.9879727586,
				"element": "H" 
			},
			{
				"x": -0.4694155219,
				"y": 3.0449877575,
				"z": -2.3694496983,
				"element": "H" 
			},
			{
				"x": 1.198767454,
				"y": 2.4777267249,
				"z": -2.2503505983,
				"element": "H" 
			},
			{
				"x": 0.0314207734,
				"y": 0.7156391315,
				"z": -3.6658795078,
				"element": "H" 
			},
			{
				"x": -0.5191704535,
				"y": -1.5534828197,
				"z": -4.4988916538,
				"element": "H" 
			},
			{
				"x": -1.2966112279,
				"y": -3.3198069806,
				"z": -2.936156153,
				"element": "H" 
			},
			{
				"x": 0.8011924195,
				"y": 1.4009642752,
				"z": 3.1481988724,
				"element": "H" 
			},
			{
				"x": -0.8753764399,
				"y": 1.4629315236,
				"z": 3.4845459495,
				"element": "H" 
			}
		],
		 "valence_orbital": [ 
			{
				"type": "occ",
				"energy": -0.31424,
				"method": "rhf"
			},
			{
				"type": "occ",
				"energy": -0.31019,
				"method": "rhf"
			},
			{
				"type": "occ",
				"energy": -0.2868,
				"method": "rhf"
			},
			{
				"type": "occ",
				"energy": -0.25939,
				"method": "rhf"
			},
			{
				"type": "occ",
				"energy": -0.23849,
				"method": "rhf"
			},
			{
				"type": "unocc",
				"energy": -0.06076,
				"method": "rhf"
			},
			{
				"type": "unocc",
				"energy": -0.02734,
				"method": "rhf"
			},
			{
				"type": "unocc",
				"energy": -0.01346,
				"method": "rhf"
			},
			{
				"type": "unocc",
				"energy": 0.01504,
				"method": "rhf"
			},
			{
				"type": "unocc",
				"energy": 0.02233,
				"method": "rhf"
			}
		],
		"cosmo_sigma_profile": { 
			"-0.025": 0.0,
			"-0.024": 0.0,
			"-0.023": 0.0,
			"-0.022": 0.0,
			"-0.021": 0.0,
			"-0.02": 0.0,
			"-0.019": 0.0,
			"-0.018": 0.0,
			"-0.017": 0.0136839965723,
			"-0.016": 1.04231295588,
			"-0.015": 2.79859833224,
			"-0.014": 2.60406954919,
			"-0.013": 2.09621499904,
			"-0.012": 2.78347316852,
			"-0.011": 2.33515488146,
			"-0.01": 2.28534953421,
			"-0.009": 1.98170898098,
			"-0.008": 3.16904692125,
			"-0.007": 6.96287775554,
			"-0.006": 10.9430648011,
			"-0.005": 13.4783341181,
			"-0.004": 10.2755492381,
			"-0.003": 12.9280920935,
			"-0.002": 15.3603844362,
			"-0.001": 16.2551950728,
			"0.0": 22.4706926998,
			"0.001": 27.1702364103,
			"0.002": 24.2195809568,
			"0.003": 20.7888449333,
			"0.004": 11.6160215305,
			"0.005": 4.07650514078,
			"0.006": 3.40977668762,
			"0.007": 4.36693516225,
			"0.008": 4.61182381308,
			"0.009": 4.65035386778,
			"0.01": 10.4302877048,
			"0.011": 9.54974334157,
			"0.012": 0.629984574697,
			"0.013": 0.0,
			"0.014": 0.0,
			"0.015": 0.0,
			"0.016": 0.0,
			"0.017": 0.0,
			"0.018": 0.0,
			"0.019": 0.0,
			"0.02": 0.0,
			"0.021": 0.0,
			"0.022": 0.0,
			"0.023": 0.0,
			"0.024": 0.0,
			"0.025": 0.0
		}
	}
}
