{
	 "smiles": "OC(=O)C(=O)C1=C(O)C=C(Br)C=C1", 
	 "Tm": 462.15, 
	 "num_atms": 18, 
	 "gaussian": { 
		 "optdone": 1, 
		 "sigma_profile": "yes", 
		 "theory": "DFT", 
		 "functional": "B3LYP", 
		 "basiset": "6-31G**", 
		 "properties": { 
			 "R2extent": 4561.2187, 
			 "electric_dipole_moment_norm": 2.3584776997, 
			 "electric_quadrupole_moment_norm": 13.7601244228, 
			 "total_energy": -3180.15476841, 
			 "HOMO_LUMO_gap": 0.1628, 
			 "cosmo_polarized_energy": -13.7, 
			 "cosmo_cavitation_energy": 25.98, 
			 "cosmo_dispersion_energy": -19.54, 
			 "cosmo_repulsion_energy": 1.55, 
			 "cosmo_total_nonelectrostatic_energy": 7.99, 
			 "SMD_solvation_energy": 5.35 
		},
		"coords": [
			{
				"x": 1.4903626785,
				"y": -2.7323170549,
				"z": -0.4614189703,
				"element": "O" 
			},
			{
				"x": 0.1732627258,
				"y": -2.7587964399,
				"z": -0.0850788001,
				"element": "C" 
			},
			{
				"x": -0.5997866723,
				"y": -3.5980584602,
				"z": -0.4594632517,
				"element": "O" 
			},
			{
				"x": -0.1594997775,
				"y": -1.6593521634,
				"z": 0.9404657216,
				"element": "C" 
			},
			{
				"x": -0.4497160065,
				"y": -2.0788051812,
				"z": 2.050144452,
				"element": "O" 
			},
			{
				"x": -0.2211788646,
				"y": -0.2271619028,
				"z": 0.5734252717,
				"element": "C" 
			},
			{
				"x": 0.2675462725,
				"y": 0.3637792289,
				"z": -0.6203717057,
				"element": "C" 
			},
			{
				"x": 0.964768955,
				"y": -0.2784597198,
				"z": -1.5847164182,
				"element": "O" 
			},
			{
				"x": 0.0322605181,
				"y": 1.7258077865,
				"z": -0.86766043,
				"element": "C" 
			},
			{
				"x": -0.6494320342,
				"y": 2.4911586033,
				"z": 0.0639393021,
				"element": "C" 
			},
			{
				"x": -0.9533907378,
				"y": 4.3362833421,
				"z": -0.2964754362,
				"element": "Br" 
			},
			{
				"x": -1.1101568442,
				"y": 1.9458767621,
				"z": 1.2700921026,
				"element": "C" 
			},
			{
				"x": -0.8864615303,
				"y": 0.6023704239,
				"z": 1.5041516701,
				"element": "C" 
			},
			{
				"x": 1.6358014886,
				"y": -3.5011867823,
				"z": -1.0432415878,
				"element": "H" 
			},
			{
				"x": 1.3607935484,
				"y": -1.1027181823,
				"z": -1.2537634238,
				"element": "H" 
			},
			{
				"x": 0.4111661164,
				"y": 2.154077302,
				"z": -1.7871947152,
				"element": "H" 
			},
			{
				"x": -1.6347885271,
				"y": 2.562228021,
				"z": 1.989593572,
				"element": "H" 
			},
			{
				"x": -1.2417513089,
				"y": 0.1360744169,
				"z": 2.4167726467,
				"element": "H" 
			}
		],
		 "valence_orbital": [ 
			{
				"type": "occ",
				"energy": -0.31643,
				"method": "rhf"
			},
			{
				"type": "occ",
				"energy": -0.29957,
				"method": "rhf"
			},
			{
				"type": "occ",
				"energy": -0.27373,
				"method": "rhf"
			},
			{
				"type": "occ",
				"energy": -0.26401,
				"method": "rhf"
			},
			{
				"type": "occ",
				"energy": -0.25112,
				"method": "rhf"
			},
			{
				"type": "unocc",
				"energy": -0.08832,
				"method": "rhf"
			},
			{
				"type": "unocc",
				"energy": -0.02592,
				"method": "rhf"
			},
			{
				"type": "unocc",
				"energy": -0.01923,
				"method": "rhf"
			},
			{
				"type": "unocc",
				"energy": -0.00463,
				"method": "rhf"
			},
			{
				"type": "unocc",
				"energy": 0.0136,
				"method": "rhf"
			}
		],
		"cosmo_sigma_profile": { 
			"-0.025": 0.0,
			"-0.024": 0.0,
			"-0.023": 0.0,
			"-0.022": 0.0,
			"-0.021": 0.0858258277619,
			"-0.02": 1.02243321901,
			"-0.019": 1.28476249091,
			"-0.018": 0.603723045146,
			"-0.017": 0.727473122119,
			"-0.016": 1.01301024861,
			"-0.015": 1.08126790907,
			"-0.014": 0.976325163364,
			"-0.013": 0.876887556335,
			"-0.012": 0.91086005665,
			"-0.011": 1.53432856957,
			"-0.01": 2.33680739778,
			"-0.009": 1.93776606827,
			"-0.008": 3.55838368001,
			"-0.007": 6.62342950109,
			"-0.006": 7.42446132945,
			"-0.005": 8.18983115087,
			"-0.004": 10.6752324232,
			"-0.003": 10.0359731816,
			"-0.002": 12.5899515013,
			"-0.001": 12.5788882365,
			"0.0": 20.1742994137,
			"0.001": 23.3245195871,
			"0.002": 16.6223770119,
			"0.003": 15.57560712,
			"0.004": 11.7367703053,
			"0.005": 4.35248218945,
			"0.006": 5.06118996146,
			"0.007": 5.34270702142,
			"0.008": 5.8504816198,
			"0.009": 9.45457670641,
			"0.01": 7.85639398187,
			"0.011": 1.08479075705,
			"0.012": 0.0,
			"0.013": 0.0,
			"0.014": 0.0,
			"0.015": 0.0,
			"0.016": 0.0,
			"0.017": 0.0,
			"0.018": 0.0,
			"0.019": 0.0,
			"0.02": 0.0,
			"0.021": 0.0,
			"0.022": 0.0,
			"0.023": 0.0,
			"0.024": 0.0,
			"0.025": 0.0
		}
	}
}
