{
	 "smiles": "C[C@]12CC[C@H]3[C@@H](CCC4=C3C=CC(O)=C4)[C@@H]1C[C@@H](O)[C@@H]2O", 
	 "Tm": 555.15, 
	 "num_atms": 45, 
	 "gaussian": { 
		 "optdone": 1, 
		 "sigma_profile": "yes", 
		 "theory": "DFT", 
		 "functional": "B3LYP", 
		 "basiset": "6-31G**", 
		 "properties": { 
			 "R2extent": 7813.327, 
			 "electric_dipole_moment_norm": 1.22826069708, 
			 "electric_quadrupole_moment_norm": 20.2771525787, 
			 "total_energy": -926.054252695, 
			 "HOMO_LUMO_gap": 0.21078, 
			 "cosmo_polarized_energy": -17.79, 
			 "cosmo_cavitation_energy": 41.89, 
			 "cosmo_dispersion_energy": -30.02, 
			 "cosmo_repulsion_energy": 2.23, 
			 "cosmo_total_nonelectrostatic_energy": 14.1, 
			 "SMD_solvation_energy": 5.98 
		},
		"coords": [
			{
				"x": 1.1221833718,
				"y": -2.1202479103,
				"z": -1.8929455529,
				"element": "C" 
			},
			{
				"x": 1.7015951219,
				"y": -0.8119275132,
				"z": -1.3148895942,
				"element": "C" 
			},
			{
				"x": 2.0020819741,
				"y": -0.9785736819,
				"z": 0.1840753057,
				"element": "C" 
			},
			{
				"x": 0.7112095696,
				"y": -1.0699141769,
				"z": 1.0256110498,
				"element": "C" 
			},
			{
				"x": -0.2628727375,
				"y": 0.1037161883,
				"z": 0.7648101833,
				"element": "C" 
			},
			{
				"x": -0.5563636346,
				"y": 0.2770078594,
				"z": -0.7496827461,
				"element": "C" 
			},
			{
				"x": -1.5117911564,
				"y": 1.459316385,
				"z": -0.9464685067,
				"element": "C" 
			},
			{
				"x": -2.868625629,
				"y": 1.1557674761,
				"z": -0.3048437436,
				"element": "C" 
			},
			{
				"x": -2.7625740427,
				"y": 0.571801769,
				"z": 1.0936308711,
				"element": "C" 
			},
			{
				"x": -1.5515148094,
				"y": 0.0407012451,
				"z": 1.5896446318,
				"element": "C" 
			},
			{
				"x": -1.5580615624,
				"y": -0.4927669528,
				"z": 2.8864937909,
				"element": "C" 
			},
			{
				"x": -2.7063839957,
				"y": -0.5202484681,
				"z": 3.6746958446,
				"element": "C" 
			},
			{
				"x": -3.8985279553,
				"y": 0.003278162,
				"z": 3.1690724584,
				"element": "C" 
			},
			{
				"x": -5.0677269915,
				"y": 0.0145986529,
				"z": 3.8802498324,
				"element": "O" 
			},
			{
				"x": -3.9150644927,
				"y": 0.5461120399,
				"z": 1.8848637838,
				"element": "C" 
			},
			{
				"x": 0.7743140911,
				"y": 0.418286085,
				"z": -1.4921057357,
				"element": "C" 
			},
			{
				"x": 0.8062000574,
				"y": 0.6826681378,
				"z": -3.0090529776,
				"element": "C" 
			},
			{
				"x": 2.2657442823,
				"y": 0.3216381144,
				"z": -3.4220317084,
				"element": "C" 
			},
			{
				"x": 3.0596405842,
				"y": 1.4615248415,
				"z": -3.7446185646,
				"element": "O" 
			},
			{
				"x": 2.9005061223,
				"y": -0.3550747508,
				"z": -2.1867501036,
				"element": "C" 
			},
			{
				"x": 3.7924752089,
				"y": -1.376366492,
				"z": -2.6102432814,
				"element": "O" 
			},
			{
				"x": 1.890097136,
				"y": -2.8982128694,
				"z": -1.8707018475,
				"element": "H" 
			},
			{
				"x": 0.8108965856,
				"y": -2.0146016061,
				"z": -2.9359722811,
				"element": "H" 
			},
			{
				"x": 0.2588283875,
				"y": -2.4786452786,
				"z": -1.3277142699,
				"element": "H" 
			},
			{
				"x": 2.6194347626,
				"y": -1.8687956975,
				"z": 0.3672719375,
				"element": "H" 
			},
			{
				"x": 2.5882049035,
				"y": -0.1134177336,
				"z": 0.5265225495,
				"element": "H" 
			},
			{
				"x": 0.9958731519,
				"y": -1.0933852087,
				"z": 2.0826144306,
				"element": "H" 
			},
			{
				"x": 0.1946638546,
				"y": -2.0176356026,
				"z": 0.8308082797,
				"element": "H" 
			},
			{
				"x": 0.2706343422,
				"y": 1.0214423098,
				"z": 1.0688321525,
				"element": "H" 
			},
			{
				"x": -1.0707739944,
				"y": -0.6271184435,
				"z": -1.11004015,
				"element": "H" 
			},
			{
				"x": -1.0713176863,
				"y": 2.3600561488,
				"z": -0.4962304954,
				"element": "H" 
			},
			{
				"x": -1.6495751491,
				"y": 1.6760280879,
				"z": -2.0118664545,
				"element": "H" 
			},
			{
				"x": -3.4091002839,
				"y": 0.4389505064,
				"z": -0.9405051165,
				"element": "H" 
			},
			{
				"x": -3.4923091959,
				"y": 2.0572822219,
				"z": -0.2777226084,
				"element": "H" 
			},
			{
				"x": -0.6443592002,
				"y": -0.8992634751,
				"z": 3.3070386282,
				"element": "H" 
			},
			{
				"x": -2.6724525521,
				"y": -0.9442994844,
				"z": 4.6764200344,
				"element": "H" 
			},
			{
				"x": -4.9106288989,
				"y": -0.3831767528,
				"z": 4.7462207358,
				"element": "H" 
			},
			{
				"x": -4.8487295592,
				"y": 0.9538756568,
				"z": 1.5072816194,
				"element": "H" 
			},
			{
				"x": 1.3038899457,
				"y": 1.2656608258,
				"z": -1.0252495413,
				"element": "H" 
			},
			{
				"x": 0.079605615,
				"y": 0.0557543416,
				"z": -3.5388741878,
				"element": "H" 
			},
			{
				"x": 0.5889221718,
				"y": 1.7245302623,
				"z": -3.2629371769,
				"element": "H" 
			},
			{
				"x": 2.279319818,
				"y": -0.3973512273,
				"z": -4.2526871118,
				"element": "H" 
			},
			{
				"x": 2.7725064517,
				"y": 1.7883326011,
				"z": -4.6064775789,
				"element": "H" 
			},
			{
				"x": 3.4490964211,
				"y": 0.4329961578,
				"z": -1.6471908696,
				"element": "H" 
			},
			{
				"x": 4.3261295966,
				"y": -1.6397027509,
				"z": -1.8500559153,
				"element": "H" 
			}
		],
		 "valence_orbital": [ 
			{
				"type": "occ",
				"energy": -0.27963,
				"method": "rhf"
			},
			{
				"type": "occ",
				"energy": -0.25745,
				"method": "rhf"
			},
			{
				"type": "occ",
				"energy": -0.25184,
				"method": "rhf"
			},
			{
				"type": "occ",
				"energy": -0.23653,
				"method": "rhf"
			},
			{
				"type": "occ",
				"energy": -0.20919,
				"method": "rhf"
			},
			{
				"type": "unocc",
				"energy": 0.00159,
				"method": "rhf"
			},
			{
				"type": "unocc",
				"energy": 0.01931,
				"method": "rhf"
			},
			{
				"type": "unocc",
				"energy": 0.06737,
				"method": "rhf"
			},
			{
				"type": "unocc",
				"energy": 0.0749,
				"method": "rhf"
			},
			{
				"type": "unocc",
				"energy": 0.08206,
				"method": "rhf"
			}
		],
		"cosmo_sigma_profile": { 
			"-0.025": 0.0,
			"-0.024": 0.0,
			"-0.023": 0.0,
			"-0.022": 0.0,
			"-0.021": 0.0,
			"-0.02": 0.0,
			"-0.019": 0.0,
			"-0.018": 0.167860296992,
			"-0.017": 0.774428471712,
			"-0.016": 1.10058634063,
			"-0.015": 2.1129132046,
			"-0.014": 3.55873654039,
			"-0.013": 2.34125508269,
			"-0.012": 2.03495909447,
			"-0.011": 2.72473333969,
			"-0.01": 3.0046296239,
			"-0.009": 3.899423048,
			"-0.008": 3.11711434858,
			"-0.007": 2.21438630253,
			"-0.006": 4.11874461382,
			"-0.005": 8.17958281326,
			"-0.004": 11.5640986177,
			"-0.003": 29.3238511585,
			"-0.002": 45.2014121091,
			"-0.001": 43.1479872979,
			"0.0": 36.6144040253,
			"0.001": 23.8002998557,
			"0.002": 13.3091443659,
			"0.003": 8.91954111756,
			"0.004": 10.3938004846,
			"0.005": 11.9035183044,
			"0.006": 12.3875871406,
			"0.007": 8.28469467897,
			"0.008": 3.41378218377,
			"0.009": 3.9636585764,
			"0.01": 3.60742542675,
			"0.011": 4.19268433314,
			"0.012": 5.13821272318,
			"0.013": 3.33239069006,
			"0.014": 4.54794808381,
			"0.015": 0.814869921378,
			"0.016": 0.0,
			"0.017": 0.0,
			"0.018": 0.0,
			"0.019": 0.0,
			"0.02": 0.0,
			"0.021": 0.0,
			"0.022": 0.0,
			"0.023": 0.0,
			"0.024": 0.0,
			"0.025": 0.0
		}
	}
}
