{
	 "smiles": "CC1=CC=C(C=C1)S(=O)(=O)NCCNS(=O)(=O)C1=CC=C(C)C=C1", 
	 "Tm": 433.15, 
	 "num_atms": 44, 
	 "gaussian": { 
		 "optdone": 1, 
		 "sigma_profile": "yes", 
		 "theory": "DFT", 
		 "functional": "B3LYP", 
		 "basiset": "6-31G**", 
		 "properties": { 
			 "R2extent": 13755.9303, 
			 "electric_dipole_moment_norm": 7.48955433521, 
			 "electric_quadrupole_moment_norm": 44.0838704956, 
			 "total_energy": -1828.40733911, 
			 "HOMO_LUMO_gap": 0.20374, 
			 "cosmo_polarized_energy": -27.48, 
			 "cosmo_cavitation_energy": 50.41, 
			 "cosmo_dispersion_energy": -35.08, 
			 "cosmo_repulsion_energy": 2.63, 
			 "cosmo_total_nonelectrostatic_energy": 17.96, 
			 "SMD_solvation_energy": 6.1 
		},
		"coords": [
			{
				"x": 5.4317904469,
				"y": -0.1512775448,
				"z": -4.7356522356,
				"element": "C" 
			},
			{
				"x": 4.1332264354,
				"y": -0.8231658173,
				"z": -4.3600850138,
				"element": "C" 
			},
			{
				"x": 4.104017179,
				"y": -1.8576171831,
				"z": -3.4153331486,
				"element": "C" 
			},
			{
				"x": 2.9036348962,
				"y": -2.4617116674,
				"z": -3.0429303769,
				"element": "C" 
			},
			{
				"x": 1.7123224618,
				"y": -2.0256200918,
				"z": -3.6252624904,
				"element": "C" 
			},
			{
				"x": 1.7147315703,
				"y": -1.0056003093,
				"z": -4.5806783786,
				"element": "C" 
			},
			{
				"x": 2.9225417591,
				"y": -0.4141885104,
				"z": -4.9402753082,
				"element": "C" 
			},
			{
				"x": 0.1534985245,
				"y": -2.763749687,
				"z": -3.1263505011,
				"element": "S" 
			},
			{
				"x": -0.7882006821,
				"y": -2.599419312,
				"z": -4.2345822346,
				"element": "O" 
			},
			{
				"x": 0.4557945613,
				"y": -4.0686530489,
				"z": -2.5328393478,
				"element": "O" 
			},
			{
				"x": -0.464551952,
				"y": -1.819094488,
				"z": -1.8812051131,
				"element": "N" 
			},
			{
				"x": 0.2504143892,
				"y": -1.7569556149,
				"z": -0.603826126,
				"element": "C" 
			},
			{
				"x": -0.6675488403,
				"y": -1.1267351095,
				"z": 0.444138577,
				"element": "C" 
			},
			{
				"x": -1.0971452727,
				"y": 0.2280993488,
				"z": 0.050323556,
				"element": "N" 
			},
			{
				"x": -0.1748437852,
				"y": 1.5714637392,
				"z": 0.4814742069,
				"element": "S" 
			},
			{
				"x": -0.9119698595,
				"y": 2.718888096,
				"z": -0.0479849529,
				"element": "O" 
			},
			{
				"x": 1.2017651818,
				"y": 1.2620837691,
				"z": 0.0885615178,
				"element": "O" 
			},
			{
				"x": -0.2099131549,
				"y": 1.6718594717,
				"z": 2.2726635611,
				"element": "C" 
			},
			{
				"x": -1.279747927,
				"y": 2.3148933596,
				"z": 2.9031959663,
				"element": "C" 
			},
			{
				"x": -1.3142673168,
				"y": 2.3707350922,
				"z": 4.2932328206,
				"element": "C" 
			},
			{
				"x": -0.2964856545,
				"y": 1.7936924176,
				"z": 5.0701443727,
				"element": "C" 
			},
			{
				"x": -0.3607860362,
				"y": 1.841475364,
				"z": 6.5774266271,
				"element": "C" 
			},
			{
				"x": 0.7707298171,
				"y": 1.1682835742,
				"z": 4.4125166772,
				"element": "C" 
			},
			{
				"x": 0.8234356405,
				"y": 1.1036412624,
				"z": 3.0198253851,
				"element": "C" 
			},
			{
				"x": 5.4527418733,
				"y": 0.1138307401,
				"z": -5.7970901622,
				"element": "H" 
			},
			{
				"x": 6.2912352829,
				"y": -0.7946030564,
				"z": -4.5275575039,
				"element": "H" 
			},
			{
				"x": 5.5700201341,
				"y": 0.7764986264,
				"z": -4.166756213,
				"element": "H" 
			},
			{
				"x": 5.0339405665,
				"y": -2.2009570977,
				"z": -2.9697461871,
				"element": "H" 
			},
			{
				"x": 2.8868123872,
				"y": -3.2800125908,
				"z": -2.331415618,
				"element": "H" 
			},
			{
				"x": 0.784404122,
				"y": -0.7022906469,
				"z": -5.0491101651,
				"element": "H" 
			},
			{
				"x": 2.9278061856,
				"y": 0.3737361073,
				"z": -5.6888919042,
				"element": "H" 
			},
			{
				"x": -0.7517709214,
				"y": -0.9047195826,
				"z": -2.2235008281,
				"element": "H" 
			},
			{
				"x": 1.1836542027,
				"y": -1.183887938,
				"z": -0.6699566082,
				"element": "H" 
			},
			{
				"x": 0.4833836971,
				"y": -2.7813941052,
				"z": -0.3017789586,
				"element": "H" 
			},
			{
				"x": -1.5746156071,
				"y": -1.729922076,
				"z": 0.5356585341,
				"element": "H" 
			},
			{
				"x": -0.1684868886,
				"y": -1.1255493177,
				"z": 1.421963561,
				"element": "H" 
			},
			{
				"x": -2.0846900739,
				"y": 0.4256868945,
				"z": 0.1723454413,
				"element": "H" 
			},
			{
				"x": -2.0542519671,
				"y": 2.7876158001,
				"z": 2.3081810309,
				"element": "H" 
			},
			{
				"x": -2.1386228534,
				"y": 2.8800140843,
				"z": 4.7855263183,
				"element": "H" 
			},
			{
				"x": -0.7269156481,
				"y": 2.8103293916,
				"z": 6.9307416685,
				"element": "H" 
			},
			{
				"x": -1.0450357724,
				"y": 1.0763839321,
				"z": 6.9644336638,
				"element": "H" 
			},
			{
				"x": 0.6197698924,
				"y": 1.6630545363,
				"z": 7.0265841332,
				"element": "H" 
			},
			{
				"x": 1.5781040499,
				"y": 0.7344124846,
				"z": 4.9962154876,
				"element": "H" 
			},
			{
				"x": 1.6665749561,
				"y": 0.6478467037,
				"z": 2.5124562696,
				"element": "H" 
			}
		],
		 "valence_orbital": [ 
			{
				"type": "occ",
				"energy": -0.27814,
				"method": "rhf"
			},
			{
				"type": "occ",
				"energy": -0.2763,
				"method": "rhf"
			},
			{
				"type": "occ",
				"energy": -0.26513,
				"method": "rhf"
			},
			{
				"type": "occ",
				"energy": -0.26207,
				"method": "rhf"
			},
			{
				"type": "occ",
				"energy": -0.2487,
				"method": "rhf"
			},
			{
				"type": "unocc",
				"energy": -0.04496,
				"method": "rhf"
			},
			{
				"type": "unocc",
				"energy": -0.03019,
				"method": "rhf"
			},
			{
				"type": "unocc",
				"energy": -0.02838,
				"method": "rhf"
			},
			{
				"type": "unocc",
				"energy": -0.01396,
				"method": "rhf"
			},
			{
				"type": "unocc",
				"energy": 0.04798,
				"method": "rhf"
			}
		],
		"cosmo_sigma_profile": { 
			"-0.025": 0.0,
			"-0.024": 0.0,
			"-0.023": 0.0,
			"-0.022": 0.0,
			"-0.021": 0.0,
			"-0.02": 0.0,
			"-0.019": 0.0,
			"-0.018": 0.0,
			"-0.017": 0.0,
			"-0.016": 0.233514862219,
			"-0.015": 1.19407772477,
			"-0.014": 0.962347467814,
			"-0.013": 1.57479309508,
			"-0.012": 1.99309062497,
			"-0.011": 2.19667930643,
			"-0.01": 2.33978499751,
			"-0.009": 2.5168043847,
			"-0.008": 2.56583948437,
			"-0.007": 8.54753594622,
			"-0.006": 25.4170495862,
			"-0.005": 35.7260368708,
			"-0.004": 33.8150127082,
			"-0.003": 31.4291477821,
			"-0.002": 31.0493024078,
			"-0.001": 32.2511456748,
			"0.0": 26.4427101597,
			"0.001": 20.42493704,
			"0.002": 23.1737737893,
			"0.003": 28.6767454813,
			"0.004": 12.7331603138,
			"0.005": 6.35760396615,
			"0.006": 6.5421213954,
			"0.007": 6.82491535224,
			"0.008": 8.2563113112,
			"0.009": 7.32521379212,
			"0.01": 12.2895061347,
			"0.011": 17.5885541363,
			"0.012": 9.41618812092,
			"0.013": 0.0622501558808,
			"0.014": 0.0,
			"0.015": 0.0,
			"0.016": 0.0,
			"0.017": 0.0,
			"0.018": 0.0,
			"0.019": 0.0,
			"0.02": 0.0,
			"0.021": 0.0,
			"0.022": 0.0,
			"0.023": 0.0,
			"0.024": 0.0,
			"0.025": 0.0
		}
	}
}
