{
	 "smiles": "CC(C)C1=CC=C(C=C1)N1C=CN=C1SCC(O)=O", 
	 "Tm": 354.15, 
	 "num_atms": 35, 
	 "gaussian": { 
		 "optdone": 1, 
		 "sigma_profile": "yes", 
		 "theory": "DFT", 
		 "functional": "B3LYP", 
		 "basiset": "6-31G**", 
		 "properties": { 
			 "R2extent": 10463.1035, 
			 "electric_dipole_moment_norm": 9.10748912599, 
			 "electric_quadrupole_moment_norm": 48.5821507421, 
			 "total_energy": -1201.29269306, 
			 "HOMO_LUMO_gap": 0.18819, 
			 "cosmo_polarized_energy": -15.76, 
			 "cosmo_cavitation_energy": 39.86, 
			 "cosmo_dispersion_energy": -28.39, 
			 "cosmo_repulsion_energy": 2.16, 
			 "cosmo_total_nonelectrostatic_energy": 13.63, 
			 "SMD_solvation_energy": 7.9 
		},
		"coords": [
			{
				"x": -0.1255911485,
				"y": 1.2773015096,
				"z": 3.5584484873,
				"element": "C" 
			},
			{
				"x": 0.4021780689,
				"y": 1.8062154752,
				"z": 2.2111704359,
				"element": "C" 
			},
			{
				"x": 1.8890742767,
				"y": 2.1963324492,
				"z": 2.311592172,
				"element": "C" 
			},
			{
				"x": 0.1532218257,
				"y": 0.8180732651,
				"z": 1.0799318185,
				"element": "C" 
			},
			{
				"x": -0.6747733172,
				"y": 1.1574568611,
				"z": 0.0018051683,
				"element": "C" 
			},
			{
				"x": -0.9059051652,
				"y": 0.2689329777,
				"z": -1.0473147351,
				"element": "C" 
			},
			{
				"x": -0.3136117718,
				"y": -0.995248125,
				"z": -1.0225831409,
				"element": "C" 
			},
			{
				"x": 0.5049234078,
				"y": -1.3634474266,
				"z": 0.0491953981,
				"element": "C" 
			},
			{
				"x": 0.7397201293,
				"y": -0.4565394818,
				"z": 1.0799483531,
				"element": "C" 
			},
			{
				"x": -0.5671104905,
				"y": -1.9147769038,
				"z": -2.0865230963,
				"element": "N" 
			},
			{
				"x": -1.826042712,
				"y": -2.2790774321,
				"z": -2.5572879293,
				"element": "C" 
			},
			{
				"x": -1.6108031415,
				"y": -3.1477539184,
				"z": -3.5880882227,
				"element": "C" 
			},
			{
				"x": -0.2566815517,
				"y": -3.3384107104,
				"z": -3.7673377998,
				"element": "N" 
			},
			{
				"x": 0.3461320588,
				"y": -2.5856771448,
				"z": -2.8621533746,
				"element": "C" 
			},
			{
				"x": 2.0947417594,
				"y": -2.4160262233,
				"z": -2.681714868,
				"element": "S" 
			},
			{
				"x": 2.6332376734,
				"y": -2.862768892,
				"z": -4.3889007388,
				"element": "C" 
			},
			{
				"x": 2.7477359291,
				"y": -4.3670448152,
				"z": -4.6844908092,
				"element": "C" 
			},
			{
				"x": 1.6098726146,
				"y": -5.059021244,
				"z": -4.6959784795,
				"element": "O" 
			},
			{
				"x": 3.8232330047,
				"y": -4.868921149,
				"z": -4.9247819277,
				"element": "O" 
			},
			{
				"x": 0.0092142048,
				"y": 2.0277230426,
				"z": 4.3445653731,
				"element": "H" 
			},
			{
				"x": -1.1905551153,
				"y": 1.0321262642,
				"z": 3.5002787452,
				"element": "H" 
			},
			{
				"x": 0.4092743354,
				"y": 0.372981195,
				"z": 3.8687083722,
				"element": "H" 
			},
			{
				"x": -0.162240027,
				"y": 2.716566112,
				"z": 1.970672602,
				"element": "H" 
			},
			{
				"x": 2.5112966339,
				"y": 1.3320199602,
				"z": 2.5682141498,
				"element": "H" 
			},
			{
				"x": 2.0355052953,
				"y": 2.952786556,
				"z": 3.0898300995,
				"element": "H" 
			},
			{
				"x": 2.2581668662,
				"y": 2.6040600873,
				"z": 1.3655915919,
				"element": "H" 
			},
			{
				"x": -1.1388409317,
				"y": 2.1398713657,
				"z": -0.0254836536,
				"element": "H" 
			},
			{
				"x": -1.528719682,
				"y": 0.5563836667,
				"z": -1.8885391475,
				"element": "H" 
			},
			{
				"x": 0.9405974815,
				"y": -2.3569456833,
				"z": 0.0818797858,
				"element": "H" 
			},
			{
				"x": 1.3815357798,
				"y": -0.7572292489,
				"z": 1.9028573618,
				"element": "H" 
			},
			{
				"x": -2.7241934179,
				"y": -1.9095544845,
				"z": -2.0888920251,
				"element": "H" 
			},
			{
				"x": -2.3371988345,
				"y": -3.6588471325,
				"z": -4.2025921361,
				"element": "H" 
			},
			{
				"x": 1.9547878492,
				"y": -2.3732849549,
				"z": -5.093021557,
				"element": "H" 
			},
			{
				"x": 3.630741404,
				"y": -2.4331881042,
				"z": -4.4835031719,
				"element": "H" 
			},
			{
				"x": 0.8278767085,
				"y": -4.4800677127,
				"z": -4.4638031016,
				"element": "H" 
			}
		],
		 "valence_orbital": [ 
			{
				"type": "occ",
				"energy": -0.28563,
				"method": "rhf"
			},
			{
				"type": "occ",
				"energy": -0.27488,
				"method": "rhf"
			},
			{
				"type": "occ",
				"energy": -0.25707,
				"method": "rhf"
			},
			{
				"type": "occ",
				"energy": -0.24851,
				"method": "rhf"
			},
			{
				"type": "occ",
				"energy": -0.2238,
				"method": "rhf"
			},
			{
				"type": "unocc",
				"energy": -0.03561,
				"method": "rhf"
			},
			{
				"type": "unocc",
				"energy": -0.02931,
				"method": "rhf"
			},
			{
				"type": "unocc",
				"energy": -0.00093,
				"method": "rhf"
			},
			{
				"type": "unocc",
				"energy": 0.01469,
				"method": "rhf"
			},
			{
				"type": "unocc",
				"energy": 0.03717,
				"method": "rhf"
			}
		],
		"cosmo_sigma_profile": { 
			"-0.025": 0.0,
			"-0.024": 0.0,
			"-0.023": 0.0,
			"-0.022": 0.0,
			"-0.021": 0.0,
			"-0.02": 0.0,
			"-0.019": 0.0,
			"-0.018": 0.0,
			"-0.017": 0.0,
			"-0.016": 0.0,
			"-0.015": 0.0,
			"-0.014": 0.0,
			"-0.013": 0.0,
			"-0.012": 0.0,
			"-0.011": 0.0,
			"-0.01": 0.0635143803413,
			"-0.009": 2.19600298143,
			"-0.008": 6.90282271651,
			"-0.007": 10.4270349818,
			"-0.006": 15.3191309163,
			"-0.005": 20.1885549784,
			"-0.004": 19.0637666813,
			"-0.003": 23.9382870693,
			"-0.002": 27.412339049,
			"-0.001": 32.2705281502,
			"0.0": 27.8533731096,
			"0.001": 32.9514894827,
			"0.002": 20.7781473083,
			"0.003": 18.8313088677,
			"0.004": 20.6274418408,
			"0.005": 6.88567872543,
			"0.006": 4.68637152815,
			"0.007": 2.28768711208,
			"0.008": 2.27845125724,
			"0.009": 2.99791795657,
			"0.01": 3.3262049449,
			"0.011": 5.47250523612,
			"0.012": 7.14239111995,
			"0.013": 3.64539484694,
			"0.014": 0.679409467044,
			"0.015": 0.0,
			"0.016": 0.0,
			"0.017": 0.0,
			"0.018": 0.0,
			"0.019": 0.0,
			"0.02": 0.0,
			"0.021": 0.0,
			"0.022": 0.0,
			"0.023": 0.0,
			"0.024": 0.0,
			"0.025": 0.0
		}
	}
}
