{
	 "smiles": "OC(=O)CCCCCCCCC#C", 
	 "Tm": 315.15, 
	 "num_atms": 31, 
	 "gaussian": { 
		 "optdone": 1, 
		 "sigma_profile": "yes", 
		 "theory": "DFT", 
		 "functional": "B3LYP", 
		 "basiset": "6-31G**", 
		 "properties": { 
			 "R2extent": 4428.0825, 
			 "electric_dipole_moment_norm": 4.27250760093, 
			 "electric_quadrupole_moment_norm": 21.2596291536, 
			 "total_energy": -580.416581482, 
			 "HOMO_LUMO_gap": 0.27331, 
			 "cosmo_polarized_energy": -16.57, 
			 "cosmo_cavitation_energy": 34.31, 
			 "cosmo_dispersion_energy": -22.61, 
			 "cosmo_repulsion_energy": 1.84, 
			 "cosmo_total_nonelectrostatic_energy": 13.54, 
			 "SMD_solvation_energy": 7.4 
		},
		"coords": [
			{
				"x": -0.4584020909,
				"y": 4.0436818779,
				"z": -1.3822724612,
				"element": "O" 
			},
			{
				"x": -1.7544232792,
				"y": 3.6882307135,
				"z": -1.6212384396,
				"element": "C" 
			},
			{
				"x": -2.3335436561,
				"y": 4.1421665512,
				"z": -2.5751537551,
				"element": "O" 
			},
			{
				"x": -2.3536341446,
				"y": 2.6947297281,
				"z": -0.6360390786,
				"element": "C" 
			},
			{
				"x": -1.6937988792,
				"y": 1.3022312881,
				"z": -0.708660934,
				"element": "C" 
			},
			{
				"x": -2.3457268879,
				"y": 0.2984758577,
				"z": 0.2545353173,
				"element": "C" 
			},
			{
				"x": -1.7912887167,
				"y": -1.1409686272,
				"z": 0.1909334018,
				"element": "C" 
			},
			{
				"x": -0.5851320807,
				"y": -1.4523398678,
				"z": 1.0994006334,
				"element": "C" 
			},
			{
				"x": 0.7529014628,
				"y": -0.7620674139,
				"z": 0.7838122011,
				"element": "C" 
			},
			{
				"x": 1.3440187702,
				"y": -1.1192248542,
				"z": -0.5852629528,
				"element": "C" 
			},
			{
				"x": 2.7373597394,
				"y": -0.4987739567,
				"z": -0.8361998081,
				"element": "C" 
			},
			{
				"x": 3.7647294303,
				"y": -0.9587707003,
				"z": 0.0998710981,
				"element": "C" 
			},
			{
				"x": 4.6034077638,
				"y": -1.350242751,
				"z": 0.8765715159,
				"element": "C" 
			},
			{
				"x": -0.1395021848,
				"y": 3.6192246263,
				"z": -0.5736030058,
				"element": "H" 
			},
			{
				"x": -2.2621502848,
				"y": 3.095652947,
				"z": 0.3833098409,
				"element": "H" 
			},
			{
				"x": -3.4190552138,
				"y": 2.6220030184,
				"z": -0.8660304662,
				"element": "H" 
			},
			{
				"x": -0.6204084391,
				"y": 1.3873082137,
				"z": -0.5007688719,
				"element": "H" 
			},
			{
				"x": -1.7756899879,
				"y": 0.925989388,
				"z": -1.7361894902,
				"element": "H" 
			},
			{
				"x": -2.2700124856,
				"y": 0.6750559743,
				"z": 1.2847837235,
				"element": "H" 
			},
			{
				"x": -3.4189901129,
				"y": 0.2713789359,
				"z": 0.0256390981,
				"element": "H" 
			},
			{
				"x": -2.5958352235,
				"y": -1.8249498857,
				"z": 0.487534429,
				"element": "H" 
			},
			{
				"x": -1.5613957322,
				"y": -1.3976891915,
				"z": -0.8517298723,
				"element": "H" 
			},
			{
				"x": -0.4202779607,
				"y": -2.5383414783,
				"z": 1.0805514363,
				"element": "H" 
			},
			{
				"x": -0.8642576431,
				"y": -1.2118150321,
				"z": 2.1342951819,
				"element": "H" 
			},
			{
				"x": 0.6478247572,
				"y": 0.3285733384,
				"z": 0.8652918732,
				"element": "H" 
			},
			{
				"x": 1.4767333431,
				"y": -1.046685714,
				"z": 1.5569508458,
				"element": "H" 
			},
			{
				"x": 1.4204049967,
				"y": -2.2099455838,
				"z": -0.6765154222,
				"element": "H" 
			},
			{
				"x": 0.6806017792,
				"y": -0.7833397668,
				"z": -1.3909691915,
				"element": "H" 
			},
			{
				"x": 2.6651423478,
				"y": 0.5964879616,
				"z": -0.781609286,
				"element": "H" 
			},
			{
				"x": 3.0574181676,
				"y": -0.7293044775,
				"z": -1.8603771132,
				"element": "H" 
			},
			{
				"x": 5.3495824457,
				"y": -1.6925311193,
				"z": 1.5553395523,
				"element": "H" 
			}
		],
		 "valence_orbital": [ 
			{
				"type": "occ",
				"energy": -0.32043,
				"method": "rhf"
			},
			{
				"type": "occ",
				"energy": -0.31169,
				"method": "rhf"
			},
			{
				"type": "occ",
				"energy": -0.26562,
				"method": "rhf"
			},
			{
				"type": "occ",
				"energy": -0.26497,
				"method": "rhf"
			},
			{
				"type": "occ",
				"energy": -0.26358,
				"method": "rhf"
			},
			{
				"type": "unocc",
				"energy": 0.00973,
				"method": "rhf"
			},
			{
				"type": "unocc",
				"energy": 0.03498,
				"method": "rhf"
			},
			{
				"type": "unocc",
				"energy": 0.04928,
				"method": "rhf"
			},
			{
				"type": "unocc",
				"energy": 0.05659,
				"method": "rhf"
			},
			{
				"type": "unocc",
				"energy": 0.08206,
				"method": "rhf"
			}
		],
		"cosmo_sigma_profile": { 
			"-0.025": 0.0,
			"-0.024": 0.0,
			"-0.023": 0.0,
			"-0.022": 0.0,
			"-0.021": 0.0,
			"-0.02": 0.0,
			"-0.019": 0.0257942790969,
			"-0.018": 0.640431515942,
			"-0.017": 0.868531728861,
			"-0.016": 1.14727568083,
			"-0.015": 1.1285478522,
			"-0.014": 0.747668824897,
			"-0.013": 0.702222247358,
			"-0.012": 1.33531148764,
			"-0.011": 2.34546852745,
			"-0.01": 2.77289370156,
			"-0.009": 1.62856041452,
			"-0.008": 2.34258377009,
			"-0.007": 3.20003948703,
			"-0.006": 4.33735961196,
			"-0.005": 9.52602943283,
			"-0.004": 14.6233096535,
			"-0.003": 24.4097371848,
			"-0.002": 40.7549020559,
			"-0.001": 34.1062540438,
			"0.0": 28.5383883356,
			"0.001": 18.8540247469,
			"0.002": 7.84134943722,
			"0.003": 5.93970040027,
			"0.004": 7.56006223662,
			"0.005": 6.67976410861,
			"0.006": 6.58865460272,
			"0.007": 10.167318775,
			"0.008": 6.15459458489,
			"0.009": 2.99476707425,
			"0.01": 3.5866202938,
			"0.011": 6.3482355046,
			"0.012": 5.75195026314,
			"0.013": 3.49687905335,
			"0.014": 0.338381039588,
			"0.015": 0.0,
			"0.016": 0.0,
			"0.017": 0.0,
			"0.018": 0.0,
			"0.019": 0.0,
			"0.02": 0.0,
			"0.021": 0.0,
			"0.022": 0.0,
			"0.023": 0.0,
			"0.024": 0.0,
			"0.025": 0.0
		}
	}
}
