{
	 "smiles": "CC1=C2NC=C(C(O)=O)C(=O)C2=CC(F)=C1", 
	 "Tm": 563.15, 
	 "num_atms": 24, 
	 "gaussian": { 
		 "optdone": 1, 
		 "sigma_profile": "yes", 
		 "theory": "DFT", 
		 "functional": "B3LYP", 
		 "basiset": "6-31G**", 
		 "properties": { 
			 "R2extent": 4998.7266, 
			 "electric_dipole_moment_norm": 8.92046464317, 
			 "electric_quadrupole_moment_norm": 26.2168665069, 
			 "total_energy": -804.294701233, 
			 "HOMO_LUMO_gap": 0.16743, 
			 "cosmo_polarized_energy": -22.71, 
			 "cosmo_cavitation_energy": 28.79, 
			 "cosmo_dispersion_energy": -21.49, 
			 "cosmo_repulsion_energy": 1.6, 
			 "cosmo_total_nonelectrostatic_energy": 8.89, 
			 "SMD_solvation_energy": 6.93 
		},
		"coords": [
			{
				"x": 0.1423445875,
				"y": -1.8897218733,
				"z": -1.9451772697,
				"element": "C" 
			},
			{
				"x": -0.5906380669,
				"y": -0.5890639847,
				"z": -1.7222319935,
				"element": "C" 
			},
			{
				"x": -0.9914023199,
				"y": -0.1887526778,
				"z": -0.4238250486,
				"element": "C" 
			},
			{
				"x": -0.7151276054,
				"y": -0.9925000739,
				"z": 0.6775974443,
				"element": "N" 
			},
			{
				"x": -1.0788759067,
				"y": -0.6494523967,
				"z": 1.9335221124,
				"element": "C" 
			},
			{
				"x": -1.745371627,
				"y": 0.5127297838,
				"z": 2.2153506027,
				"element": "C" 
			},
			{
				"x": -2.0921507264,
				"y": 0.776891199,
				"z": 3.6520327117,
				"element": "C" 
			},
			{
				"x": -2.7416111882,
				"y": 1.919124921,
				"z": 3.8823034827,
				"element": "O" 
			},
			{
				"x": -1.7977651113,
				"y": -0.0045781472,
				"z": 4.5364753556,
				"element": "O" 
			},
			{
				"x": -2.0887471925,
				"y": 1.4319677782,
				"z": 1.1467042766,
				"element": "C" 
			},
			{
				"x": -2.696545236,
				"y": 2.5060825938,
				"z": 1.3441988285,
				"element": "O" 
			},
			{
				"x": -1.6769518933,
				"y": 1.0262615987,
				"z": -0.2113943315,
				"element": "C" 
			},
			{
				"x": -1.9708168715,
				"y": 1.8587977154,
				"z": -1.3043184888,
				"element": "C" 
			},
			{
				"x": -1.5768246542,
				"y": 1.4598080141,
				"z": -2.5618299352,
				"element": "C" 
			},
			{
				"x": -1.8449994394,
				"y": 2.2377491176,
				"z": -3.627705111,
				"element": "F" 
			},
			{
				"x": -0.8957710476,
				"y": 0.2554648944,
				"z": -2.7812369538,
				"element": "C" 
			},
			{
				"x": 1.0943811048,
				"y": -1.9219174258,
				"z": -1.3996734669,
				"element": "H" 
			},
			{
				"x": 0.3725533553,
				"y": -2.0276792542,
				"z": -3.0033488682,
				"element": "H" 
			},
			{
				"x": -0.4537138095,
				"y": -2.7550352244,
				"z": -1.6274648931,
				"element": "H" 
			},
			{
				"x": -0.2253973673,
				"y": -1.8624440978,
				"z": 0.5318395539,
				"element": "H" 
			},
			{
				"x": -0.8240685596,
				"y": -1.3339459621,
				"z": 2.7356523842,
				"element": "H" 
			},
			{
				"x": -2.8693556348,
				"y": 2.3869936749,
				"z": 3.0116516079,
				"element": "H" 
			},
			{
				"x": -2.4974032017,
				"y": 2.7904164931,
				"z": -1.1355082558,
				"element": "H" 
			},
			{
				"x": -0.6107415883,
				"y": -0.0051966658,
				"z": -3.7953137442,
				"element": "H" 
			}
		],
		 "valence_orbital": [ 
			{
				"type": "occ",
				"energy": -0.28284,
				"method": "rhf"
			},
			{
				"type": "occ",
				"energy": -0.27805,
				"method": "rhf"
			},
			{
				"type": "occ",
				"energy": -0.27062,
				"method": "rhf"
			},
			{
				"type": "occ",
				"energy": -0.25759,
				"method": "rhf"
			},
			{
				"type": "occ",
				"energy": -0.24008,
				"method": "rhf"
			},
			{
				"type": "unocc",
				"energy": -0.07265,
				"method": "rhf"
			},
			{
				"type": "unocc",
				"energy": -0.05283,
				"method": "rhf"
			},
			{
				"type": "unocc",
				"energy": -0.01112,
				"method": "rhf"
			},
			{
				"type": "unocc",
				"energy": 0.02938,
				"method": "rhf"
			},
			{
				"type": "unocc",
				"energy": 0.03258,
				"method": "rhf"
			}
		],
		"cosmo_sigma_profile": { 
			"-0.025": 0.0,
			"-0.024": 0.0,
			"-0.023": 0.0,
			"-0.022": 0.0,
			"-0.021": 0.0,
			"-0.02": 0.0,
			"-0.019": 0.0,
			"-0.018": 0.484079831609,
			"-0.017": 1.16689767288,
			"-0.016": 1.35225183814,
			"-0.015": 1.19846356293,
			"-0.014": 1.46033708381,
			"-0.013": 1.63622515564,
			"-0.012": 1.65296963184,
			"-0.011": 1.67834496067,
			"-0.01": 2.82453239767,
			"-0.009": 2.38295888078,
			"-0.008": 4.3303915755,
			"-0.007": 7.14892403335,
			"-0.006": 8.80584813074,
			"-0.005": 9.05162721032,
			"-0.004": 11.062988951,
			"-0.003": 16.0388955407,
			"-0.002": 23.5626987707,
			"-0.001": 20.9544045583,
			"0.0": 21.0584426325,
			"0.001": 19.1097509892,
			"0.002": 9.68195958401,
			"0.003": 7.72156106164,
			"0.004": 13.0826935929,
			"0.005": 3.78360138637,
			"0.006": 3.84205492526,
			"0.007": 3.39196788693,
			"0.008": 3.79601049908,
			"0.009": 4.33022936686,
			"0.01": 4.78643373986,
			"0.011": 6.42390477832,
			"0.012": 7.91001825809,
			"0.013": 3.88841985158,
			"0.014": 1.6633870116,
			"0.015": 0.100365648176,
			"0.016": 0.0,
			"0.017": 0.0,
			"0.018": 0.0,
			"0.019": 0.0,
			"0.02": 0.0,
			"0.021": 0.0,
			"0.022": 0.0,
			"0.023": 0.0,
			"0.024": 0.0,
			"0.025": 0.0
		}
	}
}
