{
	 "smiles": "OC(=O)C1=C(O)C(=CC(=C1)[N+]([O-])=O)[N+]([O-])=O", 
	 "Tm": 443.15, 
	 "num_atms": 20, 
	 "gaussian": { 
		 "optdone": 1, 
		 "sigma_profile": "yes", 
		 "theory": "DFT", 
		 "functional": "B3LYP", 
		 "basiset": "6-31G**", 
		 "properties": { 
			 "R2extent": 4655.1342, 
			 "electric_dipole_moment_norm": 5.6940964551, 
			 "electric_quadrupole_moment_norm": 25.7667089066, 
			 "total_energy": -905.027078125, 
			 "HOMO_LUMO_gap": 0.17744, 
			 "cosmo_polarized_energy": -19.71, 
			 "cosmo_cavitation_energy": 27.27, 
			 "cosmo_dispersion_energy": -20.1, 
			 "cosmo_repulsion_energy": 1.56, 
			 "cosmo_total_nonelectrostatic_energy": 8.72, 
			 "SMD_solvation_energy": 10.88 
		},
		"coords": [
			{
				"x": 0.7260328504,
				"y": -0.4952483666,
				"z": -4.1568486445,
				"element": "O" 
			},
			{
				"x": 0.8377765419,
				"y": -0.9012771893,
				"z": -2.8522885353,
				"element": "C" 
			},
			{
				"x": 1.6266436055,
				"y": -1.7558415826,
				"z": -2.5255542423,
				"element": "O" 
			},
			{
				"x": -0.0920941594,
				"y": -0.1913637927,
				"z": -1.9351241594,
				"element": "C" 
			},
			{
				"x": -0.9950222971,
				"y": 0.8329063688,
				"z": -2.3465773696,
				"element": "C" 
			},
			{
				"x": -1.1249365801,
				"y": 1.2421384664,
				"z": -3.6033757856,
				"element": "O" 
			},
			{
				"x": -1.8224804351,
				"y": 1.4101337585,
				"z": -1.3485568126,
				"element": "C" 
			},
			{
				"x": -1.7831012848,
				"y": 0.9904275353,
				"z": -0.0295025867,
				"element": "C" 
			},
			{
				"x": -0.8792352234,
				"y": -0.0021130248,
				"z": 0.3370926071,
				"element": "C" 
			},
			{
				"x": -0.0398257266,
				"y": -0.589270603,
				"z": -0.5964731879,
				"element": "C" 
			},
			{
				"x": -0.819827461,
				"y": -0.4355600473,
				"z": 1.7382329987,
				"element": "N" 
			},
			{
				"x": -1.578992706,
				"y": 0.1168356408,
				"z": 2.5320242923,
				"element": "O" 
			},
			{
				"x": -0.0152781826,
				"y": -1.3207664418,
				"z": 2.0219535221,
				"element": "O" 
			},
			{
				"x": -2.7686704794,
				"y": 2.4951293966,
				"z": -1.6675787898,
				"element": "N" 
			},
			{
				"x": -3.7807028216,
				"y": 2.561796601,
				"z": -0.9703415661,
				"element": "O" 
			},
			{
				"x": -2.4745466576,
				"y": 3.2679371728,
				"z": -2.5714442285,
				"element": "O" 
			},
			{
				"x": 1.3677505581,
				"y": -1.0070726333,
				"z": -4.6775962065,
				"element": "H" 
			},
			{
				"x": -0.5122074468,
				"y": 0.7379255631,
				"z": -4.1731842703,
				"element": "H" 
			},
			{
				"x": -2.4486488065,
				"y": 1.4326403764,
				"z": 0.7003172467,
				"element": "H" 
			},
			{
				"x": 0.6567667122,
				"y": -1.3635571984,
				"z": -0.2993742817,
				"element": "H" 
			}
		],
		 "valence_orbital": [ 
			{
				"type": "occ",
				"energy": -0.3223,
				"method": "rhf"
			},
			{
				"type": "occ",
				"energy": -0.31638,
				"method": "rhf"
			},
			{
				"type": "occ",
				"energy": -0.30778,
				"method": "rhf"
			},
			{
				"type": "occ",
				"energy": -0.30042,
				"method": "rhf"
			},
			{
				"type": "occ",
				"energy": -0.28585,
				"method": "rhf"
			},
			{
				"type": "unocc",
				"energy": -0.10841,
				"method": "rhf"
			},
			{
				"type": "unocc",
				"energy": -0.10602,
				"method": "rhf"
			},
			{
				"type": "unocc",
				"energy": -0.07933,
				"method": "rhf"
			},
			{
				"type": "unocc",
				"energy": -0.0143,
				"method": "rhf"
			},
			{
				"type": "unocc",
				"energy": 0.019,
				"method": "rhf"
			}
		],
		"cosmo_sigma_profile": { 
			"-0.025": 0.0,
			"-0.024": 0.0,
			"-0.023": 0.0,
			"-0.022": 0.0,
			"-0.021": 0.0398677387258,
			"-0.02": 0.928087895554,
			"-0.019": 0.825372984074,
			"-0.018": 1.15003197517,
			"-0.017": 0.610753674542,
			"-0.016": 0.526999911774,
			"-0.015": 0.711461541981,
			"-0.014": 1.03268866152,
			"-0.013": 1.04067675675,
			"-0.012": 0.967780934525,
			"-0.011": 1.34568279194,
			"-0.01": 1.47261813014,
			"-0.009": 3.38359552741,
			"-0.008": 6.91951693326,
			"-0.007": 8.20265760881,
			"-0.006": 10.0787820408,
			"-0.005": 17.4098382003,
			"-0.004": 21.9281874263,
			"-0.003": 18.6477766865,
			"-0.002": 9.46495338461,
			"-0.001": 6.42254401482,
			"0.0": 7.68702140443,
			"0.001": 6.75154707592,
			"0.002": 5.77571193308,
			"0.003": 6.576746125,
			"0.004": 6.58794923673,
			"0.005": 7.47509564715,
			"0.006": 12.1182988325,
			"0.007": 21.223579989,
			"0.008": 13.3296268825,
			"0.009": 11.4697578369,
			"0.01": 6.42402002136,
			"0.011": 1.41899326796,
			"0.012": 0.0,
			"0.013": 0.0,
			"0.014": 0.0,
			"0.015": 0.0,
			"0.016": 0.0,
			"0.017": 0.0,
			"0.018": 0.0,
			"0.019": 0.0,
			"0.02": 0.0,
			"0.021": 0.0,
			"0.022": 0.0,
			"0.023": 0.0,
			"0.024": 0.0,
			"0.025": 0.0
		}
	}
}
