{
	 "smiles": "NC1=CN(CC#N)N=C1", 
	 "Tm": 345.15, 
	 "num_atms": 15, 
	 "gaussian": { 
		 "optdone": 1, 
		 "sigma_profile": "yes", 
		 "theory": "DFT", 
		 "functional": "B3LYP", 
		 "basiset": "6-31G**", 
		 "properties": { 
			 "R2extent": 1381.7291, 
			 "electric_dipole_moment_norm": 2.92269144796, 
			 "electric_quadrupole_moment_norm": 18.4548054945, 
			 "total_energy": -413.092414218, 
			 "HOMO_LUMO_gap": 0.20897, 
			 "cosmo_polarized_energy": -16.21, 
			 "cosmo_cavitation_energy": 20.7, 
			 "cosmo_dispersion_energy": -14.62, 
			 "cosmo_repulsion_energy": 1.23, 
			 "cosmo_total_nonelectrostatic_energy": 7.31, 
			 "SMD_solvation_energy": 4.57 
		},
		"coords": [
			{
				"x": 0.5982575666,
				"y": 2.7132282859,
				"z": -0.9124174186,
				"element": "N" 
			},
			{
				"x": 0.2756313693,
				"y": 1.4467029406,
				"z": -0.4065710727,
				"element": "C" 
			},
			{
				"x": 0.8332105748,
				"y": 0.2219786983,
				"z": -0.7305855425,
				"element": "C" 
			},
			{
				"x": 0.1146371661,
				"y": -0.7227437611,
				"z": -0.0401845803,
				"element": "N" 
			},
			{
				"x": 0.3429019733,
				"y": -2.1496312546,
				"z": 0.0121799114,
				"element": "C" 
			},
			{
				"x": 1.5695221796,
				"y": -2.5174352528,
				"z": 0.7448057449,
				"element": "C" 
			},
			{
				"x": 2.5430229881,
				"y": -2.8118419169,
				"z": 1.3025050426,
				"element": "N" 
			},
			{
				"x": -0.8577113479,
				"y": -0.1840183908,
				"z": 0.7193507186,
				"element": "N" 
			},
			{
				"x": -0.7731710397,
				"y": 1.1261574235,
				"z": 0.4961032264,
				"element": "C" 
			},
			{
				"x": 0.3800126077,
				"y": 3.4609816524,
				"z": -0.265577921,
				"element": "H" 
			},
			{
				"x": 1.5623790955,
				"y": 2.7938288394,
				"z": -1.2106813244,
				"element": "H" 
			},
			{
				"x": 1.6561429728,
				"y": -0.044613317,
				"z": -1.3770217036,
				"element": "H" 
			},
			{
				"x": 0.4026272756,
				"y": -2.5655736918,
				"z": -1.0004451793,
				"element": "H" 
			},
			{
				"x": -0.5249083739,
				"y": -2.5869330328,
				"z": 0.5117841098,
				"element": "H" 
			},
			{
				"x": -1.467755008,
				"y": 1.8020127777,
				"z": 0.9775559885,
				"element": "H" 
			}
		],
		 "valence_orbital": [ 
			{
				"type": "occ",
				"energy": -0.33755,
				"method": "rhf"
			},
			{
				"type": "occ",
				"energy": -0.33218,
				"method": "rhf"
			},
			{
				"type": "occ",
				"energy": -0.29708,
				"method": "rhf"
			},
			{
				"type": "occ",
				"energy": -0.2564,
				"method": "rhf"
			},
			{
				"type": "occ",
				"energy": -0.20769,
				"method": "rhf"
			},
			{
				"type": "unocc",
				"energy": 0.00128,
				"method": "rhf"
			},
			{
				"type": "unocc",
				"energy": 0.0191,
				"method": "rhf"
			},
			{
				"type": "unocc",
				"energy": 0.02739,
				"method": "rhf"
			},
			{
				"type": "unocc",
				"energy": 0.06632,
				"method": "rhf"
			},
			{
				"type": "unocc",
				"energy": 0.091,
				"method": "rhf"
			}
		],
		"cosmo_sigma_profile": { 
			"-0.025": 0.0,
			"-0.024": 0.0,
			"-0.023": 0.0,
			"-0.022": 0.0,
			"-0.021": 0.0,
			"-0.02": 0.0,
			"-0.019": 0.0,
			"-0.018": 0.0,
			"-0.017": 0.0,
			"-0.016": 0.0,
			"-0.015": 0.0,
			"-0.014": 0.0,
			"-0.013": 0.162200638839,
			"-0.012": 2.251434495,
			"-0.011": 4.81234295024,
			"-0.01": 9.2653822056,
			"-0.009": 9.82989776424,
			"-0.008": 9.64847310216,
			"-0.007": 9.21457251304,
			"-0.006": 6.72529148828,
			"-0.005": 5.39993828265,
			"-0.004": 6.35937338761,
			"-0.003": 4.86396524791,
			"-0.002": 4.41463346653,
			"-0.001": 5.55265038932,
			"0.0": 7.545336146,
			"0.001": 5.93719029482,
			"0.002": 5.7913869786,
			"0.003": 7.99898748697,
			"0.004": 8.02401875725,
			"0.005": 9.76367930613,
			"0.006": 6.43297649884,
			"0.007": 5.26591651366,
			"0.008": 7.12599658861,
			"0.009": 5.27868150759,
			"0.01": 4.89052914515,
			"0.011": 3.48701522959,
			"0.012": 3.99964420862,
			"0.013": 2.39606823649,
			"0.014": 1.9341189474,
			"0.015": 1.15745045457,
			"0.016": 0.5280276364,
			"0.017": 0.0446406188878,
			"0.018": 0.0,
			"0.019": 0.0,
			"0.02": 0.0,
			"0.021": 0.0,
			"0.022": 0.0,
			"0.023": 0.0,
			"0.024": 0.0,
			"0.025": 0.0
		}
	}
}
