{
	 "smiles": "CC(C)(C)N1N=CC(C#N)=C1N", 
	 "Tm": 364.15, 
	 "num_atms": 24, 
	 "gaussian": { 
		 "optdone": 1, 
		 "sigma_profile": "yes", 
		 "theory": "DFT", 
		 "functional": "B3LYP", 
		 "basiset": "6-31G**", 
		 "properties": { 
			 "R2extent": 2572.6218, 
			 "electric_dipole_moment_norm": 5.64990877625, 
			 "electric_quadrupole_moment_norm": 21.5681270561, 
			 "total_energy": -531.066080111, 
			 "HOMO_LUMO_gap": 0.22601, 
			 "cosmo_polarized_energy": -15.11, 
			 "cosmo_cavitation_energy": 27.14, 
			 "cosmo_dispersion_energy": -18.96, 
			 "cosmo_repulsion_energy": 1.5, 
			 "cosmo_total_nonelectrostatic_energy": 9.68, 
			 "SMD_solvation_energy": 5.77 
		},
		"coords": [
			{
				"x": -2.2538123738,
				"y": -0.0537791889,
				"z": -1.0608857184,
				"element": "C" 
			},
			{
				"x": -1.4487648633,
				"y": -1.2004198757,
				"z": -0.4306826027,
				"element": "C" 
			},
			{
				"x": -2.3699465421,
				"y": -2.0208722099,
				"z": 0.4925342319,
				"element": "C" 
			},
			{
				"x": -0.8566795769,
				"y": -2.069714608,
				"z": -1.5583793022,
				"element": "C" 
			},
			{
				"x": -0.3367233122,
				"y": -0.6178316765,
				"z": 0.3794557585,
				"element": "N" 
			},
			{
				"x": -0.1397878986,
				"y": 0.743041026,
				"z": 0.3850694116,
				"element": "N" 
			},
			{
				"x": 0.8824624787,
				"y": 0.9538146189,
				"z": 1.1893028564,
				"element": "C" 
			},
			{
				"x": 1.3941133522,
				"y": -0.2599768983,
				"z": 1.7179179024,
				"element": "C" 
			},
			{
				"x": 2.4856640758,
				"y": -0.4954587987,
				"z": 2.5830929921,
				"element": "C" 
			},
			{
				"x": 3.3812579005,
				"y": -0.7370000797,
				"z": 3.2900652623,
				"element": "N" 
			},
			{
				"x": 0.5762216762,
				"y": -1.2545949534,
				"z": 1.1632929028,
				"element": "C" 
			},
			{
				"x": 0.6107518936,
				"y": -2.6161879034,
				"z": 1.4166796973,
				"element": "N" 
			},
			{
				"x": -2.6656443907,
				"y": 0.6083756017,
				"z": -0.2975676562,
				"element": "H" 
			},
			{
				"x": -3.0788608292,
				"y": -0.4894859477,
				"z": -1.6326031577,
				"element": "H" 
			},
			{
				"x": -1.638940732,
				"y": 0.5496092929,
				"z": -1.7305269622,
				"element": "H" 
			},
			{
				"x": -1.8373235935,
				"y": -2.8252954386,
				"z": 1.0035196595,
				"element": "H" 
			},
			{
				"x": -3.1787941346,
				"y": -2.4622496733,
				"z": -0.097586753,
				"element": "H" 
			},
			{
				"x": -2.8148102086,
				"y": -1.373770242,
				"z": 1.2538082236,
				"element": "H" 
			},
			{
				"x": -1.6616259452,
				"y": -2.4362851496,
				"z": -2.2021446855,
				"element": "H" 
			},
			{
				"x": -0.3221438729,
				"y": -2.9502019465,
				"z": -1.187311239,
				"element": "H" 
			},
			{
				"x": -0.1650077397,
				"y": -1.4848169228,
				"z": -2.1709727559,
				"element": "H" 
			},
			{
				"x": 1.2391357495,
				"y": 1.9582361726,
				"z": 1.3718797983,
				"element": "H" 
			},
			{
				"x": 1.4189114387,
				"y": -2.8778454582,
				"z": 1.9693264147,
				"element": "H" 
			},
			{
				"x": 0.508047448,
				"y": -3.2162897408,
				"z": 0.6093157216,
				"element": "H" 
			}
		],
		 "valence_orbital": [ 
			{
				"type": "occ",
				"energy": -0.33787,
				"method": "rhf"
			},
			{
				"type": "occ",
				"energy": -0.32862,
				"method": "rhf"
			},
			{
				"type": "occ",
				"energy": -0.29103,
				"method": "rhf"
			},
			{
				"type": "occ",
				"energy": -0.25587,
				"method": "rhf"
			},
			{
				"type": "occ",
				"energy": -0.22457,
				"method": "rhf"
			},
			{
				"type": "unocc",
				"energy": 0.00144,
				"method": "rhf"
			},
			{
				"type": "unocc",
				"energy": 0.01936,
				"method": "rhf"
			},
			{
				"type": "unocc",
				"energy": 0.0286,
				"method": "rhf"
			},
			{
				"type": "unocc",
				"energy": 0.05026,
				"method": "rhf"
			},
			{
				"type": "unocc",
				"energy": 0.08624,
				"method": "rhf"
			}
		],
		"cosmo_sigma_profile": { 
			"-0.025": 0.0,
			"-0.024": 0.0,
			"-0.023": 0.0,
			"-0.022": 0.0,
			"-0.021": 0.0,
			"-0.02": 0.0,
			"-0.019": 0.0,
			"-0.018": 0.0,
			"-0.017": 0.0,
			"-0.016": 0.0,
			"-0.015": 0.0112034851084,
			"-0.014": 1.00131025623,
			"-0.013": 2.83863579328,
			"-0.012": 2.58193113097,
			"-0.011": 2.44088651664,
			"-0.01": 2.29767166017,
			"-0.009": 3.43521393455,
			"-0.008": 4.15547337253,
			"-0.007": 4.84824733626,
			"-0.006": 4.01697943933,
			"-0.005": 6.26382573195,
			"-0.004": 15.4337083732,
			"-0.003": 20.0629287763,
			"-0.002": 18.5208776978,
			"-0.001": 19.5428200631,
			"0.0": 24.952062715,
			"0.001": 15.8609318023,
			"0.002": 10.0091606581,
			"0.003": 8.33291443379,
			"0.004": 5.48411073644,
			"0.005": 5.16994336636,
			"0.006": 4.58181065879,
			"0.007": 5.05800605504,
			"0.008": 3.79085962591,
			"0.009": 5.94946737986,
			"0.01": 4.87203208435,
			"0.011": 4.99649970251,
			"0.012": 3.68338131881,
			"0.013": 3.2142974552,
			"0.014": 1.23798911013,
			"0.015": 0.0,
			"0.016": 0.0,
			"0.017": 0.0,
			"0.018": 0.0,
			"0.019": 0.0,
			"0.02": 0.0,
			"0.021": 0.0,
			"0.022": 0.0,
			"0.023": 0.0,
			"0.024": 0.0,
			"0.025": 0.0
		}
	}
}
