{
	 "smiles": "CC1=CC=C(CCl)C=C1", 
	 "Tm": 277.65, 
	 "num_atms": 18, 
	 "gaussian": { 
		 "optdone": 1, 
		 "sigma_profile": "yes", 
		 "theory": "DFT", 
		 "functional": "B3LYP", 
		 "basiset": "6-31G**", 
		 "properties": { 
			 "R2extent": 2694.8857, 
			 "electric_dipole_moment_norm": 2.80202839564, 
			 "electric_quadrupole_moment_norm": 13.8766076326, 
			 "total_energy": -770.481848277, 
			 "HOMO_LUMO_gap": 0.21714, 
			 "cosmo_polarized_energy": -6.14, 
			 "cosmo_cavitation_energy": 23.2, 
			 "cosmo_dispersion_energy": -17.02, 
			 "cosmo_repulsion_energy": 1.41, 
			 "cosmo_total_nonelectrostatic_energy": 7.59, 
			 "SMD_solvation_energy": 3.67 
		},
		"coords": [
			{
				"x": -2.3865717075,
				"y": 0.5517951612,
				"z": -1.7302271856,
				"element": "C" 
			},
			{
				"x": -1.3652610556,
				"y": 0.9475891854,
				"z": -0.6905441437,
				"element": "C" 
			},
			{
				"x": -1.2691042428,
				"y": 2.2717968759,
				"z": -0.2411948702,
				"element": "C" 
			},
			{
				"x": -0.3076236874,
				"y": 2.6449033078,
				"z": 0.6952819465,
				"element": "C" 
			},
			{
				"x": 0.5890367122,
				"y": 1.7020874166,
				"z": 1.2134279397,
				"element": "C" 
			},
			{
				"x": 1.6243485957,
				"y": 2.1016881889,
				"z": 2.218551122,
				"element": "C" 
			},
			{
				"x": 1.0250490024,
				"y": 1.9480586097,
				"z": 3.9544311644,
				"element": "Cl" 
			},
			{
				"x": 0.494449741,
				"y": 0.3767468787,
				"z": 0.7708191571,
				"element": "C" 
			},
			{
				"x": -0.4682200076,
				"y": 0.0070411191,
				"z": -0.1657870874,
				"element": "C" 
			},
			{
				"x": -1.9815863859,
				"y": 0.6611043885,
				"z": -2.7442898857,
				"element": "H" 
			},
			{
				"x": -2.6923663278,
				"y": -0.4922341788,
				"z": -1.6140178849,
				"element": "H" 
			},
			{
				"x": -3.2824660976,
				"y": 1.1768812286,
				"z": -1.6697719206,
				"element": "H" 
			},
			{
				"x": -1.9562447523,
				"y": 3.0192146496,
				"z": -0.6300401838,
				"element": "H" 
			},
			{
				"x": -0.2556220903,
				"y": 3.6769629094,
				"z": 1.0330634409,
				"element": "H" 
			},
			{
				"x": 1.9179926451,
				"y": 3.146118476,
				"z": 2.1127348543,
				"element": "H" 
			},
			{
				"x": 2.5107286044,
				"y": 1.4691292244,
				"z": 2.1689194118,
				"element": "H" 
			},
			{
				"x": 1.1759795069,
				"y": -0.3714313451,
				"z": 1.1679285254,
				"element": "H" 
			},
			{
				"x": -0.5252184528,
				"y": -1.0274520959,
				"z": -0.4952844003,
				"element": "H" 
			}
		],
		 "valence_orbital": [ 
			{
				"type": "occ",
				"energy": -0.34221,
				"method": "rhf"
			},
			{
				"type": "occ",
				"energy": -0.29064,
				"method": "rhf"
			},
			{
				"type": "occ",
				"energy": -0.28872,
				"method": "rhf"
			},
			{
				"type": "occ",
				"energy": -0.25502,
				"method": "rhf"
			},
			{
				"type": "occ",
				"energy": -0.24267,
				"method": "rhf"
			},
			{
				"type": "unocc",
				"energy": -0.02553,
				"method": "rhf"
			},
			{
				"type": "unocc",
				"energy": -0.00684,
				"method": "rhf"
			},
			{
				"type": "unocc",
				"energy": 0.04521,
				"method": "rhf"
			},
			{
				"type": "unocc",
				"energy": 0.08902,
				"method": "rhf"
			},
			{
				"type": "unocc",
				"energy": 0.10799,
				"method": "rhf"
			}
		],
		"cosmo_sigma_profile": { 
			"-0.025": 0.0,
			"-0.024": 0.0,
			"-0.023": 0.0,
			"-0.022": 0.0,
			"-0.021": 0.0,
			"-0.02": 0.0,
			"-0.019": 0.0,
			"-0.018": 0.0,
			"-0.017": 0.0,
			"-0.016": 0.0,
			"-0.015": 0.0,
			"-0.014": 0.0,
			"-0.013": 0.0,
			"-0.012": 0.0,
			"-0.011": 0.0,
			"-0.01": 0.0,
			"-0.009": 0.0,
			"-0.008": 0.580558614199,
			"-0.007": 5.55762996616,
			"-0.006": 9.86194952914,
			"-0.005": 13.1374690993,
			"-0.004": 18.8978445114,
			"-0.003": 15.6410984502,
			"-0.002": 13.6486693725,
			"-0.001": 14.0099923129,
			"0.0": 14.5842438433,
			"0.001": 11.1964696435,
			"0.002": 9.79746268771,
			"0.003": 9.87344486525,
			"0.004": 12.1804696244,
			"0.005": 14.3813234119,
			"0.006": 11.7506926157,
			"0.007": 10.3401413453,
			"0.008": 0.777240043174,
			"0.009": 0.0,
			"0.01": 0.0,
			"0.011": 0.0,
			"0.012": 0.0,
			"0.013": 0.0,
			"0.014": 0.0,
			"0.015": 0.0,
			"0.016": 0.0,
			"0.017": 0.0,
			"0.018": 0.0,
			"0.019": 0.0,
			"0.02": 0.0,
			"0.021": 0.0,
			"0.022": 0.0,
			"0.023": 0.0,
			"0.024": 0.0,
			"0.025": 0.0
		}
	}
}
