{
	 "smiles": "CC1=NC(=NO1)C1=CC=C(CBr)C=C1", 
	 "Tm": 377.15, 
	 "num_atms": 23, 
	 "gaussian": { 
		 "optdone": 1, 
		 "sigma_profile": "yes", 
		 "theory": "DFT", 
		 "functional": "B3LYP", 
		 "basiset": "6-31G**", 
		 "properties": { 
			 "R2extent": 7357.1463, 
			 "electric_dipole_moment_norm": 3.06712743296, 
			 "electric_quadrupole_moment_norm": 16.6021490247, 
			 "total_energy": -3142.59908303, 
			 "HOMO_LUMO_gap": 0.18331, 
			 "cosmo_polarized_energy": -10.81, 
			 "cosmo_cavitation_energy": 30.42, 
			 "cosmo_dispersion_energy": -22.61, 
			 "cosmo_repulsion_energy": 1.79, 
			 "cosmo_total_nonelectrostatic_energy": 9.59, 
			 "SMD_solvation_energy": 2.58 
		},
		"coords": [
			{
				"x": -1.2134906154,
				"y": 2.7535955598,
				"z": 3.2365406651,
				"element": "C" 
			},
			{
				"x": -0.4525674494,
				"y": 1.9918396152,
				"z": 2.2101021927,
				"element": "C" 
			},
			{
				"x": -0.9025370024,
				"y": 1.1738494315,
				"z": 1.3058369788,
				"element": "N" 
			},
			{
				"x": 0.2530733966,
				"y": 0.7784273451,
				"z": 0.6560692626,
				"element": "C" 
			},
			{
				"x": 1.352023374,
				"y": 1.3218348245,
				"z": 1.1316177729,
				"element": "N" 
			},
			{
				"x": 0.8852443505,
				"y": 2.1366470993,
				"z": 2.1743718103,
				"element": "O" 
			},
			{
				"x": 0.2536305161,
				"y": -0.1669892001,
				"z": -0.4676654269,
				"element": "C" 
			},
			{
				"x": -0.9578813825,
				"y": -0.702584496,
				"z": -0.9264857249,
				"element": "C" 
			},
			{
				"x": -0.9667279099,
				"y": -1.5963609255,
				"z": -1.9930634569,
				"element": "C" 
			},
			{
				"x": 0.2270233309,
				"y": -1.972349367,
				"z": -2.6234521423,
				"element": "C" 
			},
			{
				"x": 0.2119239496,
				"y": -2.9174241235,
				"z": -3.7794719427,
				"element": "C" 
			},
			{
				"x": 0.4054967632,
				"y": -4.8296596185,
				"z": -3.1983145567,
				"element": "Br" 
			},
			{
				"x": 1.4363777352,
				"y": -1.4340535519,
				"z": -2.156858051,
				"element": "C" 
			},
			{
				"x": 1.4541304015,
				"y": -0.5409970949,
				"z": -1.0927222187,
				"element": "C" 
			},
			{
				"x": -1.0551602186,
				"y": 3.8293679683,
				"z": 3.1137350839,
				"element": "H" 
			},
			{
				"x": -0.8810527346,
				"y": 2.481165394,
				"z": 4.2428751547,
				"element": "H" 
			},
			{
				"x": -2.2753154343,
				"y": 2.5303342156,
				"z": 3.1340084103,
				"element": "H" 
			},
			{
				"x": -1.881822344,
				"y": -0.4089494767,
				"z": -0.440731045,
				"element": "H" 
			},
			{
				"x": -1.9097100249,
				"y": -2.0099435585,
				"z": -2.3404099603,
				"element": "H" 
			},
			{
				"x": -0.7289069864,
				"y": -2.8991461873,
				"z": -4.3263289259,
				"element": "H" 
			},
			{
				"x": 1.0451090867,
				"y": -2.7619184166,
				"z": -4.462313346,
				"element": "H" 
			},
			{
				"x": 2.3697781565,
				"y": -1.7222051129,
				"z": -2.6328233608,
				"element": "H" 
			},
			{
				"x": 2.3915610415,
				"y": -0.1254803239,
				"z": -0.7386171733,
				"element": "H" 
			}
		],
		 "valence_orbital": [ 
			{
				"type": "occ",
				"energy": -0.29781,
				"method": "rhf"
			},
			{
				"type": "occ",
				"energy": -0.27319,
				"method": "rhf"
			},
			{
				"type": "occ",
				"energy": -0.27225,
				"method": "rhf"
			},
			{
				"type": "occ",
				"energy": -0.26234,
				"method": "rhf"
			},
			{
				"type": "occ",
				"energy": -0.24362,
				"method": "rhf"
			},
			{
				"type": "unocc",
				"energy": -0.06031,
				"method": "rhf"
			},
			{
				"type": "unocc",
				"energy": -0.02061,
				"method": "rhf"
			},
			{
				"type": "unocc",
				"energy": -0.00954,
				"method": "rhf"
			},
			{
				"type": "unocc",
				"energy": 0.01305,
				"method": "rhf"
			},
			{
				"type": "unocc",
				"energy": 0.06992,
				"method": "rhf"
			}
		],
		"cosmo_sigma_profile": { 
			"-0.025": 0.0,
			"-0.024": 0.0,
			"-0.023": 0.0,
			"-0.022": 0.0,
			"-0.021": 0.0,
			"-0.02": 0.0,
			"-0.019": 0.0,
			"-0.018": 0.0,
			"-0.017": 0.0,
			"-0.016": 0.0,
			"-0.015": 0.0,
			"-0.014": 0.0,
			"-0.013": 0.0,
			"-0.012": 0.0,
			"-0.011": 0.0,
			"-0.01": 0.0,
			"-0.009": 0.0,
			"-0.008": 5.34729475195,
			"-0.007": 14.4507540557,
			"-0.006": 16.1832505093,
			"-0.005": 17.9052282451,
			"-0.004": 18.0466735349,
			"-0.003": 17.3213699453,
			"-0.002": 14.7516173178,
			"-0.001": 13.5026302122,
			"0.0": 13.8216665435,
			"0.001": 17.8955740002,
			"0.002": 15.8681384227,
			"0.003": 20.52950556,
			"0.004": 13.9478797299,
			"0.005": 10.481350524,
			"0.006": 17.1141163068,
			"0.007": 8.49642297018,
			"0.008": 2.73353896639,
			"0.009": 2.01603093973,
			"0.01": 2.62155656859,
			"0.011": 2.16751481361,
			"0.012": 1.74880966514,
			"0.013": 0.208672530031,
			"0.014": 0.0,
			"0.015": 0.0,
			"0.016": 0.0,
			"0.017": 0.0,
			"0.018": 0.0,
			"0.019": 0.0,
			"0.02": 0.0,
			"0.021": 0.0,
			"0.022": 0.0,
			"0.023": 0.0,
			"0.024": 0.0,
			"0.025": 0.0
		}
	}
}
