{
	 "smiles": "CCC(CO)N1CC2=CC=CC=C2C1", 
	 "Tm": 331.65, 
	 "num_atms": 31, 
	 "gaussian": { 
		 "optdone": 1, 
		 "sigma_profile": "yes", 
		 "theory": "DFT", 
		 "functional": "B3LYP", 
		 "basiset": "6-31G**", 
		 "properties": { 
			 "R2extent": 3614.3209, 
			 "electric_dipole_moment_norm": 2.10387174989, 
			 "electric_quadrupole_moment_norm": 7.10000626197, 
			 "total_energy": -597.481165609, 
			 "HOMO_LUMO_gap": 0.19693, 
			 "cosmo_polarized_energy": -9.26, 
			 "cosmo_cavitation_energy": 31.7, 
			 "cosmo_dispersion_energy": -22.97, 
			 "cosmo_repulsion_energy": 1.81, 
			 "cosmo_total_nonelectrostatic_energy": 10.53, 
			 "SMD_solvation_energy": 3.12 
		},
		"coords": [
			{
				"x": -2.8302940241,
				"y": 0.2041569822,
				"z": -2.4451935657,
				"element": "C" 
			},
			{
				"x": -1.7319879982,
				"y": -0.1064927032,
				"z": -1.4196947391,
				"element": "C" 
			},
			{
				"x": -0.757632397,
				"y": 1.0686873034,
				"z": -1.1508062042,
				"element": "C" 
			},
			{
				"x": 0.0514116994,
				"y": 1.4640909552,
				"z": -2.4009436195,
				"element": "C" 
			},
			{
				"x": 0.8120201245,
				"y": 0.402718601,
				"z": -2.9715478692,
				"element": "O" 
			},
			{
				"x": 0.124792406,
				"y": 0.8788881353,
				"z": -0.0020545348,
				"element": "N" 
			},
			{
				"x": -0.4881941751,
				"y": 1.0156914624,
				"z": 1.3243563683,
				"element": "C" 
			},
			{
				"x": 0.523578279,
				"y": 0.3649789935,
				"z": 2.2332319247,
				"element": "C" 
			},
			{
				"x": 0.6240543156,
				"y": 0.3925012791,
				"z": 3.6216726469,
				"element": "C" 
			},
			{
				"x": 1.6558565394,
				"y": -0.3243534068,
				"z": 4.2363268769,
				"element": "C" 
			},
			{
				"x": 2.566709527,
				"y": -1.0564700642,
				"z": 3.4679756628,
				"element": "C" 
			},
			{
				"x": 2.4601436732,
				"y": -1.0831774812,
				"z": 2.0736240286,
				"element": "C" 
			},
			{
				"x": 1.4329498625,
				"y": -0.3667131649,
				"z": 1.464547582,
				"element": "C" 
			},
			{
				"x": 1.077537927,
				"y": -0.245081353,
				"z": 0.0038393282,
				"element": "C" 
			},
			{
				"x": -3.4056141195,
				"y": 1.0905232701,
				"z": -2.1539969401,
				"element": "H" 
			},
			{
				"x": -2.4253332002,
				"y": 0.3943551671,
				"z": -3.4454966418,
				"element": "H" 
			},
			{
				"x": -3.5329454782,
				"y": -0.6307127255,
				"z": -2.5335948433,
				"element": "H" 
			},
			{
				"x": -1.1626409397,
				"y": -0.9875258741,
				"z": -1.7421802119,
				"element": "H" 
			},
			{
				"x": -2.2023768781,
				"y": -0.3904846626,
				"z": -0.4712681257,
				"element": "H" 
			},
			{
				"x": -1.3690689023,
				"y": 1.952138757,
				"z": -0.9104619441,
				"element": "H" 
			},
			{
				"x": -0.621834228,
				"y": 1.9078801356,
				"z": -3.1496240463,
				"element": "H" 
			},
			{
				"x": 0.7764916102,
				"y": 2.2286252553,
				"z": -2.1098736344,
				"element": "H" 
			},
			{
				"x": 0.1978171173,
				"y": -0.2214992852,
				"z": -3.3773266577,
				"element": "H" 
			},
			{
				"x": -0.6643954805,
				"y": 2.0751316259,
				"z": 1.5606488449,
				"element": "H" 
			},
			{
				"x": -1.4677327961,
				"y": 0.5048395684,
				"z": 1.4194089697,
				"element": "H" 
			},
			{
				"x": -0.0809210579,
				"y": 0.9623172379,
				"z": 4.221847811,
				"element": "H" 
			},
			{
				"x": 1.7529045517,
				"y": -0.3094020646,
				"z": 5.3182764343,
				"element": "H" 
			},
			{
				"x": 3.3658885348,
				"y": -1.6053677654,
				"z": 3.9582245419,
				"element": "H" 
			},
			{
				"x": 3.1716545174,
				"y": -1.6513404777,
				"z": 1.4798197872,
				"element": "H" 
			},
			{
				"x": 1.936599636,
				"y": -0.03205502,
				"z": -0.6405698264,
				"element": "H" 
			},
			{
				"x": 0.6437613539,
				"y": -1.195348681,
				"z": -0.3605674033,
				"element": "H" 
			}
		],
		 "valence_orbital": [ 
			{
				"type": "occ",
				"energy": -0.31806,
				"method": "rhf"
			},
			{
				"type": "occ",
				"energy": -0.267,
				"method": "rhf"
			},
			{
				"type": "occ",
				"energy": -0.2408,
				"method": "rhf"
			},
			{
				"type": "occ",
				"energy": -0.23316,
				"method": "rhf"
			},
			{
				"type": "occ",
				"energy": -0.19442,
				"method": "rhf"
			},
			{
				"type": "unocc",
				"energy": 0.00251,
				"method": "rhf"
			},
			{
				"type": "unocc",
				"energy": 0.01072,
				"method": "rhf"
			},
			{
				"type": "unocc",
				"energy": 0.05491,
				"method": "rhf"
			},
			{
				"type": "unocc",
				"energy": 0.09854,
				"method": "rhf"
			},
			{
				"type": "unocc",
				"energy": 0.1035,
				"method": "rhf"
			}
		],
		"cosmo_sigma_profile": { 
			"-0.025": 0.0,
			"-0.024": 0.0,
			"-0.023": 0.0,
			"-0.022": 0.0,
			"-0.021": 0.0,
			"-0.02": 0.0,
			"-0.019": 0.0,
			"-0.018": 0.0,
			"-0.017": 0.0,
			"-0.016": 0.0,
			"-0.015": 0.0,
			"-0.014": 0.393611342949,
			"-0.013": 0.833158132931,
			"-0.012": 0.697065030072,
			"-0.011": 1.46093279237,
			"-0.01": 1.52748418327,
			"-0.009": 0.887836461254,
			"-0.008": 1.11143917916,
			"-0.007": 1.47177641012,
			"-0.006": 3.02861357215,
			"-0.005": 10.3124142461,
			"-0.004": 14.3858774535,
			"-0.003": 33.4505345657,
			"-0.002": 35.1015462348,
			"-0.001": 29.1737476367,
			"0.0": 23.4801148159,
			"0.001": 19.9190954376,
			"0.002": 11.0549059207,
			"0.003": 9.58484283247,
			"0.004": 9.28921844827,
			"0.005": 11.0823633068,
			"0.006": 10.3281041128,
			"0.007": 5.69506669374,
			"0.008": 2.46299305,
			"0.009": 2.01826213426,
			"0.01": 1.62155821101,
			"0.011": 2.07756064752,
			"0.012": 1.2422464117,
			"0.013": 1.84533323874,
			"0.014": 1.58166506533,
			"0.015": 0.458290061052,
			"0.016": 0.0,
			"0.017": 0.0,
			"0.018": 0.0,
			"0.019": 0.0,
			"0.02": 0.0,
			"0.021": 0.0,
			"0.022": 0.0,
			"0.023": 0.0,
			"0.024": 0.0,
			"0.025": 0.0
		}
	}
}
