{
	 "smiles": "SC1=NN=C(NCCC2=CC=CC=C2)S1", 
	 "Tm": 417.15, 
	 "num_atms": 26, 
	 "gaussian": { 
		 "optdone": 1, 
		 "sigma_profile": "yes", 
		 "theory": "DFT", 
		 "functional": "B3LYP", 
		 "basiset": "6-31G**", 
		 "properties": { 
			 "R2extent": 6351.9892, 
			 "electric_dipole_moment_norm": 4.48672632996, 
			 "electric_quadrupole_moment_norm": 20.1734341301, 
			 "total_energy": -1348.28737596, 
			 "HOMO_LUMO_gap": 0.19074, 
			 "cosmo_polarized_energy": -15.02, 
			 "cosmo_cavitation_energy": 33.66, 
			 "cosmo_dispersion_energy": -24.72, 
			 "cosmo_repulsion_energy": 1.85, 
			 "cosmo_total_nonelectrostatic_energy": 10.8, 
			 "SMD_solvation_energy": 1.69 
		},
		"coords": [
			{
				"x": 2.8992596769,
				"y": 3.724341299,
				"z": -3.8409660045,
				"element": "S" 
			},
			{
				"x": 1.873155265,
				"y": 2.3949810753,
				"z": -3.2830329606,
				"element": "C" 
			},
			{
				"x": 0.6519294813,
				"y": 2.2278323855,
				"z": -3.684171962,
				"element": "N" 
			},
			{
				"x": -0.0139838633,
				"y": 1.2258633175,
				"z": -3.0408624077,
				"element": "N" 
			},
			{
				"x": 0.7312135357,
				"y": 0.6007612999,
				"z": -2.1559691807,
				"element": "C" 
			},
			{
				"x": 0.3047328018,
				"y": -0.5106966386,
				"z": -1.4886414938,
				"element": "N" 
			},
			{
				"x": 0.7588361468,
				"y": -0.8484916392,
				"z": -0.1424991115,
				"element": "C" 
			},
			{
				"x": 0.1232825898,
				"y": 0.0066118441,
				"z": 0.979591779,
				"element": "C" 
			},
			{
				"x": -1.3765477298,
				"y": -0.1716175206,
				"z": 1.0786843559,
				"element": "C" 
			},
			{
				"x": -1.9250630789,
				"y": -1.1467733852,
				"z": 1.9241986248,
				"element": "C" 
			},
			{
				"x": -3.3042679932,
				"y": -1.3477146605,
				"z": 1.9869953437,
				"element": "C" 
			},
			{
				"x": -4.1609469088,
				"y": -0.5754361919,
				"z": 1.1997528907,
				"element": "C" 
			},
			{
				"x": -3.6288697584,
				"y": 0.3987976763,
				"z": 0.353799886,
				"element": "C" 
			},
			{
				"x": -2.2480828754,
				"y": 0.6000207015,
				"z": 0.2949297794,
				"element": "C" 
			},
			{
				"x": 2.3578382474,
				"y": 1.2658852015,
				"z": -1.9971488277,
				"element": "S" 
			},
			{
				"x": 3.9256613025,
				"y": 2.9642683701,
				"z": -4.2798328429,
				"element": "H" 
			},
			{
				"x": -0.6745655845,
				"y": -0.6988861133,
				"z": -1.6761835418,
				"element": "H" 
			},
			{
				"x": 0.5310077718,
				"y": -1.9061380831,
				"z": 0.0228872261,
				"element": "H" 
			},
			{
				"x": 1.8492218294,
				"y": -0.7511894675,
				"z": -0.1145220699,
				"element": "H" 
			},
			{
				"x": 0.5986045416,
				"y": -0.2771882985,
				"z": 1.9260725201,
				"element": "H" 
			},
			{
				"x": 0.3715712001,
				"y": 1.0593103897,
				"z": 0.8015496387,
				"element": "H" 
			},
			{
				"x": -1.2648389588,
				"y": -1.7487882877,
				"z": 2.5447073214,
				"element": "H" 
			},
			{
				"x": -3.7098885044,
				"y": -2.1038711822,
				"z": 2.6533222918,
				"element": "H" 
			},
			{
				"x": -5.2350171864,
				"y": -0.7290250634,
				"z": 1.2489669658,
				"element": "H" 
			},
			{
				"x": -4.2870748782,
				"y": 1.0077294843,
				"z": -0.2592591228,
				"element": "H" 
			},
			{
				"x": -1.8457670699,
				"y": 1.3668134868,
				"z": -0.3625690975,
				"element": "H" 
			}
		],
		 "valence_orbital": [ 
			{
				"type": "occ",
				"energy": -0.2719,
				"method": "rhf"
			},
			{
				"type": "occ",
				"energy": -0.25959,
				"method": "rhf"
			},
			{
				"type": "occ",
				"energy": -0.25605,
				"method": "rhf"
			},
			{
				"type": "occ",
				"energy": -0.25153,
				"method": "rhf"
			},
			{
				"type": "occ",
				"energy": -0.22438,
				"method": "rhf"
			},
			{
				"type": "unocc",
				"energy": -0.03364,
				"method": "rhf"
			},
			{
				"type": "unocc",
				"energy": -0.0134,
				"method": "rhf"
			},
			{
				"type": "unocc",
				"energy": -0.00919,
				"method": "rhf"
			},
			{
				"type": "unocc",
				"energy": -0.00373,
				"method": "rhf"
			},
			{
				"type": "unocc",
				"energy": 0.02203,
				"method": "rhf"
			}
		],
		"cosmo_sigma_profile": { 
			"-0.025": 0.0,
			"-0.024": 0.0,
			"-0.023": 0.0,
			"-0.022": 0.0,
			"-0.021": 0.0,
			"-0.02": 0.0,
			"-0.019": 0.0,
			"-0.018": 0.0,
			"-0.017": 0.0,
			"-0.016": 0.0,
			"-0.015": 0.0,
			"-0.014": 0.0,
			"-0.013": 0.136121766093,
			"-0.012": 1.47059676234,
			"-0.011": 3.65870868308,
			"-0.01": 2.84687712971,
			"-0.009": 2.54954895755,
			"-0.008": 2.55739464729,
			"-0.007": 3.61785825568,
			"-0.006": 8.81203506799,
			"-0.005": 20.7281873941,
			"-0.004": 27.1223233069,
			"-0.003": 24.777910888,
			"-0.002": 19.0222542085,
			"-0.001": 22.3254875929,
			"0.0": 19.2168828172,
			"0.001": 18.5226113628,
			"0.002": 17.0748239026,
			"0.003": 15.1635203647,
			"0.004": 12.0858345352,
			"0.005": 12.7930615066,
			"0.006": 12.2383428148,
			"0.007": 5.54435660573,
			"0.008": 3.54692726818,
			"0.009": 2.26064229083,
			"0.01": 2.9517459439,
			"0.011": 2.74868673371,
			"0.012": 3.43811363097,
			"0.013": 2.72873074965,
			"0.014": 2.20415805557,
			"0.015": 0.955268952626,
			"0.016": 0.0,
			"0.017": 0.0,
			"0.018": 0.0,
			"0.019": 0.0,
			"0.02": 0.0,
			"0.021": 0.0,
			"0.022": 0.0,
			"0.023": 0.0,
			"0.024": 0.0,
			"0.025": 0.0
		}
	}
}
