{
	 "smiles": "CC(=O)OC(C)(C)C", 
	 "Tm": 211.15, 
	 "num_atms": 20, 
	 "gaussian": { 
		 "optdone": 1, 
		 "sigma_profile": "yes", 
		 "theory": "DFT", 
		 "functional": "B3LYP", 
		 "basiset": "6-31G**", 
		 "properties": { 
			 "R2extent": 1233.4734, 
			 "electric_dipole_moment_norm": 1.88554413101, 
			 "electric_quadrupole_moment_norm": 8.43321579707, 
			 "total_energy": -386.349117926, 
			 "HOMO_LUMO_gap": 0.27643, 
			 "cosmo_polarized_energy": -5.87, 
			 "cosmo_cavitation_energy": 22.19, 
			 "cosmo_dispersion_energy": -15.87, 
			 "cosmo_repulsion_energy": 1.34, 
			 "cosmo_total_nonelectrostatic_energy": 7.66, 
			 "SMD_solvation_energy": 5.33 
		},
		"coords": [
			{
				"x": 1.7142736292,
				"y": 1.5380943861,
				"z": -2.1611565871,
				"element": "C" 
			},
			{
				"x": 1.6377721575,
				"y": 0.9264584709,
				"z": -0.7779442039,
				"element": "C" 
			},
			{
				"x": 2.459158805,
				"y": 1.107662656,
				"z": 0.0972600585,
				"element": "O" 
			},
			{
				"x": 0.5320319296,
				"y": 0.1611698612,
				"z": -0.6706848597,
				"element": "O" 
			},
			{
				"x": 0.2047690023,
				"y": -0.5583207384,
				"z": 0.5749856186,
				"element": "C" 
			},
			{
				"x": 1.3049525324,
				"y": -1.5754311199,
				"z": 0.8966862233,
				"element": "C" 
			},
			{
				"x": -0.0123330061,
				"y": 0.4416954989,
				"z": 1.7156796189,
				"element": "C" 
			},
			{
				"x": -1.1036647222,
				"y": -1.2674439095,
				"z": 0.2169548349,
				"element": "C" 
			},
			{
				"x": 2.6102306573,
				"y": 2.1537159204,
				"z": -2.2353714777,
				"element": "H" 
			},
			{
				"x": 0.8255053182,
				"y": 2.1465881408,
				"z": -2.3527329551,
				"element": "H" 
			},
			{
				"x": 1.7381157954,
				"y": 0.7501084318,
				"z": -2.9197007321,
				"element": "H" 
			},
			{
				"x": 0.9992268396,
				"y": -2.1875920781,
				"z": 1.7514621593,
				"element": "H" 
			},
			{
				"x": 2.2429583682,
				"y": -1.0760123762,
				"z": 1.1402630131,
				"element": "H" 
			},
			{
				"x": 1.467996418,
				"y": -2.2419534082,
				"z": 0.0438038318,
				"element": "H" 
			},
			{
				"x": -0.7677026517,
				"y": 1.182109834,
				"z": 1.4338017372,
				"element": "H" 
			},
			{
				"x": -0.3721099693,
				"y": -0.0881050831,
				"z": 2.6037825838,
				"element": "H" 
			},
			{
				"x": 0.914029599,
				"y": 0.9588058388,
				"z": 1.9667785177,
				"element": "H" 
			},
			{
				"x": -1.874360071,
				"y": -0.5410032505,
				"z": -0.0567446315,
				"element": "H" 
			},
			{
				"x": -1.4630070532,
				"y": -1.8490695905,
				"z": 1.0712371937,
				"element": "H" 
			},
			{
				"x": -0.9562435779,
				"y": -1.9467774846,
				"z": -0.6276599436,
				"element": "H" 
			}
		],
		 "valence_orbital": [ 
			{
				"type": "occ",
				"energy": -0.34912,
				"method": "rhf"
			},
			{
				"type": "occ",
				"energy": -0.3432,
				"method": "rhf"
			},
			{
				"type": "occ",
				"energy": -0.32732,
				"method": "rhf"
			},
			{
				"type": "occ",
				"energy": -0.29094,
				"method": "rhf"
			},
			{
				"type": "occ",
				"energy": -0.25901,
				"method": "rhf"
			},
			{
				"type": "unocc",
				"energy": 0.01742,
				"method": "rhf"
			},
			{
				"type": "unocc",
				"energy": 0.08602,
				"method": "rhf"
			},
			{
				"type": "unocc",
				"energy": 0.1009,
				"method": "rhf"
			},
			{
				"type": "unocc",
				"energy": 0.12129,
				"method": "rhf"
			},
			{
				"type": "unocc",
				"energy": 0.14715,
				"method": "rhf"
			}
		],
		"cosmo_sigma_profile": { 
			"-0.025": 0.0,
			"-0.024": 0.0,
			"-0.023": 0.0,
			"-0.022": 0.0,
			"-0.021": 0.0,
			"-0.02": 0.0,
			"-0.019": 0.0,
			"-0.018": 0.0,
			"-0.017": 0.0,
			"-0.016": 0.0,
			"-0.015": 0.0,
			"-0.014": 0.0,
			"-0.013": 0.0,
			"-0.012": 0.0,
			"-0.011": 0.0,
			"-0.01": 0.0,
			"-0.009": 0.0,
			"-0.008": 0.0,
			"-0.007": 0.134270782668,
			"-0.006": 3.44694471645,
			"-0.005": 5.86045298379,
			"-0.004": 17.0668051392,
			"-0.003": 20.6932195985,
			"-0.002": 23.0343674017,
			"-0.001": 24.0695273788,
			"0.0": 25.6158176977,
			"0.001": 17.0404006431,
			"0.002": 6.03291351445,
			"0.003": 3.21047167359,
			"0.004": 3.23023643698,
			"0.005": 3.01218094509,
			"0.006": 3.72620929012,
			"0.007": 2.89766783114,
			"0.008": 2.29810196898,
			"0.009": 1.92815254224,
			"0.01": 1.72423081342,
			"0.011": 2.0456914236,
			"0.012": 2.92134786222,
			"0.013": 2.08548902574,
			"0.014": 0.34814532158,
			"0.015": 0.0,
			"0.016": 0.0,
			"0.017": 0.0,
			"0.018": 0.0,
			"0.019": 0.0,
			"0.02": 0.0,
			"0.021": 0.0,
			"0.022": 0.0,
			"0.023": 0.0,
			"0.024": 0.0,
			"0.025": 0.0
		}
	}
}
