{
	 "smiles": "COC1=CC(NC(=S)NN)=CC=C1", 
	 "Tm": 442.15, 
	 "num_atms": 24, 
	 "gaussian": { 
		 "optdone": 1, 
		 "sigma_profile": "yes", 
		 "theory": "DFT", 
		 "functional": "B3LYP", 
		 "basiset": "6-31G**", 
		 "properties": { 
			 "R2extent": 4751.7372, 
			 "electric_dipole_moment_norm": 6.20170736007, 
			 "electric_quadrupole_moment_norm": 26.2400252467, 
			 "total_energy": -949.107914923, 
			 "HOMO_LUMO_gap": 0.18213, 
			 "cosmo_polarized_energy": -23.49, 
			 "cosmo_cavitation_energy": 29.45, 
			 "cosmo_dispersion_energy": -22.14, 
			 "cosmo_repulsion_energy": 1.73, 
			 "cosmo_total_nonelectrostatic_energy": 9.04, 
			 "SMD_solvation_energy": 5.43 
		},
		"coords": [
			{
				"x": -2.3891679564,
				"y": 2.9789866247,
				"z": 1.4732845813,
				"element": "C" 
			},
			{
				"x": -2.1858868527,
				"y": 2.2239101341,
				"z": 0.2919469441,
				"element": "O" 
			},
			{
				"x": -1.2886587175,
				"y": 1.1949337361,
				"z": 0.3213579651,
				"element": "C" 
			},
			{
				"x": -0.5492494406,
				"y": 0.8296028563,
				"z": 1.4461901205,
				"element": "C" 
			},
			{
				"x": 0.3552209922,
				"y": -0.2498955297,
				"z": 1.3799395312,
				"element": "C" 
			},
			{
				"x": 1.0436133381,
				"y": -0.5260074598,
				"z": 2.5850401572,
				"element": "N" 
			},
			{
				"x": 1.9954699022,
				"y": -1.4373288071,
				"z": 2.9319006591,
				"element": "C" 
			},
			{
				"x": 2.7183277325,
				"y": -2.6147429351,
				"z": 1.9780462288,
				"element": "S" 
			},
			{
				"x": 2.3814476411,
				"y": -1.3477922243,
				"z": 4.2518344302,
				"element": "N" 
			},
			{
				"x": 1.9886770114,
				"y": -0.4000152157,
				"z": 5.1940148877,
				"element": "N" 
			},
			{
				"x": 0.5151657137,
				"y": -0.9591680149,
				"z": 0.1875366048,
				"element": "C" 
			},
			{
				"x": -0.2373292211,
				"y": -0.5724707938,
				"z": -0.9267979352,
				"element": "C" 
			},
			{
				"x": -1.1319509926,
				"y": 0.487253681,
				"z": -0.8797617166,
				"element": "C" 
			},
			{
				"x": -3.1345466944,
				"y": 3.7358631458,
				"z": 1.2242872933,
				"element": "H" 
			},
			{
				"x": -2.770807989,
				"y": 2.3562422413,
				"z": 2.2935160568,
				"element": "H" 
			},
			{
				"x": -1.4672037692,
				"y": 3.4779126306,
				"z": 1.8008241814,
				"element": "H" 
			},
			{
				"x": -0.6622759065,
				"y": 1.3720284957,
				"z": 2.3792962313,
				"element": "H" 
			},
			{
				"x": 0.767228263,
				"y": 0.0822565209,
				"z": 3.3453366696,
				"element": "H" 
			},
			{
				"x": 3.1208295441,
				"y": -1.9777567202,
				"z": 4.5285060584,
				"element": "H" 
			},
			{
				"x": 1.0100728034,
				"y": -0.4906904979,
				"z": 5.4533923559,
				"element": "H" 
			},
			{
				"x": 2.2183457594,
				"y": 0.5515646486,
				"z": 4.9173909187,
				"element": "H" 
			},
			{
				"x": 1.2077021294,
				"y": -1.786129516,
				"z": 0.1381484858,
				"element": "H" 
			},
			{
				"x": -0.1139150033,
				"y": -1.1229996377,
				"z": -1.854876312,
				"element": "H" 
			},
			{
				"x": -1.7155082871,
				"y": 0.7867426369,
				"z": -1.7433543973,
				"element": "H" 
			}
		],
		 "valence_orbital": [ 
			{
				"type": "occ",
				"energy": -0.29492,
				"method": "rhf"
			},
			{
				"type": "occ",
				"energy": -0.24221,
				"method": "rhf"
			},
			{
				"type": "occ",
				"energy": -0.22095,
				"method": "rhf"
			},
			{
				"type": "occ",
				"energy": -0.2105,
				"method": "rhf"
			},
			{
				"type": "occ",
				"energy": -0.20675,
				"method": "rhf"
			},
			{
				"type": "unocc",
				"energy": -0.02462,
				"method": "rhf"
			},
			{
				"type": "unocc",
				"energy": 0.00614,
				"method": "rhf"
			},
			{
				"type": "unocc",
				"energy": 0.03219,
				"method": "rhf"
			},
			{
				"type": "unocc",
				"energy": 0.03517,
				"method": "rhf"
			},
			{
				"type": "unocc",
				"energy": 0.07764,
				"method": "rhf"
			}
		],
		"cosmo_sigma_profile": { 
			"-0.025": 0.0,
			"-0.024": 0.0,
			"-0.023": 0.0,
			"-0.022": 0.0,
			"-0.021": 0.0,
			"-0.02": 0.0,
			"-0.019": 0.0,
			"-0.018": 0.0,
			"-0.017": 0.0,
			"-0.016": 0.945195735528,
			"-0.015": 2.24625981863,
			"-0.014": 3.67925982511,
			"-0.013": 5.65805294188,
			"-0.012": 4.46168073073,
			"-0.011": 3.91564353619,
			"-0.01": 2.54659436497,
			"-0.009": 3.51913113577,
			"-0.008": 3.09431308763,
			"-0.007": 2.96479698935,
			"-0.006": 9.78458653617,
			"-0.005": 16.5829179375,
			"-0.004": 13.5847849675,
			"-0.003": 15.4821015487,
			"-0.002": 10.1010156589,
			"-0.001": 9.68650047657,
			"0.0": 10.5650084688,
			"0.001": 10.1016932149,
			"0.002": 11.1905449455,
			"0.003": 14.2552504371,
			"0.004": 18.0584648012,
			"0.005": 17.6163358146,
			"0.006": 8.82466822938,
			"0.007": 6.97643133318,
			"0.008": 5.76617582918,
			"0.009": 7.16919647994,
			"0.01": 6.67263578418,
			"0.011": 7.73184359546,
			"0.012": 2.02586229253,
			"0.013": 0.699465065454,
			"0.014": 0.414513441095,
			"0.015": 0.0930820352287,
			"0.016": 0.0,
			"0.017": 0.0,
			"0.018": 0.0,
			"0.019": 0.0,
			"0.02": 0.0,
			"0.021": 0.0,
			"0.022": 0.0,
			"0.023": 0.0,
			"0.024": 0.0,
			"0.025": 0.0
		}
	}
}
