{
	 "smiles": "ClCOC1=CC=C(Cl)C=C1", 
	 "Tm": 302.65, 
	 "num_atms": 16, 
	 "gaussian": { 
		 "optdone": 1, 
		 "sigma_profile": "yes", 
		 "theory": "DFT", 
		 "functional": "B3LYP", 
		 "basiset": "6-31G**", 
		 "properties": { 
			 "R2extent": 3283.9926, 
			 "electric_dipole_moment_norm": 1.37744441993, 
			 "electric_quadrupole_moment_norm": 11.4114905227, 
			 "total_energy": -1265.95380954, 
			 "HOMO_LUMO_gap": 0.21017, 
			 "cosmo_polarized_energy": -7.82, 
			 "cosmo_cavitation_energy": 23.95, 
			 "cosmo_dispersion_energy": -18.22, 
			 "cosmo_repulsion_energy": 1.5, 
			 "cosmo_total_nonelectrostatic_energy": 7.23, 
			 "SMD_solvation_energy": 3.85 
		},
		"coords": [
			{
				"x": 3.0242606491,
				"y": -1.3572876617,
				"z": -1.7194748023,
				"element": "Cl" 
			},
			{
				"x": 2.1300402613,
				"y": -0.6616221354,
				"z": -0.3332049736,
				"element": "C" 
			},
			{
				"x": 0.8764759987,
				"y": -0.2433098694,
				"z": -0.8019087116,
				"element": "O" 
			},
			{
				"x": 0.0156888722,
				"y": 0.3276248174,
				"z": 0.1026344223,
				"element": "C" 
			},
			{
				"x": 0.3004843118,
				"y": 0.5214351823,
				"z": 1.4579493728,
				"element": "C" 
			},
			{
				"x": -0.6555000684,
				"y": 1.115225987,
				"z": 2.2881288226,
				"element": "C" 
			},
			{
				"x": -1.8809833795,
				"y": 1.5085741572,
				"z": 1.7620785562,
				"element": "C" 
			},
			{
				"x": -3.0804925458,
				"y": 2.254872444,
				"z": 2.8090397861,
				"element": "Cl" 
			},
			{
				"x": -2.1705074284,
				"y": 1.3170686662,
				"z": 0.4081480552,
				"element": "C" 
			},
			{
				"x": -1.2221968052,
				"y": 0.7273854375,
				"z": -0.4181772616,
				"element": "C" 
			},
			{
				"x": 2.7210110135,
				"y": 0.1766009639,
				"z": 0.0490855217,
				"element": "H" 
			},
			{
				"x": 2.0391929297,
				"y": -1.4468332315,
				"z": 0.423902441,
				"element": "H" 
			},
			{
				"x": 1.2497684427,
				"y": 0.2216110964,
				"z": 1.8863574065,
				"element": "H" 
			},
			{
				"x": -0.4405413039,
				"y": 1.2681516864,
				"z": 3.3398661358,
				"element": "H" 
			},
			{
				"x": -3.129305043,
				"y": 1.6274983022,
				"z": 0.0080877921,
				"element": "H" 
			},
			{
				"x": -1.420295905,
				"y": 0.5668041575,
				"z": -1.4724125631,
				"element": "H" 
			}
		],
		 "valence_orbital": [ 
			{
				"type": "occ",
				"energy": -0.32038,
				"method": "rhf"
			},
			{
				"type": "occ",
				"energy": -0.31547,
				"method": "rhf"
			},
			{
				"type": "occ",
				"energy": -0.30723,
				"method": "rhf"
			},
			{
				"type": "occ",
				"energy": -0.27338,
				"method": "rhf"
			},
			{
				"type": "occ",
				"energy": -0.234,
				"method": "rhf"
			},
			{
				"type": "unocc",
				"energy": -0.02383,
				"method": "rhf"
			},
			{
				"type": "unocc",
				"energy": -0.01,
				"method": "rhf"
			},
			{
				"type": "unocc",
				"energy": 0.01008,
				"method": "rhf"
			},
			{
				"type": "unocc",
				"energy": 0.0293,
				"method": "rhf"
			},
			{
				"type": "unocc",
				"energy": 0.09,
				"method": "rhf"
			}
		],
		"cosmo_sigma_profile": { 
			"-0.025": 0.0,
			"-0.024": 0.0,
			"-0.023": 0.0,
			"-0.022": 0.0,
			"-0.021": 0.0,
			"-0.02": 0.0,
			"-0.019": 0.0,
			"-0.018": 0.0,
			"-0.017": 0.0,
			"-0.016": 0.0,
			"-0.015": 0.0,
			"-0.014": 0.0,
			"-0.013": 0.0,
			"-0.012": 0.0,
			"-0.011": 0.0,
			"-0.01": 0.489405677261,
			"-0.009": 6.41477583064,
			"-0.008": 8.3013301942,
			"-0.007": 10.3698668661,
			"-0.006": 9.35662455284,
			"-0.005": 8.19059206781,
			"-0.004": 7.21902926314,
			"-0.003": 6.79720259885,
			"-0.002": 9.49042932615,
			"-0.001": 9.05981976518,
			"0.0": 12.3730363667,
			"0.001": 14.1844360892,
			"0.002": 21.2201272422,
			"0.003": 24.026490014,
			"0.004": 19.0398558838,
			"0.005": 19.5830405075,
			"0.006": 5.51101872465,
			"0.007": 2.36988135388,
			"0.008": 1.6952228528,
			"0.009": 0.826307675214,
			"0.01": 0.0,
			"0.011": 0.0,
			"0.012": 0.0,
			"0.013": 0.0,
			"0.014": 0.0,
			"0.015": 0.0,
			"0.016": 0.0,
			"0.017": 0.0,
			"0.018": 0.0,
			"0.019": 0.0,
			"0.02": 0.0,
			"0.021": 0.0,
			"0.022": 0.0,
			"0.023": 0.0,
			"0.024": 0.0,
			"0.025": 0.0
		}
	}
}
