{
	 "smiles": "CC1=CC(O)=C2C=CC=CC2=N1", 
	 "Tm": 507.15, 
	 "num_atms": 21, 
	 "gaussian": { 
		 "optdone": 1, 
		 "sigma_profile": "yes", 
		 "theory": "DFT", 
		 "functional": "B3LYP", 
		 "basiset": "6-31G**", 
		 "properties": { 
			 "R2extent": 2156.4612, 
			 "electric_dipole_moment_norm": 2.13334014634, 
			 "electric_quadrupole_moment_norm": 9.76633105009, 
			 "total_energy": -516.476671023, 
			 "HOMO_LUMO_gap": 0.17896, 
			 "cosmo_polarized_energy": -11.01, 
			 "cosmo_cavitation_energy": 24.49, 
			 "cosmo_dispersion_energy": -18.59, 
			 "cosmo_repulsion_energy": 1.46, 
			 "cosmo_total_nonelectrostatic_energy": 7.36, 
			 "SMD_solvation_energy": 2.98 
		},
		"coords": [
			{
				"x": 2.5029157001,
				"y": -1.4845158159,
				"z": 1.1091762509,
				"element": "C" 
			},
			{
				"x": 1.1752817672,
				"y": -0.9635068597,
				"z": 0.6165451523,
				"element": "C" 
			},
			{
				"x": 0.3934123556,
				"y": -0.1343213107,
				"z": 1.4611780372,
				"element": "C" 
			},
			{
				"x": -0.8185928036,
				"y": 0.3423760739,
				"z": 1.0143713726,
				"element": "C" 
			},
			{
				"x": -1.5421417431,
				"y": 1.1333136573,
				"z": 1.8478231033,
				"element": "O" 
			},
			{
				"x": -1.2665609343,
				"y": -0.0091441997,
				"z": -0.2974428178,
				"element": "C" 
			},
			{
				"x": -2.493115705,
				"y": 0.4206806369,
				"z": -0.8651195794,
				"element": "C" 
			},
			{
				"x": -2.8532054479,
				"y": 0.0369865734,
				"z": -2.1391361493,
				"element": "C" 
			},
			{
				"x": -1.9972351599,
				"y": -0.794851099,
				"z": -2.8980959384,
				"element": "C" 
			},
			{
				"x": -0.8001419825,
				"y": -1.2270732215,
				"z": -2.3719340732,
				"element": "C" 
			},
			{
				"x": -0.3978364967,
				"y": -0.8509735186,
				"z": -1.0629415533,
				"element": "C" 
			},
			{
				"x": 0.8006867869,
				"y": -1.3141615811,
				"z": -0.6029459587,
				"element": "N" 
			},
			{
				"x": 2.9654894927,
				"y": -2.0992992438,
				"z": 0.3359349048,
				"element": "H" 
			},
			{
				"x": 3.1804175544,
				"y": -0.6605391456,
				"z": 1.3617036196,
				"element": "H" 
			},
			{
				"x": 2.3774890833,
				"y": -2.0877347565,
				"z": 2.0158985362,
				"element": "H" 
			},
			{
				"x": 0.7363083897,
				"y": 0.130355806,
				"z": 2.4557561116,
				"element": "H" 
			},
			{
				"x": -2.3658821721,
				"y": 1.3984581115,
				"z": 1.4201568927,
				"element": "H" 
			},
			{
				"x": -3.1726062862,
				"y": 1.0615914858,
				"z": -0.3055372161,
				"element": "H" 
			},
			{
				"x": -3.7951951279,
				"y": 0.37341132,
				"z": -2.5614825508,
				"element": "H" 
			},
			{
				"x": -2.2897769393,
				"y": -1.0918148197,
				"z": -3.9010580708,
				"element": "H" 
			},
			{
				"x": -0.1256103316,
				"y": -1.8654380932,
				"z": -2.9330500734,
				"element": "H" 
			}
		],
		 "valence_orbital": [ 
			{
				"type": "occ",
				"energy": -0.32917,
				"method": "rhf"
			},
			{
				"type": "occ",
				"energy": -0.27626,
				"method": "rhf"
			},
			{
				"type": "occ",
				"energy": -0.24842,
				"method": "rhf"
			},
			{
				"type": "occ",
				"energy": -0.24512,
				"method": "rhf"
			},
			{
				"type": "occ",
				"energy": -0.22072,
				"method": "rhf"
			},
			{
				"type": "unocc",
				"energy": -0.04176,
				"method": "rhf"
			},
			{
				"type": "unocc",
				"energy": -0.01439,
				"method": "rhf"
			},
			{
				"type": "unocc",
				"energy": 0.03102,
				"method": "rhf"
			},
			{
				"type": "unocc",
				"energy": 0.05115,
				"method": "rhf"
			},
			{
				"type": "unocc",
				"energy": 0.08965,
				"method": "rhf"
			}
		],
		"cosmo_sigma_profile": { 
			"-0.025": 0.0,
			"-0.024": 0.0,
			"-0.023": 0.0,
			"-0.022": 0.0,
			"-0.021": 0.0,
			"-0.02": 0.0,
			"-0.019": 0.126844373113,
			"-0.018": 0.840148617035,
			"-0.017": 0.779405765682,
			"-0.016": 1.16379474638,
			"-0.015": 1.0995111428,
			"-0.014": 1.060809046,
			"-0.013": 0.665036555878,
			"-0.012": 0.833482710896,
			"-0.011": 0.917446689087,
			"-0.01": 1.2192097262,
			"-0.009": 1.06371360627,
			"-0.008": 1.28401586308,
			"-0.007": 2.10027724384,
			"-0.006": 7.34238004833,
			"-0.005": 11.5745860863,
			"-0.004": 15.3381127528,
			"-0.003": 14.0153069416,
			"-0.002": 14.1998772548,
			"-0.001": 12.8653198816,
			"0.0": 13.4124143158,
			"0.001": 14.5607255775,
			"0.002": 16.2976562976,
			"0.003": 19.3620978791,
			"0.004": 14.7727208526,
			"0.005": 7.61562102933,
			"0.006": 3.98152015,
			"0.007": 2.71641907355,
			"0.008": 3.09966260618,
			"0.009": 2.83312612289,
			"0.01": 3.40675107883,
			"0.011": 1.39678553543,
			"0.012": 0.774324650381,
			"0.013": 0.576031634224,
			"0.014": 1.02857069315,
			"0.015": 0.985050194396,
			"0.016": 0.358672651449,
			"0.017": 0.192947486773,
			"0.018": 0.0,
			"0.019": 0.0,
			"0.02": 0.0,
			"0.021": 0.0,
			"0.022": 0.0,
			"0.023": 0.0,
			"0.024": 0.0,
			"0.025": 0.0
		}
	}
}
