{
	 "smiles": "COC1(CC2=C(OCO2)C=C1)C=O", 
	 "Tm": 402.15, 
	 "num_atms": 23, 
	 "gaussian": { 
		 "optdone": 1, 
		 "sigma_profile": "yes", 
		 "theory": "DFT", 
		 "functional": "B3LYP", 
		 "basiset": "6-31G**", 
		 "properties": { 
			 "R2extent": 2474.9805, 
			 "electric_dipole_moment_norm": 2.93281031436, 
			 "electric_quadrupole_moment_norm": 8.91217220772, 
			 "total_energy": -649.777754214, 
			 "HOMO_LUMO_gap": 0.13798, 
			 "cosmo_polarized_energy": -9.26, 
			 "cosmo_cavitation_energy": 26.07, 
			 "cosmo_dispersion_energy": -19.17, 
			 "cosmo_repulsion_energy": 1.53, 
			 "cosmo_total_nonelectrostatic_energy": 8.42, 
			 "SMD_solvation_energy": 6.41 
		},
		"coords": [
			{
				"x": 0.088218759,
				"y": 1.5650894122,
				"z": -1.3565129633,
				"element": "C" 
			},
			{
				"x": 0.6028537222,
				"y": 0.3009132513,
				"z": -1.7505792407,
				"element": "O" 
			},
			{
				"x": 0.1232251349,
				"y": -0.8372467378,
				"z": -1.018659489,
				"element": "C" 
			},
			{
				"x": 0.6040653679,
				"y": -0.8460426582,
				"z": 0.4642786394,
				"element": "C" 
			},
			{
				"x": -0.4814584611,
				"y": -0.4811529056,
				"z": 1.4023817892,
				"element": "C" 
			},
			{
				"x": -1.7847909483,
				"y": -0.5120749208,
				"z": 1.0970384426,
				"element": "C" 
			},
			{
				"x": -2.5583070752,
				"y": -0.2656376984,
				"z": 2.2266468775,
				"element": "O" 
			},
			{
				"x": -1.6078446668,
				"y": 0.1792448134,
				"z": 3.1956805024,
				"element": "C" 
			},
			{
				"x": -0.2964107047,
				"y": -0.2035475115,
				"z": 2.7372065303,
				"element": "O" 
			},
			{
				"x": -2.271807019,
				"y": -0.8238662667,
				"z": -0.2174257778,
				"element": "C" 
			},
			{
				"x": -1.3765545103,
				"y": -1.0020290727,
				"z": -1.2150386904,
				"element": "C" 
			},
			{
				"x": 0.7878851967,
				"y": -2.0023337727,
				"z": -1.7763758568,
				"element": "C" 
			},
			{
				"x": 1.2605253777,
				"y": -2.9864249826,
				"z": -1.2586032604,
				"element": "O" 
			},
			{
				"x": 0.4889484139,
				"y": 2.2930088061,
				"z": -2.0656168379,
				"element": "H" 
			},
			{
				"x": 0.4142491013,
				"y": 1.8422335769,
				"z": -0.3447385112,
				"element": "H" 
			},
			{
				"x": -1.0074199369,
				"y": 1.5926858098,
				"z": -1.3939214497,
				"element": "H" 
			},
			{
				"x": 0.9661326644,
				"y": -1.8612384264,
				"z": 0.684130399,
				"element": "H" 
			},
			{
				"x": 1.470679624,
				"y": -0.1807299645,
				"z": 0.5517292602,
				"element": "H" 
			},
			{
				"x": -1.6464027318,
				"y": 1.2775998815,
				"z": 3.2808992639,
				"element": "H" 
			},
			{
				"x": -1.8086120519,
				"y": -0.2960358815,
				"z": 4.1592946435,
				"element": "H" 
			},
			{
				"x": -3.3410301221,
				"y": -0.9023695109,
				"z": -0.3899040982,
				"element": "H" 
			},
			{
				"x": -1.7093220696,
				"y": -1.1927717474,
				"z": -2.2309998964,
				"element": "H" 
			},
			{
				"x": 0.7807769358,
				"y": -1.8549734935,
				"z": -2.876210276,
				"element": "H" 
			}
		],
		 "valence_orbital": [ 
			{
				"type": "occ",
				"energy": -0.32834,
				"method": "rhf"
			},
			{
				"type": "occ",
				"energy": -0.29141,
				"method": "rhf"
			},
			{
				"type": "occ",
				"energy": -0.27004,
				"method": "rhf"
			},
			{
				"type": "occ",
				"energy": -0.25954,
				"method": "rhf"
			},
			{
				"type": "occ",
				"energy": -0.18842,
				"method": "rhf"
			},
			{
				"type": "unocc",
				"energy": -0.05044,
				"method": "rhf"
			},
			{
				"type": "unocc",
				"energy": -0.01288,
				"method": "rhf"
			},
			{
				"type": "unocc",
				"energy": 0.08728,
				"method": "rhf"
			},
			{
				"type": "unocc",
				"energy": 0.09435,
				"method": "rhf"
			},
			{
				"type": "unocc",
				"energy": 0.10399,
				"method": "rhf"
			}
		],
		"cosmo_sigma_profile": { 
			"-0.025": 0.0,
			"-0.024": 0.0,
			"-0.023": 0.0,
			"-0.022": 0.0,
			"-0.021": 0.0,
			"-0.02": 0.0,
			"-0.019": 0.0,
			"-0.018": 0.0,
			"-0.017": 0.0,
			"-0.016": 0.0,
			"-0.015": 0.0,
			"-0.014": 0.0,
			"-0.013": 0.0,
			"-0.012": 0.0,
			"-0.011": 0.0,
			"-0.01": 0.0,
			"-0.009": 0.0,
			"-0.008": 3.14855151559,
			"-0.007": 9.34087727836,
			"-0.006": 13.196072612,
			"-0.005": 17.3345025172,
			"-0.004": 16.0206601917,
			"-0.003": 17.3416909723,
			"-0.002": 19.2617957288,
			"-0.001": 14.0301279683,
			"0.0": 14.1123467822,
			"0.001": 14.7742988624,
			"0.002": 11.2952415875,
			"0.003": 8.71021403761,
			"0.004": 6.15917149729,
			"0.005": 5.69354912115,
			"0.006": 5.78488737397,
			"0.007": 6.04396832635,
			"0.008": 5.39126207374,
			"0.009": 6.59765656178,
			"0.01": 8.39525315211,
			"0.011": 3.62390348966,
			"0.012": 0.324267863895,
			"0.013": 0.0,
			"0.014": 0.0,
			"0.015": 0.0,
			"0.016": 0.0,
			"0.017": 0.0,
			"0.018": 0.0,
			"0.019": 0.0,
			"0.02": 0.0,
			"0.021": 0.0,
			"0.022": 0.0,
			"0.023": 0.0,
			"0.024": 0.0,
			"0.025": 0.0
		}
	}
}
