{
	 "smiles": "CCOC(=O)C1C(C(C(=O)OCC)C(O)(NC1(O)C(F)(F)F)C(F)(F)F)C1=CC=C(F)C=C1", 
	 "Tm": 357.15, 
	 "num_atms": 53, 
	 "gaussian": { 
		 "optdone": 1, 
		 "sigma_profile": "yes", 
		 "theory": "DFT", 
		 "functional": "B3LYP", 
		 "basiset": "6-31G**", 
		 "properties": { 
			 "R2extent": 14125.7278, 
			 "electric_dipole_moment_norm": 4.43541831511, 
			 "electric_quadrupole_moment_norm": 14.8526353056, 
			 "total_energy": -1941.07317374, 
			 "HOMO_LUMO_gap": 0.22566, 
			 "cosmo_polarized_energy": -20.12, 
			 "cosmo_cavitation_energy": 57.15, 
			 "cosmo_dispersion_energy": -34.4, 
			 "cosmo_repulsion_energy": 2.47, 
			 "cosmo_total_nonelectrostatic_energy": 25.22, 
			 "SMD_solvation_energy": 12.91 
		},
		"coords": [
			{
				"x": 0.2205601158,
				"y": 1.9755532484,
				"z": 4.4654861964,
				"element": "C" 
			},
			{
				"x": 1.3534523939,
				"y": 2.5552821592,
				"z": 3.6353842393,
				"element": "C" 
			},
			{
				"x": 1.3088938285,
				"y": 2.0620530036,
				"z": 2.2658317636,
				"element": "O" 
			},
			{
				"x": 0.5195787821,
				"y": 2.7554903197,
				"z": 1.3968404138,
				"element": "C" 
			},
			{
				"x": -0.1571965781,
				"y": 3.7020739128,
				"z": 1.7155627728,
				"element": "O" 
			},
			{
				"x": 0.5930737407,
				"y": 2.1728539138,
				"z": -0.0116667208,
				"element": "C" 
			},
			{
				"x": 0.0238994508,
				"y": 0.7205749956,
				"z": -0.0276628039,
				"element": "C" 
			},
			{
				"x": 0.4529709118,
				"y": -0.0456666864,
				"z": -1.3438207872,
				"element": "C" 
			},
			{
				"x": -0.6218397593,
				"y": -1.0616986289,
				"z": -1.7296142504,
				"element": "C" 
			},
			{
				"x": -1.5430515888,
				"y": -0.901470065,
				"z": -2.4936904726,
				"element": "O" 
			},
			{
				"x": -0.4171968573,
				"y": -2.1965949151,
				"z": -1.0221801778,
				"element": "O" 
			},
			{
				"x": -1.4153565854,
				"y": -3.2313826508,
				"z": -1.1975550213,
				"element": "C" 
			},
			{
				"x": -1.0131684007,
				"y": -4.4049608625,
				"z": -0.3251587677,
				"element": "C" 
			},
			{
				"x": 0.9034242606,
				"y": 0.92299931,
				"z": -2.4587235178,
				"element": "C" 
			},
			{
				"x": -0.2017476221,
				"y": 1.6743168221,
				"z": -2.9041649871,
				"element": "O" 
			},
			{
				"x": 1.9623260617,
				"y": 1.8177297123,
				"z": -1.9992409656,
				"element": "N" 
			},
			{
				"x": 2.0237723684,
				"y": 2.1747208165,
				"z": -0.603260868,
				"element": "C" 
			},
			{
				"x": 2.8837477132,
				"y": 1.2748777076,
				"z": 0.0740402764,
				"element": "O" 
			},
			{
				"x": 2.6714600573,
				"y": 3.5830430362,
				"z": -0.5530849104,
				"element": "C" 
			},
			{
				"x": 3.8273563027,
				"y": 3.5981804899,
				"z": -1.2405363594,
				"element": "F" 
			},
			{
				"x": 1.8617954516,
				"y": 4.5237084693,
				"z": -1.0695506138,
				"element": "F" 
			},
			{
				"x": 2.954043124,
				"y": 3.9405674097,
				"z": 0.7228661848,
				"element": "F" 
			},
			{
				"x": 1.5068215789,
				"y": 0.1659401087,
				"z": -3.6749301021,
				"element": "C" 
			},
			{
				"x": 2.6460982918,
				"y": -0.4818020381,
				"z": -3.3234508409,
				"element": "F" 
			},
			{
				"x": 1.829554054,
				"y": 1.049354527,
				"z": -4.6445236193,
				"element": "F" 
			},
			{
				"x": 0.6730282231,
				"y": -0.7349442068,
				"z": -4.198884015,
				"element": "F" 
			},
			{
				"x": -1.464446686,
				"y": 0.7242838805,
				"z": 0.2992124516,
				"element": "C" 
			},
			{
				"x": -2.4129333692,
				"y": 1.3610217769,
				"z": -0.5171451768,
				"element": "C" 
			},
			{
				"x": -3.760939634,
				"y": 1.3764227274,
				"z": -0.1681100779,
				"element": "C" 
			},
			{
				"x": -4.1602840883,
				"y": 0.7464894,
				"z": 1.0060501783,
				"element": "C" 
			},
			{
				"x": -5.465707225,
				"y": 0.760660615,
				"z": 1.3468855291,
				"element": "F" 
			},
			{
				"x": -3.254047636,
				"y": 0.0979489456,
				"z": 1.8343781727,
				"element": "C" 
			},
			{
				"x": -1.9065688735,
				"y": 0.09263187,
				"z": 1.4693575064,
				"element": "C" 
			},
			{
				"x": 0.2575038117,
				"y": 0.8821682364,
				"z": 4.4704411126,
				"element": "H" 
			},
			{
				"x": -0.7475058507,
				"y": 2.2969421939,
				"z": 4.0747246972,
				"element": "H" 
			},
			{
				"x": 0.3079348779,
				"y": 2.3251526939,
				"z": 5.4994628559,
				"element": "H" 
			},
			{
				"x": 2.3306992041,
				"y": 2.2366440993,
				"z": 4.0045874078,
				"element": "H" 
			},
			{
				"x": 1.3118353078,
				"y": 3.6458040718,
				"z": 3.6071890665,
				"element": "H" 
			},
			{
				"x": -0.0271781502,
				"y": 2.8186991392,
				"z": -0.6315323371,
				"element": "H" 
			},
			{
				"x": 0.5207005681,
				"y": 0.1828440113,
				"z": 0.7812314666,
				"element": "H" 
			},
			{
				"x": 1.3482599703,
				"y": -0.613671701,
				"z": -1.0842194632,
				"element": "H" 
			},
			{
				"x": -2.392450757,
				"y": -2.8246241664,
				"z": -0.9195620258,
				"element": "H" 
			},
			{
				"x": -1.4584873868,
				"y": -3.5004390398,
				"z": -2.2572895921,
				"element": "H" 
			},
			{
				"x": -0.0314746561,
				"y": -4.790632839,
				"z": -0.6148913784,
				"element": "H" 
			},
			{
				"x": -1.7445842358,
				"y": -5.2122524545,
				"z": -0.4302301798,
				"element": "H" 
			},
			{
				"x": -0.9722113884,
				"y": -4.1138832125,
				"z": 0.7284852571,
				"element": "H" 
			},
			{
				"x": 0.1663929798,
				"y": 2.4286774786,
				"z": -3.3887515882,
				"element": "H" 
			},
			{
				"x": 2.885995003,
				"y": 1.5306285635,
				"z": -2.3055315473,
				"element": "H" 
			},
			{
				"x": 2.77723307,
				"y": 1.428153166,
				"z": 1.0279865378,
				"element": "H" 
			},
			{
				"x": -2.095831875,
				"y": 1.8206372487,
				"z": -1.4465474925,
				"element": "H" 
			},
			{
				"x": -4.5022481831,
				"y": 1.8604209649,
				"z": -0.7945239878,
				"element": "H" 
			},
			{
				"x": -3.602550078,
				"y": -0.3864628608,
				"z": 2.7400505805,
				"element": "H" 
			},
			{
				"x": -1.1883040387,
				"y": -0.4125647176,
				"z": 2.1097799811,
				"element": "H" 
			}
		],
		 "valence_orbital": [ 
			{
				"type": "occ",
				"energy": -0.28872,
				"method": "rhf"
			},
			{
				"type": "occ",
				"energy": -0.28025,
				"method": "rhf"
			},
			{
				"type": "occ",
				"energy": -0.26814,
				"method": "rhf"
			},
			{
				"type": "occ",
				"energy": -0.2595,
				"method": "rhf"
			},
			{
				"type": "occ",
				"energy": -0.24228,
				"method": "rhf"
			},
			{
				"type": "unocc",
				"energy": -0.01662,
				"method": "rhf"
			},
			{
				"type": "unocc",
				"energy": -0.01271,
				"method": "rhf"
			},
			{
				"type": "unocc",
				"energy": -0.00732,
				"method": "rhf"
			},
			{
				"type": "unocc",
				"energy": 0.01316,
				"method": "rhf"
			},
			{
				"type": "unocc",
				"energy": 0.05877,
				"method": "rhf"
			}
		],
		"cosmo_sigma_profile": { 
			"-0.025": 0.0,
			"-0.024": 0.0,
			"-0.023": 0.0,
			"-0.022": 0.0,
			"-0.021": 0.0,
			"-0.02": 0.0,
			"-0.019": 0.0,
			"-0.018": 0.0,
			"-0.017": 0.0730292844532,
			"-0.016": 0.585151679654,
			"-0.015": 0.466597592154,
			"-0.014": 0.528836388156,
			"-0.013": 0.786120769296,
			"-0.012": 0.828627653074,
			"-0.011": 1.64345215078,
			"-0.01": 1.94270537966,
			"-0.009": 2.21755699912,
			"-0.008": 2.64378447628,
			"-0.007": 8.22955900272,
			"-0.006": 15.095887605,
			"-0.005": 26.3837457985,
			"-0.004": 37.4907976333,
			"-0.003": 35.5609032104,
			"-0.002": 33.9779200999,
			"-0.001": 36.4668165407,
			"0.0": 38.7643997113,
			"0.001": 44.1277124816,
			"0.002": 61.7273085961,
			"0.003": 28.701349138,
			"0.004": 20.0131850235,
			"0.005": 11.3215388147,
			"0.006": 6.87350569587,
			"0.007": 4.96991980819,
			"0.008": 4.42450494717,
			"0.009": 5.65250729231,
			"0.01": 6.17749813829,
			"0.011": 7.35297324619,
			"0.012": 3.39692309247,
			"0.013": 1.23705649825,
			"0.014": 0.892750696041,
			"0.015": 0.478943795108,
			"0.016": 0.0093153537477,
			"0.017": 0.0,
			"0.018": 0.0,
			"0.019": 0.0,
			"0.02": 0.0,
			"0.021": 0.0,
			"0.022": 0.0,
			"0.023": 0.0,
			"0.024": 0.0,
			"0.025": 0.0
		}
	}
}
