{
	 "smiles": "COC(=O)C1=CC(=CC(C)=C1)[N+]([O-])=O", 
	 "Tm": 354.15, 
	 "num_atms": 23, 
	 "gaussian": { 
		 "optdone": 1, 
		 "sigma_profile": "yes", 
		 "theory": "DFT", 
		 "functional": "B3LYP", 
		 "basiset": "6-31G**", 
		 "properties": { 
			 "R2extent": 3557.4295, 
			 "electric_dipole_moment_norm": 6.14617700363, 
			 "electric_quadrupole_moment_norm": 9.84771360672, 
			 "total_energy": -703.946235944, 
			 "HOMO_LUMO_gap": 0.18208, 
			 "cosmo_polarized_energy": -11.26, 
			 "cosmo_cavitation_energy": 28.64, 
			 "cosmo_dispersion_energy": -20.66, 
			 "cosmo_repulsion_energy": 1.63, 
			 "cosmo_total_nonelectrostatic_energy": 9.61, 
			 "SMD_solvation_energy": 8.93 
		},
		"coords": [
			{
				"x": 0.6655319453,
				"y": -4.1082307188,
				"z": 1.569346338,
				"element": "C" 
			},
			{
				"x": 0.3012712964,
				"y": -2.8841965272,
				"z": 0.9092382574,
				"element": "O" 
			},
			{
				"x": 0.8035876284,
				"y": -1.7603956796,
				"z": 1.4648402014,
				"element": "C" 
			},
			{
				"x": 1.5132964245,
				"y": -1.7593903048,
				"z": 2.4499309685,
				"element": "O" 
			},
			{
				"x": 0.3862501034,
				"y": -0.5276920834,
				"z": 0.7301336285,
				"element": "C" 
			},
			{
				"x": 0.8442449724,
				"y": 0.6989280896,
				"z": 1.2189234768,
				"element": "C" 
			},
			{
				"x": 0.4602067135,
				"y": 1.8528829236,
				"z": 0.5488974938,
				"element": "C" 
			},
			{
				"x": -0.3560333564,
				"y": 1.8251343914,
				"z": -0.5807587292,
				"element": "C" 
			},
			{
				"x": -0.8134616526,
				"y": 0.5993620507,
				"z": -1.0748359108,
				"element": "C" 
			},
			{
				"x": -1.6747010653,
				"y": 0.5400179178,
				"z": -2.31430242,
				"element": "C" 
			},
			{
				"x": -0.4348274832,
				"y": -0.5712572295,
				"z": -0.4043680119,
				"element": "C" 
			},
			{
				"x": 0.927792317,
				"y": 3.1578697442,
				"z": 1.0517434755,
				"element": "N" 
			},
			{
				"x": 0.5684987058,
				"y": 4.1646447677,
				"z": 0.4415294572,
				"element": "O" 
			},
			{
				"x": 1.6470595564,
				"y": 3.1597229258,
				"z": 2.0484784954,
				"element": "O" 
			},
			{
				"x": 0.1837903514,
				"y": -4.9030112049,
				"z": 1.0003946545,
				"element": "H" 
			},
			{
				"x": 1.7506577403,
				"y": -4.2363733973,
				"z": 1.5675882985,
				"element": "H" 
			},
			{
				"x": 0.3121784737,
				"y": -4.1059212711,
				"z": 2.6033017772,
				"element": "H" 
			},
			{
				"x": 1.4760852126,
				"y": 0.7431999507,
				"z": 2.0963850015,
				"element": "H" 
			},
			{
				"x": -0.623889968,
				"y": 2.7610242337,
				"z": -1.0568608969,
				"element": "H" 
			},
			{
				"x": -2.2779487596,
				"y": 1.4452541205,
				"z": -2.4245831936,
				"element": "H" 
			},
			{
				"x": -1.057418329,
				"y": 0.4455676999,
				"z": -3.215868441,
				"element": "H" 
			},
			{
				"x": -2.3500667639,
				"y": -0.3197058355,
				"z": -2.2889424397,
				"element": "H" 
			},
			{
				"x": -0.782004063,
				"y": -1.5339345633,
				"z": -0.7637114809,
				"element": "H" 
			}
		],
		 "valence_orbital": [ 
			{
				"type": "occ",
				"energy": -0.30844,
				"method": "rhf"
			},
			{
				"type": "occ",
				"energy": -0.29245,
				"method": "rhf"
			},
			{
				"type": "occ",
				"energy": -0.28722,
				"method": "rhf"
			},
			{
				"type": "occ",
				"energy": -0.28611,
				"method": "rhf"
			},
			{
				"type": "occ",
				"energy": -0.27372,
				"method": "rhf"
			},
			{
				"type": "unocc",
				"energy": -0.09164,
				"method": "rhf"
			},
			{
				"type": "unocc",
				"energy": -0.0608,
				"method": "rhf"
			},
			{
				"type": "unocc",
				"energy": -0.00971,
				"method": "rhf"
			},
			{
				"type": "unocc",
				"energy": 0.04668,
				"method": "rhf"
			},
			{
				"type": "unocc",
				"energy": 0.08263,
				"method": "rhf"
			}
		],
		"cosmo_sigma_profile": { 
			"-0.025": 0.0,
			"-0.024": 0.0,
			"-0.023": 0.0,
			"-0.022": 0.0,
			"-0.021": 0.0,
			"-0.02": 0.0,
			"-0.019": 0.0,
			"-0.018": 0.0,
			"-0.017": 0.0,
			"-0.016": 0.0,
			"-0.015": 0.0,
			"-0.014": 0.0,
			"-0.013": 0.0,
			"-0.012": 0.0,
			"-0.011": 0.0,
			"-0.01": 0.0,
			"-0.009": 0.0,
			"-0.008": 0.466783887228,
			"-0.007": 4.73065688267,
			"-0.006": 12.1405698226,
			"-0.005": 17.496341251,
			"-0.004": 22.5173437671,
			"-0.003": 23.6658485637,
			"-0.002": 22.3775136275,
			"-0.001": 24.416791987,
			"0.0": 23.870092799,
			"0.001": 12.9900600463,
			"0.002": 7.06553991912,
			"0.003": 4.71675880459,
			"0.004": 6.53673005086,
			"0.005": 5.76641407917,
			"0.006": 5.69916032424,
			"0.007": 10.1860152696,
			"0.008": 7.94461262215,
			"0.009": 6.11856646865,
			"0.01": 3.87896234444,
			"0.011": 4.22855193532,
			"0.012": 1.8115258719,
			"0.013": 0.0,
			"0.014": 0.0,
			"0.015": 0.0,
			"0.016": 0.0,
			"0.017": 0.0,
			"0.018": 0.0,
			"0.019": 0.0,
			"0.02": 0.0,
			"0.021": 0.0,
			"0.022": 0.0,
			"0.023": 0.0,
			"0.024": 0.0,
			"0.025": 0.0
		}
	}
}
