{
	 "smiles": "CN1CCCC[C@@H]1C(O)=O", 
	 "Tm": 493.15, 
	 "num_atms": 23, 
	 "gaussian": { 
		 "optdone": 1, 
		 "sigma_profile": "yes", 
		 "theory": "DFT", 
		 "functional": "B3LYP", 
		 "basiset": "6-31G**", 
		 "properties": { 
			 "R2extent": 1589.5288, 
			 "electric_dipole_moment_norm": 1.82872014808, 
			 "electric_quadrupole_moment_norm": 8.53378862405, 
			 "total_energy": -479.782691839, 
			 "HOMO_LUMO_gap": 0.21237, 
			 "cosmo_polarized_energy": -8.35, 
			 "cosmo_cavitation_energy": 23.99, 
			 "cosmo_dispersion_energy": -17.76, 
			 "cosmo_repulsion_energy": 1.46, 
			 "cosmo_total_nonelectrostatic_energy": 7.69, 
			 "SMD_solvation_energy": 3.28 
		},
		"coords": [
			{
				"x": -0.5430555342,
				"y": -1.4361055644,
				"z": -2.2442581893,
				"element": "C" 
			},
			{
				"x": -0.5870140525,
				"y": -0.794760191,
				"z": -0.9415721475,
				"element": "N" 
			},
			{
				"x": -0.9101618062,
				"y": 0.6326045047,
				"z": -0.9555560822,
				"element": "C" 
			},
			{
				"x": -1.4830689301,
				"y": 1.0579058551,
				"z": 0.4174339751,
				"element": "C" 
			},
			{
				"x": -0.9427685258,
				"y": 0.1602017557,
				"z": 1.5508571103,
				"element": "C" 
			},
			{
				"x": 0.4859522857,
				"y": -0.288682937,
				"z": 1.2326946416,
				"element": "C" 
			},
			{
				"x": 0.4987746937,
				"y": -1.1759721045,
				"z": -0.0417042312,
				"element": "C" 
			},
			{
				"x": 1.9110838914,
				"y": -1.1572376327,
				"z": -0.6437227568,
				"element": "C" 
			},
			{
				"x": 2.1730721617,
				"y": -0.0194179182,
				"z": -1.3403415256,
				"element": "O" 
			},
			{
				"x": 2.733864715,
				"y": -2.0362346733,
				"z": -0.5123417891,
				"element": "O" 
			},
			{
				"x": -0.4002083096,
				"y": -2.515123952,
				"z": -2.1152928496,
				"element": "H" 
			},
			{
				"x": -1.4982249157,
				"y": -1.2844312249,
				"z": -2.7579310222,
				"element": "H" 
			},
			{
				"x": 0.2600347255,
				"y": -1.0637231973,
				"z": -2.9045573321,
				"element": "H" 
			},
			{
				"x": -0.0411586566,
				"y": 1.2539442911,
				"z": -1.2273324597,
				"element": "H" 
			},
			{
				"x": -1.6586754628,
				"y": 0.7924591121,
				"z": -1.738430758,
				"element": "H" 
			},
			{
				"x": -1.2175464605,
				"y": 2.1051578498,
				"z": 0.6056003191,
				"element": "H" 
			},
			{
				"x": -2.5769448061,
				"y": 1.0070693863,
				"z": 0.4030310333,
				"element": "H" 
			},
			{
				"x": -0.9681341088,
				"y": 0.6936783659,
				"z": 2.5073376545,
				"element": "H" 
			},
			{
				"x": -1.5803265592,
				"y": -0.7235889708,
				"z": 1.6624394073,
				"element": "H" 
			},
			{
				"x": 1.1147754525,
				"y": 0.5956992828,
				"z": 1.0733772639,
				"element": "H" 
			},
			{
				"x": 0.931465225,
				"y": -0.8496814055,
				"z": 2.0597460702,
				"element": "H" 
			},
			{
				"x": 0.3450950011,
				"y": -2.2230915065,
				"z": 0.2477452516,
				"element": "H" 
			},
			{
				"x": 3.0860699764,
				"y": -0.1084691253,
				"z": -1.6634215836,
				"element": "H" 
			}
		],
		 "valence_orbital": [ 
			{
				"type": "occ",
				"energy": -0.32403,
				"method": "rhf"
			},
			{
				"type": "occ",
				"energy": -0.31542,
				"method": "rhf"
			},
			{
				"type": "occ",
				"energy": -0.31238,
				"method": "rhf"
			},
			{
				"type": "occ",
				"energy": -0.27533,
				"method": "rhf"
			},
			{
				"type": "occ",
				"energy": -0.20442,
				"method": "rhf"
			},
			{
				"type": "unocc",
				"energy": 0.00795,
				"method": "rhf"
			},
			{
				"type": "unocc",
				"energy": 0.06686,
				"method": "rhf"
			},
			{
				"type": "unocc",
				"energy": 0.0931,
				"method": "rhf"
			},
			{
				"type": "unocc",
				"energy": 0.11224,
				"method": "rhf"
			},
			{
				"type": "unocc",
				"energy": 0.12247,
				"method": "rhf"
			}
		],
		"cosmo_sigma_profile": { 
			"-0.025": 0.0,
			"-0.024": 0.0,
			"-0.023": 0.0,
			"-0.022": 0.0,
			"-0.021": 0.0,
			"-0.02": 0.0,
			"-0.019": 0.0,
			"-0.018": 0.351626092753,
			"-0.017": 1.13261316846,
			"-0.016": 0.896699053531,
			"-0.015": 0.420454960101,
			"-0.014": 0.635476186124,
			"-0.013": 0.96198862617,
			"-0.012": 0.719081402002,
			"-0.011": 0.753765396466,
			"-0.01": 1.04841019396,
			"-0.009": 0.313461495535,
			"-0.008": 0.583414324211,
			"-0.007": 0.329830285856,
			"-0.006": 1.22400093174,
			"-0.005": 1.65496658213,
			"-0.004": 12.2002792337,
			"-0.003": 18.5068254287,
			"-0.002": 28.6540959788,
			"-0.001": 33.857590834,
			"0.0": 23.9513320078,
			"0.001": 13.3293313925,
			"0.002": 5.66309339008,
			"0.003": 4.93041001797,
			"0.004": 3.55468251885,
			"0.005": 4.19070527542,
			"0.006": 3.57144254239,
			"0.007": 3.51924234509,
			"0.008": 2.59276465328,
			"0.009": 1.87600265564,
			"0.01": 2.86268455065,
			"0.011": 3.94355055692,
			"0.012": 5.14670308645,
			"0.013": 1.79389159774,
			"0.014": 0.120443938957,
			"0.015": 0.0,
			"0.016": 0.0,
			"0.017": 0.0,
			"0.018": 0.0,
			"0.019": 0.0,
			"0.02": 0.0,
			"0.021": 0.0,
			"0.022": 0.0,
			"0.023": 0.0,
			"0.024": 0.0,
			"0.025": 0.0
		}
	}
}
