{
	 "smiles": "FC(F)(F)COC1=NC=C(C=C1)S(Cl)(=O)=O", 
	 "Tm": 329.15, 
	 "num_atms": 21, 
	 "gaussian": { 
		 "optdone": 1, 
		 "sigma_profile": "yes", 
		 "theory": "DFT", 
		 "functional": "B3LYP", 
		 "basiset": "6-31G**", 
		 "properties": { 
			 "R2extent": 8455.1413, 
			 "electric_dipole_moment_norm": 4.3532911745, 
			 "electric_quadrupole_moment_norm": 27.6889892102, 
			 "total_energy": -1708.00704705, 
			 "HOMO_LUMO_gap": 0.18421, 
			 "cosmo_polarized_energy": -10.84, 
			 "cosmo_cavitation_energy": 31.42, 
			 "cosmo_dispersion_energy": -22.68, 
			 "cosmo_repulsion_energy": 1.69, 
			 "cosmo_total_nonelectrostatic_energy": 10.42, 
			 "SMD_solvation_energy": 4.89 
		},
		"coords": [
			{
				"x": 1.1820753889,
				"y": -1.3679892397,
				"z": -2.9182161815,
				"element": "F" 
			},
			{
				"x": 2.0117385787,
				"y": -2.0778709164,
				"z": -2.1322521223,
				"element": "C" 
			},
			{
				"x": 2.9993942058,
				"y": -2.5813132236,
				"z": -2.9007031612,
				"element": "F" 
			},
			{
				"x": 1.3128722893,
				"y": -3.1080991473,
				"z": -1.6221095587,
				"element": "F" 
			},
			{
				"x": 2.6216421335,
				"y": -1.2151804808,
				"z": -1.0379617877,
				"element": "C" 
			},
			{
				"x": 1.5888247257,
				"y": -0.6659331697,
				"z": -0.2222435848,
				"element": "O" 
			},
			{
				"x": 1.1665151322,
				"y": 0.5959241615,
				"z": -0.4580467296,
				"element": "C" 
			},
			{
				"x": 1.7850030419,
				"y": 1.3422278156,
				"z": -1.3671035327,
				"element": "N" 
			},
			{
				"x": 1.3481872113,
				"y": 2.5908718648,
				"z": -1.5576521029,
				"element": "C" 
			},
			{
				"x": 0.2796808643,
				"y": 3.1148178103,
				"z": -0.8348634167,
				"element": "C" 
			},
			{
				"x": -0.3695476919,
				"y": 2.3287330292,
				"z": 0.129631711,
				"element": "C" 
			},
			{
				"x": 0.0831212369,
				"y": 1.0393421657,
				"z": 0.3272197987,
				"element": "C" 
			},
			{
				"x": -0.2418031857,
				"y": 4.7873301582,
				"z": -1.1179784138,
				"element": "S" 
			},
			{
				"x": -1.7979212684,
				"y": 4.5171240189,
				"z": -2.5508610845,
				"element": "Cl" 
			},
			{
				"x": 0.8214344641,
				"y": 5.510600157,
				"z": -1.8029806269,
				"element": "O" 
			},
			{
				"x": -0.8878447456,
				"y": 5.2936013506,
				"z": 0.0863404805,
				"element": "O" 
			},
			{
				"x": 3.2317886201,
				"y": -1.8494495343,
				"z": -0.3927260949,
				"element": "H" 
			},
			{
				"x": 3.226600385,
				"y": -0.4328120664,
				"z": -1.4962607446,
				"element": "H" 
			},
			{
				"x": 1.8678196816,
				"y": 3.1922488497,
				"z": -2.2978943379,
				"element": "H" 
			},
			{
				"x": -1.1948130468,
				"y": 2.7335061654,
				"z": 0.7052127625,
				"element": "H" 
			},
			{
				"x": -0.3620680208,
				"y": 0.3734202314,
				"z": 1.056548728,
				"element": "H" 
			}
		],
		 "valence_orbital": [ 
			{
				"type": "occ",
				"energy": -0.34001,
				"method": "rhf"
			},
			{
				"type": "occ",
				"energy": -0.32792,
				"method": "rhf"
			},
			{
				"type": "occ",
				"energy": -0.31898,
				"method": "rhf"
			},
			{
				"type": "occ",
				"energy": -0.30736,
				"method": "rhf"
			},
			{
				"type": "occ",
				"energy": -0.27958,
				"method": "rhf"
			},
			{
				"type": "unocc",
				"energy": -0.09537,
				"method": "rhf"
			},
			{
				"type": "unocc",
				"energy": -0.06491,
				"method": "rhf"
			},
			{
				"type": "unocc",
				"energy": -0.04892,
				"method": "rhf"
			},
			{
				"type": "unocc",
				"energy": 0.04802,
				"method": "rhf"
			},
			{
				"type": "unocc",
				"energy": 0.06622,
				"method": "rhf"
			}
		],
		"cosmo_sigma_profile": { 
			"-0.025": 0.0,
			"-0.024": 0.0,
			"-0.023": 0.0,
			"-0.022": 0.0,
			"-0.021": 0.0,
			"-0.02": 0.0,
			"-0.019": 0.0,
			"-0.018": 0.0,
			"-0.017": 0.0,
			"-0.016": 0.0,
			"-0.015": 0.0,
			"-0.014": 0.0,
			"-0.013": 0.0,
			"-0.012": 0.0,
			"-0.011": 0.0,
			"-0.01": 1.8601226563,
			"-0.009": 7.12599581059,
			"-0.008": 9.32868519107,
			"-0.007": 9.48922685012,
			"-0.006": 8.706950143,
			"-0.005": 9.34052409524,
			"-0.004": 10.2887084097,
			"-0.003": 13.702048045,
			"-0.002": 20.2643030467,
			"-0.001": 19.3700835455,
			"0.0": 16.4740567683,
			"0.001": 15.1365862149,
			"0.002": 35.6938482378,
			"0.003": 34.8450660117,
			"0.004": 11.3338444778,
			"0.005": 6.03169937436,
			"0.006": 5.06603031423,
			"0.007": 8.52540607233,
			"0.008": 9.85013706621,
			"0.009": 3.15387765424,
			"0.01": 0.0,
			"0.011": 0.0,
			"0.012": 0.0,
			"0.013": 0.0,
			"0.014": 0.0,
			"0.015": 0.0,
			"0.016": 0.0,
			"0.017": 0.0,
			"0.018": 0.0,
			"0.019": 0.0,
			"0.02": 0.0,
			"0.021": 0.0,
			"0.022": 0.0,
			"0.023": 0.0,
			"0.024": 0.0,
			"0.025": 0.0
		}
	}
}
