{
	 "smiles": "C(NC1=CC=C(C=C1)N1CCOCC1)C1=NC=CC=C1", 
	 "Tm": 406.15, 
	 "num_atms": 39, 
	 "gaussian": { 
		 "optdone": 1, 
		 "sigma_profile": "yes", 
		 "theory": "DFT", 
		 "functional": "B3LYP", 
		 "basiset": "6-31G**", 
		 "properties": { 
			 "R2extent": 11370.0592, 
			 "electric_dipole_moment_norm": 2.08508890458, 
			 "electric_quadrupole_moment_norm": 10.0768457123, 
			 "total_energy": -860.597321259, 
			 "HOMO_LUMO_gap": 0.14102, 
			 "cosmo_polarized_energy": -13.46, 
			 "cosmo_cavitation_energy": 40.86, 
			 "cosmo_dispersion_energy": -30.27, 
			 "cosmo_repulsion_energy": 2.3, 
			 "cosmo_total_nonelectrostatic_energy": 12.89, 
			 "SMD_solvation_energy": 3.55 
		},
		"coords": [
			{
				"x": -1.3561838719,
				"y": -2.9432497618,
				"z": 0.7020382707,
				"element": "C" 
			},
			{
				"x": -1.3788398101,
				"y": -1.5577703267,
				"z": 0.2605292397,
				"element": "N" 
			},
			{
				"x": -0.2225788634,
				"y": -0.7604848372,
				"z": 0.368660669,
				"element": "C" 
			},
			{
				"x": -0.3313139751,
				"y": 0.6314880307,
				"z": 0.2036050774,
				"element": "C" 
			},
			{
				"x": 0.7796481073,
				"y": 1.4620769476,
				"z": 0.260969234,
				"element": "C" 
			},
			{
				"x": 2.0755120566,
				"y": 0.9397209683,
				"z": 0.465843032,
				"element": "C" 
			},
			{
				"x": 2.1820946196,
				"y": -0.4530697865,
				"z": 0.6279501126,
				"element": "C" 
			},
			{
				"x": 1.0584268475,
				"y": -1.2817181836,
				"z": 0.5947967966,
				"element": "C" 
			},
			{
				"x": 3.1896937551,
				"y": 1.7798703231,
				"z": 0.5274656624,
				"element": "N" 
			},
			{
				"x": 4.4880368776,
				"y": 1.2727529383,
				"z": 0.9405100781,
				"element": "C" 
			},
			{
				"x": 5.387893719,
				"y": 2.4364503228,
				"z": 1.3499280939,
				"element": "C" 
			},
			{
				"x": 5.5915625697,
				"y": 3.3905466345,
				"z": 0.3100619338,
				"element": "O" 
			},
			{
				"x": 4.5649622603,
				"y": 3.4135032784,
				"z": -0.6743285281,
				"element": "C" 
			},
			{
				"x": 3.1814351829,
				"y": 3.0933045789,
				"z": -0.1097542734,
				"element": "C" 
			},
			{
				"x": -2.6771112941,
				"y": -3.6396863302,
				"z": 0.4372817847,
				"element": "C" 
			},
			{
				"x": -3.0241005715,
				"y": -4.5883533262,
				"z": 1.3211406411,
				"element": "N" 
			},
			{
				"x": -4.1644689511,
				"y": -5.255815808,
				"z": 1.1088888405,
				"element": "C" 
			},
			{
				"x": -5.0142708295,
				"y": -5.0152035405,
				"z": 0.029021396,
				"element": "C" 
			},
			{
				"x": -4.6493823441,
				"y": -4.0264996704,
				"z": -0.8844191343,
				"element": "C" 
			},
			{
				"x": -3.4612771058,
				"y": -3.3278614411,
				"z": -0.6814082674,
				"element": "C" 
			},
			{
				"x": -0.5732860917,
				"y": -3.4693133641,
				"z": 0.1384939159,
				"element": "H" 
			},
			{
				"x": -1.111848434,
				"y": -3.0698790164,
				"z": 1.7682306574,
				"element": "H" 
			},
			{
				"x": -2.2079570799,
				"y": -1.0712387503,
				"z": 0.5812831301,
				"element": "H" 
			},
			{
				"x": -1.3119731935,
				"y": 1.070786863,
				"z": 0.0329884948,
				"element": "H" 
			},
			{
				"x": 0.6331973162,
				"y": 2.532601501,
				"z": 0.1655638408,
				"element": "H" 
			},
			{
				"x": 3.1522563176,
				"y": -0.913691537,
				"z": 0.7761475455,
				"element": "H" 
			},
			{
				"x": 1.2012601816,
				"y": -2.3466175239,
				"z": 0.7418139521,
				"element": "H" 
			},
			{
				"x": 4.9825200206,
				"y": 0.6737664324,
				"z": 0.1551676418,
				"element": "H" 
			},
			{
				"x": 4.3631535205,
				"y": 0.616805758,
				"z": 1.8103036457,
				"element": "H" 
			},
			{
				"x": 4.9465171145,
				"y": 2.9334494227,
				"z": 2.2273412097,
				"element": "H" 
			},
			{
				"x": 6.3748309439,
				"y": 2.0584227211,
				"z": 1.6389491586,
				"element": "H" 
			},
			{
				"x": 4.7955276349,
				"y": 2.7014245405,
				"z": -1.4825067526,
				"element": "H" 
			},
			{
				"x": 4.566897717,
				"y": 4.4194612373,
				"z": -1.1070045276,
				"element": "H" 
			},
			{
				"x": 2.8746959208,
				"y": 3.8881596357,
				"z": 0.5893670603,
				"element": "H" 
			},
			{
				"x": 2.4652136881,
				"y": 3.0983964237,
				"z": -0.9400873137,
				"element": "H" 
			},
			{
				"x": -4.4134747357,
				"y": -6.0187674544,
				"z": 1.8449584443,
				"element": "H" 
			},
			{
				"x": -5.9310580182,
				"y": -5.5845177012,
				"z": -0.0875780479,
				"element": "H" 
			},
			{
				"x": -5.2778584942,
				"y": -3.8049941947,
				"z": -1.7426565891,
				"element": "H" 
			},
			{
				"x": -3.1313527077,
				"y": -2.5540560037,
				"z": -1.3661561254,
				"element": "H" 
			}
		],
		 "valence_orbital": [ 
			{
				"type": "occ",
				"energy": -0.25348,
				"method": "rhf"
			},
			{
				"type": "occ",
				"energy": -0.24891,
				"method": "rhf"
			},
			{
				"type": "occ",
				"energy": -0.23946,
				"method": "rhf"
			},
			{
				"type": "occ",
				"energy": -0.23323,
				"method": "rhf"
			},
			{
				"type": "occ",
				"energy": -0.16489,
				"method": "rhf"
			},
			{
				"type": "unocc",
				"energy": -0.02387,
				"method": "rhf"
			},
			{
				"type": "unocc",
				"energy": -0.01145,
				"method": "rhf"
			},
			{
				"type": "unocc",
				"energy": 0.00767,
				"method": "rhf"
			},
			{
				"type": "unocc",
				"energy": 0.03578,
				"method": "rhf"
			},
			{
				"type": "unocc",
				"energy": 0.08376,
				"method": "rhf"
			}
		],
		"cosmo_sigma_profile": { 
			"-0.025": 0.0,
			"-0.024": 0.0,
			"-0.023": 0.0,
			"-0.022": 0.0,
			"-0.021": 0.0,
			"-0.02": 0.0,
			"-0.019": 0.0,
			"-0.018": 0.0,
			"-0.017": 0.0,
			"-0.016": 0.0,
			"-0.015": 0.0,
			"-0.014": 0.0,
			"-0.013": 0.0,
			"-0.012": 0.273883560617,
			"-0.011": 0.968178976902,
			"-0.01": 1.37467937373,
			"-0.009": 1.35174728652,
			"-0.008": 0.990615300869,
			"-0.007": 3.6848936428,
			"-0.006": 11.8003507225,
			"-0.005": 28.4092056522,
			"-0.004": 34.8357806662,
			"-0.003": 43.1146499021,
			"-0.002": 30.7816629315,
			"-0.001": 20.0348767463,
			"0.0": 18.8372151184,
			"0.001": 15.3740942001,
			"0.002": 18.9425245267,
			"0.003": 19.1693832663,
			"0.004": 13.0774922353,
			"0.005": 10.917028936,
			"0.006": 10.7236979696,
			"0.007": 12.9042831697,
			"0.008": 9.36337114042,
			"0.009": 2.67241366639,
			"0.01": 2.19375558821,
			"0.011": 3.34381304674,
			"0.012": 1.99284498313,
			"0.013": 2.54950442681,
			"0.014": 1.79659092108,
			"0.015": 0.780835217992,
			"0.016": 0.496059519372,
			"0.017": 0.0890784374904,
			"0.018": 0.0,
			"0.019": 0.0,
			"0.02": 0.0,
			"0.021": 0.0,
			"0.022": 0.0,
			"0.023": 0.0,
			"0.024": 0.0,
			"0.025": 0.0
		}
	}
}
