{
	 "smiles": "CCOC(=O)C1=CC=C(CBr)C=C1", 
	 "Tm": 303.65, 
	 "num_atms": 24, 
	 "gaussian": { 
		 "optdone": 1, 
		 "sigma_profile": "yes", 
		 "theory": "DFT", 
		 "functional": "B3LYP", 
		 "basiset": "6-31G**", 
		 "properties": { 
			 "R2extent": 6927.2387, 
			 "electric_dipole_moment_norm": 2.3894004499, 
			 "electric_quadrupole_moment_norm": 14.6450057412, 
			 "total_energy": -3109.57258356, 
			 "HOMO_LUMO_gap": 0.19417, 
			 "cosmo_polarized_energy": -9.63, 
			 "cosmo_cavitation_energy": 30.67, 
			 "cosmo_dispersion_energy": -22.38, 
			 "cosmo_repulsion_energy": 1.8, 
			 "cosmo_total_nonelectrostatic_energy": 10.09, 
			 "SMD_solvation_energy": 5.08 
		},
		"coords": [
			{
				"x": -2.2223721892,
				"y": 0.0830471201,
				"z": 3.3036899634,
				"element": "C" 
			},
			{
				"x": -1.1495916718,
				"y": 1.0563220006,
				"z": 2.8385693424,
				"element": "C" 
			},
			{
				"x": -0.3683076576,
				"y": 0.5000667068,
				"z": 1.7540711896,
				"element": "O" 
			},
			{
				"x": -0.8701933927,
				"y": 0.6544289269,
				"z": 0.5081481445,
				"element": "C" 
			},
			{
				"x": -1.9138777137,
				"y": 1.2313046712,
				"z": 0.266906857,
				"element": "O" 
			},
			{
				"x": 0.0039471783,
				"y": 0.0418248803,
				"z": -0.53409237,
				"element": "C" 
			},
			{
				"x": -0.4058437537,
				"y": 0.1367526674,
				"z": -1.8707531087,
				"element": "C" 
			},
			{
				"x": 0.3734819407,
				"y": -0.414512871,
				"z": -2.8814311667,
				"element": "C" 
			},
			{
				"x": 1.576385907,
				"y": -1.0691834741,
				"z": -2.5776452883,
				"element": "C" 
			},
			{
				"x": 2.4223064861,
				"y": -1.6458455258,
				"z": -3.666266574,
				"element": "C" 
			},
			{
				"x": 1.9565884985,
				"y": -3.5589067887,
				"z": -4.0463315598,
				"element": "Br" 
			},
			{
				"x": 1.979590418,
				"y": -1.1626410148,
				"z": -1.2377020193,
				"element": "C" 
			},
			{
				"x": 1.2034237793,
				"y": -0.612979796,
				"z": -0.2220100482,
				"element": "C" 
			},
			{
				"x": -1.7810596439,
				"y": -0.8750614364,
				"z": 3.5935489745,
				"element": "H" 
			},
			{
				"x": -2.7468450308,
				"y": 0.4967765673,
				"z": 4.1714704902,
				"element": "H" 
			},
			{
				"x": -2.9542860225,
				"y": -0.0888010495,
				"z": 2.5108758522,
				"element": "H" 
			},
			{
				"x": -1.5898762845,
				"y": 1.9993027894,
				"z": 2.5063991058,
				"element": "H" 
			},
			{
				"x": -0.4177086372,
				"y": 1.2531376941,
				"z": 3.625637988,
				"element": "H" 
			},
			{
				"x": -1.3359185322,
				"y": 0.6484044459,
				"z": -2.0932396456,
				"element": "H" 
			},
			{
				"x": 0.0493913241,
				"y": -0.3412387491,
				"z": -3.9160213744,
				"element": "H" 
			},
			{
				"x": 3.4794197762,
				"y": -1.6734565265,
				"z": -3.4084942766,
				"element": "H" 
			},
			{
				"x": 2.2824557192,
				"y": -1.1405691029,
				"z": -4.6200710074,
				"element": "H" 
			},
			{
				"x": 2.9070381305,
				"y": -1.6729118517,
				"z": -0.9921245876,
				"element": "H" 
			},
			{
				"x": 1.520051372,
				"y": -0.6850602835,
				"z": 0.8118651189,
				"element": "H" 
			}
		],
		 "valence_orbital": [ 
			{
				"type": "occ",
				"energy": -0.2784,
				"method": "rhf"
			},
			{
				"type": "occ",
				"energy": -0.27601,
				"method": "rhf"
			},
			{
				"type": "occ",
				"energy": -0.27504,
				"method": "rhf"
			},
			{
				"type": "occ",
				"energy": -0.2646,
				"method": "rhf"
			},
			{
				"type": "occ",
				"energy": -0.25698,
				"method": "rhf"
			},
			{
				"type": "unocc",
				"energy": -0.06281,
				"method": "rhf"
			},
			{
				"type": "unocc",
				"energy": -0.01537,
				"method": "rhf"
			},
			{
				"type": "unocc",
				"energy": 0.00012,
				"method": "rhf"
			},
			{
				"type": "unocc",
				"energy": 0.05999,
				"method": "rhf"
			},
			{
				"type": "unocc",
				"energy": 0.089,
				"method": "rhf"
			}
		],
		"cosmo_sigma_profile": { 
			"-0.025": 0.0,
			"-0.024": 0.0,
			"-0.023": 0.0,
			"-0.022": 0.0,
			"-0.021": 0.0,
			"-0.02": 0.0,
			"-0.019": 0.0,
			"-0.018": 0.0,
			"-0.017": 0.0,
			"-0.016": 0.0,
			"-0.015": 0.0,
			"-0.014": 0.0,
			"-0.013": 0.0,
			"-0.012": 0.0,
			"-0.011": 0.0,
			"-0.01": 0.0,
			"-0.009": 0.0457393303512,
			"-0.008": 4.97780416213,
			"-0.007": 8.76307597257,
			"-0.006": 11.7912163245,
			"-0.005": 15.1777736791,
			"-0.004": 19.654689219,
			"-0.003": 19.364679497,
			"-0.002": 20.0837874182,
			"-0.001": 19.1798291338,
			"0.0": 20.2726481386,
			"0.001": 18.3957843169,
			"0.002": 16.2798220843,
			"0.003": 20.8698935996,
			"0.004": 12.5926213915,
			"0.005": 11.2033921039,
			"0.006": 13.0587035084,
			"0.007": 4.34445652184,
			"0.008": 1.31651225106,
			"0.009": 1.55031232271,
			"0.01": 1.69648817364,
			"0.011": 2.62764952964,
			"0.012": 3.68736663263,
			"0.013": 0.0516086403782,
			"0.014": 0.0,
			"0.015": 0.0,
			"0.016": 0.0,
			"0.017": 0.0,
			"0.018": 0.0,
			"0.019": 0.0,
			"0.02": 0.0,
			"0.021": 0.0,
			"0.022": 0.0,
			"0.023": 0.0,
			"0.024": 0.0,
			"0.025": 0.0
		}
	}
}
