{
	 "smiles": "COC1=CC=C(Cl)C=C1N", 
	 "Tm": 355.65, 
	 "num_atms": 18, 
	 "gaussian": { 
		 "optdone": 1, 
		 "sigma_profile": "yes", 
		 "theory": "DFT", 
		 "functional": "B3LYP", 
		 "basiset": "6-31G**", 
		 "properties": { 
			 "R2extent": 2612.25, 
			 "electric_dipole_moment_norm": 3.63705440845, 
			 "electric_quadrupole_moment_norm": 13.542166453, 
			 "total_energy": -861.725185211, 
			 "HOMO_LUMO_gap": 0.1994, 
			 "cosmo_polarized_energy": -9.01, 
			 "cosmo_cavitation_energy": 23.38, 
			 "cosmo_dispersion_energy": -17.72, 
			 "cosmo_repulsion_energy": 1.45, 
			 "cosmo_total_nonelectrostatic_energy": 7.1, 
			 "SMD_solvation_energy": 4.43 
		},
		"coords": [
			{
				"x": -0.7876842911,
				"y": 2.6856608311,
				"z": 1.0891341215,
				"element": "C" 
			},
			{
				"x": -0.5816347021,
				"y": 1.2838518708,
				"z": 1.043818924,
				"element": "O" 
			},
			{
				"x": -0.7596342168,
				"y": 0.6429603296,
				"z": -0.1575776649,
				"element": "C" 
			},
			{
				"x": -1.1296971421,
				"y": 1.2568920072,
				"z": -1.3492480702,
				"element": "C" 
			},
			{
				"x": -1.2982563571,
				"y": 0.5037136328,
				"z": -2.5194602285,
				"element": "C" 
			},
			{
				"x": -1.0910480299,
				"y": -0.8672796512,
				"z": -2.4622560439,
				"element": "C" 
			},
			{
				"x": -1.3019090182,
				"y": -1.8412662355,
				"z": -3.9164795325,
				"element": "Cl" 
			},
			{
				"x": -0.7182747718,
				"y": -1.5032584234,
				"z": -1.2768858398,
				"element": "C" 
			},
			{
				"x": -0.5440663924,
				"y": -0.7572159823,
				"z": -0.1076355848,
				"element": "C" 
			},
			{
				"x": -0.1194503915,
				"y": -1.3348212842,
				"z": 1.0835384303,
				"element": "N" 
			},
			{
				"x": -0.5982329146,
				"y": 2.9881573381,
				"z": 2.1202808031,
				"element": "H" 
			},
			{
				"x": -0.0936177968,
				"y": 3.2156089892,
				"z": 0.4243167714,
				"element": "H" 
			},
			{
				"x": -1.8175636526,
				"y": 2.9516637958,
				"z": 0.8172530209,
				"element": "H" 
			},
			{
				"x": -1.2961942118,
				"y": 2.3270674671,
				"z": -1.3858563649,
				"element": "H" 
			},
			{
				"x": -1.586575137,
				"y": 0.9825902435,
				"z": -3.4474264723,
				"element": "H" 
			},
			{
				"x": -0.5557811019,
				"y": -2.575952145,
				"z": -1.2619992374,
				"element": "H" 
			},
			{
				"x": -0.3102322817,
				"y": -0.7773380422,
				"z": 1.9042324615,
				"element": "H" 
			},
			{
				"x": -0.3460475907,
				"y": -2.3121347415,
				"z": 1.1984505065,
				"element": "H" 
			}
		],
		 "valence_orbital": [ 
			{
				"type": "occ",
				"energy": -0.32044,
				"method": "rhf"
			},
			{
				"type": "occ",
				"energy": -0.30142,
				"method": "rhf"
			},
			{
				"type": "occ",
				"energy": -0.29184,
				"method": "rhf"
			},
			{
				"type": "occ",
				"energy": -0.23118,
				"method": "rhf"
			},
			{
				"type": "occ",
				"energy": -0.19536,
				"method": "rhf"
			},
			{
				"type": "unocc",
				"energy": 0.00404,
				"method": "rhf"
			},
			{
				"type": "unocc",
				"energy": 0.01451,
				"method": "rhf"
			},
			{
				"type": "unocc",
				"energy": 0.03954,
				"method": "rhf"
			},
			{
				"type": "unocc",
				"energy": 0.08296,
				"method": "rhf"
			},
			{
				"type": "unocc",
				"energy": 0.09762,
				"method": "rhf"
			}
		],
		"cosmo_sigma_profile": { 
			"-0.025": 0.0,
			"-0.024": 0.0,
			"-0.023": 0.0,
			"-0.022": 0.0,
			"-0.021": 0.0,
			"-0.02": 0.0,
			"-0.019": 0.0,
			"-0.018": 0.0,
			"-0.017": 0.0,
			"-0.016": 0.0,
			"-0.015": 0.0,
			"-0.014": 0.0175332211724,
			"-0.013": 0.764874339391,
			"-0.012": 1.44304355797,
			"-0.011": 1.74910571254,
			"-0.01": 2.05499706964,
			"-0.009": 3.29436949597,
			"-0.008": 2.06962864808,
			"-0.007": 3.77829942486,
			"-0.006": 11.0122981169,
			"-0.005": 13.8545937513,
			"-0.004": 13.8433655024,
			"-0.003": 13.0182442712,
			"-0.002": 8.46341231034,
			"-0.001": 8.91163436788,
			"0.0": 9.24335070016,
			"0.001": 9.15887942894,
			"0.002": 11.1519055089,
			"0.003": 16.306270137,
			"0.004": 19.4392866733,
			"0.005": 22.3537403096,
			"0.006": 8.27185636523,
			"0.007": 2.29033871385,
			"0.008": 1.66082623436,
			"0.009": 0.735951238279,
			"0.01": 0.36015434591,
			"0.011": 1.19504941477,
			"0.012": 0.493570910025,
			"0.013": 0.571117242595,
			"0.014": 0.518655173388,
			"0.015": 0.0,
			"0.016": 0.0,
			"0.017": 0.0,
			"0.018": 0.0,
			"0.019": 0.0,
			"0.02": 0.0,
			"0.021": 0.0,
			"0.022": 0.0,
			"0.023": 0.0,
			"0.024": 0.0,
			"0.025": 0.0
		}
	}
}
