{
	 "smiles": "CCCC(NC(=O)NCC1=CC=C(Br)C=C1)C(O)=O", 
	 "Tm": 434.15, 
	 "num_atms": 36, 
	 "gaussian": { 
		 "optdone": 1, 
		 "sigma_profile": "yes", 
		 "theory": "DFT", 
		 "functional": "B3LYP", 
		 "basiset": "6-31G**", 
		 "properties": { 
			 "R2extent": 9759.0693, 
			 "electric_dipole_moment_norm": 1.87113387549, 
			 "electric_quadrupole_moment_norm": 21.4840029054, 
			 "total_energy": -3412.25983894, 
			 "HOMO_LUMO_gap": 0.21955, 
			 "cosmo_polarized_energy": -18.02, 
			 "cosmo_cavitation_energy": 41.94, 
			 "cosmo_dispersion_energy": -28.1, 
			 "cosmo_repulsion_energy": 2.23, 
			 "cosmo_total_nonelectrostatic_energy": 16.07, 
			 "SMD_solvation_energy": 7.01 
		},
		"coords": [
			{
				"x": 0.1521287229,
				"y": 2.2614476403,
				"z": -3.2921784721,
				"element": "C" 
			},
			{
				"x": 0.940328156,
				"y": 2.8111669106,
				"z": -2.0959719145,
				"element": "C" 
			},
			{
				"x": 2.2794645495,
				"y": 2.1185778032,
				"z": -1.8025398776,
				"element": "C" 
			},
			{
				"x": 2.205486041,
				"y": 0.6672079767,
				"z": -1.2600456502,
				"element": "C" 
			},
			{
				"x": 1.3690867851,
				"y": 0.5425526336,
				"z": -0.0764025037,
				"element": "N" 
			},
			{
				"x": 1.9321442043,
				"y": 0.8187331224,
				"z": 1.1517507373,
				"element": "C" 
			},
			{
				"x": 3.0572725886,
				"y": 1.2953983133,
				"z": 1.2801903684,
				"element": "O" 
			},
			{
				"x": 1.1367336294,
				"y": 0.5338278906,
				"z": 2.2509906331,
				"element": "N" 
			},
			{
				"x": -0.30620688,
				"y": 0.3427430312,
				"z": 2.2120809609,
				"element": "C" 
			},
			{
				"x": -0.7525836606,
				"y": -1.0680722733,
				"z": 1.8480135587,
				"element": "C" 
			},
			{
				"x": 0.0165652664,
				"y": -2.1859861844,
				"z": 2.1910639617,
				"element": "C" 
			},
			{
				"x": -0.4268260711,
				"y": -3.4766330606,
				"z": 1.9041675828,
				"element": "C" 
			},
			{
				"x": -1.6545601945,
				"y": -3.6483552894,
				"z": 1.2667334254,
				"element": "C" 
			},
			{
				"x": -2.2702188505,
				"y": -5.4142130757,
				"z": 0.8697770572,
				"element": "Br" 
			},
			{
				"x": -2.436750008,
				"y": -2.5527938816,
				"z": 0.9076889403,
				"element": "C" 
			},
			{
				"x": -1.9766098602,
				"y": -1.2684977808,
				"z": 1.1990281452,
				"element": "C" 
			},
			{
				"x": 1.7230636558,
				"y": -0.3501712541,
				"z": -2.2797127559,
				"element": "C" 
			},
			{
				"x": 2.4822751692,
				"y": -0.34792002,
				"z": -3.3936931997,
				"element": "O" 
			},
			{
				"x": 0.7819539267,
				"y": -1.1026902854,
				"z": -2.1260219617,
				"element": "O" 
			},
			{
				"x": 0.7671407546,
				"y": 2.2390494589,
				"z": -4.1989628994,
				"element": "H" 
			},
			{
				"x": -0.2164626015,
				"y": 1.2473000439,
				"z": -3.1105004006,
				"element": "H" 
			},
			{
				"x": -0.7216008865,
				"y": 2.8881557848,
				"z": -3.4996868846,
				"element": "H" 
			},
			{
				"x": 0.3160415259,
				"y": 2.7716626237,
				"z": -1.1953475226,
				"element": "H" 
			},
			{
				"x": 1.1540531092,
				"y": 3.8731129041,
				"z": -2.2701412854,
				"element": "H" 
			},
			{
				"x": 2.9117784014,
				"y": 2.1131403649,
				"z": -2.69772833,
				"element": "H" 
			},
			{
				"x": 2.8146606062,
				"y": 2.6856233897,
				"z": -1.0348320984,
				"element": "H" 
			},
			{
				"x": 3.235297802,
				"y": 0.3858311214,
				"z": -1.0004534552,
				"element": "H" 
			},
			{
				"x": 0.6369198096,
				"y": -0.155744422,
				"z": -0.1476377909,
				"element": "H" 
			},
			{
				"x": 1.5422706912,
				"y": 0.898302679,
				"z": 3.1001088421,
				"element": "H" 
			},
			{
				"x": -0.6852174402,
				"y": 0.587567236,
				"z": 3.2111608802,
				"element": "H" 
			},
			{
				"x": -0.7732968817,
				"y": 1.0576298131,
				"z": 1.5208892282,
				"element": "H" 
			},
			{
				"x": 0.9764520391,
				"y": -2.0406120839,
				"z": 2.6769965218,
				"element": "H" 
			},
			{
				"x": 0.1743847168,
				"y": -4.3386732182,
				"z": 2.1702016067,
				"element": "H" 
			},
			{
				"x": -3.3838757714,
				"y": -2.6995546039,
				"z": 0.4013346887,
				"element": "H" 
			},
			{
				"x": -2.5830773758,
				"y": -0.4122263815,
				"z": 0.9130990142,
				"element": "H" 
			},
			{
				"x": 2.110684331,
				"y": -1.0282869268,
				"z": -3.9801191506,
				"element": "H" 
			}
		],
		 "valence_orbital": [ 
			{
				"type": "occ",
				"energy": -0.26661,
				"method": "rhf"
			},
			{
				"type": "occ",
				"energy": -0.26038,
				"method": "rhf"
			},
			{
				"type": "occ",
				"energy": -0.25414,
				"method": "rhf"
			},
			{
				"type": "occ",
				"energy": -0.25195,
				"method": "rhf"
			},
			{
				"type": "occ",
				"energy": -0.23936,
				"method": "rhf"
			},
			{
				"type": "unocc",
				"energy": -0.01981,
				"method": "rhf"
			},
			{
				"type": "unocc",
				"energy": -0.01789,
				"method": "rhf"
			},
			{
				"type": "unocc",
				"energy": -0.00191,
				"method": "rhf"
			},
			{
				"type": "unocc",
				"energy": 0.00701,
				"method": "rhf"
			},
			{
				"type": "unocc",
				"energy": 0.05473,
				"method": "rhf"
			}
		],
		"cosmo_sigma_profile": { 
			"-0.025": 0.0,
			"-0.024": 0.0,
			"-0.023": 0.0,
			"-0.022": 0.0,
			"-0.021": 0.0,
			"-0.02": 0.0,
			"-0.019": 0.148417989642,
			"-0.018": 1.16959508603,
			"-0.017": 0.845928885554,
			"-0.016": 0.61313757099,
			"-0.015": 0.767324472892,
			"-0.014": 1.28544771934,
			"-0.013": 1.8668466402,
			"-0.012": 1.82104239627,
			"-0.011": 2.16654931748,
			"-0.01": 1.72709208588,
			"-0.009": 1.16578085948,
			"-0.008": 2.46222971386,
			"-0.007": 8.16386496253,
			"-0.006": 14.4853738002,
			"-0.005": 15.9736435827,
			"-0.004": 15.8263406753,
			"-0.003": 21.3543455657,
			"-0.002": 28.4993823187,
			"-0.001": 34.8393601272,
			"0.0": 32.7697180614,
			"0.001": 31.1840700634,
			"0.002": 25.074894171,
			"0.003": 21.4722925946,
			"0.004": 21.865991581,
			"0.005": 12.1055709758,
			"0.006": 3.60956154876,
			"0.007": 4.15667821198,
			"0.008": 3.97479000446,
			"0.009": 3.54754473457,
			"0.01": 3.27367121993,
			"0.011": 4.06706683292,
			"0.012": 2.53842210178,
			"0.013": 1.68034776395,
			"0.014": 4.81482901077,
			"0.015": 2.38016320285,
			"0.016": 0.0104650179181,
			"0.017": 0.0,
			"0.018": 0.0,
			"0.019": 0.0,
			"0.02": 0.0,
			"0.021": 0.0,
			"0.022": 0.0,
			"0.023": 0.0,
			"0.024": 0.0,
			"0.025": 0.0
		}
	}
}
