{
	 "smiles": "COCCOCCOCCOC", 
	 "Tm": 228.15, 
	 "num_atms": 30, 
	 "gaussian": { 
		 "optdone": 1, 
		 "sigma_profile": "yes", 
		 "theory": "DFT", 
		 "functional": "B3LYP", 
		 "basiset": "6-31G**", 
		 "properties": { 
			 "R2extent": 3560.3158, 
			 "electric_dipole_moment_norm": 3.50874898076, 
			 "electric_quadrupole_moment_norm": 9.17760732217, 
			 "total_energy": -616.525352101, 
			 "HOMO_LUMO_gap": 0.31672, 
			 "cosmo_polarized_energy": -13.14, 
			 "cosmo_cavitation_energy": 32.36, 
			 "cosmo_dispersion_energy": -22.16, 
			 "cosmo_repulsion_energy": 1.84, 
			 "cosmo_total_nonelectrostatic_energy": 12.04, 
			 "SMD_solvation_energy": 6.62 
		},
		"coords": [
			{
				"x": 0.3491754882,
				"y": -4.5942767703,
				"z": -0.7462184874,
				"element": "C" 
			},
			{
				"x": -0.7159033197,
				"y": -3.6776238026,
				"z": -0.6223569435,
				"element": "O" 
			},
			{
				"x": -0.3567897052,
				"y": -2.3302872428,
				"z": -0.8637542292,
				"element": "C" 
			},
			{
				"x": 0.3948851373,
				"y": -1.651881697,
				"z": 0.2762312869,
				"element": "C" 
			},
			{
				"x": -0.4798216074,
				"y": -1.52867653,
				"z": 1.3796616708,
				"element": "O" 
			},
			{
				"x": 0.1354047813,
				"y": -1.1292202942,
				"z": 2.5882011918,
				"element": "C" 
			},
			{
				"x": 0.7121423005,
				"y": 0.2811256328,
				"z": 2.5803431067,
				"element": "C" 
			},
			{
				"x": -0.3492414466,
				"y": 1.205027872,
				"z": 2.3865656736,
				"element": "O" 
			},
			{
				"x": 0.0607018265,
				"y": 2.532174296,
				"z": 2.1178375477,
				"element": "C" 
			},
			{
				"x": 0.2405789622,
				"y": 2.8188883663,
				"z": 0.6333716216,
				"element": "C" 
			},
			{
				"x": 1.3909151208,
				"y": 2.1490620929,
				"z": 0.142951462,
				"element": "O" 
			},
			{
				"x": 1.6235330871,
				"y": 2.3986006305,
				"z": -1.228210203,
				"element": "C" 
			},
			{
				"x": 1.1268665646,
				"y": -4.4555483006,
				"z": 0.0198569901,
				"element": "H" 
			},
			{
				"x": 0.8294283613,
				"y": -4.5309249051,
				"z": -1.7368215828,
				"element": "H" 
			},
			{
				"x": -0.0745982205,
				"y": -5.5945239326,
				"z": -0.625591241,
				"element": "H" 
			},
			{
				"x": -1.2968302978,
				"y": -1.7925530944,
				"z": -1.0235348813,
				"element": "H" 
			},
			{
				"x": 0.2481735995,
				"y": -2.2472529802,
				"z": -1.7835248103,
				"element": "H" 
			},
			{
				"x": 0.7401852922,
				"y": -0.6667470711,
				"z": -0.0764018885,
				"element": "H" 
			},
			{
				"x": 1.29295446,
				"y": -2.230966176,
				"z": 0.5530610411,
				"element": "H" 
			},
			{
				"x": -0.6465742832,
				"y": -1.1938237578,
				"z": 3.351238445,
				"element": "H" 
			},
			{
				"x": 0.9448432008,
				"y": -1.8279541943,
				"z": 2.8653994073,
				"element": "H" 
			},
			{
				"x": 1.4721062813,
				"y": 0.3918956364,
				"z": 1.7986244409,
				"element": "H" 
			},
			{
				"x": 1.207097862,
				"y": 0.4580812839,
				"z": 3.5517374364,
				"element": "H" 
			},
			{
				"x": -0.733029643,
				"y": 3.1896014283,
				"z": 2.4934986668,
				"element": "H" 
			},
			{
				"x": 0.9875133028,
				"y": 2.7834504413,
				"z": 2.6558671599,
				"element": "H" 
			},
			{
				"x": -0.6591339221,
				"y": 2.4892879759,
				"z": 0.0895408247,
				"element": "H" 
			},
			{
				"x": 0.3425751383,
				"y": 3.9092200973,
				"z": 0.4875900935,
				"element": "H" 
			},
			{
				"x": 2.5260982957,
				"y": 1.8517508759,
				"z": -1.5115545469,
				"element": "H" 
			},
			{
				"x": 0.786211175,
				"y": 2.0549643346,
				"z": -1.8552508038,
				"element": "H" 
			},
			{
				"x": 1.7818322081,
				"y": 3.470929785,
				"z": -1.4239584492,
				"element": "H" 
			}
		],
		 "valence_orbital": [ 
			{
				"type": "occ",
				"energy": -0.29376,
				"method": "rhf"
			},
			{
				"type": "occ",
				"energy": -0.26302,
				"method": "rhf"
			},
			{
				"type": "occ",
				"energy": -0.24667,
				"method": "rhf"
			},
			{
				"type": "occ",
				"energy": -0.24539,
				"method": "rhf"
			},
			{
				"type": "occ",
				"energy": -0.24386,
				"method": "rhf"
			},
			{
				"type": "unocc",
				"energy": 0.07286,
				"method": "rhf"
			},
			{
				"type": "unocc",
				"energy": 0.09456,
				"method": "rhf"
			},
			{
				"type": "unocc",
				"energy": 0.10844,
				"method": "rhf"
			},
			{
				"type": "unocc",
				"energy": 0.11611,
				"method": "rhf"
			},
			{
				"type": "unocc",
				"energy": 0.12489,
				"method": "rhf"
			}
		],
		"cosmo_sigma_profile": { 
			"-0.025": 0.0,
			"-0.024": 0.0,
			"-0.023": 0.0,
			"-0.022": 0.0,
			"-0.021": 0.0,
			"-0.02": 0.0,
			"-0.019": 0.0,
			"-0.018": 0.0,
			"-0.017": 0.0,
			"-0.016": 0.0,
			"-0.015": 0.0,
			"-0.014": 0.0,
			"-0.013": 0.0,
			"-0.012": 0.0,
			"-0.011": 0.0,
			"-0.01": 0.0,
			"-0.009": 0.0,
			"-0.008": 0.0,
			"-0.007": 0.0,
			"-0.006": 0.183862842638,
			"-0.005": 9.95023914863,
			"-0.004": 46.9915082494,
			"-0.003": 49.9711109167,
			"-0.002": 39.2963186063,
			"-0.001": 21.4875936762,
			"0.0": 11.1943453336,
			"0.001": 7.31115539151,
			"0.002": 7.36698089305,
			"0.003": 6.25203419758,
			"0.004": 6.46558065391,
			"0.005": 4.74082248051,
			"0.006": 4.8900065143,
			"0.007": 4.45776475559,
			"0.008": 4.12068875078,
			"0.009": 3.64284354797,
			"0.01": 2.93335308682,
			"0.011": 4.99262692964,
			"0.012": 4.15613393085,
			"0.013": 5.29962224718,
			"0.014": 4.20369165796,
			"0.015": 0.746550599833,
			"0.016": 0.0,
			"0.017": 0.0,
			"0.018": 0.0,
			"0.019": 0.0,
			"0.02": 0.0,
			"0.021": 0.0,
			"0.022": 0.0,
			"0.023": 0.0,
			"0.024": 0.0,
			"0.025": 0.0
		}
	}
}
