{
	 "smiles": "O=S(=O)(N1CCOCC1)C1=CC=C(C=C1)C#N", 
	 "Tm": 432.15, 
	 "num_atms": 29, 
	 "gaussian": { 
		 "optdone": 1, 
		 "sigma_profile": "yes", 
		 "theory": "DFT", 
		 "functional": "B3LYP", 
		 "basiset": "6-31G**", 
		 "properties": { 
			 "R2extent": 4954.1361, 
			 "electric_dipole_moment_norm": 3.01150996346, 
			 "electric_quadrupole_moment_norm": 27.905550707, 
			 "total_energy": -1159.65468925, 
			 "HOMO_LUMO_gap": 0.16786, 
			 "cosmo_polarized_energy": -19.35, 
			 "cosmo_cavitation_energy": 34.53, 
			 "cosmo_dispersion_energy": -24.0, 
			 "cosmo_repulsion_energy": 1.81, 
			 "cosmo_total_nonelectrostatic_energy": 12.34, 
			 "SMD_solvation_energy": 5.61 
		},
		"coords": [
			{
				"x": -1.618816318,
				"y": 0.9090351434,
				"z": -1.1042669165,
				"element": "O" 
			},
			{
				"x": -0.6602098431,
				"y": -0.1830674384,
				"z": -0.9280693314,
				"element": "S" 
			},
			{
				"x": -0.5561565054,
				"y": -1.3106072354,
				"z": -1.855701587,
				"element": "O" 
			},
			{
				"x": 0.847594721,
				"y": 0.5179121089,
				"z": -0.8665933255,
				"element": "N" 
			},
			{
				"x": 2.0757767007,
				"y": -0.2717497278,
				"z": -1.0320385549,
				"element": "C" 
			},
			{
				"x": 2.8981133994,
				"y": -0.247203384,
				"z": 0.2581415976,
				"element": "C" 
			},
			{
				"x": 3.1400442012,
				"y": 1.0879633021,
				"z": 0.6840448833,
				"element": "O" 
			},
			{
				"x": 1.9267937071,
				"y": 1.7813657977,
				"z": 0.9482657651,
				"element": "C" 
			},
			{
				"x": 1.0546877531,
				"y": 1.860576438,
				"z": -0.3065402987,
				"element": "C" 
			},
			{
				"x": -1.0001062623,
				"y": -0.8957839502,
				"z": 0.6972163799,
				"element": "C" 
			},
			{
				"x": -1.6294904085,
				"y": -0.1152429506,
				"z": 1.6709337466,
				"element": "C" 
			},
			{
				"x": -1.8597062292,
				"y": -0.6517384862,
				"z": 2.9341612496,
				"element": "C" 
			},
			{
				"x": -1.4645549922,
				"y": -1.9705821684,
				"z": 3.2173488187,
				"element": "C" 
			},
			{
				"x": -0.8513915869,
				"y": -2.753220727,
				"z": 2.2237407454,
				"element": "C" 
			},
			{
				"x": -0.6218553537,
				"y": -2.2151980867,
				"z": 0.9610355596,
				"element": "C" 
			},
			{
				"x": -1.6982718802,
				"y": -2.5231326625,
				"z": 4.5204402861,
				"element": "C" 
			},
			{
				"x": -1.8842486585,
				"y": -2.9696664398,
				"z": 5.5780315617,
				"element": "N" 
			},
			{
				"x": 1.8157939671,
				"y": -1.287943435,
				"z": -1.3329607945,
				"element": "H" 
			},
			{
				"x": 2.6581069494,
				"y": 0.1793009605,
				"z": -1.8460782062,
				"element": "H" 
			},
			{
				"x": 2.3739529637,
				"y": -0.8096554575,
				"z": 1.0483367951,
				"element": "H" 
			},
			{
				"x": 3.8784496088,
				"y": -0.7050810369,
				"z": 0.096627131,
				"element": "H" 
			},
			{
				"x": 2.2078037152,
				"y": 2.7840611881,
				"z": 1.2835892911,
				"element": "H" 
			},
			{
				"x": 1.3723733561,
				"y": 1.2823735323,
				"z": 1.7601181013,
				"element": "H" 
			},
			{
				"x": 1.5622389189,
				"y": 2.4675280482,
				"z": -1.0676030904,
				"element": "H" 
			},
			{
				"x": 0.0869072055,
				"y": 2.322467173,
				"z": -0.1043874849,
				"element": "H" 
			},
			{
				"x": -1.9570107469,
				"y": 0.8892919135,
				"z": 1.4276658801,
				"element": "H" 
			},
			{
				"x": -2.3511655965,
				"y": -0.0621136703,
				"z": 3.7004790944,
				"element": "H" 
			},
			{
				"x": -0.5687767808,
				"y": -3.7768042813,
				"z": 2.4447326019,
				"element": "H" 
			},
			{
				"x": -0.178776005,
				"y": -2.8163844678,
				"z": 0.1750301014,
				"element": "H" 
			}
		],
		 "valence_orbital": [ 
			{
				"type": "occ",
				"energy": -0.31654,
				"method": "rhf"
			},
			{
				"type": "occ",
				"energy": -0.30133,
				"method": "rhf"
			},
			{
				"type": "occ",
				"energy": -0.29746,
				"method": "rhf"
			},
			{
				"type": "occ",
				"energy": -0.28738,
				"method": "rhf"
			},
			{
				"type": "occ",
				"energy": -0.24918,
				"method": "rhf"
			},
			{
				"type": "unocc",
				"energy": -0.08132,
				"method": "rhf"
			},
			{
				"type": "unocc",
				"energy": -0.04747,
				"method": "rhf"
			},
			{
				"type": "unocc",
				"energy": 0.02157,
				"method": "rhf"
			},
			{
				"type": "unocc",
				"energy": 0.03346,
				"method": "rhf"
			},
			{
				"type": "unocc",
				"energy": 0.04098,
				"method": "rhf"
			}
		],
		"cosmo_sigma_profile": { 
			"-0.025": 0.0,
			"-0.024": 0.0,
			"-0.023": 0.0,
			"-0.022": 0.0,
			"-0.021": 0.0,
			"-0.02": 0.0,
			"-0.019": 0.0,
			"-0.018": 0.0,
			"-0.017": 0.0,
			"-0.016": 0.0,
			"-0.015": 0.0,
			"-0.014": 0.0,
			"-0.013": 0.0,
			"-0.012": 0.0,
			"-0.011": 0.0,
			"-0.01": 0.0,
			"-0.009": 2.9364281536,
			"-0.008": 8.45058061433,
			"-0.007": 10.9186860485,
			"-0.006": 19.7665086557,
			"-0.005": 26.9460081515,
			"-0.004": 24.1257625629,
			"-0.003": 27.1950032024,
			"-0.002": 19.5074734927,
			"-0.001": 17.4222491783,
			"0.0": 19.7469091872,
			"0.001": 9.58711392328,
			"0.002": 7.90209035175,
			"0.003": 7.69673825843,
			"0.004": 6.74008629811,
			"0.005": 7.0763672842,
			"0.006": 6.79837719707,
			"0.007": 7.97336646104,
			"0.008": 7.08519574422,
			"0.009": 8.75704834781,
			"0.01": 10.4810745576,
			"0.011": 11.7354888978,
			"0.012": 4.85598860754,
			"0.013": 2.03598686407,
			"0.014": 0.0,
			"0.015": 0.0,
			"0.016": 0.0,
			"0.017": 0.0,
			"0.018": 0.0,
			"0.019": 0.0,
			"0.02": 0.0,
			"0.021": 0.0,
			"0.022": 0.0,
			"0.023": 0.0,
			"0.024": 0.0,
			"0.025": 0.0
		}
	}
}
