{
	 "smiles": "OCCC1=CC=CC=C1C(F)(F)F", 
	 "Tm": 275.65, 
	 "num_atms": 22, 
	 "gaussian": { 
		 "optdone": 1, 
		 "sigma_profile": "yes", 
		 "theory": "DFT", 
		 "functional": "B3LYP", 
		 "basiset": "6-31G**", 
		 "properties": { 
			 "R2extent": 2702.8278, 
			 "electric_dipole_moment_norm": 3.48719813461, 
			 "electric_quadrupole_moment_norm": 8.20466189127, 
			 "total_energy": -723.127231331, 
			 "HOMO_LUMO_gap": 0.22308, 
			 "cosmo_polarized_energy": -7.75, 
			 "cosmo_cavitation_energy": 25.78, 
			 "cosmo_dispersion_energy": -18.65, 
			 "cosmo_repulsion_energy": 1.42, 
			 "cosmo_total_nonelectrostatic_energy": 8.55, 
			 "SMD_solvation_energy": 5.18 
		},
		"coords": [
			{
				"x": 0.2013115747,
				"y": 3.0010470032,
				"z": -1.2842728779,
				"element": "O" 
			},
			{
				"x": 1.251084995,
				"y": 2.4928114413,
				"z": -0.4860704168,
				"element": "C" 
			},
			{
				"x": 0.7803707439,
				"y": 1.8011755427,
				"z": 0.8103711594,
				"element": "C" 
			},
			{
				"x": 0.1746646701,
				"y": 0.4256457283,
				"z": 0.5802769431,
				"element": "C" 
			},
			{
				"x": 1.0412912243,
				"y": -0.6276669338,
				"z": 0.2503899136,
				"element": "C" 
			},
			{
				"x": 0.5762075317,
				"y": -1.9169634667,
				"z": 0.0025289767,
				"element": "C" 
			},
			{
				"x": -0.7891773792,
				"y": -2.189672161,
				"z": 0.0827932835,
				"element": "C" 
			},
			{
				"x": -1.6721134714,
				"y": -1.1656010998,
				"z": 0.4129209476,
				"element": "C" 
			},
			{
				"x": -1.202826075,
				"y": 0.1307258066,
				"z": 0.6588092191,
				"element": "C" 
			},
			{
				"x": -2.2106337707,
				"y": 1.1968487441,
				"z": 1.0119355631,
				"element": "C" 
			},
			{
				"x": -3.4707941336,
				"y": 0.7172724547,
				"z": 1.0615294772,
				"element": "F" 
			},
			{
				"x": -1.960275898,
				"y": 1.7649794141,
				"z": 2.2151542073,
				"element": "F" 
			},
			{
				"x": -2.2143313765,
				"y": 2.2062928363,
				"z": 0.1010954125,
				"element": "F" 
			},
			{
				"x": -0.479317098,
				"y": 2.3210279297,
				"z": -1.3667059018,
				"element": "H" 
			},
			{
				"x": 1.8692329137,
				"y": 3.3569656795,
				"z": -0.2198920334,
				"element": "H" 
			},
			{
				"x": 1.8914838263,
				"y": 1.7976298981,
				"z": -1.0548309623,
				"element": "H" 
			},
			{
				"x": 1.6569904509,
				"y": 1.6788089784,
				"z": 1.4585890303,
				"element": "H" 
			},
			{
				"x": 0.092601833,
				"y": 2.4675133957,
				"z": 1.3319871859,
				"element": "H" 
			},
			{
				"x": 2.1079977114,
				"y": -0.4257784516,
				"z": 0.1961137628,
				"element": "H" 
			},
			{
				"x": 1.2790921412,
				"y": -2.7065842301,
				"z": -0.2467617712,
				"element": "H" 
			},
			{
				"x": -1.1649061803,
				"y": -3.1906891865,
				"z": -0.1044977077,
				"element": "H" 
			},
			{
				"x": -2.7346542335,
				"y": -1.3648893232,
				"z": 0.4839365888,
				"element": "H" 
			}
		],
		 "valence_orbital": [ 
			{
				"type": "occ",
				"energy": -0.35089,
				"method": "rhf"
			},
			{
				"type": "occ",
				"energy": -0.32404,
				"method": "rhf"
			},
			{
				"type": "occ",
				"energy": -0.27411,
				"method": "rhf"
			},
			{
				"type": "occ",
				"energy": -0.2685,
				"method": "rhf"
			},
			{
				"type": "occ",
				"energy": -0.25484,
				"method": "rhf"
			},
			{
				"type": "unocc",
				"energy": -0.03176,
				"method": "rhf"
			},
			{
				"type": "unocc",
				"energy": -0.02261,
				"method": "rhf"
			},
			{
				"type": "unocc",
				"energy": 0.0854,
				"method": "rhf"
			},
			{
				"type": "unocc",
				"energy": 0.10042,
				"method": "rhf"
			},
			{
				"type": "unocc",
				"energy": 0.11242,
				"method": "rhf"
			}
		],
		"cosmo_sigma_profile": { 
			"-0.025": 0.0,
			"-0.024": 0.0,
			"-0.023": 0.0,
			"-0.022": 0.0,
			"-0.021": 0.0,
			"-0.02": 0.0,
			"-0.019": 0.0,
			"-0.018": 0.0,
			"-0.017": 0.0,
			"-0.016": 0.0,
			"-0.015": 0.0,
			"-0.014": 0.0,
			"-0.013": 0.0242185684309,
			"-0.012": 0.496759106488,
			"-0.011": 0.615688529997,
			"-0.01": 0.572636196414,
			"-0.009": 1.01234121214,
			"-0.008": 0.885854982934,
			"-0.007": 2.80950208605,
			"-0.006": 10.4308946568,
			"-0.005": 14.0993869283,
			"-0.004": 17.1631067888,
			"-0.003": 14.2107205019,
			"-0.002": 19.3481702105,
			"-0.001": 15.0261746607,
			"0.0": 13.4319872448,
			"0.001": 15.2536598452,
			"0.002": 25.5818064757,
			"0.003": 27.2545162184,
			"0.004": 9.9236036171,
			"0.005": 2.65152988562,
			"0.006": 1.46800723,
			"0.007": 1.41382129503,
			"0.008": 1.61199974964,
			"0.009": 1.21349655916,
			"0.01": 1.33732945884,
			"0.011": 0.836722816536,
			"0.012": 1.29630811546,
			"0.013": 2.02533301007,
			"0.014": 2.05900265153,
			"0.015": 0.826369105508,
			"0.016": 0.0,
			"0.017": 0.0,
			"0.018": 0.0,
			"0.019": 0.0,
			"0.02": 0.0,
			"0.021": 0.0,
			"0.022": 0.0,
			"0.023": 0.0,
			"0.024": 0.0,
			"0.025": 0.0
		}
	}
}
