{
	 "smiles": "CC1=C(C)C(=O)N=C(N1)C1=CC(Cl)=NC=C1", 
	 "Tm": 527.15, 
	 "num_atms": 26, 
	 "gaussian": { 
		 "optdone": 1, 
		 "sigma_profile": "yes", 
		 "theory": "DFT", 
		 "functional": "B3LYP", 
		 "basiset": "6-31G**", 
		 "properties": { 
			 "R2extent": 6130.996, 
			 "electric_dipole_moment_norm": 5.67708975532, 
			 "electric_quadrupole_moment_norm": 18.8924140276, 
			 "total_energy": -1124.87996293, 
			 "HOMO_LUMO_gap": 0.15848, 
			 "cosmo_polarized_energy": -25.61, 
			 "cosmo_cavitation_energy": 32.29, 
			 "cosmo_dispersion_energy": -23.82, 
			 "cosmo_repulsion_energy": 1.85, 
			 "cosmo_total_nonelectrostatic_energy": 10.31, 
			 "SMD_solvation_energy": 3.31 
		},
		"coords": [
			{
				"x": -0.9742572789,
				"y": -1.5464671709,
				"z": -1.8092030003,
				"element": "C" 
			},
			{
				"x": -0.8376753871,
				"y": -0.2257905184,
				"z": -1.1041995279,
				"element": "C" 
			},
			{
				"x": -1.7729076718,
				"y": 0.7548333517,
				"z": -0.9856609924,
				"element": "C" 
			},
			{
				"x": -3.164716757,
				"y": 0.7071090329,
				"z": -1.5454027692,
				"element": "C" 
			},
			{
				"x": -1.4229297671,
				"y": 2.0050761029,
				"z": -0.269773734,
				"element": "C" 
			},
			{
				"x": -2.2189014212,
				"y": 2.9316147488,
				"z": -0.1789331408,
				"element": "O" 
			},
			{
				"x": -0.1424158211,
				"y": 2.1024254133,
				"z": 0.310357245,
				"element": "N" 
			},
			{
				"x": 0.6956514676,
				"y": 1.1247461328,
				"z": 0.1742999955,
				"element": "C" 
			},
			{
				"x": 0.4054522658,
				"y": -0.0258558509,
				"z": -0.5096329484,
				"element": "N" 
			},
			{
				"x": 2.0509115658,
				"y": 1.2372827037,
				"z": 0.7836277619,
				"element": "C" 
			},
			{
				"x": 2.8483456511,
				"y": 0.1242904192,
				"z": 1.0663207765,
				"element": "C" 
			},
			{
				"x": 4.1060942885,
				"y": 0.3534496351,
				"z": 1.631595972,
				"element": "C" 
			},
			{
				"x": 5.120804645,
				"y": -1.0418069899,
				"z": 1.9911981843,
				"element": "Cl" 
			},
			{
				"x": 4.5981309555,
				"y": 1.5406030324,
				"z": 1.9242404185,
				"element": "N" 
			},
			{
				"x": 3.817606602,
				"y": 2.6030429526,
				"z": 1.6627651956,
				"element": "C" 
			},
			{
				"x": 2.5499788111,
				"y": 2.5084614789,
				"z": 1.1015926942,
				"element": "C" 
			},
			{
				"x": -0.8839889461,
				"y": -2.3783593207,
				"z": -1.100122551,
				"element": "H" 
			},
			{
				"x": -1.9338763428,
				"y": -1.6372164313,
				"z": -2.3142896777,
				"element": "H" 
			},
			{
				"x": -0.1865948034,
				"y": -1.6671318021,
				"z": -2.5632699081,
				"element": "H" 
			},
			{
				"x": -3.4064420281,
				"y": -0.2383995115,
				"z": -2.0332233653,
				"element": "H" 
			},
			{
				"x": -3.3069545748,
				"y": 1.5221734098,
				"z": -2.2628195357,
				"element": "H" 
			},
			{
				"x": -3.8895544295,
				"y": 0.8861221289,
				"z": -0.7447027337,
				"element": "H" 
			},
			{
				"x": 1.1352231494,
				"y": -0.7032006707,
				"z": -0.6758145742,
				"element": "H" 
			},
			{
				"x": 2.5161880855,
				"y": -0.8944191124,
				"z": 0.9021567793,
				"element": "H" 
			},
			{
				"x": 4.2386965036,
				"y": 3.5724588643,
				"z": 1.9173393285,
				"element": "H" 
			},
			{
				"x": 1.940531238,
				"y": 3.3832579715,
				"z": 0.9103541075,
				"element": "H" 
			}
		],
		 "valence_orbital": [ 
			{
				"type": "occ",
				"energy": -0.28656,
				"method": "rhf"
			},
			{
				"type": "occ",
				"energy": -0.28209,
				"method": "rhf"
			},
			{
				"type": "occ",
				"energy": -0.27158,
				"method": "rhf"
			},
			{
				"type": "occ",
				"energy": -0.23853,
				"method": "rhf"
			},
			{
				"type": "occ",
				"energy": -0.23777,
				"method": "rhf"
			},
			{
				"type": "unocc",
				"energy": -0.07929,
				"method": "rhf"
			},
			{
				"type": "unocc",
				"energy": -0.03923,
				"method": "rhf"
			},
			{
				"type": "unocc",
				"energy": -0.0249,
				"method": "rhf"
			},
			{
				"type": "unocc",
				"energy": 0.00734,
				"method": "rhf"
			},
			{
				"type": "unocc",
				"energy": 0.02168,
				"method": "rhf"
			}
		],
		"cosmo_sigma_profile": { 
			"-0.025": 0.0,
			"-0.024": 0.0,
			"-0.023": 0.0,
			"-0.022": 0.0,
			"-0.021": 0.0,
			"-0.02": 0.0,
			"-0.019": 0.0,
			"-0.018": 0.380135360596,
			"-0.017": 1.12460317806,
			"-0.016": 1.44843484941,
			"-0.015": 1.01555946358,
			"-0.014": 1.60432529881,
			"-0.013": 1.88087025675,
			"-0.012": 0.801685857999,
			"-0.011": 2.40019372305,
			"-0.01": 1.96665102587,
			"-0.009": 1.4288743484,
			"-0.008": 4.66106251312,
			"-0.007": 8.80999984415,
			"-0.006": 11.8822396805,
			"-0.005": 11.2711961148,
			"-0.004": 14.5975981102,
			"-0.003": 18.341952025,
			"-0.002": 27.4824656712,
			"-0.001": 28.6215652869,
			"0.0": 27.6134627486,
			"0.001": 14.7516893926,
			"0.002": 9.43110419239,
			"0.003": 10.3858181028,
			"0.004": 11.8117518097,
			"0.005": 6.52766623624,
			"0.006": 4.5552527114,
			"0.007": 3.84613599409,
			"0.008": 2.71714102914,
			"0.009": 3.10333758982,
			"0.01": 3.25045284121,
			"0.011": 3.24427064339,
			"0.012": 3.22658026239,
			"0.013": 3.47789845561,
			"0.014": 6.20360502902,
			"0.015": 4.08960599835,
			"0.016": 2.0909009612,
			"0.017": 1.07454545646,
			"0.018": 5.91731975071e-05,
			"0.019": 0.0,
			"0.02": 0.0,
			"0.021": 0.0,
			"0.022": 0.0,
			"0.023": 0.0,
			"0.024": 0.0,
			"0.025": 0.0
		}
	}
}
