{
	 "smiles": "OC1=CC2=CC=C(C=C2C=C1)S(O)(=O)=O", 
	 "Tm": 398.15, 
	 "num_atms": 23, 
	 "gaussian": { 
		 "optdone": 1, 
		 "sigma_profile": "yes", 
		 "theory": "DFT", 
		 "functional": "B3LYP", 
		 "basiset": "6-31G**", 
		 "properties": { 
			 "R2extent": 5570.614, 
			 "electric_dipole_moment_norm": 6.11603033756, 
			 "electric_quadrupole_moment_norm": 22.3683221311, 
			 "total_energy": -1084.90591187, 
			 "HOMO_LUMO_gap": 0.16686, 
			 "cosmo_polarized_energy": -19.59, 
			 "cosmo_cavitation_energy": 29.14, 
			 "cosmo_dispersion_energy": -22.27, 
			 "cosmo_repulsion_energy": 1.67, 
			 "cosmo_total_nonelectrostatic_energy": 8.54, 
			 "SMD_solvation_energy": 4.12 
		},
		"coords": [
			{
				"x": 3.578040093,
				"y": -1.0395717062,
				"z": 1.2823655773,
				"element": "O" 
			},
			{
				"x": 2.4877754401,
				"y": -0.2711316784,
				"z": 1.0073695391,
				"element": "C" 
			},
			{
				"x": 1.2699096542,
				"y": -0.6569892788,
				"z": 1.5341578981,
				"element": "C" 
			},
			{
				"x": 0.1061385188,
				"y": 0.1045894467,
				"z": 1.2786731543,
				"element": "C" 
			},
			{
				"x": -1.164927128,
				"y": -0.2579003514,
				"z": 1.8120738774,
				"element": "C" 
			},
			{
				"x": -2.2847852241,
				"y": 0.4947263555,
				"z": 1.557802047,
				"element": "C" 
			},
			{
				"x": -2.171850754,
				"y": 1.6488057858,
				"z": 0.740724262,
				"element": "C" 
			},
			{
				"x": -0.9665267778,
				"y": 2.0448049453,
				"z": 0.2065832473,
				"element": "C" 
			},
			{
				"x": 0.2004936471,
				"y": 1.2833917244,
				"z": 0.4652042739,
				"element": "C" 
			},
			{
				"x": 1.4684108506,
				"y": 1.6515863679,
				"z": -0.0570561804,
				"element": "C" 
			},
			{
				"x": 2.5862527261,
				"y": 0.8957688012,
				"z": 0.2040081492,
				"element": "C" 
			},
			{
				"x": -3.6261150643,
				"y": 2.6195144174,
				"z": 0.4086459863,
				"element": "S" 
			},
			{
				"x": -4.4093128555,
				"y": 1.6969937059,
				"z": -0.7108750614,
				"element": "O" 
			},
			{
				"x": -3.2409673716,
				"y": 3.8559989714,
				"z": -0.2748542039,
				"element": "O" 
			},
			{
				"x": -4.4690686198,
				"y": 2.6200010962,
				"z": 1.5947316615,
				"element": "O" 
			},
			{
				"x": 4.3584149595,
				"y": -0.6572167636,
				"z": 0.8606990386,
				"element": "H" 
			},
			{
				"x": 1.2178969498,
				"y": -1.5507212943,
				"z": 2.1474194651,
				"element": "H" 
			},
			{
				"x": -1.2366251969,
				"y": -1.143801395,
				"z": 2.4365025018,
				"element": "H" 
			},
			{
				"x": -3.2471520344,
				"y": 0.2283992105,
				"z": 1.9802899005,
				"element": "H" 
			},
			{
				"x": -0.908995372,
				"y": 2.9428241782,
				"z": -0.4001023004,
				"element": "H" 
			},
			{
				"x": 1.5466998816,
				"y": 2.544438678,
				"z": -0.6709534742,
				"element": "H" 
			},
			{
				"x": 3.5526230418,
				"y": 1.1869296284,
				"z": -0.2022125244,
				"element": "H" 
			},
			{
				"x": -4.3569293642,
				"y": 2.183959155,
				"z": -1.5500968347,
				"element": "H" 
			}
		],
		 "valence_orbital": [ 
			{
				"type": "occ",
				"energy": -0.31572,
				"method": "rhf"
			},
			{
				"type": "occ",
				"energy": -0.30645,
				"method": "rhf"
			},
			{
				"type": "occ",
				"energy": -0.29975,
				"method": "rhf"
			},
			{
				"type": "occ",
				"energy": -0.25448,
				"method": "rhf"
			},
			{
				"type": "occ",
				"energy": -0.22745,
				"method": "rhf"
			},
			{
				"type": "unocc",
				"energy": -0.06059,
				"method": "rhf"
			},
			{
				"type": "unocc",
				"energy": -0.03533,
				"method": "rhf"
			},
			{
				"type": "unocc",
				"energy": 0.01247,
				"method": "rhf"
			},
			{
				"type": "unocc",
				"energy": 0.04206,
				"method": "rhf"
			},
			{
				"type": "unocc",
				"energy": 0.05445,
				"method": "rhf"
			}
		],
		"cosmo_sigma_profile": { 
			"-0.025": 0.0,
			"-0.024": 0.0,
			"-0.023": 0.0,
			"-0.022": 0.0,
			"-0.021": 0.0,
			"-0.02": 0.326396570383,
			"-0.019": 1.07969900849,
			"-0.018": 2.16047744383,
			"-0.017": 1.7093167202,
			"-0.016": 1.8529422078,
			"-0.015": 1.47055085467,
			"-0.014": 1.54625296232,
			"-0.013": 1.92459965651,
			"-0.012": 2.25147804361,
			"-0.011": 1.54743281547,
			"-0.01": 2.14077778678,
			"-0.009": 1.70939201,
			"-0.008": 4.88682529144,
			"-0.007": 10.5257350438,
			"-0.006": 13.2230006803,
			"-0.005": 10.5904641032,
			"-0.004": 8.70160238387,
			"-0.003": 9.6774219415,
			"-0.002": 9.30985815253,
			"-0.001": 8.9846141543,
			"0.0": 12.3050713533,
			"0.001": 15.1620290422,
			"0.002": 26.6865957283,
			"0.003": 23.449315311,
			"0.004": 8.37416218069,
			"0.005": 6.29079857416,
			"0.006": 4.36973167885,
			"0.007": 6.19147667879,
			"0.008": 6.70773885388,
			"0.009": 10.4396729232,
			"0.01": 12.4161334095,
			"0.011": 5.53539400337,
			"0.012": 0.00371033256511,
			"0.013": 0.0,
			"0.014": 0.0,
			"0.015": 0.0,
			"0.016": 0.0,
			"0.017": 0.0,
			"0.018": 0.0,
			"0.019": 0.0,
			"0.02": 0.0,
			"0.021": 0.0,
			"0.022": 0.0,
			"0.023": 0.0,
			"0.024": 0.0,
			"0.025": 0.0
		}
	}
}
