{
	 "smiles": "CN1CCC23C4OC5=C(OC(C)=O)C=CC(CC1C2C=CC4OC(C)=O)=C35", 
	 "Tm": 446.15, 
	 "num_atms": 50, 
	 "gaussian": { 
		 "optdone": 1, 
		 "sigma_profile": "yes", 
		 "theory": "DFT", 
		 "functional": "B3LYP", 
		 "basiset": "6-31G**", 
		 "properties": { 
			 "R2extent": 9367.5098, 
			 "electric_dipole_moment_norm": 3.38370640127, 
			 "electric_quadrupole_moment_norm": 16.4888773226, 
			 "total_energy": -1244.94755509, 
			 "HOMO_LUMO_gap": 0.20706, 
			 "cosmo_polarized_energy": -17.94, 
			 "cosmo_cavitation_energy": 49.15, 
			 "cosmo_dispersion_energy": -33.67, 
			 "cosmo_repulsion_energy": 2.55, 
			 "cosmo_total_nonelectrostatic_energy": 18.03, 
			 "SMD_solvation_energy": 8.56 
		},
		"coords": [
			{
				"x": 3.3480526263,
				"y": -2.5375022995,
				"z": 3.346943197,
				"element": "C" 
			},
			{
				"x": 2.2052068706,
				"y": -2.0526340683,
				"z": 2.5936194607,
				"element": "N" 
			},
			{
				"x": 1.2885783353,
				"y": -3.114923466,
				"z": 2.199136297,
				"element": "C" 
			},
			{
				"x": -0.0128588613,
				"y": -2.5330765329,
				"z": 1.621960542,
				"element": "C" 
			},
			{
				"x": 0.2570986885,
				"y": -1.281784343,
				"z": 0.7257586284,
				"element": "C" 
			},
			{
				"x": -0.8535491105,
				"y": -1.0844747788,
				"z": -0.3354327904,
				"element": "C" 
			},
			{
				"x": -1.9142542577,
				"y": -0.3671822382,
				"z": 0.3858936095,
				"element": "O" 
			},
			{
				"x": -1.253991652,
				"y": 0.4294284204,
				"z": 1.2859000309,
				"element": "C" 
			},
			{
				"x": -1.7141514027,
				"y": 1.5893116245,
				"z": 1.8948965768,
				"element": "C" 
			},
			{
				"x": -3.0286466278,
				"y": 2.0349972801,
				"z": 1.757817658,
				"element": "O" 
			},
			{
				"x": -3.4337407988,
				"y": 2.4540090564,
				"z": 0.5134884774,
				"element": "C" 
			},
			{
				"x": -4.897675783,
				"y": 2.8139881165,
				"z": 0.5474059689,
				"element": "C" 
			},
			{
				"x": -2.708089718,
				"y": 2.5130671222,
				"z": -0.446965273,
				"element": "O" 
			},
			{
				"x": -0.8150012873,
				"y": 2.3137103542,
				"z": 2.6874540347,
				"element": "C" 
			},
			{
				"x": 0.519759397,
				"y": 1.920919194,
				"z": 2.8197804293,
				"element": "C" 
			},
			{
				"x": 0.9876203051,
				"y": 0.7547167768,
				"z": 2.1887932537,
				"element": "C" 
			},
			{
				"x": 2.43889388,
				"y": 0.3344573722,
				"z": 2.0872132226,
				"element": "C" 
			},
			{
				"x": 2.5858958923,
				"y": -1.0989306297,
				"z": 1.5242885984,
				"element": "C" 
			},
			{
				"x": 1.7155766067,
				"y": -1.3368608387,
				"z": 0.2515523081,
				"element": "C" 
			},
			{
				"x": 1.9859270335,
				"y": -0.3919049913,
				"z": -0.8854453257,
				"element": "C" 
			},
			{
				"x": 1.0305002217,
				"y": 0.0697031089,
				"z": -1.6956833495,
				"element": "C" 
			},
			{
				"x": -0.4381848373,
				"y": -0.2472164008,
				"z": -1.5685212171,
				"element": "C" 
			},
			{
				"x": -0.8658322991,
				"y": -1.0371532905,
				"z": -2.7287133025,
				"element": "O" 
			},
			{
				"x": -1.0820899944,
				"y": -0.36312231,
				"z": -3.8830207604,
				"element": "C" 
			},
			{
				"x": -1.5851311569,
				"y": -1.2995233577,
				"z": -4.957886077,
				"element": "C" 
			},
			{
				"x": -0.8948522597,
				"y": 0.8256595981,
				"z": -4.0207618566,
				"element": "O" 
			},
			{
				"x": 0.0531112619,
				"y": 0.0092731611,
				"z": 1.4922986172,
				"element": "C" 
			},
			{
				"x": 3.949885263,
				"y": -1.6946468539,
				"z": 3.7020668502,
				"element": "H" 
			},
			{
				"x": 4.0133703194,
				"y": -3.2020217289,
				"z": 2.7609893839,
				"element": "H" 
			},
			{
				"x": 3.0065207794,
				"y": -3.0934188526,
				"z": 4.2265292689,
				"element": "H" 
			},
			{
				"x": 1.0576035946,
				"y": -3.705941538,
				"z": 3.0925247105,
				"element": "H" 
			},
			{
				"x": 1.743182601,
				"y": -3.8244997092,
				"z": 1.4787073132,
				"element": "H" 
			},
			{
				"x": -0.5096582713,
				"y": -3.3109106603,
				"z": 1.0296545763,
				"element": "H" 
			},
			{
				"x": -0.6936550528,
				"y": -2.2586582406,
				"z": 2.4324575185,
				"element": "H" 
			},
			{
				"x": -1.2966672102,
				"y": -2.0206614927,
				"z": -0.677318626,
				"element": "H" 
			},
			{
				"x": -5.1812053954,
				"y": 3.2633914085,
				"z": -0.4036379363,
				"element": "H" 
			},
			{
				"x": -5.103426283,
				"y": 3.5026765203,
				"z": 1.3711304432,
				"element": "H" 
			},
			{
				"x": -5.4913203903,
				"y": 1.9106156613,
				"z": 0.7193311975,
				"element": "H" 
			},
			{
				"x": -1.1727043247,
				"y": 3.2213695862,
				"z": 3.1634012199,
				"element": "H" 
			},
			{
				"x": 1.2020279266,
				"y": 2.5435021965,
				"z": 3.3921410151,
				"element": "H" 
			},
			{
				"x": 2.9652811772,
				"y": 1.0447495966,
				"z": 1.4334266575,
				"element": "H" 
			},
			{
				"x": 2.9366159622,
				"y": 0.3846571,
				"z": 3.0623328644,
				"element": "H" 
			},
			{
				"x": 3.6387465329,
				"y": -1.2552622992,
				"z": 1.2351782212,
				"element": "H" 
			},
			{
				"x": 1.9533387768,
				"y": -2.3472330796,
				"z": -0.1113590631,
				"element": "H" 
			},
			{
				"x": 3.0230882882,
				"y": -0.114488243,
				"z": -1.0704628986,
				"element": "H" 
			},
			{
				"x": 1.2792083503,
				"y": 0.722248604,
				"z": -2.5273370868,
				"element": "H" 
			},
			{
				"x": -1.0162048043,
				"y": 0.6817112106,
				"z": -1.5768596024,
				"element": "H" 
			},
			{
				"x": -2.5381217393,
				"y": -1.7416877304,
				"z": -4.6522569537,
				"element": "H" 
			},
			{
				"x": -0.8766159753,
				"y": -2.1197564379,
				"z": -5.1053645061,
				"element": "H" 
			},
			{
				"x": -1.7149611979,
				"y": -0.7458866577,
				"z": -5.8872455258,
				"element": "H" 
			}
		],
		 "valence_orbital": [ 
			{
				"type": "occ",
				"energy": -0.26472,
				"method": "rhf"
			},
			{
				"type": "occ",
				"energy": -0.25474,
				"method": "rhf"
			},
			{
				"type": "occ",
				"energy": -0.23204,
				"method": "rhf"
			},
			{
				"type": "occ",
				"energy": -0.21215,
				"method": "rhf"
			},
			{
				"type": "occ",
				"energy": -0.20745,
				"method": "rhf"
			},
			{
				"type": "unocc",
				"energy": -0.00039,
				"method": "rhf"
			},
			{
				"type": "unocc",
				"energy": 0.00024,
				"method": "rhf"
			},
			{
				"type": "unocc",
				"energy": 0.01002,
				"method": "rhf"
			},
			{
				"type": "unocc",
				"energy": 0.01894,
				"method": "rhf"
			},
			{
				"type": "unocc",
				"energy": 0.02022,
				"method": "rhf"
			}
		],
		"cosmo_sigma_profile": { 
			"-0.025": 0.0,
			"-0.024": 0.0,
			"-0.023": 0.0,
			"-0.022": 0.0,
			"-0.021": 0.0,
			"-0.02": 0.0,
			"-0.019": 0.0,
			"-0.018": 0.0,
			"-0.017": 0.0,
			"-0.016": 0.0,
			"-0.015": 0.0,
			"-0.014": 0.0,
			"-0.013": 0.0,
			"-0.012": 0.0,
			"-0.011": 0.0,
			"-0.01": 0.0,
			"-0.009": 0.0,
			"-0.008": 0.0379822715986,
			"-0.007": 4.74895307532,
			"-0.006": 16.8857913827,
			"-0.005": 25.5470797754,
			"-0.004": 40.532227486,
			"-0.003": 46.5299747553,
			"-0.002": 48.6649831544,
			"-0.001": 40.9829587252,
			"0.0": 27.1062457051,
			"0.001": 18.3561697009,
			"0.002": 16.4352530701,
			"0.003": 15.6539285138,
			"0.004": 16.4994273544,
			"0.005": 16.3427911301,
			"0.006": 10.2887177466,
			"0.007": 7.89096422527,
			"0.008": 8.61287430631,
			"0.009": 5.12622195632,
			"0.01": 6.03083004299,
			"0.011": 6.86504727739,
			"0.012": 5.26447483795,
			"0.013": 1.5236774022,
			"0.014": 0.172209510802,
			"0.015": 0.0,
			"0.016": 0.0,
			"0.017": 0.0,
			"0.018": 0.0,
			"0.019": 0.0,
			"0.02": 0.0,
			"0.021": 0.0,
			"0.022": 0.0,
			"0.023": 0.0,
			"0.024": 0.0,
			"0.025": 0.0
		}
	}
}
