{
	 "smiles": "CC(C)(C(O)=O)C1=CC(Br)=CC=C1", 
	 "Tm": 342.15, 
	 "num_atms": 24, 
	 "gaussian": { 
		 "optdone": 1, 
		 "sigma_profile": "yes", 
		 "theory": "DFT", 
		 "functional": "B3LYP", 
		 "basiset": "6-31G**", 
		 "properties": { 
			 "R2extent": 4705.9949, 
			 "electric_dipole_moment_norm": 2.7832143755, 
			 "electric_quadrupole_moment_norm": 20.8854672636, 
			 "total_energy": -3109.56140819, 
			 "HOMO_LUMO_gap": 0.21934, 
			 "cosmo_polarized_energy": -12.63, 
			 "cosmo_cavitation_energy": 29.35, 
			 "cosmo_dispersion_energy": -20.99, 
			 "cosmo_repulsion_energy": 1.66, 
			 "cosmo_total_nonelectrostatic_energy": 10.03, 
			 "SMD_solvation_energy": 4.95 
		},
		"coords": [
			{
				"x": -2.4756350335,
				"y": -1.1245073106,
				"z": 0.0222885994,
				"element": "C" 
			},
			{
				"x": -0.9929522784,
				"y": -1.1077215396,
				"z": 0.4654175123,
				"element": "C" 
			},
			{
				"x": -0.9030923421,
				"y": -0.5285579543,
				"z": 1.8918233265,
				"element": "C" 
			},
			{
				"x": -0.5473292943,
				"y": -2.5920241535,
				"z": 0.4985799082,
				"element": "C" 
			},
			{
				"x": -0.2459386449,
				"y": -3.1474718433,
				"z": -0.7023333156,
				"element": "O" 
			},
			{
				"x": -0.5224196162,
				"y": -3.2638237846,
				"z": 1.4998448595,
				"element": "O" 
			},
			{
				"x": -0.086635229,
				"y": -0.3083257547,
				"z": -0.4841163411,
				"element": "C" 
			},
			{
				"x": -0.5958334695,
				"y": 0.4833491952,
				"z": -1.5222709763,
				"element": "C" 
			},
			{
				"x": 0.2723791886,
				"y": 1.2135233072,
				"z": -2.3361275443,
				"element": "C" 
			},
			{
				"x": -0.4582732829,
				"y": 2.2860730117,
				"z": -3.7405507131,
				"element": "Br" 
			},
			{
				"x": 1.6503044073,
				"y": 1.1769449864,
				"z": -2.1511887621,
				"element": "C" 
			},
			{
				"x": 2.1611414554,
				"y": 0.3829284144,
				"z": -1.121436127,
				"element": "C" 
			},
			{
				"x": 1.3076273391,
				"y": -0.3481400988,
				"z": -0.2998277498,
				"element": "C" 
			},
			{
				"x": -3.0528849159,
				"y": -1.7495668622,
				"z": 0.7086080202,
				"element": "H" 
			},
			{
				"x": -2.9005647654,
				"y": -0.1167916689,
				"z": 0.0503825654,
				"element": "H" 
			},
			{
				"x": -2.6038539901,
				"y": -1.5267462494,
				"z": -0.9872985269,
				"element": "H" 
			},
			{
				"x": -1.5027192047,
				"y": -1.1291629613,
				"z": 2.5787514591,
				"element": "H" 
			},
			{
				"x": 0.1251912883,
				"y": -0.5295220251,
				"z": 2.2609447429,
				"element": "H" 
			},
			{
				"x": -1.2698471061,
				"y": 0.5021005866,
				"z": 1.8987623038,
				"element": "H" 
			},
			{
				"x": -0.2210416031,
				"y": -2.4587390328,
				"z": -1.3846204994,
				"element": "H" 
			},
			{
				"x": -1.6607779224,
				"y": 0.5462669489,
				"z": -1.7048424265,
				"element": "H" 
			},
			{
				"x": 2.3077293548,
				"y": 1.7493814842,
				"z": -2.7951238613,
				"element": "H" 
			},
			{
				"x": 3.2346041753,
				"y": 0.3367735997,
				"z": -0.9642773479,
				"element": "H" 
			},
			{
				"x": 1.7272214899,
				"y": -0.9621402954,
				"z": 0.4923108941,
				"element": "H" 
			}
		],
		 "valence_orbital": [ 
			{
				"type": "occ",
				"energy": -0.3157,
				"method": "rhf"
			},
			{
				"type": "occ",
				"energy": -0.29728,
				"method": "rhf"
			},
			{
				"type": "occ",
				"energy": -0.28272,
				"method": "rhf"
			},
			{
				"type": "occ",
				"energy": -0.26546,
				"method": "rhf"
			},
			{
				"type": "occ",
				"energy": -0.25295,
				"method": "rhf"
			},
			{
				"type": "unocc",
				"energy": -0.03361,
				"method": "rhf"
			},
			{
				"type": "unocc",
				"energy": -0.02927,
				"method": "rhf"
			},
			{
				"type": "unocc",
				"energy": -0.00462,
				"method": "rhf"
			},
			{
				"type": "unocc",
				"energy": 0.0086,
				"method": "rhf"
			},
			{
				"type": "unocc",
				"energy": 0.06678,
				"method": "rhf"
			}
		],
		"cosmo_sigma_profile": { 
			"-0.025": 0.0,
			"-0.024": 0.0,
			"-0.023": 0.0,
			"-0.022": 0.0,
			"-0.021": 0.0,
			"-0.02": 0.0,
			"-0.019": 0.0,
			"-0.018": 0.0,
			"-0.017": 0.0,
			"-0.016": 0.201412414381,
			"-0.015": 0.780287100929,
			"-0.014": 0.515162614775,
			"-0.013": 0.534771842939,
			"-0.012": 1.10925337592,
			"-0.011": 1.62711502024,
			"-0.01": 1.36245512172,
			"-0.009": 0.953049418261,
			"-0.008": 0.845115748037,
			"-0.007": 7.83783989803,
			"-0.006": 11.3365516454,
			"-0.005": 14.9312358119,
			"-0.004": 18.4687256676,
			"-0.003": 18.6937313484,
			"-0.002": 17.8161311149,
			"-0.001": 18.6786402917,
			"0.0": 19.7574993995,
			"0.001": 15.3914102592,
			"0.002": 17.243100733,
			"0.003": 18.007511091,
			"0.004": 14.5578497531,
			"0.005": 7.72941438826,
			"0.006": 1.89397855608,
			"0.007": 2.32195522579,
			"0.008": 3.10309158664,
			"0.009": 3.38609397086,
			"0.01": 4.46318667079,
			"0.011": 5.53425815237,
			"0.012": 4.87207020448,
			"0.013": 1.46212084916,
			"0.014": 0.0180942268407,
			"0.015": 0.0,
			"0.016": 0.0,
			"0.017": 0.0,
			"0.018": 0.0,
			"0.019": 0.0,
			"0.02": 0.0,
			"0.021": 0.0,
			"0.022": 0.0,
			"0.023": 0.0,
			"0.024": 0.0,
			"0.025": 0.0
		}
	}
}
