{
	 "smiles": "NNC1=NC=C(C=C1)C(F)(F)F", 
	 "Tm": 335.15, 
	 "num_atms": 18, 
	 "gaussian": { 
		 "optdone": 1, 
		 "sigma_profile": "yes", 
		 "theory": "DFT", 
		 "functional": "B3LYP", 
		 "basiset": "6-31G**", 
		 "properties": { 
			 "R2extent": 2646.9183, 
			 "electric_dipole_moment_norm": 2.5466526579, 
			 "electric_quadrupole_moment_norm": 11.5968170961, 
			 "total_energy": -696.005356614, 
			 "HOMO_LUMO_gap": 0.1942, 
			 "cosmo_polarized_energy": -9.39, 
			 "cosmo_cavitation_energy": 23.95, 
			 "cosmo_dispersion_energy": -17.35, 
			 "cosmo_repulsion_energy": 1.34, 
			 "cosmo_total_nonelectrostatic_energy": 7.94, 
			 "SMD_solvation_energy": 4.74 
		},
		"coords": [
			{
				"x": 0.0425235304,
				"y": -1.3313433633,
				"z": -4.0503519856,
				"element": "N" 
			},
			{
				"x": -0.1405028869,
				"y": -2.1550220383,
				"z": -2.9221678747,
				"element": "N" 
			},
			{
				"x": -0.2306079413,
				"y": -1.6431203106,
				"z": -1.6489429948,
				"element": "C" 
			},
			{
				"x": 0.0909653601,
				"y": -0.350791957,
				"z": -1.4865016498,
				"element": "N" 
			},
			{
				"x": 0.0402171604,
				"y": 0.1543856197,
				"z": -0.2478847566,
				"element": "C" 
			},
			{
				"x": -0.3323568818,
				"y": -0.5779275461,
				"z": 0.8741102377,
				"element": "C" 
			},
			{
				"x": -0.6794835521,
				"y": -1.9288197035,
				"z": 0.6918469582,
				"element": "C" 
			},
			{
				"x": -0.6336065364,
				"y": -2.4738372526,
				"z": -0.5733016099,
				"element": "C" 
			},
			{
				"x": -0.33503823,
				"y": 0.0245929858,
				"z": 2.2432607567,
				"element": "C" 
			},
			{
				"x": -1.4458313781,
				"y": -0.3226799361,
				"z": 2.9376252632,
				"element": "F" 
			},
			{
				"x": 0.7206799975,
				"y": -0.3918188502,
				"z": 2.9850607655,
				"element": "F" 
			},
			{
				"x": -0.2831652496,
				"y": 1.37413499,
				"z": 2.2060077149,
				"element": "F" 
			},
			{
				"x": 1.0266422393,
				"y": -1.0681564877,
				"z": -4.078220324,
				"element": "H" 
			},
			{
				"x": -0.4615669728,
				"y": -0.4583490563,
				"z": -3.8878227204,
				"element": "H" 
			},
			{
				"x": -0.6410204536,
				"y": -3.0080376975,
				"z": -3.1229720173,
				"element": "H" 
			},
			{
				"x": 0.3031559095,
				"y": 1.2044506096,
				"z": -0.1500486881,
				"element": "H" 
			},
			{
				"x": -0.9885109877,
				"y": -2.531477088,
				"z": 1.5402861704,
				"element": "H" 
			},
			{
				"x": -0.8964931269,
				"y": -3.5126829181,
				"z": -0.7483832454,
				"element": "H" 
			}
		],
		 "valence_orbital": [ 
			{
				"type": "occ",
				"energy": -0.32405,
				"method": "rhf"
			},
			{
				"type": "occ",
				"energy": -0.29731,
				"method": "rhf"
			},
			{
				"type": "occ",
				"energy": -0.28281,
				"method": "rhf"
			},
			{
				"type": "occ",
				"energy": -0.26954,
				"method": "rhf"
			},
			{
				"type": "occ",
				"energy": -0.22623,
				"method": "rhf"
			},
			{
				"type": "unocc",
				"energy": -0.03203,
				"method": "rhf"
			},
			{
				"type": "unocc",
				"energy": -0.01743,
				"method": "rhf"
			},
			{
				"type": "unocc",
				"energy": 0.08079,
				"method": "rhf"
			},
			{
				"type": "unocc",
				"energy": 0.08888,
				"method": "rhf"
			},
			{
				"type": "unocc",
				"energy": 0.10789,
				"method": "rhf"
			}
		],
		"cosmo_sigma_profile": { 
			"-0.025": 0.0,
			"-0.024": 0.0,
			"-0.023": 0.0,
			"-0.022": 0.0,
			"-0.021": 0.0,
			"-0.02": 0.0,
			"-0.019": 0.0,
			"-0.018": 0.0,
			"-0.017": 0.0,
			"-0.016": 0.0,
			"-0.015": 0.101380616933,
			"-0.014": 0.953701211443,
			"-0.013": 1.59106496191,
			"-0.012": 1.08842324178,
			"-0.011": 2.28817374094,
			"-0.01": 2.51991156206,
			"-0.009": 3.68395992446,
			"-0.008": 6.22588944139,
			"-0.007": 6.159839294,
			"-0.006": 6.88000611617,
			"-0.005": 7.2467907905,
			"-0.004": 7.74736741816,
			"-0.003": 7.78155386733,
			"-0.002": 8.14323476116,
			"-0.001": 9.08043286109,
			"0.0": 12.8999013805,
			"0.001": 18.8743742841,
			"0.002": 24.0399644913,
			"0.003": 35.5412947016,
			"0.004": 9.2342235691,
			"0.005": 2.74026453233,
			"0.006": 3.46572994745,
			"0.007": 2.00778731421,
			"0.008": 1.38687274827,
			"0.009": 1.78338385905,
			"0.01": 2.10183986334,
			"0.011": 0.836218344154,
			"0.012": 1.14542880931,
			"0.013": 1.51167053661,
			"0.014": 0.362744587655,
			"0.015": 0.557008431745,
			"0.016": 0.795655598441,
			"0.017": 0.213492231569,
			"0.018": 0.0,
			"0.019": 0.0,
			"0.02": 0.0,
			"0.021": 0.0,
			"0.022": 0.0,
			"0.023": 0.0,
			"0.024": 0.0,
			"0.025": 0.0
		}
	}
}
