{
	 "smiles": "CCCC1=CC=CC=C1O", 
	 "Tm": 280.15, 
	 "num_atms": 22, 
	 "gaussian": { 
		 "optdone": 1, 
		 "sigma_profile": "yes", 
		 "theory": "DFT", 
		 "functional": "B3LYP", 
		 "basiset": "6-31G**", 
		 "properties": { 
			 "R2extent": 1872.3786, 
			 "electric_dipole_moment_norm": 1.17221091106, 
			 "electric_quadrupole_moment_norm": 7.12760717212, 
			 "total_energy": -425.422661689, 
			 "HOMO_LUMO_gap": 0.21652, 
			 "cosmo_polarized_energy": -7.24, 
			 "cosmo_cavitation_energy": 24.37, 
			 "cosmo_dispersion_energy": -17.68, 
			 "cosmo_repulsion_energy": 1.45, 
			 "cosmo_total_nonelectrostatic_energy": 8.13, 
			 "SMD_solvation_energy": 4.28 
		},
		"coords": [
			{
				"x": -1.7663884354,
				"y": 2.0119028937,
				"z": -1.6725707792,
				"element": "C" 
			},
			{
				"x": -0.5760097697,
				"y": 1.70100775,
				"z": -2.5844582429,
				"element": "C" 
			},
			{
				"x": 0.606898476,
				"y": 1.0043650132,
				"z": -1.8744041287,
				"element": "C" 
			},
			{
				"x": 0.2810062157,
				"y": -0.3706706522,
				"z": -1.3294311651,
				"element": "C" 
			},
			{
				"x": 0.2783119364,
				"y": -1.4943187818,
				"z": -2.1634687373,
				"element": "C" 
			},
			{
				"x": -0.0308861583,
				"y": -2.7708297207,
				"z": -1.6902279149,
				"element": "C" 
			},
			{
				"x": -0.3438808,
				"y": -2.9419923241,
				"z": -0.3421660861,
				"element": "C" 
			},
			{
				"x": -0.3447190941,
				"y": -1.8424091801,
				"z": 0.5155141592,
				"element": "C" 
			},
			{
				"x": -0.0371844191,
				"y": -0.5682774072,
				"z": 0.0270472974,
				"element": "C" 
			},
			{
				"x": -0.0286854975,
				"y": 0.5320327154,
				"z": 0.8465887797,
				"element": "O" 
			},
			{
				"x": -2.5586775005,
				"y": 2.5273600165,
				"z": -2.2258638571,
				"element": "H" 
			},
			{
				"x": -1.4672274746,
				"y": 2.6504288676,
				"z": -0.834797335,
				"element": "H" 
			},
			{
				"x": -2.1941615522,
				"y": 1.0965885064,
				"z": -1.2516492726,
				"element": "H" 
			},
			{
				"x": -0.2042706446,
				"y": 2.632681704,
				"z": -3.0306338519,
				"element": "H" 
			},
			{
				"x": -0.9097321918,
				"y": 1.0719811647,
				"z": -3.4202680839,
				"element": "H" 
			},
			{
				"x": 1.4312351081,
				"y": 0.9082181049,
				"z": -2.5918292757,
				"element": "H" 
			},
			{
				"x": 0.9656427132,
				"y": 1.6444683945,
				"z": -1.0624917705,
				"element": "H" 
			},
			{
				"x": 0.5320096887,
				"y": -1.3586780569,
				"z": -3.2126127339,
				"element": "H" 
			},
			{
				"x": -0.0215968052,
				"y": -3.6209710523,
				"z": -2.3653612154,
				"element": "H" 
			},
			{
				"x": -0.5839038175,
				"y": -3.9269132602,
				"z": 0.0478291422,
				"element": "H" 
			},
			{
				"x": -0.584328334,
				"y": -1.9699514541,
				"z": 1.56985672,
				"element": "H" 
			},
			{
				"x": -0.2533516436,
				"y": 0.2547767588,
				"z": 1.7438983517,
				"element": "H" 
			}
		],
		 "valence_orbital": [ 
			{
				"type": "occ",
				"energy": -0.32288,
				"method": "rhf"
			},
			{
				"type": "occ",
				"energy": -0.32129,
				"method": "rhf"
			},
			{
				"type": "occ",
				"energy": -0.31338,
				"method": "rhf"
			},
			{
				"type": "occ",
				"energy": -0.24003,
				"method": "rhf"
			},
			{
				"type": "occ",
				"energy": -0.21459,
				"method": "rhf"
			},
			{
				"type": "unocc",
				"energy": 0.00193,
				"method": "rhf"
			},
			{
				"type": "unocc",
				"energy": 0.01837,
				"method": "rhf"
			},
			{
				"type": "unocc",
				"energy": 0.07069,
				"method": "rhf"
			},
			{
				"type": "unocc",
				"energy": 0.09993,
				"method": "rhf"
			},
			{
				"type": "unocc",
				"energy": 0.1092,
				"method": "rhf"
			}
		],
		"cosmo_sigma_profile": { 
			"-0.025": 0.0,
			"-0.024": 0.0,
			"-0.023": 0.0,
			"-0.022": 0.0,
			"-0.021": 0.0,
			"-0.02": 0.0,
			"-0.019": 0.0,
			"-0.018": 0.103849973077,
			"-0.017": 0.854515180852,
			"-0.016": 0.896207941515,
			"-0.015": 1.49233596666,
			"-0.014": 0.744622777764,
			"-0.013": 1.25016628491,
			"-0.012": 0.632631594025,
			"-0.011": 0.711232387125,
			"-0.01": 1.37199561208,
			"-0.009": 1.0340104643,
			"-0.008": 0.966374164303,
			"-0.007": 1.21054698235,
			"-0.006": 2.46571579313,
			"-0.005": 6.41265480216,
			"-0.004": 8.72726962528,
			"-0.003": 14.156377192,
			"-0.002": 18.6190397065,
			"-0.001": 20.5473424345,
			"0.0": 22.5366777902,
			"0.001": 20.7706357563,
			"0.002": 15.5237979568,
			"0.003": 9.35192359027,
			"0.004": 9.79806175827,
			"0.005": 9.38984670847,
			"0.006": 9.43024549783,
			"0.007": 7.11073396097,
			"0.008": 2.31019388263,
			"0.009": 1.4951261217,
			"0.01": 1.18991040803,
			"0.011": 0.00481981502064,
			"0.012": 0.0,
			"0.013": 0.0,
			"0.014": 0.0,
			"0.015": 0.0,
			"0.016": 0.0,
			"0.017": 0.0,
			"0.018": 0.0,
			"0.019": 0.0,
			"0.02": 0.0,
			"0.021": 0.0,
			"0.022": 0.0,
			"0.023": 0.0,
			"0.024": 0.0,
			"0.025": 0.0
		}
	}
}
