{
	 "smiles": "OC(=O)CCC1=CC=C(C=C1)S(Cl)(=O)=O", 
	 "Tm": 431.15, 
	 "num_atms": 24, 
	 "gaussian": { 
		 "optdone": 1, 
		 "sigma_profile": "yes", 
		 "theory": "DFT", 
		 "functional": "B3LYP", 
		 "basiset": "6-31G**", 
		 "properties": { 
			 "R2extent": 6569.7228, 
			 "electric_dipole_moment_norm": 3.51707528921, 
			 "electric_quadrupole_moment_norm": 37.7973865868, 
			 "total_energy": -1507.60249655, 
			 "HOMO_LUMO_gap": 0.18876, 
			 "cosmo_polarized_energy": -21.83, 
			 "cosmo_cavitation_energy": 32.8, 
			 "cosmo_dispersion_energy": -23.78, 
			 "cosmo_repulsion_energy": 1.84, 
			 "cosmo_total_nonelectrostatic_energy": 10.86, 
			 "SMD_solvation_energy": 5.24 
		},
		"coords": [
			{
				"x": -3.9568737828,
				"y": 1.7972564306,
				"z": -3.398548391,
				"element": "O" 
			},
			{
				"x": -4.0026191433,
				"y": 0.8510522036,
				"z": -2.4238849462,
				"element": "C" 
			},
			{
				"x": -5.0476906305,
				"y": 0.3246191781,
				"z": -2.13716576,
				"element": "O" 
			},
			{
				"x": -2.667811697,
				"y": 0.5331281236,
				"z": -1.7580845247,
				"element": "C" 
			},
			{
				"x": -2.8050497075,
				"y": -0.5439600762,
				"z": -0.6689824248,
				"element": "C" 
			},
			{
				"x": -1.4820449916,
				"y": -0.8592277381,
				"z": -0.0088240794,
				"element": "C" 
			},
			{
				"x": -0.6449435878,
				"y": -1.859364658,
				"z": -0.5268359721,
				"element": "C" 
			},
			{
				"x": 0.5921442747,
				"y": -2.1345140515,
				"z": 0.0503868221,
				"element": "C" 
			},
			{
				"x": 0.9841630988,
				"y": -1.3921551384,
				"z": 1.1648006862,
				"element": "C" 
			},
			{
				"x": 0.1764492837,
				"y": -0.3955351278,
				"z": 1.7135322157,
				"element": "C" 
			},
			{
				"x": -1.056027078,
				"y": -0.139433616,
				"z": 1.1180623661,
				"element": "C" 
			},
			{
				"x": 2.5590473413,
				"y": -1.7437749775,
				"z": 1.9260237454,
				"element": "S" 
			},
			{
				"x": 3.8464500809,
				"y": -0.4104351593,
				"z": 0.8576071994,
				"element": "Cl" 
			},
			{
				"x": 2.9844933084,
				"y": -3.0896713814,
				"z": 1.5631709194,
				"element": "O" 
			},
			{
				"x": 2.5482755959,
				"y": -1.2724612789,
				"z": 3.3051025098,
				"element": "O" 
			},
			{
				"x": -3.053286361,
				"y": 2.1247737952,
				"z": -3.5134233353,
				"element": "H" 
			},
			{
				"x": -1.9562310414,
				"y": 0.210885757,
				"z": -2.5304822161,
				"element": "H" 
			},
			{
				"x": -2.2556342251,
				"y": 1.4589145054,
				"z": -1.3340610054,
				"element": "H" 
			},
			{
				"x": -3.5303460251,
				"y": -0.2000323248,
				"z": 0.0741503177,
				"element": "H" 
			},
			{
				"x": -3.2314999358,
				"y": -1.4449468542,
				"z": -1.1194530077,
				"element": "H" 
			},
			{
				"x": -0.9700951788,
				"y": -2.437745962,
				"z": -1.3873680169,
				"element": "H" 
			},
			{
				"x": 1.2355796483,
				"y": -2.9144271403,
				"z": -0.3410862957,
				"element": "H" 
			},
			{
				"x": 0.5026565974,
				"y": 0.1513028672,
				"z": 2.5910769099,
				"element": "H" 
			},
			{
				"x": -1.7021058437,
				"y": 0.6247526234,
				"z": 1.5415862833,
				"element": "H" 
			}
		],
		 "valence_orbital": [ 
			{
				"type": "occ",
				"energy": -0.33083,
				"method": "rhf"
			},
			{
				"type": "occ",
				"energy": -0.31488,
				"method": "rhf"
			},
			{
				"type": "occ",
				"energy": -0.29343,
				"method": "rhf"
			},
			{
				"type": "occ",
				"energy": -0.29233,
				"method": "rhf"
			},
			{
				"type": "occ",
				"energy": -0.28161,
				"method": "rhf"
			},
			{
				"type": "unocc",
				"energy": -0.09285,
				"method": "rhf"
			},
			{
				"type": "unocc",
				"energy": -0.04693,
				"method": "rhf"
			},
			{
				"type": "unocc",
				"energy": -0.04311,
				"method": "rhf"
			},
			{
				"type": "unocc",
				"energy": -0.00449,
				"method": "rhf"
			},
			{
				"type": "unocc",
				"energy": 0.03963,
				"method": "rhf"
			}
		],
		"cosmo_sigma_profile": { 
			"-0.025": 0.0,
			"-0.024": 0.0,
			"-0.023": 0.0,
			"-0.022": 0.0,
			"-0.021": 0.0,
			"-0.02": 0.0410338357787,
			"-0.019": 0.805197593343,
			"-0.018": 1.23360173896,
			"-0.017": 0.877013807398,
			"-0.016": 1.16887845281,
			"-0.015": 0.909355133123,
			"-0.014": 1.23345512523,
			"-0.013": 1.02859221923,
			"-0.012": 0.897544082158,
			"-0.011": 1.79568845385,
			"-0.01": 1.20066789753,
			"-0.009": 1.62119675499,
			"-0.008": 5.61723394342,
			"-0.007": 14.0078415942,
			"-0.006": 18.7573837934,
			"-0.005": 17.7112114177,
			"-0.004": 12.2660071121,
			"-0.003": 12.6910428839,
			"-0.002": 13.2881894027,
			"-0.001": 14.8900047746,
			"0.0": 16.5086262119,
			"0.001": 20.9596098047,
			"0.002": 17.5557613172,
			"0.003": 15.6520834535,
			"0.004": 14.3245913705,
			"0.005": 5.43947686949,
			"0.006": 4.56671892639,
			"0.007": 9.21875938616,
			"0.008": 11.9985159279,
			"0.009": 8.68894527801,
			"0.01": 4.42404933625,
			"0.011": 5.80983463751,
			"0.012": 4.9916974442,
			"0.013": 1.59405416445,
			"0.014": 0.0283438794663,
			"0.015": 0.0,
			"0.016": 0.0,
			"0.017": 0.0,
			"0.018": 0.0,
			"0.019": 0.0,
			"0.02": 0.0,
			"0.021": 0.0,
			"0.022": 0.0,
			"0.023": 0.0,
			"0.024": 0.0,
			"0.025": 0.0
		}
	}
}
