{
	 "smiles": "CC1=CC(=CC=C1)N1C(S)=NN=C1C1=CC=CC=C1", 
	 "Tm": 407.15, 
	 "num_atms": 32, 
	 "gaussian": { 
		 "optdone": 1, 
		 "sigma_profile": "yes", 
		 "theory": "DFT", 
		 "functional": "B3LYP", 
		 "basiset": "6-31G**", 
		 "properties": { 
			 "R2extent": 6195.2941, 
			 "electric_dipole_moment_norm": 5.56299636707, 
			 "electric_quadrupole_moment_norm": 15.1281640628, 
			 "total_energy": -1141.85665619, 
			 "HOMO_LUMO_gap": 0.18094, 
			 "cosmo_polarized_energy": -15.09, 
			 "cosmo_cavitation_energy": 37.88, 
			 "cosmo_dispersion_energy": -26.42, 
			 "cosmo_repulsion_energy": 2.02, 
			 "cosmo_total_nonelectrostatic_energy": 13.48, 
			 "SMD_solvation_energy": 4.14 
		},
		"coords": [
			{
				"x": 2.8224187753,
				"y": -1.5915766171,
				"z": 0.4021215803,
				"element": "C" 
			},
			{
				"x": 1.741427704,
				"y": -0.6160079456,
				"z": 0.8030588429,
				"element": "C" 
			},
			{
				"x": 1.1594376745,
				"y": 0.2331721202,
				"z": -0.1441327633,
				"element": "C" 
			},
			{
				"x": 0.1362684875,
				"y": 1.1104993679,
				"z": 0.2241950647,
				"element": "C" 
			},
			{
				"x": -0.3178297937,
				"y": 1.1688396153,
				"z": 1.5439392954,
				"element": "C" 
			},
			{
				"x": 0.2700732171,
				"y": 0.334229564,
				"z": 2.4952047451,
				"element": "C" 
			},
			{
				"x": 1.2849348429,
				"y": -0.5486463933,
				"z": 2.1276287097,
				"element": "C" 
			},
			{
				"x": -0.438221228,
				"y": 1.9773034658,
				"z": -0.7626157353,
				"element": "N" 
			},
			{
				"x": -0.2438771532,
				"y": 3.3377702226,
				"z": -0.85513199,
				"element": "C" 
			},
			{
				"x": 0.661586537,
				"y": 4.2593312504,
				"z": 0.3505217129,
				"element": "S" 
			},
			{
				"x": -0.7929303426,
				"y": 3.8235906065,
				"z": -1.9424399355,
				"element": "N" 
			},
			{
				"x": -1.3731449013,
				"y": 2.7661361038,
				"z": -2.6051903523,
				"element": "N" 
			},
			{
				"x": -1.1624155084,
				"y": 1.6671062568,
				"z": -1.9117477806,
				"element": "C" 
			},
			{
				"x": -1.6478912177,
				"y": 0.340106524,
				"z": -2.3164658304,
				"element": "C" 
			},
			{
				"x": -1.9593170551,
				"y": -0.677838268,
				"z": -1.4003789032,
				"element": "C" 
			},
			{
				"x": -2.4491130901,
				"y": -1.9035734213,
				"z": -1.8512186144,
				"element": "C" 
			},
			{
				"x": -2.6411362011,
				"y": -2.1293471061,
				"z": -3.2148043984,
				"element": "C" 
			},
			{
				"x": -2.3454506253,
				"y": -1.1161560315,
				"z": -4.1307491353,
				"element": "C" 
			},
			{
				"x": -1.8520147332,
				"y": 0.1078112727,
				"z": -3.6884988976,
				"element": "C" 
			},
			{
				"x": 3.3758157504,
				"y": -1.2390121477,
				"z": -0.472670128,
				"element": "H" 
			},
			{
				"x": 3.5365350413,
				"y": -1.7519838851,
				"z": 1.2151582238,
				"element": "H" 
			},
			{
				"x": 2.3938914105,
				"y": -2.5683826821,
				"z": 0.1461021484,
				"element": "H" 
			},
			{
				"x": 1.4975607626,
				"y": 0.2186243756,
				"z": -1.1758044872,
				"element": "H" 
			},
			{
				"x": -1.1143246743,
				"y": 1.8547449238,
				"z": 1.8125830439,
				"element": "H" 
			},
			{
				"x": -0.067783104,
				"y": 0.3734539979,
				"z": 3.5263190407,
				"element": "H" 
			},
			{
				"x": 1.7335770407,
				"y": -1.1936276643,
				"z": 2.8786160972,
				"element": "H" 
			},
			{
				"x": 0.5332297576,
				"y": 5.4014911192,
				"z": -0.3517901362,
				"element": "H" 
			},
			{
				"x": -1.8373048155,
				"y": -0.511931344,
				"z": -0.336285114,
				"element": "H" 
			},
			{
				"x": -2.6891008959,
				"y": -2.6805183692,
				"z": -1.1310351032,
				"element": "H" 
			},
			{
				"x": -3.0225060737,
				"y": -3.085450456,
				"z": -3.5614570663,
				"element": "H" 
			},
			{
				"x": -2.4964391886,
				"y": -1.281252994,
				"z": -5.1936343678,
				"element": "H" 
			},
			{
				"x": -1.6232563997,
				"y": 0.9027945387,
				"z": -4.3896977659,
				"element": "H" 
			}
		],
		 "valence_orbital": [ 
			{
				"type": "occ",
				"energy": -0.2641,
				"method": "rhf"
			},
			{
				"type": "occ",
				"energy": -0.261,
				"method": "rhf"
			},
			{
				"type": "occ",
				"energy": -0.25296,
				"method": "rhf"
			},
			{
				"type": "occ",
				"energy": -0.24626,
				"method": "rhf"
			},
			{
				"type": "occ",
				"energy": -0.21529,
				"method": "rhf"
			},
			{
				"type": "unocc",
				"energy": -0.03435,
				"method": "rhf"
			},
			{
				"type": "unocc",
				"energy": -0.02607,
				"method": "rhf"
			},
			{
				"type": "unocc",
				"energy": -0.02306,
				"method": "rhf"
			},
			{
				"type": "unocc",
				"energy": -0.00233,
				"method": "rhf"
			},
			{
				"type": "unocc",
				"energy": 0.01554,
				"method": "rhf"
			}
		],
		"cosmo_sigma_profile": { 
			"-0.025": 0.0,
			"-0.024": 0.0,
			"-0.023": 0.0,
			"-0.022": 0.0,
			"-0.021": 0.0,
			"-0.02": 0.0,
			"-0.019": 0.0,
			"-0.018": 0.0,
			"-0.017": 0.0,
			"-0.016": 0.0,
			"-0.015": 0.0,
			"-0.014": 0.0,
			"-0.013": 0.064226617045,
			"-0.012": 1.26331557724,
			"-0.011": 1.62416658752,
			"-0.01": 0.882047062949,
			"-0.009": 1.38120197284,
			"-0.008": 1.09001939884,
			"-0.007": 5.15240438562,
			"-0.006": 17.0032070352,
			"-0.005": 24.1115246825,
			"-0.004": 30.1832624593,
			"-0.003": 22.6439389381,
			"-0.002": 23.0312995984,
			"-0.001": 24.5293007333,
			"0.0": 23.4348708862,
			"0.001": 20.2799005328,
			"0.002": 25.1885155179,
			"0.003": 22.9580960033,
			"0.004": 21.5021830756,
			"0.005": 11.7475278621,
			"0.006": 4.20320354784,
			"0.007": 3.07112509,
			"0.008": 1.77928525022,
			"0.009": 2.25236218361,
			"0.01": 2.05625020637,
			"0.011": 2.15682082454,
			"0.012": 2.71302601828,
			"0.013": 3.68159537605,
			"0.014": 2.20605371849,
			"0.015": 2.68373818023,
			"0.016": 1.13996094346,
			"0.017": 0.0307318251629,
			"0.018": 0.0,
			"0.019": 0.0,
			"0.02": 0.0,
			"0.021": 0.0,
			"0.022": 0.0,
			"0.023": 0.0,
			"0.024": 0.0,
			"0.025": 0.0
		}
	}
}
