{
	 "smiles": "CC1=CC=C(C=C1)C1=NOC(Cl)=N1", 
	 "Tm": 314.15, 
	 "num_atms": 20, 
	 "gaussian": { 
		 "optdone": 1, 
		 "sigma_profile": "yes", 
		 "theory": "DFT", 
		 "functional": "B3LYP", 
		 "basiset": "6-31G**", 
		 "properties": { 
			 "R2extent": 6322.5648, 
			 "electric_dipole_moment_norm": 2.26225747871, 
			 "electric_quadrupole_moment_norm": 8.31562351902, 
			 "total_energy": -992.054558643, 
			 "HOMO_LUMO_gap": 0.18911, 
			 "cosmo_polarized_energy": -5.74, 
			 "cosmo_cavitation_energy": 26.97, 
			 "cosmo_dispersion_energy": -20.29, 
			 "cosmo_repulsion_energy": 1.6, 
			 "cosmo_total_nonelectrostatic_energy": 8.29, 
			 "SMD_solvation_energy": 3.04 
		},
		"coords": [
			{
				"x": 1.6334799011,
				"y": 1.3625279324,
				"z": -1.6548768866,
				"element": "C" 
			},
			{
				"x": 1.0888767795,
				"y": 0.8000656069,
				"z": -0.364356173,
				"element": "C" 
			},
			{
				"x": -0.2606613472,
				"y": 0.4409190455,
				"z": -0.2467742343,
				"element": "C" 
			},
			{
				"x": -0.7615981498,
				"y": -0.1059186749,
				"z": 0.9316859574,
				"element": "C" 
			},
			{
				"x": 0.0860991056,
				"y": -0.3046289595,
				"z": 2.0299106438,
				"element": "C" 
			},
			{
				"x": 1.4391924137,
				"y": 0.0544629793,
				"z": 1.9265477673,
				"element": "C" 
			},
			{
				"x": 1.9264574677,
				"y": 0.5994075118,
				"z": 0.7440860476,
				"element": "C" 
			},
			{
				"x": -0.4462164216,
				"y": -0.8775823467,
				"z": 3.2700830568,
				"element": "C" 
			},
			{
				"x": 0.2930492015,
				"y": -1.0879016243,
				"z": 4.3401816552,
				"element": "N" 
			},
			{
				"x": -0.6169800815,
				"y": -1.6390701533,
				"z": 5.2671470247,
				"element": "O" 
			},
			{
				"x": -1.7904801848,
				"y": -1.6857035109,
				"z": 4.6283591958,
				"element": "C" 
			},
			{
				"x": -3.1226482168,
				"y": -2.3131229741,
				"z": 5.4917116521,
				"element": "Cl" 
			},
			{
				"x": -1.7761149186,
				"y": -1.2442067707,
				"z": 3.414610029,
				"element": "N" 
			},
			{
				"x": 0.8655848124,
				"y": 1.9105050437,
				"z": -2.208764113,
				"element": "H" 
			},
			{
				"x": 2.4730756389,
				"y": 2.0401986109,
				"z": -1.4740310209,
				"element": "H" 
			},
			{
				"x": 1.9978442693,
				"y": 0.5610642818,
				"z": -2.309978303,
				"element": "H" 
			},
			{
				"x": -0.9294428776,
				"y": 0.5933489565,
				"z": -1.0899795215,
				"element": "H" 
			},
			{
				"x": -1.8080451564,
				"y": -0.3791005084,
				"z": 1.0136247623,
				"element": "H" 
			},
			{
				"x": 2.0983206819,
				"y": -0.0929038964,
				"z": 2.7758616149,
				"element": "H" 
			},
			{
				"x": 2.9753070828,
				"y": 0.8768394502,
				"z": 0.6774508453,
				"element": "H" 
			}
		],
		 "valence_orbital": [ 
			{
				"type": "occ",
				"energy": -0.34055,
				"method": "rhf"
			},
			{
				"type": "occ",
				"energy": -0.30801,
				"method": "rhf"
			},
			{
				"type": "occ",
				"energy": -0.29768,
				"method": "rhf"
			},
			{
				"type": "occ",
				"energy": -0.26028,
				"method": "rhf"
			},
			{
				"type": "occ",
				"energy": -0.24276,
				"method": "rhf"
			},
			{
				"type": "unocc",
				"energy": -0.05365,
				"method": "rhf"
			},
			{
				"type": "unocc",
				"energy": -0.01773,
				"method": "rhf"
			},
			{
				"type": "unocc",
				"energy": -0.00685,
				"method": "rhf"
			},
			{
				"type": "unocc",
				"energy": 0.00651,
				"method": "rhf"
			},
			{
				"type": "unocc",
				"energy": 0.05978,
				"method": "rhf"
			}
		],
		"cosmo_sigma_profile": { 
			"-0.025": 0.0,
			"-0.024": 0.0,
			"-0.023": 0.0,
			"-0.022": 0.0,
			"-0.021": 0.0,
			"-0.02": 0.0,
			"-0.019": 0.0,
			"-0.018": 0.0,
			"-0.017": 0.0,
			"-0.016": 0.0,
			"-0.015": 0.0,
			"-0.014": 0.0,
			"-0.013": 0.0,
			"-0.012": 0.0,
			"-0.011": 0.0,
			"-0.01": 0.0,
			"-0.009": 0.0,
			"-0.008": 0.0,
			"-0.007": 0.378010364865,
			"-0.006": 8.41949107223,
			"-0.005": 15.8262872602,
			"-0.004": 19.4762640025,
			"-0.003": 16.7414445204,
			"-0.002": 19.2592769367,
			"-0.001": 22.483953349,
			"0.0": 25.047752511,
			"0.001": 26.1835702207,
			"0.002": 14.1083386414,
			"0.003": 13.1701771786,
			"0.004": 15.3294256569,
			"0.005": 7.7548296977,
			"0.006": 4.30109460494,
			"0.007": 2.70819624581,
			"0.008": 1.74132731341,
			"0.009": 2.86635567612,
			"0.01": 2.09091936596,
			"0.011": 1.32818435521,
			"0.012": 0.328723150369,
			"0.013": 0.0,
			"0.014": 0.0,
			"0.015": 0.0,
			"0.016": 0.0,
			"0.017": 0.0,
			"0.018": 0.0,
			"0.019": 0.0,
			"0.02": 0.0,
			"0.021": 0.0,
			"0.022": 0.0,
			"0.023": 0.0,
			"0.024": 0.0,
			"0.025": 0.0
		}
	}
}
