{
	 "smiles": "ClCC(=O)N1C2=C(NC(=O)C11CCCC1)C=CC=C2", 
	 "Tm": 451.15, 
	 "num_atms": 34, 
	 "gaussian": { 
		 "optdone": 1, 
		 "sigma_profile": "yes", 
		 "theory": "DFT", 
		 "functional": "B3LYP", 
		 "basiset": "6-31G**", 
		 "properties": { 
			 "R2extent": 5203.3209, 
			 "electric_dipole_moment_norm": 1.61595303459, 
			 "electric_quadrupole_moment_norm": 19.3166248493, 
			 "total_energy": -1262.684799, 
			 "HOMO_LUMO_gap": 0.16093, 
			 "cosmo_polarized_energy": -15.65, 
			 "cosmo_cavitation_energy": 35.82, 
			 "cosmo_dispersion_energy": -25.9, 
			 "cosmo_repulsion_energy": 1.95, 
			 "cosmo_total_nonelectrostatic_energy": 11.87, 
			 "SMD_solvation_energy": 5.76 
		},
		"coords": [
			{
				"x": 2.2424430405,
				"y": 0.3549231391,
				"z": 2.7127722314,
				"element": "Cl" 
			},
			{
				"x": 2.3121204398,
				"y": 0.7559528652,
				"z": 0.939288453,
				"element": "C" 
			},
			{
				"x": 0.8761942845,
				"y": 0.9141333002,
				"z": 0.429142435,
				"element": "C" 
			},
			{
				"x": 0.3427397411,
				"y": 2.0003536617,
				"z": 0.5727258311,
				"element": "O" 
			},
			{
				"x": 0.1878619808,
				"y": -0.213872088,
				"z": -0.0429600239,
				"element": "N" 
			},
			{
				"x": -1.2169049691,
				"y": -0.2765536685,
				"z": 0.2130537504,
				"element": "C" 
			},
			{
				"x": -2.0298137764,
				"y": -1.0760174823,
				"z": -0.6023656502,
				"element": "C" 
			},
			{
				"x": -1.4307101657,
				"y": -1.8117145095,
				"z": -1.6318611512,
				"element": "N" 
			},
			{
				"x": -0.0995503394,
				"y": -2.0865786339,
				"z": -1.718071573,
				"element": "C" 
			},
			{
				"x": 0.324068528,
				"y": -2.9277644918,
				"z": -2.5002929712,
				"element": "O" 
			},
			{
				"x": 0.8780454183,
				"y": -1.2889539622,
				"z": -0.827926548,
				"element": "C" 
			},
			{
				"x": 1.6746345214,
				"y": -2.3270707991,
				"z": 0.0500241173,
				"element": "C" 
			},
			{
				"x": 3.1139402337,
				"y": -2.3908309069,
				"z": -0.517570177,
				"element": "C" 
			},
			{
				"x": 3.0365873758,
				"y": -1.7751204224,
				"z": -1.9298643564,
				"element": "C" 
			},
			{
				"x": 1.9293689493,
				"y": -0.712044254,
				"z": -1.8443592446,
				"element": "C" 
			},
			{
				"x": -3.4062484703,
				"y": -1.1748399045,
				"z": -0.3801191568,
				"element": "C" 
			},
			{
				"x": -3.9952389138,
				"y": -0.4824069583,
				"z": 0.6717019653,
				"element": "C" 
			},
			{
				"x": -3.1927850564,
				"y": 0.2893449147,
				"z": 1.5137451757,
				"element": "C" 
			},
			{
				"x": -1.8213811546,
				"y": 0.3842255855,
				"z": 1.2937092345,
				"element": "C" 
			},
			{
				"x": 2.8070904345,
				"y": 1.7216589871,
				"z": 0.8545656509,
				"element": "H" 
			},
			{
				"x": 2.9074019561,
				"y": -0.0249388647,
				"z": 0.4831792565,
				"element": "H" 
			},
			{
				"x": -2.013481335,
				"y": -2.3925056866,
				"z": -2.2223909766,
				"element": "H" 
			},
			{
				"x": 1.1958285386,
				"y": -3.3068051169,
				"z": -0.0139594929,
				"element": "H" 
			},
			{
				"x": 1.6485893906,
				"y": -2.0244390142,
				"z": 1.0992664612,
				"element": "H" 
			},
			{
				"x": 3.802812221,
				"y": -1.8194609112,
				"z": 0.1166137719,
				"element": "H" 
			},
			{
				"x": 3.4984760617,
				"y": -3.4143767266,
				"z": -0.5380151245,
				"element": "H" 
			},
			{
				"x": 2.7385735849,
				"y": -2.5389758066,
				"z": -2.6499358153,
				"element": "H" 
			},
			{
				"x": 3.9908789609,
				"y": -1.3497962714,
				"z": -2.2573110702,
				"element": "H" 
			},
			{
				"x": 1.468757115,
				"y": -0.5074625503,
				"z": -2.8139144444,
				"element": "H" 
			},
			{
				"x": 2.3238350283,
				"y": 0.2420985938,
				"z": -1.4875524112,
				"element": "H" 
			},
			{
				"x": -4.0024379171,
				"y": -1.8044652171,
				"z": -1.0355707245,
				"element": "H" 
			},
			{
				"x": -5.0655030326,
				"y": -0.5536745295,
				"z": 0.836730822,
				"element": "H" 
			},
			{
				"x": -3.6311678595,
				"y": 0.8232857788,
				"z": 2.3507570979,
				"element": "H" 
			},
			{
				"x": -1.221724815,
				"y": 0.9982919505,
				"z": 1.9508646574,
				"element": "H" 
			}
		],
		 "valence_orbital": [ 
			{
				"type": "occ",
				"energy": -0.30062,
				"method": "rhf"
			},
			{
				"type": "occ",
				"energy": -0.27517,
				"method": "rhf"
			},
			{
				"type": "occ",
				"energy": -0.26495,
				"method": "rhf"
			},
			{
				"type": "occ",
				"energy": -0.23846,
				"method": "rhf"
			},
			{
				"type": "occ",
				"energy": -0.21376,
				"method": "rhf"
			},
			{
				"type": "unocc",
				"energy": -0.05283,
				"method": "rhf"
			},
			{
				"type": "unocc",
				"energy": -0.01535,
				"method": "rhf"
			},
			{
				"type": "unocc",
				"energy": -0.00247,
				"method": "rhf"
			},
			{
				"type": "unocc",
				"energy": 0.02926,
				"method": "rhf"
			},
			{
				"type": "unocc",
				"energy": 0.04746,
				"method": "rhf"
			}
		],
		"cosmo_sigma_profile": { 
			"-0.025": 0.0,
			"-0.024": 0.0,
			"-0.023": 0.0,
			"-0.022": 0.0,
			"-0.021": 0.0,
			"-0.02": 0.0,
			"-0.019": 0.0,
			"-0.018": 0.0,
			"-0.017": 0.0,
			"-0.016": 0.0812122799847,
			"-0.015": 1.0695903568,
			"-0.014": 1.54927219354,
			"-0.013": 1.44160035066,
			"-0.012": 0.520687278764,
			"-0.011": 1.34687885688,
			"-0.01": 1.29468874825,
			"-0.009": 2.49963627326,
			"-0.008": 6.82442611478,
			"-0.007": 7.27628988675,
			"-0.006": 11.0581395066,
			"-0.005": 15.6458570577,
			"-0.004": 18.7714093878,
			"-0.003": 22.5872546189,
			"-0.002": 26.7645062711,
			"-0.001": 26.3633645734,
			"0.0": 23.998548772,
			"0.001": 17.056062809,
			"0.002": 14.48312235,
			"0.003": 15.4111298585,
			"0.004": 15.9499631138,
			"0.005": 18.3673841309,
			"0.006": 6.74292645493,
			"0.007": 3.27793877408,
			"0.008": 3.39804273737,
			"0.009": 2.92034742795,
			"0.01": 4.11160107471,
			"0.011": 5.2356725612,
			"0.012": 6.5179809242,
			"0.013": 3.23664758741,
			"0.014": 0.191907519944,
			"0.015": 0.0,
			"0.016": 0.0,
			"0.017": 0.0,
			"0.018": 0.0,
			"0.019": 0.0,
			"0.02": 0.0,
			"0.021": 0.0,
			"0.022": 0.0,
			"0.023": 0.0,
			"0.024": 0.0,
			"0.025": 0.0
		}
	}
}
