{
	 "smiles": "CC(C)N1N=CC2=C1N=C(C)NC2=O", 
	 "Tm": 448.15, 
	 "num_atms": 26, 
	 "gaussian": { 
		 "optdone": 1, 
		 "sigma_profile": "yes", 
		 "theory": "DFT", 
		 "functional": "B3LYP", 
		 "basiset": "6-31G**", 
		 "properties": { 
			 "R2extent": 3401.0899, 
			 "electric_dipole_moment_norm": 4.74041677704, 
			 "electric_quadrupole_moment_norm": 15.8500661365, 
			 "total_energy": -644.446293714, 
			 "HOMO_LUMO_gap": 0.19692, 
			 "cosmo_polarized_energy": -14.94, 
			 "cosmo_cavitation_energy": 29.39, 
			 "cosmo_dispersion_energy": -21.04, 
			 "cosmo_repulsion_energy": 1.67, 
			 "cosmo_total_nonelectrostatic_energy": 10.02, 
			 "SMD_solvation_energy": 4.38 
		},
		"coords": [
			{
				"x": 0.6365885534,
				"y": -0.3702138746,
				"z": -2.5295497927,
				"element": "C" 
			},
			{
				"x": 1.3542228455,
				"y": -1.1666150514,
				"z": -1.4330969842,
				"element": "C" 
			},
			{
				"x": 0.4810036127,
				"y": -2.2780888303,
				"z": -0.8385201366,
				"element": "C" 
			},
			{
				"x": 1.8609146922,
				"y": -0.2728045782,
				"z": -0.3780403675,
				"element": "N" 
			},
			{
				"x": 3.2089271307,
				"y": -0.1900265185,
				"z": -0.1611725234,
				"element": "N" 
			},
			{
				"x": 3.3730082884,
				"y": 0.675354626,
				"z": 0.8300511517,
				"element": "C" 
			},
			{
				"x": 2.1281044423,
				"y": 1.1742305503,
				"z": 1.2791752959,
				"element": "C" 
			},
			{
				"x": 1.174995821,
				"y": 0.5352008483,
				"z": 0.4708125418,
				"element": "C" 
			},
			{
				"x": -0.1835925969,
				"y": 0.684727333,
				"z": 0.5152242189,
				"element": "N" 
			},
			{
				"x": -0.5925826113,
				"y": 1.5259679104,
				"z": 1.4270501877,
				"element": "C" 
			},
			{
				"x": -2.0673508693,
				"y": 1.7856955611,
				"z": 1.5851907857,
				"element": "C" 
			},
			{
				"x": 0.2596256034,
				"y": 2.1994075449,
				"z": 2.2649508421,
				"element": "N" 
			},
			{
				"x": 1.686113375,
				"y": 2.102253592,
				"z": 2.2859887666,
				"element": "C" 
			},
			{
				"x": 2.3291279367,
				"y": 2.761210705,
				"z": 3.0882239852,
				"element": "O" 
			},
			{
				"x": 0.3434116991,
				"y": -1.041923931,
				"z": -3.3425470691,
				"element": "H" 
			},
			{
				"x": 1.2937586877,
				"y": 0.4007775114,
				"z": -2.9420990092,
				"element": "H" 
			},
			{
				"x": -0.2630967052,
				"y": 0.1091072208,
				"z": -2.1351597851,
				"element": "H" 
			},
			{
				"x": 2.2672401414,
				"y": -1.6052557585,
				"z": -1.8440123447,
				"element": "H" 
			},
			{
				"x": 1.0300873463,
				"y": -2.8357661737,
				"z": -0.0743205396,
				"element": "H" 
			},
			{
				"x": -0.4234378595,
				"y": -1.8615781055,
				"z": -0.3877134408,
				"element": "H" 
			},
			{
				"x": 0.1849517149,
				"y": -2.9772346587,
				"z": -1.6269677912,
				"element": "H" 
			},
			{
				"x": 4.3649271908,
				"y": 0.9126095584,
				"z": 1.1885002887,
				"element": "H" 
			},
			{
				"x": -2.5847539231,
				"y": 0.8498446394,
				"z": 1.8135900993,
				"element": "H" 
			},
			{
				"x": -2.4781445019,
				"y": 2.166030609,
				"z": 0.6458963467,
				"element": "H" 
			},
			{
				"x": -2.2798445894,
				"y": 2.5065288627,
				"z": 2.3782854615,
				"element": "H" 
			},
			{
				"x": -0.117405425,
				"y": 2.8396604077,
				"z": 2.9528598124,
				"element": "H" 
			}
		],
		 "valence_orbital": [ 
			{
				"type": "occ",
				"energy": -0.29702,
				"method": "rhf"
			},
			{
				"type": "occ",
				"energy": -0.28532,
				"method": "rhf"
			},
			{
				"type": "occ",
				"energy": -0.26035,
				"method": "rhf"
			},
			{
				"type": "occ",
				"energy": -0.25401,
				"method": "rhf"
			},
			{
				"type": "occ",
				"energy": -0.22654,
				"method": "rhf"
			},
			{
				"type": "unocc",
				"energy": -0.02962,
				"method": "rhf"
			},
			{
				"type": "unocc",
				"energy": -0.00598,
				"method": "rhf"
			},
			{
				"type": "unocc",
				"energy": 0.04494,
				"method": "rhf"
			},
			{
				"type": "unocc",
				"energy": 0.06563,
				"method": "rhf"
			},
			{
				"type": "unocc",
				"energy": 0.09451,
				"method": "rhf"
			}
		],
		"cosmo_sigma_profile": { 
			"-0.025": 0.0,
			"-0.024": 0.0,
			"-0.023": 0.0,
			"-0.022": 0.0,
			"-0.021": 0.0,
			"-0.02": 0.0,
			"-0.019": 0.0,
			"-0.018": 0.0,
			"-0.017": 0.0,
			"-0.016": 0.74344778824,
			"-0.015": 1.03041439488,
			"-0.014": 1.02852873766,
			"-0.013": 1.79675006765,
			"-0.012": 0.969421631585,
			"-0.011": 1.294713002,
			"-0.01": 0.941820027048,
			"-0.009": 1.29881742693,
			"-0.008": 2.88055651505,
			"-0.007": 3.91723125519,
			"-0.006": 7.05652002264,
			"-0.005": 8.92202368709,
			"-0.004": 20.8136097906,
			"-0.003": 23.8296244239,
			"-0.002": 25.7758191651,
			"-0.001": 21.4963604633,
			"0.0": 24.5075198554,
			"0.001": 18.2688704156,
			"0.002": 10.8452909119,
			"0.003": 8.38935501811,
			"0.004": 6.12790562733,
			"0.005": 4.8619382827,
			"0.006": 4.82595074027,
			"0.007": 4.20949265839,
			"0.008": 3.76189217566,
			"0.009": 2.29943751765,
			"0.01": 3.05157286248,
			"0.011": 3.15831219031,
			"0.012": 4.37318200201,
			"0.013": 7.0454461633,
			"0.014": 2.66249755177,
			"0.015": 0.496801364296,
			"0.016": 0.016289156027,
			"0.017": 0.0,
			"0.018": 0.0,
			"0.019": 0.0,
			"0.02": 0.0,
			"0.021": 0.0,
			"0.022": 0.0,
			"0.023": 0.0,
			"0.024": 0.0,
			"0.025": 0.0
		}
	}
}
