{
	 "smiles": "CC1=NN(C(N)=C1C1=CC=CC=C1)C1=CC=CC=C1", 
	 "Tm": 356.15, 
	 "num_atms": 34, 
	 "gaussian": { 
		 "optdone": 1, 
		 "sigma_profile": "yes", 
		 "theory": "DFT", 
		 "functional": "B3LYP", 
		 "basiset": "6-31G**", 
		 "properties": { 
			 "R2extent": 6410.8243, 
			 "electric_dipole_moment_norm": 2.59412923348, 
			 "electric_quadrupole_moment_norm": 9.72049133738, 
			 "total_energy": -782.994490145, 
			 "HOMO_LUMO_gap": 0.1782, 
			 "cosmo_polarized_energy": -12.11, 
			 "cosmo_cavitation_energy": 37.06, 
			 "cosmo_dispersion_energy": -26.9, 
			 "cosmo_repulsion_energy": 2.06, 
			 "cosmo_total_nonelectrostatic_energy": 12.22, 
			 "SMD_solvation_energy": 5.31 
		},
		"coords": [
			{
				"x": 1.9734414723,
				"y": 2.0506491655,
				"z": 0.1418196228,
				"element": "C" 
			},
			{
				"x": 0.9316555476,
				"y": 0.9727689829,
				"z": 0.1583474663,
				"element": "C" 
			},
			{
				"x": -0.2405083834,
				"y": 1.1936840744,
				"z": -0.4159735816,
				"element": "N" 
			},
			{
				"x": -0.9464381956,
				"y": 0.0206886843,
				"z": -0.266319986,
				"element": "N" 
			},
			{
				"x": -0.2159054182,
				"y": -0.9176437649,
				"z": 0.4130888387,
				"element": "C" 
			},
			{
				"x": -0.7029377465,
				"y": -2.1863071001,
				"z": 0.7171413081,
				"element": "N" 
			},
			{
				"x": 1.0230911002,
				"y": -0.3478158857,
				"z": 0.7017559581,
				"element": "C" 
			},
			{
				"x": 2.1372363227,
				"y": -0.9937054422,
				"z": 1.4107040502,
				"element": "C" 
			},
			{
				"x": 2.4517907009,
				"y": -2.3488647274,
				"z": 1.1830240221,
				"element": "C" 
			},
			{
				"x": 3.4963464306,
				"y": -2.9715603792,
				"z": 1.8666564336,
				"element": "C" 
			},
			{
				"x": 4.2647046682,
				"y": -2.2543306204,
				"z": 2.7846998809,
				"element": "C" 
			},
			{
				"x": 3.9738800702,
				"y": -0.9074754563,
				"z": 3.0142074719,
				"element": "C" 
			},
			{
				"x": 2.9218749105,
				"y": -0.2874524263,
				"z": 2.3427159028,
				"element": "C" 
			},
			{
				"x": -2.2784840344,
				"y": -0.0514539588,
				"z": -0.7455854256,
				"element": "C" 
			},
			{
				"x": -2.8025113679,
				"y": -1.2489416335,
				"z": -1.2522803398,
				"element": "C" 
			},
			{
				"x": -4.1201818685,
				"y": -1.2845076297,
				"z": -1.7122427065,
				"element": "C" 
			},
			{
				"x": -4.9107039687,
				"y": -0.1355973566,
				"z": -1.6921206107,
				"element": "C" 
			},
			{
				"x": -4.3724366761,
				"y": 1.0604146534,
				"z": -1.2088522342,
				"element": "C" 
			},
			{
				"x": -3.0653973638,
				"y": 1.108374349,
				"z": -0.7316949029,
				"element": "C" 
			},
			{
				"x": 2.0567271221,
				"y": 2.5547735253,
				"z": 1.1120129422,
				"element": "H" 
			},
			{
				"x": 1.7057574468,
				"y": 2.8030971047,
				"z": -0.6033244766,
				"element": "H" 
			},
			{
				"x": 2.9607100183,
				"y": 1.6452096418,
				"z": -0.1002306078,
				"element": "H" 
			},
			{
				"x": -1.695037573,
				"y": -2.2020951349,
				"z": 0.927927722,
				"element": "H" 
			},
			{
				"x": -0.1659030151,
				"y": -2.6185461977,
				"z": 1.4605633891,
				"element": "H" 
			},
			{
				"x": 1.8905814664,
				"y": -2.9073856375,
				"z": 0.438945619,
				"element": "H" 
			},
			{
				"x": 3.7188452953,
				"y": -4.0166812012,
				"z": 1.6688033718,
				"element": "H" 
			},
			{
				"x": 5.0816707331,
				"y": -2.7370395494,
				"z": 3.3130122839,
				"element": "H" 
			},
			{
				"x": 4.5626963551,
				"y": -0.3385610419,
				"z": 3.7286759233,
				"element": "H" 
			},
			{
				"x": 2.6909021617,
				"y": 0.7516628794,
				"z": 2.5534406631,
				"element": "H" 
			},
			{
				"x": -2.1782775413,
				"y": -2.1334251027,
				"z": -1.3098369507,
				"element": "H" 
			},
			{
				"x": -4.5200102,
				"y": -2.2152365879,
				"z": -2.1044051386,
				"element": "H" 
			},
			{
				"x": -5.9330727892,
				"y": -0.168233325,
				"z": -2.0563129455,
				"element": "H" 
			},
			{
				"x": -4.9765793896,
				"y": 1.9630476063,
				"z": -1.1967402189,
				"element": "H" 
			},
			{
				"x": -2.6315262908,
				"y": 2.0280894922,
				"z": -0.3586227444,
				"element": "H" 
			}
		],
		 "valence_orbital": [ 
			{
				"type": "occ",
				"energy": -0.25775,
				"method": "rhf"
			},
			{
				"type": "occ",
				"energy": -0.25351,
				"method": "rhf"
			},
			{
				"type": "occ",
				"energy": -0.24851,
				"method": "rhf"
			},
			{
				"type": "occ",
				"energy": -0.21255,
				"method": "rhf"
			},
			{
				"type": "occ",
				"energy": -0.19633,
				"method": "rhf"
			},
			{
				"type": "unocc",
				"energy": -0.01813,
				"method": "rhf"
			},
			{
				"type": "unocc",
				"energy": -0.00725,
				"method": "rhf"
			},
			{
				"type": "unocc",
				"energy": -0.00173,
				"method": "rhf"
			},
			{
				"type": "unocc",
				"energy": -0.00069,
				"method": "rhf"
			},
			{
				"type": "unocc",
				"energy": 0.04803,
				"method": "rhf"
			}
		],
		"cosmo_sigma_profile": { 
			"-0.025": 0.0,
			"-0.024": 0.0,
			"-0.023": 0.0,
			"-0.022": 0.0,
			"-0.021": 0.0,
			"-0.02": 0.0,
			"-0.019": 0.0,
			"-0.018": 0.0,
			"-0.017": 0.0,
			"-0.016": 0.0,
			"-0.015": 0.0,
			"-0.014": 0.0,
			"-0.013": 0.303951918398,
			"-0.012": 1.79592817221,
			"-0.011": 2.83045096359,
			"-0.01": 1.9085716264,
			"-0.009": 2.08629908514,
			"-0.008": 2.39884125246,
			"-0.007": 2.72652738803,
			"-0.006": 10.5336649251,
			"-0.005": 22.3550208646,
			"-0.004": 26.3488918735,
			"-0.003": 24.609544687,
			"-0.002": 21.9715644544,
			"-0.001": 20.9782117683,
			"0.0": 21.9652191793,
			"0.001": 18.8950349351,
			"0.002": 19.1305757164,
			"0.003": 21.0975096126,
			"0.004": 25.5421877487,
			"0.005": 22.0066666067,
			"0.006": 11.9579632876,
			"0.007": 3.53245099008,
			"0.008": 2.25066241758,
			"0.009": 1.86161475977,
			"0.01": 1.84814903856,
			"0.011": 1.52666278743,
			"0.012": 1.49079686817,
			"0.013": 0.883057559443,
			"0.014": 0.49481214974,
			"0.015": 0.631456615294,
			"0.016": 0.29036563648,
			"0.017": 0.0,
			"0.018": 0.0,
			"0.019": 0.0,
			"0.02": 0.0,
			"0.021": 0.0,
			"0.022": 0.0,
			"0.023": 0.0,
			"0.024": 0.0,
			"0.025": 0.0
		}
	}
}
