{
	 "smiles": "COC(=O)C(C)NC(=O)C1=CC(=C(Cl)C=C1)[N+]([O-])=O", 
	 "Tm": 376.15, 
	 "num_atms": 30, 
	 "gaussian": { 
		 "optdone": 1, 
		 "sigma_profile": "yes", 
		 "theory": "DFT", 
		 "functional": "B3LYP", 
		 "basiset": "6-31G**", 
		 "properties": { 
			 "R2extent": 8752.7157, 
			 "electric_dipole_moment_norm": 4.75165689207, 
			 "electric_quadrupole_moment_norm": 30.5164172212, 
			 "total_energy": -1371.5337011, 
			 "HOMO_LUMO_gap": 0.17303, 
			 "cosmo_polarized_energy": -16.13, 
			 "cosmo_cavitation_energy": 37.91, 
			 "cosmo_dispersion_energy": -26.76, 
			 "cosmo_repulsion_energy": 2.08, 
			 "cosmo_total_nonelectrostatic_energy": 13.23, 
			 "SMD_solvation_energy": 10.07 
		},
		"coords": [
			{
				"x": 2.1718325272,
				"y": -2.5749850739,
				"z": -4.5193691809,
				"element": "C" 
			},
			{
				"x": 2.4309296772,
				"y": -1.7906151731,
				"z": -3.3380874323,
				"element": "O" 
			},
			{
				"x": 1.3897497023,
				"y": -1.627097084,
				"z": -2.5112380585,
				"element": "C" 
			},
			{
				"x": 0.2818452969,
				"y": -2.0873363429,
				"z": -2.7070326718,
				"element": "O" 
			},
			{
				"x": 1.7706566652,
				"y": -0.7988096669,
				"z": -1.2892861792,
				"element": "C" 
			},
			{
				"x": 2.8823250506,
				"y": -1.4712464351,
				"z": -0.4635054616,
				"element": "C" 
			},
			{
				"x": 0.553579089,
				"y": -0.5924935762,
				"z": -0.5204668516,
				"element": "N" 
			},
			{
				"x": 0.4353905547,
				"y": 0.4666045357,
				"z": 0.3270699977,
				"element": "C" 
			},
			{
				"x": 1.3586864178,
				"y": 1.2516683436,
				"z": 0.5369468812,
				"element": "O" 
			},
			{
				"x": -0.8944247577,
				"y": 0.638190473,
				"z": 1.0132806542,
				"element": "C" 
			},
			{
				"x": -1.8575315877,
				"y": -0.3653233722,
				"z": 1.1040519373,
				"element": "C" 
			},
			{
				"x": -3.0703193405,
				"y": -0.1292774082,
				"z": 1.7538381709,
				"element": "C" 
			},
			{
				"x": -3.3303949778,
				"y": 1.1125976074,
				"z": 2.3540144246,
				"element": "C" 
			},
			{
				"x": -4.7769848008,
				"y": 1.4725600541,
				"z": 3.2504601127,
				"element": "Cl" 
			},
			{
				"x": -2.3468105272,
				"y": 2.106004645,
				"z": 2.2861516845,
				"element": "C" 
			},
			{
				"x": -1.1489965115,
				"y": 1.8739411671,
				"z": 1.6228791416,
				"element": "C" 
			},
			{
				"x": -4.0298911703,
				"y": -1.2492147064,
				"z": 1.7611867047,
				"element": "N" 
			},
			{
				"x": -5.2269220509,
				"y": -0.9856375295,
				"z": 1.7539781612,
				"element": "O" 
			},
			{
				"x": -3.5527691752,
				"y": -2.3842790571,
				"z": 1.741196228,
				"element": "O" 
			},
			{
				"x": 1.3921624255,
				"y": -2.1061855777,
				"z": -5.1239281261,
				"element": "H" 
			},
			{
				"x": 3.1154463679,
				"y": -2.6035020739,
				"z": -5.0626822188,
				"element": "H" 
			},
			{
				"x": 1.8530394271,
				"y": -3.5831018739,
				"z": -4.2452152833,
				"element": "H" 
			},
			{
				"x": 2.1417731269,
				"y": 0.1743549396,
				"z": -1.6344325209,
				"element": "H" 
			},
			{
				"x": 3.7835714213,
				"y": -1.5954359243,
				"z": -1.0681765389,
				"element": "H" 
			},
			{
				"x": 2.5568102079,
				"y": -2.4513276793,
				"z": -0.1023458214,
				"element": "H" 
			},
			{
				"x": 3.1136783846,
				"y": -0.8364866811,
				"z": 0.3938829805,
				"element": "H" 
			},
			{
				"x": -0.2572254281,
				"y": -1.0955649364,
				"z": -0.8592101401,
				"element": "H" 
			},
			{
				"x": -1.6970366722,
				"y": -1.3602510966,
				"z": 0.7064826141,
				"element": "H" 
			},
			{
				"x": -2.5362505363,
				"y": 3.0588550924,
				"z": 2.7671973378,
				"element": "H" 
			},
			{
				"x": -0.3818188057,
				"y": 2.6387944106,
				"z": 1.5725594543,
				"element": "H" 
			}
		],
		 "valence_orbital": [ 
			{
				"type": "occ",
				"energy": -0.29962,
				"method": "rhf"
			},
			{
				"type": "occ",
				"energy": -0.28578,
				"method": "rhf"
			},
			{
				"type": "occ",
				"energy": -0.27654,
				"method": "rhf"
			},
			{
				"type": "occ",
				"energy": -0.26934,
				"method": "rhf"
			},
			{
				"type": "occ",
				"energy": -0.26749,
				"method": "rhf"
			},
			{
				"type": "unocc",
				"energy": -0.09446,
				"method": "rhf"
			},
			{
				"type": "unocc",
				"energy": -0.06176,
				"method": "rhf"
			},
			{
				"type": "unocc",
				"energy": -0.02355,
				"method": "rhf"
			},
			{
				"type": "unocc",
				"energy": -0.0115,
				"method": "rhf"
			},
			{
				"type": "unocc",
				"energy": 0.00833,
				"method": "rhf"
			}
		],
		"cosmo_sigma_profile": { 
			"-0.025": 0.0,
			"-0.024": 0.0,
			"-0.023": 0.0,
			"-0.022": 0.0,
			"-0.021": 0.0,
			"-0.02": 0.0,
			"-0.019": 0.0,
			"-0.018": 0.0,
			"-0.017": 0.0,
			"-0.016": 0.0,
			"-0.015": 0.0,
			"-0.014": 0.0400927215788,
			"-0.013": 1.03645778907,
			"-0.012": 0.78050549509,
			"-0.011": 0.775110927233,
			"-0.01": 1.05768606416,
			"-0.009": 2.79891563731,
			"-0.008": 4.98700959982,
			"-0.007": 11.7375756704,
			"-0.006": 14.9811990794,
			"-0.005": 17.9449622474,
			"-0.004": 23.9736532556,
			"-0.003": 25.2896462432,
			"-0.002": 29.3051704837,
			"-0.001": 29.2077188769,
			"0.0": 26.6619394816,
			"0.001": 14.2908937542,
			"0.002": 13.537032947,
			"0.003": 14.6060134402,
			"0.004": 9.31075494706,
			"0.005": 6.89688508987,
			"0.006": 9.36209908121,
			"0.007": 14.6089741625,
			"0.008": 9.90171625156,
			"0.009": 5.95744668744,
			"0.01": 4.57552612673,
			"0.011": 4.21442222905,
			"0.012": 2.84385797446,
			"0.013": 3.738012566,
			"0.014": 0.282275735152,
			"0.015": 0.0,
			"0.016": 0.0,
			"0.017": 0.0,
			"0.018": 0.0,
			"0.019": 0.0,
			"0.02": 0.0,
			"0.021": 0.0,
			"0.022": 0.0,
			"0.023": 0.0,
			"0.024": 0.0,
			"0.025": 0.0
		}
	}
}
