{
	 "smiles": "NNC(=O)C1=C(Cl)C2=C(S1)C=C(F)C=C2", 
	 "Tm": 513.15, 
	 "num_atms": 21, 
	 "gaussian": { 
		 "optdone": 1, 
		 "sigma_profile": "yes", 
		 "theory": "DFT", 
		 "functional": "B3LYP", 
		 "basiset": "6-31G**", 
		 "properties": { 
			 "R2extent": 4689.9918, 
			 "electric_dipole_moment_norm": 2.05676406036, 
			 "electric_quadrupole_moment_norm": 7.39695641193, 
			 "total_energy": -1489.49011388, 
			 "HOMO_LUMO_gap": 0.16848, 
			 "cosmo_polarized_energy": -12.8, 
			 "cosmo_cavitation_energy": 29.75, 
			 "cosmo_dispersion_energy": -22.37, 
			 "cosmo_repulsion_energy": 1.67, 
			 "cosmo_total_nonelectrostatic_energy": 9.05, 
			 "SMD_solvation_energy": 5.85 
		},
		"coords": [
			{
				"x": -4.6662543819,
				"y": 0.0467397863,
				"z": 0.2688988092,
				"element": "N" 
			},
			{
				"x": -3.3521390122,
				"y": 0.5427462648,
				"z": 0.1304177182,
				"element": "N" 
			},
			{
				"x": -2.2816582197,
				"y": -0.3197461066,
				"z": 0.2403587943,
				"element": "C" 
			},
			{
				"x": -2.4227700788,
				"y": -1.4901324403,
				"z": 0.5697946623,
				"element": "O" 
			},
			{
				"x": -0.9585861817,
				"y": 0.2945228608,
				"z": -0.0513489124,
				"element": "C" 
			},
			{
				"x": 0.1862803273,
				"y": -0.3232683836,
				"z": -0.4739836746,
				"element": "C" 
			},
			{
				"x": 0.337428373,
				"y": -2.0198371353,
				"z": -0.8008150203,
				"element": "Cl" 
			},
			{
				"x": 1.3036209289,
				"y": 0.5659792684,
				"z": -0.6712527925,
				"element": "C" 
			},
			{
				"x": 0.9586111953,
				"y": 1.9038036465,
				"z": -0.367047899,
				"element": "C" 
			},
			{
				"x": -0.7070925067,
				"y": 2.0350816157,
				"z": 0.1563920628,
				"element": "S" 
			},
			{
				"x": 1.8858478234,
				"y": 2.9450335044,
				"z": -0.4763512159,
				"element": "C" 
			},
			{
				"x": 3.159307985,
				"y": 2.607677499,
				"z": -0.9034379075,
				"element": "C" 
			},
			{
				"x": 4.0792309827,
				"y": 3.5835908532,
				"z": -1.0246451259,
				"element": "F" 
			},
			{
				"x": 3.5381076533,
				"y": 1.2943909461,
				"z": -1.2181183271,
				"element": "C" 
			},
			{
				"x": 2.6103960835,
				"y": 0.2721593642,
				"z": -1.1019550834,
				"element": "C" 
			},
			{
				"x": -4.645397183,
				"y": -0.9290229608,
				"z": -0.0327233179,
				"element": "H" 
			},
			{
				"x": -4.8751496483,
				"y": 0.0172229611,
				"z": 1.2662853889,
				"element": "H" 
			},
			{
				"x": -3.2800912221,
				"y": 1.3400090662,
				"z": -0.4879216437,
				"element": "H" 
			},
			{
				"x": 1.6413980699,
				"y": 3.9755120972,
				"z": -0.245392809,
				"element": "H" 
			},
			{
				"x": 4.5540065003,
				"y": 1.1058317861,
				"z": -1.5463812687,
				"element": "H" 
			},
			{
				"x": 2.8817025117,
				"y": -0.7508944933,
				"z": -1.3387724379,
				"element": "H" 
			}
		],
		 "valence_orbital": [ 
			{
				"type": "occ",
				"energy": -0.29054,
				"method": "rhf"
			},
			{
				"type": "occ",
				"energy": -0.26967,
				"method": "rhf"
			},
			{
				"type": "occ",
				"energy": -0.26351,
				"method": "rhf"
			},
			{
				"type": "occ",
				"energy": -0.25572,
				"method": "rhf"
			},
			{
				"type": "occ",
				"energy": -0.2344,
				"method": "rhf"
			},
			{
				"type": "unocc",
				"energy": -0.06592,
				"method": "rhf"
			},
			{
				"type": "unocc",
				"energy": -0.02879,
				"method": "rhf"
			},
			{
				"type": "unocc",
				"energy": -0.01183,
				"method": "rhf"
			},
			{
				"type": "unocc",
				"energy": 0.01014,
				"method": "rhf"
			},
			{
				"type": "unocc",
				"energy": 0.03376,
				"method": "rhf"
			}
		],
		"cosmo_sigma_profile": { 
			"-0.025": 0.0,
			"-0.024": 0.0,
			"-0.023": 0.0,
			"-0.022": 0.0,
			"-0.021": 0.0,
			"-0.02": 0.0,
			"-0.019": 0.0,
			"-0.018": 0.0,
			"-0.017": 0.0,
			"-0.016": 0.0,
			"-0.015": 0.0586894837402,
			"-0.014": 0.611340341342,
			"-0.013": 1.00208306184,
			"-0.012": 1.87033117634,
			"-0.011": 2.87790011789,
			"-0.01": 3.31426543583,
			"-0.009": 5.47233514244,
			"-0.008": 7.03728354533,
			"-0.007": 6.89615608889,
			"-0.006": 8.52364811213,
			"-0.005": 8.74238706017,
			"-0.004": 9.0239722427,
			"-0.003": 10.1134050737,
			"-0.002": 12.3443984695,
			"-0.001": 20.4636222076,
			"0.0": 31.1812399706,
			"0.001": 31.4034063555,
			"0.002": 21.3989208326,
			"0.003": 16.8348747695,
			"0.004": 15.3555813508,
			"0.005": 2.51523402745,
			"0.006": 2.49994150127,
			"0.007": 3.15096624548,
			"0.008": 2.45188350238,
			"0.009": 2.28550270755,
			"0.01": 2.91865518384,
			"0.011": 2.59097809446,
			"0.012": 4.36701986206,
			"0.013": 3.55922690725,
			"0.014": 1.34292655955,
			"0.015": 0.438301550688,
			"0.016": 0.485863238466,
			"0.017": 0.0976881660919,
			"0.018": 0.0,
			"0.019": 0.0,
			"0.02": 0.0,
			"0.021": 0.0,
			"0.022": 0.0,
			"0.023": 0.0,
			"0.024": 0.0,
			"0.025": 0.0
		}
	}
}
