{
	 "smiles": "CCCC1=CC=C(C=C1)C1=CC=C(N)C=C1", 
	 "Tm": 338.15, 
	 "num_atms": 33, 
	 "gaussian": { 
		 "optdone": 1, 
		 "sigma_profile": "yes", 
		 "theory": "DFT", 
		 "functional": "B3LYP", 
		 "basiset": "6-31G**", 
		 "properties": { 
			 "R2extent": 5926.6362, 
			 "electric_dipole_moment_norm": 1.92020885322, 
			 "electric_quadrupole_moment_norm": 18.7632308284, 
			 "total_energy": -636.620233481, 
			 "HOMO_LUMO_gap": 0.17725, 
			 "cosmo_polarized_energy": -9.9, 
			 "cosmo_cavitation_energy": 35.63, 
			 "cosmo_dispersion_energy": -25.55, 
			 "cosmo_repulsion_energy": 2.0, 
			 "cosmo_total_nonelectrostatic_energy": 12.09, 
			 "SMD_solvation_energy": 5.48 
		},
		"coords": [
			{
				"x": 1.3382787447,
				"y": 4.6578427898,
				"z": -2.0139078587,
				"element": "C" 
			},
			{
				"x": 0.6020762219,
				"y": 4.155567736,
				"z": -3.2591197939,
				"element": "C" 
			},
			{
				"x": -0.757520531,
				"y": 3.4859197946,
				"z": -2.9570256205,
				"element": "C" 
			},
			{
				"x": -0.6512203124,
				"y": 2.201517679,
				"z": -2.1618168959,
				"element": "C" 
			},
			{
				"x": -0.2431929031,
				"y": 1.0086044773,
				"z": -2.7764595768,
				"element": "C" 
			},
			{
				"x": -0.1191007417,
				"y": -0.1739004694,
				"z": -2.0523706619,
				"element": "C" 
			},
			{
				"x": -0.4061034495,
				"y": -0.2192922305,
				"z": -0.6761638075,
				"element": "C" 
			},
			{
				"x": -0.8205488344,
				"y": 0.9748045246,
				"z": -0.0631214416,
				"element": "C" 
			},
			{
				"x": -0.9371344585,
				"y": 2.1579398485,
				"z": -0.7913196402,
				"element": "C" 
			},
			{
				"x": -0.2806302955,
				"y": -1.4787920023,
				"z": 0.0960741073,
				"element": "C" 
			},
			{
				"x": -0.6101879248,
				"y": -2.7227824649,
				"z": -0.4691675062,
				"element": "C" 
			},
			{
				"x": -0.4919675621,
				"y": -3.9069451284,
				"z": 0.2498920301,
				"element": "C" 
			},
			{
				"x": -0.0350533644,
				"y": -3.8969298038,
				"z": 1.5788837672,
				"element": "C" 
			},
			{
				"x": 0.0314183338,
				"y": -5.0761329142,
				"z": 2.3234521037,
				"element": "N" 
			},
			{
				"x": 0.2970782305,
				"y": -2.6588096519,
				"z": 2.1548035898,
				"element": "C" 
			},
			{
				"x": 0.1748747254,
				"y": -1.4811438504,
				"z": 1.4257784968,
				"element": "C" 
			},
			{
				"x": 1.5474156204,
				"y": 3.8396699426,
				"z": -1.3177200862,
				"element": "H" 
			},
			{
				"x": 2.2925134255,
				"y": 5.1236814098,
				"z": -2.2810903642,
				"element": "H" 
			},
			{
				"x": 0.7422093768,
				"y": 5.4058471784,
				"z": -1.4777219332,
				"element": "H" 
			},
			{
				"x": 1.2379984215,
				"y": 3.4422083827,
				"z": -3.7990615952,
				"element": "H" 
			},
			{
				"x": 0.4293237794,
				"y": 4.9945716557,
				"z": -3.9454610489,
				"element": "H" 
			},
			{
				"x": -1.3934526578,
				"y": 4.1985384011,
				"z": -2.4166228867,
				"element": "H" 
			},
			{
				"x": -1.2624127017,
				"y": 3.2800863308,
				"z": -3.9094647686,
				"element": "H" 
			},
			{
				"x": -0.0131216447,
				"y": 1.0075951861,
				"z": -3.8398785567,
				"element": "H" 
			},
			{
				"x": 0.2247319966,
				"y": -1.073337177,
				"z": -2.555256527,
				"element": "H" 
			},
			{
				"x": -1.0827046489,
				"y": 0.9703308992,
				"z": 0.9910255713,
				"element": "H" 
			},
			{
				"x": -1.2723424949,
				"y": 3.0619362543,
				"z": -0.288121753,
				"element": "H" 
			},
			{
				"x": -0.9898638739,
				"y": -2.7625991025,
				"z": -1.4861240763,
				"element": "H" 
			},
			{
				"x": -0.7700729501,
				"y": -4.8508143355,
				"z": -0.2132600826,
				"element": "H" 
			},
			{
				"x": 0.1348171238,
				"y": -5.9220435739,
				"z": 1.7799723254,
				"element": "H" 
			},
			{
				"x": 0.6684720886,
				"y": -5.0531151696,
				"z": 3.107820924,
				"element": "H" 
			},
			{
				"x": 0.6599993821,
				"y": -2.6250001175,
				"z": 3.1794838091,
				"element": "H" 
			},
			{
				"x": 0.4669238782,
				"y": -0.5438244986,
				"z": 1.8906697571,
				"element": "H" 
			}
		],
		 "valence_orbital": [ 
			{
				"type": "occ",
				"energy": -0.30382,
				"method": "rhf"
			},
			{
				"type": "occ",
				"energy": -0.24395,
				"method": "rhf"
			},
			{
				"type": "occ",
				"energy": -0.24062,
				"method": "rhf"
			},
			{
				"type": "occ",
				"energy": -0.23876,
				"method": "rhf"
			},
			{
				"type": "occ",
				"energy": -0.18883,
				"method": "rhf"
			},
			{
				"type": "unocc",
				"energy": -0.01158,
				"method": "rhf"
			},
			{
				"type": "unocc",
				"energy": 0.00308,
				"method": "rhf"
			},
			{
				"type": "unocc",
				"energy": 0.00838,
				"method": "rhf"
			},
			{
				"type": "unocc",
				"energy": 0.04456,
				"method": "rhf"
			},
			{
				"type": "unocc",
				"energy": 0.08214,
				"method": "rhf"
			}
		],
		"cosmo_sigma_profile": { 
			"-0.025": 0.0,
			"-0.024": 0.0,
			"-0.023": 0.0,
			"-0.022": 0.0,
			"-0.021": 0.0,
			"-0.02": 0.0,
			"-0.019": 0.0,
			"-0.018": 0.0,
			"-0.017": 0.0,
			"-0.016": 0.0,
			"-0.015": 0.0,
			"-0.014": 0.0,
			"-0.013": 0.176378645428,
			"-0.012": 2.38157681224,
			"-0.011": 2.91585471982,
			"-0.01": 2.04550010508,
			"-0.009": 3.94970119782,
			"-0.008": 3.33764905131,
			"-0.007": 2.19169958505,
			"-0.006": 4.50653715938,
			"-0.005": 12.7776888954,
			"-0.004": 18.2553948121,
			"-0.003": 23.1541207006,
			"-0.002": 29.3586938503,
			"-0.001": 26.6835770349,
			"0.0": 28.1857561491,
			"0.001": 24.489408978,
			"0.002": 19.0169782083,
			"0.003": 13.7050559448,
			"0.004": 14.6523862843,
			"0.005": 16.1322694526,
			"0.006": 18.9361628556,
			"0.007": 8.64338585544,
			"0.008": 1.00699540693,
			"0.009": 0.87352831762,
			"0.01": 0.761793438972,
			"0.011": 0.570730153252,
			"0.012": 0.835235095041,
			"0.013": 0.633801969492,
			"0.014": 0.593857214951,
			"0.015": 0.195439861154,
			"0.016": 0.0,
			"0.017": 0.0,
			"0.018": 0.0,
			"0.019": 0.0,
			"0.02": 0.0,
			"0.021": 0.0,
			"0.022": 0.0,
			"0.023": 0.0,
			"0.024": 0.0,
			"0.025": 0.0
		}
	}
}
