{
	 "smiles": "COC1=CC(=CC(OC)=C1OC)C(=O)OC1=CC=C(C=CC(=O)C2=CC=CC=C2)C=C1", 
	 "Tm": 368.15, 
	 "num_atms": 53, 
	 "gaussian": { 
		 "optdone": 1, 
		 "sigma_profile": "yes", 
		 "theory": "DFT", 
		 "functional": "B3LYP", 
		 "basiset": "6-31G**", 
		 "properties": { 
			 "R2extent": 17217.0174, 
			 "electric_dipole_moment_norm": 2.90654748284, 
			 "electric_quadrupole_moment_norm": 30.7354186968, 
			 "total_energy": -1417.19349428, 
			 "HOMO_LUMO_gap": 0.15597, 
			 "cosmo_polarized_energy": -21.77, 
			 "cosmo_cavitation_energy": 58.43, 
			 "cosmo_dispersion_energy": -38.11, 
			 "cosmo_repulsion_energy": 2.93, 
			 "cosmo_total_nonelectrostatic_energy": 23.24, 
			 "SMD_solvation_energy": 13.53 
		},
		"coords": [
			{
				"x": -1.1666276161,
				"y": -3.7241838475,
				"z": 4.3024431182,
				"element": "C" 
			},
			{
				"x": -0.7111628489,
				"y": -2.4308125984,
				"z": 4.6770171284,
				"element": "O" 
			},
			{
				"x": 0.1168253132,
				"y": -1.7712226563,
				"z": 3.8197294956,
				"element": "C" 
			},
			{
				"x": 0.5735452099,
				"y": -2.2856821342,
				"z": 2.6058858542,
				"element": "C" 
			},
			{
				"x": 1.4108013596,
				"y": -1.5075472167,
				"z": 1.7951075741,
				"element": "C" 
			},
			{
				"x": 1.8133145826,
				"y": -0.2269972498,
				"z": 2.1948912784,
				"element": "C" 
			},
			{
				"x": 1.366021964,
				"y": 0.2841229848,
				"z": 3.4170107335,
				"element": "C" 
			},
			{
				"x": 1.7036489186,
				"y": 1.5047579511,
				"z": 3.912104728,
				"element": "O" 
			},
			{
				"x": 2.5243895237,
				"y": 2.3448073244,
				"z": 3.1142825177,
				"element": "C" 
			},
			{
				"x": 0.5065144168,
				"y": -0.4800088865,
				"z": 4.2320940263,
				"element": "C" 
			},
			{
				"x": 0.020913781,
				"y": 0.0715503808,
				"z": 5.3810046214,
				"element": "O" 
			},
			{
				"x": 0.57911013,
				"y": -0.4350857977,
				"z": 6.5978375173,
				"element": "C" 
			},
			{
				"x": 1.8869027927,
				"y": -2.1299709744,
				"z": 0.5332217851,
				"element": "C" 
			},
			{
				"x": 1.8119846984,
				"y": -3.3073904258,
				"z": 0.280875489,
				"element": "O" 
			},
			{
				"x": 2.5475855373,
				"y": -1.2936069632,
				"z": -0.3671597036,
				"element": "O" 
			},
			{
				"x": 1.9174606471,
				"y": -0.2173546026,
				"z": -0.9526976669,
				"element": "C" 
			},
			{
				"x": 0.5315746674,
				"y": -0.1483189966,
				"z": -1.1252470343,
				"element": "C" 
			},
			{
				"x": -0.0261109811,
				"y": 0.9535717032,
				"z": -1.7664989151,
				"element": "C" 
			},
			{
				"x": 0.7766215666,
				"y": 1.9945563462,
				"z": -2.2671501595,
				"element": "C" 
			},
			{
				"x": 0.2331063818,
				"y": 3.1765118043,
				"z": -2.951350177,
				"element": "C" 
			},
			{
				"x": -0.9094511423,
				"y": 3.3168040266,
				"z": -3.6505413039,
				"element": "C" 
			},
			{
				"x": -1.9749385896,
				"y": 2.3070323504,
				"z": -3.9568804097,
				"element": "C" 
			},
			{
				"x": -3.1276793885,
				"y": 2.5554291969,
				"z": -3.6186158101,
				"element": "O" 
			},
			{
				"x": -1.6556485942,
				"y": 1.067104019,
				"z": -4.734483288,
				"element": "C" 
			},
			{
				"x": -0.417484683,
				"y": 0.8635167416,
				"z": -5.3612048025,
				"element": "C" 
			},
			{
				"x": -0.1895280875,
				"y": -0.2935486276,
				"z": -6.1054890848,
				"element": "C" 
			},
			{
				"x": -1.1936036475,
				"y": -1.2560173,
				"z": -6.2276447468,
				"element": "C" 
			},
			{
				"x": -2.4329727318,
				"y": -1.0571386413,
				"z": -5.6102482501,
				"element": "C" 
			},
			{
				"x": -2.6645067376,
				"y": 0.0999041265,
				"z": -4.8733724977,
				"element": "C" 
			},
			{
				"x": 2.1668500741,
				"y": 1.9046570566,
				"z": -2.063822788,
				"element": "C" 
			},
			{
				"x": 2.7388172754,
				"y": 0.8115856231,
				"z": -1.4234990774,
				"element": "C" 
			},
			{
				"x": -1.7355875745,
				"y": -3.6934358632,
				"z": 3.3652139383,
				"element": "H" 
			},
			{
				"x": -0.3345244517,
				"y": -4.431037668,
				"z": 4.1949235955,
				"element": "H" 
			},
			{
				"x": -1.8202976452,
				"y": -4.0556471345,
				"z": 5.1102680578,
				"element": "H" 
			},
			{
				"x": 0.3037008223,
				"y": -3.2761949389,
				"z": 2.2649098889,
				"element": "H" 
			},
			{
				"x": 2.4794623852,
				"y": 0.3479363521,
				"z": 1.5680671665,
				"element": "H" 
			},
			{
				"x": 2.0588882961,
				"y": 2.5629627727,
				"z": 2.1450049192,
				"element": "H" 
			},
			{
				"x": 2.6372890715,
				"y": 3.2723999451,
				"z": 3.6771510881,
				"element": "H" 
			},
			{
				"x": 3.5151161555,
				"y": 1.9027927673,
				"z": 2.9456083735,
				"element": "H" 
			},
			{
				"x": 0.0954830275,
				"y": 0.1183202014,
				"z": 7.4049213241,
				"element": "H" 
			},
			{
				"x": 0.3750547655,
				"y": -1.5040264106,
				"z": 6.7139170525,
				"element": "H" 
			},
			{
				"x": 1.6605999148,
				"y": -0.2565472594,
				"z": 6.6346428904,
				"element": "H" 
			},
			{
				"x": -0.1063965204,
				"y": -0.9452414182,
				"z": -0.7583740478,
				"element": "H" 
			},
			{
				"x": -1.1048363082,
				"y": 1.0118289027,
				"z": -1.8593395515,
				"element": "H" 
			},
			{
				"x": 0.8475754332,
				"y": 4.0714736469,
				"z": -2.8505587736,
				"element": "H" 
			},
			{
				"x": -1.1807699223,
				"y": 4.3184839658,
				"z": -3.9785575838,
				"element": "H" 
			},
			{
				"x": 0.3602023813,
				"y": 1.613772044,
				"z": -5.2704402754,
				"element": "H" 
			},
			{
				"x": 0.7707018057,
				"y": -0.4441533209,
				"z": -6.5899901435,
				"element": "H" 
			},
			{
				"x": -1.0128265524,
				"y": -2.1585649395,
				"z": -6.8046866758,
				"element": "H" 
			},
			{
				"x": -3.2152440117,
				"y": -1.8043322666,
				"z": -5.7082040116,
				"element": "H" 
			},
			{
				"x": -3.6206759969,
				"y": 0.2830643259,
				"z": -4.3944073006,
				"element": "H" 
			},
			{
				"x": 2.8094731614,
				"y": 2.7031061475,
				"z": -2.4260067581,
				"element": "H" 
			},
			{
				"x": 3.8119379714,
				"y": 0.7362154316,
				"z": -1.2820633249,
				"element": "H" 
			}
		],
		 "valence_orbital": [ 
			{
				"type": "occ",
				"energy": -0.25544,
				"method": "rhf"
			},
			{
				"type": "occ",
				"energy": -0.24798,
				"method": "rhf"
			},
			{
				"type": "occ",
				"energy": -0.23171,
				"method": "rhf"
			},
			{
				"type": "occ",
				"energy": -0.22567,
				"method": "rhf"
			},
			{
				"type": "occ",
				"energy": -0.22045,
				"method": "rhf"
			},
			{
				"type": "unocc",
				"energy": -0.06448,
				"method": "rhf"
			},
			{
				"type": "unocc",
				"energy": -0.05663,
				"method": "rhf"
			},
			{
				"type": "unocc",
				"energy": -0.03252,
				"method": "rhf"
			},
			{
				"type": "unocc",
				"energy": -0.01569,
				"method": "rhf"
			},
			{
				"type": "unocc",
				"energy": -0.00393,
				"method": "rhf"
			}
		],
		"cosmo_sigma_profile": { 
			"-0.025": 0.0,
			"-0.024": 0.0,
			"-0.023": 0.0,
			"-0.022": 0.0,
			"-0.021": 0.0,
			"-0.02": 0.0,
			"-0.019": 0.0,
			"-0.018": 0.0,
			"-0.017": 0.0,
			"-0.016": 0.0,
			"-0.015": 0.0,
			"-0.014": 0.0,
			"-0.013": 0.0,
			"-0.012": 0.0,
			"-0.011": 0.0,
			"-0.01": 0.0,
			"-0.009": 0.0,
			"-0.008": 0.652387315767,
			"-0.007": 11.0540917758,
			"-0.006": 32.8494666148,
			"-0.005": 43.0829063504,
			"-0.004": 48.6715978292,
			"-0.003": 42.5397514315,
			"-0.002": 35.1721397591,
			"-0.001": 27.7636420727,
			"0.0": 26.7671211904,
			"0.001": 30.2469163461,
			"0.002": 38.389684685,
			"0.003": 34.8546557365,
			"0.004": 24.559665557,
			"0.005": 11.8650810792,
			"0.006": 6.923521059,
			"0.007": 6.45604524491,
			"0.008": 7.37129346369,
			"0.009": 7.67955161497,
			"0.01": 10.8243355342,
			"0.011": 9.22367315777,
			"0.012": 6.63119931545,
			"0.013": 2.86634472387,
			"0.014": 0.397934635575,
			"0.015": 0.0,
			"0.016": 0.0,
			"0.017": 0.0,
			"0.018": 0.0,
			"0.019": 0.0,
			"0.02": 0.0,
			"0.021": 0.0,
			"0.022": 0.0,
			"0.023": 0.0,
			"0.024": 0.0,
			"0.025": 0.0
		}
	}
}
