{
	 "smiles": "OC(=O)C1=NC(=NC=C1)N1CCCC1", 
	 "Tm": 479.15, 
	 "num_atms": 25, 
	 "gaussian": { 
		 "optdone": 1, 
		 "sigma_profile": "yes", 
		 "theory": "DFT", 
		 "functional": "B3LYP", 
		 "basiset": "6-31G**", 
		 "properties": { 
			 "R2extent": 4108.0255, 
			 "electric_dipole_moment_norm": 1.3915783449, 
			 "electric_quadrupole_moment_norm": 13.250162402, 
			 "total_energy": -664.309778318, 
			 "HOMO_LUMO_gap": 0.1495, 
			 "cosmo_polarized_energy": -13.41, 
			 "cosmo_cavitation_energy": 28.66, 
			 "cosmo_dispersion_energy": -21.32, 
			 "cosmo_repulsion_energy": 1.7, 
			 "cosmo_total_nonelectrostatic_energy": 9.04, 
			 "SMD_solvation_energy": 3.15 
		},
		"coords": [
			{
				"x": 1.511009502,
				"y": 5.3163914225,
				"z": -0.3729557688,
				"element": "O" 
			},
			{
				"x": 0.6140599728,
				"y": 4.3026032612,
				"z": -0.479073964,
				"element": "C" 
			},
			{
				"x": -0.4535399418,
				"y": 4.4291917612,
				"z": -1.0307240514,
				"element": "O" 
			},
			{
				"x": 1.1213418528,
				"y": 3.0366856913,
				"z": 0.1661262794,
				"element": "C" 
			},
			{
				"x": 0.2862618967,
				"y": 2.0002697871,
				"z": 0.1137157541,
				"element": "N" 
			},
			{
				"x": 0.7225371324,
				"y": 0.8531195634,
				"z": 0.6807742072,
				"element": "C" 
			},
			{
				"x": 1.9232867638,
				"y": 0.6736173461,
				"z": 1.2914018142,
				"element": "N" 
			},
			{
				"x": 2.7196850992,
				"y": 1.7369822264,
				"z": 1.3242689924,
				"element": "C" 
			},
			{
				"x": 2.379121014,
				"y": 2.9742695081,
				"z": 0.7709898367,
				"element": "C" 
			},
			{
				"x": -0.111873359,
				"y": -0.211729765,
				"z": 0.6354959611,
				"element": "N" 
			},
			{
				"x": 0.2052665165,
				"y": -1.5135498608,
				"z": 1.2303169065,
				"element": "C" 
			},
			{
				"x": -1.1374588282,
				"y": -2.2586858261,
				"z": 1.1712694593,
				"element": "C" 
			},
			{
				"x": -1.8254310576,
				"y": -1.6595032942,
				"z": -0.0679852797,
				"element": "C" 
			},
			{
				"x": -1.4255973377,
				"y": -0.1770817286,
				"z": -0.0168098005,
				"element": "C" 
			},
			{
				"x": 1.1003392115,
				"y": 6.0785756674,
				"z": -0.8131912332,
				"element": "H" 
			},
			{
				"x": 3.682531544,
				"y": 1.598226001,
				"z": 1.8149977183,
				"element": "H" 
			},
			{
				"x": 3.0428706632,
				"y": 3.8267649923,
				"z": 0.8066513966,
				"element": "H" 
			},
			{
				"x": 0.5934087839,
				"y": -1.391633201,
				"z": 2.2450673583,
				"element": "H" 
			},
			{
				"x": 0.9824758444,
				"y": -2.0254861545,
				"z": 0.6460958711,
				"element": "H" 
			},
			{
				"x": -1.7252949534,
				"y": -2.0394697026,
				"z": 2.0700006772,
				"element": "H" 
			},
			{
				"x": -1.0086384012,
				"y": -3.3427837286,
				"z": 1.1134301964,
				"element": "H" 
			},
			{
				"x": -1.4283875765,
				"y": -2.1221783249,
				"z": -0.9788522965,
				"element": "H" 
			},
			{
				"x": -2.9098733008,
				"y": -1.797479979,
				"z": -0.0694836764,
				"element": "H" 
			},
			{
				"x": -2.133729152,
				"y": 0.4176309954,
				"z": 0.5761734698,
				"element": "H" 
			},
			{
				"x": -1.3559718889,
				"y": 0.2943533419,
				"z": -1.0002998283,
				"element": "H" 
			}
		],
		 "valence_orbital": [ 
			{
				"type": "occ",
				"energy": -0.30581,
				"method": "rhf"
			},
			{
				"type": "occ",
				"energy": -0.30149,
				"method": "rhf"
			},
			{
				"type": "occ",
				"energy": -0.27736,
				"method": "rhf"
			},
			{
				"type": "occ",
				"energy": -0.24548,
				"method": "rhf"
			},
			{
				"type": "occ",
				"energy": -0.21075,
				"method": "rhf"
			},
			{
				"type": "unocc",
				"energy": -0.06125,
				"method": "rhf"
			},
			{
				"type": "unocc",
				"energy": -0.00517,
				"method": "rhf"
			},
			{
				"type": "unocc",
				"energy": 0.05585,
				"method": "rhf"
			},
			{
				"type": "unocc",
				"energy": 0.07817,
				"method": "rhf"
			},
			{
				"type": "unocc",
				"energy": 0.08511,
				"method": "rhf"
			}
		],
		"cosmo_sigma_profile": { 
			"-0.025": 0.0,
			"-0.024": 0.0,
			"-0.023": 0.0,
			"-0.022": 0.0,
			"-0.021": 0.0,
			"-0.02": 0.0,
			"-0.019": 0.389118551364,
			"-0.018": 0.792130612244,
			"-0.017": 0.969324474681,
			"-0.016": 1.03528457995,
			"-0.015": 0.660258526647,
			"-0.014": 0.43600903011,
			"-0.013": 0.129749929638,
			"-0.012": 1.51458596031,
			"-0.011": 1.13580919401,
			"-0.01": 0.304771620148,
			"-0.009": 0.38113640945,
			"-0.008": 1.49633358368,
			"-0.007": 4.29567916299,
			"-0.006": 4.11702572817,
			"-0.005": 4.79459342477,
			"-0.004": 18.0848453719,
			"-0.003": 31.1087901825,
			"-0.002": 29.3681890151,
			"-0.001": 24.2566403669,
			"0.0": 22.4668619215,
			"0.001": 17.6996934543,
			"0.002": 9.01266650318,
			"0.003": 5.7207523254,
			"0.004": 6.09479563875,
			"0.005": 5.4061482554,
			"0.006": 4.32717976513,
			"0.007": 4.31618826571,
			"0.008": 4.11819129503,
			"0.009": 2.9908264393,
			"0.01": 3.71550700393,
			"0.011": 6.61943503609,
			"0.012": 3.42927823271,
			"0.013": 1.74532076744,
			"0.014": 1.75494866588,
			"0.015": 0.947884379834,
			"0.016": 0.942230287038,
			"0.017": 0.236074444656,
			"0.018": 2.12691485563e-05,
			"0.019": 0.0,
			"0.02": 0.0,
			"0.021": 0.0,
			"0.022": 0.0,
			"0.023": 0.0,
			"0.024": 0.0,
			"0.025": 0.0
		}
	}
}
