{
	 "smiles": "CC(C)(C)OC(=O)NCCC(O)=O", 
	 "Tm": 348.15, 
	 "num_atms": 28, 
	 "gaussian": { 
		 "optdone": 1, 
		 "sigma_profile": "yes", 
		 "theory": "DFT", 
		 "functional": "B3LYP", 
		 "basiset": "6-31G**", 
		 "properties": { 
			 "R2extent": 4351.9571, 
			 "electric_dipole_moment_norm": 5.5726278442, 
			 "electric_quadrupole_moment_norm": 22.0484829991, 
			 "total_energy": -669.588070056, 
			 "HOMO_LUMO_gap": 0.24931, 
			 "cosmo_polarized_energy": -19.15, 
			 "cosmo_cavitation_energy": 31.05, 
			 "cosmo_dispersion_energy": -21.28, 
			 "cosmo_repulsion_energy": 1.72, 
			 "cosmo_total_nonelectrostatic_energy": 11.49, 
			 "SMD_solvation_energy": 6.94 
		},
		"coords": [
			{
				"x": 0.1615040088,
				"y": 2.1277969213,
				"z": 0.8204629701,
				"element": "C" 
			},
			{
				"x": -0.5098837591,
				"y": 1.7842438881,
				"z": -0.5135506131,
				"element": "C" 
			},
			{
				"x": -1.6942763729,
				"y": 2.7172792422,
				"z": -0.7799863102,
				"element": "C" 
			},
			{
				"x": 0.4784515086,
				"y": 1.8129670682,
				"z": -1.6845433931,
				"element": "C" 
			},
			{
				"x": -1.1539102134,
				"y": 0.4642122206,
				"z": -0.4298004117,
				"element": "O" 
			},
			{
				"x": -0.4205452261,
				"y": -0.6494522716,
				"z": -0.1650700637,
				"element": "C" 
			},
			{
				"x": 0.7923067459,
				"y": -0.6970832026,
				"z": -0.0430776355,
				"element": "O" 
			},
			{
				"x": -1.2331828563,
				"y": -1.7444565798,
				"z": -0.0333521129,
				"element": "N" 
			},
			{
				"x": -2.6521928841,
				"y": -1.7936881572,
				"z": -0.3335120473,
				"element": "C" 
			},
			{
				"x": -2.9543664533,
				"y": -2.057974266,
				"z": -1.8153575392,
				"element": "C" 
			},
			{
				"x": -2.4501328901,
				"y": -3.4233154265,
				"z": -2.2659847753,
				"element": "C" 
			},
			{
				"x": -2.6566408678,
				"y": -3.7277930972,
				"z": -3.5724481283,
				"element": "O" 
			},
			{
				"x": -1.9024942017,
				"y": -4.2184479389,
				"z": -1.5405429213,
				"element": "O" 
			},
			{
				"x": 0.5382179278,
				"y": 3.1553412866,
				"z": 0.7883233834,
				"element": "H" 
			},
			{
				"x": 0.992928819,
				"y": 1.4526837763,
				"z": 1.0234128329,
				"element": "H" 
			},
			{
				"x": -0.5619929079,
				"y": 2.0568450219,
				"z": 1.6389331306,
				"element": "H" 
			},
			{
				"x": -2.4195848225,
				"y": 2.665471418,
				"z": 0.037425423,
				"element": "H" 
			},
			{
				"x": -2.2016104528,
				"y": 2.4433116566,
				"z": -1.7100232675,
				"element": "H" 
			},
			{
				"x": -1.3464361784,
				"y": 3.7507178618,
				"z": -0.8686388766,
				"element": "H" 
			},
			{
				"x": -0.0256223406,
				"y": 1.5299985831,
				"z": -2.6145976085,
				"element": "H" 
			},
			{
				"x": 0.8728045342,
				"y": 2.8268225207,
				"z": -1.808793606,
				"element": "H" 
			},
			{
				"x": 1.308132035,
				"y": 1.1282785854,
				"z": -1.5092365587,
				"element": "H" 
			},
			{
				"x": -0.739542459,
				"y": -2.6257772988,
				"z": -0.0142105645,
				"element": "H" 
			},
			{
				"x": -3.1042613979,
				"y": -0.847918962,
				"z": -0.0335922092,
				"element": "H" 
			},
			{
				"x": -3.0956962119,
				"y": -2.5902952478,
				"z": 0.2703844643,
				"element": "H" 
			},
			{
				"x": -4.0372899122,
				"y": -2.0074694887,
				"z": -1.99691825,
				"element": "H" 
			},
			{
				"x": -2.4929575075,
				"y": -1.2769755811,
				"z": -2.4333132649,
				"element": "H" 
			},
			{
				"x": -3.0984256637,
				"y": -2.9935225329,
				"z": -4.0225920467,
				"element": "H" 
			}
		],
		 "valence_orbital": [ 
			{
				"type": "occ",
				"energy": -0.32628,
				"method": "rhf"
			},
			{
				"type": "occ",
				"energy": -0.28838,
				"method": "rhf"
			},
			{
				"type": "occ",
				"energy": -0.28402,
				"method": "rhf"
			},
			{
				"type": "occ",
				"energy": -0.25918,
				"method": "rhf"
			},
			{
				"type": "occ",
				"energy": -0.25035,
				"method": "rhf"
			},
			{
				"type": "unocc",
				"energy": -0.00104,
				"method": "rhf"
			},
			{
				"type": "unocc",
				"energy": 0.04369,
				"method": "rhf"
			},
			{
				"type": "unocc",
				"energy": 0.06027,
				"method": "rhf"
			},
			{
				"type": "unocc",
				"energy": 0.07708,
				"method": "rhf"
			},
			{
				"type": "unocc",
				"energy": 0.0952,
				"method": "rhf"
			}
		],
		"cosmo_sigma_profile": { 
			"-0.025": 0.0,
			"-0.024": 0.0,
			"-0.023": 0.0,
			"-0.022": 0.0,
			"-0.021": 0.0,
			"-0.02": 0.0,
			"-0.019": 0.842002127762,
			"-0.018": 1.07740705051,
			"-0.017": 1.30995247782,
			"-0.016": 1.22564454319,
			"-0.015": 0.733639175085,
			"-0.014": 0.748871405497,
			"-0.013": 1.30000252525,
			"-0.012": 1.25894852015,
			"-0.011": 1.71114302727,
			"-0.01": 2.04966156365,
			"-0.009": 1.54509732664,
			"-0.008": 3.17912651229,
			"-0.007": 5.57029123099,
			"-0.006": 5.60780529573,
			"-0.005": 9.04438536427,
			"-0.004": 18.469721707,
			"-0.003": 23.8174420495,
			"-0.002": 20.9145129558,
			"-0.001": 20.4989271168,
			"0.0": 25.9395153592,
			"0.001": 24.285968416,
			"0.002": 8.89181453848,
			"0.003": 7.07948955366,
			"0.004": 5.86162576839,
			"0.005": 6.76532063869,
			"0.006": 4.84596089636,
			"0.007": 4.63016589723,
			"0.008": 3.55214133137,
			"0.009": 4.86107421585,
			"0.01": 6.03420503938,
			"0.011": 6.05922102042,
			"0.012": 4.7941863047,
			"0.013": 4.395525839,
			"0.014": 2.72524044245,
			"0.015": 0.114810375617,
			"0.016": 0.0,
			"0.017": 0.0,
			"0.018": 0.0,
			"0.019": 0.0,
			"0.02": 0.0,
			"0.021": 0.0,
			"0.022": 0.0,
			"0.023": 0.0,
			"0.024": 0.0,
			"0.025": 0.0
		}
	}
}
