{
	 "smiles": "NC1=CC(=CNC1=O)C1=CC=NC=C1", 
	 "Tm": 568.15, 
	 "num_atms": 23, 
	 "gaussian": { 
		 "optdone": 1, 
		 "sigma_profile": "yes", 
		 "theory": "DFT", 
		 "functional": "B3LYP", 
		 "basiset": "6-31G**", 
		 "properties": { 
			 "R2extent": 3498.0359, 
			 "electric_dipole_moment_norm": 0.900530315981, 
			 "electric_quadrupole_moment_norm": 28.7577194073, 
			 "total_energy": -625.97776227, 
			 "HOMO_LUMO_gap": 0.15444, 
			 "cosmo_polarized_energy": -17.93, 
			 "cosmo_cavitation_energy": 27.46, 
			 "cosmo_dispersion_energy": -20.55, 
			 "cosmo_repulsion_energy": 1.6, 
			 "cosmo_total_nonelectrostatic_energy": 8.51, 
			 "SMD_solvation_energy": 3.98 
		},
		"coords": [
			{
				"x": -2.1100689993,
				"y": 0.8879343248,
				"z": -3.3360840172,
				"element": "N" 
			},
			{
				"x": -1.1065502275,
				"y": 0.2582002313,
				"z": -2.6409549219,
				"element": "C" 
			},
			{
				"x": -0.8876014884,
				"y": 0.3306418387,
				"z": -1.286978461,
				"element": "C" 
			},
			{
				"x": 0.1708173824,
				"y": -0.4037032977,
				"z": -0.6545005468,
				"element": "C" 
			},
			{
				"x": 0.9687396251,
				"y": -1.190267164,
				"z": -1.4418559636,
				"element": "C" 
			},
			{
				"x": 0.750057498,
				"y": -1.2506075969,
				"z": -2.7966718949,
				"element": "N" 
			},
			{
				"x": -0.2391082998,
				"y": -0.5706292267,
				"z": -3.4889866856,
				"element": "C" 
			},
			{
				"x": -0.3568926684,
				"y": -0.65390624,
				"z": -4.7145985169,
				"element": "O" 
			},
			{
				"x": 0.3834113945,
				"y": -0.3382907091,
				"z": 0.8076776957,
				"element": "C" 
			},
			{
				"x": -0.6901287519,
				"y": -0.201802449,
				"z": 1.7022862114,
				"element": "C" 
			},
			{
				"x": -0.4392827747,
				"y": -0.1533921689,
				"z": 3.0723189826,
				"element": "C" 
			},
			{
				"x": 0.7821113058,
				"y": -0.232171438,
				"z": 3.6159455298,
				"element": "N" 
			},
			{
				"x": 1.8059273889,
				"y": -0.3613911196,
				"z": 2.7616081364,
				"element": "C" 
			},
			{
				"x": 1.6655335924,
				"y": -0.4114482031,
				"z": 1.376619192,
				"element": "C" 
			},
			{
				"x": -2.5251008761,
				"y": 1.7164253488,
				"z": -2.9397498036,
				"element": "H" 
			},
			{
				"x": -1.9730921973,
				"y": 0.8832691429,
				"z": -4.3389853223,
				"element": "H" 
			},
			{
				"x": -1.5149866145,
				"y": 0.9757119913,
				"z": -0.6783136236,
				"element": "H" 
			},
			{
				"x": 1.7650547105,
				"y": -1.8143374057,
				"z": -1.0576169324,
				"element": "H" 
			},
			{
				"x": 1.3403278537,
				"y": -1.8301182038,
				"z": -3.3802242773,
				"element": "H" 
			},
			{
				"x": -1.7122749346,
				"y": -0.1593497095,
				"z": 1.3398852508,
				"element": "H" 
			},
			{
				"x": -1.2683844314,
				"y": -0.0518906337,
				"z": 3.7709661651,
				"element": "H" 
			},
			{
				"x": 2.7977548138,
				"y": -0.4161292316,
				"z": 3.207856166,
				"element": "H" 
			},
			{
				"x": 2.5474366987,
				"y": -0.4774480806,
				"z": 0.7469576373,
				"element": "H" 
			}
		],
		 "valence_orbital": [ 
			{
				"type": "occ",
				"energy": -0.26328,
				"method": "rhf"
			},
			{
				"type": "occ",
				"energy": -0.26225,
				"method": "rhf"
			},
			{
				"type": "occ",
				"energy": -0.25495,
				"method": "rhf"
			},
			{
				"type": "occ",
				"energy": -0.25326,
				"method": "rhf"
			},
			{
				"type": "occ",
				"energy": -0.19488,
				"method": "rhf"
			},
			{
				"type": "unocc",
				"energy": -0.04044,
				"method": "rhf"
			},
			{
				"type": "unocc",
				"energy": -0.02797,
				"method": "rhf"
			},
			{
				"type": "unocc",
				"energy": -0.01219,
				"method": "rhf"
			},
			{
				"type": "unocc",
				"energy": 0.03195,
				"method": "rhf"
			},
			{
				"type": "unocc",
				"energy": 0.0705,
				"method": "rhf"
			}
		],
		"cosmo_sigma_profile": { 
			"-0.025": 0.0,
			"-0.024": 0.0,
			"-0.023": 0.0,
			"-0.022": 0.0,
			"-0.021": 0.0,
			"-0.02": 0.0,
			"-0.019": 0.0,
			"-0.018": 0.0,
			"-0.017": 0.0,
			"-0.016": 1.02221166856,
			"-0.015": 1.83423011894,
			"-0.014": 0.943847147649,
			"-0.013": 2.14396204296,
			"-0.012": 2.44849367207,
			"-0.011": 2.90432604775,
			"-0.01": 3.62457045004,
			"-0.009": 4.87576145637,
			"-0.008": 5.33961741709,
			"-0.007": 7.49403349006,
			"-0.006": 13.6353101074,
			"-0.005": 13.286990591,
			"-0.004": 9.64147257868,
			"-0.003": 9.21039472074,
			"-0.002": 10.4779175255,
			"-0.001": 10.6779428833,
			"0.0": 14.6262201534,
			"0.001": 16.7301926373,
			"0.002": 19.7372475719,
			"0.003": 20.1992280215,
			"0.004": 7.45563146925,
			"0.005": 4.83210166912,
			"0.006": 4.15314807398,
			"0.007": 3.6431483844,
			"0.008": 3.14124389977,
			"0.009": 3.47520281646,
			"0.01": 2.95339695375,
			"0.011": 2.80469426595,
			"0.012": 3.33827614115,
			"0.013": 4.11442036225,
			"0.014": 5.61163455956,
			"0.015": 1.93862537868,
			"0.016": 0.911300496736,
			"0.017": 0.559787513634,
			"0.018": 0.0,
			"0.019": 0.0,
			"0.02": 0.0,
			"0.021": 0.0,
			"0.022": 0.0,
			"0.023": 0.0,
			"0.024": 0.0,
			"0.025": 0.0
		}
	}
}
