{
	 "smiles": "O=C1NC(=O)C2CC12", 
	 "Tm": 368.15, 
	 "num_atms": 13, 
	 "gaussian": { 
		 "optdone": 1, 
		 "sigma_profile": "yes", 
		 "theory": "DFT", 
		 "functional": "B3LYP", 
		 "basiset": "6-31G**", 
		 "properties": { 
			 "R2extent": 1090.3835, 
			 "electric_dipole_moment_norm": 2.27164214831, 
			 "electric_quadrupole_moment_norm": 12.7813433856, 
			 "total_energy": -398.73742564, 
			 "HOMO_LUMO_gap": 0.22873, 
			 "cosmo_polarized_energy": -12.88, 
			 "cosmo_cavitation_energy": 17.23, 
			 "cosmo_dispersion_energy": -13.09, 
			 "cosmo_repulsion_energy": 1.12, 
			 "cosmo_total_nonelectrostatic_energy": 5.26, 
			 "SMD_solvation_energy": 4.08 
		},
		"coords": [
			{
				"x": 3.0228342598,
				"y": -0.0145738405,
				"z": -1.3803367858,
				"element": "O" 
			},
			{
				"x": 1.8499463028,
				"y": 0.1374896947,
				"z": -1.1197723027,
				"element": "C" 
			},
			{
				"x": 1.1654731032,
				"y": 1.3592820248,
				"z": -1.1433777997,
				"element": "N" 
			},
			{
				"x": -0.1271630221,
				"y": 1.3125681193,
				"z": -0.6060341734,
				"element": "C" 
			},
			{
				"x": -0.827797929,
				"y": 2.2740678857,
				"z": -0.3795158569,
				"element": "O" 
			},
			{
				"x": -0.4314728524,
				"y": -0.1443669806,
				"z": -0.3723376549,
				"element": "C" 
			},
			{
				"x": -0.3651704085,
				"y": -1.012261073,
				"z": -1.609182119,
				"element": "C" 
			},
			{
				"x": 0.8405416148,
				"y": -0.9004193378,
				"z": -0.7029832775,
				"element": "C" 
			},
			{
				"x": 1.6132437087,
				"y": 2.2275463827,
				"z": -1.4060677219,
				"element": "H" 
			},
			{
				"x": -1.0960290917,
				"y": -0.4019145469,
				"z": 0.443248112,
				"element": "H" 
			},
			{
				"x": -0.9124758224,
				"y": -1.9487041492,
				"z": -1.5734204384,
				"element": "H" 
			},
			{
				"x": -0.3381117449,
				"y": -0.539418361,
				"z": -2.5862422027,
				"element": "H" 
			},
			{
				"x": 1.1943818818,
				"y": -1.7632958183,
				"z": -0.1521777792,
				"element": "H" 
			}
		],
		 "valence_orbital": [ 
			{
				"type": "occ",
				"energy": -0.33665,
				"method": "rhf"
			},
			{
				"type": "occ",
				"energy": -0.331,
				"method": "rhf"
			},
			{
				"type": "occ",
				"energy": -0.29516,
				"method": "rhf"
			},
			{
				"type": "occ",
				"energy": -0.28591,
				"method": "rhf"
			},
			{
				"type": "occ",
				"energy": -0.26274,
				"method": "rhf"
			},
			{
				"type": "unocc",
				"energy": -0.03401,
				"method": "rhf"
			},
			{
				"type": "unocc",
				"energy": 0.02745,
				"method": "rhf"
			},
			{
				"type": "unocc",
				"energy": 0.08172,
				"method": "rhf"
			},
			{
				"type": "unocc",
				"energy": 0.08977,
				"method": "rhf"
			},
			{
				"type": "unocc",
				"energy": 0.12201,
				"method": "rhf"
			}
		],
		"cosmo_sigma_profile": { 
			"-0.025": 0.0,
			"-0.024": 0.0,
			"-0.023": 0.0,
			"-0.022": 0.0,
			"-0.021": 0.0,
			"-0.02": 0.0,
			"-0.019": 0.0,
			"-0.018": 0.0,
			"-0.017": 0.0318491999616,
			"-0.016": 1.0874939218,
			"-0.015": 1.18064231827,
			"-0.014": 1.08828358254,
			"-0.013": 1.01970008021,
			"-0.012": 0.636465868877,
			"-0.011": 0.713568997598,
			"-0.01": 0.893560642967,
			"-0.009": 1.27591822609,
			"-0.008": 4.97015088659,
			"-0.007": 11.0119815021,
			"-0.006": 9.39480750698,
			"-0.005": 10.1863094393,
			"-0.004": 8.41854037361,
			"-0.003": 10.4347344959,
			"-0.002": 8.90183091151,
			"-0.001": 7.01762414987,
			"0.0": 5.64967696491,
			"0.001": 6.23731827508,
			"0.002": 3.41004442354,
			"0.003": 2.947832362,
			"0.004": 1.82872814536,
			"0.005": 2.95680333075,
			"0.006": 2.08659126884,
			"0.007": 2.86040099717,
			"0.008": 2.70495338986,
			"0.009": 3.62164397708,
			"0.01": 4.27683152037,
			"0.011": 8.75060485697,
			"0.012": 9.56520349994,
			"0.013": 2.17328844397,
			"0.014": 0.0,
			"0.015": 0.0,
			"0.016": 0.0,
			"0.017": 0.0,
			"0.018": 0.0,
			"0.019": 0.0,
			"0.02": 0.0,
			"0.021": 0.0,
			"0.022": 0.0,
			"0.023": 0.0,
			"0.024": 0.0,
			"0.025": 0.0
		}
	}
}
