{
	 "smiles": "CCC1=NC2=C(C=CC=C2)N1CC#N", 
	 "Tm": 378.15, 
	 "num_atms": 25, 
	 "gaussian": { 
		 "optdone": 1, 
		 "sigma_profile": "yes", 
		 "theory": "DFT", 
		 "functional": "B3LYP", 
		 "basiset": "6-31G**", 
		 "properties": { 
			 "R2extent": 3081.3283, 
			 "electric_dipole_moment_norm": 3.38762933775, 
			 "electric_quadrupole_moment_norm": 16.2945059876, 
			 "total_energy": -590.047540328, 
			 "HOMO_LUMO_gap": 0.20711, 
			 "cosmo_polarized_energy": -16.53, 
			 "cosmo_cavitation_energy": 29.68, 
			 "cosmo_dispersion_energy": -20.66, 
			 "cosmo_repulsion_energy": 1.63, 
			 "cosmo_total_nonelectrostatic_energy": 10.65, 
			 "SMD_solvation_energy": 4.58 
		},
		"coords": [
			{
				"x": 2.4845238115,
				"y": 0.740858872,
				"z": -1.9605568298,
				"element": "C" 
			},
			{
				"x": 1.1920070316,
				"y": 1.0645505495,
				"z": -1.2067544168,
				"element": "C" 
			},
			{
				"x": 0.7808451146,
				"y": -0.0286090763,
				"z": -0.2636882042,
				"element": "C" 
			},
			{
				"x": 1.432816876,
				"y": -1.1443227645,
				"z": -0.0636478614,
				"element": "N" 
			},
			{
				"x": 0.68807458,
				"y": -1.8540691852,
				"z": 0.8707827612,
				"element": "C" 
			},
			{
				"x": -0.4624509327,
				"y": -1.1225195386,
				"z": 1.2406087985,
				"element": "C" 
			},
			{
				"x": -1.3967307295,
				"y": -1.6012470261,
				"z": 2.1592185123,
				"element": "C" 
			},
			{
				"x": -1.1387359022,
				"y": -2.8528680218,
				"z": 2.7174388837,
				"element": "C" 
			},
			{
				"x": 0.0057587008,
				"y": -3.5936823952,
				"z": 2.3658662023,
				"element": "C" 
			},
			{
				"x": 0.9283901369,
				"y": -3.1078933085,
				"z": 1.4430098405,
				"element": "C" 
			},
			{
				"x": -0.3772829538,
				"y": 0.0600711053,
				"z": 0.5107977183,
				"element": "N" 
			},
			{
				"x": -1.3472785458,
				"y": 1.1330633453,
				"z": 0.5206020631,
				"element": "C" 
			},
			{
				"x": -2.4412791666,
				"y": 0.9503425455,
				"z": -0.4546454148,
				"element": "C" 
			},
			{
				"x": -3.2957675894,
				"y": 0.8142973033,
				"z": -1.2271939119,
				"element": "N" 
			},
			{
				"x": 2.7435810033,
				"y": 1.5627468059,
				"z": -2.6339998125,
				"element": "H" 
			},
			{
				"x": 2.3716252341,
				"y": -0.1726338409,
				"z": -2.5487185129,
				"element": "H" 
			},
			{
				"x": 3.3117272811,
				"y": 0.5814504997,
				"z": -1.2652037164,
				"element": "H" 
			},
			{
				"x": 1.3157557164,
				"y": 2.0019791339,
				"z": -0.6443501936,
				"element": "H" 
			},
			{
				"x": 0.3773894981,
				"y": 1.249405428,
				"z": -1.9210545593,
				"element": "H" 
			},
			{
				"x": -2.2899704646,
				"y": -1.0439369892,
				"z": 2.4257018263,
				"element": "H" 
			},
			{
				"x": -1.8406269201,
				"y": -3.2665732359,
				"z": 3.4352141166,
				"element": "H" 
			},
			{
				"x": 0.166584593,
				"y": -4.5651958812,
				"z": 2.8234308253,
				"element": "H" 
			},
			{
				"x": 1.8110124665,
				"y": -3.6746013595,
				"z": 1.1649667383,
				"element": "H" 
			},
			{
				"x": -0.8479837638,
				"y": 2.0827944413,
				"z": 0.3072235457,
				"element": "H" 
			},
			{
				"x": -1.7796850754,
				"y": 1.2178925932,
				"z": 1.5232516017,
				"element": "H" 
			}
		],
		 "valence_orbital": [ 
			{
				"type": "occ",
				"energy": -0.3355,
				"method": "rhf"
			},
			{
				"type": "occ",
				"energy": -0.30637,
				"method": "rhf"
			},
			{
				"type": "occ",
				"energy": -0.27478,
				"method": "rhf"
			},
			{
				"type": "occ",
				"energy": -0.23225,
				"method": "rhf"
			},
			{
				"type": "occ",
				"energy": -0.2277,
				"method": "rhf"
			},
			{
				"type": "unocc",
				"energy": -0.02059,
				"method": "rhf"
			},
			{
				"type": "unocc",
				"energy": 0.00252,
				"method": "rhf"
			},
			{
				"type": "unocc",
				"energy": 0.01253,
				"method": "rhf"
			},
			{
				"type": "unocc",
				"energy": 0.02179,
				"method": "rhf"
			},
			{
				"type": "unocc",
				"energy": 0.04844,
				"method": "rhf"
			}
		],
		"cosmo_sigma_profile": { 
			"-0.025": 0.0,
			"-0.024": 0.0,
			"-0.023": 0.0,
			"-0.022": 0.0,
			"-0.021": 0.0,
			"-0.02": 0.0,
			"-0.019": 0.0,
			"-0.018": 0.0,
			"-0.017": 0.0,
			"-0.016": 0.0,
			"-0.015": 0.0,
			"-0.014": 0.0,
			"-0.013": 0.0,
			"-0.012": 0.0681771513463,
			"-0.011": 3.65384135469,
			"-0.01": 6.85187499164,
			"-0.009": 6.13062165477,
			"-0.008": 6.4414240605,
			"-0.007": 5.60305051816,
			"-0.006": 9.18992791783,
			"-0.005": 14.1215106083,
			"-0.004": 13.4362012271,
			"-0.003": 18.9907762056,
			"-0.002": 20.6535288566,
			"-0.001": 16.7231945934,
			"0.0": 13.7144116921,
			"0.001": 12.8997395421,
			"0.002": 10.9748266122,
			"0.003": 10.8911816671,
			"0.004": 12.7169670651,
			"0.005": 13.3638212058,
			"0.006": 11.4851291172,
			"0.007": 5.24158686695,
			"0.008": 4.74942141891,
			"0.009": 4.69619542196,
			"0.01": 3.95855973148,
			"0.011": 3.43153187256,
			"0.012": 3.59403369205,
			"0.013": 1.26252800707,
			"0.014": 0.746526823967,
			"0.015": 0.81733383065,
			"0.016": 0.860589011995,
			"0.017": 0.161513690878,
			"0.018": 0.0,
			"0.019": 0.0,
			"0.02": 0.0,
			"0.021": 0.0,
			"0.022": 0.0,
			"0.023": 0.0,
			"0.024": 0.0,
			"0.025": 0.0
		}
	}
}
