{
	 "smiles": "COC1=C(NCC2=CN=CC=C2)C=C(Br)C=C1", 
	 "Tm": 340.15, 
	 "num_atms": 30, 
	 "gaussian": { 
		 "optdone": 1, 
		 "sigma_profile": "yes", 
		 "theory": "DFT", 
		 "functional": "B3LYP", 
		 "basiset": "6-31G**", 
		 "properties": { 
			 "R2extent": 6970.0145, 
			 "electric_dipole_moment_norm": 5.49990227095, 
			 "electric_quadrupole_moment_norm": 6.99208581398, 
			 "total_energy": -3259.33110241, 
			 "HOMO_LUMO_gap": 0.175, 
			 "cosmo_polarized_energy": -12.33, 
			 "cosmo_cavitation_energy": 36.19, 
			 "cosmo_dispersion_energy": -25.97, 
			 "cosmo_repulsion_energy": 2.05, 
			 "cosmo_total_nonelectrostatic_energy": 12.27, 
			 "SMD_solvation_energy": 3.81 
		},
		"coords": [
			{
				"x": -1.9587528267,
				"y": -2.6323785376,
				"z": -1.9472305091,
				"element": "C" 
			},
			{
				"x": -0.8723202451,
				"y": -2.1698060023,
				"z": -1.1613853757,
				"element": "O" 
			},
			{
				"x": -1.0563699281,
				"y": -1.0398222744,
				"z": -0.402188608,
				"element": "C" 
			},
			{
				"x": 0.0726603132,
				"y": -0.6722156967,
				"z": 0.3780839949,
				"element": "C" 
			},
			{
				"x": 1.221507802,
				"y": -1.4462839229,
				"z": 0.2722464829,
				"element": "N" 
			},
			{
				"x": 2.2633127714,
				"y": -1.4206868028,
				"z": 1.2839255681,
				"element": "C" 
			},
			{
				"x": 3.2749877899,
				"y": -0.2958693897,
				"z": 1.1179205758,
				"element": "C" 
			},
			{
				"x": 3.9859259989,
				"y": 0.1847894962,
				"z": 2.2243999211,
				"element": "C" 
			},
			{
				"x": 4.9297643239,
				"y": 1.1306056567,
				"z": 2.1643053434,
				"element": "N" 
			},
			{
				"x": 5.1973795315,
				"y": 1.6513498644,
				"z": 0.960343526,
				"element": "C" 
			},
			{
				"x": 4.5428885559,
				"y": 1.2583637867,
				"z": -0.2082144488,
				"element": "C" 
			},
			{
				"x": 3.5670093209,
				"y": 0.2672758509,
				"z": -0.1266359805,
				"element": "C" 
			},
			{
				"x": -0.0204271132,
				"y": 0.4580881347,
				"z": 1.1973083279,
				"element": "C" 
			},
			{
				"x": -1.20667057,
				"y": 1.1958020152,
				"z": 1.2305973285,
				"element": "C" 
			},
			{
				"x": -1.2968199322,
				"y": 2.7385674167,
				"z": 2.3617568298,
				"element": "Br" 
			},
			{
				"x": -2.310154547,
				"y": 0.842790646,
				"z": 0.4706014519,
				"element": "C" 
			},
			{
				"x": -2.2246763525,
				"y": -0.2908290426,
				"z": -0.351515991,
				"element": "C" 
			},
			{
				"x": -1.6065174348,
				"y": -3.5322637091,
				"z": -2.4538461551,
				"element": "H" 
			},
			{
				"x": -2.8276826524,
				"y": -2.8827526722,
				"z": -1.3252412954,
				"element": "H" 
			},
			{
				"x": -2.2564885061,
				"y": -1.8887877422,
				"z": -2.6972756701,
				"element": "H" 
			},
			{
				"x": 1.0547257955,
				"y": -2.3374911797,
				"z": -0.1707329104,
				"element": "H" 
			},
			{
				"x": 2.7924577073,
				"y": -2.3790562447,
				"z": 1.2194628969,
				"element": "H" 
			},
			{
				"x": 1.8359547972,
				"y": -1.3727052185,
				"z": 2.2978324822,
				"element": "H" 
			},
			{
				"x": 3.7777785767,
				"y": -0.216737646,
				"z": 3.2170766965,
				"element": "H" 
			},
			{
				"x": 5.96608307,
				"y": 2.421639648,
				"z": 0.9302565808,
				"element": "H" 
			},
			{
				"x": 4.7920674655,
				"y": 1.721814412,
				"z": -1.1579792536,
				"element": "H" 
			},
			{
				"x": 3.0228688589,
				"y": -0.0659984799,
				"z": -1.005224551,
				"element": "H" 
			},
			{
				"x": 0.827228389,
				"y": 0.7741850237,
				"z": 1.791070105,
				"element": "H" 
			},
			{
				"x": -3.2215693607,
				"y": 1.4265773157,
				"z": 0.5074932561,
				"element": "H" 
			},
			{
				"x": -3.0859515992,
				"y": -0.5758647057,
				"z": -0.9442106189,
				"element": "H" 
			}
		],
		 "valence_orbital": [ 
			{
				"type": "occ",
				"energy": -0.2763,
				"method": "rhf"
			},
			{
				"type": "occ",
				"energy": -0.25364,
				"method": "rhf"
			},
			{
				"type": "occ",
				"energy": -0.25056,
				"method": "rhf"
			},
			{
				"type": "occ",
				"energy": -0.23131,
				"method": "rhf"
			},
			{
				"type": "occ",
				"energy": -0.19656,
				"method": "rhf"
			},
			{
				"type": "unocc",
				"energy": -0.02156,
				"method": "rhf"
			},
			{
				"type": "unocc",
				"energy": -0.01129,
				"method": "rhf"
			},
			{
				"type": "unocc",
				"energy": 0.00259,
				"method": "rhf"
			},
			{
				"type": "unocc",
				"energy": 0.00942,
				"method": "rhf"
			},
			{
				"type": "unocc",
				"energy": 0.01716,
				"method": "rhf"
			}
		],
		"cosmo_sigma_profile": { 
			"-0.025": 0.0,
			"-0.024": 0.0,
			"-0.023": 0.0,
			"-0.022": 0.0,
			"-0.021": 0.0,
			"-0.02": 0.0,
			"-0.019": 0.0,
			"-0.018": 0.0,
			"-0.017": 0.0,
			"-0.016": 0.0,
			"-0.015": 0.0,
			"-0.014": 0.0,
			"-0.013": 0.0,
			"-0.012": 0.37734172077,
			"-0.011": 0.772707913309,
			"-0.01": 1.23607624837,
			"-0.009": 1.3183310535,
			"-0.008": 0.898381944396,
			"-0.007": 4.09076713515,
			"-0.006": 19.2078135975,
			"-0.005": 26.7824900943,
			"-0.004": 26.0120834208,
			"-0.003": 24.1555597543,
			"-0.002": 17.662259826,
			"-0.001": 15.6795347477,
			"0.0": 16.1227618684,
			"0.001": 16.961173321,
			"0.002": 23.7604428407,
			"0.003": 28.2587648814,
			"0.004": 25.586216841,
			"0.005": 24.9744886157,
			"0.006": 6.21289369289,
			"0.007": 1.75737764056,
			"0.008": 1.7408762774,
			"0.009": 1.96409473114,
			"0.01": 0.90466204145,
			"0.011": 0.743987926982,
			"0.012": 0.370616035356,
			"0.013": 1.35788970114,
			"0.014": 0.898133134044,
			"0.015": 0.889430208719,
			"0.016": 0.772816557236,
			"0.017": 0.637000171858,
			"0.018": 0.0511888876617,
			"0.019": 0.0,
			"0.02": 0.0,
			"0.021": 0.0,
			"0.022": 0.0,
			"0.023": 0.0,
			"0.024": 0.0,
			"0.025": 0.0
		}
	}
}
