{
	 "smiles": "CC(CS(C)(=O)=O)NC1CC1", 
	 "Tm": 313.15, 
	 "num_atms": 26, 
	 "gaussian": { 
		 "optdone": 1, 
		 "sigma_profile": "yes", 
		 "theory": "DFT", 
		 "functional": "B3LYP", 
		 "basiset": "6-31G**", 
		 "properties": { 
			 "R2extent": 2492.4739, 
			 "electric_dipole_moment_norm": 4.64524898902, 
			 "electric_quadrupole_moment_norm": 18.7220263615, 
			 "total_energy": -879.065698891, 
			 "HOMO_LUMO_gap": 0.28825, 
			 "cosmo_polarized_energy": -17.36, 
			 "cosmo_cavitation_energy": 28.06, 
			 "cosmo_dispersion_energy": -20.44, 
			 "cosmo_repulsion_energy": 1.58, 
			 "cosmo_total_nonelectrostatic_energy": 9.19, 
			 "SMD_solvation_energy": 2.6 
		},
		"coords": [
			{
				"x": -1.2047626994,
				"y": 1.8264971961,
				"z": 0.4507558703,
				"element": "C" 
			},
			{
				"x": 0.0827070964,
				"y": 1.3061137406,
				"z": -0.1990176335,
				"element": "C" 
			},
			{
				"x": 1.0942213938,
				"y": 0.6134577165,
				"z": 0.7791277921,
				"element": "C" 
			},
			{
				"x": 0.6157709631,
				"y": -0.0975243431,
				"z": 2.3984973672,
				"element": "S" 
			},
			{
				"x": -0.4876963068,
				"y": -1.4931939461,
				"z": 2.0790868923,
				"element": "C" 
			},
			{
				"x": -0.14707365,
				"y": 0.906053678,
				"z": 3.1587391333,
				"element": "O" 
			},
			{
				"x": 1.860232592,
				"y": -0.6542619613,
				"z": 2.955437646,
				"element": "O" 
			},
			{
				"x": -0.1979636029,
				"y": 0.5565719901,
				"z": -1.4298284596,
				"element": "N" 
			},
			{
				"x": -0.7948704054,
				"y": -0.7481776949,
				"z": -1.3406531736,
				"element": "C" 
			},
			{
				"x": -2.3024129858,
				"y": -0.8634195422,
				"z": -1.3805403632,
				"element": "C" 
			},
			{
				"x": -1.4810059044,
				"y": -1.2633661806,
				"z": -2.5800766211,
				"element": "C" 
			},
			{
				"x": -0.9795312102,
				"y": 2.4580859972,
				"z": 1.311739126,
				"element": "H" 
			},
			{
				"x": -1.7598701427,
				"y": 2.4042056369,
				"z": -0.2926117604,
				"element": "H" 
			},
			{
				"x": -1.8512625487,
				"y": 1.019677155,
				"z": 0.8029818391,
				"element": "H" 
			},
			{
				"x": 0.6274743416,
				"y": 2.1915371326,
				"z": -0.548836469,
				"element": "H" 
			},
			{
				"x": 1.8341267323,
				"y": 1.3423906822,
				"z": 1.1266799843,
				"element": "H" 
			},
			{
				"x": 1.6506985727,
				"y": -0.1813016601,
				"z": 0.2731988311,
				"element": "H" 
			},
			{
				"x": -1.3776484301,
				"y": -1.1596018744,
				"z": 1.5462204952,
				"element": "H" 
			},
			{
				"x": 0.0491582817,
				"y": -2.2591910511,
				"z": 1.5183551183,
				"element": "H" 
			},
			{
				"x": -0.7557153966,
				"y": -1.8720642261,
				"z": 3.0673565044,
				"element": "H" 
			},
			{
				"x": 0.6441083075,
				"y": 0.5055311067,
				"z": -1.9966156031,
				"element": "H" 
			},
			{
				"x": -0.2754581366,
				"y": -1.5085079566,
				"z": -0.7486466801,
				"element": "H" 
			},
			{
				"x": -2.8621764022,
				"y": 0.0625293451,
				"z": -1.4491609249,
				"element": "H" 
			},
			{
				"x": -2.7772227905,
				"y": -1.6451102428,
				"z": -0.7943878997,
				"element": "H" 
			},
			{
				"x": -1.4982267741,
				"y": -0.59756403,
				"z": -3.4370061227,
				"element": "H" 
			},
			{
				"x": -1.3855008944,
				"y": -2.3177666677,
				"z": -2.8195948887,
				"element": "H" 
			}
		],
		 "valence_orbital": [ 
			{
				"type": "occ",
				"energy": -0.3038,
				"method": "rhf"
			},
			{
				"type": "occ",
				"energy": -0.29727,
				"method": "rhf"
			},
			{
				"type": "occ",
				"energy": -0.28827,
				"method": "rhf"
			},
			{
				"type": "occ",
				"energy": -0.28126,
				"method": "rhf"
			},
			{
				"type": "occ",
				"energy": -0.23649,
				"method": "rhf"
			},
			{
				"type": "unocc",
				"energy": 0.05176,
				"method": "rhf"
			},
			{
				"type": "unocc",
				"energy": 0.06002,
				"method": "rhf"
			},
			{
				"type": "unocc",
				"energy": 0.06682,
				"method": "rhf"
			},
			{
				"type": "unocc",
				"energy": 0.0801,
				"method": "rhf"
			},
			{
				"type": "unocc",
				"energy": 0.08895,
				"method": "rhf"
			}
		],
		"cosmo_sigma_profile": { 
			"-0.025": 0.0,
			"-0.024": 0.0,
			"-0.023": 0.0,
			"-0.022": 0.0,
			"-0.021": 0.0,
			"-0.02": 0.0,
			"-0.019": 0.0,
			"-0.018": 0.0,
			"-0.017": 0.0,
			"-0.016": 0.0,
			"-0.015": 0.0,
			"-0.014": 0.0,
			"-0.013": 0.0,
			"-0.012": 0.0,
			"-0.011": 0.422186904576,
			"-0.01": 2.21289921138,
			"-0.009": 4.29867691833,
			"-0.008": 9.02630784333,
			"-0.007": 9.9446734912,
			"-0.006": 12.9761682731,
			"-0.005": 13.0990526958,
			"-0.004": 18.4056805593,
			"-0.003": 19.9211209017,
			"-0.002": 16.6923454108,
			"-0.001": 15.1889144798,
			"0.0": 15.8636962811,
			"0.001": 13.1086059185,
			"0.002": 8.19630403812,
			"0.003": 6.77800466155,
			"0.004": 4.67873455639,
			"0.005": 5.48376766439,
			"0.006": 3.56052535405,
			"0.007": 2.96497806031,
			"0.008": 3.54742754045,
			"0.009": 3.14720861696,
			"0.01": 4.19019831521,
			"0.011": 6.00205961488,
			"0.012": 10.9578459661,
			"0.013": 6.71425071779,
			"0.014": 0.533951231971,
			"0.015": 0.32754979933,
			"0.016": 0.0991066625661,
			"0.017": 0.0,
			"0.018": 0.0,
			"0.019": 0.0,
			"0.02": 0.0,
			"0.021": 0.0,
			"0.022": 0.0,
			"0.023": 0.0,
			"0.024": 0.0,
			"0.025": 0.0
		}
	}
}
