{
	 "smiles": "CC1CNC2=C(CN1C(=O)OC(C)(C)C)C=CC=C2", 
	 "Tm": 432.15, 
	 "num_atms": 41, 
	 "gaussian": { 
		 "optdone": 1, 
		 "sigma_profile": "yes", 
		 "theory": "DFT", 
		 "functional": "B3LYP", 
		 "basiset": "6-31G**", 
		 "properties": { 
			 "R2extent": 6103.7948, 
			 "electric_dipole_moment_norm": 1.33767565576, 
			 "electric_quadrupole_moment_norm": 19.6941251443, 
			 "total_energy": -844.842809044, 
			 "HOMO_LUMO_gap": 0.19542, 
			 "cosmo_polarized_energy": -11.67, 
			 "cosmo_cavitation_energy": 40.48, 
			 "cosmo_dispersion_energy": -27.86, 
			 "cosmo_repulsion_energy": 2.13, 
			 "cosmo_total_nonelectrostatic_energy": 14.75, 
			 "SMD_solvation_energy": 6.29 
		},
		"coords": [
			{
				"x": 1.4721380681,
				"y": -0.8559526102,
				"z": -2.5265355102,
				"element": "C" 
			},
			{
				"x": 0.8110161367,
				"y": -1.9419905389,
				"z": -1.6671384788,
				"element": "C" 
			},
			{
				"x": -0.2710202899,
				"y": -2.7366262253,
				"z": -2.4190479666,
				"element": "C" 
			},
			{
				"x": -1.3102493038,
				"y": -1.9636293922,
				"z": -3.0967701678,
				"element": "N" 
			},
			{
				"x": -1.8702387701,
				"y": -0.7722976579,
				"z": -2.6452270009,
				"element": "C" 
			},
			{
				"x": -1.8122122143,
				"y": -0.3593363563,
				"z": -1.2934103751,
				"element": "C" 
			},
			{
				"x": -1.1635057917,
				"y": -1.2169031347,
				"z": -0.2239209752,
				"element": "C" 
			},
			{
				"x": 0.2832566375,
				"y": -1.4051164493,
				"z": -0.3946609941,
				"element": "N" 
			},
			{
				"x": 1.2000897544,
				"y": -1.1902061928,
				"z": 0.6010443055,
				"element": "C" 
			},
			{
				"x": 2.4010449143,
				"y": -1.3919401,
				"z": 0.4571764673,
				"element": "O" 
			},
			{
				"x": 0.6180004611,
				"y": -0.7406201017,
				"z": 1.7420682597,
				"element": "O" 
			},
			{
				"x": 1.4293603945,
				"y": -0.4146305171,
				"z": 2.9243479752,
				"element": "C" 
			},
			{
				"x": 2.4119088576,
				"y": 0.7152991266,
				"z": 2.5975258994,
				"element": "C" 
			},
			{
				"x": 0.3748127484,
				"y": 0.0599979741,
				"z": 3.9283381312,
				"element": "C" 
			},
			{
				"x": 2.138997667,
				"y": -1.6718709199,
				"z": 3.4389153193,
				"element": "C" 
			},
			{
				"x": -2.4106887094,
				"y": 0.8517101044,
				"z": -0.932009988,
				"element": "C" 
			},
			{
				"x": -3.0754174334,
				"y": 1.6590635332,
				"z": -1.8544050862,
				"element": "C" 
			},
			{
				"x": -3.1388653807,
				"y": 1.2411167322,
				"z": -3.1843542677,
				"element": "C" 
			},
			{
				"x": -2.5416291263,
				"y": 0.047416573,
				"z": -3.5741013232,
				"element": "C" 
			},
			{
				"x": 1.8946918558,
				"y": -1.2972082733,
				"z": -3.4368179599,
				"element": "H" 
			},
			{
				"x": 2.286633962,
				"y": -0.3976312855,
				"z": -1.9623265222,
				"element": "H" 
			},
			{
				"x": 0.7604249712,
				"y": -0.079148696,
				"z": -2.8153677315,
				"element": "H" 
			},
			{
				"x": 1.5869201441,
				"y": -2.6641872334,
				"z": -1.3904211163,
				"element": "H" 
			},
			{
				"x": -0.7132029148,
				"y": -3.474223964,
				"z": -1.7368725376,
				"element": "H" 
			},
			{
				"x": 0.2398019614,
				"y": -3.3150004567,
				"z": -3.1946502823,
				"element": "H" 
			},
			{
				"x": -1.2951536881,
				"y": -2.0424323349,
				"z": -4.1016869628,
				"element": "H" 
			},
			{
				"x": -1.6579323314,
				"y": -2.1976461506,
				"z": -0.1847484053,
				"element": "H" 
			},
			{
				"x": -1.3155508128,
				"y": -0.7536951427,
				"z": 0.7472481264,
				"element": "H" 
			},
			{
				"x": 2.9247746352,
				"y": 1.0315141929,
				"z": 3.5118551141,
				"element": "H" 
			},
			{
				"x": 3.1547537312,
				"y": 0.3881060203,
				"z": 1.8701682058,
				"element": "H" 
			},
			{
				"x": 1.875050952,
				"y": 1.5795680037,
				"z": 2.1934516409,
				"element": "H" 
			},
			{
				"x": 0.8523847753,
				"y": 0.3348024692,
				"z": 4.8735391201,
				"element": "H" 
			},
			{
				"x": -0.3542819561,
				"y": -0.7312915289,
				"z": 4.1262930686,
				"element": "H" 
			},
			{
				"x": -0.159399008,
				"y": 0.9340429718,
				"z": 3.5441110435,
				"element": "H" 
			},
			{
				"x": 1.4113122334,
				"y": -2.4683310337,
				"z": 3.6251447707,
				"element": "H" 
			},
			{
				"x": 2.8748029837,
				"y": -2.0258071961,
				"z": 2.7169697294,
				"element": "H" 
			},
			{
				"x": 2.6456490055,
				"y": -1.447597339,
				"z": 4.383402146,
				"element": "H" 
			},
			{
				"x": -2.3554159421,
				"y": 1.1610115306,
				"z": 0.1091738702,
				"element": "H" 
			},
			{
				"x": -3.5332877686,
				"y": 2.591774278,
				"z": -1.5412512813,
				"element": "H" 
			},
			{
				"x": -3.6501751431,
				"y": 1.8475114081,
				"z": -3.9269686386,
				"element": "H" 
			},
			{
				"x": -2.5907002661,
				"y": -0.267914087,
				"z": -4.6143796217,
				"element": "H" 
			}
		],
		 "valence_orbital": [ 
			{
				"type": "occ",
				"energy": -0.28167,
				"method": "rhf"
			},
			{
				"type": "occ",
				"energy": -0.25577,
				"method": "rhf"
			},
			{
				"type": "occ",
				"energy": -0.24114,
				"method": "rhf"
			},
			{
				"type": "occ",
				"energy": -0.23139,
				"method": "rhf"
			},
			{
				"type": "occ",
				"energy": -0.19167,
				"method": "rhf"
			},
			{
				"type": "unocc",
				"energy": 0.00375,
				"method": "rhf"
			},
			{
				"type": "unocc",
				"energy": 0.01656,
				"method": "rhf"
			},
			{
				"type": "unocc",
				"energy": 0.0596,
				"method": "rhf"
			},
			{
				"type": "unocc",
				"energy": 0.06746,
				"method": "rhf"
			},
			{
				"type": "unocc",
				"energy": 0.08682,
				"method": "rhf"
			}
		],
		"cosmo_sigma_profile": { 
			"-0.025": 0.0,
			"-0.024": 0.0,
			"-0.023": 0.0,
			"-0.022": 0.0,
			"-0.021": 0.0,
			"-0.02": 0.0,
			"-0.019": 0.0,
			"-0.018": 0.0,
			"-0.017": 0.0,
			"-0.016": 0.0,
			"-0.015": 0.0,
			"-0.014": 0.0,
			"-0.013": 0.421010113002,
			"-0.012": 1.55716095448,
			"-0.011": 1.15286415014,
			"-0.01": 1.0823666449,
			"-0.009": 2.07139648575,
			"-0.008": 1.84978397742,
			"-0.007": 1.68871264434,
			"-0.006": 4.60588398964,
			"-0.005": 14.1397965167,
			"-0.004": 29.2466680624,
			"-0.003": 32.9596037366,
			"-0.002": 31.2594397078,
			"-0.001": 29.9625435054,
			"0.0": 37.7653540457,
			"0.001": 36.6973924532,
			"0.002": 17.9421297605,
			"0.003": 13.2719517228,
			"0.004": 12.9368734848,
			"0.005": 10.8616827562,
			"0.006": 11.7669239262,
			"0.007": 8.92372395292,
			"0.008": 3.8132083838,
			"0.009": 1.608964059,
			"0.01": 1.84426818467,
			"0.011": 1.7720042303,
			"0.012": 1.77229700616,
			"0.013": 1.73653632901,
			"0.014": 1.48159710715,
			"0.015": 0.0,
			"0.016": 0.0,
			"0.017": 0.0,
			"0.018": 0.0,
			"0.019": 0.0,
			"0.02": 0.0,
			"0.021": 0.0,
			"0.022": 0.0,
			"0.023": 0.0,
			"0.024": 0.0,
			"0.025": 0.0
		}
	}
}
