{
	 "smiles": "CSC1=NC=NC2=C1C=NN2C1=CC=CC=C1", 
	 "Tm": 389.15, 
	 "num_atms": 27, 
	 "gaussian": { 
		 "optdone": 1, 
		 "sigma_profile": "yes", 
		 "theory": "DFT", 
		 "functional": "B3LYP", 
		 "basiset": "6-31G**", 
		 "properties": { 
			 "R2extent": 5506.1988, 
			 "electric_dipole_moment_norm": 1.37141726327, 
			 "electric_quadrupole_moment_norm": 15.5046821889, 
			 "total_energy": -1080.48629412, 
			 "HOMO_LUMO_gap": 0.1654, 
			 "cosmo_polarized_energy": -7.93, 
			 "cosmo_cavitation_energy": 32.87, 
			 "cosmo_dispersion_energy": -25.01, 
			 "cosmo_repulsion_energy": 1.85, 
			 "cosmo_total_nonelectrostatic_energy": 9.71, 
			 "SMD_solvation_energy": 3.35 
		},
		"coords": [
			{
				"x": 5.30876177,
				"y": -1.1757317416,
				"z": 0.973776926,
				"element": "C" 
			},
			{
				"x": 4.1506912234,
				"y": 0.2240619577,
				"z": 1.1432459879,
				"element": "S" 
			},
			{
				"x": 2.6512118466,
				"y": -0.4938598349,
				"z": 0.5517008413,
				"element": "C" 
			},
			{
				"x": 2.6371552437,
				"y": -1.7618621195,
				"z": 0.1419506151,
				"element": "N" 
			},
			{
				"x": 1.4672250343,
				"y": -2.2683566945,
				"z": -0.302390864,
				"element": "C" 
			},
			{
				"x": 0.2881195983,
				"y": -1.6635652837,
				"z": -0.392815503,
				"element": "N" 
			},
			{
				"x": 0.3197727222,
				"y": -0.3863363424,
				"z": 0.0241345723,
				"element": "C" 
			},
			{
				"x": 1.4698362607,
				"y": 0.2743191471,
				"z": 0.513108217,
				"element": "C" 
			},
			{
				"x": 1.024572935,
				"y": 1.5881287354,
				"z": 0.8268272392,
				"element": "C" 
			},
			{
				"x": -0.2578344988,
				"y": 1.7255426562,
				"z": 0.5616758627,
				"element": "N" 
			},
			{
				"x": -0.7070217498,
				"y": 0.5258171909,
				"z": 0.0689159369,
				"element": "N" 
			},
			{
				"x": -2.0791431728,
				"y": 0.3984436211,
				"z": -0.3028123561,
				"element": "C" 
			},
			{
				"x": -2.5791981949,
				"y": -0.8081780333,
				"z": -0.8091970276,
				"element": "C" 
			},
			{
				"x": -3.9266560194,
				"y": -0.8919004413,
				"z": -1.1610343796,
				"element": "C" 
			},
			{
				"x": -4.7759339135,
				"y": 0.2047918493,
				"z": -1.0153143359,
				"element": "C" 
			},
			{
				"x": -4.2648026489,
				"y": 1.4016416866,
				"z": -0.5093880543,
				"element": "C" 
			},
			{
				"x": -2.9229432096,
				"y": 1.5069875403,
				"z": -0.1519988824,
				"element": "C" 
			},
			{
				"x": 4.9824712072,
				"y": -2.0166770955,
				"z": 1.5852897853,
				"element": "H" 
			},
			{
				"x": 5.3809471858,
				"y": -1.4868311249,
				"z": -0.0681488612,
				"element": "H" 
			},
			{
				"x": 6.2726077822,
				"y": -0.8027967359,
				"z": 1.325572061,
				"element": "H" 
			},
			{
				"x": 1.5019711149,
				"y": -3.3060901569,
				"z": -0.626601382,
				"element": "H" 
			},
			{
				"x": 1.5830520385,
				"y": 2.4225549346,
				"z": 1.2289073956,
				"element": "H" 
			},
			{
				"x": -1.9217816858,
				"y": -1.6595841725,
				"z": -0.9228259517,
				"element": "H" 
			},
			{
				"x": -4.3096649338,
				"y": -1.8296102611,
				"z": -1.5532217419,
				"element": "H" 
			},
			{
				"x": -5.8231176651,
				"y": 0.1289658903,
				"z": -1.2921892284,
				"element": "H" 
			},
			{
				"x": -4.9130688961,
				"y": 2.2648997611,
				"z": -0.3898182189,
				"element": "H" 
			},
			{
				"x": -2.5191293744,
				"y": 2.4309250672,
				"z": 0.2407513466,
				"element": "H" 
			}
		],
		 "valence_orbital": [ 
			{
				"type": "occ",
				"energy": -0.28279,
				"method": "rhf"
			},
			{
				"type": "occ",
				"energy": -0.26625,
				"method": "rhf"
			},
			{
				"type": "occ",
				"energy": -0.25141,
				"method": "rhf"
			},
			{
				"type": "occ",
				"energy": -0.2401,
				"method": "rhf"
			},
			{
				"type": "occ",
				"energy": -0.22403,
				"method": "rhf"
			},
			{
				"type": "unocc",
				"energy": -0.05863,
				"method": "rhf"
			},
			{
				"type": "unocc",
				"energy": -0.02914,
				"method": "rhf"
			},
			{
				"type": "unocc",
				"energy": -0.00324,
				"method": "rhf"
			},
			{
				"type": "unocc",
				"energy": 0.01141,
				"method": "rhf"
			},
			{
				"type": "unocc",
				"energy": 0.0207,
				"method": "rhf"
			}
		],
		"cosmo_sigma_profile": { 
			"-0.025": 0.0,
			"-0.024": 0.0,
			"-0.023": 0.0,
			"-0.022": 0.0,
			"-0.021": 0.0,
			"-0.02": 0.0,
			"-0.019": 0.0,
			"-0.018": 0.0,
			"-0.017": 0.0,
			"-0.016": 0.0,
			"-0.015": 0.0,
			"-0.014": 0.0,
			"-0.013": 0.0,
			"-0.012": 0.0,
			"-0.011": 0.0,
			"-0.01": 0.0626799603663,
			"-0.009": 1.56094482969,
			"-0.008": 2.79349714266,
			"-0.007": 7.0077575736,
			"-0.006": 11.8666966644,
			"-0.005": 15.6966908318,
			"-0.004": 18.5562203498,
			"-0.003": 17.9140393936,
			"-0.002": 27.236034453,
			"-0.001": 25.42412635,
			"0.0": 22.3808639463,
			"0.001": 18.232908479,
			"0.002": 20.991000661,
			"0.003": 19.6099944596,
			"0.004": 19.0174262623,
			"0.005": 16.2889914044,
			"0.006": 7.99412534576,
			"0.007": 5.48685003311,
			"0.008": 3.87961347498,
			"0.009": 2.74185138028,
			"0.01": 1.96215696503,
			"0.011": 0.51882762489,
			"0.012": 0.0761904555282,
			"0.013": 0.0,
			"0.014": 0.0,
			"0.015": 0.0,
			"0.016": 0.0,
			"0.017": 0.0,
			"0.018": 0.0,
			"0.019": 0.0,
			"0.02": 0.0,
			"0.021": 0.0,
			"0.022": 0.0,
			"0.023": 0.0,
			"0.024": 0.0,
			"0.025": 0.0
		}
	}
}
