{
	 "smiles": "NS(=O)(=O)C1=CC=C(C=C1)C#N", 
	 "Tm": 442.65, 
	 "num_atms": 18, 
	 "gaussian": { 
		 "optdone": 1, 
		 "sigma_profile": "yes", 
		 "theory": "DFT", 
		 "functional": "B3LYP", 
		 "basiset": "6-31G**", 
		 "properties": { 
			 "R2extent": 3201.8832, 
			 "electric_dipole_moment_norm": 3.70365354346, 
			 "electric_quadrupole_moment_norm": 23.0055594374, 
			 "total_energy": -928.409833409, 
			 "HOMO_LUMO_gap": 0.20125, 
			 "cosmo_polarized_energy": -18.33, 
			 "cosmo_cavitation_energy": 25.37, 
			 "cosmo_dispersion_energy": -18.64, 
			 "cosmo_repulsion_energy": 1.44, 
			 "cosmo_total_nonelectrostatic_energy": 8.17, 
			 "SMD_solvation_energy": 5.46 
		},
		"coords": [
			{
				"x": -2.3758385429,
				"y": 1.8135520557,
				"z": 0.6259374531,
				"element": "N" 
			},
			{
				"x": -1.1533226765,
				"y": 2.5702841044,
				"z": -0.2629092172,
				"element": "S" 
			},
			{
				"x": -0.377850219,
				"y": 3.3885827799,
				"z": 0.6722187315,
				"element": "O" 
			},
			{
				"x": -1.7701160201,
				"y": 3.1176559278,
				"z": -1.4734430638,
				"element": "O" 
			},
			{
				"x": -0.107718787,
				"y": 1.1974998876,
				"z": -0.7680428269,
				"element": "C" 
			},
			{
				"x": 0.9524288372,
				"y": 0.811771527,
				"z": 0.0538370713,
				"element": "C" 
			},
			{
				"x": 1.7602459713,
				"y": -0.252109385,
				"z": -0.3357562157,
				"element": "C" 
			},
			{
				"x": 1.5035723689,
				"y": -0.9179469878,
				"z": -1.5465247064,
				"element": "C" 
			},
			{
				"x": 0.4411132163,
				"y": -0.5081828495,
				"z": -2.3702053266,
				"element": "C" 
			},
			{
				"x": -0.3664576651,
				"y": 0.5557431344,
				"z": -1.9802171548,
				"element": "C" 
			},
			{
				"x": 2.3355593304,
				"y": -2.0159595244,
				"z": -1.9477972632,
				"element": "C" 
			},
			{
				"x": 3.0084299201,
				"y": -2.9072859346,
				"z": -2.2719385187,
				"element": "N" 
			},
			{
				"x": -2.3636316939,
				"y": 2.1525224431,
				"z": 1.5842229916,
				"element": "H" 
			},
			{
				"x": -3.2749062619,
				"y": 1.9752550133,
				"z": 0.1799706522,
				"element": "H" 
			},
			{
				"x": 1.1474913412,
				"y": 1.3506971241,
				"z": 0.9741377551,
				"element": "H" 
			},
			{
				"x": 2.5910207615,
				"y": -0.5680545467,
				"z": 0.2857084535,
				"element": "H" 
			},
			{
				"x": 0.2602939733,
				"y": -1.0205326693,
				"z": -3.3088370625,
				"element": "H" 
			},
			{
				"x": -1.1778138538,
				"y": 0.8993078998,
				"z": -2.6119617527,
				"element": "H" 
			}
		],
		 "valence_orbital": [ 
			{
				"type": "occ",
				"energy": -0.33273,
				"method": "rhf"
			},
			{
				"type": "occ",
				"energy": -0.32116,
				"method": "rhf"
			},
			{
				"type": "occ",
				"energy": -0.31426,
				"method": "rhf"
			},
			{
				"type": "occ",
				"energy": -0.29499,
				"method": "rhf"
			},
			{
				"type": "occ",
				"energy": -0.28116,
				"method": "rhf"
			},
			{
				"type": "unocc",
				"energy": -0.07991,
				"method": "rhf"
			},
			{
				"type": "unocc",
				"energy": -0.04391,
				"method": "rhf"
			},
			{
				"type": "unocc",
				"energy": 0.02327,
				"method": "rhf"
			},
			{
				"type": "unocc",
				"energy": 0.03447,
				"method": "rhf"
			},
			{
				"type": "unocc",
				"energy": 0.04245,
				"method": "rhf"
			}
		],
		"cosmo_sigma_profile": { 
			"-0.025": 0.0,
			"-0.024": 0.0,
			"-0.023": 0.0,
			"-0.022": 0.0,
			"-0.021": 0.0,
			"-0.02": 0.0,
			"-0.019": 0.0,
			"-0.018": 0.0,
			"-0.017": 0.0,
			"-0.016": 0.113832245271,
			"-0.015": 1.90362155857,
			"-0.014": 2.21294379871,
			"-0.013": 2.49063108269,
			"-0.012": 2.73106917852,
			"-0.011": 2.04468111121,
			"-0.01": 2.10522653217,
			"-0.009": 5.50859100741,
			"-0.008": 10.0794231398,
			"-0.007": 10.2921424747,
			"-0.006": 9.53928729544,
			"-0.005": 7.87276816697,
			"-0.004": 8.78420843569,
			"-0.003": 9.65768234084,
			"-0.002": 12.3482984313,
			"-0.001": 15.2651186353,
			"0.0": 17.6017681967,
			"0.001": 9.81265461497,
			"0.002": 4.83587019957,
			"0.003": 5.37306120501,
			"0.004": 4.82082217574,
			"0.005": 6.10661812873,
			"0.006": 5.6281519992,
			"0.007": 6.82624479316,
			"0.008": 7.27401196438,
			"0.009": 7.51940621459,
			"0.01": 11.6326095936,
			"0.011": 10.8741358428,
			"0.012": 2.94274502796,
			"0.013": 0.52108774799,
			"0.014": 0.0,
			"0.015": 0.0,
			"0.016": 0.0,
			"0.017": 0.0,
			"0.018": 0.0,
			"0.019": 0.0,
			"0.02": 0.0,
			"0.021": 0.0,
			"0.022": 0.0,
			"0.023": 0.0,
			"0.024": 0.0,
			"0.025": 0.0
		}
	}
}
