{
	 "smiles": "OC1=CC(NC(=O)NC2=CC=C(F)C=C2)=CC=C1", 
	 "Tm": 488.15, 
	 "num_atms": 29, 
	 "gaussian": { 
		 "optdone": 1, 
		 "sigma_profile": "yes", 
		 "theory": "DFT", 
		 "functional": "B3LYP", 
		 "basiset": "6-31G**", 
		 "properties": { 
			 "R2extent": 7262.4904, 
			 "electric_dipole_moment_norm": 3.53470582793, 
			 "electric_quadrupole_moment_norm": 12.9398142993, 
			 "total_energy": -861.820389856, 
			 "HOMO_LUMO_gap": 0.19036, 
			 "cosmo_polarized_energy": -18.16, 
			 "cosmo_cavitation_energy": 34.54, 
			 "cosmo_dispersion_energy": -24.74, 
			 "cosmo_repulsion_energy": 1.87, 
			 "cosmo_total_nonelectrostatic_energy": 11.68, 
			 "SMD_solvation_energy": 7.35 
		},
		"coords": [
			{
				"x": -2.4414829434,
				"y": -2.885102375,
				"z": -0.8005707808,
				"element": "O" 
			},
			{
				"x": -1.2510887445,
				"y": -2.275929105,
				"z": -1.0680768544,
				"element": "C" 
			},
			{
				"x": -0.562430799,
				"y": -1.5319716316,
				"z": -0.1037972796,
				"element": "C" 
			},
			{
				"x": 0.6605125894,
				"y": -0.9216524446,
				"z": -0.4305424016,
				"element": "C" 
			},
			{
				"x": 1.3884153079,
				"y": -0.1847091502,
				"z": 0.5279841104,
				"element": "N" 
			},
			{
				"x": 0.9760896083,
				"y": 0.7753159113,
				"z": 1.4535987625,
				"element": "C" 
			},
			{
				"x": 1.7822319579,
				"y": 1.2419566617,
				"z": 2.2485430156,
				"element": "O" 
			},
			{
				"x": -0.3520174567,
				"y": 1.1356995698,
				"z": 1.3683168418,
				"element": "N" 
			},
			{
				"x": -1.0472273407,
				"y": 2.065235108,
				"z": 2.1710044443,
				"element": "C" 
			},
			{
				"x": -0.4915208699,
				"y": 2.6843264878,
				"z": 3.3022810089,
				"element": "C" 
			},
			{
				"x": -1.2589461813,
				"y": 3.5765118834,
				"z": 4.050631655,
				"element": "C" 
			},
			{
				"x": -2.5677146605,
				"y": 3.8483736077,
				"z": 3.6736314608,
				"element": "C" 
			},
			{
				"x": -3.3036360677,
				"y": 4.7150157738,
				"z": 4.4048992394,
				"element": "F" 
			},
			{
				"x": -3.1377636376,
				"y": 3.2491775507,
				"z": 2.5572074028,
				"element": "C" 
			},
			{
				"x": -2.3723289354,
				"y": 2.3580130595,
				"z": 1.8096990896,
				"element": "C" 
			},
			{
				"x": 1.1968103704,
				"y": -1.0904293635,
				"z": -1.7143485584,
				"element": "C" 
			},
			{
				"x": 0.5062381583,
				"y": -1.8547526629,
				"z": -2.6552363259,
				"element": "C" 
			},
			{
				"x": -0.7198003385,
				"y": -2.4405851175,
				"z": -2.3520593641,
				"element": "C" 
			},
			{
				"x": -2.6873025466,
				"y": -2.7248686294,
				"z": 0.1199277234,
				"element": "H" 
			},
			{
				"x": -0.9456038452,
				"y": -1.4684711583,
				"z": 0.911083228,
				"element": "H" 
			},
			{
				"x": 2.3965577955,
				"y": -0.2383972101,
				"z": 0.4890500687,
				"element": "H" 
			},
			{
				"x": -0.8671380159,
				"y": 0.7748602981,
				"z": 0.5775909732,
				"element": "H" 
			},
			{
				"x": 0.5312522538,
				"y": 2.4684200613,
				"z": 3.5757516366,
				"element": "H" 
			},
			{
				"x": -0.843641589,
				"y": 4.0640424443,
				"z": 4.9261936686,
				"element": "H" 
			},
			{
				"x": -4.160896031,
				"y": 3.4812255349,
				"z": 2.2824783284,
				"element": "H" 
			},
			{
				"x": -2.8098931062,
				"y": 1.8871152159,
				"z": 0.9324003566,
				"element": "H" 
			},
			{
				"x": 2.1386429589,
				"y": -0.6148592598,
				"z": -1.9694944347,
				"element": "H" 
			},
			{
				"x": 0.9264948015,
				"y": -1.9831018046,
				"z": -3.6483862699,
				"element": "H" 
			},
			{
				"x": -1.2686126927,
				"y": -3.0279592557,
				"z": -3.0795607453,
				"element": "H" 
			}
		],
		 "valence_orbital": [ 
			{
				"type": "occ",
				"energy": -0.26874,
				"method": "rhf"
			},
			{
				"type": "occ",
				"energy": -0.25893,
				"method": "rhf"
			},
			{
				"type": "occ",
				"energy": -0.25078,
				"method": "rhf"
			},
			{
				"type": "occ",
				"energy": -0.22976,
				"method": "rhf"
			},
			{
				"type": "occ",
				"energy": -0.21308,
				"method": "rhf"
			},
			{
				"type": "unocc",
				"energy": -0.02272,
				"method": "rhf"
			},
			{
				"type": "unocc",
				"energy": -0.00967,
				"method": "rhf"
			},
			{
				"type": "unocc",
				"energy": -0.00903,
				"method": "rhf"
			},
			{
				"type": "unocc",
				"energy": 0.00704,
				"method": "rhf"
			},
			{
				"type": "unocc",
				"energy": 0.05651,
				"method": "rhf"
			}
		],
		"cosmo_sigma_profile": { 
			"-0.025": 0.0,
			"-0.024": 0.0,
			"-0.023": 0.0,
			"-0.022": 0.0,
			"-0.021": 0.0,
			"-0.02": 0.0,
			"-0.019": 0.0,
			"-0.018": 0.664883234205,
			"-0.017": 1.20961533823,
			"-0.016": 1.10743117621,
			"-0.015": 1.42846537426,
			"-0.014": 1.78121251592,
			"-0.013": 2.13622084577,
			"-0.012": 2.64248537221,
			"-0.011": 3.34748001379,
			"-0.01": 4.03690362821,
			"-0.009": 3.82497835804,
			"-0.008": 4.20731743982,
			"-0.007": 8.3869281912,
			"-0.006": 13.1093814424,
			"-0.005": 13.9922703418,
			"-0.004": 16.3176575855,
			"-0.003": 12.2007461406,
			"-0.002": 10.6711150125,
			"-0.001": 13.4187075943,
			"0.0": 15.4182662731,
			"0.001": 18.0882663109,
			"0.002": 23.072590964,
			"0.003": 25.5819774398,
			"0.004": 32.6379093798,
			"0.005": 20.1403651012,
			"0.006": 3.91817991568,
			"0.007": 2.9927297234,
			"0.008": 3.1079680526,
			"0.009": 2.8000561203,
			"0.01": 2.87447928396,
			"0.011": 3.53892018312,
			"0.012": 2.74252945183,
			"0.013": 3.58103752927,
			"0.014": 1.86705958854,
			"0.015": 0.00638500360928,
			"0.016": 0.0,
			"0.017": 0.0,
			"0.018": 0.0,
			"0.019": 0.0,
			"0.02": 0.0,
			"0.021": 0.0,
			"0.022": 0.0,
			"0.023": 0.0,
			"0.024": 0.0,
			"0.025": 0.0
		}
	}
}
