{
	 "smiles": "OCC1=C(Cl)C(=CC=C1)C(F)(F)F", 
	 "Tm": 349.15, 
	 "num_atms": 19, 
	 "gaussian": { 
		 "optdone": 1, 
		 "sigma_profile": "yes", 
		 "theory": "DFT", 
		 "functional": "B3LYP", 
		 "basiset": "6-31G**", 
		 "properties": { 
			 "R2extent": 3653.4278, 
			 "electric_dipole_moment_norm": 2.53985007628, 
			 "electric_quadrupole_moment_norm": 14.6062769123, 
			 "total_energy": -1143.39545213, 
			 "HOMO_LUMO_gap": 0.22272, 
			 "cosmo_polarized_energy": -7.63, 
			 "cosmo_cavitation_energy": 25.59, 
			 "cosmo_dispersion_energy": -18.65, 
			 "cosmo_repulsion_energy": 1.41, 
			 "cosmo_total_nonelectrostatic_energy": 8.35, 
			 "SMD_solvation_energy": 5.19 
		},
		"coords": [
			{
				"x": 2.1578658349,
				"y": 0.8852160949,
				"z": 1.2238539304,
				"element": "O" 
			},
			{
				"x": 1.6937384619,
				"y": 0.0797825632,
				"z": 0.1517494125,
				"element": "C" 
			},
			{
				"x": 0.5892005154,
				"y": -0.8848282683,
				"z": 0.5506960917,
				"element": "C" 
			},
			{
				"x": -0.7150384459,
				"y": -0.4524956181,
				"z": 0.8297213442,
				"element": "C" 
			},
			{
				"x": -1.0656125085,
				"y": 1.2730834075,
				"z": 0.7040009501,
				"element": "Cl" 
			},
			{
				"x": -1.7272537603,
				"y": -1.349405026,
				"z": 1.2026064816,
				"element": "C" 
			},
			{
				"x": -1.4188869293,
				"y": -2.709926916,
				"z": 1.296909741,
				"element": "C" 
			},
			{
				"x": -0.1308437798,
				"y": -3.1631631485,
				"z": 1.0270693952,
				"element": "C" 
			},
			{
				"x": 0.8578977616,
				"y": -2.2544980286,
				"z": 0.6602644769,
				"element": "C" 
			},
			{
				"x": -3.1384668078,
				"y": -0.8952331302,
				"z": 1.5054306298,
				"element": "C" 
			},
			{
				"x": -3.7106913346,
				"y": -0.2878568689,
				"z": 0.445606499,
				"element": "F" 
			},
			{
				"x": -3.178570473,
				"y": -0.0296826323,
				"z": 2.5389310949,
				"element": "F" 
			},
			{
				"x": -3.9289826285,
				"y": -1.9409618992,
				"z": 1.8351873731,
				"element": "F" 
			},
			{
				"x": 1.4572852496,
				"y": 1.5156708967,
				"z": 1.4388365642,
				"element": "H" 
			},
			{
				"x": 1.3569273379,
				"y": 0.6926773534,
				"z": -0.6965607736,
				"element": "H" 
			},
			{
				"x": 2.5584779405,
				"y": -0.4980807368,
				"z": -0.1855834814,
				"element": "H" 
			},
			{
				"x": -2.1985649919,
				"y": -3.404187357,
				"z": 1.584835658,
				"element": "H" 
			},
			{
				"x": 0.099044788,
				"y": -4.2208803891,
				"z": 1.104987886,
				"element": "H" 
			},
			{
				"x": 1.8655737699,
				"y": -2.6037302967,
				"z": 0.4527567265,
				"element": "H" 
			}
		],
		 "valence_orbital": [ 
			{
				"type": "occ",
				"energy": -0.34318,
				"method": "rhf"
			},
			{
				"type": "occ",
				"energy": -0.32758,
				"method": "rhf"
			},
			{
				"type": "occ",
				"energy": -0.28233,
				"method": "rhf"
			},
			{
				"type": "occ",
				"energy": -0.27657,
				"method": "rhf"
			},
			{
				"type": "occ",
				"energy": -0.26474,
				"method": "rhf"
			},
			{
				"type": "unocc",
				"energy": -0.04202,
				"method": "rhf"
			},
			{
				"type": "unocc",
				"energy": -0.0342,
				"method": "rhf"
			},
			{
				"type": "unocc",
				"energy": 0.01256,
				"method": "rhf"
			},
			{
				"type": "unocc",
				"energy": 0.08527,
				"method": "rhf"
			},
			{
				"type": "unocc",
				"energy": 0.09249,
				"method": "rhf"
			}
		],
		"cosmo_sigma_profile": { 
			"-0.025": 0.0,
			"-0.024": 0.0,
			"-0.023": 0.0,
			"-0.022": 0.0,
			"-0.021": 0.0,
			"-0.02": 0.0,
			"-0.019": 0.0,
			"-0.018": 0.0,
			"-0.017": 0.0,
			"-0.016": 0.0,
			"-0.015": 0.0,
			"-0.014": 0.0,
			"-0.013": 0.118445016774,
			"-0.012": 0.532976600166,
			"-0.011": 0.884434531406,
			"-0.01": 0.551893829307,
			"-0.009": 1.25513607317,
			"-0.008": 2.33061356608,
			"-0.007": 8.96290162965,
			"-0.006": 9.50011693936,
			"-0.005": 10.3593418845,
			"-0.004": 10.162432294,
			"-0.003": 15.4766209276,
			"-0.002": 13.0427349552,
			"-0.001": 13.1451768294,
			"0.0": 16.6345214195,
			"0.001": 19.3899880752,
			"0.002": 30.4709999265,
			"0.003": 29.5257385779,
			"0.004": 9.87216673977,
			"0.005": 1.40346153356,
			"0.006": 1.64015324621,
			"0.007": 1.3111197374,
			"0.008": 0.68852573604,
			"0.009": 1.48542405427,
			"0.01": 1.00511727188,
			"0.011": 1.31479567233,
			"0.012": 1.93545141758,
			"0.013": 1.7630526512,
			"0.014": 1.80186215015,
			"0.015": 0.0131425159618,
			"0.016": 0.0,
			"0.017": 0.0,
			"0.018": 0.0,
			"0.019": 0.0,
			"0.02": 0.0,
			"0.021": 0.0,
			"0.022": 0.0,
			"0.023": 0.0,
			"0.024": 0.0,
			"0.025": 0.0
		}
	}
}
