{
	 "smiles": "OC(=O)C1=C(CN2C=CC=N2)C2=C(O1)C=CC=C2", 
	 "Tm": 500.15, 
	 "num_atms": 28, 
	 "gaussian": { 
		 "optdone": 1, 
		 "sigma_profile": "yes", 
		 "theory": "DFT", 
		 "functional": "B3LYP", 
		 "basiset": "6-31G**", 
		 "properties": { 
			 "R2extent": 4428.2042, 
			 "electric_dipole_moment_norm": 1.2161595989, 
			 "electric_quadrupole_moment_norm": 18.5694678289, 
			 "total_energy": -836.564790348, 
			 "HOMO_LUMO_gap": 0.16915, 
			 "cosmo_polarized_energy": -14.54, 
			 "cosmo_cavitation_energy": 33.33, 
			 "cosmo_dispersion_energy": -23.59, 
			 "cosmo_repulsion_energy": 1.8, 
			 "cosmo_total_nonelectrostatic_energy": 11.54, 
			 "SMD_solvation_energy": 6.89 
		},
		"coords": [
			{
				"x": 2.0075276635,
				"y": 2.2997204655,
				"z": 1.5713764114,
				"element": "O" 
			},
			{
				"x": 0.6684748958,
				"y": 2.5362758266,
				"z": 1.676087468,
				"element": "C" 
			},
			{
				"x": 0.2217326966,
				"y": 3.6023468551,
				"z": 2.0378908681,
				"element": "O" 
			},
			{
				"x": -0.1365120169,
				"y": 1.3694003171,
				"z": 1.2919300705,
				"element": "C" 
			},
			{
				"x": 0.1618187297,
				"y": 0.0775933962,
				"z": 0.9310484456,
				"element": "C" 
			},
			{
				"x": 1.5082180511,
				"y": -0.5925503618,
				"z": 0.8625368514,
				"element": "C" 
			},
			{
				"x": 1.9337231962,
				"y": -0.8878102524,
				"z": -0.5019866001,
				"element": "N" 
			},
			{
				"x": 2.5361826561,
				"y": -0.0454155424,
				"z": -1.3839392101,
				"element": "C" 
			},
			{
				"x": 2.6786106132,
				"y": -0.7445376626,
				"z": -2.5673833722,
				"element": "C" 
			},
			{
				"x": 2.1169164893,
				"y": -2.0114953669,
				"z": -2.2966423601,
				"element": "C" 
			},
			{
				"x": 1.6624554582,
				"y": -2.0963218857,
				"z": -1.045738307,
				"element": "N" 
			},
			{
				"x": -1.1064933747,
				"y": -0.5495288522,
				"z": 0.6544236425,
				"element": "C" 
			},
			{
				"x": -2.0793170258,
				"y": 0.4377416932,
				"z": 0.8942821345,
				"element": "C" 
			},
			{
				"x": -1.491845568,
				"y": 1.6037919101,
				"z": 1.2814190411,
				"element": "O" 
			},
			{
				"x": -3.4467293829,
				"y": 0.2210592435,
				"z": 0.7483308672,
				"element": "C" 
			},
			{
				"x": -3.8247162489,
				"y": -1.0546494098,
				"z": 0.3396547868,
				"element": "C" 
			},
			{
				"x": -2.8710154271,
				"y": -2.0634556425,
				"z": 0.0834975988,
				"element": "C" 
			},
			{
				"x": -1.5101199753,
				"y": -1.8296274344,
				"z": 0.2330071648,
				"element": "C" 
			},
			{
				"x": 2.4379165819,
				"y": 3.1220012824,
				"z": 1.8594349093,
				"element": "H" 
			},
			{
				"x": 2.2680146846,
				"y": 0.0277008823,
				"z": 1.3358533857,
				"element": "H" 
			},
			{
				"x": 1.468198967,
				"y": -1.5543777299,
				"z": 1.37979282,
				"element": "H" 
			},
			{
				"x": 2.8090806151,
				"y": 0.9599570889,
				"z": -1.098008489,
				"element": "H" 
			},
			{
				"x": 3.1287305884,
				"y": -0.394715433,
				"z": -3.4842785927,
				"element": "H" 
			},
			{
				"x": 2.031940801,
				"y": -2.8660039553,
				"z": -2.9547428545,
				"element": "H" 
			},
			{
				"x": -4.1672999091,
				"y": 1.0072272248,
				"z": 0.9435406055,
				"element": "H" 
			},
			{
				"x": -4.8794938391,
				"y": -1.2778133356,
				"z": 0.2099649974,
				"element": "H" 
			},
			{
				"x": -3.2131048477,
				"y": -3.0404834661,
				"z": -0.2439092993,
				"element": "H" 
			},
			{
				"x": -0.7712950722,
				"y": -2.5909298553,
				"z": 0.0057570165,
				"element": "H" 
			}
		],
		 "valence_orbital": [ 
			{
				"type": "occ",
				"energy": -0.28939,
				"method": "rhf"
			},
			{
				"type": "occ",
				"energy": -0.25175,
				"method": "rhf"
			},
			{
				"type": "occ",
				"energy": -0.24704,
				"method": "rhf"
			},
			{
				"type": "occ",
				"energy": -0.24471,
				"method": "rhf"
			},
			{
				"type": "occ",
				"energy": -0.23496,
				"method": "rhf"
			},
			{
				"type": "unocc",
				"energy": -0.06581,
				"method": "rhf"
			},
			{
				"type": "unocc",
				"energy": 0.00131,
				"method": "rhf"
			},
			{
				"type": "unocc",
				"energy": 0.01075,
				"method": "rhf"
			},
			{
				"type": "unocc",
				"energy": 0.01905,
				"method": "rhf"
			},
			{
				"type": "unocc",
				"energy": 0.06267,
				"method": "rhf"
			}
		],
		"cosmo_sigma_profile": { 
			"-0.025": 0.0,
			"-0.024": 0.0,
			"-0.023": 0.0,
			"-0.022": 0.0,
			"-0.021": 0.0,
			"-0.02": 0.0,
			"-0.019": 0.322372719157,
			"-0.018": 1.00395017284,
			"-0.017": 0.831640085527,
			"-0.016": 0.815508310829,
			"-0.015": 0.885655429289,
			"-0.014": 0.64756024647,
			"-0.013": 0.508450431234,
			"-0.012": 0.636238989792,
			"-0.011": 1.05793372332,
			"-0.01": 0.54393776234,
			"-0.009": 0.701924348427,
			"-0.008": 1.89893623777,
			"-0.007": 8.37562371793,
			"-0.006": 13.4355489588,
			"-0.005": 18.0573726384,
			"-0.004": 21.2169769972,
			"-0.003": 19.3958662944,
			"-0.002": 19.0637952436,
			"-0.001": 20.0243867936,
			"0.0": 18.3058897462,
			"0.001": 17.8332291697,
			"0.002": 18.0235554432,
			"0.003": 18.1708880935,
			"0.004": 18.9817734163,
			"0.005": 12.8812070165,
			"0.006": 7.95606154893,
			"0.007": 3.2042447719,
			"0.008": 4.23267136207,
			"0.009": 3.06760565904,
			"0.01": 4.31917291858,
			"0.011": 6.46076889805,
			"0.012": 3.99009523314,
			"0.013": 0.925064266387,
			"0.014": 0.438417726538,
			"0.015": 0.0633081520271,
			"0.016": 0.0,
			"0.017": 0.0,
			"0.018": 0.0,
			"0.019": 0.0,
			"0.02": 0.0,
			"0.021": 0.0,
			"0.022": 0.0,
			"0.023": 0.0,
			"0.024": 0.0,
			"0.025": 0.0
		}
	}
}
