{
	 "smiles": "OC(=O)C1=C(NS(=O)(=O)C2=CC=C(Br)C=C2)C=CC=C1", 
	 "Tm": 499.15, 
	 "num_atms": 30, 
	 "gaussian": { 
		 "optdone": 1, 
		 "sigma_profile": "yes", 
		 "theory": "DFT", 
		 "functional": "B3LYP", 
		 "basiset": "6-31G**", 
		 "properties": { 
			 "R2extent": 9540.5678, 
			 "electric_dipole_moment_norm": 7.01002038585, 
			 "electric_quadrupole_moment_norm": 25.5876128365, 
			 "total_energy": -3826.58675308, 
			 "HOMO_LUMO_gap": 0.19229, 
			 "cosmo_polarized_energy": -19.2, 
			 "cosmo_cavitation_energy": 38.51, 
			 "cosmo_dispersion_energy": -27.53, 
			 "cosmo_repulsion_energy": 2.06, 
			 "cosmo_total_nonelectrostatic_energy": 13.04, 
			 "SMD_solvation_energy": 5.52 
		},
		"coords": [
			{
				"x": 0.1250265287,
				"y": 3.9596757816,
				"z": 1.6051296561,
				"element": "O" 
			},
			{
				"x": 0.3518819045,
				"y": 3.240147884,
				"z": 2.7187796508,
				"element": "C" 
			},
			{
				"x": 0.2124502672,
				"y": 3.7311345973,
				"z": 3.8163264721,
				"element": "O" 
			},
			{
				"x": 0.7985136124,
				"y": 1.8055059164,
				"z": 2.5551118401,
				"element": "C" 
			},
			{
				"x": 0.2214136589,
				"y": 0.8737606014,
				"z": 1.6687527848,
				"element": "C" 
			},
			{
				"x": -0.8982028438,
				"y": 1.1851396691,
				"z": 0.8188150985,
				"element": "N" 
			},
			{
				"x": -0.6076186001,
				"y": 1.7379083205,
				"z": -0.7658907471,
				"element": "S" 
			},
			{
				"x": -1.8921855861,
				"y": 2.2671799046,
				"z": -1.2203000036,
				"element": "O" 
			},
			{
				"x": 0.6066868559,
				"y": 2.584248187,
				"z": -0.7736148085,
				"element": "O" 
			},
			{
				"x": -0.2072404706,
				"y": 0.2548597684,
				"z": -1.6758416741,
				"element": "C" 
			},
			{
				"x": 1.1123283883,
				"y": 0.0177916115,
				"z": -2.0615085985,
				"element": "C" 
			},
			{
				"x": 1.4105605929,
				"y": -1.1324028013,
				"z": -2.7918764394,
				"element": "C" 
			},
			{
				"x": 0.3834955493,
				"y": -2.0174961748,
				"z": -3.1201791918,
				"element": "C" 
			},
			{
				"x": 0.7905673495,
				"y": -3.5900990827,
				"z": -4.1132628574,
				"element": "Br" 
			},
			{
				"x": -0.9395821681,
				"y": -1.7744019303,
				"z": -2.7409197464,
				"element": "C" 
			},
			{
				"x": -1.2388769963,
				"y": -0.6251621779,
				"z": -2.0146296059,
				"element": "C" 
			},
			{
				"x": 0.6948128768,
				"y": -0.4428491719,
				"z": 1.6369664552,
				"element": "C" 
			},
			{
				"x": 1.7456738406,
				"y": -0.8388280639,
				"z": 2.4613488705,
				"element": "C" 
			},
			{
				"x": 2.3037093605,
				"y": 0.0714855562,
				"z": 3.3608967498,
				"element": "C" 
			},
			{
				"x": 1.8139249818,
				"y": 1.3731300418,
				"z": 3.4195555503,
				"element": "C" 
			},
			{
				"x": 0.4621583347,
				"y": 3.5234238737,
				"z": 0.7931108233,
				"element": "H" 
			},
			{
				"x": -1.5911340074,
				"y": 1.815205775,
				"z": 1.2200608433,
				"element": "H" 
			},
			{
				"x": 1.8878980556,
				"y": 0.7285216718,
				"z": -1.8002514274,
				"element": "H" 
			},
			{
				"x": 2.4280354623,
				"y": -1.3363083582,
				"z": -3.1040677658,
				"element": "H" 
			},
			{
				"x": -1.7226173452,
				"y": -2.4710622162,
				"z": -3.0162412434,
				"element": "H" 
			},
			{
				"x": -2.2609444704,
				"y": -0.4092113065,
				"z": -1.722898481,
				"element": "H" 
			},
			{
				"x": 0.2077834154,
				"y": -1.1532199957,
				"z": 0.9778835404,
				"element": "H" 
			},
			{
				"x": 2.1060481877,
				"y": -1.862249974,
				"z": 2.4210732099,
				"element": "H" 
			},
			{
				"x": 3.1062277048,
				"y": -0.2355110357,
				"z": 4.0244154976,
				"element": "H" 
			},
			{
				"x": 2.2128055599,
				"y": 2.0855831289,
				"z": 4.1336555475,
				"element": "H" 
			}
		],
		 "valence_orbital": [ 
			{
				"type": "occ",
				"energy": -0.2983,
				"method": "rhf"
			},
			{
				"type": "occ",
				"energy": -0.28516,
				"method": "rhf"
			},
			{
				"type": "occ",
				"energy": -0.27741,
				"method": "rhf"
			},
			{
				"type": "occ",
				"energy": -0.26618,
				"method": "rhf"
			},
			{
				"type": "occ",
				"energy": -0.26109,
				"method": "rhf"
			},
			{
				"type": "unocc",
				"energy": -0.0688,
				"method": "rhf"
			},
			{
				"type": "unocc",
				"energy": -0.05306,
				"method": "rhf"
			},
			{
				"type": "unocc",
				"energy": -0.04808,
				"method": "rhf"
			},
			{
				"type": "unocc",
				"energy": -0.0306,
				"method": "rhf"
			},
			{
				"type": "unocc",
				"energy": -0.01786,
				"method": "rhf"
			}
		],
		"cosmo_sigma_profile": { 
			"-0.025": 0.0,
			"-0.024": 0.0,
			"-0.023": 0.0,
			"-0.022": 0.0,
			"-0.021": 0.0,
			"-0.02": 0.0,
			"-0.019": 0.0,
			"-0.018": 0.0,
			"-0.017": 0.0172102163296,
			"-0.016": 0.689854025547,
			"-0.015": 1.03578423757,
			"-0.014": 1.1133517379,
			"-0.013": 0.781932436043,
			"-0.012": 1.02584838483,
			"-0.011": 0.904834796403,
			"-0.01": 0.995033341397,
			"-0.009": 2.9791974503,
			"-0.008": 9.08349248045,
			"-0.007": 13.0712896067,
			"-0.006": 17.3385530388,
			"-0.005": 16.9219235664,
			"-0.004": 19.5533502893,
			"-0.003": 19.3193219534,
			"-0.002": 17.6382376378,
			"-0.001": 22.2761785662,
			"0.0": 31.5493013918,
			"0.001": 26.7461872684,
			"0.002": 22.2068902585,
			"0.003": 22.0789427155,
			"0.004": 12.4831241507,
			"0.005": 6.37914893122,
			"0.006": 4.39223146954,
			"0.007": 5.483019802,
			"0.008": 5.99543925589,
			"0.009": 8.63585074186,
			"0.01": 9.74008783381,
			"0.011": 6.38684041576,
			"0.012": 4.89122037421,
			"0.013": 1.46599376134,
			"0.014": 0.014948582092,
			"0.015": 0.0,
			"0.016": 0.0,
			"0.017": 0.0,
			"0.018": 0.0,
			"0.019": 0.0,
			"0.02": 0.0,
			"0.021": 0.0,
			"0.022": 0.0,
			"0.023": 0.0,
			"0.024": 0.0,
			"0.0": 0.0
		}
	}
}
