{
	 "smiles": "CC(C)(C)C1=CC=CC=C1", 
	 "Tm": 214.55, 
	 "num_atms": 24, 
	 "gaussian": { 
		 "optdone": 1, 
		 "sigma_profile": "yes", 
		 "theory": "DFT", 
		 "functional": "B3LYP", 
		 "basiset": "6-31G**", 
		 "properties": { 
			 "R2extent": 1817.3438, 
			 "electric_dipole_moment_norm": 0.322530448175, 
			 "electric_quadrupole_moment_norm": 4.07262876408, 
			 "total_energy": -389.516206175, 
			 "HOMO_LUMO_gap": 0.2392, 
			 "cosmo_polarized_energy": -3.21, 
			 "cosmo_cavitation_energy": 25.17, 
			 "cosmo_dispersion_energy": -18.15, 
			 "cosmo_repulsion_energy": 1.45, 
			 "cosmo_total_nonelectrostatic_energy": 8.47, 
			 "SMD_solvation_energy": 4.49 
		},
		"coords": [
			{
				"x": 0.6314361149,
				"y": -1.3794303181,
				"z": -0.2301009755,
				"element": "C" 
			},
			{
				"x": -0.0744436265,
				"y": -0.1120680564,
				"z": -0.7684173415,
				"element": "C" 
			},
			{
				"x": -1.1973327078,
				"y": -0.5586265743,
				"z": -1.7240472729,
				"element": "C" 
			},
			{
				"x": 0.9381131127,
				"y": 0.7329573183,
				"z": -1.5776877288,
				"element": "C" 
			},
			{
				"x": -0.6065716903,
				"y": 0.7194995156,
				"z": 0.4139603269,
				"element": "C" 
			},
			{
				"x": -1.9648584902,
				"y": 1.0242455587,
				"z": 0.5797993812,
				"element": "C" 
			},
			{
				"x": -2.4132941197,
				"y": 1.7822107646,
				"z": 1.6654942704,
				"element": "C" 
			},
			{
				"x": -1.5115623143,
				"y": 2.2560118349,
				"z": 2.615854252,
				"element": "C" 
			},
			{
				"x": -0.1540640145,
				"y": 1.9631814101,
				"z": 2.4685995866,
				"element": "C" 
			},
			{
				"x": 0.2868787746,
				"y": 1.2071798121,
				"z": 1.3841947334,
				"element": "C" 
			},
			{
				"x": -0.0644971235,
				"y": -2.0017344855,
				"z": 0.3421047051,
				"element": "H" 
			},
			{
				"x": 1.0222201115,
				"y": -1.9803108374,
				"z": -1.0592422769,
				"element": "H" 
			},
			{
				"x": 1.4715233808,
				"y": -1.1306201774,
				"z": 0.4250327603,
				"element": "H" 
			},
			{
				"x": -1.9366406133,
				"y": -1.1886947537,
				"z": -1.2186355646,
				"element": "H" 
			},
			{
				"x": -1.7206602324,
				"y": 0.2957101221,
				"z": -2.1658887277,
				"element": "H" 
			},
			{
				"x": -0.7712858368,
				"y": -1.1445500309,
				"z": -2.5450311668,
				"element": "H" 
			},
			{
				"x": 0.463325712,
				"y": 1.6346389716,
				"z": -1.9783753169,
				"element": "H" 
			},
			{
				"x": 1.7874924667,
				"y": 1.0483071827,
				"z": -0.9645374792,
				"element": "H" 
			},
			{
				"x": 1.3324475126,
				"y": 0.1531937654,
				"z": -2.4201027525,
				"element": "H" 
			},
			{
				"x": -2.6941940338,
				"y": 0.6717356944,
				"z": -0.1406719255,
				"element": "H" 
			},
			{
				"x": -3.4734542343,
				"y": 2.0000469172,
				"z": 1.7634548942,
				"element": "H" 
			},
			{
				"x": -1.8590349942,
				"y": 2.8450253278,
				"z": 3.4597880426,
				"element": "H" 
			},
			{
				"x": 0.5644300009,
				"y": 2.3240198158,
				"z": 3.1997021789,
				"element": "H" 
			},
			{
				"x": 1.3484268448,
				"y": 0.9944712224,
				"z": 1.2945533972,
				"element": "H" 
			}
		],
		 "valence_orbital": [ 
			{
				"type": "occ",
				"energy": -0.32663,
				"method": "rhf"
			},
			{
				"type": "occ",
				"energy": -0.31616,
				"method": "rhf"
			},
			{
				"type": "occ",
				"energy": -0.31156,
				"method": "rhf"
			},
			{
				"type": "occ",
				"energy": -0.24308,
				"method": "rhf"
			},
			{
				"type": "occ",
				"energy": -0.23553,
				"method": "rhf"
			},
			{
				"type": "unocc",
				"energy": 0.00367,
				"method": "rhf"
			},
			{
				"type": "unocc",
				"energy": 0.00711,
				"method": "rhf"
			},
			{
				"type": "unocc",
				"energy": 0.08228,
				"method": "rhf"
			},
			{
				"type": "unocc",
				"energy": 0.10802,
				"method": "rhf"
			},
			{
				"type": "unocc",
				"energy": 0.12489,
				"method": "rhf"
			}
		],
		"cosmo_sigma_profile": { 
			"-0.025": 0.0,
			"-0.024": 0.0,
			"-0.023": 0.0,
			"-0.022": 0.0,
			"-0.021": 0.0,
			"-0.02": 0.0,
			"-0.019": 0.0,
			"-0.018": 0.0,
			"-0.017": 0.0,
			"-0.016": 0.0,
			"-0.015": 0.0,
			"-0.014": 0.0,
			"-0.013": 0.0,
			"-0.012": 0.0,
			"-0.011": 0.0,
			"-0.01": 0.0,
			"-0.009": 0.0,
			"-0.008": 0.0,
			"-0.007": 0.0,
			"-0.006": 0.760964732583,
			"-0.005": 8.62521271624,
			"-0.004": 11.0430091842,
			"-0.003": 23.5287412355,
			"-0.002": 28.5531815122,
			"-0.001": 23.1723760402,
			"0.0": 20.5440066304,
			"0.001": 26.9217238826,
			"0.002": 16.6600449272,
			"0.003": 7.63452132305,
			"0.004": 7.76888313685,
			"0.005": 7.86284480049,
			"0.006": 8.04106061669,
			"0.007": 5.73670149184,
			"0.008": 0.0201877750179,
			"0.009": 0.0,
			"0.01": 0.0,
			"0.011": 0.0,
			"0.012": 0.0,
			"0.013": 0.0,
			"0.014": 0.0,
			"0.015": 0.0,
			"0.016": 0.0,
			"0.017": 0.0,
			"0.018": 0.0,
			"0.019": 0.0,
			"0.02": 0.0,
			"0.021": 0.0,
			"0.022": 0.0,
			"0.023": 0.0,
			"0.024": 0.0,
			"0.025": 0.0
		}
	}
}
