{
	 "smiles": "COC1=C(C=C(CCl)C=C1)C#N", 
	 "Tm": 373.15, 
	 "num_atms": 20, 
	 "gaussian": { 
		 "optdone": 1, 
		 "sigma_profile": "yes", 
		 "theory": "DFT", 
		 "functional": "B3LYP", 
		 "basiset": "6-31G**", 
		 "properties": { 
			 "R2extent": 3795.8401, 
			 "electric_dipole_moment_norm": 5.5343790013, 
			 "electric_quadrupole_moment_norm": 14.2152128792, 
			 "total_energy": -937.922960337, 
			 "HOMO_LUMO_gap": 0.18887, 
			 "cosmo_polarized_energy": -14.57, 
			 "cosmo_cavitation_energy": 27.25, 
			 "cosmo_dispersion_energy": -19.2, 
			 "cosmo_repulsion_energy": 1.56, 
			 "cosmo_total_nonelectrostatic_energy": 9.61, 
			 "SMD_solvation_energy": 6.46 
		},
		"coords": [
			{
				"x": -1.9292814256,
				"y": -0.9322667303,
				"z": 1.157880655,
				"element": "C" 
			},
			{
				"x": -0.6042626058,
				"y": -0.417863133,
				"z": 1.0745355217,
				"element": "O" 
			},
			{
				"x": -0.1233668652,
				"y": -0.0446383786,
				"z": -0.131025334,
				"element": "C" 
			},
			{
				"x": 1.1977928187,
				"y": 0.4652328391,
				"z": -0.1403282925,
				"element": "C" 
			},
			{
				"x": 1.7779150148,
				"y": 0.8761662718,
				"z": -1.3463552781,
				"element": "C" 
			},
			{
				"x": 1.0775423758,
				"y": 0.7881834211,
				"z": -2.5520108943,
				"element": "C" 
			},
			{
				"x": 1.7071887726,
				"y": 1.2293972729,
				"z": -3.8367617757,
				"element": "C" 
			},
			{
				"x": 1.3081538168,
				"y": 2.9752467794,
				"z": -4.2546536904,
				"element": "Cl" 
			},
			{
				"x": -0.2275539802,
				"y": 0.2812997527,
				"z": -2.5256519673,
				"element": "C" 
			},
			{
				"x": -0.8276285887,
				"y": -0.1316506927,
				"z": -1.338120696,
				"element": "C" 
			},
			{
				"x": 1.9399789513,
				"y": 0.5555480144,
				"z": 1.080347923,
				"element": "C" 
			},
			{
				"x": 2.5689131972,
				"y": 0.6386914596,
				"z": 2.0553165005,
				"element": "N" 
			},
			{
				"x": -2.0387790765,
				"y": -1.8512939083,
				"z": 0.5698745541,
				"element": "H" 
			},
			{
				"x": -2.0925534605,
				"y": -1.1552788158,
				"z": 2.2122441422,
				"element": "H" 
			},
			{
				"x": -2.6663852226,
				"y": -0.192848021,
				"z": 0.8231285955,
				"element": "H" 
			},
			{
				"x": 2.7899874935,
				"y": 1.2684899422,
				"z": -1.3289903568,
				"element": "H" 
			},
			{
				"x": 1.3544995778,
				"y": 0.6450695601,
				"z": -4.6867737483,
				"element": "H" 
			},
			{
				"x": 2.7952965958,
				"y": 1.1838943782,
				"z": -3.7951573323,
				"element": "H" 
			},
			{
				"x": -0.7912778791,
				"y": 0.2098381835,
				"z": -3.4519829718,
				"element": "H" 
			},
			{
				"x": -1.8380795102,
				"y": -0.5205181953,
				"z": -1.3578155547,
				"element": "H" 
			}
		],
		 "valence_orbital": [ 
			{
				"type": "occ",
				"energy": -0.32744,
				"method": "rhf"
			},
			{
				"type": "occ",
				"energy": -0.30152,
				"method": "rhf"
			},
			{
				"type": "occ",
				"energy": -0.29979,
				"method": "rhf"
			},
			{
				"type": "occ",
				"energy": -0.27437,
				"method": "rhf"
			},
			{
				"type": "occ",
				"energy": -0.24438,
				"method": "rhf"
			},
			{
				"type": "unocc",
				"energy": -0.05551,
				"method": "rhf"
			},
			{
				"type": "unocc",
				"energy": -0.03492,
				"method": "rhf"
			},
			{
				"type": "unocc",
				"energy": 0.02736,
				"method": "rhf"
			},
			{
				"type": "unocc",
				"energy": 0.03671,
				"method": "rhf"
			},
			{
				"type": "unocc",
				"energy": 0.06997,
				"method": "rhf"
			}
		],
		"cosmo_sigma_profile": { 
			"-0.025": 0.0,
			"-0.024": 0.0,
			"-0.023": 0.0,
			"-0.022": 0.0,
			"-0.021": 0.0,
			"-0.02": 0.0,
			"-0.019": 0.0,
			"-0.018": 0.0,
			"-0.017": 0.0,
			"-0.016": 0.0,
			"-0.015": 0.0,
			"-0.014": 0.0,
			"-0.013": 0.0,
			"-0.012": 0.0,
			"-0.011": 0.0,
			"-0.01": 0.0,
			"-0.009": 1.09363951968,
			"-0.008": 10.2381127251,
			"-0.007": 14.5684245708,
			"-0.006": 18.2169593073,
			"-0.005": 15.5469035959,
			"-0.004": 15.4600816933,
			"-0.003": 10.9950448519,
			"-0.002": 8.86401708052,
			"-0.001": 12.3051786497,
			"0.0": 14.4034312354,
			"0.001": 15.2557381023,
			"0.002": 13.1080044451,
			"0.003": 9.4774315515,
			"0.004": 8.20256096499,
			"0.005": 8.9765708674,
			"0.006": 13.1399879938,
			"0.007": 11.0907884519,
			"0.008": 5.64312705387,
			"0.009": 3.69185752478,
			"0.01": 3.40761585584,
			"0.011": 2.70569544587,
			"0.012": 2.7104009265,
			"0.013": 1.65501735911,
			"0.014": 0.133187877625,
			"0.015": 0.0,
			"0.016": 0.0,
			"0.017": 0.0,
			"0.018": 0.0,
			"0.019": 0.0,
			"0.02": 0.0,
			"0.021": 0.0,
			"0.022": 0.0,
			"0.023": 0.0,
			"0.024": 0.0,
			"0.025": 0.0
		}
	}
}
