{
	 "smiles": "CC1=CC(C(O)=O)=C(C)N1C1=NC=CC=C1", 
	 "Tm": 461.15, 
	 "num_atms": 28, 
	 "gaussian": { 
		 "optdone": 1, 
		 "sigma_profile": "yes", 
		 "theory": "DFT", 
		 "functional": "B3LYP", 
		 "basiset": "6-31G**", 
		 "properties": { 
			 "R2extent": 4028.6177, 
			 "electric_dipole_moment_norm": 8.56741047283, 
			 "electric_quadrupole_moment_norm": 18.7144011368, 
			 "total_energy": -724.467180053, 
			 "HOMO_LUMO_gap": 0.16207, 
			 "cosmo_polarized_energy": -19.83, 
			 "cosmo_cavitation_energy": 31.85, 
			 "cosmo_dispersion_energy": -22.55, 
			 "cosmo_repulsion_energy": 1.74, 
			 "cosmo_total_nonelectrostatic_energy": 11.04, 
			 "SMD_solvation_energy": 5.6 
		},
		"coords": [
			{
				"x": -2.0123399798,
				"y": -2.0124015759,
				"z": -0.8478457491,
				"element": "C" 
			},
			{
				"x": -0.8268784939,
				"y": -1.175470442,
				"z": -1.2066975586,
				"element": "C" 
			},
			{
				"x": -0.0822579752,
				"y": -1.1633272772,
				"z": -2.3536770885,
				"element": "C" 
			},
			{
				"x": 0.9843674375,
				"y": -0.2254194692,
				"z": -2.1913113125,
				"element": "C" 
			},
			{
				"x": 1.9505454862,
				"y": 0.0703169534,
				"z": -3.2669727043,
				"element": "C" 
			},
			{
				"x": 3.1408421984,
				"y": 0.6425362144,
				"z": -2.8957505721,
				"element": "O" 
			},
			{
				"x": 1.7492725116,
				"y": -0.1692369047,
				"z": -4.4355279441,
				"element": "O" 
			},
			{
				"x": 0.863333381,
				"y": 0.3380163172,
				"z": -0.9260321128,
				"element": "C" 
			},
			{
				"x": 1.6087046382,
				"y": 1.4766413766,
				"z": -0.2921080154,
				"element": "C" 
			},
			{
				"x": -0.2421491729,
				"y": -0.2537377666,
				"z": -0.3257146539,
				"element": "N" 
			},
			{
				"x": -0.7323281574,
				"y": 0.0468891127,
				"z": 0.9760697397,
				"element": "C" 
			},
			{
				"x": -2.0260213124,
				"y": 0.3647767186,
				"z": 1.0684996782,
				"element": "N" 
			},
			{
				"x": -2.5120738815,
				"y": 0.6459852251,
				"z": 2.2829471818,
				"element": "C" 
			},
			{
				"x": -1.7392634497,
				"y": 0.6460590397,
				"z": 3.4442191097,
				"element": "C" 
			},
			{
				"x": -0.3910453035,
				"y": 0.3055065995,
				"z": 3.3351678763,
				"element": "C" 
			},
			{
				"x": 0.1253742501,
				"y": -0.0140672172,
				"z": 2.0821271114,
				"element": "C" 
			},
			{
				"x": -1.8418451639,
				"y": -2.5997316046,
				"z": 0.0627387258,
				"element": "H" 
			},
			{
				"x": -2.9057295755,
				"y": -1.4049227735,
				"z": -0.6797237424,
				"element": "H" 
			},
			{
				"x": -2.2106089036,
				"y": -2.7114066716,
				"z": -1.663768872,
				"element": "H" 
			},
			{
				"x": -0.2505193905,
				"y": -1.7654308202,
				"z": -3.2344116999,
				"element": "H" 
			},
			{
				"x": 3.2446676441,
				"y": 0.574626897,
				"z": -1.9375398165,
				"element": "H" 
			},
			{
				"x": 2.3919529519,
				"y": 1.1534418007,
				"z": 0.4071640412,
				"element": "H" 
			},
			{
				"x": 0.9350190086,
				"y": 2.1307170244,
				"z": 0.2690226709,
				"element": "H" 
			},
			{
				"x": 2.0816076468,
				"y": 2.0855373732,
				"z": -1.0661606674,
				"element": "H" 
			},
			{
				"x": -3.5712278452,
				"y": 0.8919968981,
				"z": 2.3241882056,
				"element": "H" 
			},
			{
				"x": -2.1842467744,
				"y": 0.8962587098,
				"z": 4.4014593531,
				"element": "H" 
			},
			{
				"x": 0.2469713099,
				"y": 0.2722041446,
				"z": 4.2132619939,
				"element": "H" 
			},
			{
				"x": 1.1573769151,
				"y": -0.3211578824,
				"z": 1.9585768218,
				"element": "H" 
			}
		],
		 "valence_orbital": [ 
			{
				"type": "occ",
				"energy": -0.28959,
				"method": "rhf"
			},
			{
				"type": "occ",
				"energy": -0.28247,
				"method": "rhf"
			},
			{
				"type": "occ",
				"energy": -0.25699,
				"method": "rhf"
			},
			{
				"type": "occ",
				"energy": -0.24159,
				"method": "rhf"
			},
			{
				"type": "occ",
				"energy": -0.21243,
				"method": "rhf"
			},
			{
				"type": "unocc",
				"energy": -0.05036,
				"method": "rhf"
			},
			{
				"type": "unocc",
				"energy": -0.03983,
				"method": "rhf"
			},
			{
				"type": "unocc",
				"energy": -0.0033,
				"method": "rhf"
			},
			{
				"type": "unocc",
				"energy": 0.04185,
				"method": "rhf"
			},
			{
				"type": "unocc",
				"energy": 0.0645,
				"method": "rhf"
			}
		],
		"cosmo_sigma_profile": { 
			"-0.025": 0.0,
			"-0.024": 0.0,
			"-0.023": 0.0,
			"-0.022": 0.0,
			"-0.021": 0.0,
			"-0.02": 0.0,
			"-0.019": 0.0,
			"-0.018": 0.000779095123877,
			"-0.017": 0.388320095088,
			"-0.016": 1.25147994049,
			"-0.015": 0.407406369725,
			"-0.014": 1.10202341972,
			"-0.013": 0.683391306986,
			"-0.012": 0.675537740958,
			"-0.011": 1.18400478266,
			"-0.01": 0.983599448529,
			"-0.009": 0.976589760301,
			"-0.008": 3.04362864809,
			"-0.007": 11.5354783448,
			"-0.006": 13.9883982421,
			"-0.005": 18.5314349612,
			"-0.004": 18.0382230377,
			"-0.003": 17.6594632954,
			"-0.002": 21.6059819697,
			"-0.001": 19.8347809749,
			"0.0": 20.4686567544,
			"0.001": 17.6297350979,
			"0.002": 15.9789532368,
			"0.003": 8.37903137703,
			"0.004": 8.3932191681,
			"0.005": 8.09424579056,
			"0.006": 7.89569583343,
			"0.007": 4.47445600049,
			"0.008": 3.4078964243,
			"0.009": 3.64691942211,
			"0.01": 4.38807492422,
			"0.011": 5.58541909916,
			"0.012": 6.81202705951,
			"0.013": 5.30037968439,
			"0.014": 1.61441294405,
			"0.015": 0.0195543392576,
			"0.016": 0.0,
			"0.017": 0.0,
			"0.018": 0.0,
			"0.019": 0.0,
			"0.02": 0.0,
			"0.021": 0.0,
			"0.022": 0.0,
			"0.023": 0.0,
			"0.024": 0.0,
			"0.025": 0.0
		}
	}
}
