{
	 "smiles": "CCN(CC)CC1=NC2=C(C(C)=C(C)S2)C(Cl)=N1", 
	 "Tm": 304.15, 
	 "num_atms": 36, 
	 "gaussian": { 
		 "optdone": 1, 
		 "sigma_profile": "yes", 
		 "theory": "DFT", 
		 "functional": "B3LYP", 
		 "basiset": "6-31G**", 
		 "properties": { 
			 "R2extent": 6787.7772, 
			 "electric_dipole_moment_norm": 3.45293872086, 
			 "electric_quadrupole_moment_norm": 16.3979577439, 
			 "total_energy": -1528.87362029, 
			 "HOMO_LUMO_gap": 0.14415, 
			 "cosmo_polarized_energy": -7.7, 
			 "cosmo_cavitation_energy": 40.52, 
			 "cosmo_dispersion_energy": -28.63, 
			 "cosmo_repulsion_energy": 2.19, 
			 "cosmo_total_nonelectrostatic_energy": 14.08, 
			 "SMD_solvation_energy": 2.08 
		},
		"coords": [
			{
				"x": -0.9922774306,
				"y": -0.0253264368,
				"z": 2.7577451199,
				"element": "C" 
			},
			{
				"x": 0.3263492707,
				"y": 0.1847633142,
				"z": 3.5233680246,
				"element": "C" 
			},
			{
				"x": 1.374735091,
				"y": 0.9800179692,
				"z": 2.8811695256,
				"element": "N" 
			},
			{
				"x": 1.0317142439,
				"y": 2.3561379833,
				"z": 2.5235982634,
				"element": "C" 
			},
			{
				"x": 0.6346982056,
				"y": 3.2033381108,
				"z": 3.7357365601,
				"element": "C" 
			},
			{
				"x": 2.2310224388,
				"y": 0.2839813373,
				"z": 1.9263290035,
				"element": "C" 
			},
			{
				"x": 1.6496688895,
				"y": -0.0166628755,
				"z": 0.5505593996,
				"element": "C" 
			},
			{
				"x": 1.6069068558,
				"y": 0.9789172237,
				"z": -0.3399470281,
				"element": "N" 
			},
			{
				"x": 1.0719615695,
				"y": 0.6672643451,
				"z": -1.5169023384,
				"element": "C" 
			},
			{
				"x": 0.5704212842,
				"y": -0.6072562723,
				"z": -1.8955023657,
				"element": "C" 
			},
			{
				"x": 0.0604066505,
				"y": -0.6322470155,
				"z": -3.2512528508,
				"element": "C" 
			},
			{
				"x": -0.535240609,
				"y": -1.8324495742,
				"z": -3.9391039235,
				"element": "C" 
			},
			{
				"x": 0.1820494841,
				"y": 0.5904247873,
				"z": -3.8550857727,
				"element": "C" 
			},
			{
				"x": -0.2276556118,
				"y": 0.9762531567,
				"z": -5.25017854,
				"element": "C" 
			},
			{
				"x": 0.9141594886,
				"y": 1.8173517191,
				"z": -2.8226994921,
				"element": "S" 
			},
			{
				"x": 0.6909495083,
				"y": -1.5502297377,
				"z": -0.8575153591,
				"element": "C" 
			},
			{
				"x": 0.1472833266,
				"y": -3.2151880778,
				"z": -1.072741822,
				"element": "Cl" 
			},
			{
				"x": 1.2050311955,
				"y": -1.2729902999,
				"z": 0.320633813,
				"element": "N" 
			},
			{
				"x": -1.7005137995,
				"y": -0.5763843047,
				"z": 3.3867683725,
				"element": "H" 
			},
			{
				"x": -0.8410329946,
				"y": -0.6025397296,
				"z": 1.8425538083,
				"element": "H" 
			},
			{
				"x": -1.4629789284,
				"y": 0.9270637358,
				"z": 2.4917425549,
				"element": "H" 
			},
			{
				"x": 0.0974808668,
				"y": 0.6548824173,
				"z": 4.4878058806,
				"element": "H" 
			},
			{
				"x": 0.7635882697,
				"y": -0.7921035777,
				"z": 3.7597798494,
				"element": "H" 
			},
			{
				"x": 1.9212095764,
				"y": 2.7946539359,
				"z": 2.0580658095,
				"element": "H" 
			},
			{
				"x": 0.2381585282,
				"y": 2.4198245901,
				"z": 1.7590390541,
				"element": "H" 
			},
			{
				"x": 1.4058027278,
				"y": 3.1529951776,
				"z": 4.5108586842,
				"element": "H" 
			},
			{
				"x": 0.5130342252,
				"y": 4.2489433157,
				"z": 3.4345048914,
				"element": "H" 
			},
			{
				"x": -0.3132271613,
				"y": 2.8798709925,
				"z": 4.1771453758,
				"element": "H" 
			},
			{
				"x": 2.5376584551,
				"y": -0.6680635741,
				"z": 2.3694745424,
				"element": "H" 
			},
			{
				"x": 3.1259572301,
				"y": 0.8983347036,
				"z": 1.7705800203,
				"element": "H" 
			},
			{
				"x": 0.1807267502,
				"y": -2.6578105648,
				"z": -3.9984603126,
				"element": "H" 
			},
			{
				"x": -1.4113592378,
				"y": -2.2091992806,
				"z": -3.4026377812,
				"element": "H" 
			},
			{
				"x": -0.8451041018,
				"y": -1.5819660761,
				"z": -4.9558451692,
				"element": "H" 
			},
			{
				"x": -1.3017722089,
				"y": 0.8260385971,
				"z": -5.4044809409,
				"element": "H" 
			},
			{
				"x": 0.3027959655,
				"y": 0.3784471298,
				"z": -5.9994604328,
				"element": "H" 
			},
			{
				"x": -0.0102080141,
				"y": 2.0274128553,
				"z": -5.4546444238,
				"element": "H" 
			}
		],
		 "valence_orbital": [ 
			{
				"type": "occ",
				"energy": -0.30241,
				"method": "rhf"
			},
			{
				"type": "occ",
				"energy": -0.26818,
				"method": "rhf"
			},
			{
				"type": "occ",
				"energy": -0.26298,
				"method": "rhf"
			},
			{
				"type": "occ",
				"energy": -0.23044,
				"method": "rhf"
			},
			{
				"type": "occ",
				"energy": -0.19616,
				"method": "rhf"
			},
			{
				"type": "unocc",
				"energy": -0.05201,
				"method": "rhf"
			},
			{
				"type": "unocc",
				"energy": -0.03565,
				"method": "rhf"
			},
			{
				"type": "unocc",
				"energy": 0.00165,
				"method": "rhf"
			},
			{
				"type": "unocc",
				"energy": 0.02139,
				"method": "rhf"
			},
			{
				"type": "unocc",
				"energy": 0.03672,
				"method": "rhf"
			}
		],
		"cosmo_sigma_profile": { 
			"-0.025": 0.0,
			"-0.024": 0.0,
			"-0.023": 0.0,
			"-0.022": 0.0,
			"-0.021": 0.0,
			"-0.02": 0.0,
			"-0.019": 0.0,
			"-0.018": 0.0,
			"-0.017": 0.0,
			"-0.016": 0.0,
			"-0.015": 0.0,
			"-0.014": 0.0,
			"-0.013": 0.0,
			"-0.012": 0.0,
			"-0.011": 0.0,
			"-0.01": 0.0,
			"-0.009": 0.0,
			"-0.008": 0.0,
			"-0.007": 0.442905483681,
			"-0.006": 3.12040914109,
			"-0.005": 9.78073995969,
			"-0.004": 19.0321799195,
			"-0.003": 32.5454930328,
			"-0.002": 47.3164153002,
			"-0.001": 50.2796694813,
			"0.0": 43.5898708913,
			"0.001": 38.4431438243,
			"0.002": 26.2206164732,
			"0.003": 14.1943704877,
			"0.004": 12.3445094667,
			"0.005": 6.40392345444,
			"0.006": 3.43756896195,
			"0.007": 3.04340516075,
			"0.008": 2.72231664439,
			"0.009": 3.82381305445,
			"0.01": 1.63143937101,
			"0.011": 2.14796313341,
			"0.012": 1.38791258016,
			"0.013": 1.11895169178,
			"0.014": 0.202935148112,
			"0.015": 0.0440329342192,
			"0.016": 0.0,
			"0.017": 0.0,
			"0.018": 0.0,
			"0.019": 0.0,
			"0.02": 0.0,
			"0.021": 0.0,
			"0.022": 0.0,
			"0.023": 0.0,
			"0.024": 0.0,
			"0.025": 0.0
		}
	}
}
