{
	 "smiles": "FC1=CC(NC(=O)OCC(F)(F)F)=CC=C1", 
	 "Tm": 324.15, 
	 "num_atms": 23, 
	 "gaussian": { 
		 "optdone": 1, 
		 "sigma_profile": "yes", 
		 "theory": "DFT", 
		 "functional": "B3LYP", 
		 "basiset": "6-31G**", 
		 "properties": { 
			 "R2extent": 6546.2713, 
			 "electric_dipole_moment_norm": 3.42883099759, 
			 "electric_quadrupole_moment_norm": 10.2619280913, 
			 "total_energy": -951.758242014, 
			 "HOMO_LUMO_gap": 0.21422, 
			 "cosmo_polarized_energy": -10.74, 
			 "cosmo_cavitation_energy": 30.37, 
			 "cosmo_dispersion_energy": -21.5, 
			 "cosmo_repulsion_energy": 1.6, 
			 "cosmo_total_nonelectrostatic_energy": 10.47, 
			 "SMD_solvation_energy": 7.82 
		},
		"coords": [
			{
				"x": -0.5900372812,
				"y": -3.007933791,
				"z": -1.9801654517,
				"element": "F" 
			},
			{
				"x": -0.9188836976,
				"y": -1.8874988965,
				"z": -1.3055742589,
				"element": "C" 
			},
			{
				"x": 0.108728388,
				"y": -1.0363062788,
				"z": -0.9181157083,
				"element": "C" 
			},
			{
				"x": -0.2318102447,
				"y": 0.127893447,
				"z": -0.2175108928,
				"element": "C" 
			},
			{
				"x": 0.728598675,
				"y": 1.0600673577,
				"z": 0.2224904479,
				"element": "N" 
			},
			{
				"x": 2.0836166406,
				"y": 1.0144846048,
				"z": 0.0586729914,
				"element": "C" 
			},
			{
				"x": 2.7367886429,
				"y": 0.1520772976,
				"z": -0.490245855,
				"element": "O" 
			},
			{
				"x": 2.6142052052,
				"y": 2.1554124586,
				"z": 0.6164377339,
				"element": "O" 
			},
			{
				"x": 4.0337057106,
				"y": 2.2267871325,
				"z": 0.6512962959,
				"element": "C" 
			},
			{
				"x": 4.5216845988,
				"y": 1.9619272039,
				"z": 2.06577656,
				"element": "C" 
			},
			{
				"x": 4.0544726773,
				"y": 2.8780832982,
				"z": 2.9355961259,
				"element": "F" 
			},
			{
				"x": 4.1346261692,
				"y": 0.7491175858,
				"z": 2.500940354,
				"element": "F" 
			},
			{
				"x": 5.8696712398,
				"y": 2.0133820396,
				"z": 2.0915800991,
				"element": "F" 
			},
			{
				"x": -1.5774180936,
				"y": 0.4052164307,
				"z": 0.0734316623,
				"element": "C" 
			},
			{
				"x": -2.5752431,
				"y": -0.4761088179,
				"z": -0.3337736254,
				"element": "C" 
			},
			{
				"x": -2.259315657,
				"y": -1.6414376638,
				"z": -1.0331685163,
				"element": "C" 
			},
			{
				"x": 1.1366697959,
				"y": -1.272685907,
				"z": -1.1520922678,
				"element": "H" 
			},
			{
				"x": 0.385004046,
				"y": 1.8662897095,
				"z": 0.7247459501,
				"element": "H" 
			},
			{
				"x": 4.4727544658,
				"y": 1.4890569196,
				"z": -0.0226059035,
				"element": "H" 
			},
			{
				"x": 4.3282460875,
				"y": 3.2368648558,
				"z": 0.3595536368,
				"element": "H" 
			},
			{
				"x": -1.8378403513,
				"y": 1.3091783382,
				"z": 0.6174713423,
				"element": "H" 
			},
			{
				"x": -3.6120033498,
				"y": -0.2515333789,
				"z": -0.1030032803,
				"element": "H" 
			},
			{
				"x": -3.0172205674,
				"y": -2.3433339455,
				"z": -1.3610374397,
				"element": "H" 
			}
		],
		 "valence_orbital": [ 
			{
				"type": "occ",
				"energy": -0.32506,
				"method": "rhf"
			},
			{
				"type": "occ",
				"energy": -0.31826,
				"method": "rhf"
			},
			{
				"type": "occ",
				"energy": -0.29949,
				"method": "rhf"
			},
			{
				"type": "occ",
				"energy": -0.25465,
				"method": "rhf"
			},
			{
				"type": "occ",
				"energy": -0.23317,
				"method": "rhf"
			},
			{
				"type": "unocc",
				"energy": -0.01895,
				"method": "rhf"
			},
			{
				"type": "unocc",
				"energy": -0.00534,
				"method": "rhf"
			},
			{
				"type": "unocc",
				"energy": 0.04697,
				"method": "rhf"
			},
			{
				"type": "unocc",
				"energy": 0.06936,
				"method": "rhf"
			},
			{
				"type": "unocc",
				"energy": 0.0798,
				"method": "rhf"
			}
		],
		"cosmo_sigma_profile": { 
			"-0.025": 0.0,
			"-0.024": 0.0,
			"-0.023": 0.0,
			"-0.022": 0.0,
			"-0.021": 0.0,
			"-0.02": 0.0,
			"-0.019": 0.0,
			"-0.018": 0.0,
			"-0.017": 0.0,
			"-0.016": 0.502501013822,
			"-0.015": 1.20985472338,
			"-0.014": 1.0097172277,
			"-0.013": 1.37047308256,
			"-0.012": 0.826578944122,
			"-0.011": 1.57005204803,
			"-0.01": 1.38885237815,
			"-0.009": 3.7835666484,
			"-0.008": 4.89136541263,
			"-0.007": 7.92726766535,
			"-0.006": 9.83638218062,
			"-0.005": 9.97518244593,
			"-0.004": 10.8515168044,
			"-0.003": 9.18332623539,
			"-0.002": 10.6583466323,
			"-0.001": 13.0502106149,
			"0.0": 15.8764984422,
			"0.001": 22.2122979152,
			"0.002": 40.360926494,
			"0.003": 36.2205771888,
			"0.004": 21.3550097997,
			"0.005": 8.26891533558,
			"0.006": 2.0076214047,
			"0.007": 1.31920687119,
			"0.008": 1.52661176122,
			"0.009": 1.67031585213,
			"0.01": 2.51140638662,
			"0.011": 2.33654241061,
			"0.012": 0.0826537792955,
			"0.013": 0.0,
			"0.014": 0.0,
			"0.015": 0.0,
			"0.016": 0.0,
			"0.017": 0.0,
			"0.018": 0.0,
			"0.019": 0.0,
			"0.02": 0.0,
			"0.021": 0.0,
			"0.022": 0.0,
			"0.023": 0.0,
			"0.024": 0.0,
			"0.025": 0.0
		}
	}
}
