{
	 "smiles": "COC1=CC=C(OC)C(C=O)=C1", 
	 "Tm": 323.65, 
	 "num_atms": 22, 
	 "gaussian": { 
		 "optdone": 1, 
		 "sigma_profile": "yes", 
		 "theory": "DFT", 
		 "functional": "B3LYP", 
		 "basiset": "6-31G**", 
		 "properties": { 
			 "R2extent": 3492.2194, 
			 "electric_dipole_moment_norm": 4.41316644712, 
			 "electric_quadrupole_moment_norm": 16.4867741305, 
			 "total_energy": -574.612433422, 
			 "HOMO_LUMO_gap": 0.16176, 
			 "cosmo_polarized_energy": -10.66, 
			 "cosmo_cavitation_energy": 26.0, 
			 "cosmo_dispersion_energy": -19.01, 
			 "cosmo_repulsion_energy": 1.51, 
			 "cosmo_total_nonelectrostatic_energy": 8.5, 
			 "SMD_solvation_energy": 7.03 
		},
		"coords": [
			{
				"x": 0.5057531465,
				"y": 0.3316505034,
				"z": 4.1993074211,
				"element": "C" 
			},
			{
				"x": 0.9841945681,
				"y": -0.2210799786,
				"z": 2.9831547616,
				"element": "O" 
			},
			{
				"x": 0.0824347415,
				"y": -0.8129658372,
				"z": 2.1466554805,
				"element": "C" 
			},
			{
				"x": -1.2918186275,
				"y": -0.9192254529,
				"z": 2.3913813309,
				"element": "C" 
			},
			{
				"x": -2.1163000591,
				"y": -1.5466324402,
				"z": 1.4541186763,
				"element": "C" 
			},
			{
				"x": -1.6101342789,
				"y": -2.0760729712,
				"z": 0.2677008153,
				"element": "C" 
			},
			{
				"x": -2.4810653303,
				"y": -2.7333273217,
				"z": -0.557771854,
				"element": "O" 
			},
			{
				"x": -2.8696581798,
				"y": -2.0463129494,
				"z": -1.7523046158,
				"element": "C" 
			},
			{
				"x": -0.2164173282,
				"y": -1.9812227214,
				"z": 0.0202829792,
				"element": "C" 
			},
			{
				"x": 0.4738180481,
				"y": -2.5537351223,
				"z": -1.1583969523,
				"element": "C" 
			},
			{
				"x": -0.0410423792,
				"y": -3.0596258835,
				"z": -2.1373790708,
				"element": "O" 
			},
			{
				"x": 0.6022135775,
				"y": -1.3551788266,
				"z": 0.9685017031,
				"element": "C" 
			},
			{
				"x": -0.2213384455,
				"y": 1.1347499099,
				"z": 4.0215482442,
				"element": "H" 
			},
			{
				"x": 0.0463309925,
				"y": -0.4329262266,
				"z": 4.8392494471,
				"element": "H" 
			},
			{
				"x": 1.3787041553,
				"y": 0.7452242126,
				"z": 4.7062246818,
				"element": "H" 
			},
			{
				"x": -1.7303013143,
				"y": -0.5223403658,
				"z": 3.2994906627,
				"element": "H" 
			},
			{
				"x": -3.1811087263,
				"y": -1.6435416382,
				"z": 1.6402481816,
				"element": "H" 
			},
			{
				"x": -3.3204752968,
				"y": -1.0747238581,
				"z": -1.5115712046,
				"element": "H" 
			},
			{
				"x": -2.0207027483,
				"y": -1.9165669073,
				"z": -2.4272326621,
				"element": "H" 
			},
			{
				"x": -3.6165801239,
				"y": -2.6811750496,
				"z": -2.2326878342,
				"element": "H" 
			},
			{
				"x": 1.5828853624,
				"y": -2.4866462207,
				"z": -1.0822244848,
				"element": "H" 
			},
			{
				"x": 1.6732082462,
				"y": -1.2865248548,
				"z": 0.7981042933,
				"element": "H" 
			}
		],
		 "valence_orbital": [ 
			{
				"type": "occ",
				"energy": -0.31287,
				"method": "rhf"
			},
			{
				"type": "occ",
				"energy": -0.27164,
				"method": "rhf"
			},
			{
				"type": "occ",
				"energy": -0.26707,
				"method": "rhf"
			},
			{
				"type": "occ",
				"energy": -0.24942,
				"method": "rhf"
			},
			{
				"type": "occ",
				"energy": -0.22203,
				"method": "rhf"
			},
			{
				"type": "unocc",
				"energy": -0.06027,
				"method": "rhf"
			},
			{
				"type": "unocc",
				"energy": -0.00339,
				"method": "rhf"
			},
			{
				"type": "unocc",
				"energy": 0.04584,
				"method": "rhf"
			},
			{
				"type": "unocc",
				"energy": 0.08574,
				"method": "rhf"
			},
			{
				"type": "unocc",
				"energy": 0.10151,
				"method": "rhf"
			}
		],
		"cosmo_sigma_profile": { 
			"-0.025": 0.0,
			"-0.024": 0.0,
			"-0.023": 0.0,
			"-0.022": 0.0,
			"-0.021": 0.0,
			"-0.02": 0.0,
			"-0.019": 0.0,
			"-0.018": 0.0,
			"-0.017": 0.0,
			"-0.016": 0.0,
			"-0.015": 0.0,
			"-0.014": 0.0,
			"-0.013": 0.0,
			"-0.012": 0.0,
			"-0.011": 0.0,
			"-0.01": 0.0,
			"-0.009": 0.0,
			"-0.008": 1.78323410564,
			"-0.007": 7.1501038311,
			"-0.006": 13.3197748109,
			"-0.005": 18.4221351906,
			"-0.004": 18.3065595668,
			"-0.003": 21.7682853775,
			"-0.002": 19.1264355879,
			"-0.001": 13.3323656004,
			"0.0": 11.3692067918,
			"0.001": 10.2336582616,
			"0.002": 15.9967041255,
			"0.003": 13.6014741571,
			"0.004": 5.97627069851,
			"0.005": 5.37456402391,
			"0.006": 3.26116925944,
			"0.007": 3.66811395422,
			"0.008": 4.30549015916,
			"0.009": 4.24327230142,
			"0.01": 4.96917092925,
			"0.011": 5.79709253457,
			"0.012": 4.11940963859,
			"0.013": 0.830065924116,
			"0.014": 0.0,
			"0.015": 0.0,
			"0.016": 0.0,
			"0.017": 0.0,
			"0.018": 0.0,
			"0.019": 0.0,
			"0.02": 0.0,
			"0.021": 0.0,
			"0.022": 0.0,
			"0.023": 0.0,
			"0.024": 0.0,
			"0.025": 0.0
		}
	}
}
