{
	 "smiles": "CCCSC1=CC=C(C(=C1)N=C(NCCS(O)(=O)=O)NC(=O)OC)[N+]([O-])=O", 
	 "Tm": 423.15, 
	 "num_atms": 47, 
	 "gaussian": { 
		 "optdone": 1, 
		 "sigma_profile": "yes", 
		 "theory": "DFT", 
		 "functional": "B3LYP", 
		 "basiset": "6-31G**", 
		 "properties": { 
			 "R2extent": 13772.7933, 
			 "electric_dipole_moment_norm": 9.77675786035, 
			 "electric_quadrupole_moment_norm": 41.7826897024, 
			 "total_energy": -2087.35073482, 
			 "HOMO_LUMO_gap": 0.14142, 
			 "cosmo_polarized_energy": -35.76, 
			 "cosmo_cavitation_energy": 53.56, 
			 "cosmo_dispersion_energy": -35.54, 
			 "cosmo_repulsion_energy": 2.65, 
			 "cosmo_total_nonelectrostatic_energy": 20.67, 
			 "SMD_solvation_energy": 9.8 
		},
		"coords": [
			{
				"x": -6.4759934001,
				"y": 1.0381770023,
				"z": -1.3411415022,
				"element": "C" 
			},
			{
				"x": -5.6574553182,
				"y": -0.2341479653,
				"z": -1.5841396012,
				"element": "C" 
			},
			{
				"x": -4.1365153856,
				"y": -0.026551241,
				"z": -1.5730144612,
				"element": "C" 
			},
			{
				"x": -3.620922928,
				"y": 0.9806308241,
				"z": -3.021674099,
				"element": "S" 
			},
			{
				"x": -1.8737193728,
				"y": 1.1793542521,
				"z": -2.8125668526,
				"element": "C" 
			},
			{
				"x": -1.2202888039,
				"y": 1.9843506076,
				"z": -3.7710075644,
				"element": "C" 
			},
			{
				"x": 0.1413269745,
				"y": 2.1833789883,
				"z": -3.6776846123,
				"element": "C" 
			},
			{
				"x": 0.8840871575,
				"y": 1.6140934362,
				"z": -2.6321264032,
				"element": "C" 
			},
			{
				"x": 0.2640956655,
				"y": 0.7889238831,
				"z": -1.66342319,
				"element": "C" 
			},
			{
				"x": -1.1276213972,
				"y": 0.5877442579,
				"z": -1.7929578086,
				"element": "C" 
			},
			{
				"x": 0.9849769766,
				"y": 0.0575278484,
				"z": -0.7387570589,
				"element": "N" 
			},
			{
				"x": 0.6844381494,
				"y": -0.0693506853,
				"z": 0.5022371806,
				"element": "C" 
			},
			{
				"x": 1.1370461068,
				"y": -1.1314782421,
				"z": 1.2419941433,
				"element": "N" 
			},
			{
				"x": 1.8668779497,
				"y": -2.2566094462,
				"z": 0.6739018152,
				"element": "C" 
			},
			{
				"x": 3.3572202977,
				"y": -2.303070434,
				"z": 1.0287840789,
				"element": "C" 
			},
			{
				"x": 4.4316841358,
				"y": -1.2220337003,
				"z": 0.0453303009,
				"element": "S" 
			},
			{
				"x": 3.8619607527,
				"y": 0.2349674849,
				"z": 0.4467067409,
				"element": "O" 
			},
			{
				"x": 4.1690711535,
				"y": -1.4723417087,
				"z": -1.3711557437,
				"element": "O" 
			},
			{
				"x": 5.7715511282,
				"y": -1.3471633472,
				"z": 0.6039387622,
				"element": "O" 
			},
			{
				"x": -0.1487467746,
				"y": 0.7768528421,
				"z": 1.2658599316,
				"element": "N" 
			},
			{
				"x": -0.2159816535,
				"y": 2.1688979592,
				"z": 1.2855928065,
				"element": "C" 
			},
			{
				"x": -1.0137445677,
				"y": 2.7615861422,
				"z": 1.9813238848,
				"element": "O" 
			},
			{
				"x": 0.7059109183,
				"y": 2.7218120617,
				"z": 0.491087896,
				"element": "O" 
			},
			{
				"x": 0.7191197131,
				"y": 4.1609710074,
				"z": 0.4671720079,
				"element": "C" 
			},
			{
				"x": 2.2957472384,
				"y": 1.9448420455,
				"z": -2.5918583362,
				"element": "N" 
			},
			{
				"x": 2.9168095209,
				"y": 1.8406274848,
				"z": -1.5210714583,
				"element": "O" 
			},
			{
				"x": 2.8165486924,
				"y": 2.3741732701,
				"z": -3.6205049335,
				"element": "O" 
			},
			{
				"x": -7.5455181165,
				"y": 0.8085518226,
				"z": -1.3134339444,
				"element": "H" 
			},
			{
				"x": -6.2080847729,
				"y": 1.502031634,
				"z": -0.3853550515,
				"element": "H" 
			},
			{
				"x": -6.3136628525,
				"y": 1.7812295061,
				"z": -2.1273584565,
				"element": "H" 
			},
			{
				"x": -5.9535301749,
				"y": -0.7001676997,
				"z": -2.5317789886,
				"element": "H" 
			},
			{
				"x": -5.88307164,
				"y": -0.9681150632,
				"z": -0.8004062239,
				"element": "H" 
			},
			{
				"x": -3.8271912092,
				"y": 0.4902508218,
				"z": -0.6584204124,
				"element": "H" 
			},
			{
				"x": -3.6242593054,
				"y": -0.9920843788,
				"z": -1.6226098062,
				"element": "H" 
			},
			{
				"x": -1.7847808139,
				"y": 2.4468268332,
				"z": -4.5739115097,
				"element": "H" 
			},
			{
				"x": 0.6658683005,
				"y": 2.7954826413,
				"z": -4.4003963831,
				"element": "H" 
			},
			{
				"x": -1.5969672538,
				"y": -0.0751260676,
				"z": -1.0779653405,
				"element": "H" 
			},
			{
				"x": 1.2550381742,
				"y": -0.9598811689,
				"z": 2.231078678,
				"element": "H" 
			},
			{
				"x": 1.7410390089,
				"y": -2.2218653428,
				"z": -0.4100238445,
				"element": "H" 
			},
			{
				"x": 1.4102860565,
				"y": -3.1851248563,
				"z": 1.038281614,
				"element": "H" 
			},
			{
				"x": 3.547636518,
				"y": -2.0585982233,
				"z": 2.0777010653,
				"element": "H" 
			},
			{
				"x": 3.7528748211,
				"y": -3.3056382195,
				"z": 0.8414524917,
				"element": "H" 
			},
			{
				"x": 3.4000315602,
				"y": 0.6408584717,
				"z": -0.3282461554,
				"element": "H" 
			},
			{
				"x": -0.7246348297,
				"y": 0.3491487227,
				"z": 1.9778716081,
				"element": "H" 
			},
			{
				"x": 0.8585740379,
				"y": 4.5573035654,
				"z": 1.474916994,
				"element": "H" 
			},
			{
				"x": -0.217112559,
				"y": 4.5439626791,
				"z": 0.0545831061,
				"element": "H" 
			},
			{
				"x": 1.5608821211,
				"y": 4.4240896947,
				"z": -0.1714253642,
				"element": "H" 
			}
		],
		 "valence_orbital": [ 
			{
				"type": "occ",
				"energy": -0.28872,
				"method": "rhf"
			},
			{
				"type": "occ",
				"energy": -0.28639,
				"method": "rhf"
			},
			{
				"type": "occ",
				"energy": -0.26581,
				"method": "rhf"
			},
			{
				"type": "occ",
				"energy": -0.24282,
				"method": "rhf"
			},
			{
				"type": "occ",
				"energy": -0.22918,
				"method": "rhf"
			},
			{
				"type": "unocc",
				"energy": -0.08776,
				"method": "rhf"
			},
			{
				"type": "unocc",
				"energy": -0.03688,
				"method": "rhf"
			},
			{
				"type": "unocc",
				"energy": -0.00782,
				"method": "rhf"
			},
			{
				"type": "unocc",
				"energy": 0.00274,
				"method": "rhf"
			},
			{
				"type": "unocc",
				"energy": 0.01756,
				"method": "rhf"
			}
		],
		"cosmo_sigma_profile": { 
			"-0.025": 0.0,
			"-0.024": 0.0,
			"-0.023": 0.0,
			"-0.022": 0.0,
			"-0.021": 0.0,
			"-0.02": 0.0,
			"-0.019": 0.0,
			"-0.018": 0.0,
			"-0.017": 0.0,
			"-0.016": 1.11565676501,
			"-0.015": 3.29199949399,
			"-0.014": 3.33551335714,
			"-0.013": 1.93451653397,
			"-0.012": 2.80811017963,
			"-0.011": 1.91569017135,
			"-0.01": 3.46267311742,
			"-0.009": 5.25735921111,
			"-0.008": 7.60632497987,
			"-0.007": 14.6029852558,
			"-0.006": 21.5114283839,
			"-0.005": 25.969212437,
			"-0.004": 29.7267419262,
			"-0.003": 33.5089374676,
			"-0.002": 29.9950301235,
			"-0.001": 30.4298479695,
			"0.0": 25.8104872447,
			"0.001": 29.6753524871,
			"0.002": 24.1357270775,
			"0.003": 18.4482746101,
			"0.004": 14.2426941218,
			"0.005": 12.2345044034,
			"0.006": 11.3732960291,
			"0.007": 13.4468983547,
			"0.008": 12.3714441992,
			"0.009": 11.593883327,
			"0.01": 15.2241025197,
			"0.011": 12.6237825335,
			"0.012": 6.71525525391,
			"0.013": 1.19309322233,
			"0.014": 0.0,
			"0.015": 0.0,
			"0.016": 0.0,
			"0.017": 0.0,
			"0.018": 0.0,
			"0.019": 0.0,
			"0.02": 0.0,
			"0.021": 0.0,
			"0.022": 0.0,
			"0.023": 0.0,
			"0.024": 0.0,
			"0.025": 0.0
		}
	}
}
