{
	 "smiles": "CC1=CC=C(C=C1[N+]([O-])=O)C(=O)C1=CC=CC=C1C(O)=O", 
	 "Tm": 478.15, 
	 "num_atms": 32, 
	 "gaussian": { 
		 "optdone": 1, 
		 "sigma_profile": "yes", 
		 "theory": "DFT", 
		 "functional": "B3LYP", 
		 "basiset": "6-31G**", 
		 "properties": { 
			 "R2extent": 7534.6355, 
			 "electric_dipole_moment_norm": 7.74636658441, 
			 "electric_quadrupole_moment_norm": 27.5632272423, 
			 "total_energy": -1009.0106068, 
			 "HOMO_LUMO_gap": 0.15793, 
			 "cosmo_polarized_energy": -19.63, 
			 "cosmo_cavitation_energy": 37.34, 
			 "cosmo_dispersion_energy": -26.84, 
			 "cosmo_repulsion_energy": 2.02, 
			 "cosmo_total_nonelectrostatic_energy": 12.51, 
			 "SMD_solvation_energy": 9.85 
		},
		"coords": [
			{
				"x": 2.2887226012,
				"y": 3.826073206,
				"z": 1.4847496763,
				"element": "C" 
			},
			{
				"x": 1.6052222515,
				"y": 2.5441054222,
				"z": 1.0840495118,
				"element": "C" 
			},
			{
				"x": 1.3672412743,
				"y": 2.3010926382,
				"z": -0.2780593245,
				"element": "C" 
			},
			{
				"x": 0.7323007476,
				"y": 1.1505698383,
				"z": -0.7341017912,
				"element": "C" 
			},
			{
				"x": 0.3000915858,
				"y": 0.1730436748,
				"z": 0.1751273684,
				"element": "C" 
			},
			{
				"x": 0.529749974,
				"y": 0.3815701435,
				"z": 1.5387712897,
				"element": "C" 
			},
			{
				"x": 1.1589959931,
				"y": 1.5425725105,
				"z": 1.9738845624,
				"element": "C" 
			},
			{
				"x": 1.3417334179,
				"y": 1.6668875022,
				"z": 3.4354675924,
				"element": "N" 
			},
			{
				"x": 0.6602830067,
				"y": 0.9401776166,
				"z": 4.1552341088,
				"element": "O" 
			},
			{
				"x": 2.1674517307,
				"y": 2.480574371,
				"z": 3.8487382265,
				"element": "O" 
			},
			{
				"x": -0.3105253921,
				"y": -1.1251424293,
				"z": -0.2446001806,
				"element": "C" 
			},
			{
				"x": -0.2275149274,
				"y": -2.0891406572,
				"z": 0.5212293412,
				"element": "O" 
			},
			{
				"x": -1.0360140745,
				"y": -1.2198223899,
				"z": -1.5520512638,
				"element": "C" 
			},
			{
				"x": -1.8833285242,
				"y": -0.1422904031,
				"z": -1.874596275,
				"element": "C" 
			},
			{
				"x": -2.6746398541,
				"y": -0.1539038879,
				"z": -3.0193953849,
				"element": "C" 
			},
			{
				"x": -2.5962526666,
				"y": -1.2367714478,
				"z": -3.8933752035,
				"element": "C" 
			},
			{
				"x": -1.7446729886,
				"y": -2.2992806179,
				"z": -3.6023401391,
				"element": "C" 
			},
			{
				"x": -0.9796294162,
				"y": -2.336394432,
				"z": -2.4285192118,
				"element": "C" 
			},
			{
				"x": -0.1152982474,
				"y": -3.5891392756,
				"z": -2.312584777,
				"element": "C" 
			},
			{
				"x": 0.1832231229,
				"y": -4.0635383468,
				"z": -1.1039180115,
				"element": "O" 
			},
			{
				"x": 0.2449223434,
				"y": -4.1642893633,
				"z": -3.3185051595,
				"element": "O" 
			},
			{
				"x": 2.3845560758,
				"y": 4.4804160803,
				"z": 0.6149386382,
				"element": "H" 
			},
			{
				"x": 1.7387903837,
				"y": 4.3529446274,
				"z": 2.2680845192,
				"element": "H" 
			},
			{
				"x": 3.2834781823,
				"y": 3.6298132843,
				"z": 1.8930310107,
				"element": "H" 
			},
			{
				"x": 1.6972371263,
				"y": 3.0439520116,
				"z": -0.997765875,
				"element": "H" 
			},
			{
				"x": 0.5887675414,
				"y": 1.0055076346,
				"z": -1.7992034715,
				"element": "H" 
			},
			{
				"x": 0.2176719761,
				"y": -0.3605664966,
				"z": 2.2621510163,
				"element": "H" 
			},
			{
				"x": -1.9385044264,
				"y": 0.7047244761,
				"z": -1.1993090158,
				"element": "H" 
			},
			{
				"x": -3.3377265011,
				"y": 0.680090942,
				"z": -3.2276164324,
				"element": "H" 
			},
			{
				"x": -3.1915582513,
				"y": -1.2548122333,
				"z": -4.8012665274,
				"element": "H" 
			},
			{
				"x": -1.6470388335,
				"y": -3.1348206115,
				"z": -4.2857027432,
				"element": "H" 
			},
			{
				"x": -0.152235231,
				"y": -3.4749033874,
				"z": -0.3869460744,
				"element": "H" 
			}
		],
		 "valence_orbital": [ 
			{
				"type": "occ",
				"energy": -0.29444,
				"method": "rhf"
			},
			{
				"type": "occ",
				"energy": -0.2883,
				"method": "rhf"
			},
			{
				"type": "occ",
				"energy": -0.28459,
				"method": "rhf"
			},
			{
				"type": "occ",
				"energy": -0.2836,
				"method": "rhf"
			},
			{
				"type": "occ",
				"energy": -0.2628,
				"method": "rhf"
			},
			{
				"type": "unocc",
				"energy": -0.10487,
				"method": "rhf"
			},
			{
				"type": "unocc",
				"energy": -0.09878,
				"method": "rhf"
			},
			{
				"type": "unocc",
				"energy": -0.05543,
				"method": "rhf"
			},
			{
				"type": "unocc",
				"energy": -0.03949,
				"method": "rhf"
			},
			{
				"type": "unocc",
				"energy": -0.02529,
				"method": "rhf"
			}
		],
		"cosmo_sigma_profile": { 
			"-0.025": 0.0,
			"-0.024": 0.0,
			"-0.023": 0.0,
			"-0.022": 0.0,
			"-0.021": 0.0,
			"-0.02": 0.0,
			"-0.019": 0.0,
			"-0.018": 0.0,
			"-0.017": 0.0,
			"-0.016": 0.0,
			"-0.015": 0.0,
			"-0.014": 0.0,
			"-0.013": 0.0,
			"-0.012": 0.0,
			"-0.011": 0.0,
			"-0.01": 0.0,
			"-0.009": 0.233793764373,
			"-0.008": 5.67410336049,
			"-0.007": 17.6189552473,
			"-0.006": 19.7362562506,
			"-0.005": 22.7068259859,
			"-0.004": 22.0029441469,
			"-0.003": 23.2016646793,
			"-0.002": 22.8677480155,
			"-0.001": 29.897398904,
			"0.0": 23.6909519255,
			"0.001": 18.7406322546,
			"0.002": 16.7039212238,
			"0.003": 7.86769689576,
			"0.004": 5.71523562,
			"0.005": 6.18181734184,
			"0.006": 9.13125480068,
			"0.007": 11.4929035533,
			"0.008": 9.32199085201,
			"0.009": 7.75984832043,
			"0.01": 5.95187974813,
			"0.011": 5.10763449265,
			"0.012": 5.74956112845,
			"0.013": 2.53505263436,
			"0.014": 0.456633014098,
			"0.015": 0.0,
			"0.016": 0.0,
			"0.017": 0.0,
			"0.018": 0.0,
			"0.019": 0.0,
			"0.02": 0.0,
			"0.021": 0.0,
			"0.022": 0.0,
			"0.023": 0.0,
			"0.024": 0.0,
			"0.025": 0.0
		}
	}
}
