{
	 "smiles": "OC(=O)C1=C(Br)C=NC=C1", 
	 "Tm": 511.15, 
	 "num_atms": 14, 
	 "gaussian": { 
		 "optdone": 1, 
		 "sigma_profile": "yes", 
		 "theory": "DFT", 
		 "functional": "B3LYP", 
		 "basiset": "6-31G**", 
		 "properties": { 
			 "R2extent": 2935.8366, 
			 "electric_dipole_moment_norm": 1.10566653653, 
			 "electric_quadrupole_moment_norm": 7.217732804, 
			 "total_energy": -3007.64934891, 
			 "HOMO_LUMO_gap": 0.18362, 
			 "cosmo_polarized_energy": -9.6, 
			 "cosmo_cavitation_energy": 21.21, 
			 "cosmo_dispersion_energy": -16.34, 
			 "cosmo_repulsion_energy": 1.31, 
			 "cosmo_total_nonelectrostatic_energy": 6.18, 
			 "SMD_solvation_energy": 2.64 
		},
		"coords": [
			{
				"x": -1.0950448811,
				"y": -2.4561254505,
				"z": 2.0614180968,
				"element": "O" 
			},
			{
				"x": -1.3882721523,
				"y": -1.4381075898,
				"z": 1.2349663867,
				"element": "C" 
			},
			{
				"x": -2.5309274513,
				"y": -1.0950831402,
				"z": 1.005545696,
				"element": "O" 
			},
			{
				"x": -0.2003108423,
				"y": -0.748948025,
				"z": 0.6262736242,
				"element": "C" 
			},
			{
				"x": 1.1584582203,
				"y": -1.0889945487,
				"z": 0.7292455873,
				"element": "C" 
			},
			{
				"x": 1.8676226192,
				"y": -2.5726042871,
				"z": 1.6893523751,
				"element": "Br" 
			},
			{
				"x": 2.1067935605,
				"y": -0.2918554025,
				"z": 0.0693841068,
				"element": "C" 
			},
			{
				"x": 1.7996924616,
				"y": 0.7809373831,
				"z": -0.656884908,
				"element": "N" 
			},
			{
				"x": 0.5037862773,
				"y": 1.1067842371,
				"z": -0.7595670233,
				"element": "C" 
			},
			{
				"x": -0.5094446948,
				"y": 0.3818318035,
				"z": -0.1471079588,
				"element": "C" 
			},
			{
				"x": -1.9500633007,
				"y": -2.796612814,
				"z": 2.3760013106,
				"element": "H" 
			},
			{
				"x": 3.1592855153,
				"y": -0.5516600817,
				"z": 0.1449792235,
				"element": "H" 
			},
			{
				"x": 0.2712106728,
				"y": 1.9845262225,
				"z": -1.3577947558,
				"element": "H" 
			},
			{
				"x": -1.5505860044,
				"y": 0.6652116934,
				"z": -0.2485117613,
				"element": "H" 
			}
		],
		 "valence_orbital": [ 
			{
				"type": "occ",
				"energy": -0.30317,
				"method": "rhf"
			},
			{
				"type": "occ",
				"energy": -0.30052,
				"method": "rhf"
			},
			{
				"type": "occ",
				"energy": -0.29232,
				"method": "rhf"
			},
			{
				"type": "occ",
				"energy": -0.27368,
				"method": "rhf"
			},
			{
				"type": "occ",
				"energy": -0.26268,
				"method": "rhf"
			},
			{
				"type": "unocc",
				"energy": -0.07906,
				"method": "rhf"
			},
			{
				"type": "unocc",
				"energy": -0.03343,
				"method": "rhf"
			},
			{
				"type": "unocc",
				"energy": -0.00567,
				"method": "rhf"
			},
			{
				"type": "unocc",
				"energy": 0.03202,
				"method": "rhf"
			},
			{
				"type": "unocc",
				"energy": 0.06846,
				"method": "rhf"
			}
		],
		"cosmo_sigma_profile": { 
			"-0.025": 0.0,
			"-0.024": 0.0,
			"-0.023": 0.0,
			"-0.022": 0.0,
			"-0.021": 0.0,
			"-0.02": 0.0,
			"-0.019": 0.669193482236,
			"-0.018": 0.871575874193,
			"-0.017": 0.979348119516,
			"-0.016": 1.15503601968,
			"-0.015": 0.836315909623,
			"-0.014": 0.162594604793,
			"-0.013": 0.265985559034,
			"-0.012": 0.899218935015,
			"-0.011": 1.00917711974,
			"-0.01": 0.379965358545,
			"-0.009": 0.591577670939,
			"-0.008": 3.66152584181,
			"-0.007": 6.32311657815,
			"-0.006": 5.69860845947,
			"-0.005": 7.54455975902,
			"-0.004": 9.88549059826,
			"-0.003": 10.5303364039,
			"-0.002": 13.3905784015,
			"-0.001": 19.9571892621,
			"0.0": 16.5359000105,
			"0.001": 9.25793816519,
			"0.002": 9.78522310357,
			"0.003": 12.0539385889,
			"0.004": 8.85940383463,
			"0.005": 4.55764462206,
			"0.006": 4.41509370361,
			"0.007": 5.64989493251,
			"0.008": 3.34778124169,
			"0.009": 2.42677685557,
			"0.01": 4.50239364768,
			"0.011": 4.68846754867,
			"0.012": 0.766576735438,
			"0.013": 0.993510013911,
			"0.014": 0.897746316849,
			"0.015": 0.511295298319,
			"0.016": 0.0289467852857,
			"0.017": 0.0,
			"0.018": 0.0,
			"0.019": 0.0,
			"0.02": 0.0,
			"0.021": 0.0,
			"0.022": 0.0,
			"0.023": 0.0,
			"0.024": 0.0,
			"0.025": 0.0
		}
	}
}
