{
	 "smiles": "COC1=CC=C(C=C1C(O)=O)C(F)(F)F", 
	 "Tm": 382.65, 
	 "num_atms": 22, 
	 "gaussian": { 
		 "optdone": 1, 
		 "sigma_profile": "yes", 
		 "theory": "DFT", 
		 "functional": "B3LYP", 
		 "basiset": "6-31G**", 
		 "properties": { 
			 "R2extent": 4204.4382, 
			 "electric_dipole_moment_norm": 7.52393704054, 
			 "electric_quadrupole_moment_norm": 11.6446656315, 
			 "total_energy": -872.378206515, 
			 "HOMO_LUMO_gap": 0.2018, 
			 "cosmo_polarized_energy": -14.9, 
			 "cosmo_cavitation_energy": 28.01, 
			 "cosmo_dispersion_energy": -20.11, 
			 "cosmo_repulsion_energy": 1.5, 
			 "cosmo_total_nonelectrostatic_energy": 9.4, 
			 "SMD_solvation_energy": 7.95 
		},
		"coords": [
			{
				"x": -0.7782061483,
				"y": -0.5138184864,
				"z": 2.9247546702,
				"element": "C" 
			},
			{
				"x": -0.1811510424,
				"y": -0.8816978765,
				"z": 1.6809147189,
				"element": "O" 
			},
			{
				"x": 0.1902875593,
				"y": 0.0885278208,
				"z": 0.7874316288,
				"element": "C" 
			},
			{
				"x": 0.004375676,
				"y": 1.4525375465,
				"z": 1.0391382978,
				"element": "C" 
			},
			{
				"x": 0.4005908481,
				"y": 2.3945129663,
				"z": 0.0940390335,
				"element": "C" 
			},
			{
				"x": 0.9824309536,
				"y": 1.9855043598,
				"z": -1.1068731366,
				"element": "C" 
			},
			{
				"x": 1.1635868342,
				"y": 0.6269983266,
				"z": -1.3537572514,
				"element": "C" 
			},
			{
				"x": 0.7764616274,
				"y": -0.3425677979,
				"z": -0.4249475825,
				"element": "C" 
			},
			{
				"x": 1.027652376,
				"y": -1.7787831568,
				"z": -0.8281683179,
				"element": "C" 
			},
			{
				"x": 0.6745032925,
				"y": -2.7477393963,
				"z": 0.034698537,
				"element": "O" 
			},
			{
				"x": 1.5322371508,
				"y": -2.0537792173,
				"z": -1.8942910155,
				"element": "O" 
			},
			{
				"x": 1.4606172512,
				"y": 3.0078126136,
				"z": -2.1012207764,
				"element": "C" 
			},
			{
				"x": 2.7432750573,
				"y": 3.3704447567,
				"z": -1.8671213024,
				"element": "F" 
			},
			{
				"x": 1.4065915599,
				"y": 2.5430270558,
				"z": -3.3660274867,
				"element": "F" 
			},
			{
				"x": 0.7194248325,
				"y": 4.1385798939,
				"z": -2.0463204236,
				"element": "F" 
			},
			{
				"x": -0.0962130956,
				"y": 0.102071569,
				"z": 3.5203861017,
				"element": "H" 
			},
			{
				"x": -1.7203595053,
				"y": 0.0209580461,
				"z": 2.7647485763,
				"element": "H" 
			},
			{
				"x": -0.9744335651,
				"y": -1.4501686096,
				"z": 3.4468746548,
				"element": "H" 
			},
			{
				"x": -0.4496312909,
				"y": 1.7874036108,
				"z": 1.9631203074,
				"element": "H" 
			},
			{
				"x": 0.2470961308,
				"y": 3.4500711744,
				"z": 0.2906928038,
				"element": "H" 
			},
			{
				"x": 1.604707185,
				"y": 0.2772647649,
				"z": -2.280112034,
				"element": "H" 
			},
			{
				"x": 0.2848563129,
				"y": -2.3512599641,
				"z": 0.8354399968,
				"element": "H" 
			}
		],
		 "valence_orbital": [ 
			{
				"type": "occ",
				"energy": -0.34875,
				"method": "rhf"
			},
			{
				"type": "occ",
				"energy": -0.3096,
				"method": "rhf"
			},
			{
				"type": "occ",
				"energy": -0.28117,
				"method": "rhf"
			},
			{
				"type": "occ",
				"energy": -0.27156,
				"method": "rhf"
			},
			{
				"type": "occ",
				"energy": -0.26162,
				"method": "rhf"
			},
			{
				"type": "unocc",
				"energy": -0.05982,
				"method": "rhf"
			},
			{
				"type": "unocc",
				"energy": -0.03119,
				"method": "rhf"
			},
			{
				"type": "unocc",
				"energy": 0.04236,
				"method": "rhf"
			},
			{
				"type": "unocc",
				"energy": 0.06242,
				"method": "rhf"
			},
			{
				"type": "unocc",
				"energy": 0.06863,
				"method": "rhf"
			}
		],
		"cosmo_sigma_profile": { 
			"-0.025": 0.0,
			"-0.024": 0.0,
			"-0.023": 0.0,
			"-0.022": 0.0,
			"-0.021": 0.0,
			"-0.02": 0.0,
			"-0.019": 0.0,
			"-0.018": 0.0,
			"-0.017": 0.0,
			"-0.016": 0.0,
			"-0.015": 0.0,
			"-0.014": 0.0,
			"-0.013": 0.0,
			"-0.012": 0.0,
			"-0.011": 0.0,
			"-0.01": 0.757907988669,
			"-0.009": 1.27957829641,
			"-0.008": 5.77650920849,
			"-0.007": 13.3002958825,
			"-0.006": 14.5936744362,
			"-0.005": 14.7154953447,
			"-0.004": 14.9203343232,
			"-0.003": 9.64047625792,
			"-0.002": 11.9925384039,
			"-0.001": 13.6455748428,
			"0.0": 20.7056827424,
			"0.001": 19.8609020968,
			"0.002": 23.3899890623,
			"0.003": 27.4677046722,
			"0.004": 4.09996308539,
			"0.005": 2.00380282109,
			"0.006": 1.31448238837,
			"0.007": 2.92709177929,
			"0.008": 2.60527989423,
			"0.009": 3.08172263243,
			"0.01": 3.63406502143,
			"0.011": 5.88365087578,
			"0.012": 4.87106431624,
			"0.013": 2.10450399229,
			"0.014": 0.252835114036,
			"0.015": 0.0,
			"0.016": 0.0,
			"0.017": 0.0,
			"0.018": 0.0,
			"0.019": 0.0,
			"0.02": 0.0,
			"0.021": 0.0,
			"0.022": 0.0,
			"0.023": 0.0,
			"0.024": 0.0,
			"0.025": 0.0
		}
	}
}
