{
	 "smiles": "NC(=O)CCNC(=O)OCC1=CC=CC=C1", 
	 "Tm": 438.15, 
	 "num_atms": 30, 
	 "gaussian": { 
		 "optdone": 1, 
		 "sigma_profile": "yes", 
		 "theory": "DFT", 
		 "functional": "B3LYP", 
		 "basiset": "6-31G**", 
		 "properties": { 
			 "R2extent": 3734.1937, 
			 "electric_dipole_moment_norm": 4.26068575349, 
			 "electric_quadrupole_moment_norm": 11.8937767101, 
			 "total_energy": -762.827985447, 
			 "HOMO_LUMO_gap": 0.22914, 
			 "cosmo_polarized_energy": -17.34, 
			 "cosmo_cavitation_energy": 34.32, 
			 "cosmo_dispersion_energy": -22.72, 
			 "cosmo_repulsion_energy": 1.8, 
			 "cosmo_total_nonelectrostatic_energy": 13.39, 
			 "SMD_solvation_energy": 6.37 
		},
		"coords": [
			{
				"x": -2.5475687443,
				"y": 0.112073518,
				"z": 0.8859432434,
				"element": "N" 
			},
			{
				"x": -2.4301062318,
				"y": -1.1598398332,
				"z": 0.4024968717,
				"element": "C" 
			},
			{
				"x": -2.8395092608,
				"y": -2.1391137091,
				"z": 1.0147789041,
				"element": "O" 
			},
			{
				"x": -1.7803390069,
				"y": -1.2813410295,
				"z": -0.974666602,
				"element": "C" 
			},
			{
				"x": -0.9048268964,
				"y": -2.5400783993,
				"z": -1.0521184998,
				"element": "C" 
			},
			{
				"x": 0.1400914313,
				"y": -2.5805093399,
				"z": -0.0308078567,
				"element": "N" 
			},
			{
				"x": 1.177532423,
				"y": -1.6987404553,
				"z": 0.0520723424,
				"element": "C" 
			},
			{
				"x": 1.875927596,
				"y": -1.5372331387,
				"z": 1.0396922593,
				"element": "O" 
			},
			{
				"x": 1.3425386135,
				"y": -1.0312832671,
				"z": -1.128406286,
				"element": "O" 
			},
			{
				"x": 2.2659262761,
				"y": 0.0831564025,
				"z": -1.0972848894,
				"element": "C" 
			},
			{
				"x": 1.5345079262,
				"y": 1.3673207384,
				"z": -0.7807903575,
				"element": "C" 
			},
			{
				"x": 1.1895096943,
				"y": 1.6783121815,
				"z": 0.5441520535,
				"element": "C" 
			},
			{
				"x": 0.4688900117,
				"y": 2.8389167321,
				"z": 0.8313106998,
				"element": "C" 
			},
			{
				"x": 0.0886358886,
				"y": 3.7047496377,
				"z": -0.1991109903,
				"element": "C" 
			},
			{
				"x": 0.4337051508,
				"y": 3.4055423185,
				"z": -1.5181529718,
				"element": "C" 
			},
			{
				"x": 1.1504358143,
				"y": 2.2417312248,
				"z": -1.8047653713,
				"element": "C" 
			},
			{
				"x": -2.0199610567,
				"y": 0.8764842943,
				"z": 0.49233568,
				"element": "H" 
			},
			{
				"x": -2.9019481593,
				"y": 0.2146123327,
				"z": 1.8260116416,
				"element": "H" 
			},
			{
				"x": -1.1883970085,
				"y": -0.3953455913,
				"z": -1.2212134454,
				"element": "H" 
			},
			{
				"x": -2.5831074558,
				"y": -1.3541755102,
				"z": -1.7197582323,
				"element": "H" 
			},
			{
				"x": -0.4453378627,
				"y": -2.6143849898,
				"z": -2.0401651498,
				"element": "H" 
			},
			{
				"x": -1.5294853028,
				"y": -3.4213649035,
				"z": -0.8954110843,
				"element": "H" 
			},
			{
				"x": -0.1115081115,
				"y": -2.9812798827,
				"z": 0.8617683469,
				"element": "H" 
			},
			{
				"x": 2.7032665246,
				"y": 0.1166084924,
				"z": -2.0974497246,
				"element": "H" 
			},
			{
				"x": 3.0433681976,
				"y": -0.1297200451,
				"z": -0.3612898324,
				"element": "H" 
			},
			{
				"x": 1.4873759492,
				"y": 1.0014998148,
				"z": 1.3393833618,
				"element": "H" 
			},
			{
				"x": 0.2164838453,
				"y": 3.0757923522,
				"z": 1.8613862438,
				"element": "H" 
			},
			{
				"x": -0.4654576979,
				"y": 4.6114142282,
				"z": 0.0270058671,
				"element": "H" 
			},
			{
				"x": 0.1463051443,
				"y": 4.0765490662,
				"z": -2.3225827693,
				"element": "H" 
			},
			{
				"x": 1.4152523084,
				"y": 2.0097467601,
				"z": -2.8335634524,
				"element": "H" 
			}
		],
		 "valence_orbital": [ 
			{
				"type": "occ",
				"energy": -0.27166,
				"method": "rhf"
			},
			{
				"type": "occ",
				"energy": -0.26206,
				"method": "rhf"
			},
			{
				"type": "occ",
				"energy": -0.25788,
				"method": "rhf"
			},
			{
				"type": "occ",
				"energy": -0.2539,
				"method": "rhf"
			},
			{
				"type": "occ",
				"energy": -0.24936,
				"method": "rhf"
			},
			{
				"type": "unocc",
				"energy": -0.02022,
				"method": "rhf"
			},
			{
				"type": "unocc",
				"energy": -0.01375,
				"method": "rhf"
			},
			{
				"type": "unocc",
				"energy": 0.02384,
				"method": "rhf"
			},
			{
				"type": "unocc",
				"energy": 0.04971,
				"method": "rhf"
			},
			{
				"type": "unocc",
				"energy": 0.07622,
				"method": "rhf"
			}
		],
		"cosmo_sigma_profile": { 
			"-0.025": 0.0,
			"-0.024": 0.0,
			"-0.023": 0.0,
			"-0.022": 0.0,
			"-0.021": 0.0,
			"-0.02": 0.0,
			"-0.019": 0.0,
			"-0.018": 0.0,
			"-0.017": 0.0,
			"-0.016": 0.0,
			"-0.015": 0.0,
			"-0.014": 0.237888268072,
			"-0.013": 1.8606489291,
			"-0.012": 1.50491719095,
			"-0.011": 1.61149164193,
			"-0.01": 1.93981141767,
			"-0.009": 2.53322722431,
			"-0.008": 3.56005997297,
			"-0.007": 3.94197990781,
			"-0.006": 15.5652532185,
			"-0.005": 20.9025129118,
			"-0.004": 25.2016184205,
			"-0.003": 25.4473441546,
			"-0.002": 22.8968641124,
			"-0.001": 19.6039722326,
			"0.0": 16.5402713485,
			"0.001": 16.4889246351,
			"0.002": 13.9012190787,
			"0.003": 14.3015092658,
			"0.004": 12.6884332655,
			"0.005": 11.3615307948,
			"0.006": 6.16972801224,
			"0.007": 4.91686794228,
			"0.008": 2.67074879688,
			"0.009": 1.96047321725,
			"0.01": 2.71154146573,
			"0.011": 2.53607208722,
			"0.012": 4.02839406312,
			"0.013": 6.99312421199,
			"0.014": 5.77751805786,
			"0.015": 1.0738995168,
			"0.016": 0.0,
			"0.017": 0.0,
			"0.018": 0.0,
			"0.019": 0.0,
			"0.02": 0.0,
			"0.021": 0.0,
			"0.022": 0.0,
			"0.023": 0.0,
			"0.024": 0.0,
			"0.025": 0.0
		}
	}
}
