{
	 "smiles": "NC1=C(C(Cl)=C(Br)C=C1)[N+]([O-])=O", 
	 "Tm": 380.15, 
	 "num_atms": 16, 
	 "gaussian": { 
		 "optdone": 1, 
		 "sigma_profile": "yes", 
		 "theory": "DFT", 
		 "functional": "B3LYP", 
		 "basiset": "6-31G**", 
		 "properties": { 
			 "R2extent": 4231.7972, 
			 "electric_dipole_moment_norm": 5.11762363798, 
			 "electric_quadrupole_moment_norm": 19.4988294626, 
			 "total_energy": -3522.48170058, 
			 "HOMO_LUMO_gap": 0.13645, 
			 "cosmo_polarized_energy": -11.97, 
			 "cosmo_cavitation_energy": 24.73, 
			 "cosmo_dispersion_energy": -19.1, 
			 "cosmo_repulsion_energy": 1.51, 
			 "cosmo_total_nonelectrostatic_energy": 7.14, 
			 "SMD_solvation_energy": 4.95 
		},
		"coords": [
			{
				"x": 2.858601869,
				"y": -0.3050678197,
				"z": 2.7114125486,
				"element": "N" 
			},
			{
				"x": 1.6930518586,
				"y": -0.1684722591,
				"z": 2.0106326527,
				"element": "C" 
			},
			{
				"x": 0.7525246593,
				"y": 0.8650524298,
				"z": 2.2657148986,
				"element": "C" 
			},
			{
				"x": -0.443662129,
				"y": 0.9750935377,
				"z": 1.5178327961,
				"element": "C" 
			},
			{
				"x": -1.5160175234,
				"y": 2.3238052992,
				"z": 1.7342403136,
				"element": "Cl" 
			},
			{
				"x": -0.726712039,
				"y": 0.0218862832,
				"z": 0.5391694077,
				"element": "C" 
			},
			{
				"x": -2.2881113612,
				"y": 0.1047141987,
				"z": -0.540770846,
				"element": "Br" 
			},
			{
				"x": 0.1679544607,
				"y": -1.0338017261,
				"z": 0.3226474753,
				"element": "C" 
			},
			{
				"x": 1.3459590633,
				"y": -1.1269851279,
				"z": 1.0337629562,
				"element": "C" 
			},
			{
				"x": 1.0315938904,
				"y": 1.7919578844,
				"z": 3.3632029836,
				"element": "N" 
			},
			{
				"x": 0.11302011,
				"y": 2.1319097279,
				"z": 4.096049268,
				"element": "O" 
			},
			{
				"x": 2.2072890026,
				"y": 2.1640257252,
				"z": 3.5101365817,
				"element": "O" 
			},
			{
				"x": 3.5161743671,
				"y": -0.994250289,
				"z": 2.3832307795,
				"element": "H" 
			},
			{
				"x": 3.2321153107,
				"y": 0.5224793655,
				"z": 3.1533573109,
				"element": "H" 
			},
			{
				"x": -0.0688865495,
				"y": -1.7746865469,
				"z": -0.4322085605,
				"element": "H" 
			},
			{
				"x": 2.0329050103,
				"y": -1.944560683,
				"z": 0.8372894341,
				"element": "H" 
			}
		],
		 "valence_orbital": [ 
			{
				"type": "occ",
				"energy": -0.30275,
				"method": "rhf"
			},
			{
				"type": "occ",
				"energy": -0.30002,
				"method": "rhf"
			},
			{
				"type": "occ",
				"energy": -0.28883,
				"method": "rhf"
			},
			{
				"type": "occ",
				"energy": -0.27556,
				"method": "rhf"
			},
			{
				"type": "occ",
				"energy": -0.23045,
				"method": "rhf"
			},
			{
				"type": "unocc",
				"energy": -0.094,
				"method": "rhf"
			},
			{
				"type": "unocc",
				"energy": -0.03105,
				"method": "rhf"
			},
			{
				"type": "unocc",
				"energy": -0.02177,
				"method": "rhf"
			},
			{
				"type": "unocc",
				"energy": -0.01811,
				"method": "rhf"
			},
			{
				"type": "unocc",
				"energy": 0.03947,
				"method": "rhf"
			}
		],
		"cosmo_sigma_profile": { 
			"-0.025": 0.0,
			"-0.024": 0.0,
			"-0.023": 0.0,
			"-0.022": 0.0,
			"-0.021": 0.0,
			"-0.02": 0.0,
			"-0.019": 0.0,
			"-0.018": 0.0,
			"-0.017": 0.0,
			"-0.016": 0.0,
			"-0.015": 0.958876852185,
			"-0.014": 1.74711471334,
			"-0.013": 1.39589055346,
			"-0.012": 1.76683428163,
			"-0.011": 2.0163415348,
			"-0.01": 2.96589265177,
			"-0.009": 2.64845089954,
			"-0.008": 5.39402437377,
			"-0.007": 5.71354560087,
			"-0.006": 5.20640126569,
			"-0.005": 6.93971376912,
			"-0.004": 7.77848034882,
			"-0.003": 9.72552611522,
			"-0.002": 9.73281261869,
			"-0.001": 17.5162903766,
			"0.0": 22.4854357832,
			"0.001": 18.8795160097,
			"0.002": 15.2397442511,
			"0.003": 15.8076232812,
			"0.004": 15.6646430508,
			"0.005": 8.34447481965,
			"0.006": 5.10705819624,
			"0.007": 8.38779315441,
			"0.008": 7.12344074498,
			"0.009": 4.27157377893,
			"0.01": 1.23241192645,
			"0.011": 0.000609555804532,
			"0.012": 0.0,
			"0.013": 0.0,
			"0.014": 0.0,
			"0.015": 0.0,
			"0.016": 0.0,
			"0.017": 0.0,
			"0.018": 0.0,
			"0.019": 0.0,
			"0.02": 0.0,
			"0.021": 0.0,
			"0.022": 0.0,
			"0.023": 0.0,
			"0.024": 0.0,
			"0.025": 0.0
		}
	}
}
