{
	 "smiles": "OCCOC1=C2C=CC=CC2=CC=C1", 
	 "Tm": 318.15, 
	 "num_atms": 26, 
	 "gaussian": { 
		 "optdone": 1, 
		 "sigma_profile": "yes", 
		 "theory": "DFT", 
		 "functional": "B3LYP", 
		 "basiset": "6-31G**", 
		 "properties": { 
			 "R2extent": 3597.232, 
			 "electric_dipole_moment_norm": 1.47003817638, 
			 "electric_quadrupole_moment_norm": 10.8319766709, 
			 "total_energy": -614.946538539, 
			 "HOMO_LUMO_gap": 0.17133, 
			 "cosmo_polarized_energy": -10.61, 
			 "cosmo_cavitation_energy": 29.42, 
			 "cosmo_dispersion_energy": -21.72, 
			 "cosmo_repulsion_energy": 1.71, 
			 "cosmo_total_nonelectrostatic_energy": 9.4, 
			 "SMD_solvation_energy": 4.94 
		},
		"coords": [
			{
				"x": 1.8890150564,
				"y": 1.2177887746,
				"z": -3.988865845,
				"element": "O" 
			},
			{
				"x": 0.8616938161,
				"y": 0.9817547322,
				"z": -3.0401781497,
				"element": "C" 
			},
			{
				"x": 1.4151075573,
				"y": 0.3126788143,
				"z": -1.7836481513,
				"element": "C" 
			},
			{
				"x": 0.32048435,
				"y": 0.0997611841,
				"z": -0.9031832436,
				"element": "O" 
			},
			{
				"x": 0.550219938,
				"y": -0.492706179,
				"z": 0.3060142219,
				"element": "C" 
			},
			{
				"x": -0.6114533187,
				"y": -0.6587166653,
				"z": 1.1291310202,
				"element": "C" 
			},
			{
				"x": -1.8993445691,
				"y": -0.2372003559,
				"z": 0.7089874506,
				"element": "C" 
			},
			{
				"x": -2.9952898328,
				"y": -0.4122457419,
				"z": 1.5262076025,
				"element": "C" 
			},
			{
				"x": -2.8496891174,
				"y": -1.0158066528,
				"z": 2.7974419668,
				"element": "C" 
			},
			{
				"x": -1.6100580914,
				"y": -1.4335920154,
				"z": 3.2282329501,
				"element": "C" 
			},
			{
				"x": -0.4573765459,
				"y": -1.2701689912,
				"z": 2.4139440485,
				"element": "C" 
			},
			{
				"x": 0.8325568568,
				"y": -1.6944025423,
				"z": 2.838755135,
				"element": "C" 
			},
			{
				"x": 1.9211291266,
				"y": -1.5178784552,
				"z": 2.0201977567,
				"element": "C" 
			},
			{
				"x": 1.7900669541,
				"y": -0.9144383279,
				"z": 0.7444809069,
				"element": "C" 
			},
			{
				"x": 2.4411569597,
				"y": 1.9390892568,
				"z": -3.661035958,
				"element": "H" 
			},
			{
				"x": 0.1392848558,
				"y": 0.314599329,
				"z": -3.5190047341,
				"element": "H" 
			},
			{
				"x": 0.3276118141,
				"y": 1.9016415359,
				"z": -2.7608982372,
				"element": "H" 
			},
			{
				"x": 1.8988258668,
				"y": -0.6365847558,
				"z": -2.0487357886,
				"element": "H" 
			},
			{
				"x": 2.1696206938,
				"y": 0.9581977164,
				"z": -1.307616049,
				"element": "H" 
			},
			{
				"x": -2.0042622394,
				"y": 0.2240299808,
				"z": -0.2661959947,
				"element": "H" 
			},
			{
				"x": -3.9767870648,
				"y": -0.0860825659,
				"z": 1.1943354186,
				"element": "H" 
			},
			{
				"x": -3.7202819826,
				"y": -1.1489950572,
				"z": 3.4334629475,
				"element": "H" 
			},
			{
				"x": -1.4944873257,
				"y": -1.8979232443,
				"z": 4.2042693685,
				"element": "H" 
			},
			{
				"x": 0.9406143942,
				"y": -2.1577576277,
				"z": 3.815279022,
				"element": "H" 
			},
			{
				"x": 2.9058730289,
				"y": -1.84245778,
				"z": 2.3441015878,
				"element": "H" 
			},
			{
				"x": 2.6704688193,
				"y": -0.7931843661,
				"z": 0.1251207477,
				"element": "H" 
			}
		],
		 "valence_orbital": [ 
			{
				"type": "occ",
				"energy": -0.3122,
				"method": "rhf"
			},
			{
				"type": "occ",
				"energy": -0.28045,
				"method": "rhf"
			},
			{
				"type": "occ",
				"energy": -0.25945,
				"method": "rhf"
			},
			{
				"type": "occ",
				"energy": -0.24009,
				"method": "rhf"
			},
			{
				"type": "occ",
				"energy": -0.20044,
				"method": "rhf"
			},
			{
				"type": "unocc",
				"energy": -0.02911,
				"method": "rhf"
			},
			{
				"type": "unocc",
				"energy": -0.00556,
				"method": "rhf"
			},
			{
				"type": "unocc",
				"energy": 0.04393,
				"method": "rhf"
			},
			{
				"type": "unocc",
				"energy": 0.0605,
				"method": "rhf"
			},
			{
				"type": "unocc",
				"energy": 0.09769,
				"method": "rhf"
			}
		],
		"cosmo_sigma_profile": { 
			"-0.025": 0.0,
			"-0.024": 0.0,
			"-0.023": 0.0,
			"-0.022": 0.0,
			"-0.021": 0.0,
			"-0.02": 0.0,
			"-0.019": 0.0,
			"-0.018": 0.0,
			"-0.017": 0.0,
			"-0.016": 0.943875876344,
			"-0.015": 0.936117698472,
			"-0.014": 0.98828434446,
			"-0.013": 1.01565362336,
			"-0.012": 0.875995065408,
			"-0.011": 0.930380046023,
			"-0.01": 1.10419388564,
			"-0.009": 1.38795050533,
			"-0.008": 1.18392036992,
			"-0.007": 1.442401293,
			"-0.006": 8.99675075922,
			"-0.005": 22.9485687505,
			"-0.004": 21.5296431795,
			"-0.003": 21.1781618894,
			"-0.002": 14.533074072,
			"-0.001": 12.649554865,
			"0.0": 12.7094130164,
			"0.001": 10.7727627883,
			"0.002": 12.7766603211,
			"0.003": 17.8482245123,
			"0.004": 22.9117571576,
			"0.005": 22.1394867742,
			"0.006": 9.5020910775,
			"0.007": 2.30386388654,
			"0.008": 1.53018348176,
			"0.009": 0.614548417331,
			"0.01": 0.995534954479,
			"0.011": 1.27022694174,
			"0.012": 1.50562887883,
			"0.013": 1.77969617261,
			"0.014": 2.04888561897,
			"0.015": 0.204759728565,
			"0.016": 0.0,
			"0.017": 0.0,
			"0.018": 0.0,
			"0.019": 0.0,
			"0.02": 0.0,
			"0.021": 0.0,
			"0.022": 0.0,
			"0.023": 0.0,
			"0.024": 0.0,
			"0.025": 0.0
		}
	}
}
