{
	 "smiles": "NCC1=NNC=C1", 
	 "Tm": 332.15, 
	 "num_atms": 14, 
	 "gaussian": { 
		 "optdone": 1, 
		 "sigma_profile": "yes", 
		 "theory": "DFT", 
		 "functional": "B3LYP", 
		 "basiset": "6-31G**", 
		 "properties": { 
			 "R2extent": 2355.2043, 
			 "electric_dipole_moment_norm": 3.32799218449, 
			 "electric_quadrupole_moment_norm": 14.905406707, 
			 "total_energy": -320.868724599, 
			 "HOMO_LUMO_gap": 0.25413, 
			 "cosmo_polarized_energy": -11.12, 
			 "cosmo_cavitation_energy": 17.55, 
			 "cosmo_dispersion_energy": -13.4, 
			 "cosmo_repulsion_energy": 1.16, 
			 "cosmo_total_nonelectrostatic_energy": 5.31, 
			 "SMD_solvation_energy": 1.27 
		},
		"coords": [
			{
				"x": 0.6335005421,
				"y": -3.3239439996,
				"z": 3.8099227268,
				"element": "N" 
			},
			{
				"x": 0.7628217992,
				"y": -1.9636029151,
				"z": 3.2922178423,
				"element": "C" 
			},
			{
				"x": -0.3832698929,
				"y": -1.461335504,
				"z": 2.4400266868,
				"element": "C" 
			},
			{
				"x": -1.436479422,
				"y": -2.2426172839,
				"z": 2.1961198465,
				"element": "N" 
			},
			{
				"x": -2.2482150999,
				"y": -1.4886879367,
				"z": 1.4199413654,
				"element": "N" 
			},
			{
				"x": -1.7423902055,
				"y": -0.2543801117,
				"z": 1.1643389344,
				"element": "C" 
			},
			{
				"x": -0.5258340197,
				"y": -0.1954520855,
				"z": 1.811973384,
				"element": "C" 
			},
			{
				"x": -0.2359129043,
				"y": -3.3846576704,
				"z": 4.3368049131,
				"element": "H" 
			},
			{
				"x": 0.491870551,
				"y": -3.9540604246,
				"z": 3.0224774647,
				"element": "H" 
			},
			{
				"x": 0.9016735721,
				"y": -1.2823867188,
				"z": 4.1421061161,
				"element": "H" 
			},
			{
				"x": 1.6932696321,
				"y": -1.9016656888,
				"z": 2.7125037832,
				"element": "H" 
			},
			{
				"x": -3.1225414983,
				"y": -1.877234276,
				"z": 1.1044248934,
				"element": "H" 
			},
			{
				"x": -2.2727812055,
				"y": 0.4662028414,
				"z": 0.5582526061,
				"element": "H" 
			},
			{
				"x": 0.1621881517,
				"y": 0.6370217734,
				"z": 1.8315894373,
				"element": "H" 
			}
		],
		 "valence_orbital": [ 
			{
				"type": "occ",
				"energy": -0.36621,
				"method": "rhf"
			},
			{
				"type": "occ",
				"energy": -0.28579,
				"method": "rhf"
			},
			{
				"type": "occ",
				"energy": -0.24537,
				"method": "rhf"
			},
			{
				"type": "occ",
				"energy": -0.24363,
				"method": "rhf"
			},
			{
				"type": "occ",
				"energy": -0.23007,
				"method": "rhf"
			},
			{
				"type": "unocc",
				"energy": 0.02406,
				"method": "rhf"
			},
			{
				"type": "unocc",
				"energy": 0.07036,
				"method": "rhf"
			},
			{
				"type": "unocc",
				"energy": 0.08046,
				"method": "rhf"
			},
			{
				"type": "unocc",
				"energy": 0.10293,
				"method": "rhf"
			},
			{
				"type": "unocc",
				"energy": 0.13674,
				"method": "rhf"
			}
		],
		"cosmo_sigma_profile": { 
			"-0.025": 0.0,
			"-0.024": 0.0,
			"-0.023": 0.0,
			"-0.022": 0.0,
			"-0.021": 0.0,
			"-0.02": 0.0,
			"-0.019": 0.0,
			"-0.018": 0.0,
			"-0.017": 0.0399344406273,
			"-0.016": 1.31539518463,
			"-0.015": 1.243355341,
			"-0.014": 1.53210719528,
			"-0.013": 1.11813725823,
			"-0.012": 0.557682640277,
			"-0.011": 0.762820846834,
			"-0.01": 1.55513084178,
			"-0.009": 2.81421750867,
			"-0.008": 5.90594760228,
			"-0.007": 4.09578369222,
			"-0.006": 5.67492239431,
			"-0.005": 6.23637366666,
			"-0.004": 10.7454062013,
			"-0.003": 11.1005201023,
			"-0.002": 9.8974635875,
			"-0.001": 8.09424630333,
			"0.0": 6.58732121307,
			"0.001": 5.74595877692,
			"0.002": 5.22432020493,
			"0.003": 6.37714728394,
			"0.004": 6.44586735607,
			"0.005": 8.10902529877,
			"0.006": 7.07181113212,
			"0.007": 3.14495651406,
			"0.008": 1.46813423095,
			"0.009": 2.75404495753,
			"0.01": 2.09087076401,
			"0.011": 1.59980942552,
			"0.012": 1.53216728121,
			"0.013": 1.4440036796,
			"0.014": 1.84133965673,
			"0.015": 1.38664396973,
			"0.016": 0.521414843339,
			"0.017": 0.508522369708,
			"0.018": 0.861665995407,
			"0.019": 0.602418035201,
			"0.02": 0.369813745052,
			"0.021": 0.0,
			"0.022": 0.0,
			"0.023": 0.0,
			"0.024": 0.0,
			"0.025": 0.0
		}
	}
}
