{
	 "smiles": "CC(=O)C1=C(Cl)C=CC(Cl)=C1", 
	 "Tm": 285.15, 
	 "num_atms": 17, 
	 "gaussian": { 
		 "optdone": 1, 
		 "sigma_profile": "yes", 
		 "theory": "DFT", 
		 "functional": "B3LYP", 
		 "basiset": "6-31G**", 
		 "properties": { 
			 "R2extent": 2882.0624, 
			 "electric_dipole_moment_norm": 2.67497288397, 
			 "electric_quadrupole_moment_norm": 6.45871170436, 
			 "total_energy": -1304.0717115, 
			 "HOMO_LUMO_gap": 0.18391, 
			 "cosmo_polarized_energy": -6.68, 
			 "cosmo_cavitation_energy": 24.77, 
			 "cosmo_dispersion_energy": -18.49, 
			 "cosmo_repulsion_energy": 1.47, 
			 "cosmo_total_nonelectrostatic_energy": 7.75, 
			 "SMD_solvation_energy": 4.45 
		},
		"coords": [
			{
				"x": 0.9158052697,
				"y": 2.6191294723,
				"z": 1.4327147545,
				"element": "C" 
			},
			{
				"x": 0.4660266841,
				"y": 2.1776501445,
				"z": 0.0563347718,
				"element": "C" 
			},
			{
				"x": 0.8486142827,
				"y": 2.7869096514,
				"z": -0.9294140174,
				"element": "O" 
			},
			{
				"x": -0.4122861962,
				"y": 0.9545928015,
				"z": -0.1520630043,
				"element": "C" 
			},
			{
				"x": -1.2200561594,
				"y": 0.2836441322,
				"z": 0.784185293,
				"element": "C" 
			},
			{
				"x": -1.4126987476,
				"y": 0.8105519646,
				"z": 2.4527505699,
				"element": "Cl" 
			},
			{
				"x": -1.9625773897,
				"y": -0.8434541342,
				"z": 0.4199496996,
				"element": "C" 
			},
			{
				"x": -1.9156455806,
				"y": -1.332796338,
				"z": -0.8805701564,
				"element": "C" 
			},
			{
				"x": -1.1260458516,
				"y": -0.6706269537,
				"z": -1.8214720406,
				"element": "C" 
			},
			{
				"x": -1.0603294925,
				"y": -1.2683314068,
				"z": -3.469090358,
				"element": "Cl" 
			},
			{
				"x": -0.3955911763,
				"y": 0.4532129624,
				"z": -1.4673647469,
				"element": "C" 
			},
			{
				"x": 0.098435423,
				"y": 3.1152548977,
				"z": 1.9645563809,
				"element": "H" 
			},
			{
				"x": 1.7344632946,
				"y": 3.3275027414,
				"z": 1.298117266,
				"element": "H" 
			},
			{
				"x": 1.2375480817,
				"y": 1.777437179,
				"z": 2.0513330116,
				"element": "H" 
			},
			{
				"x": -2.5818257456,
				"y": -1.3328363293,
				"z": 1.1630929497,
				"element": "H" 
			},
			{
				"x": -2.4869185801,
				"y": -2.2110277651,
				"z": -1.1596974136,
				"element": "H" 
			},
			{
				"x": 0.2094818838,
				"y": 0.9806869801,
				"z": -2.1949629597,
				"element": "H" 
			}
		],
		 "valence_orbital": [ 
			{
				"type": "occ",
				"energy": -0.32576,
				"method": "rhf"
			},
			{
				"type": "occ",
				"energy": -0.32316,
				"method": "rhf"
			},
			{
				"type": "occ",
				"energy": -0.28339,
				"method": "rhf"
			},
			{
				"type": "occ",
				"energy": -0.26379,
				"method": "rhf"
			},
			{
				"type": "occ",
				"energy": -0.25651,
				"method": "rhf"
			},
			{
				"type": "unocc",
				"energy": -0.0726,
				"method": "rhf"
			},
			{
				"type": "unocc",
				"energy": -0.03305,
				"method": "rhf"
			},
			{
				"type": "unocc",
				"energy": 0.00568,
				"method": "rhf"
			},
			{
				"type": "unocc",
				"energy": 0.01691,
				"method": "rhf"
			},
			{
				"type": "unocc",
				"energy": 0.02608,
				"method": "rhf"
			}
		],
		"cosmo_sigma_profile": { 
			"-0.025": 0.0,
			"-0.024": 0.0,
			"-0.023": 0.0,
			"-0.022": 0.0,
			"-0.021": 0.0,
			"-0.02": 0.0,
			"-0.019": 0.0,
			"-0.018": 0.0,
			"-0.017": 0.0,
			"-0.016": 0.0,
			"-0.015": 0.0,
			"-0.014": 0.0,
			"-0.013": 0.0,
			"-0.012": 0.0,
			"-0.011": 0.0,
			"-0.01": 0.0,
			"-0.009": 0.786210703697,
			"-0.008": 3.98641175594,
			"-0.007": 4.44954784832,
			"-0.006": 7.88242457873,
			"-0.005": 11.0215332866,
			"-0.004": 10.9318452919,
			"-0.003": 14.0188532075,
			"-0.002": 17.7706976723,
			"-0.001": 20.3816552374,
			"0.0": 25.5141794579,
			"0.001": 26.096810193,
			"0.002": 12.0796879441,
			"0.003": 14.6081177551,
			"0.004": 15.4199041688,
			"0.005": 3.55297467886,
			"0.006": 1.01627016671,
			"0.007": 1.97585135098,
			"0.008": 1.73927144171,
			"0.009": 1.47202419133,
			"0.01": 2.89348935409,
			"0.011": 3.25486299328,
			"0.012": 2.04113164945,
			"0.013": 0.227074342293,
			"0.014": 0.0,
			"0.015": 0.0,
			"0.016": 0.0,
			"0.017": 0.0,
			"0.018": 0.0,
			"0.019": 0.0,
			"0.02": 0.0,
			"0.021": 0.0,
			"0.022": 0.0,
			"0.023": 0.0,
			"0.024": 0.0,
			"0.025": 0.0
		}
	}
}
