{
	 "smiles": "OC(=O)C1CN(C(=O)C1)C1=CNN=C1", 
	 "Tm": 533.15, 
	 "num_atms": 23, 
	 "gaussian": { 
		 "optdone": 1, 
		 "sigma_profile": "yes", 
		 "theory": "DFT", 
		 "functional": "B3LYP", 
		 "basiset": "6-31G**", 
		 "properties": { 
			 "R2extent": 3055.7013, 
			 "electric_dipole_moment_norm": 4.28466558905, 
			 "electric_quadrupole_moment_norm": 22.1273901179, 
			 "total_energy": -700.192200176, 
			 "HOMO_LUMO_gap": 0.20628, 
			 "cosmo_polarized_energy": -27.26, 
			 "cosmo_cavitation_energy": 27.26, 
			 "cosmo_dispersion_energy": -20.05, 
			 "cosmo_repulsion_energy": 1.58, 
			 "cosmo_total_nonelectrostatic_energy": 8.78, 
			 "SMD_solvation_energy": 5.32 
		},
		"coords": [
			{
				"x": -0.6837901935,
				"y": -1.3564931508,
				"z": 3.1101912484,
				"element": "O" 
			},
			{
				"x": 0.402869572,
				"y": -1.1464946333,
				"z": 2.3186357828,
				"element": "C" 
			},
			{
				"x": 1.151744806,
				"y": -2.0557031513,
				"z": 2.0718018535,
				"element": "O" 
			},
			{
				"x": 0.5631585832,
				"y": 0.2899646559,
				"z": 1.8025436725,
				"element": "C" 
			},
			{
				"x": -0.6014516219,
				"y": 0.6837450927,
				"z": 0.8407878753,
				"element": "C" 
			},
			{
				"x": -0.0106688244,
				"y": 0.5996655352,
				"z": -0.4852966338,
				"element": "N" 
			},
			{
				"x": 1.367663921,
				"y": 0.5107802258,
				"z": -0.4871081228,
				"element": "C" 
			},
			{
				"x": 2.0706098971,
				"y": 0.4974329816,
				"z": -1.483564494,
				"element": "O" 
			},
			{
				"x": 1.8364077004,
				"y": 0.4568884096,
				"z": 0.9618530724,
				"element": "C" 
			},
			{
				"x": -0.7904924799,
				"y": 0.7502326313,
				"z": -1.6396246646,
				"element": "C" 
			},
			{
				"x": -0.3709889538,
				"y": 0.7328066413,
				"z": -2.96284731,
				"element": "C" 
			},
			{
				"x": -1.5002011315,
				"y": 0.9172694824,
				"z": -3.6971050401,
				"element": "N" 
			},
			{
				"x": -2.6168885194,
				"y": 1.0542982816,
				"z": -2.9606247843,
				"element": "N" 
			},
			{
				"x": -2.1925496831,
				"y": 0.9537131674,
				"z": -1.7010571379,
				"element": "C" 
			},
			{
				"x": -1.1657454527,
				"y": -0.5308424295,
				"z": 3.2603064588,
				"element": "H" 
			},
			{
				"x": 0.5580984613,
				"y": 0.9520293765,
				"z": 2.6762031768,
				"element": "H" 
			},
			{
				"x": -1.4588481811,
				"y": 0.0049487232,
				"z": 0.9215378915,
				"element": "H" 
			},
			{
				"x": -0.9629048485,
				"y": 1.7018432413,
				"z": 1.0420994589,
				"element": "H" 
			},
			{
				"x": 2.5248084639,
				"y": -0.3791049045,
				"z": 1.0988207129,
				"element": "H" 
			},
			{
				"x": 2.3702596513,
				"y": 1.3842457669,
				"z": 1.1925529671,
				"element": "H" 
			},
			{
				"x": 0.6100488492,
				"y": 0.6078809722,
				"z": -3.3874438014,
				"element": "H" 
			},
			{
				"x": -1.5706312381,
				"y": 0.9570411508,
				"z": -4.7017993109,
				"element": "H" 
			},
			{
				"x": -2.9020087774,
				"y": 1.0320519336,
				"z": -0.8889628709,
				"element": "H" 
			}
		],
		 "valence_orbital": [ 
			{
				"type": "occ",
				"energy": -0.29457,
				"method": "rhf"
			},
			{
				"type": "occ",
				"energy": -0.28675,
				"method": "rhf"
			},
			{
				"type": "occ",
				"energy": -0.2605,
				"method": "rhf"
			},
			{
				"type": "occ",
				"energy": -0.25894,
				"method": "rhf"
			},
			{
				"type": "occ",
				"energy": -0.21786,
				"method": "rhf"
			},
			{
				"type": "unocc",
				"energy": -0.01158,
				"method": "rhf"
			},
			{
				"type": "unocc",
				"energy": 0.00586,
				"method": "rhf"
			},
			{
				"type": "unocc",
				"energy": 0.01927,
				"method": "rhf"
			},
			{
				"type": "unocc",
				"energy": 0.03525,
				"method": "rhf"
			},
			{
				"type": "unocc",
				"energy": 0.07404,
				"method": "rhf"
			}
		],
		"cosmo_sigma_profile": { 
			"-0.025": 0.0,
			"-0.024": 0.0,
			"-0.023": 0.0,
			"-0.022": 0.0,
			"-0.021": 0.0,
			"-0.02": 0.093795270869,
			"-0.019": 0.94741576911,
			"-0.018": 1.5246383124,
			"-0.017": 1.75914360763,
			"-0.016": 2.55204407001,
			"-0.015": 2.46228953313,
			"-0.014": 3.34488607438,
			"-0.013": 1.04505863079,
			"-0.012": 1.7521537148,
			"-0.011": 2.92996397229,
			"-0.01": 2.1521582956,
			"-0.009": 3.12139801939,
			"-0.008": 7.28415763535,
			"-0.007": 14.3148299555,
			"-0.006": 16.5938654168,
			"-0.005": 10.454644723,
			"-0.004": 8.64382540449,
			"-0.003": 8.7711896827,
			"-0.002": 9.33626452391,
			"-0.001": 6.59918584007,
			"0.0": 7.14799337399,
			"0.001": 7.05097337674,
			"0.002": 8.35119305259,
			"0.003": 11.2872994789,
			"0.004": 12.8363256367,
			"0.005": 6.9640784027,
			"0.006": 6.22581462284,
			"0.007": 6.47215221655,
			"0.008": 4.86103894493,
			"0.009": 6.42259773052,
			"0.01": 8.91551466816,
			"0.011": 8.50220853647,
			"0.012": 6.49699683728,
			"0.013": 4.8475385149,
			"0.014": 2.48427057892,
			"0.015": 1.4954614279,
			"0.016": 0.460065447684,
			"0.017": 0.0,
			"0.018": 0.0,
			"0.019": 0.0,
			"0.02": 0.0,
			"0.021": 0.0,
			"0.022": 0.0,
			"0.023": 0.0,
			"0.024": 0.0,
			"0.025": 0.0
		}
	}
}
