{
	 "smiles": "OC(=O)CS(=O)C1=CC=C(C=C1)[N+]([O-])=O", 
	 "Tm": 452.15, 
	 "num_atms": 22, 
	 "gaussian": { 
		 "optdone": 1, 
		 "sigma_profile": "yes", 
		 "theory": "DFT", 
		 "functional": "B3LYP", 
		 "basiset": "6-31G**", 
		 "properties": { 
			 "R2extent": 4891.5936, 
			 "electric_dipole_moment_norm": 4.9352845926, 
			 "electric_quadrupole_moment_norm": 14.3767960513, 
			 "total_energy": -1137.98176016, 
			 "HOMO_LUMO_gap": 0.14972, 
			 "cosmo_polarized_energy": -18.71, 
			 "cosmo_cavitation_energy": 29.4, 
			 "cosmo_dispersion_energy": -21.7, 
			 "cosmo_repulsion_energy": 1.66, 
			 "cosmo_total_nonelectrostatic_energy": 9.35, 
			 "SMD_solvation_energy": 7.96 
		},
		"coords": [
			{
				"x": -3.4864073697,
				"y": -2.491980511,
				"z": -0.5153593664,
				"element": "O" 
			},
			{
				"x": -2.6158962715,
				"y": -1.8634825184,
				"z": -1.3280882091,
				"element": "C" 
			},
			{
				"x": -1.6727583632,
				"y": -2.4186666009,
				"z": -1.8503900737,
				"element": "O" 
			},
			{
				"x": -2.9823001471,
				"y": -0.4093340526,
				"z": -1.4983206119,
				"element": "C" 
			},
			{
				"x": -1.9130017225,
				"y": 0.4806884472,
				"z": -2.7354944472,
				"element": "S" 
			},
			{
				"x": -2.5932104905,
				"y": 1.8172113474,
				"z": -2.9215587333,
				"element": "O" 
			},
			{
				"x": -0.4787230588,
				"y": 0.7901502099,
				"z": -1.63549955,
				"element": "C" 
			},
			{
				"x": -0.3551708924,
				"y": 2.0814789995,
				"z": -1.1218584673,
				"element": "C" 
			},
			{
				"x": 0.7469938801,
				"y": 2.4000278669,
				"z": -0.3318477189,
				"element": "C" 
			},
			{
				"x": 1.702408896,
				"y": 1.4137525941,
				"z": -0.093077104,
				"element": "C" 
			},
			{
				"x": 1.5984289015,
				"y": 0.1269722904,
				"z": -0.6202749131,
				"element": "C" 
			},
			{
				"x": 0.4949920131,
				"y": -0.187854872,
				"z": -1.4103854044,
				"element": "C" 
			},
			{
				"x": 2.8717239505,
				"y": 1.7452373724,
				"z": 0.741462919,
				"element": "N" 
			},
			{
				"x": 3.7000027312,
				"y": 0.8575650717,
				"z": 0.9389865137,
				"element": "O" 
			},
			{
				"x": 2.9447959891,
				"y": 2.8879229526,
				"z": 1.190238552,
				"element": "O" 
			},
			{
				"x": -3.1950996793,
				"y": -3.4185200054,
				"z": -0.4536569619,
				"element": "H" 
			},
			{
				"x": -2.9582423548,
				"y": 0.1237934868,
				"z": -0.5439224676,
				"element": "H" 
			},
			{
				"x": -3.995211151,
				"y": -0.3204177475,
				"z": -1.9034342902,
				"element": "H" 
			},
			{
				"x": -1.1182101266,
				"y": 2.8161557701,
				"z": -1.3612037461,
				"element": "H" 
			},
			{
				"x": 0.8811269564,
				"y": 3.3870746493,
				"z": 0.0928395771,
				"element": "H" 
			},
			{
				"x": 2.3750204442,
				"y": -0.5982397535,
				"z": -0.4121501392,
				"element": "H" 
			},
			{
				"x": 0.3849378653,
				"y": -1.1802349969,
				"z": -1.8327053578,
				"element": "H" 
			}
		],
		 "valence_orbital": [ 
			{
				"type": "occ",
				"energy": -0.29777,
				"method": "rhf"
			},
			{
				"type": "occ",
				"energy": -0.29681,
				"method": "rhf"
			},
			{
				"type": "occ",
				"energy": -0.29128,
				"method": "rhf"
			},
			{
				"type": "occ",
				"energy": -0.28611,
				"method": "rhf"
			},
			{
				"type": "occ",
				"energy": -0.24876,
				"method": "rhf"
			},
			{
				"type": "unocc",
				"energy": -0.09904,
				"method": "rhf"
			},
			{
				"type": "unocc",
				"energy": -0.03889,
				"method": "rhf"
			},
			{
				"type": "unocc",
				"energy": -0.02728,
				"method": "rhf"
			},
			{
				"type": "unocc",
				"energy": -0.0225,
				"method": "rhf"
			},
			{
				"type": "unocc",
				"energy": 0.01882,
				"method": "rhf"
			}
		],
		"cosmo_sigma_profile": { 
			"-0.025": 0.0,
			"-0.024": 0.0,
			"-0.023": 0.0,
			"-0.022": 0.0,
			"-0.021": 0.0,
			"-0.02": 0.0,
			"-0.019": 0.687294100907,
			"-0.018": 1.09507450397,
			"-0.017": 1.09923504514,
			"-0.016": 0.280449576401,
			"-0.015": 0.798659126982,
			"-0.014": 0.838895409157,
			"-0.013": 1.13180736722,
			"-0.012": 0.306337860926,
			"-0.011": 1.15504383766,
			"-0.01": 4.5978214394,
			"-0.009": 4.97825827854,
			"-0.008": 6.57624834364,
			"-0.007": 12.0176108426,
			"-0.006": 11.5635990154,
			"-0.005": 10.8763103774,
			"-0.004": 13.3822685781,
			"-0.003": 14.75758111,
			"-0.002": 15.2319786464,
			"-0.001": 16.4180656998,
			"0.0": 21.3320107039,
			"0.001": 13.473105892,
			"0.002": 8.81803376868,
			"0.003": 6.62922555029,
			"0.004": 5.63116277864,
			"0.005": 6.91129669211,
			"0.006": 7.80450812597,
			"0.007": 13.1961379251,
			"0.008": 9.66490058857,
			"0.009": 7.81686836724,
			"0.01": 5.47710061974,
			"0.011": 2.51141359695,
			"0.012": 1.84829713618,
			"0.013": 4.2742620103,
			"0.014": 2.98019888756,
			"0.015": 0.609222043111,
			"0.016": 0.0,
			"0.017": 0.0,
			"0.018": 0.0,
			"0.019": 0.0,
			"0.02": 0.0,
			"0.021": 0.0,
			"0.022": 0.0,
			"0.023": 0.0,
			"0.024": 0.0,
			"0.025": 0.0
		}
	}
}
