{
	 "smiles": "OC(=O)C(F)(F)C(F)(F)C(F)(F)C(F)(F)C(F)(F)C(F)(F)C(F)(F)C(F)(F)C(F)(F)C(F)(F)C(F)(F)C(F)(F)F", 
	 "Tm": 393.15, 
	 "num_atms": 41, 
	 "gaussian": { 
		 "optdone": 1, 
		 "sigma_profile": "yes", 
		 "theory": "DFT", 
		 "functional": "B3LYP", 
		 "basiset": "6-31G**", 
		 "properties": { 
			 "R2extent": 23566.2409, 
			 "electric_dipole_moment_norm": 2.83522752173, 
			 "electric_quadrupole_moment_norm": 21.5750396688, 
			 "total_energy": -3142.32067739, 
			 "HOMO_LUMO_gap": 0.2629, 
			 "cosmo_polarized_energy": -9.66, 
			 "cosmo_cavitation_energy": 53.05, 
			 "cosmo_dispersion_energy": -34.08, 
			 "cosmo_repulsion_energy": 2.09, 
			 "cosmo_total_nonelectrostatic_energy": 21.07, 
			 "SMD_solvation_energy": 17.3 
		},
		"coords": [
			{
				"x": -4.4209369141,
				"y": -1.8075731038,
				"z": -5.2820493626,
				"element": "O" 
			},
			{
				"x": -4.3422294898,
				"y": -2.7492008286,
				"z": -4.3347101645,
				"element": "C" 
			},
			{
				"x": -5.0201199773,
				"y": -3.737749183,
				"z": -4.304792671,
				"element": "O" 
			},
			{
				"x": -3.285752023,
				"y": -2.4736420117,
				"z": -3.2254587744,
				"element": "C" 
			},
			{
				"x": -3.8928015938,
				"y": -2.5063880159,
				"z": -2.02233881,
				"element": "F" 
			},
			{
				"x": -2.7432061516,
				"y": -1.2233127024,
				"z": -3.407808685,
				"element": "F" 
			},
			{
				"x": -2.1391929202,
				"y": -3.5118924873,
				"z": -3.2588556322,
				"element": "C" 
			},
			{
				"x": -2.6169595448,
				"y": -4.7026296929,
				"z": -2.8586669641,
				"element": "F" 
			},
			{
				"x": -1.7405100205,
				"y": -3.6061257917,
				"z": -4.5574866054,
				"element": "F" 
			},
			{
				"x": -0.8425447046,
				"y": -3.1912826527,
				"z": -2.4450119063,
				"element": "C" 
			},
			{
				"x": -0.2382094364,
				"y": -2.1283113798,
				"z": -3.0211736749,
				"element": "F" 
			},
			{
				"x": -0.0450041399,
				"y": -4.2754835673,
				"z": -2.5769151379,
				"element": "F" 
			},
			{
				"x": -1.0480366819,
				"y": -2.8930445729,
				"z": -0.9342475643,
				"element": "C" 
			},
			{
				"x": -1.9221298566,
				"y": -3.7998557595,
				"z": -0.4386885904,
				"element": "F" 
			},
			{
				"x": -1.5870749459,
				"y": -1.6560791565,
				"z": -0.8177006122,
				"element": "F" 
			},
			{
				"x": 0.203944277,
				"y": -2.9765680025,
				"z": -0.0055992818,
				"element": "C" 
			},
			{
				"x": 0.6490869212,
				"y": -4.2526897973,
				"z": -0.0336011601,
				"element": "F" 
			},
			{
				"x": -0.2318343618,
				"y": -2.7051394303,
				"z": 1.2469565316,
				"element": "F" 
			},
			{
				"x": 1.449176364,
				"y": -2.0858819571,
				"z": -0.2846245164,
				"element": "C" 
			},
			{
				"x": 1.9463366631,
				"y": -2.4531314893,
				"z": -1.4911546011,
				"element": "F" 
			},
			{
				"x": 2.3515008974,
				"y": -2.4040554561,
				"z": 0.6704032808,
				"element": "F" 
			},
			{
				"x": 1.3492146768,
				"y": -0.5256507895,
				"z": -0.323797587,
				"element": "C" 
			},
			{
				"x": 0.5742422187,
				"y": -0.1594564446,
				"z": -1.3676744593,
				"element": "F" 
			},
			{
				"x": 2.6199524826,
				"y": -0.1101969774,
				"z": -0.555557353,
				"element": "F" 
			},
			{
				"x": 0.8378490753,
				"y": 0.1965483035,
				"z": 0.9488057224,
				"element": "C" 
			},
			{
				"x": -0.4688011619,
				"y": -0.1203251513,
				"z": 1.1153090768,
				"element": "F" 
			},
			{
				"x": 1.5364134059,
				"y": -0.2340044468,
				"z": 2.0195140276,
				"element": "F" 
			},
			{
				"x": 0.8695280983,
				"y": 1.7629242661,
				"z": 0.9254819664,
				"element": "C" 
			},
			{
				"x": 0.0581407689,
				"y": 2.1849658759,
				"z": -0.0670447394,
				"element": "F" 
			},
			{
				"x": 0.3434810826,
				"y": 2.1385243184,
				"z": 2.1176029459,
				"element": "F" 
			},
			{
				"x": 2.250171536,
				"y": 2.4671087212,
				"z": 0.7621730048,
				"element": "C" 
			},
			{
				"x": 3.1996980746,
				"y": 1.7673384642,
				"z": 1.4209775746,
				"element": "F" 
			},
			{
				"x": 2.5552041909,
				"y": 2.5056000145,
				"z": -0.5567864412,
				"element": "F" 
			},
			{
				"x": 2.2602896186,
				"y": 3.9250260191,
				"z": 1.3058948807,
				"element": "C" 
			},
			{
				"x": 2.31169087,
				"y": 3.8848991424,
				"z": 2.6536666824,
				"element": "F" 
			},
			{
				"x": 1.1264324595,
				"y": 4.5531235363,
				"z": 0.9152917139,
				"element": "F" 
			},
			{
				"x": 3.4617240402,
				"y": 4.7753432505,
				"z": 0.81154529,
				"element": "C" 
			},
			{
				"x": 4.6098520585,
				"y": 4.1083535345,
				"z": 0.9907703684,
				"element": "F" 
			},
			{
				"x": 3.3246271523,
				"y": 5.0758004216,
				"z": -0.4834624213,
				"element": "F" 
			},
			{
				"x": 3.5053510803,
				"y": 5.9115028564,
				"z": 1.5162683387,
				"element": "F" 
			},
			{
				"x": -3.7911640886,
				"y": -1.0934878767,
				"z": -5.0916536892,
				"element": "H" 
			}
		],
		 "valence_orbital": [ 
			{
				"type": "occ",
				"energy": -0.37397,
				"method": "rhf"
			},
			{
				"type": "occ",
				"energy": -0.36155,
				"method": "rhf"
			},
			{
				"type": "occ",
				"energy": -0.35271,
				"method": "rhf"
			},
			{
				"type": "occ",
				"energy": -0.35204,
				"method": "rhf"
			},
			{
				"type": "occ",
				"energy": -0.30881,
				"method": "rhf"
			},
			{
				"type": "unocc",
				"energy": -0.04591,
				"method": "rhf"
			},
			{
				"type": "unocc",
				"energy": -0.00424,
				"method": "rhf"
			},
			{
				"type": "unocc",
				"energy": 0.00124,
				"method": "rhf"
			},
			{
				"type": "unocc",
				"energy": 0.01177,
				"method": "rhf"
			},
			{
				"type": "unocc",
				"energy": 0.01492,
				"method": "rhf"
			}
		],
		"cosmo_sigma_profile": { 
			"-0.025": 0.0,
			"-0.024": 0.0,
			"-0.023": 0.0,
			"-0.022": 0.0,
			"-0.021": 0.0,
			"-0.02": 0.0,
			"-0.019": 0.499764781613,
			"-0.018": 1.07481767879,
			"-0.017": 0.902055988669,
			"-0.016": 0.335306530322,
			"-0.015": 1.08999657578,
			"-0.014": 1.61053125644,
			"-0.013": 1.23922038874,
			"-0.012": 0.991674372396,
			"-0.011": 1.36303685093,
			"-0.01": 1.16742109218,
			"-0.009": 1.54329693615,
			"-0.008": 1.836823454,
			"-0.007": 1.85470369614,
			"-0.006": 1.3912521136,
			"-0.005": 2.18853082514,
			"-0.004": 5.33928042856,
			"-0.003": 9.94047141345,
			"-0.002": 25.764839157,
			"-0.001": 46.6843419417,
			"0.0": 132.83266545,
			"0.001": 150.230763543,
			"0.002": 7.93668281844,
			"0.003": 2.74317543274,
			"0.004": 2.97006599144,
			"0.005": 3.43581124852,
			"0.006": 4.40553104984,
			"0.007": 3.83898224804,
			"0.008": 4.32489055501,
			"0.009": 4.76743484305,
			"0.01": 2.29790816193,
			"0.011": 0.17805798241,
			"0.012": 0.0,
			"0.013": 0.0,
			"0.014": 0.0,
			"0.015": 0.0,
			"0.016": 0.0,
			"0.017": 0.0,
			"0.018": 0.0,
			"0.019": 0.0,
			"0.02": 0.0,
			"0.021": 0.0,
			"0.022": 0.0,
			"0.023": 0.0,
			"0.024": 0.0,
			"0.025": 0.0
		}
	}
}
