{
	 "smiles": "COC1=C(OCC(O)COC(N)=O)C=CC=C1", 
	 "Tm": 366.15, 
	 "num_atms": 32, 
	 "gaussian": { 
		 "optdone": 1, 
		 "sigma_profile": "yes", 
		 "theory": "DFT", 
		 "functional": "B3LYP", 
		 "basiset": "6-31G**", 
		 "properties": { 
			 "R2extent": 5491.3681, 
			 "electric_dipole_moment_norm": 3.57119127883, 
			 "electric_quadrupole_moment_norm": 18.1984378406, 
			 "total_energy": -859.067357066, 
			 "HOMO_LUMO_gap": 0.23025, 
			 "cosmo_polarized_energy": -16.78, 
			 "cosmo_cavitation_energy": 36.44, 
			 "cosmo_dispersion_energy": -24.79, 
			 "cosmo_repulsion_energy": 1.99, 
			 "cosmo_total_nonelectrostatic_energy": 13.64, 
			 "SMD_solvation_energy": 8.15 
		},
		"coords": [
			{
				"x": -0.965483451,
				"y": 1.6500737092,
				"z": -2.4351009887,
				"element": "C" 
			},
			{
				"x": -0.6283228417,
				"y": 0.2657857364,
				"z": -2.2825039277,
				"element": "O" 
			},
			{
				"x": -1.5833361028,
				"y": -0.4928500251,
				"z": -1.6414941393,
				"element": "C" 
			},
			{
				"x": -1.8164842431,
				"y": -0.3597771997,
				"z": -0.2598782552,
				"element": "C" 
			},
			{
				"x": -1.1347392545,
				"y": 0.5801078166,
				"z": 0.4870664398,
				"element": "O" 
			},
			{
				"x": 0.2604258583,
				"y": 0.2930431985,
				"z": 0.7182167874,
				"element": "C" 
			},
			{
				"x": 0.7731218939,
				"y": 1.4171056871,
				"z": 1.6095531779,
				"element": "C" 
			},
			{
				"x": 0.0207546838,
				"y": 1.4810117512,
				"z": 2.8113205949,
				"element": "O" 
			},
			{
				"x": 2.2229422323,
				"y": 1.2036831388,
				"z": 2.0413642076,
				"element": "C" 
			},
			{
				"x": 3.1008751815,
				"y": 1.0818365191,
				"z": 0.9096735337,
				"element": "O" 
			},
			{
				"x": 3.5985212198,
				"y": 2.2523306739,
				"z": 0.4133572557,
				"element": "C" 
			},
			{
				"x": 4.45545461,
				"y": 1.9872524419,
				"z": -0.6142070208,
				"element": "N" 
			},
			{
				"x": 3.3335249355,
				"y": 3.3585956056,
				"z": 0.8411363396,
				"element": "O" 
			},
			{
				"x": -2.7759092583,
				"y": -1.1588316071,
				"z": 0.3619625181,
				"element": "C" 
			},
			{
				"x": -3.4972996027,
				"y": -2.0988974252,
				"z": -0.3764054013,
				"element": "C" 
			},
			{
				"x": -3.2504951329,
				"y": -2.2488239778,
				"z": -1.7417682469,
				"element": "C" 
			},
			{
				"x": -2.2989938457,
				"y": -1.443660855,
				"z": -2.3707211204,
				"element": "C" 
			},
			{
				"x": -1.8728569946,
				"y": 1.7638807882,
				"z": -3.0414440733,
				"element": "H" 
			},
			{
				"x": -0.1247544115,
				"y": 2.1148942121,
				"z": -2.9540986633,
				"element": "H" 
			},
			{
				"x": -1.1127168345,
				"y": 2.1344378379,
				"z": -1.4648365322,
				"element": "H" 
			},
			{
				"x": 0.8040161541,
				"y": 0.2490012548,
				"z": -0.2296864734,
				"element": "H" 
			},
			{
				"x": 0.3484180722,
				"y": -0.6722639462,
				"z": 1.2354538804,
				"element": "H" 
			},
			{
				"x": 0.7085572658,
				"y": 2.3658546642,
				"z": 1.0547317571,
				"element": "H" 
			},
			{
				"x": -0.908735854,
				"y": 1.4465528516,
				"z": 2.5444055907,
				"element": "H" 
			},
			{
				"x": 2.3176725718,
				"y": 0.2647532886,
				"z": 2.5925880468,
				"element": "H" 
			},
			{
				"x": 2.5359764137,
				"y": 2.0363679053,
				"z": 2.6735187982,
				"element": "H" 
			},
			{
				"x": 4.5051564242,
				"y": 1.0593681378,
				"z": -1.0019410571,
				"element": "H" 
			},
			{
				"x": 4.7727064118,
				"y": 2.7696947133,
				"z": -1.1612957396,
				"element": "H" 
			},
			{
				"x": -2.9408289597,
				"y": -1.0305715293,
				"z": 1.4274103585,
				"element": "H" 
			},
			{
				"x": -4.2409151263,
				"y": -2.7168875226,
				"z": 0.1175276046,
				"element": "H" 
			},
			{
				"x": -3.8019209753,
				"y": -2.9838745584,
				"z": -2.3202486052,
				"element": "H" 
			},
			{
				"x": -2.0929310402,
				"y": -1.5346932856,
				"z": -3.4326566466,
				"element": "H" 
			}
		],
		 "valence_orbital": [ 
			{
				"type": "occ",
				"energy": -0.27225,
				"method": "rhf"
			},
			{
				"type": "occ",
				"energy": -0.26993,
				"method": "rhf"
			},
			{
				"type": "occ",
				"energy": -0.26583,
				"method": "rhf"
			},
			{
				"type": "occ",
				"energy": -0.24909,
				"method": "rhf"
			},
			{
				"type": "occ",
				"energy": -0.23464,
				"method": "rhf"
			},
			{
				"type": "unocc",
				"energy": -0.00439,
				"method": "rhf"
			},
			{
				"type": "unocc",
				"energy": -0.00147,
				"method": "rhf"
			},
			{
				"type": "unocc",
				"energy": 0.05321,
				"method": "rhf"
			},
			{
				"type": "unocc",
				"energy": 0.06925,
				"method": "rhf"
			},
			{
				"type": "unocc",
				"energy": 0.07946,
				"method": "rhf"
			}
		],
		"cosmo_sigma_profile": { 
			"-0.025": 0.0,
			"-0.024": 0.0,
			"-0.023": 0.0,
			"-0.022": 0.0,
			"-0.021": 0.0,
			"-0.02": 0.0,
			"-0.019": 0.0,
			"-0.018": 0.0,
			"-0.017": 0.0,
			"-0.016": 0.0,
			"-0.015": 0.496020925299,
			"-0.014": 2.47956867117,
			"-0.013": 2.4347435418,
			"-0.012": 2.79937090021,
			"-0.011": 1.62496550372,
			"-0.01": 3.13739102681,
			"-0.009": 2.53394897488,
			"-0.008": 2.31131843041,
			"-0.007": 2.49452750644,
			"-0.006": 11.3482416108,
			"-0.005": 19.7115282327,
			"-0.004": 21.7628627441,
			"-0.003": 28.3198420544,
			"-0.002": 26.2199316333,
			"-0.001": 21.9866849512,
			"0.0": 19.6692249684,
			"0.001": 14.7868964693,
			"0.002": 14.4406366848,
			"0.003": 16.2519774919,
			"0.004": 16.7186048821,
			"0.005": 14.3698927336,
			"0.006": 6.66987817598,
			"0.007": 5.34826300796,
			"0.008": 5.35800299461,
			"0.009": 3.04542103681,
			"0.01": 3.25352868406,
			"0.011": 4.26229752396,
			"0.012": 4.66403430077,
			"0.013": 7.05807855557,
			"0.014": 1.47618630105,
			"0.015": 0.0,
			"0.016": 0.0,
			"0.017": 0.0,
			"0.018": 0.0,
			"0.019": 0.0,
			"0.02": 0.0,
			"0.021": 0.0,
			"0.022": 0.0,
			"0.023": 0.0,
			"0.024": 0.0,
			"0.025": 0.0
		}
	}
}
