{
	 "smiles": "CC1=C(C)C2=C(C=CC=N2)C(N)=C1", 
	 "Tm": 398.15, 
	 "num_atms": 25, 
	 "gaussian": { 
		 "optdone": 1, 
		 "sigma_profile": "yes", 
		 "theory": "DFT", 
		 "functional": "B3LYP", 
		 "basiset": "6-31G**", 
		 "properties": { 
			 "R2extent": 2612.4341, 
			 "electric_dipole_moment_norm": 2.95492296685, 
			 "electric_quadrupole_moment_norm": 10.3284303222, 
			 "total_energy": -535.92675386, 
			 "HOMO_LUMO_gap": 0.1502, 
			 "cosmo_polarized_energy": -10.82, 
			 "cosmo_cavitation_energy": 27.36, 
			 "cosmo_dispersion_energy": -20.49, 
			 "cosmo_repulsion_energy": 1.59, 
			 "cosmo_total_nonelectrostatic_energy": 8.46, 
			 "SMD_solvation_energy": 3.55 
		},
		"coords": [
			{
				"x": -3.4347996321,
				"y": -0.3680659627,
				"z": 0.7319764429,
				"element": "C" 
			},
			{
				"x": -2.0433830867,
				"y": 0.2213336851,
				"z": 0.734264741,
				"element": "C" 
			},
			{
				"x": -1.1701293948,
				"y": -0.0216053171,
				"z": -0.320810567,
				"element": "C" 
			},
			{
				"x": -1.5786142846,
				"y": -0.8719673813,
				"z": -1.4979210775,
				"element": "C" 
			},
			{
				"x": 0.1389597789,
				"y": 0.5523906257,
				"z": -0.2664690737,
				"element": "C" 
			},
			{
				"x": 0.5407784907,
				"y": 1.3545247054,
				"z": 0.855202262,
				"element": "C" 
			},
			{
				"x": 1.8720153419,
				"y": 1.837903822,
				"z": 0.8772133212,
				"element": "C" 
			},
			{
				"x": 2.7176608334,
				"y": 1.5684750996,
				"z": -0.173876078,
				"element": "C" 
			},
			{
				"x": 2.2177695181,
				"y": 0.8014217023,
				"z": -1.2514511318,
				"element": "C" 
			},
			{
				"x": 0.9981785853,
				"y": 0.3078319667,
				"z": -1.3016415031,
				"element": "N" 
			},
			{
				"x": -0.3985851222,
				"y": 1.6179214933,
				"z": 1.9008614772,
				"element": "C" 
			},
			{
				"x": -0.0182607515,
				"y": 2.3939536227,
				"z": 3.0060605783,
				"element": "N" 
			},
			{
				"x": -1.6534308662,
				"y": 1.0430008661,
				"z": 1.81892035,
				"element": "C" 
			},
			{
				"x": -4.0114795485,
				"y": -0.0357190551,
				"z": -0.139547867,
				"element": "H" 
			},
			{
				"x": -3.4056158847,
				"y": -1.4632603259,
				"z": 0.6878182685,
				"element": "H" 
			},
			{
				"x": -3.990458757,
				"y": -0.0841947952,
				"z": 1.6296096091,
				"element": "H" 
			},
			{
				"x": -1.8411563394,
				"y": -1.8905736217,
				"z": -1.1849648058,
				"element": "H" 
			},
			{
				"x": -0.7642179922,
				"y": -0.9326571263,
				"z": -2.2188881054,
				"element": "H" 
			},
			{
				"x": -2.4616049001,
				"y": -0.460734502,
				"z": -2.0032947818,
				"element": "H" 
			},
			{
				"x": 2.2314371433,
				"y": 2.3956879,
				"z": 1.7368721425,
				"element": "H" 
			},
			{
				"x": 3.7442692069,
				"y": 1.920485134,
				"z": -0.1814815459,
				"element": "H" 
			},
			{
				"x": 2.8633003421,
				"y": 0.5814563599,
				"z": -2.1020515211,
				"element": "H" 
			},
			{
				"x": -0.7960320615,
				"y": 2.6464124537,
				"z": 3.602311382,
				"element": "H" 
			},
			{
				"x": 0.5254929331,
				"y": 3.2156064391,
				"z": 2.774289668,
				"element": "H" 
			},
			{
				"x": -2.3737935523,
				"y": 1.2344722116,
				"z": 2.6118978154,
				"element": "H" 
			}
		],
		 "valence_orbital": [ 
			{
				"type": "occ",
				"energy": -0.29376,
				"method": "rhf"
			},
			{
				"type": "occ",
				"energy": -0.27373,
				"method": "rhf"
			},
			{
				"type": "occ",
				"energy": -0.24249,
				"method": "rhf"
			},
			{
				"type": "occ",
				"energy": -0.23783,
				"method": "rhf"
			},
			{
				"type": "occ",
				"energy": -0.19034,
				"method": "rhf"
			},
			{
				"type": "unocc",
				"energy": -0.04014,
				"method": "rhf"
			},
			{
				"type": "unocc",
				"energy": -0.00576,
				"method": "rhf"
			},
			{
				"type": "unocc",
				"energy": 0.0404,
				"method": "rhf"
			},
			{
				"type": "unocc",
				"energy": 0.07384,
				"method": "rhf"
			},
			{
				"type": "unocc",
				"energy": 0.09943,
				"method": "rhf"
			}
		],
		"cosmo_sigma_profile": { 
			"-0.025": 0.0,
			"-0.024": 0.0,
			"-0.023": 0.0,
			"-0.022": 0.0,
			"-0.021": 0.0,
			"-0.02": 0.0,
			"-0.019": 0.0,
			"-0.018": 0.0,
			"-0.017": 0.0,
			"-0.016": 0.0,
			"-0.015": 0.0,
			"-0.014": 0.0,
			"-0.013": 0.36225031481,
			"-0.012": 2.64471524968,
			"-0.011": 3.32393695197,
			"-0.01": 2.57768378416,
			"-0.009": 3.77519347446,
			"-0.008": 2.75638997918,
			"-0.007": 3.41639429565,
			"-0.006": 7.65740284844,
			"-0.005": 10.1183609393,
			"-0.004": 12.8185043571,
			"-0.003": 16.663826949,
			"-0.002": 16.5029770263,
			"-0.001": 15.0478402438,
			"0.0": 17.8231127999,
			"0.001": 17.0901812151,
			"0.002": 15.0160630007,
			"0.003": 19.1210596816,
			"0.004": 16.1509773338,
			"0.005": 12.1602606104,
			"0.006": 5.526510069,
			"0.007": 3.64145959232,
			"0.008": 2.09708408777,
			"0.009": 2.48019572299,
			"0.01": 2.12651695663,
			"0.011": 1.74662457303,
			"0.012": 2.18768995247,
			"0.013": 1.22406346029,
			"0.014": 0.457067873736,
			"0.015": 0.326888229359,
			"0.016": 0.0,
			"0.017": 0.0,
			"0.018": 0.0,
			"0.019": 0.0,
			"0.02": 0.0,
			"0.021": 0.0,
			"0.022": 0.0,
			"0.023": 0.0,
			"0.024": 0.0,
			"0.025": 0.0
		}
	}
}
