{
	 "smiles": "CNC1(CCCC1)C(N)=O", 
	 "Tm": 373.15, 
	 "num_atms": 24, 
	 "gaussian": { 
		 "optdone": 1, 
		 "sigma_profile": "yes", 
		 "theory": "DFT", 
		 "functional": "B3LYP", 
		 "basiset": "6-31G**", 
		 "properties": { 
			 "R2extent": 1817.8291, 
			 "electric_dipole_moment_norm": 3.25093859216, 
			 "electric_quadrupole_moment_norm": 14.801232575, 
			 "total_energy": -459.919486657, 
			 "HOMO_LUMO_gap": 0.23864, 
			 "cosmo_polarized_energy": -13.42, 
			 "cosmo_cavitation_energy": 24.72, 
			 "cosmo_dispersion_energy": -18.08, 
			 "cosmo_repulsion_energy": 1.48, 
			 "cosmo_total_nonelectrostatic_energy": 8.12, 
			 "SMD_solvation_energy": 3.52 
		},
		"coords": [
			{
				"x": -1.6730211997,
				"y": 2.0659996435,
				"z": 0.4143991254,
				"element": "C" 
			},
			{
				"x": -1.5959337849,
				"y": 0.6917796165,
				"z": 0.9178616171,
				"element": "N" 
			},
			{
				"x": -1.1745001765,
				"y": -0.3611404718,
				"z": -0.0321088378,
				"element": "C" 
			},
			{
				"x": -1.0402212754,
				"y": -1.6765605726,
				"z": 0.7696059692,
				"element": "C" 
			},
			{
				"x": 0.3024543676,
				"y": -1.5485770898,
				"z": 1.5305724854,
				"element": "C" 
			},
			{
				"x": 1.1301931704,
				"y": -0.4871147312,
				"z": 0.7478969784,
				"element": "C" 
			},
			{
				"x": 0.2796038546,
				"y": -0.1281869342,
				"z": -0.4859586849,
				"element": "C" 
			},
			{
				"x": -2.1438847252,
				"y": -0.4101161612,
				"z": -1.2288479642,
				"element": "C" 
			},
			{
				"x": -3.273858863,
				"y": -1.1739770944,
				"z": -1.0595094609,
				"element": "N" 
			},
			{
				"x": -1.9838638695,
				"y": 0.2812849413,
				"z": -2.2275798481,
				"element": "O" 
			},
			{
				"x": -0.6683766943,
				"y": 2.4497327933,
				"z": 0.2149972628,
				"element": "H" 
			},
			{
				"x": -2.108089555,
				"y": 2.6908801358,
				"z": 1.2003148436,
				"element": "H" 
			},
			{
				"x": -2.265856008,
				"y": 2.1893939173,
				"z": -0.5037270176,
				"element": "H" 
			},
			{
				"x": -2.5022784384,
				"y": 0.4298906137,
				"z": 1.2977155763,
				"element": "H" 
			},
			{
				"x": -1.8868155024,
				"y": -1.845782478,
				"z": 1.4471273167,
				"element": "H" 
			},
			{
				"x": -1.0043383875,
				"y": -2.5207923547,
				"z": 0.0700988074,
				"element": "H" 
			},
			{
				"x": 0.1286337664,
				"y": -1.2171214723,
				"z": 2.5570266132,
				"element": "H" 
			},
			{
				"x": 0.8139513199,
				"y": -2.5145251714,
				"z": 1.5863147509,
				"element": "H" 
			},
			{
				"x": 2.1192223497,
				"y": -0.8578465534,
				"z": 0.4616064269,
				"element": "H" 
			},
			{
				"x": 1.2849167658,
				"y": 0.3983896629,
				"z": 1.3699472807,
				"element": "H" 
			},
			{
				"x": 0.4887676555,
				"y": -0.8110785975,
				"z": -1.3168832748,
				"element": "H" 
			},
			{
				"x": 0.4513980286,
				"y": 0.8802595672,
				"z": -0.8655923583,
				"element": "H" 
			},
			{
				"x": -3.3224001547,
				"y": -1.8955901847,
				"z": -0.3584338954,
				"element": "H" 
			},
			{
				"x": -3.9013026442,
				"y": -1.2370010242,
				"z": -1.848243712,
				"element": "H" 
			}
		],
		 "valence_orbital": [ 
			{
				"type": "occ",
				"energy": -0.32546,
				"method": "rhf"
			},
			{
				"type": "occ",
				"energy": -0.31102,
				"method": "rhf"
			},
			{
				"type": "occ",
				"energy": -0.26551,
				"method": "rhf"
			},
			{
				"type": "occ",
				"energy": -0.25952,
				"method": "rhf"
			},
			{
				"type": "occ",
				"energy": -0.20971,
				"method": "rhf"
			},
			{
				"type": "unocc",
				"energy": 0.02893,
				"method": "rhf"
			},
			{
				"type": "unocc",
				"energy": 0.06298,
				"method": "rhf"
			},
			{
				"type": "unocc",
				"energy": 0.09444,
				"method": "rhf"
			},
			{
				"type": "unocc",
				"energy": 0.10192,
				"method": "rhf"
			},
			{
				"type": "unocc",
				"energy": 0.12047,
				"method": "rhf"
			}
		],
		"cosmo_sigma_profile": { 
			"-0.025": 0.0,
			"-0.024": 0.0,
			"-0.023": 0.0,
			"-0.022": 0.0,
			"-0.021": 0.0,
			"-0.02": 0.0,
			"-0.019": 0.0,
			"-0.018": 0.0,
			"-0.017": 0.0,
			"-0.016": 0.0,
			"-0.015": 0.0,
			"-0.014": 0.052481730669,
			"-0.013": 2.25614523531,
			"-0.012": 1.74658928986,
			"-0.011": 2.09779410083,
			"-0.01": 3.28388699089,
			"-0.009": 3.98632000641,
			"-0.008": 4.05086448885,
			"-0.007": 3.7547182675,
			"-0.006": 3.29145097349,
			"-0.005": 2.95804944531,
			"-0.004": 11.1211527735,
			"-0.003": 15.262599299,
			"-0.002": 19.1456480348,
			"-0.001": 25.0951576642,
			"0.0": 24.48718265,
			"0.001": 18.2071332437,
			"0.002": 10.2888568796,
			"0.003": 4.56758221144,
			"0.004": 2.77865033966,
			"0.005": 3.33162261923,
			"0.006": 3.5113677617,
			"0.007": 2.79458363338,
			"0.008": 2.63926392257,
			"0.009": 2.55084769127,
			"0.01": 2.10224501838,
			"0.011": 1.86423607368,
			"0.012": 2.29582815667,
			"0.013": 2.91048021438,
			"0.014": 5.61729809756,
			"0.015": 2.55669942106,
			"0.016": 0.0375846910307,
			"0.017": 0.0,
			"0.018": 0.0,
			"0.019": 0.0,
			"0.02": 0.0,
			"0.021": 0.0,
			"0.022": 0.0,
			"0.023": 0.0,
			"0.024": 0.0,
			"0.025": 0.0
		}
	}
}
