{
	 "smiles": "OCC(O)C(O)C(O)C(O)C(O)CO", 
	 "Tm": 461.15, 
	 "num_atms": 30, 
	 "gaussian": { 
		 "optdone": 1, 
		 "sigma_profile": "yes", 
		 "theory": "DFT", 
		 "functional": "B3LYP", 
		 "basiset": "6-31G**", 
		 "properties": { 
			 "R2extent": 4159.6816, 
			 "electric_dipole_moment_norm": 2.39503725858, 
			 "electric_quadrupole_moment_norm": 7.27462501714, 
			 "total_energy": -802.918621914, 
			 "HOMO_LUMO_gap": 0.29838, 
			 "cosmo_polarized_energy": -18.31, 
			 "cosmo_cavitation_energy": 29.82, 
			 "cosmo_dispersion_energy": -22.42, 
			 "cosmo_repulsion_energy": 1.77, 
			 "cosmo_total_nonelectrostatic_energy": 9.17, 
			 "SMD_solvation_energy": 4.47 
		},
		"coords": [
			{
				"x": -2.2387242681,
				"y": -0.3990172624,
				"z": -2.9342898019,
				"element": "O" 
			},
			{
				"x": -1.9250340918,
				"y": 0.7576472104,
				"z": -2.1967017669,
				"element": "C" 
			},
			{
				"x": -0.4256155013,
				"y": 0.9221976439,
				"z": -1.9101811525,
				"element": "C" 
			},
			{
				"x": -0.1405943192,
				"y": 2.2708299981,
				"z": -1.4982841694,
				"element": "O" 
			},
			{
				"x": 0.1895366626,
				"y": -0.0114309312,
				"z": -0.8435290527,
				"element": "C" 
			},
			{
				"x": 1.5315988398,
				"y": 0.3942696695,
				"z": -0.6191976647,
				"element": "O" 
			},
			{
				"x": 0.2367870253,
				"y": -1.4967440246,
				"z": -1.2116181807,
				"element": "C" 
			},
			{
				"x": -1.0893114072,
				"y": -2.0511658796,
				"z": -1.0676056117,
				"element": "O" 
			},
			{
				"x": 1.1792420121,
				"y": -2.3502613485,
				"z": -0.3369686048,
				"element": "C" 
			},
			{
				"x": 0.8982463284,
				"y": -3.6908214871,
				"z": -0.7505020812,
				"element": "O" 
			},
			{
				"x": 0.9897465912,
				"y": -2.1446387506,
				"z": 1.1801595642,
				"element": "C" 
			},
			{
				"x": -0.352169772,
				"y": -2.3784433219,
				"z": 1.6205152583,
				"element": "O" 
			},
			{
				"x": 1.8458158558,
				"y": -3.1151780439,
				"z": 2.0007605533,
				"element": "C" 
			},
			{
				"x": 1.3576964833,
				"y": -4.4523715149,
				"z": 1.8414325961,
				"element": "O" 
			},
			{
				"x": -2.0624307511,
				"y": -1.1619110618,
				"z": -2.3558517784,
				"element": "H" 
			},
			{
				"x": -2.231450428,
				"y": 1.6192272943,
				"z": -2.7989986692,
				"element": "H" 
			},
			{
				"x": -2.4843134681,
				"y": 0.8114804854,
				"z": -1.2432205846,
				"element": "H" 
			},
			{
				"x": 0.1243069569,
				"y": 0.7879285175,
				"z": -2.848021767,
				"element": "H" 
			},
			{
				"x": -0.7564776715,
				"y": 2.4998993611,
				"z": -0.7865227834,
				"element": "H" 
			},
			{
				"x": -0.4079743659,
				"y": 0.0886189546,
				"z": 0.082812478,
				"element": "H" 
			},
			{
				"x": 1.5149732525,
				"y": 1.3617867457,
				"z": -0.7078561105,
				"element": "H" 
			},
			{
				"x": 0.5609190755,
				"y": -1.6082745026,
				"z": -2.2551488773,
				"element": "H" 
			},
			{
				"x": -0.9292007633,
				"y": -3.0119919035,
				"z": -1.1541701851,
				"element": "H" 
			},
			{
				"x": 2.2142691055,
				"y": -2.0749110653,
				"z": -0.5775358497,
				"element": "H" 
			},
			{
				"x": 1.1175956424,
				"y": -4.2764342917,
				"z": 0.0012762872,
				"element": "H" 
			},
			{
				"x": 1.3026225057,
				"y": -1.1159399617,
				"z": 1.4068449882,
				"element": "H" 
			},
			{
				"x": -0.9465935097,
				"y": -2.191488823,
				"z": 0.8747599962,
				"element": "H" 
			},
			{
				"x": 2.8872812564,
				"y": -3.1075806519,
				"z": 1.6668893707,
				"element": "H" 
			},
			{
				"x": 1.8186418102,
				"y": -2.8236173677,
				"z": 3.0591360381,
				"element": "H" 
			},
			{
				"x": 0.4105109136,
				"y": -4.3778636863,
				"z": 2.0485175613,
				"element": "H" 
			}
		],
		 "valence_orbital": [ 
			{
				"type": "occ",
				"energy": -0.28794,
				"method": "rhf"
			},
			{
				"type": "occ",
				"energy": -0.28614,
				"method": "rhf"
			},
			{
				"type": "occ",
				"energy": -0.27698,
				"method": "rhf"
			},
			{
				"type": "occ",
				"energy": -0.27277,
				"method": "rhf"
			},
			{
				"type": "occ",
				"energy": -0.25733,
				"method": "rhf"
			},
			{
				"type": "unocc",
				"energy": 0.04105,
				"method": "rhf"
			},
			{
				"type": "unocc",
				"energy": 0.06119,
				"method": "rhf"
			},
			{
				"type": "unocc",
				"energy": 0.08516,
				"method": "rhf"
			},
			{
				"type": "unocc",
				"energy": 0.09649,
				"method": "rhf"
			},
			{
				"type": "unocc",
				"energy": 0.10452,
				"method": "rhf"
			}
		],
		"cosmo_sigma_profile": { 
			"-0.025": 0.0,
			"-0.024": 0.0,
			"-0.023": 0.0,
			"-0.022": 0.0,
			"-0.021": 0.0,
			"-0.02": 0.0,
			"-0.019": 0.0,
			"-0.018": 0.0,
			"-0.017": 0.0577312590678,
			"-0.016": 0.847757458265,
			"-0.015": 1.20683654253,
			"-0.014": 0.996476347197,
			"-0.013": 1.27556447433,
			"-0.012": 2.46752481983,
			"-0.011": 2.80116991373,
			"-0.01": 2.58646325882,
			"-0.009": 3.55418788812,
			"-0.008": 3.80597529866,
			"-0.007": 4.23564166972,
			"-0.006": 10.9668896855,
			"-0.005": 20.0091835184,
			"-0.004": 25.4093866744,
			"-0.003": 18.8361768805,
			"-0.002": 17.7421987993,
			"-0.001": 14.5574807605,
			"0.0": 10.3099878127,
			"0.001": 9.18969189134,
			"0.002": 7.43811086577,
			"0.003": 7.33649817347,
			"0.004": 5.91416462107,
			"0.005": 6.35628091531,
			"0.006": 6.80458192383,
			"0.007": 6.21841961755,
			"0.008": 4.51370557222,
			"0.009": 5.54801840215,
			"0.01": 6.03104265242,
			"0.011": 6.7267816624,
			"0.012": 5.18750914352,
			"0.013": 5.29022655992,
			"0.014": 3.54629704159,
			"0.015": 1.74355194991,
			"0.016": 0.00332660088102,
			"0.017": 0.0,
			"0.018": 0.0,
			"0.019": 0.0,
			"0.02": 0.0,
			"0.021": 0.0,
			"0.022": 0.0,
			"0.023": 0.0,
			"0.024": 0.0,
			"0.025": 0.0
		}
	}
}
