{
	 "smiles": "CCN(CC)CC(O)CO", 
	 "Tm": 243.15, 
	 "num_atms": 27, 
	 "gaussian": { 
		 "optdone": 1, 
		 "sigma_profile": "yes", 
		 "theory": "DFT", 
		 "functional": "B3LYP", 
		 "basiset": "6-31G**", 
		 "properties": { 
			 "R2extent": 2436.5287, 
			 "electric_dipole_moment_norm": 1.52370457438, 
			 "electric_quadrupole_moment_norm": 6.60505798385, 
			 "total_energy": -482.163715221, 
			 "HOMO_LUMO_gap": 0.26272, 
			 "cosmo_polarized_energy": -10.31, 
			 "cosmo_cavitation_energy": 27.71, 
			 "cosmo_dispersion_energy": -19.42, 
			 "cosmo_repulsion_energy": 1.61, 
			 "cosmo_total_nonelectrostatic_energy": 9.9, 
			 "SMD_solvation_energy": 4.52 
		},
		"coords": [
			{
				"x": 0.7622029375,
				"y": -1.768628163,
				"z": -0.7536532358,
				"element": "C" 
			},
			{
				"x": -0.7036581748,
				"y": -1.3444631876,
				"z": -0.8594019912,
				"element": "C" 
			},
			{
				"x": -0.8806550078,
				"y": 0.1042221086,
				"z": -1.0190937475,
				"element": "N" 
			},
			{
				"x": -0.333259814,
				"y": 0.6716434976,
				"z": -2.2556286674,
				"element": "C" 
			},
			{
				"x": -0.9826215539,
				"y": 0.2192160864,
				"z": -3.575991849,
				"element": "C" 
			},
			{
				"x": -2.2417134797,
				"y": 0.5534532513,
				"z": -0.7231150311,
				"element": "C" 
			},
			{
				"x": -2.4714206483,
				"y": 0.9209993127,
				"z": 0.7488931599,
				"element": "C" 
			},
			{
				"x": -2.4105664283,
				"y": -0.2684462061,
				"z": 1.5355315265,
				"element": "O" 
			},
			{
				"x": -1.4491908957,
				"y": 1.9387737168,
				"z": 1.2541201777,
				"element": "C" 
			},
			{
				"x": -1.6371623378,
				"y": 3.1488920266,
				"z": 0.5273500534,
				"element": "O" 
			},
			{
				"x": 0.8260105034,
				"y": -2.836621477,
				"z": -0.5199935152,
				"element": "H" 
			},
			{
				"x": 1.2649665223,
				"y": -1.2108238462,
				"z": 0.0428512346,
				"element": "H" 
			},
			{
				"x": 1.3168328655,
				"y": -1.606709138,
				"z": -1.6835922483,
				"element": "H" 
			},
			{
				"x": -1.2159590375,
				"y": -1.6200326454,
				"z": 0.064187124,
				"element": "H" 
			},
			{
				"x": -1.1927916413,
				"y": -1.913677556,
				"z": -1.6732237152,
				"element": "H" 
			},
			{
				"x": 0.7389431159,
				"y": 0.4481314602,
				"z": -2.2894881683,
				"element": "H" 
			},
			{
				"x": -0.4113321788,
				"y": 1.7618646628,
				"z": -2.1689853078,
				"element": "H" 
			},
			{
				"x": -0.5083041049,
				"y": 0.7258012282,
				"z": -4.4238516762,
				"element": "H" 
			},
			{
				"x": -2.0511443733,
				"y": 0.4582382614,
				"z": -3.6015073041,
				"element": "H" 
			},
			{
				"x": -0.8769115877,
				"y": -0.858709207,
				"z": -3.734836668,
				"element": "H" 
			},
			{
				"x": -2.4447406913,
				"y": 1.4637307092,
				"z": -1.2941324312,
				"element": "H" 
			},
			{
				"x": -3.0042132981,
				"y": -0.1886478773,
				"z": -1.0132581525,
				"element": "H" 
			},
			{
				"x": -3.4744794259,
				"y": 1.3750556354,
				"z": 0.8152968257,
				"element": "H" 
			},
			{
				"x": -2.5872633938,
				"y": -0.0310999143,
				"z": 2.4550487311,
				"element": "H" 
			},
			{
				"x": -1.6028364407,
				"y": 2.0983188108,
				"z": 2.3364095202,
				"element": "H" 
			},
			{
				"x": -0.4484163807,
				"y": 1.517256058,
				"z": 1.100727266,
				"element": "H" 
			},
			{
				"x": -0.8626150503,
				"y": 3.705762392,
				"z": 0.6671380896,
				"element": "H" 
			}
		],
		 "valence_orbital": [ 
			{
				"type": "occ",
				"energy": -0.32504,
				"method": "rhf"
			},
			{
				"type": "occ",
				"energy": -0.30812,
				"method": "rhf"
			},
			{
				"type": "occ",
				"energy": -0.2695,
				"method": "rhf"
			},
			{
				"type": "occ",
				"energy": -0.26223,
				"method": "rhf"
			},
			{
				"type": "occ",
				"energy": -0.19413,
				"method": "rhf"
			},
			{
				"type": "unocc",
				"energy": 0.06859,
				"method": "rhf"
			},
			{
				"type": "unocc",
				"energy": 0.07392,
				"method": "rhf"
			},
			{
				"type": "unocc",
				"energy": 0.09603,
				"method": "rhf"
			},
			{
				"type": "unocc",
				"energy": 0.12052,
				"method": "rhf"
			},
			{
				"type": "unocc",
				"energy": 0.13573,
				"method": "rhf"
			}
		],
		"cosmo_sigma_profile": { 
			"-0.025": 0.0,
			"-0.024": 0.0,
			"-0.023": 0.0,
			"-0.022": 0.0,
			"-0.021": 0.0,
			"-0.02": 0.0,
			"-0.019": 0.0,
			"-0.018": 0.0,
			"-0.017": 0.0,
			"-0.016": 0.512593488767,
			"-0.015": 2.36023793369,
			"-0.014": 1.76327466998,
			"-0.013": 1.62986630262,
			"-0.012": 1.41486853392,
			"-0.011": 2.07686817785,
			"-0.01": 2.4496655301,
			"-0.009": 1.02739734628,
			"-0.008": 1.55582419936,
			"-0.007": 1.63593738863,
			"-0.006": 2.94467146177,
			"-0.005": 2.77933914913,
			"-0.004": 2.90003780855,
			"-0.003": 16.8313334402,
			"-0.002": 28.1198807473,
			"-0.001": 32.0451925033,
			"0.0": 29.3422964489,
			"0.001": 24.9200037116,
			"0.002": 13.2686429158,
			"0.003": 5.39328997247,
			"0.004": 4.03649958032,
			"0.005": 5.04111136361,
			"0.006": 4.23527760597,
			"0.007": 3.84449769833,
			"0.008": 4.02617862536,
			"0.009": 4.46883524487,
			"0.01": 4.1915124118,
			"0.011": 2.61176945775,
			"0.012": 1.37099475693,
			"0.013": 2.08302765492,
			"0.014": 1.48148680748,
			"0.015": 0.19678279354,
			"0.016": 0.0,
			"0.017": 0.0,
			"0.018": 0.0,
			"0.019": 0.0,
			"0.02": 0.0,
			"0.021": 0.0,
			"0.022": 0.0,
			"0.023": 0.0,
			"0.024": 0.0,
			"0.025": 0.0
		}
	}
}
