{
	 "smiles": "CCOC1=CC=C(OC2=C(N)C=CC=C2)C=C1", 
	 "Tm": 432.15, 
	 "num_atms": 32, 
	 "gaussian": { 
		 "optdone": 1, 
		 "sigma_profile": "yes", 
		 "theory": "DFT", 
		 "functional": "B3LYP", 
		 "basiset": "6-31G**", 
		 "properties": { 
			 "R2extent": 6730.8902, 
			 "electric_dipole_moment_norm": 2.84497183817, 
			 "electric_quadrupole_moment_norm": 9.18425718172, 
			 "total_energy": -747.718281758, 
			 "HOMO_LUMO_gap": 0.18352, 
			 "cosmo_polarized_energy": -10.9, 
			 "cosmo_cavitation_energy": 35.77, 
			 "cosmo_dispersion_energy": -25.91, 
			 "cosmo_repulsion_energy": 2.04, 
			 "cosmo_total_nonelectrostatic_energy": 11.9, 
			 "SMD_solvation_energy": 6.45 
		},
		"coords": [
			{
				"x": 0.0152939718,
				"y": 4.7870529141,
				"z": -4.9939168513,
				"element": "C" 
			},
			{
				"x": 0.057607958,
				"y": 4.043702243,
				"z": -3.6700007256,
				"element": "C" 
			},
			{
				"x": 0.4356565487,
				"y": 2.697178902,
				"z": -3.9443083633,
				"element": "O" 
			},
			{
				"x": 0.5436135123,
				"y": 1.8215132231,
				"z": -2.9003370871,
				"element": "C" 
			},
			{
				"x": 0.9140875837,
				"y": 0.5110653122,
				"z": -3.237803146,
				"element": "C" 
			},
			{
				"x": 1.0601686796,
				"y": -0.4554034428,
				"z": -2.2508954787,
				"element": "C" 
			},
			{
				"x": 0.8280675266,
				"y": -0.1281644939,
				"z": -0.9111880809,
				"element": "C" 
			},
			{
				"x": 0.9116414264,
				"y": -1.1618928093,
				"z": 0.0085848283,
				"element": "O" 
			},
			{
				"x": 1.4407281558,
				"y": -0.9348451544,
				"z": 1.2733194,
				"element": "C" 
			},
			{
				"x": 0.8063820462,
				"y": -1.6256112335,
				"z": 2.3267041431,
				"element": "C" 
			},
			{
				"x": -0.264571994,
				"y": -2.4723440526,
				"z": 2.0529894792,
				"element": "N" 
			},
			{
				"x": 1.3271352805,
				"y": -1.4694337292,
				"z": 3.6201730023,
				"element": "C" 
			},
			{
				"x": 2.4392869576,
				"y": -0.6612759022,
				"z": 3.8531688257,
				"element": "C" 
			},
			{
				"x": 3.0633941744,
				"y": 0.0031904801,
				"z": 2.7966031472,
				"element": "C" 
			},
			{
				"x": 2.561909037,
				"y": -0.1419627455,
				"z": 1.5007688319,
				"element": "C" 
			},
			{
				"x": 0.4519220499,
				"y": 1.1687178722,
				"z": -0.5667511782,
				"element": "C" 
			},
			{
				"x": 0.3147228722,
				"y": 2.1457687458,
				"z": -1.5578399207,
				"element": "C" 
			},
			{
				"x": 0.9957873772,
				"y": 4.7676556695,
				"z": -5.4778137797,
				"element": "H" 
			},
			{
				"x": -0.7112324774,
				"y": 4.3280320483,
				"z": -5.6702054982,
				"element": "H" 
			},
			{
				"x": -0.2717287899,
				"y": 5.8304945067,
				"z": -4.831335304,
				"element": "H" 
			},
			{
				"x": -0.9257984515,
				"y": 4.0652614808,
				"z": -3.178160976,
				"element": "H" 
			},
			{
				"x": 0.7836337041,
				"y": 4.5059874836,
				"z": -2.9854053518,
				"element": "H" 
			},
			{
				"x": 1.0889871604,
				"y": 0.2745813864,
				"z": -4.2822031525,
				"element": "H" 
			},
			{
				"x": 1.349443257,
				"y": -1.4708191253,
				"z": -2.501144319,
				"element": "H" 
			},
			{
				"x": -0.7041381515,
				"y": -2.3022846286,
				"z": 1.1588419024,
				"element": "H" 
			},
			{
				"x": -0.9246202686,
				"y": -2.5922030688,
				"z": 2.8080253567,
				"element": "H" 
			},
			{
				"x": 0.8499839511,
				"y": -1.9948006946,
				"z": 4.4438811566,
				"element": "H" 
			},
			{
				"x": 2.8188194945,
				"y": -0.5555826672,
				"z": 4.8653174478,
				"element": "H" 
			},
			{
				"x": 3.93523411,
				"y": 0.6254189408,
				"z": 2.9719498281,
				"element": "H" 
			},
			{
				"x": 3.0297279544,
				"y": 0.3647599791,
				"z": 0.6630920712,
				"element": "H" 
			},
			{
				"x": 0.2699991688,
				"y": 1.4225585706,
				"z": 0.4719920685,
				"element": "H" 
			},
			{
				"x": 0.0241561746,
				"y": 3.1482839897,
				"z": -1.2675022762,
				"element": "H" 
			}
		],
		 "valence_orbital": [ 
			{
				"type": "occ",
				"energy": -0.29724,
				"method": "rhf"
			},
			{
				"type": "occ",
				"energy": -0.25255,
				"method": "rhf"
			},
			{
				"type": "occ",
				"energy": -0.23526,
				"method": "rhf"
			},
			{
				"type": "occ",
				"energy": -0.20693,
				"method": "rhf"
			},
			{
				"type": "occ",
				"energy": -0.1889,
				"method": "rhf"
			},
			{
				"type": "unocc",
				"energy": -0.00538,
				"method": "rhf"
			},
			{
				"type": "unocc",
				"energy": 0.00844,
				"method": "rhf"
			},
			{
				"type": "unocc",
				"energy": 0.01898,
				"method": "rhf"
			},
			{
				"type": "unocc",
				"energy": 0.02921,
				"method": "rhf"
			},
			{
				"type": "unocc",
				"energy": 0.0907,
				"method": "rhf"
			}
		],
		"cosmo_sigma_profile": { 
			"-0.025": 0.0,
			"-0.024": 0.0,
			"-0.023": 0.0,
			"-0.022": 0.0,
			"-0.021": 0.0,
			"-0.02": 0.0,
			"-0.019": 0.0,
			"-0.018": 0.0,
			"-0.017": 0.0,
			"-0.016": 0.0,
			"-0.015": 0.0,
			"-0.014": 0.0,
			"-0.013": 0.263211898211,
			"-0.012": 1.27554857765,
			"-0.011": 1.58460884976,
			"-0.01": 2.1029184898,
			"-0.009": 2.55349568547,
			"-0.008": 2.91777955377,
			"-0.007": 2.93673356016,
			"-0.006": 9.87144746556,
			"-0.005": 18.7783251516,
			"-0.004": 26.8509321238,
			"-0.003": 27.4951142641,
			"-0.002": 23.365339305,
			"-0.001": 20.0314991617,
			"0.0": 19.8240217254,
			"0.001": 17.8832081215,
			"0.002": 15.2841839939,
			"0.003": 16.6249474833,
			"0.004": 21.8790339825,
			"0.005": 20.2785557388,
			"0.006": 12.252796267,
			"0.007": 8.63638109959,
			"0.008": 3.28021742234,
			"0.009": 2.67259453088,
			"0.01": 2.1747432762,
			"0.011": 0.790327105382,
			"0.012": 1.00383445902,
			"0.013": 0.473065543862,
			"0.014": 0.656128165485,
			"0.015": 0.149341904265,
			"0.016": 0.0,
			"0.017": 0.0,
			"0.018": 0.0,
			"0.019": 0.0,
			"0.02": 0.0,
			"0.021": 0.0,
			"0.022": 0.0,
			"0.023": 0.0,
			"0.024": 0.0,
			"0.025": 0.0
		}
	}
}
