{
	 "smiles": "ClCC1=NC2=C(C=NN2C2=CC=CC=C2)C(=O)N1", 
	 "Tm": 533.15, 
	 "num_atms": 27, 
	 "gaussian": { 
		 "optdone": 1, 
		 "sigma_profile": "yes", 
		 "theory": "DFT", 
		 "functional": "B3LYP", 
		 "basiset": "6-31G**", 
		 "properties": { 
			 "R2extent": 6854.9737, 
			 "electric_dipole_moment_norm": 3.76716435134, 
			 "electric_quadrupole_moment_norm": 14.3909281952, 
			 "total_energy": -1217.13254879, 
			 "HOMO_LUMO_gap": 0.17139, 
			 "cosmo_polarized_energy": -14.77, 
			 "cosmo_cavitation_energy": 33.72, 
			 "cosmo_dispersion_energy": -24.96, 
			 "cosmo_repulsion_energy": 1.91, 
			 "cosmo_total_nonelectrostatic_energy": 10.68, 
			 "SMD_solvation_energy": 4.57 
		},
		"coords": [
			{
				"x": -5.343425342,
				"y": -1.6441581516,
				"z": -1.2680432336,
				"element": "Cl" 
			},
			{
				"x": -4.054514373,
				"y": -0.8184735719,
				"z": -0.2954676982,
				"element": "C" 
			},
			{
				"x": -2.9987804309,
				"y": -0.1589988514,
				"z": -1.1456054153,
				"element": "C" 
			},
			{
				"x": -1.7589289005,
				"y": -0.2722782201,
				"z": -0.7553491404,
				"element": "N" 
			},
			{
				"x": -0.8732435161,
				"y": 0.4321842221,
				"z": -1.5217909438,
				"element": "C" 
			},
			{
				"x": -1.1809894498,
				"y": 1.2187659818,
				"z": -2.639091677,
				"element": "C" 
			},
			{
				"x": 0.059096663,
				"y": 1.7429623301,
				"z": -3.0683491595,
				"element": "C" 
			},
			{
				"x": 1.0468492784,
				"y": 1.3246723959,
				"z": -2.295127654,
				"element": "N" 
			},
			{
				"x": 0.481213415,
				"y": 0.5144203319,
				"z": -1.343017796,
				"element": "N" 
			},
			{
				"x": 1.3168219849,
				"y": -0.0637186502,
				"z": -0.3415200458,
				"element": "C" 
			},
			{
				"x": 2.5624892455,
				"y": 0.5241771536,
				"z": -0.0899000119,
				"element": "C" 
			},
			{
				"x": 3.4005054719,
				"y": -0.0309615461,
				"z": 0.874136347,
				"element": "C" 
			},
			{
				"x": 3.0054739914,
				"y": -1.1610717714,
				"z": 1.5931536843,
				"element": "C" 
			},
			{
				"x": 1.7620983288,
				"y": -1.7384993155,
				"z": 1.3343526214,
				"element": "C" 
			},
			{
				"x": 0.9135485478,
				"y": -1.2023106361,
				"z": 0.3656391564,
				"element": "C" 
			},
			{
				"x": -2.5479737109,
				"y": 1.3289587503,
				"z": -3.0847746204,
				"element": "C" 
			},
			{
				"x": -3.0125560151,
				"y": 1.9421072686,
				"z": -4.0300055531,
				"element": "O" 
			},
			{
				"x": -3.403249521,
				"y": 0.5757430927,
				"z": -2.2226883389,
				"element": "N" 
			},
			{
				"x": -3.5771469358,
				"y": -1.5617810937,
				"z": 0.3391560297,
				"element": "H" 
			},
			{
				"x": -4.5680473143,
				"y": -0.0796623067,
				"z": 0.32453112,
				"element": "H" 
			},
			{
				"x": 0.2621421262,
				"y": 2.397082243,
				"z": -3.9047183574,
				"element": "H" 
			},
			{
				"x": 2.857886408,
				"y": 1.398258737,
				"z": -0.6562156735,
				"element": "H" 
			},
			{
				"x": 4.3662126682,
				"y": 0.4276109844,
				"z": 1.065187835,
				"element": "H" 
			},
			{
				"x": 3.6612506415,
				"y": -1.5880452958,
				"z": 2.3458712911,
				"element": "H" 
			},
			{
				"x": 1.4464695688,
				"y": -2.6213180099,
				"z": 1.8825720346,
				"element": "H" 
			},
			{
				"x": -0.0498723923,
				"y": -1.6515224946,
				"z": 0.1664454498,
				"element": "H" 
			},
			{
				"x": -4.3807304377,
				"y": 0.5623564239,
				"z": -2.4938802505,
				"element": "H" 
			}
		],
		 "valence_orbital": [ 
			{
				"type": "occ",
				"energy": -0.3,
				"method": "rhf"
			},
			{
				"type": "occ",
				"energy": -0.27309,
				"method": "rhf"
			},
			{
				"type": "occ",
				"energy": -0.25852,
				"method": "rhf"
			},
			{
				"type": "occ",
				"energy": -0.24612,
				"method": "rhf"
			},
			{
				"type": "occ",
				"energy": -0.23376,
				"method": "rhf"
			},
			{
				"type": "unocc",
				"energy": -0.06237,
				"method": "rhf"
			},
			{
				"type": "unocc",
				"energy": -0.02214,
				"method": "rhf"
			},
			{
				"type": "unocc",
				"energy": -0.01434,
				"method": "rhf"
			},
			{
				"type": "unocc",
				"energy": -0.00739,
				"method": "rhf"
			},
			{
				"type": "unocc",
				"energy": 0.01261,
				"method": "rhf"
			}
		],
		"cosmo_sigma_profile": { 
			"-0.025": 0.0,
			"-0.024": 0.0,
			"-0.023": 0.0,
			"-0.022": 0.0,
			"-0.021": 0.0,
			"-0.02": 0.0,
			"-0.019": 0.0,
			"-0.018": 0.0,
			"-0.017": 0.0,
			"-0.016": 0.0,
			"-0.015": 0.290134803655,
			"-0.014": 0.599857359326,
			"-0.013": 1.1673562853,
			"-0.012": 0.957938372225,
			"-0.011": 1.24230142094,
			"-0.01": 4.62888405639,
			"-0.009": 5.98660578486,
			"-0.008": 5.55007432757,
			"-0.007": 5.46729012503,
			"-0.006": 13.3958701167,
			"-0.005": 13.9686902609,
			"-0.004": 18.6241833226,
			"-0.003": 17.949864772,
			"-0.002": 19.2230547527,
			"-0.001": 19.8162579297,
			"0.0": 19.6873419626,
			"0.001": 19.1549330844,
			"0.002": 18.8787238894,
			"0.003": 19.0832008135,
			"0.004": 20.857207556,
			"0.005": 17.9547258576,
			"0.006": 4.89616440534,
			"0.007": 3.74344629183,
			"0.008": 2.47154750033,
			"0.009": 2.66411466419,
			"0.01": 3.02139698358,
			"0.011": 2.87578089736,
			"0.012": 5.94926505624,
			"0.013": 3.93950514871,
			"0.014": 0.167351028006,
			"0.015": 0.0,
			"0.016": 0.0,
			"0.017": 0.0,
			"0.018": 0.0,
			"0.019": 0.0,
			"0.02": 0.0,
			"0.021": 0.0,
			"0.022": 0.0,
			"0.023": 0.0,
			"0.024": 0.0,
			"0.025": 0.0
		}
	}
}
