{
	 "smiles": "COC1=CC(C=CC(=O)CC(=O)C=CC2=CC=C(O)C(OC)=C2)=CC=C1O", 
	 "Tm": 456.15, 
	 "num_atms": 47, 
	 "gaussian": { 
		 "optdone": 1, 
		 "sigma_profile": "yes", 
		 "theory": "DFT", 
		 "functional": "B3LYP", 
		 "basiset": "6-31G**", 
		 "properties": { 
			 "R2extent": 19215.9522, 
			 "electric_dipole_moment_norm": 3.95071037283, 
			 "electric_quadrupole_moment_norm": 17.6097021914, 
			 "total_energy": -1263.57444867, 
			 "HOMO_LUMO_gap": 0.13509, 
			 "cosmo_polarized_energy": -25.91, 
			 "cosmo_cavitation_energy": 53.45, 
			 "cosmo_dispersion_energy": -36.85, 
			 "cosmo_repulsion_energy": 2.79, 
			 "cosmo_total_nonelectrostatic_energy": 19.39, 
			 "SMD_solvation_energy": 12.23 
		},
		"coords": [
			{
				"x": 3.7156766447,
				"y": -0.7162876353,
				"z": -5.5213777675,
				"element": "C" 
			},
			{
				"x": 4.4268902531,
				"y": -1.713560187,
				"z": -4.8036172589,
				"element": "O" 
			},
			{
				"x": 4.3444137026,
				"y": -1.7027998296,
				"z": -3.4465530929,
				"element": "C" 
			},
			{
				"x": 3.6243309527,
				"y": -0.7886423884,
				"z": -2.6905429668,
				"element": "C" 
			},
			{
				"x": 3.5970921115,
				"y": -0.8618323952,
				"z": -1.2774280147,
				"element": "C" 
			},
			{
				"x": 2.8514080361,
				"y": 0.0796157988,
				"z": -0.456556217,
				"element": "C" 
			},
			{
				"x": 2.1282545867,
				"y": 1.1487686759,
				"z": -0.8578755223,
				"element": "C" 
			},
			{
				"x": 1.4268609453,
				"y": 1.9959168061,
				"z": 0.1227214098,
				"element": "C" 
			},
			{
				"x": 1.4057698561,
				"y": 1.7654612435,
				"z": 1.3282638278,
				"element": "O" 
			},
			{
				"x": 0.6858318943,
				"y": 3.2085539698,
				"z": -0.4536548923,
				"element": "C" 
			},
			{
				"x": -0.521844609,
				"y": 2.7859657162,
				"z": -1.307319163,
				"element": "C" 
			},
			{
				"x": -0.4198785711,
				"y": 2.7542736696,
				"z": -2.5297126587,
				"element": "O" 
			},
			{
				"x": -1.7761496337,
				"y": 2.4029520725,
				"z": -0.6440801649,
				"element": "C" 
			},
			{
				"x": -1.9245943102,
				"y": 2.2567358828,
				"z": 0.6927474881,
				"element": "C" 
			},
			{
				"x": -3.1254067814,
				"y": 1.8463468459,
				"z": 1.4121291353,
				"element": "C" 
			},
			{
				"x": -4.369841093,
				"y": 1.6373569712,
				"z": 0.7923655663,
				"element": "C" 
			},
			{
				"x": -5.4817531024,
				"y": 1.2460838907,
				"z": 1.5314396516,
				"element": "C" 
			},
			{
				"x": -5.3759370804,
				"y": 1.0522857077,
				"z": 2.9081507246,
				"element": "C" 
			},
			{
				"x": -6.4582994594,
				"y": 0.6700293272,
				"z": 3.6299976601,
				"element": "O" 
			},
			{
				"x": -4.1342399722,
				"y": 1.2584593154,
				"z": 3.5470348713,
				"element": "C" 
			},
			{
				"x": -4.1707801157,
				"y": 1.0326611925,
				"z": 4.9010336199,
				"element": "O" 
			},
			{
				"x": -2.9690515376,
				"y": 1.1987005008,
				"z": 5.6416733606,
				"element": "C" 
			},
			{
				"x": -3.0280983693,
				"y": 1.6523459626,
				"z": 2.8092950122,
				"element": "C" 
			},
			{
				"x": 4.3173582158,
				"y": -1.8867264947,
				"z": -0.6488684637,
				"element": "C" 
			},
			{
				"x": 5.0459601772,
				"y": -2.8090507188,
				"z": -1.3992979999,
				"element": "C" 
			},
			{
				"x": 5.070129129,
				"y": -2.7316257526,
				"z": -2.7892838935,
				"element": "C" 
			},
			{
				"x": 5.758319939,
				"y": -3.5985324279,
				"z": -3.577383107,
				"element": "O" 
			},
			{
				"x": 2.6355984915,
				"y": -0.7782336772,
				"z": -5.3370964217,
				"element": "H" 
			},
			{
				"x": 4.0658170739,
				"y": 0.2922300863,
				"z": -5.2664093403,
				"element": "H" 
			},
			{
				"x": 3.913080431,
				"y": -0.9097304994,
				"z": -6.5765124631,
				"element": "H" 
			},
			{
				"x": 3.0671195132,
				"y": -0.0059976089,
				"z": -3.189269032,
				"element": "H" 
			},
			{
				"x": 2.8809232432,
				"y": -0.0969966724,
				"z": 0.6182431577,
				"element": "H" 
			},
			{
				"x": 2.0260127703,
				"y": 1.4247472526,
				"z": -1.903446832,
				"element": "H" 
			},
			{
				"x": 1.3513204542,
				"y": 3.7585201302,
				"z": -1.1248660714,
				"element": "H" 
			},
			{
				"x": 0.3911304395,
				"y": 3.8515584451,
				"z": 0.3775085843,
				"element": "H" 
			},
			{
				"x": -2.5874527267,
				"y": 2.1977923875,
				"z": -1.3377154425,
				"element": "H" 
			},
			{
				"x": -1.0557295341,
				"y": 2.4284306405,
				"z": 1.3255282855,
				"element": "H" 
			},
			{
				"x": -4.4751377399,
				"y": 1.7869879451,
				"z": -0.2767551642,
				"element": "H" 
			},
			{
				"x": -6.445432529,
				"y": 1.0856723479,
				"z": 1.0596870448,
				"element": "H" 
			},
			{
				"x": -6.1718454082,
				"y": 0.5917847189,
				"z": 4.5538009382,
				"element": "H" 
			},
			{
				"x": -2.187328092,
				"y": 0.5145766901,
				"z": 5.2900289238,
				"element": "H" 
			},
			{
				"x": -3.2159629855,
				"y": 0.9655345434,
				"z": 6.6782063362,
				"element": "H" 
			},
			{
				"x": -2.6019790294,
				"y": 2.2303328358,
				"z": 5.578257267,
				"element": "H" 
			},
			{
				"x": -2.0706195418,
				"y": 1.8087075385,
				"z": 3.2939418828,
				"element": "H" 
			},
			{
				"x": 4.3086756807,
				"y": -1.9620270693,
				"z": 0.4343007033,
				"element": "H" 
			},
			{
				"x": 5.6028815028,
				"y": -3.6005272108,
				"z": -0.9022099574,
				"element": "H" 
			},
			{
				"x": 6.2032061775,
				"y": -4.2455185432,
				"z": -3.0140235435,
				"element": "H" 
			}
		],
		 "valence_orbital": [ 
			{
				"type": "occ",
				"energy": -0.24469,
				"method": "rhf"
			},
			{
				"type": "occ",
				"energy": -0.23971,
				"method": "rhf"
			},
			{
				"type": "occ",
				"energy": -0.23174,
				"method": "rhf"
			},
			{
				"type": "occ",
				"energy": -0.20745,
				"method": "rhf"
			},
			{
				"type": "occ",
				"energy": -0.20615,
				"method": "rhf"
			},
			{
				"type": "unocc",
				"energy": -0.07106,
				"method": "rhf"
			},
			{
				"type": "unocc",
				"energy": -0.05714,
				"method": "rhf"
			},
			{
				"type": "unocc",
				"energy": 0.00013,
				"method": "rhf"
			},
			{
				"type": "unocc",
				"energy": 0.00042,
				"method": "rhf"
			},
			{
				"type": "unocc",
				"energy": 0.01571,
				"method": "rhf"
			}
		],
		"cosmo_sigma_profile": { 
			"-0.025": 0.0,
			"-0.024": 0.0,
			"-0.023": 0.0,
			"-0.022": 0.0,
			"-0.021": 0.0,
			"-0.02": 0.0,
			"-0.019": 0.112480941577,
			"-0.018": 1.17928846594,
			"-0.017": 1.20106703522,
			"-0.016": 1.21909001254,
			"-0.015": 1.33762626831,
			"-0.014": 0.995059197901,
			"-0.013": 1.46835818138,
			"-0.012": 1.54256541035,
			"-0.011": 2.07406321026,
			"-0.01": 2.01884943418,
			"-0.009": 1.19160396981,
			"-0.008": 4.40615045429,
			"-0.007": 13.1825127741,
			"-0.006": 30.0448331662,
			"-0.005": 35.6894579363,
			"-0.004": 33.8210572953,
			"-0.003": 29.6044189899,
			"-0.002": 23.295008399,
			"-0.001": 20.0118265889,
			"0.0": 22.4493313696,
			"0.001": 26.6281549159,
			"0.002": 36.4830672886,
			"0.003": 37.8971362248,
			"0.004": 28.6369596843,
			"0.005": 11.2802053137,
			"0.006": 7.84128229434,
			"0.007": 4.9997263242,
			"0.008": 5.14053374481,
			"0.009": 6.55642591057,
			"0.01": 7.53001372853,
			"0.011": 8.09752894122,
			"0.012": 8.66476809677,
			"0.013": 7.73588563531,
			"0.014": 1.50836749589,
			"0.015": 0.0,
			"0.016": 0.0,
			"0.017": 0.0,
			"0.018": 0.0,
			"0.019": 0.0,
			"0.02": 0.0,
			"0.021": 0.0,
			"0.022": 0.0,
			"0.023": 0.0,
			"0.024": 0.0,
			"0.025": 0.0
		}
	}
}
