{
	 "smiles": "OS(=O)(=O)C1=NC2=C(N1)C=C(Cl)C=C2", 
	 "Tm": 603.15, 
	 "num_atms": 19, 
	 "gaussian": { 
		 "optdone": 1, 
		 "sigma_profile": "yes", 
		 "theory": "DFT", 
		 "functional": "B3LYP", 
		 "basiset": "6-31G**", 
		 "properties": { 
			 "R2extent": 4799.7625, 
			 "electric_dipole_moment_norm": 2.21051309428, 
			 "electric_quadrupole_moment_norm": 16.8686602195, 
			 "total_energy": -1463.24212714, 
			 "HOMO_LUMO_gap": 0.18683, 
			 "cosmo_polarized_energy": -17.62, 
			 "cosmo_cavitation_energy": 27.76, 
			 "cosmo_dispersion_energy": -21.6, 
			 "cosmo_repulsion_energy": 1.65, 
			 "cosmo_total_nonelectrostatic_energy": 7.8, 
			 "SMD_solvation_energy": 1.14 
		},
		"coords": [
			{
				"x": 0.291415349,
				"y": 1.1102828156,
				"z": 4.5497501377,
				"element": "O" 
			},
			{
				"x": -0.3741363987,
				"y": -0.1975372365,
				"z": 3.8414283516,
				"element": "S" 
			},
			{
				"x": -1.7704159318,
				"y": -0.2727250096,
				"z": 4.2413672527,
				"element": "O" 
			},
			{
				"x": 0.5693786278,
				"y": -1.288956541,
				"z": 4.0363615233,
				"element": "O" 
			},
			{
				"x": -0.2611857605,
				"y": 0.224790769,
				"z": 2.1138422135,
				"element": "C" 
			},
			{
				"x": -0.9013315426,
				"y": 1.1988644072,
				"z": 1.5300655564,
				"element": "N" 
			},
			{
				"x": -0.4878600263,
				"y": 1.1248827074,
				"z": 0.2092145549,
				"element": "C" 
			},
			{
				"x": 0.4305824417,
				"y": 0.0566332573,
				"z": 0.0364703278,
				"element": "C" 
			},
			{
				"x": 0.5581576515,
				"y": -0.5056209893,
				"z": 1.2905881157,
				"element": "N" 
			},
			{
				"x": 1.0088960677,
				"y": -0.2525016384,
				"z": -1.1978319226,
				"element": "C" 
			},
			{
				"x": 0.6290545593,
				"y": 0.5585959792,
				"z": -2.2594299255,
				"element": "C" 
			},
			{
				"x": 1.3101261156,
				"y": 0.2417768266,
				"z": -3.846964641,
				"element": "Cl" 
			},
			{
				"x": -0.2814455833,
				"y": 1.6289067418,
				"z": -2.1215963059,
				"element": "C" 
			},
			{
				"x": -0.8463549363,
				"y": 1.9199928758,
				"z": -0.8888595482,
				"element": "C" 
			},
			{
				"x": -0.4166488668,
				"y": 1.7606909503,
				"z": 4.7011899427,
				"element": "H" 
			},
			{
				"x": 1.1278593867,
				"y": -1.2850319017,
				"z": 1.5890018457,
				"element": "H" 
			},
			{
				"x": 1.7096084462,
				"y": -1.0679077425,
				"z": -1.3323272632,
				"element": "H" 
			},
			{
				"x": -0.5324288351,
				"y": 2.2190045638,
				"z": -2.995339374,
				"element": "H" 
			},
			{
				"x": -1.548470764,
				"y": 2.7377591652,
				"z": -0.7690308416,
				"element": "H" 
			}
		],
		 "valence_orbital": [ 
			{
				"type": "occ",
				"energy": -0.32625,
				"method": "rhf"
			},
			{
				"type": "occ",
				"energy": -0.32503,
				"method": "rhf"
			},
			{
				"type": "occ",
				"energy": -0.3123,
				"method": "rhf"
			},
			{
				"type": "occ",
				"energy": -0.26253,
				"method": "rhf"
			},
			{
				"type": "occ",
				"energy": -0.24979,
				"method": "rhf"
			},
			{
				"type": "unocc",
				"energy": -0.06296,
				"method": "rhf"
			},
			{
				"type": "unocc",
				"energy": -0.01261,
				"method": "rhf"
			},
			{
				"type": "unocc",
				"energy": 0.00114,
				"method": "rhf"
			},
			{
				"type": "unocc",
				"energy": 0.01498,
				"method": "rhf"
			},
			{
				"type": "unocc",
				"energy": 0.02889,
				"method": "rhf"
			}
		],
		"cosmo_sigma_profile": { 
			"-0.025": 0.0,
			"-0.024": 0.0,
			"-0.023": 0.0,
			"-0.022": 0.0,
			"-0.021": 0.728112202198,
			"-0.02": 1.11697761889,
			"-0.019": 0.731243739587,
			"-0.018": 0.935355987846,
			"-0.017": 1.93780880573,
			"-0.016": 1.55438000522,
			"-0.015": 1.3004547203,
			"-0.014": 2.46037796829,
			"-0.013": 1.48564788996,
			"-0.012": 1.97447628218,
			"-0.011": 1.72229754061,
			"-0.01": 2.23347567735,
			"-0.009": 3.19105511889,
			"-0.008": 5.21931553017,
			"-0.007": 8.34594461704,
			"-0.006": 7.24810780261,
			"-0.005": 7.62538524462,
			"-0.004": 7.07851767613,
			"-0.003": 9.70151909428,
			"-0.002": 11.2634223989,
			"-0.001": 11.5062116518,
			"0.0": 13.867572021,
			"0.001": 20.7631359159,
			"0.002": 20.8719935364,
			"0.003": 15.1555415351,
			"0.004": 15.6672197842,
			"0.005": 9.44531648434,
			"0.006": 5.59213469412,
			"0.007": 7.13283528802,
			"0.008": 9.20251178984,
			"0.009": 12.1319804694,
			"0.01": 3.67304395642,
			"0.011": 0.856869187128,
			"0.012": 0.903644722108,
			"0.013": 0.906751288929,
			"0.014": 0.50082015437,
			"0.015": 0.0,
			"0.016": 0.0,
			"0.017": 0.0,
			"0.018": 0.0,
			"0.019": 0.0,
			"0.02": 0.0,
			"0.021": 0.0,
			"0.022": 0.0,
			"0.023": 0.0,
			"0.024": 0.0,
			"0.025": 0.0
		}
	}
}
