{
	 "smiles": "ClS(=O)(=O)C1=CC=C(S1)C1=NC=CC=C1", 
	 "Tm": 361.15, 
	 "num_atms": 21, 
	 "gaussian": { 
		 "optdone": 1, 
		 "sigma_profile": "yes", 
		 "theory": "DFT", 
		 "functional": "B3LYP", 
		 "basiset": "6-31G**", 
		 "properties": { 
			 "R2extent": 6109.3289, 
			 "electric_dipole_moment_norm": 8.3853835279, 
			 "electric_quadrupole_moment_norm": 11.477215167, 
			 "total_energy": -1808.25336702, 
			 "HOMO_LUMO_gap": 0.15109, 
			 "cosmo_polarized_energy": -12.99, 
			 "cosmo_cavitation_energy": 31.23, 
			 "cosmo_dispersion_energy": -23.83, 
			 "cosmo_repulsion_energy": 1.77, 
			 "cosmo_total_nonelectrostatic_energy": 9.17, 
			 "SMD_solvation_energy": 2.65 
		},
		"coords": [
			{
				"x": -1.1005915098,
				"y": -4.5130230546,
				"z": -0.8563267356,
				"element": "Cl" 
			},
			{
				"x": -0.7492691531,
				"y": -3.7908277131,
				"z": 1.1237498616,
				"element": "S" 
			},
			{
				"x": 0.396274167,
				"y": -4.541924659,
				"z": 1.6200462698,
				"element": "O" 
			},
			{
				"x": -2.0480859501,
				"y": -3.7978787175,
				"z": 1.7832468001,
				"element": "O" 
			},
			{
				"x": -0.2558265837,
				"y": -2.1333583608,
				"z": 0.8340453875,
				"element": "C" 
			},
			{
				"x": 1.048667176,
				"y": -1.7283679956,
				"z": 0.6691295425,
				"element": "C" 
			},
			{
				"x": 1.1315194954,
				"y": -0.3351232453,
				"z": 0.4409266787,
				"element": "C" 
			},
			{
				"x": -0.1024675691,
				"y": 0.2881071579,
				"z": 0.4271041241,
				"element": "C" 
			},
			{
				"x": -1.4056875435,
				"y": -0.8357676558,
				"z": 0.7056446926,
				"element": "S" 
			},
			{
				"x": -0.4388975974,
				"y": 1.7031242108,
				"z": 0.2362083056,
				"element": "C" 
			},
			{
				"x": -1.7530525566,
				"y": 1.9928900674,
				"z": 0.2784618262,
				"element": "N" 
			},
			{
				"x": -2.1292811326,
				"y": 3.2610247469,
				"z": 0.1109488666,
				"element": "C" 
			},
			{
				"x": -1.2300407142,
				"y": 4.3074777715,
				"z": -0.1080052312,
				"element": "C" 
			},
			{
				"x": 0.1308480412,
				"y": 4.0061661407,
				"z": -0.1518953899,
				"element": "C" 
			},
			{
				"x": 0.5394303525,
				"y": 2.686939132,
				"z": 0.0226774685,
				"element": "C" 
			},
			{
				"x": 1.8932464863,
				"y": -2.4044514551,
				"z": 0.7175296296,
				"element": "H" 
			},
			{
				"x": 2.0692572922,
				"y": 0.1880978413,
				"z": 0.2979034773,
				"element": "H" 
			},
			{
				"x": -3.1998364211,
				"y": 3.4506998221,
				"z": 0.1530615342,
				"element": "H" 
			},
			{
				"x": -1.589368316,
				"y": 5.3226582592,
				"z": -0.2389683803,
				"element": "H" 
			},
			{
				"x": 0.8663407525,
				"y": 4.7873503292,
				"z": -0.3191825875,
				"element": "H" 
			},
			{
				"x": 1.5919212837,
				"y": 2.4272873777,
				"z": -0.0059061405,
				"element": "H" 
			}
		],
		 "valence_orbital": [ 
			{
				"type": "occ",
				"energy": -0.30864,
				"method": "rhf"
			},
			{
				"type": "occ",
				"energy": -0.30485,
				"method": "rhf"
			},
			{
				"type": "occ",
				"energy": -0.28323,
				"method": "rhf"
			},
			{
				"type": "occ",
				"energy": -0.28274,
				"method": "rhf"
			},
			{
				"type": "occ",
				"energy": -0.25012,
				"method": "rhf"
			},
			{
				"type": "unocc",
				"energy": -0.09903,
				"method": "rhf"
			},
			{
				"type": "unocc",
				"energy": -0.06487,
				"method": "rhf"
			},
			{
				"type": "unocc",
				"energy": -0.04372,
				"method": "rhf"
			},
			{
				"type": "unocc",
				"energy": -0.01542,
				"method": "rhf"
			},
			{
				"type": "unocc",
				"energy": 0.01168,
				"method": "rhf"
			}
		],
		"cosmo_sigma_profile": { 
			"-0.025": 0.0,
			"-0.024": 0.0,
			"-0.023": 0.0,
			"-0.022": 0.0,
			"-0.021": 0.0,
			"-0.02": 0.0,
			"-0.019": 0.0,
			"-0.018": 0.0,
			"-0.017": 0.0,
			"-0.016": 0.0,
			"-0.015": 0.0,
			"-0.014": 0.0,
			"-0.013": 0.0,
			"-0.012": 0.0,
			"-0.011": 0.0377879322941,
			"-0.01": 2.0392459796,
			"-0.009": 4.22027273003,
			"-0.008": 6.91250356315,
			"-0.007": 11.7818204511,
			"-0.006": 13.79544404,
			"-0.005": 11.056819523,
			"-0.004": 10.3447617161,
			"-0.003": 11.3987002256,
			"-0.002": 11.8149961571,
			"-0.001": 20.0838268084,
			"0.0": 31.8594080468,
			"0.001": 31.4551154972,
			"0.002": 22.9046975442,
			"0.003": 17.7117906994,
			"0.004": 13.5355109587,
			"0.005": 3.98753458304,
			"0.006": 5.58769296225,
			"0.007": 7.91850832658,
			"0.008": 12.0800641662,
			"0.009": 5.04071124095,
			"0.01": 0.988879693927,
			"0.011": 0.596222449291,
			"0.012": 0.0,
			"0.013": 0.0,
			"0.014": 0.0,
			"0.015": 0.0,
			"0.016": 0.0,
			"0.017": 0.0,
			"0.018": 0.0,
			"0.019": 0.0,
			"0.02": 0.0,
			"0.021": 0.0,
			"0.022": 0.0,
			"0.023": 0.0,
			"0.024": 0.0,
			"0.025": 0.0
		}
	}
}
