{
	 "smiles": "CC(=C)CO", 
	 "Tm": 223.15, 
	 "num_atms": 13, 
	 "gaussian": { 
		 "optdone": 1, 
		 "sigma_profile": "yes", 
		 "theory": "DFT", 
		 "functional": "B3LYP", 
		 "basiset": "6-31G**", 
		 "properties": { 
			 "R2extent": 1086.9794, 
			 "electric_dipole_moment_norm": 1.24673065656, 
			 "electric_quadrupole_moment_norm": 6.21565229883, 
			 "total_energy": -232.441962967, 
			 "HOMO_LUMO_gap": 0.2669, 
			 "cosmo_polarized_energy": -5.59, 
			 "cosmo_cavitation_energy": 16.09, 
			 "cosmo_dispersion_energy": -11.63, 
			 "cosmo_repulsion_energy": 1.03, 
			 "cosmo_total_nonelectrostatic_energy": 5.49, 
			 "SMD_solvation_energy": 3.81 
		},
		"coords": [
			{
				"x": 1.2010748615,
				"y": -1.9869174762,
				"z": 1.8563058052,
				"element": "C" 
			},
			{
				"x": 0.2167127511,
				"y": -1.5248622443,
				"z": 0.8132854154,
				"element": "C" 
			},
			{
				"x": -0.8201041785,
				"y": -0.7256949144,
				"z": 1.0852329124,
				"element": "C" 
			},
			{
				"x": 0.4540662752,
				"y": -2.0383736338,
				"z": -0.5905157064,
				"element": "C" 
			},
			{
				"x": 0.4607660414,
				"y": -3.4645732928,
				"z": -0.6584121406,
				"element": "O" 
			},
			{
				"x": 1.2789326156,
				"y": -3.07919928,
				"z": 1.8482702131,
				"element": "H" 
			},
			{
				"x": 0.9181403368,
				"y": -1.6576327028,
				"z": 2.8593122545,
				"element": "H" 
			},
			{
				"x": 2.2064179053,
				"y": -1.6029049388,
				"z": 1.6382733163,
				"element": "H" 
			},
			{
				"x": -1.0055586893,
				"y": -0.3464899345,
				"z": 2.0867288985,
				"element": "H" 
			},
			{
				"x": -1.5159454254,
				"y": -0.4134790141,
				"z": 0.3104366613,
				"element": "H" 
			},
			{
				"x": -0.2860141632,
				"y": -1.6059567047,
				"z": -1.2803408642,
				"element": "H" 
			},
			{
				"x": 1.447977333,
				"y": -1.734590339,
				"z": -0.9417896343,
				"element": "H" 
			},
			{
				"x": -0.4061656636,
				"y": -3.7660255248,
				"z": -0.3550871311,
				"element": "H" 
			}
		],
		 "valence_orbital": [ 
			{
				"type": "occ",
				"energy": -0.37444,
				"method": "rhf"
			},
			{
				"type": "occ",
				"energy": -0.35714,
				"method": "rhf"
			},
			{
				"type": "occ",
				"energy": -0.32337,
				"method": "rhf"
			},
			{
				"type": "occ",
				"energy": -0.27018,
				"method": "rhf"
			},
			{
				"type": "occ",
				"energy": -0.25257,
				"method": "rhf"
			},
			{
				"type": "unocc",
				"energy": 0.01433,
				"method": "rhf"
			},
			{
				"type": "unocc",
				"energy": 0.08711,
				"method": "rhf"
			},
			{
				"type": "unocc",
				"energy": 0.11243,
				"method": "rhf"
			},
			{
				"type": "unocc",
				"energy": 0.14037,
				"method": "rhf"
			},
			{
				"type": "unocc",
				"energy": 0.14706,
				"method": "rhf"
			}
		],
		"cosmo_sigma_profile": { 
			"-0.025": 0.0,
			"-0.024": 0.0,
			"-0.023": 0.0,
			"-0.022": 0.0,
			"-0.021": 0.0,
			"-0.02": 0.0,
			"-0.019": 0.0,
			"-0.018": 0.0,
			"-0.017": 0.0,
			"-0.016": 0.0032703911442,
			"-0.015": 0.644042726765,
			"-0.014": 1.06508062955,
			"-0.013": 0.587670725343,
			"-0.012": 0.847297318627,
			"-0.011": 0.631762875854,
			"-0.01": 0.883452953966,
			"-0.009": 0.831742212847,
			"-0.008": 1.10417268138,
			"-0.007": 0.668411038255,
			"-0.006": 0.661958763265,
			"-0.005": 2.86009631549,
			"-0.004": 12.8983691206,
			"-0.003": 14.791338352,
			"-0.002": 13.2953975886,
			"-0.001": 14.0011102905,
			"0.0": 12.7712114636,
			"0.001": 10.3586397413,
			"0.002": 6.78470622224,
			"0.003": 5.43979562354,
			"0.004": 3.78633748615,
			"0.005": 4.84122741765,
			"0.006": 3.30050507247,
			"0.007": 2.29779196242,
			"0.008": 0.867531636939,
			"0.009": 1.08177539533,
			"0.01": 1.30563256571,
			"0.011": 1.27960458711,
			"0.012": 1.31957596702,
			"0.013": 1.23882340764,
			"0.014": 2.32838400397,
			"0.015": 0.644553436673,
			"0.016": 0.0,
			"0.017": 0.0,
			"0.018": 0.0,
			"0.019": 0.0,
			"0.02": 0.0,
			"0.021": 0.0,
			"0.022": 0.0,
			"0.023": 0.0,
			"0.024": 0.0,
			"0.025": 0.0
		}
	}
}
