{
	 "smiles": "CC(Cl)(Cl)Cl", 
	 "Tm": 241.65, 
	 "num_atms": 8, 
	 "gaussian": { 
		 "optdone": 1, 
		 "sigma_profile": "yes", 
		 "theory": "DFT", 
		 "functional": "B3LYP", 
		 "basiset": "6-31G**", 
		 "properties": { 
			 "R2extent": 1389.4981, 
			 "electric_dipole_moment_norm": 2.00118532875, 
			 "electric_quadrupole_moment_norm": 2.97776995586, 
			 "total_energy": -1458.59161279, 
			 "HOMO_LUMO_gap": 0.26337, 
			 "cosmo_polarized_energy": -3.27, 
			 "cosmo_cavitation_energy": 16.68, 
			 "cosmo_dispersion_energy": -12.75, 
			 "cosmo_repulsion_energy": 1.11, 
			 "cosmo_total_nonelectrostatic_energy": 5.04, 
			 "SMD_solvation_energy": 2.04 
		},
		"coords": [
			{
				"x": -0.1254942894,
				"y": 1.3180525696,
				"z": -1.1751402627,
				"element": "C" 
			},
			{
				"x": -0.408555796,
				"y": 1.4053778442,
				"z": 0.3156722691,
				"element": "C" 
			},
			{
				"x": -1.7702008744,
				"y": 2.5511195398,
				"z": 0.6195547218,
				"element": "Cl" 
			},
			{
				"x": -0.8583933218,
				"y": -0.2218980257,
				"z": 0.9550398441,
				"element": "Cl" 
			},
			{
				"x": 1.0578324859,
				"y": 1.9932205815,
				"z": 1.1892949533,
				"element": "Cl" 
			},
			{
				"x": 0.1453860599,
				"y": 2.3059881755,
				"z": -1.5530128161,
				"element": "H" 
			},
			{
				"x": 0.6987943693,
				"y": 0.6235141488,
				"z": -1.3493534862,
				"element": "H" 
			},
			{
				"x": -1.0171686335,
				"y": 0.9618251663,
				"z": -1.6949552233,
				"element": "H" 
			}
		],
		 "valence_orbital": [ 
			{
				"type": "occ",
				"energy": -0.35267,
				"method": "rhf"
			},
			{
				"type": "occ",
				"energy": -0.33092,
				"method": "rhf"
			},
			{
				"type": "occ",
				"energy": -0.32042,
				"method": "rhf"
			},
			{
				"type": "occ",
				"energy": -0.32041,
				"method": "rhf"
			},
			{
				"type": "occ",
				"energy": -0.30809,
				"method": "rhf"
			},
			{
				"type": "unocc",
				"energy": -0.04472,
				"method": "rhf"
			},
			{
				"type": "unocc",
				"energy": 0.0008,
				"method": "rhf"
			},
			{
				"type": "unocc",
				"energy": 0.00081,
				"method": "rhf"
			},
			{
				"type": "unocc",
				"energy": 0.10547,
				"method": "rhf"
			},
			{
				"type": "unocc",
				"energy": 0.14846,
				"method": "rhf"
			}
		],
		"cosmo_sigma_profile": { 
			"-0.025": 0.0,
			"-0.024": 0.0,
			"-0.023": 0.0,
			"-0.022": 0.0,
			"-0.021": 0.0,
			"-0.02": 0.0,
			"-0.019": 0.0,
			"-0.018": 0.0,
			"-0.017": 0.0,
			"-0.016": 0.0,
			"-0.015": 0.0,
			"-0.014": 0.0,
			"-0.013": 0.0,
			"-0.012": 0.0,
			"-0.011": 0.0,
			"-0.01": 0.0,
			"-0.009": 0.0,
			"-0.008": 0.103572332611,
			"-0.007": 4.55573215063,
			"-0.006": 6.05122377528,
			"-0.005": 6.66031511412,
			"-0.004": 8.37410626572,
			"-0.003": 12.9813887288,
			"-0.002": 8.83972775096,
			"-0.001": 8.7878626463,
			"0.0": 9.51147081678,
			"0.001": 11.6713769541,
			"0.002": 15.0278249737,
			"0.003": 28.5999070204,
			"0.004": 17.8701599326,
			"0.005": 0.0,
			"0.006": 0.0,
			"0.007": 0.0,
			"0.008": 0.0,
			"0.009": 0.0,
			"0.01": 0.0,
			"0.011": 0.0,
			"0.012": 0.0,
			"0.013": 0.0,
			"0.014": 0.0,
			"0.015": 0.0,
			"0.016": 0.0,
			"0.017": 0.0,
			"0.018": 0.0,
			"0.019": 0.0,
			"0.02": 0.0,
			"0.021": 0.0,
			"0.022": 0.0,
			"0.023": 0.0,
			"0.024": 0.0,
			"0.025": 0.0
		}
	}
}
