{
	 "smiles": "OCC1=CC=C(O1)C(O)=O", 
	 "Tm": 438.15, 
	 "num_atms": 16, 
	 "gaussian": { 
		 "optdone": 1, 
		 "sigma_profile": "yes", 
		 "theory": "DFT", 
		 "functional": "B3LYP", 
		 "basiset": "6-31G**", 
		 "properties": { 
			 "R2extent": 1696.3631, 
			 "electric_dipole_moment_norm": 1.31494231813, 
			 "electric_quadrupole_moment_norm": 12.4029866008, 
			 "total_energy": -533.126714416, 
			 "HOMO_LUMO_gap": 0.19405, 
			 "cosmo_polarized_energy": -13.5, 
			 "cosmo_cavitation_energy": 21.56, 
			 "cosmo_dispersion_energy": -15.79, 
			 "cosmo_repulsion_energy": 1.32, 
			 "cosmo_total_nonelectrostatic_energy": 7.09, 
			 "SMD_solvation_energy": 5.68 
		},
		"coords": [
			{
				"x": -2.3395678736,
				"y": -1.8330757957,
				"z": 1.6750670387,
				"element": "O" 
			},
			{
				"x": -1.9254061738,
				"y": -2.1983111208,
				"z": 0.3647443234,
				"element": "C" 
			},
			{
				"x": -0.7550155048,
				"y": -1.4060390064,
				"z": -0.1205552092,
				"element": "C" 
			},
			{
				"x": 0.5441083184,
				"y": -1.7117896697,
				"z": -0.4290926833,
				"element": "C" 
			},
			{
				"x": 1.1661714478,
				"y": -0.4912469201,
				"z": -0.8169297826,
				"element": "C" 
			},
			{
				"x": 0.2061483047,
				"y": 0.4800723061,
				"z": -0.7133208201,
				"element": "C" 
			},
			{
				"x": -0.9749556596,
				"y": -0.0726330843,
				"z": -0.2923407881,
				"element": "O" 
			},
			{
				"x": 0.2908700686,
				"y": 1.9149492202,
				"z": -0.9769983105,
				"element": "C" 
			},
			{
				"x": -0.8728317102,
				"y": 2.5678287318,
				"z": -0.7458621939,
				"element": "O" 
			},
			{
				"x": 1.3026700304,
				"y": 2.4676325925,
				"z": -1.3637764876,
				"element": "O" 
			},
			{
				"x": -2.5815952566,
				"y": -0.8975241031,
				"z": 1.6502764006,
				"element": "H" 
			},
			{
				"x": -2.7541665619,
				"y": -2.104519293,
				"z": -0.3548061468,
				"element": "H" 
			},
			{
				"x": -1.6424541461,
				"y": -3.2530592227,
				"z": 0.407492965,
				"element": "H" 
			},
			{
				"x": 0.9959004131,
				"y": -2.6919300467,
				"z": -0.3784940175,
				"element": "H" 
			},
			{
				"x": 2.1868843943,
				"y": -0.3294530415,
				"z": -1.1301209968,
				"element": "H" 
			},
			{
				"x": -0.6931600907,
				"y": 3.4996984533,
				"z": -0.9537832912,
				"element": "H" 
			}
		],
		 "valence_orbital": [ 
			{
				"type": "occ",
				"energy": -0.32245,
				"method": "rhf"
			},
			{
				"type": "occ",
				"energy": -0.29652,
				"method": "rhf"
			},
			{
				"type": "occ",
				"energy": -0.28587,
				"method": "rhf"
			},
			{
				"type": "occ",
				"energy": -0.28172,
				"method": "rhf"
			},
			{
				"type": "occ",
				"energy": -0.24354,
				"method": "rhf"
			},
			{
				"type": "unocc",
				"energy": -0.04949,
				"method": "rhf"
			},
			{
				"type": "unocc",
				"energy": 0.02988,
				"method": "rhf"
			},
			{
				"type": "unocc",
				"energy": 0.07471,
				"method": "rhf"
			},
			{
				"type": "unocc",
				"energy": 0.0847,
				"method": "rhf"
			},
			{
				"type": "unocc",
				"energy": 0.10437,
				"method": "rhf"
			}
		],
		"cosmo_sigma_profile": { 
			"-0.025": 0.0,
			"-0.024": 0.0,
			"-0.023": 0.0,
			"-0.022": 0.0,
			"-0.021": 0.0,
			"-0.02": 0.0,
			"-0.019": 0.268771827435,
			"-0.018": 0.751989166877,
			"-0.017": 1.14147126897,
			"-0.016": 0.596739563375,
			"-0.015": 1.62564417573,
			"-0.014": 1.21097885281,
			"-0.013": 1.85153642067,
			"-0.012": 1.16956166463,
			"-0.011": 1.89622569018,
			"-0.01": 1.17064347456,
			"-0.009": 1.80417554939,
			"-0.008": 4.70821455157,
			"-0.007": 7.71800513965,
			"-0.006": 9.93383938087,
			"-0.005": 9.5858182037,
			"-0.004": 8.84698776648,
			"-0.003": 9.76623778431,
			"-0.002": 9.05142967111,
			"-0.001": 10.0651492992,
			"0.0": 10.9329761312,
			"0.001": 10.3216762517,
			"0.002": 10.2914478638,
			"0.003": 9.55378439175,
			"0.004": 4.92290935924,
			"0.005": 4.70940653867,
			"0.006": 4.37221771573,
			"0.007": 3.7510225224,
			"0.008": 4.58453197351,
			"0.009": 5.22035956607,
			"0.01": 4.77307274094,
			"0.011": 4.62904056273,
			"0.012": 6.69053593178,
			"0.013": 2.49904156319,
			"0.014": 1.12733114473,
			"0.015": 0.0,
			"0.016": 0.0,
			"0.017": 0.0,
			"0.018": 0.0,
			"0.019": 0.0,
			"0.02": 0.0,
			"0.021": 0.0,
			"0.022": 0.0,
			"0.023": 0.0,
			"0.024": 0.0,
			"0.025": 0.0
		}
	}
}
