{
	 "smiles": "CC1=CC=CN2C=C(COC3=C(Cl)C=C(F)C=C3)N=C12", 
	 "Tm": 402.15, 
	 "num_atms": 32, 
	 "gaussian": { 
		 "optdone": 1, 
		 "sigma_profile": "yes", 
		 "theory": "DFT", 
		 "functional": "B3LYP", 
		 "basiset": "6-31G**", 
		 "properties": { 
			 "R2extent": 7465.6312, 
			 "electric_dipole_moment_norm": 4.80280864911, 
			 "electric_quadrupole_moment_norm": 7.51931380114, 
			 "total_energy": -1323.56779831, 
			 "HOMO_LUMO_gap": 0.17894, 
			 "cosmo_polarized_energy": -12.96, 
			 "cosmo_cavitation_energy": 38.97, 
			 "cosmo_dispersion_energy": -26.77, 
			 "cosmo_repulsion_energy": 2.04, 
			 "cosmo_total_nonelectrostatic_energy": 14.24, 
			 "SMD_solvation_energy": 6.14 
		},
		"coords": [
			{
				"x": -0.1604235489,
				"y": 0.640863058,
				"z": 4.193488943,
				"element": "C" 
			},
			{
				"x": 0.5211089703,
				"y": 1.3203132239,
				"z": 3.0394672547,
				"element": "C" 
			},
			{
				"x": 1.0930646888,
				"y": 2.5702563449,
				"z": 3.1163702259,
				"element": "C" 
			},
			{
				"x": 1.7294831959,
				"y": 3.167673792,
				"z": 1.9900043148,
				"element": "C" 
			},
			{
				"x": 1.7896364467,
				"y": 2.5086785666,
				"z": 0.7966733294,
				"element": "C" 
			},
			{
				"x": 1.2235614098,
				"y": 1.2586849444,
				"z": 0.7023851789,
				"element": "N" 
			},
			{
				"x": 1.1323573204,
				"y": 0.3767323404,
				"z": -0.3533390738,
				"element": "C" 
			},
			{
				"x": 0.4599207079,
				"y": -0.7265327521,
				"z": 0.1378084,
				"element": "C" 
			},
			{
				"x": 0.1163830745,
				"y": -1.9726297349,
				"z": -0.6189489157,
				"element": "C" 
			},
			{
				"x": -1.3029763013,
				"y": -2.2141498412,
				"z": -0.7304424647,
				"element": "O" 
			},
			{
				"x": -2.0342480952,
				"y": -1.2783881948,
				"z": -1.4123346715,
				"element": "C" 
			},
			{
				"x": -2.1758622912,
				"y": -1.324313635,
				"z": -2.8089664332,
				"element": "C" 
			},
			{
				"x": -1.3470380496,
				"y": -2.5635628543,
				"z": -3.7319979448,
				"element": "Cl" 
			},
			{
				"x": -2.9848690608,
				"y": -0.4099347986,
				"z": -3.4835461726,
				"element": "C" 
			},
			{
				"x": -3.6533516288,
				"y": 0.5550917324,
				"z": -2.7400414786,
				"element": "C" 
			},
			{
				"x": -4.4373225081,
				"y": 1.4408255735,
				"z": -3.3896138489,
				"element": "F" 
			},
			{
				"x": -3.5420102117,
				"y": 0.6312133141,
				"z": -1.3565363998,
				"element": "C" 
			},
			{
				"x": -2.7272068418,
				"y": -0.2906437051,
				"z": -0.7028800992,
				"element": "C" 
			},
			{
				"x": 0.1234122902,
				"y": -0.5633066102,
				"z": 1.4541670025,
				"element": "N" 
			},
			{
				"x": 0.5852189745,
				"y": 0.6375905495,
				"z": 1.7911439435,
				"element": "C" 
			},
			{
				"x": -0.1416906943,
				"y": 1.2695534199,
				"z": 5.0871382949,
				"element": "H" 
			},
			{
				"x": -1.2018126418,
				"y": 0.4070730109,
				"z": 3.9481067896,
				"element": "H" 
			},
			{
				"x": 0.3239800173,
				"y": -0.3140972574,
				"z": 4.4229534961,
				"element": "H" 
			},
			{
				"x": 1.0605860027,
				"y": 3.1152853035,
				"z": 4.0550339076,
				"element": "H" 
			},
			{
				"x": 2.173360273,
				"y": 4.1533612234,
				"z": 2.070355482,
				"element": "H" 
			},
			{
				"x": 2.2563185251,
				"y": 2.9009709638,
				"z": -0.098489032,
				"element": "H" 
			},
			{
				"x": 1.5390616816,
				"y": 0.6036461624,
				"z": -1.3267535741,
				"element": "H" 
			},
			{
				"x": 0.572657971,
				"y": -1.9474624092,
				"z": -1.6155572554,
				"element": "H" 
			},
			{
				"x": 0.4879721946,
				"y": -2.8522702406,
				"z": -0.0878208601,
				"element": "H" 
			},
			{
				"x": -3.1004072837,
				"y": -0.4490489085,
				"z": -4.5598625441,
				"element": "H" 
			},
			{
				"x": -4.0843702425,
				"y": 1.3972098168,
				"z": -0.8136753642,
				"element": "H" 
			},
			{
				"x": -2.6059943447,
				"y": -0.2704823982,
				"z": 0.3745095698,
				"element": "H" 
			}
		],
		 "valence_orbital": [ 
			{
				"type": "occ",
				"energy": -0.27322,
				"method": "rhf"
			},
			{
				"type": "occ",
				"energy": -0.25613,
				"method": "rhf"
			},
			{
				"type": "occ",
				"energy": -0.24419,
				"method": "rhf"
			},
			{
				"type": "occ",
				"energy": -0.23436,
				"method": "rhf"
			},
			{
				"type": "occ",
				"energy": -0.21503,
				"method": "rhf"
			},
			{
				"type": "unocc",
				"energy": -0.03609,
				"method": "rhf"
			},
			{
				"type": "unocc",
				"energy": -0.01736,
				"method": "rhf"
			},
			{
				"type": "unocc",
				"energy": -0.00283,
				"method": "rhf"
			},
			{
				"type": "unocc",
				"energy": 0.00194,
				"method": "rhf"
			},
			{
				"type": "unocc",
				"energy": 0.0267,
				"method": "rhf"
			}
		],
		"cosmo_sigma_profile": { 
			"-0.025": 0.0,
			"-0.024": 0.0,
			"-0.023": 0.0,
			"-0.022": 0.0,
			"-0.021": 0.0,
			"-0.02": 0.0,
			"-0.019": 0.0,
			"-0.018": 0.0,
			"-0.017": 0.0,
			"-0.016": 0.0,
			"-0.015": 0.0,
			"-0.014": 0.0,
			"-0.013": 0.0,
			"-0.012": 0.0,
			"-0.011": 0.0,
			"-0.01": 0.684317541398,
			"-0.009": 4.68417374135,
			"-0.008": 6.75493005587,
			"-0.007": 8.41751400085,
			"-0.006": 15.9406383838,
			"-0.005": 18.0377264049,
			"-0.004": 19.0160540417,
			"-0.003": 18.5636094381,
			"-0.002": 18.2334153522,
			"-0.001": 21.2946882262,
			"0.0": 31.770984194,
			"0.001": 35.8919393241,
			"0.002": 32.8493618771,
			"0.003": 27.049152448,
			"0.004": 26.474071026,
			"0.005": 6.32440687448,
			"0.006": 3.11997079318,
			"0.007": 3.89224268619,
			"0.008": 2.81138851473,
			"0.009": 1.81768302126,
			"0.01": 3.68643584016,
			"0.011": 3.07584491687,
			"0.012": 0.763719329084,
			"0.013": 0.592065553197,
			"0.014": 1.07499659363,
			"0.015": 0.788791195819,
			"0.016": 0.513302336467,
			"0.017": 0.537985872904,
			"0.018": 0.0434468882665,
			"0.019": 0.0,
			"0.02": 0.0,
			"0.021": 0.0,
			"0.022": 0.0,
			"0.023": 0.0,
			"0.024": 0.0,
			"0.025": 0.0
		}
	}
}
