{
	 "smiles": "FC1=CC2=C(NC(S)=N2)C=C1Cl", 
	 "Tm": 573.15, 
	 "num_atms": 16, 
	 "gaussian": { 
		 "optdone": 1, 
		 "sigma_profile": "yes", 
		 "theory": "DFT", 
		 "functional": "B3LYP", 
		 "basiset": "6-31G**", 
		 "properties": { 
			 "R2extent": 3812.9047, 
			 "electric_dipole_moment_norm": 3.88027193119, 
			 "electric_quadrupole_moment_norm": 8.95532976221, 
			 "total_energy": -1336.87214056, 
			 "HOMO_LUMO_gap": 0.18915, 
			 "cosmo_polarized_energy": -12.83, 
			 "cosmo_cavitation_energy": 24.93, 
			 "cosmo_dispersion_energy": -19.37, 
			 "cosmo_repulsion_energy": 1.47, 
			 "cosmo_total_nonelectrostatic_energy": 7.03, 
			 "SMD_solvation_energy": 1.79 
		},
		"coords": [
			{
				"x": -3.592119689,
				"y": -0.2684771365,
				"z": -2.7665638574,
				"element": "F" 
			},
			{
				"x": -2.5898049526,
				"y": 0.0055960229,
				"z": -1.9129613661,
				"element": "C" 
			},
			{
				"x": -1.3545540454,
				"y": -0.5901479447,
				"z": -2.1136715188,
				"element": "C" 
			},
			{
				"x": -0.3346847318,
				"y": -0.2827856402,
				"z": -1.2069327624,
				"element": "C" 
			},
			{
				"x": -0.5901614865,
				"y": 0.607502854,
				"z": -0.1361074532,
				"element": "C" 
			},
			{
				"x": 0.6153910374,
				"y": 0.6823663865,
				"z": 0.5485861272,
				"element": "N" 
			},
			{
				"x": 1.4973339537,
				"y": -0.1363996563,
				"z": -0.1226778499,
				"element": "C" 
			},
			{
				"x": 3.1598377042,
				"y": -0.3117006837,
				"z": 0.4476853991,
				"element": "S" 
			},
			{
				"x": 0.9787469661,
				"y": -0.7287944574,
				"z": -1.1688806879,
				"element": "N" 
			},
			{
				"x": -1.8296076986,
				"y": 1.2073449278,
				"z": 0.0681188883,
				"element": "C" 
			},
			{
				"x": -2.8344176067,
				"y": 0.8901449978,
				"z": -0.8445087961,
				"element": "C" 
			},
			{
				"x": -4.4246180744,
				"y": 1.5939081093,
				"z": -0.670799584,
				"element": "Cl" 
			},
			{
				"x": -1.200822732,
				"y": -1.2661731883,
				"z": -2.9462693257,
				"element": "H" 
			},
			{
				"x": 0.810801166,
				"y": 1.2269667433,
				"z": 1.3741824979,
				"element": "H" 
			},
			{
				"x": 3.488964948,
				"y": -1.1663802112,
				"z": -0.5380097553,
				"element": "H" 
			},
			{
				"x": -2.0289847586,
				"y": 1.8893288766,
				"z": 0.8866100445,
				"element": "H" 
			}
		],
		 "valence_orbital": [ 
			{
				"type": "occ",
				"energy": -0.31675,
				"method": "rhf"
			},
			{
				"type": "occ",
				"energy": -0.29287,
				"method": "rhf"
			},
			{
				"type": "occ",
				"energy": -0.28518,
				"method": "rhf"
			},
			{
				"type": "occ",
				"energy": -0.24222,
				"method": "rhf"
			},
			{
				"type": "occ",
				"energy": -0.22311,
				"method": "rhf"
			},
			{
				"type": "unocc",
				"energy": -0.03396,
				"method": "rhf"
			},
			{
				"type": "unocc",
				"energy": -0.00886,
				"method": "rhf"
			},
			{
				"type": "unocc",
				"energy": 0.00868,
				"method": "rhf"
			},
			{
				"type": "unocc",
				"energy": 0.02124,
				"method": "rhf"
			},
			{
				"type": "unocc",
				"energy": 0.0356,
				"method": "rhf"
			}
		],
		"cosmo_sigma_profile": { 
			"-0.025": 0.0,
			"-0.024": 0.0,
			"-0.023": 0.0,
			"-0.022": 0.0,
			"-0.021": 0.0,
			"-0.02": 0.0,
			"-0.019": 0.0,
			"-0.018": 0.365861482259,
			"-0.017": 1.8798117252,
			"-0.016": 1.20390127461,
			"-0.015": 1.65568131342,
			"-0.014": 1.16049311684,
			"-0.013": 1.57765908281,
			"-0.012": 2.84821761559,
			"-0.011": 2.73242950666,
			"-0.01": 2.55829990957,
			"-0.009": 3.24513069273,
			"-0.008": 4.61616068216,
			"-0.007": 5.31755641752,
			"-0.006": 4.4192595988,
			"-0.005": 4.82439954397,
			"-0.004": 5.16421324724,
			"-0.003": 5.9725347676,
			"-0.002": 7.76167704429,
			"-0.001": 10.2746557286,
			"0.0": 18.8004075774,
			"0.001": 25.4332645785,
			"0.002": 25.4887201667,
			"0.003": 18.7871554551,
			"0.004": 22.3489294598,
			"0.005": 12.5153604911,
			"0.006": 4.9480044023,
			"0.007": 2.04407183232,
			"0.008": 1.03435495882,
			"0.009": 1.12258454311,
			"0.01": 0.969685590477,
			"0.011": 1.20363538675,
			"0.012": 0.93074426921,
			"0.013": 0.596839869226,
			"0.014": 0.912168101177,
			"0.015": 0.998308419545,
			"0.016": 0.382653081636,
			"0.017": 0.0,
			"0.018": 0.0,
			"0.019": 0.0,
			"0.02": 0.0,
			"0.021": 0.0,
			"0.022": 0.0,
			"0.023": 0.0,
			"0.024": 0.0,
			"0.025": 0.0
		}
	}
}
