{
	 "smiles": "CC1=CC=C(SC2=CC=C(C=O)C=C2[N+]([O-])=O)C=C1", 
	 "Tm": 413.15, 
	 "num_atms": 30, 
	 "gaussian": { 
		 "optdone": 1, 
		 "sigma_profile": "yes", 
		 "theory": "DFT", 
		 "functional": "B3LYP", 
		 "basiset": "6-31G**", 
		 "properties": { 
			 "R2extent": 8119.3551, 
			 "electric_dipole_moment_norm": 5.35989338887, 
			 "electric_quadrupole_moment_norm": 18.9583555584, 
			 "total_energy": -1218.62219298, 
			 "HOMO_LUMO_gap": 0.14734, 
			 "cosmo_polarized_energy": -13.19, 
			 "cosmo_cavitation_energy": 37.14, 
			 "cosmo_dispersion_energy": -26.7, 
			 "cosmo_repulsion_energy": 2.01, 
			 "cosmo_total_nonelectrostatic_energy": 12.44, 
			 "SMD_solvation_energy": 9.16 
		},
		"coords": [
			{
				"x": -0.0121725364,
				"y": -5.0144748479,
				"z": 0.2022810691,
				"element": "C" 
			},
			{
				"x": 0.4429542037,
				"y": -3.5750785975,
				"z": 0.2195763509,
				"element": "C" 
			},
			{
				"x": -0.292625894,
				"y": -2.59555353,
				"z": 0.9015900545,
				"element": "C" 
			},
			{
				"x": 0.1399691678,
				"y": -1.2710848934,
				"z": 0.9488466924,
				"element": "C" 
			},
			{
				"x": 1.3233507771,
				"y": -0.8960081941,
				"z": 0.29993296,
				"element": "C" 
			},
			{
				"x": 1.9543912452,
				"y": 0.7806020705,
				"z": 0.4669002603,
				"element": "S" 
			},
			{
				"x": 1.2443588077,
				"y": 1.6051029863,
				"z": -0.9405146922,
				"element": "C" 
			},
			{
				"x": 0.4076004691,
				"y": 0.9193528815,
				"z": -1.8509782091,
				"element": "C" 
			},
			{
				"x": -0.1484684502,
				"y": 1.5514293936,
				"z": -2.9477785574,
				"element": "C" 
			},
			{
				"x": 0.1014454328,
				"y": 2.9124643487,
				"z": -3.1984329511,
				"element": "C" 
			},
			{
				"x": -0.4930018674,
				"y": 3.5890734377,
				"z": -4.3713327471,
				"element": "C" 
			},
			{
				"x": -1.217455309,
				"y": 3.0410122169,
				"z": -5.1802573659,
				"element": "O" 
			},
			{
				"x": 0.9200925524,
				"y": 3.6137484113,
				"z": -2.3210920444,
				"element": "C" 
			},
			{
				"x": 1.481150569,
				"y": 2.9751367197,
				"z": -1.2140104073,
				"element": "C" 
			},
			{
				"x": 2.3275643652,
				"y": 3.7995496745,
				"z": -0.3516032296,
				"element": "N" 
			},
			{
				"x": 2.4902355375,
				"y": 4.9826001761,
				"z": -0.6507458925,
				"element": "O" 
			},
			{
				"x": 2.8353406286,
				"y": 3.2594602054,
				"z": 0.6353295076,
				"element": "O" 
			},
			{
				"x": 2.0711453871,
				"y": -1.8658769198,
				"z": -0.3801575283,
				"element": "C" 
			},
			{
				"x": 1.6284860786,
				"y": -3.187186206,
				"z": -0.4206778055,
				"element": "C" 
			},
			{
				"x": -1.1012562098,
				"y": -5.0912849771,
				"z": 0.2690535991,
				"element": "H" 
			},
			{
				"x": 0.3110011372,
				"y": -5.5260814333,
				"z": -0.7089336156,
				"element": "H" 
			},
			{
				"x": 0.4062710932,
				"y": -5.5675765323,
				"z": 1.0523399207,
				"element": "H" 
			},
			{
				"x": -1.2148875996,
				"y": -2.8733715203,
				"z": 1.4054568584,
				"element": "H" 
			},
			{
				"x": -0.4383237567,
				"y": -0.5264687322,
				"z": 1.4871852294,
				"element": "H" 
			},
			{
				"x": 0.199633937,
				"y": -0.1288796001,
				"z": -1.6804204958,
				"element": "H" 
			},
			{
				"x": -0.788537702,
				"y": 1.0073796213,
				"z": -3.6353970039,
				"element": "H" 
			},
			{
				"x": -0.2281836378,
				"y": 4.6643116975,
				"z": -4.4710891107,
				"element": "H" 
			},
			{
				"x": 1.1428953862,
				"y": 4.6642825863,
				"z": -2.4708752067,
				"element": "H" 
			},
			{
				"x": 2.9951218553,
				"y": -1.5838952761,
				"z": -0.8755734069,
				"element": "H" 
			},
			{
				"x": 2.215204332,
				"y": -3.9297851674,
				"z": -0.9554222324,
				"element": "H" 
			}
		],
		 "valence_orbital": [ 
			{
				"type": "occ",
				"energy": -0.29159,
				"method": "rhf"
			},
			{
				"type": "occ",
				"energy": -0.27254,
				"method": "rhf"
			},
			{
				"type": "occ",
				"energy": -0.26575,
				"method": "rhf"
			},
			{
				"type": "occ",
				"energy": -0.26129,
				"method": "rhf"
			},
			{
				"type": "occ",
				"energy": -0.24286,
				"method": "rhf"
			},
			{
				"type": "unocc",
				"energy": -0.09552,
				"method": "rhf"
			},
			{
				"type": "unocc",
				"energy": -0.07432,
				"method": "rhf"
			},
			{
				"type": "unocc",
				"energy": -0.03689,
				"method": "rhf"
			},
			{
				"type": "unocc",
				"energy": -0.02565,
				"method": "rhf"
			},
			{
				"type": "unocc",
				"energy": -0.0134,
				"method": "rhf"
			}
		],
		"cosmo_sigma_profile": { 
			"-0.025": 0.0,
			"-0.024": 0.0,
			"-0.023": 0.0,
			"-0.022": 0.0,
			"-0.021": 0.0,
			"-0.02": 0.0,
			"-0.019": 0.0,
			"-0.018": 0.0,
			"-0.017": 0.0,
			"-0.016": 0.0,
			"-0.015": 0.0,
			"-0.014": 0.0,
			"-0.013": 0.0,
			"-0.012": 0.0,
			"-0.011": 0.0,
			"-0.01": 0.292603250782,
			"-0.009": 2.00059776001,
			"-0.008": 3.41238570828,
			"-0.007": 8.56944413475,
			"-0.006": 14.7164416976,
			"-0.005": 20.2769921565,
			"-0.004": 23.8141105732,
			"-0.003": 22.5470091682,
			"-0.002": 28.4822830996,
			"-0.001": 34.4646917086,
			"0.0": 30.0896895317,
			"0.001": 17.5656587895,
			"0.002": 13.8661261888,
			"0.003": 13.3272697216,
			"0.004": 14.218769136,
			"0.005": 6.79681549846,
			"0.006": 7.25614235915,
			"0.007": 11.3181304715,
			"0.008": 9.018189905,
			"0.009": 6.69102944749,
			"0.01": 4.54145133891,
			"0.011": 4.54026398653,
			"0.012": 1.73230118065,
			"0.013": 0.261351617264,
			"0.014": 0.0,
			"0.015": 0.0,
			"0.016": 0.0,
			"0.017": 0.0,
			"0.018": 0.0,
			"0.019": 0.0,
			"0.02": 0.0,
			"0.021": 0.0,
			"0.022": 0.0,
			"0.023": 0.0,
			"0.024": 0.0,
			"0.025": 0.0
		}
	}
}
