{
	 "smiles": "OC[C@@H](O)CNCCC(F)(F)F", 
	 "Tm": 308.15, 
	 "num_atms": 24, 
	 "gaussian": { 
		 "optdone": 1, 
		 "sigma_profile": "yes", 
		 "theory": "DFT", 
		 "functional": "B3LYP", 
		 "basiset": "6-31G**", 
		 "properties": { 
			 "R2extent": 3779.9384, 
			 "electric_dipole_moment_norm": 2.54034461835, 
			 "electric_quadrupole_moment_norm": 14.5369571806, 
			 "total_energy": -740.579447528, 
			 "HOMO_LUMO_gap": 0.29282, 
			 "cosmo_polarized_energy": -13.61, 
			 "cosmo_cavitation_energy": 28.33, 
			 "cosmo_dispersion_energy": -19.53, 
			 "cosmo_repulsion_energy": 1.55, 
			 "cosmo_total_nonelectrostatic_energy": 10.36, 
			 "SMD_solvation_energy": 5.24 
		},
		"coords": [
			{
				"x": -2.6057358606,
				"y": -2.7566786459,
				"z": 0.2100563054,
				"element": "O" 
			},
			{
				"x": -1.6545522268,
				"y": -1.7931927508,
				"z": -0.2558194138,
				"element": "C" 
			},
			{
				"x": -0.9046802005,
				"y": -1.1835272764,
				"z": 0.9310165316,
				"element": "C" 
			},
			{
				"x": -0.3855282842,
				"y": -2.2160064917,
				"z": 1.7493141577,
				"element": "O" 
			},
			{
				"x": 0.2616340617,
				"y": -0.2955818576,
				"z": 0.5010219884,
				"element": "C" 
			},
			{
				"x": -0.22516009,
				"y": 0.8694162627,
				"z": -0.2322177081,
				"element": "N" 
			},
			{
				"x": 0.829229727,
				"y": 1.6844652086,
				"z": -0.8185990216,
				"element": "C" 
			},
			{
				"x": 0.2716083527,
				"y": 2.8964680823,
				"z": -1.5697515527,
				"element": "C" 
			},
			{
				"x": -0.630391312,
				"y": 2.5587605728,
				"z": -2.7409024184,
				"element": "C" 
			},
			{
				"x": -1.8322495583,
				"y": 2.0816218437,
				"z": -2.3580196859,
				"element": "F" 
			},
			{
				"x": -0.8668097245,
				"y": 3.6669405161,
				"z": -3.4851072004,
				"element": "F" 
			},
			{
				"x": -0.0682551171,
				"y": 1.6411749917,
				"z": -3.5589082009,
				"element": "F" 
			},
			{
				"x": -3.3587710083,
				"y": -2.2756143906,
				"z": 0.5783438719,
				"element": "H" 
			},
			{
				"x": -0.9494282581,
				"y": -2.352722248,
				"z": -0.8793792871,
				"element": "H" 
			},
			{
				"x": -2.1158690547,
				"y": -1.0126573072,
				"z": -0.8711930748,
				"element": "H" 
			},
			{
				"x": -1.6231139492,
				"y": -0.5643601733,
				"z": 1.507851582,
				"element": "H" 
			},
			{
				"x": -1.0570148078,
				"y": -2.9162657251,
				"z": 1.7274183796,
				"element": "H" 
			},
			{
				"x": 0.8608409161,
				"y": -0.045060865,
				"z": 1.3944720724,
				"element": "H" 
			},
			{
				"x": 0.9162969013,
				"y": -0.8754428139,
				"z": -0.1615428553,
				"element": "H" 
			},
			{
				"x": -0.7966274216,
				"y": 1.4442671537,
				"z": 0.3838330862,
				"element": "H" 
			},
			{
				"x": 1.563756263,
				"y": 2.0538510913,
				"z": -0.0781796402,
				"element": "H" 
			},
			{
				"x": 1.3884460129,
				"y": 1.0585506889,
				"z": -1.523594622,
				"element": "H" 
			},
			{
				"x": -0.2976658928,
				"y": 3.5511127045,
				"z": -0.9003460609,
				"element": "H" 
			},
			{
				"x": 1.1013405317,
				"y": 3.4883814291,
				"z": -1.9676672332,
				"element": "H" 
			}
		],
		 "valence_orbital": [ 
			{
				"type": "occ",
				"energy": -0.33858,
				"method": "rhf"
			},
			{
				"type": "occ",
				"energy": -0.33048,
				"method": "rhf"
			},
			{
				"type": "occ",
				"energy": -0.29079,
				"method": "rhf"
			},
			{
				"type": "occ",
				"energy": -0.25811,
				"method": "rhf"
			},
			{
				"type": "occ",
				"energy": -0.23165,
				"method": "rhf"
			},
			{
				"type": "unocc",
				"energy": 0.06117,
				"method": "rhf"
			},
			{
				"type": "unocc",
				"energy": 0.07035,
				"method": "rhf"
			},
			{
				"type": "unocc",
				"energy": 0.10072,
				"method": "rhf"
			},
			{
				"type": "unocc",
				"energy": 0.10607,
				"method": "rhf"
			},
			{
				"type": "unocc",
				"energy": 0.12091,
				"method": "rhf"
			}
		],
		"cosmo_sigma_profile": { 
			"-0.025": 0.0,
			"-0.024": 0.0,
			"-0.023": 0.0,
			"-0.022": 0.0,
			"-0.021": 0.0,
			"-0.02": 0.0,
			"-0.019": 0.0,
			"-0.018": 0.0,
			"-0.017": 0.0,
			"-0.016": 0.590073702383,
			"-0.015": 1.32251937402,
			"-0.014": 1.11769609632,
			"-0.013": 0.642352154187,
			"-0.012": 1.00716082927,
			"-0.011": 1.35984545299,
			"-0.01": 2.91121431965,
			"-0.009": 3.66458230538,
			"-0.008": 3.58680641062,
			"-0.007": 5.53915141339,
			"-0.006": 9.27816575863,
			"-0.005": 9.11242161924,
			"-0.004": 17.2206508236,
			"-0.003": 22.0673811767,
			"-0.002": 18.1238829898,
			"-0.001": 13.1583165087,
			"0.0": 10.0960155131,
			"0.001": 8.64896973307,
			"0.002": 10.1575331708,
			"0.003": 26.8170962734,
			"0.004": 19.4998798643,
			"0.005": 4.62775205603,
			"0.006": 3.78761366835,
			"0.007": 4.84320873458,
			"0.008": 2.22361397377,
			"0.009": 3.8953877344,
			"0.01": 2.89745272761,
			"0.011": 2.13708411804,
			"0.012": 2.57189110097,
			"0.013": 3.00856000645,
			"0.014": 3.07450301288,
			"0.015": 0.657669332211,
			"0.016": 0.0,
			"0.017": 0.0,
			"0.018": 0.0,
			"0.019": 0.0,
			"0.02": 0.0,
			"0.021": 0.0,
			"0.022": 0.0,
			"0.023": 0.0,
			"0.024": 0.0,
			"0.025": 0.0
		}
	}
}
