{
	 "smiles": "OC(=O)CCCC1=CC=C(Br)C=C1", 
	 "Tm": 341.15, 
	 "num_atms": 24, 
	 "gaussian": { 
		 "optdone": 1, 
		 "sigma_profile": "yes", 
		 "theory": "DFT", 
		 "functional": "B3LYP", 
		 "basiset": "6-31G**", 
		 "properties": { 
			 "R2extent": 8081.6664, 
			 "electric_dipole_moment_norm": 3.49673167115, 
			 "electric_quadrupole_moment_norm": 23.0466212083, 
			 "total_energy": -3109.56211409, 
			 "HOMO_LUMO_gap": 0.22252, 
			 "cosmo_polarized_energy": -16.4, 
			 "cosmo_cavitation_energy": 30.73, 
			 "cosmo_dispersion_energy": -22.01, 
			 "cosmo_repulsion_energy": 1.77, 
			 "cosmo_total_nonelectrostatic_energy": 10.49, 
			 "SMD_solvation_energy": 4.71 
		},
		"coords": [
			{
				"x": -4.492056795,
				"y": 1.4469334469,
				"z": -0.9339678048,
				"element": "O" 
			},
			{
				"x": -3.3721203561,
				"y": 1.3477091058,
				"z": -1.7065551502,
				"element": "C" 
			},
			{
				"x": -3.403188166,
				"y": 0.7108755203,
				"z": -2.7289501009,
				"element": "O" 
			},
			{
				"x": -2.1358609544,
				"y": 2.0507380583,
				"z": -1.1613777646,
				"element": "C" 
			},
			{
				"x": -1.5954271943,
				"y": 1.4001825218,
				"z": 0.1293083375,
				"element": "C" 
			},
			{
				"x": -1.1354272847,
				"y": -0.0584609297,
				"z": -0.0696387524,
				"element": "C" 
			},
			{
				"x": -0.6029415833,
				"y": -0.675480083,
				"z": 1.2051859212,
				"element": "C" 
			},
			{
				"x": 0.7396994568,
				"y": -0.5198769757,
				"z": 1.5753012153,
				"element": "C" 
			},
			{
				"x": 1.2312128239,
				"y": -1.0523890735,
				"z": 2.7671678223,
				"element": "C" 
			},
			{
				"x": 0.3647385127,
				"y": -1.7530863106,
				"z": 3.6040537836,
				"element": "C" 
			},
			{
				"x": 1.0262494418,
				"y": -2.4911723435,
				"z": 5.2396727026,
				"element": "Br" 
			},
			{
				"x": -0.9748932089,
				"y": -1.9285674226,
				"z": 3.2636022173,
				"element": "C" 
			},
			{
				"x": -1.4469524928,
				"y": -1.388319162,
				"z": 2.0669655119,
				"element": "C" 
			},
			{
				"x": -4.3196365126,
				"y": 2.0048720789,
				"z": -0.1624441119,
				"element": "H" 
			},
			{
				"x": -2.3748036456,
				"y": 3.1052503516,
				"z": -0.9698833252,
				"element": "H" 
			},
			{
				"x": -1.3794635254,
				"y": 2.0204541988,
				"z": -1.9490298459,
				"element": "H" 
			},
			{
				"x": -0.7550574327,
				"y": 1.9993319485,
				"z": 0.4977354491,
				"element": "H" 
			},
			{
				"x": -2.356132198,
				"y": 1.4323880216,
				"z": 0.9210382108,
				"element": "H" 
			},
			{
				"x": -0.3621186149,
				"y": -0.0812940691,
				"z": -0.8470662321,
				"element": "H" 
			},
			{
				"x": -1.9712354004,
				"y": -0.6569466041,
				"z": -0.4494660271,
				"element": "H" 
			},
			{
				"x": 1.4183922961,
				"y": 0.0205310595,
				"z": 0.9197243312,
				"element": "H" 
			},
			{
				"x": 2.2732723746,
				"y": -0.9294746666,
				"z": 3.0398702414,
				"element": "H" 
			},
			{
				"x": -1.6370245061,
				"y": -2.4824687195,
				"z": 3.9194398319,
				"element": "H" 
			},
			{
				"x": -2.4906250348,
				"y": -1.5325299522,
				"z": 1.798213539,
				"element": "H" 
			}
		],
		 "valence_orbital": [ 
			{
				"type": "occ",
				"energy": -0.30907,
				"method": "rhf"
			},
			{
				"type": "occ",
				"energy": -0.28836,
				"method": "rhf"
			},
			{
				"type": "occ",
				"energy": -0.27172,
				"method": "rhf"
			},
			{
				"type": "occ",
				"energy": -0.26667,
				"method": "rhf"
			},
			{
				"type": "occ",
				"energy": -0.24112,
				"method": "rhf"
			},
			{
				"type": "unocc",
				"energy": -0.0186,
				"method": "rhf"
			},
			{
				"type": "unocc",
				"energy": -0.01831,
				"method": "rhf"
			},
			{
				"type": "unocc",
				"energy": 0.00426,
				"method": "rhf"
			},
			{
				"type": "unocc",
				"energy": 0.00559,
				"method": "rhf"
			},
			{
				"type": "unocc",
				"energy": 0.04175,
				"method": "rhf"
			}
		],
		"cosmo_sigma_profile": { 
			"-0.025": 0.0,
			"-0.024": 0.0,
			"-0.023": 0.0,
			"-0.022": 0.0,
			"-0.021": 0.0,
			"-0.02": 0.0,
			"-0.019": 0.169335828848,
			"-0.018": 1.19310593018,
			"-0.017": 0.520414942887,
			"-0.016": 1.20624941832,
			"-0.015": 1.15683039327,
			"-0.014": 0.927579478042,
			"-0.013": 1.19762713387,
			"-0.012": 1.01444852711,
			"-0.011": 0.956153167447,
			"-0.01": 1.65295614989,
			"-0.009": 1.15394969579,
			"-0.008": 1.37284156284,
			"-0.007": 5.05488547281,
			"-0.006": 10.2397365645,
			"-0.005": 17.6341603758,
			"-0.004": 24.0603919674,
			"-0.003": 21.377090189,
			"-0.002": 16.0509803095,
			"-0.001": 15.4258638855,
			"0.0": 12.0939359945,
			"0.001": 12.5294696964,
			"0.002": 17.2499192831,
			"0.003": 17.3207685232,
			"0.004": 22.9083731181,
			"0.005": 13.1415455222,
			"0.006": 1.9964573106,
			"0.007": 2.41556889146,
			"0.008": 2.89700858219,
			"0.009": 2.68502729489,
			"0.01": 4.02028103211,
			"0.011": 5.89988673772,
			"0.012": 5.6967713658,
			"0.013": 3.05743087489,
			"0.014": 0.172014417689,
			"0.015": 0.0,
			"0.016": 0.0,
			"0.017": 0.0,
			"0.018": 0.0,
			"0.019": 0.0,
			"0.02": 0.0,
			"0.021": 0.0,
			"0.022": 0.0,
			"0.023": 0.0,
			"0.024": 0.0,
			"0.025": 0.0
		}
	}
}
