{
	 "smiles": "CCC(Br)=C/Br", 
	 "Tm": 223.65, 
	 "num_atms": 12, 
	 "gaussian": { 
		 "optdone": 1, 
		 "sigma_profile": "yes", 
		 "theory": "DFT", 
		 "functional": "B3LYP", 
		 "basiset": "6-31G**", 
		 "properties": { 
			 "R2extent": 2663.0724, 
			 "electric_dipole_moment_norm": 0.834746967649, 
			 "electric_quadrupole_moment_norm": 3.17670684829, 
			 "total_energy": -5298.83440929, 
			 "HOMO_LUMO_gap": 0.21709, 
			 "cosmo_polarized_energy": -2.62, 
			 "cosmo_cavitation_energy": 19.97, 
			 "cosmo_dispersion_energy": -15.35, 
			 "cosmo_repulsion_energy": 1.32, 
			 "cosmo_total_nonelectrostatic_energy": 5.94, 
			 "SMD_solvation_energy": 1.77 
		},
		"coords": [
			{
				"x": 0.9100910405,
				"y": -0.4959723343,
				"z": -2.8990143035,
				"element": "C" 
			},
			{
				"x": 0.4385870544,
				"y": 0.3444908276,
				"z": -1.7006583338,
				"element": "C" 
			},
			{
				"x": -0.5952323174,
				"y": -0.3403584054,
				"z": -0.8570409459,
				"element": "C" 
			},
			{
				"x": 0.0507074834,
				"y": -1.8533757077,
				"z": 0.1559259619,
				"element": "Br" 
			},
			{
				"x": -1.8898032929,
				"y": -0.0621001584,
				"z": -0.7147190004,
				"element": "C" 
			},
			{
				"x": -2.7563876888,
				"y": 1.3767424111,
				"z": -1.6196082686,
				"element": "Br" 
			},
			{
				"x": 1.3461768078,
				"y": -1.4428489942,
				"z": -2.5692616537,
				"element": "H" 
			},
			{
				"x": 0.0765717843,
				"y": -0.7191740956,
				"z": -3.5713302566,
				"element": "H" 
			},
			{
				"x": 1.6696217738,
				"y": 0.051313896,
				"z": -3.4650294145,
				"element": "H" 
			},
			{
				"x": 0.0097575589,
				"y": 1.2876345993,
				"z": -2.0525451694,
				"element": "H" 
			},
			{
				"x": 1.2964007223,
				"y": 0.5939590698,
				"z": -1.065303804,
				"element": "H" 
			},
			{
				"x": -2.5616909263,
				"y": -0.621411108,
				"z": -0.0796148115,
				"element": "H" 
			}
		],
		 "valence_orbital": [ 
			{
				"type": "occ",
				"energy": -0.34548,
				"method": "rhf"
			},
			{
				"type": "occ",
				"energy": -0.309,
				"method": "rhf"
			},
			{
				"type": "occ",
				"energy": -0.29601,
				"method": "rhf"
			},
			{
				"type": "occ",
				"energy": -0.2917,
				"method": "rhf"
			},
			{
				"type": "occ",
				"energy": -0.24426,
				"method": "rhf"
			},
			{
				"type": "unocc",
				"energy": -0.02717,
				"method": "rhf"
			},
			{
				"type": "unocc",
				"energy": -0.01294,
				"method": "rhf"
			},
			{
				"type": "unocc",
				"energy": 0.03514,
				"method": "rhf"
			},
			{
				"type": "unocc",
				"energy": 0.10678,
				"method": "rhf"
			},
			{
				"type": "unocc",
				"energy": 0.1412,
				"method": "rhf"
			}
		],
		"cosmo_sigma_profile": { 
			"-0.025": 0.0,
			"-0.024": 0.0,
			"-0.023": 0.0,
			"-0.022": 0.0,
			"-0.021": 0.0,
			"-0.02": 0.0,
			"-0.019": 0.0,
			"-0.018": 0.0,
			"-0.017": 0.0,
			"-0.016": 0.0,
			"-0.015": 0.0,
			"-0.014": 0.0,
			"-0.013": 0.0,
			"-0.012": 0.0,
			"-0.011": 0.0,
			"-0.01": 0.186505534874,
			"-0.009": 1.56661041647,
			"-0.008": 1.35606483524,
			"-0.007": 1.41398029815,
			"-0.006": 1.26932171182,
			"-0.005": 3.99195491914,
			"-0.004": 10.0662952714,
			"-0.003": 14.3729101201,
			"-0.002": 19.1142672297,
			"-0.001": 17.6265170909,
			"0.0": 19.777021915,
			"0.001": 16.8578280319,
			"0.002": 16.6170921217,
			"0.003": 15.9202621359,
			"0.004": 18.9006215339,
			"0.005": 5.74400124178,
			"0.006": 0.0,
			"0.007": 0.0,
			"0.008": 0.0,
			"0.009": 0.0,
			"0.01": 0.0,
			"0.011": 0.0,
			"0.012": 0.0,
			"0.013": 0.0,
			"0.014": 0.0,
			"0.015": 0.0,
			"0.016": 0.0,
			"0.017": 0.0,
			"0.018": 0.0,
			"0.019": 0.0,
			"0.02": 0.0,
			"0.021": 0.0,
			"0.022": 0.0,
			"0.023": 0.0,
			"0.024": 0.0,
			"0.025": 0.0
		}
	}
}
