{
	 "smiles": "NC(=S)NCC1=CC=C(Br)C=C1", 
	 "Tm": 433.15, 
	 "num_atms": 21, 
	 "gaussian": { 
		 "optdone": 1, 
		 "sigma_profile": "yes", 
		 "theory": "DFT", 
		 "functional": "B3LYP", 
		 "basiset": "6-31G**", 
		 "properties": { 
			 "R2extent": 6571.2615, 
			 "electric_dipole_moment_norm": 4.20303445739, 
			 "electric_quadrupole_moment_norm": 24.91216207, 
			 "total_energy": -3389.38760011, 
			 "HOMO_LUMO_gap": 0.17968, 
			 "cosmo_polarized_energy": -19.91, 
			 "cosmo_cavitation_energy": 29.48, 
			 "cosmo_dispersion_energy": -22.19, 
			 "cosmo_repulsion_energy": 1.76, 
			 "cosmo_total_nonelectrostatic_energy": 9.05, 
			 "SMD_solvation_energy": 2.73 
		},
		"coords": [
			{
				"x": -0.4167277632,
				"y": 2.2837059286,
				"z": 3.0508916062,
				"element": "N" 
			},
			{
				"x": -1.2083518574,
				"y": 2.2659995185,
				"z": 1.9322320241,
				"element": "C" 
			},
			{
				"x": -2.6817900688,
				"y": 3.0727375816,
				"z": 1.8908561019,
				"element": "S" 
			},
			{
				"x": -0.6814375496,
				"y": 1.5661028833,
				"z": 0.8898858829,
				"element": "N" 
			},
			{
				"x": -1.2668873744,
				"y": 1.5116140161,
				"z": -0.445136286,
				"element": "C" 
			},
			{
				"x": -0.9344956909,
				"y": 0.2088699911,
				"z": -1.140524828,
				"element": "C" 
			},
			{
				"x": -0.3447359929,
				"y": 0.2055705363,
				"z": -2.4086758627,
				"element": "C" 
			},
			{
				"x": -0.0588737348,
				"y": -0.9908084951,
				"z": -3.069833725,
				"element": "C" 
			},
			{
				"x": -0.3638274431,
				"y": -2.1974343898,
				"z": -2.4457958014,
				"element": "C" 
			},
			{
				"x": 0.0291333492,
				"y": -3.843542333,
				"z": -3.334234648,
				"element": "Br" 
			},
			{
				"x": -0.9501938694,
				"y": -2.2244959999,
				"z": -1.1797395056,
				"element": "C" 
			},
			{
				"x": -1.2324649154,
				"y": -1.021294532,
				"z": -0.5366162884,
				"element": "C" 
			},
			{
				"x": -0.8562084061,
				"y": 2.6600195083,
				"z": 3.8771838598,
				"element": "H" 
			},
			{
				"x": 0.25446466,
				"y": 1.541991332,
				"z": 3.2025265714,
				"element": "H" 
			},
			{
				"x": 0.2899853192,
				"y": 1.2889257411,
				"z": 0.9547065084,
				"element": "H" 
			},
			{
				"x": -0.927869101,
				"y": 2.3616678759,
				"z": -1.0523866653,
				"element": "H" 
			},
			{
				"x": -2.3466847758,
				"y": 1.632610648,
				"z": -0.3139568136,
				"element": "H" 
			},
			{
				"x": -0.1042013442,
				"y": 1.1486820218,
				"z": -2.8926983367,
				"element": "H" 
			},
			{
				"x": 0.3984879753,
				"y": -0.9836495865,
				"z": -4.052613529,
				"element": "H" 
			},
			{
				"x": -1.1856603612,
				"y": -3.1721186045,
				"z": -0.7086663028,
				"element": "H" 
			},
			{
				"x": -1.6916610554,
				"y": -1.0364536417,
				"z": 0.4478960379,
				"element": "H" 
			}
		],
		 "valence_orbital": [ 
			{
				"type": "occ",
				"energy": -0.27676,
				"method": "rhf"
			},
			{
				"type": "occ",
				"energy": -0.27046,
				"method": "rhf"
			},
			{
				"type": "occ",
				"energy": -0.24745,
				"method": "rhf"
			},
			{
				"type": "occ",
				"energy": -0.21996,
				"method": "rhf"
			},
			{
				"type": "occ",
				"energy": -0.2058,
				"method": "rhf"
			},
			{
				"type": "unocc",
				"energy": -0.02612,
				"method": "rhf"
			},
			{
				"type": "unocc",
				"energy": -0.02266,
				"method": "rhf"
			},
			{
				"type": "unocc",
				"energy": -0.00437,
				"method": "rhf"
			},
			{
				"type": "unocc",
				"energy": 0.00294,
				"method": "rhf"
			},
			{
				"type": "unocc",
				"energy": 0.05328,
				"method": "rhf"
			}
		],
		"cosmo_sigma_profile": { 
			"-0.025": 0.0,
			"-0.024": 0.0,
			"-0.023": 0.0,
			"-0.022": 0.0,
			"-0.021": 0.0,
			"-0.02": 0.0,
			"-0.019": 0.0,
			"-0.018": 0.0,
			"-0.017": 0.43178829218,
			"-0.016": 1.91350838237,
			"-0.015": 2.55544023656,
			"-0.014": 3.03803259376,
			"-0.013": 2.32208501001,
			"-0.012": 2.94187309473,
			"-0.011": 3.19388376614,
			"-0.01": 3.36989449709,
			"-0.009": 2.26653606812,
			"-0.008": 1.75901598311,
			"-0.007": 5.86465693192,
			"-0.006": 13.1850154238,
			"-0.005": 12.0798357629,
			"-0.004": 13.5060313877,
			"-0.003": 12.4359843237,
			"-0.002": 13.6025213054,
			"-0.001": 11.5376897787,
			"0.0": 13.1817105591,
			"0.001": 13.8091584749,
			"0.002": 18.5077453157,
			"0.003": 19.9721592633,
			"0.004": 20.5225716915,
			"0.005": 11.9854525044,
			"0.006": 4.35993157834,
			"0.007": 4.08574280827,
			"0.008": 4.58698337344,
			"0.009": 4.95543274766,
			"0.01": 5.83314721047,
			"0.011": 7.21317201381,
			"0.012": 4.9048174215,
			"0.013": 0.646929228738,
			"0.014": 0.0,
			"0.015": 0.0,
			"0.016": 0.0,
			"0.017": 0.0,
			"0.018": 0.0,
			"0.019": 0.0,
			"0.02": 0.0,
			"0.021": 0.0,
			"0.022": 0.0,
			"0.023": 0.0,
			"0.024": 0.0,
			"0.025": 0.0
		}
	}
}
