{
	 "smiles": "NNC1=NC=C(C=C1)[N+]([O-])=O", 
	 "Tm": 468.15, 
	 "num_atms": 17, 
	 "gaussian": { 
		 "optdone": 1, 
		 "sigma_profile": "yes", 
		 "theory": "DFT", 
		 "functional": "B3LYP", 
		 "basiset": "6-31G**", 
		 "properties": { 
			 "R2extent": 2269.8301, 
			 "electric_dipole_moment_norm": 5.77300449073, 
			 "electric_quadrupole_moment_norm": 14.509031802, 
			 "total_energy": -563.468271782, 
			 "HOMO_LUMO_gap": 0.1589, 
			 "cosmo_polarized_energy": -15.9, 
			 "cosmo_cavitation_energy": 22.4, 
			 "cosmo_dispersion_energy": -16.73, 
			 "cosmo_repulsion_energy": 1.35, 
			 "cosmo_total_nonelectrostatic_energy": 7.01, 
			 "SMD_solvation_energy": 5.33 
		},
		"coords": [
			{
				"x": -1.9863649027,
				"y": 1.1840920938,
				"z": -2.9233722388,
				"element": "N" 
			},
			{
				"x": -1.0654557409,
				"y": 0.2350610268,
				"z": -2.4843075742,
				"element": "N" 
			},
			{
				"x": -0.242765193,
				"y": 0.3530428313,
				"z": -1.4040178084,
				"element": "C" 
			},
			{
				"x": 0.5421871584,
				"y": -0.722831705,
				"z": -1.1731112992,
				"element": "N" 
			},
			{
				"x": 1.3721068497,
				"y": -0.6794886857,
				"z": -0.1381840682,
				"element": "C" 
			},
			{
				"x": 1.4622826878,
				"y": 0.4262148554,
				"z": 0.7127071486,
				"element": "C" 
			},
			{
				"x": 0.6528644676,
				"y": 1.5422640904,
				"z": 0.4794050467,
				"element": "C" 
			},
			{
				"x": -0.2165506082,
				"y": 1.5145300354,
				"z": -0.5935746081,
				"element": "C" 
			},
			{
				"x": 2.3887483721,
				"y": 0.4152298279,
				"z": 1.8293948077,
				"element": "N" 
			},
			{
				"x": 3.0807043806,
				"y": -0.5929124514,
				"z": 1.9924415459,
				"element": "O" 
			},
			{
				"x": 2.428964151,
				"y": 1.4164314054,
				"z": 2.549990758,
				"element": "O" 
			},
			{
				"x": -2.6668068834,
				"y": 1.3882774871,
				"z": -2.193859184,
				"element": "H" 
			},
			{
				"x": -1.5134213963,
				"y": 2.0468940216,
				"z": -3.1848067791,
				"element": "H" 
			},
			{
				"x": -1.0285958034,
				"y": -0.6341397783,
				"z": -2.9974976431,
				"element": "H" 
			},
			{
				"x": 1.9989417906,
				"y": -1.5477856833,
				"z": 0.0399351731,
				"element": "H" 
			},
			{
				"x": 0.7236037685,
				"y": 2.3987302798,
				"z": 1.1391588831,
				"element": "H" 
			},
			{
				"x": -0.8604430986,
				"y": 2.3582903487,
				"z": -0.81030216,
				"element": "H" 
			}
		],
		 "valence_orbital": [ 
			{
				"type": "occ",
				"energy": -0.29947,
				"method": "rhf"
			},
			{
				"type": "occ",
				"energy": -0.29634,
				"method": "rhf"
			},
			{
				"type": "occ",
				"energy": -0.28438,
				"method": "rhf"
			},
			{
				"type": "occ",
				"energy": -0.2799,
				"method": "rhf"
			},
			{
				"type": "occ",
				"energy": -0.23953,
				"method": "rhf"
			},
			{
				"type": "unocc",
				"energy": -0.08063,
				"method": "rhf"
			},
			{
				"type": "unocc",
				"energy": -0.04233,
				"method": "rhf"
			},
			{
				"type": "unocc",
				"energy": 0.01045,
				"method": "rhf"
			},
			{
				"type": "unocc",
				"energy": 0.05053,
				"method": "rhf"
			},
			{
				"type": "unocc",
				"energy": 0.09434,
				"method": "rhf"
			}
		],
		"cosmo_sigma_profile": { 
			"-0.025": 0.0,
			"-0.024": 0.0,
			"-0.023": 0.0,
			"-0.022": 0.0,
			"-0.021": 0.0,
			"-0.02": 0.0,
			"-0.019": 0.0,
			"-0.018": 0.0,
			"-0.017": 0.0,
			"-0.016": 0.0,
			"-0.015": 0.0,
			"-0.014": 0.562946160911,
			"-0.013": 1.21568285858,
			"-0.012": 3.51218391502,
			"-0.011": 4.92240651261,
			"-0.01": 5.31670361425,
			"-0.009": 4.43698090142,
			"-0.008": 6.01787894566,
			"-0.007": 5.91976477843,
			"-0.006": 6.2959746042,
			"-0.005": 6.59540228387,
			"-0.004": 7.91810595081,
			"-0.003": 7.73196957297,
			"-0.002": 12.301464848,
			"-0.001": 15.2710041259,
			"0.0": 14.0773359097,
			"0.001": 11.6256070491,
			"0.002": 8.070538634,
			"0.003": 5.06156210896,
			"0.004": 4.7871725964,
			"0.005": 3.54756787103,
			"0.006": 4.82682380939,
			"0.007": 5.7568642402,
			"0.008": 11.2694838938,
			"0.009": 7.75062777229,
			"0.01": 5.95795513178,
			"0.011": 3.4640557586,
			"0.012": 1.44515614026,
			"0.013": 1.28673919869,
			"0.014": 1.03221317061,
			"0.015": 0.508425117477,
			"0.016": 0.155003639131,
			"0.017": 0.0,
			"0.018": 0.0,
			"0.019": 0.0,
			"0.02": 0.0,
			"0.021": 0.0,
			"0.022": 0.0,
			"0.023": 0.0,
			"0.024": 0.0,
			"0.025": 0.0
		}
	}
}
