{
	 "smiles": "[O-][N+](=O)C1=CC2=C(OC(CCl)=N2)C=C1", 
	 "Tm": 389.15, 
	 "num_atms": 19, 
	 "gaussian": { 
		 "optdone": 1, 
		 "sigma_profile": "yes", 
		 "theory": "DFT", 
		 "functional": "B3LYP", 
		 "basiset": "6-31G**", 
		 "properties": { 
			 "R2extent": 5450.7131, 
			 "electric_dipole_moment_norm": 4.27161778019, 
			 "electric_quadrupole_moment_norm": 14.7146770981, 
			 "total_energy": -1103.1284925, 
			 "HOMO_LUMO_gap": 0.1789, 
			 "cosmo_polarized_energy": -11.75, 
			 "cosmo_cavitation_energy": 26.94, 
			 "cosmo_dispersion_energy": -20.14, 
			 "cosmo_repulsion_energy": 1.58, 
			 "cosmo_total_nonelectrostatic_energy": 8.39, 
			 "SMD_solvation_energy": 4.86 
		},
		"coords": [
			{
				"x": 3.0557744125,
				"y": 1.7177961844,
				"z": 1.8421946411,
				"element": "O" 
			},
			{
				"x": 2.0862437378,
				"y": 2.407099972,
				"z": 1.5275305398,
				"element": "N" 
			},
			{
				"x": 2.0444759296,
				"y": 3.634108659,
				"z": 1.6007604968,
				"element": "O" 
			},
			{
				"x": 0.8875324803,
				"y": 1.713109703,
				"z": 1.0254843354,
				"element": "C" 
			},
			{
				"x": -0.2160358047,
				"y": 2.483116941,
				"z": 0.666450007,
				"element": "C" 
			},
			{
				"x": -1.3218610911,
				"y": 1.7765643687,
				"z": 0.1981774109,
				"element": "C" 
			},
			{
				"x": -1.281181109,
				"y": 0.374925842,
				"z": 0.1089910718,
				"element": "C" 
			},
			{
				"x": -2.4863451052,
				"y": -0.0398779101,
				"z": -0.3815672544,
				"element": "O" 
			},
			{
				"x": -3.1957079713,
				"y": 1.1292484031,
				"z": -0.5571420817,
				"element": "C" 
			},
			{
				"x": -4.5743813822,
				"y": 1.0106645985,
				"z": -1.0904628368,
				"element": "C" 
			},
			{
				"x": -5.7155774218,
				"y": 0.306171221,
				"z": 0.1380734519,
				"element": "Cl" 
			},
			{
				"x": -2.5714548501,
				"y": 2.2159949863,
				"z": -0.2381247778,
				"element": "N" 
			},
			{
				"x": -0.1809379442,
				"y": -0.3940176217,
				"z": 0.4668811679,
				"element": "C" 
			},
			{
				"x": 0.9243597559,
				"y": 0.3106140489,
				"z": 0.936031975,
				"element": "C" 
			},
			{
				"x": -0.1994077201,
				"y": 3.5613970943,
				"z": 0.7530434169,
				"element": "H" 
			},
			{
				"x": -4.6085691368,
				"y": 0.3499163559,
				"z": -1.9572953878,
				"element": "H" 
			},
			{
				"x": -4.9396931752,
				"y": 2.0025213177,
				"z": -1.3486088216,
				"element": "H" 
			},
			{
				"x": -0.1809313691,
				"y": -1.4746536484,
				"z": 0.3879308285,
				"element": "H" 
			},
			{
				"x": 1.8280977646,
				"y": -0.2017005157,
				"z": 1.239551817,
				"element": "H" 
			}
		],
		 "valence_orbital": [ 
			{
				"type": "occ",
				"energy": -0.31477,
				"method": "rhf"
			},
			{
				"type": "occ",
				"energy": -0.31314,
				"method": "rhf"
			},
			{
				"type": "occ",
				"energy": -0.29617,
				"method": "rhf"
			},
			{
				"type": "occ",
				"energy": -0.28422,
				"method": "rhf"
			},
			{
				"type": "occ",
				"energy": -0.27247,
				"method": "rhf"
			},
			{
				"type": "unocc",
				"energy": -0.09357,
				"method": "rhf"
			},
			{
				"type": "unocc",
				"energy": -0.07053,
				"method": "rhf"
			},
			{
				"type": "unocc",
				"energy": -0.0177,
				"method": "rhf"
			},
			{
				"type": "unocc",
				"energy": 0.00417,
				"method": "rhf"
			},
			{
				"type": "unocc",
				"energy": 0.03558,
				"method": "rhf"
			}
		],
		"cosmo_sigma_profile": { 
			"-0.025": 0.0,
			"-0.024": 0.0,
			"-0.023": 0.0,
			"-0.022": 0.0,
			"-0.021": 0.0,
			"-0.02": 0.0,
			"-0.019": 0.0,
			"-0.018": 0.0,
			"-0.017": 0.0,
			"-0.016": 0.0,
			"-0.015": 0.0,
			"-0.014": 0.0,
			"-0.013": 0.0,
			"-0.012": 0.0,
			"-0.011": 0.0212822962694,
			"-0.01": 3.42141184512,
			"-0.009": 6.62780971751,
			"-0.008": 7.50095187625,
			"-0.007": 10.2867401531,
			"-0.006": 10.4643764162,
			"-0.005": 9.72272204008,
			"-0.004": 9.72326649923,
			"-0.003": 11.918849327,
			"-0.002": 17.8991929249,
			"-0.001": 20.2793326956,
			"0.0": 17.6764870248,
			"0.001": 13.3739610537,
			"0.002": 10.1035087547,
			"0.003": 9.06506804516,
			"0.004": 11.3595567628,
			"0.005": 14.6255975821,
			"0.006": 7.7273524043,
			"0.007": 9.06885094796,
			"0.008": 7.66973934438,
			"0.009": 5.06170898862,
			"0.01": 3.40252600588,
			"0.011": 0.999442984591,
			"0.012": 0.539190774292,
			"0.013": 0.978392329759,
			"0.014": 0.354373388675,
			"0.015": 0.0,
			"0.016": 0.0,
			"0.017": 0.0,
			"0.018": 0.0,
			"0.019": 0.0,
			"0.02": 0.0,
			"0.021": 0.0,
			"0.022": 0.0,
			"0.023": 0.0,
			"0.024": 0.0,
			"0.025": 0.0
		}
	}
}
