{
	 "smiles": "CCS(=O)(=O)C1=C(C=CC=C1)C(O)=O", 
	 "Tm": 324.15, 
	 "num_atms": 24, 
	 "gaussian": { 
		 "optdone": 1, 
		 "sigma_profile": "yes", 
		 "theory": "DFT", 
		 "functional": "B3LYP", 
		 "basiset": "6-31G**", 
		 "properties": { 
			 "R2extent": 3551.1791, 
			 "electric_dipole_moment_norm": 4.11402433148, 
			 "electric_quadrupole_moment_norm": 29.3491228005, 
			 "total_energy": -1048.01896021, 
			 "HOMO_LUMO_gap": 0.19991, 
			 "cosmo_polarized_energy": -16.13, 
			 "cosmo_cavitation_energy": 28.51, 
			 "cosmo_dispersion_energy": -21.27, 
			 "cosmo_repulsion_energy": 1.61, 
			 "cosmo_total_nonelectrostatic_energy": 8.84, 
			 "SMD_solvation_energy": 5.49 
		},
		"coords": [
			{
				"x": -3.1103033323,
				"y": -0.7564311113,
				"z": -0.2633111601,
				"element": "C" 
			},
			{
				"x": -1.7680628467,
				"y": -0.2961582005,
				"z": 0.3043409894,
				"element": "C" 
			},
			{
				"x": -0.4437528187,
				"y": -1.4314173695,
				"z": -0.2112512233,
				"element": "S" 
			},
			{
				"x": -0.356938161,
				"y": -1.4052196071,
				"z": -1.6774209665,
				"element": "O" 
			},
			{
				"x": -0.6658216989,
				"y": -2.741576059,
				"z": 0.4623093649,
				"element": "O" 
			},
			{
				"x": 1.0890064944,
				"y": -0.7305876974,
				"z": 0.460732907,
				"element": "C" 
			},
			{
				"x": 1.3912693605,
				"y": -0.6043020073,
				"z": 1.8365736593,
				"element": "C" 
			},
			{
				"x": 2.635474169,
				"y": -0.0477283177,
				"z": 2.170147482,
				"element": "C" 
			},
			{
				"x": 3.5545988697,
				"y": 0.3366661155,
				"z": 1.1974070593,
				"element": "C" 
			},
			{
				"x": 3.239488873,
				"y": 0.1964470472,
				"z": -0.1526867601,
				"element": "C" 
			},
			{
				"x": 2.0013789872,
				"y": -0.3282593907,
				"z": -0.518765808,
				"element": "C" 
			},
			{
				"x": 0.5236629335,
				"y": -0.9310590549,
				"z": 3.0461918504,
				"element": "C" 
			},
			{
				"x": -0.4174243442,
				"y": -1.8763107207,
				"z": 2.9554615805,
				"element": "O" 
			},
			{
				"x": 0.697566652,
				"y": -0.3331217594,
				"z": 4.0863017576,
				"element": "O" 
			},
			{
				"x": -3.0886680796,
				"y": -0.773211918,
				"z": -1.355149059,
				"element": "H" 
			},
			{
				"x": -3.8898699398,
				"y": -0.0614795782,
				"z": 0.0604043123,
				"element": "H" 
			},
			{
				"x": -3.3657938548,
				"y": -1.7547022667,
				"z": 0.0998125967,
				"element": "H" 
			},
			{
				"x": -1.4736156002,
				"y": 0.6894598115,
				"z": -0.066793739,
				"element": "H" 
			},
			{
				"x": -1.7628269512,
				"y": -0.2919473926,
				"z": 1.3969894866,
				"element": "H" 
			},
			{
				"x": 2.8547436713,
				"y": 0.0791732954,
				"z": 3.2239314115,
				"element": "H" 
			},
			{
				"x": 4.5123130369,
				"y": 0.7509894934,
				"z": 1.4971275705,
				"element": "H" 
			},
			{
				"x": 3.94578296,
				"y": 0.4964911085,
				"z": -0.9204255255,
				"element": "H" 
			},
			{
				"x": 1.7281394507,
				"y": -0.4386988246,
				"z": -1.5619795677,
				"element": "H" 
			},
			{
				"x": -0.4142478307,
				"y": -2.3661155961,
				"z": 2.0972517813,
				"element": "H" 
			}
		],
		 "valence_orbital": [ 
			{
				"type": "occ",
				"energy": -0.31567,
				"method": "rhf"
			},
			{
				"type": "occ",
				"energy": -0.3094,
				"method": "rhf"
			},
			{
				"type": "occ",
				"energy": -0.29171,
				"method": "rhf"
			},
			{
				"type": "occ",
				"energy": -0.28978,
				"method": "rhf"
			},
			{
				"type": "occ",
				"energy": -0.2723,
				"method": "rhf"
			},
			{
				"type": "unocc",
				"energy": -0.07239,
				"method": "rhf"
			},
			{
				"type": "unocc",
				"energy": -0.04385,
				"method": "rhf"
			},
			{
				"type": "unocc",
				"energy": 0.03352,
				"method": "rhf"
			},
			{
				"type": "unocc",
				"energy": 0.04241,
				"method": "rhf"
			},
			{
				"type": "unocc",
				"energy": 0.04688,
				"method": "rhf"
			}
		],
		"cosmo_sigma_profile": { 
			"-0.025": 0.0,
			"-0.024": 0.0,
			"-0.023": 0.0,
			"-0.022": 0.0,
			"-0.021": 0.0,
			"-0.02": 0.0,
			"-0.019": 0.0,
			"-0.018": 0.0,
			"-0.017": 0.0,
			"-0.016": 0.0,
			"-0.015": 0.0,
			"-0.014": 0.0,
			"-0.013": 0.0,
			"-0.012": 0.0,
			"-0.011": 0.0,
			"-0.01": 0.370833394109,
			"-0.009": 3.70324079691,
			"-0.008": 7.48923060409,
			"-0.007": 13.1895230185,
			"-0.006": 15.1119308986,
			"-0.005": 19.0179912378,
			"-0.004": 15.1752696245,
			"-0.003": 17.4506961569,
			"-0.002": 16.5738541633,
			"-0.001": 17.569178257,
			"0.0": 15.6906920371,
			"0.001": 16.7416745062,
			"0.002": 8.39165113809,
			"0.003": 4.13990047876,
			"0.004": 4.69118779468,
			"0.005": 4.67211463538,
			"0.006": 4.42362767186,
			"0.007": 4.0024850285,
			"0.008": 6.98555452161,
			"0.009": 6.50546138381,
			"0.01": 10.6687595966,
			"0.011": 9.99938983163,
			"0.012": 3.91573114008,
			"0.013": 1.29193398696,
			"0.014": 0.0,
			"0.015": 0.0,
			"0.016": 0.0,
			"0.017": 0.0,
			"0.018": 0.0,
			"0.019": 0.0,
			"0.02": 0.0,
			"0.021": 0.0,
			"0.022": 0.0,
			"0.023": 0.0,
			"0.024": 0.0,
			"0.025": 0.0
		}
	}
}
