{
	 "smiles": "NC1=CC(=NO1)C1=CC=C(C=C1)[N+]([O-])=O", 
	 "Tm": 469.15, 
	 "num_atms": 22, 
	 "gaussian": { 
		 "optdone": 1, 
		 "sigma_profile": "yes", 
		 "theory": "DFT", 
		 "functional": "B3LYP", 
		 "basiset": "6-31G**", 
		 "properties": { 
			 "R2extent": 4527.3865, 
			 "electric_dipole_moment_norm": 7.46046929757, 
			 "electric_quadrupole_moment_norm": 19.3807245203, 
			 "total_energy": -736.955796395, 
			 "HOMO_LUMO_gap": 0.14038, 
			 "cosmo_polarized_energy": -17.29, 
			 "cosmo_cavitation_energy": 28.12, 
			 "cosmo_dispersion_energy": -20.95, 
			 "cosmo_repulsion_energy": 1.62, 
			 "cosmo_total_nonelectrostatic_energy": 8.8, 
			 "SMD_solvation_energy": 7.24 
		},
		"coords": [
			{
				"x": -2.9736327483,
				"y": -0.83406621,
				"z": -4.0559736156,
				"element": "N" 
			},
			{
				"x": -2.0259773582,
				"y": -0.5057491905,
				"z": -3.1224181461,
				"element": "C" 
			},
			{
				"x": -2.0682334103,
				"y": -0.2698732562,
				"z": -1.7730296834,
				"element": "C" 
			},
			{
				"x": -0.6999953102,
				"y": -0.0592866331,
				"z": -1.4329229247,
				"element": "C" 
			},
			{
				"x": 0.0963514379,
				"y": -0.1572514595,
				"z": -2.4829540523,
				"element": "N" 
			},
			{
				"x": -0.7567267948,
				"y": -0.4418944153,
				"z": -3.5654568631,
				"element": "O" 
			},
			{
				"x": -0.1197043423,
				"y": 0.2393675659,
				"z": -0.1111417207,
				"element": "C" 
			},
			{
				"x": 1.2673442892,
				"y": 0.4345398678,
				"z": 0.0237891138,
				"element": "C" 
			},
			{
				"x": 1.8253475512,
				"y": 0.7167979931,
				"z": 1.263467759,
				"element": "C" 
			},
			{
				"x": 0.9867392976,
				"y": 0.8043170515,
				"z": 2.3751910558,
				"element": "C" 
			},
			{
				"x": -0.3895136447,
				"y": 0.6159620961,
				"z": 2.2749283739,
				"element": "C" 
			},
			{
				"x": -0.9360162417,
				"y": 0.3333747364,
				"z": 1.0273404781,
				"element": "C" 
			},
			{
				"x": 1.570759281,
				"y": 1.1038487837,
				"z": 3.6904851099,
				"element": "N" 
			},
			{
				"x": 0.8057101726,
				"y": 1.1751785847,
				"z": 4.652648075,
				"element": "O" 
			},
			{
				"x": 2.7894054602,
				"y": 1.2655539625,
				"z": 3.7507811903,
				"element": "O" 
			},
			{
				"x": -3.9172574811,
				"y": -0.5462341966,
				"z": -3.843226576,
				"element": "H" 
			},
			{
				"x": -2.7014641062,
				"y": -0.6718070836,
				"z": -5.0160116584,
				"element": "H" 
			},
			{
				"x": -2.9365367112,
				"y": -0.2583773716,
				"z": -1.1348035074,
				"element": "H" 
			},
			{
				"x": 1.8965496093,
				"y": 0.3610765535,
				"z": -0.8557937016,
				"element": "H" 
			},
			{
				"x": 2.8900400194,
				"y": 0.8700278306,
				"z": 1.3868266363,
				"element": "H" 
			},
			{
				"x": -1.0038014547,
				"y": 0.6919893605,
				"z": 3.1631550813,
				"element": "H" 
			},
			{
				"x": -2.0069875149,
				"y": 0.1842054302,
				"z": 0.9429195762,
				"element": "H" 
			}
		],
		 "valence_orbital": [ 
			{
				"type": "occ",
				"energy": -0.30418,
				"method": "rhf"
			},
			{
				"type": "occ",
				"energy": -0.28814,
				"method": "rhf"
			},
			{
				"type": "occ",
				"energy": -0.27808,
				"method": "rhf"
			},
			{
				"type": "occ",
				"energy": -0.26164,
				"method": "rhf"
			},
			{
				"type": "occ",
				"energy": -0.23232,
				"method": "rhf"
			},
			{
				"type": "unocc",
				"energy": -0.09194,
				"method": "rhf"
			},
			{
				"type": "unocc",
				"energy": -0.02862,
				"method": "rhf"
			},
			{
				"type": "unocc",
				"energy": -0.02449,
				"method": "rhf"
			},
			{
				"type": "unocc",
				"energy": 0.02182,
				"method": "rhf"
			},
			{
				"type": "unocc",
				"energy": 0.05036,
				"method": "rhf"
			}
		],
		"cosmo_sigma_profile": { 
			"-0.025": 0.0,
			"-0.024": 0.0,
			"-0.023": 0.0,
			"-0.022": 0.0,
			"-0.021": 0.0,
			"-0.02": 0.0,
			"-0.019": 0.0,
			"-0.018": 0.0,
			"-0.017": 0.0,
			"-0.016": 0.0,
			"-0.015": 1.38096855389,
			"-0.014": 2.58140463162,
			"-0.013": 3.12226190716,
			"-0.012": 2.82612237872,
			"-0.011": 2.56149623195,
			"-0.01": 1.91017236754,
			"-0.009": 4.70944132375,
			"-0.008": 6.36473761903,
			"-0.007": 9.8090287054,
			"-0.006": 10.0371324096,
			"-0.005": 8.13171288224,
			"-0.004": 9.25724148485,
			"-0.003": 9.89230249392,
			"-0.002": 11.1004320244,
			"-0.001": 13.6648190483,
			"0.0": 18.9180091504,
			"0.001": 23.9464684136,
			"0.002": 14.8359363881,
			"0.003": 9.4608304298,
			"0.004": 6.48889527616,
			"0.005": 6.9795482181,
			"0.006": 7.13706127114,
			"0.007": 11.0012411566,
			"0.008": 12.75421532,
			"0.009": 7.6306844592,
			"0.01": 5.04959657575,
			"0.011": 1.87395440821,
			"0.012": 1.57810349778,
			"0.013": 1.02595544115,
			"0.014": 0.231187893633,
			"0.015": 0.0,
			"0.016": 0.0,
			"0.017": 0.0,
			"0.018": 0.0,
			"0.019": 0.0,
			"0.02": 0.0,
			"0.021": 0.0,
			"0.022": 0.0,
			"0.023": 0.0,
			"0.024": 0.0,
			"0.025": 0.0
		}
	}
}
