{
	 "smiles": "OC(=O)CCNC1=C(C=C(C=C1)C(F)(F)F)[N+]([O-])=O", 
	 "Tm": 405.15, 
	 "num_atms": 28, 
	 "gaussian": { 
		 "optdone": 1, 
		 "sigma_profile": "yes", 
		 "theory": "DFT", 
		 "functional": "B3LYP", 
		 "basiset": "6-31G**", 
		 "properties": { 
			 "R2extent": 7464.8704, 
			 "electric_dipole_moment_norm": 3.21699941405, 
			 "electric_quadrupole_moment_norm": 28.9550622391, 
			 "total_energy": -1096.32854469, 
			 "HOMO_LUMO_gap": 0.14052, 
			 "cosmo_polarized_energy": -22.16, 
			 "cosmo_cavitation_energy": 35.05, 
			 "cosmo_dispersion_energy": -24.6, 
			 "cosmo_repulsion_energy": 1.85, 
			 "cosmo_total_nonelectrostatic_energy": 12.29, 
			 "SMD_solvation_energy": 9.53 
		},
		"coords": [
			{
				"x": -3.7086812733,
				"y": 3.0703005621,
				"z": 1.1730835607,
				"element": "O" 
			},
			{
				"x": -2.5719583141,
				"y": 3.1067056198,
				"z": 0.4320212578,
				"element": "C" 
			},
			{
				"x": -1.920456238,
				"y": 4.1192099722,
				"z": 0.3660052259,
				"element": "O" 
			},
			{
				"x": -2.1983229963,
				"y": 1.8086482974,
				"z": -0.2721616055,
				"element": "C" 
			},
			{
				"x": -0.9619849924,
				"y": 1.9867943461,
				"z": -1.1697556635,
				"element": "C" 
			},
			{
				"x": -0.5475839109,
				"y": 0.7566887216,
				"z": -1.8190544783,
				"element": "N" 
			},
			{
				"x": 0.1984659592,
				"y": -0.2253062746,
				"z": -1.2558490487,
				"element": "C" 
			},
			{
				"x": 0.5311238739,
				"y": -1.4375415889,
				"z": -1.9409070761,
				"element": "C" 
			},
			{
				"x": 1.3156950502,
				"y": -2.4286781115,
				"z": -1.3372708762,
				"element": "C" 
			},
			{
				"x": 1.7951195908,
				"y": -2.2644377416,
				"z": -0.0523625183,
				"element": "C" 
			},
			{
				"x": 1.4836031169,
				"y": -1.0822437071,
				"z": 0.6457086351,
				"element": "C" 
			},
			{
				"x": 0.7104975615,
				"y": -0.0989933914,
				"z": 0.0673969117,
				"element": "C" 
			},
			{
				"x": 2.6117364672,
				"y": -3.3274262875,
				"z": 0.6213584124,
				"element": "C" 
			},
			{
				"x": 3.7436751312,
				"y": -2.8136704691,
				"z": 1.1577474977,
				"element": "F" 
			},
			{
				"x": 2.9703200341,
				"y": -4.310870605,
				"z": -0.2280154821,
				"element": "F" 
			},
			{
				"x": 1.9335880617,
				"y": -3.9032911584,
				"z": 1.6432455104,
				"element": "F" 
			},
			{
				"x": 0.0785380588,
				"y": -1.7139353779,
				"z": -3.2918604441,
				"element": "N" 
			},
			{
				"x": 0.4042684844,
				"y": -2.7769727047,
				"z": -3.8168909499,
				"element": "O" 
			},
			{
				"x": -0.6287168175,
				"y": -0.8678623367,
				"z": -3.8760504244,
				"element": "O" 
			},
			{
				"x": -4.1208491913,
				"y": 2.1958327817,
				"z": 1.1237993541,
				"element": "H" 
			},
			{
				"x": -3.0494615999,
				"y": 1.4552285046,
				"z": -0.8684320841,
				"element": "H" 
			},
			{
				"x": -2.0123864103,
				"y": 1.0362963492,
				"z": 0.4858850458,
				"element": "H" 
			},
			{
				"x": -1.1863120077,
				"y": 2.7145557739,
				"z": -1.9528387957,
				"element": "H" 
			},
			{
				"x": -0.1428254929,
				"y": 2.4178539396,
				"z": -0.5884410469,
				"element": "H" 
			},
			{
				"x": -0.8650376657,
				"y": 0.5511209722,
				"z": -2.7602163598,
				"element": "H" 
			},
			{
				"x": 1.5345324939,
				"y": -3.3209366975,
				"z": -1.9080781369,
				"element": "H" 
			},
			{
				"x": 1.8607543279,
				"y": -0.93848383,
				"z": 1.6535316315,
				"element": "H" 
			},
			{
				"x": 0.4959586985,
				"y": 0.8002144411,
				"z": 0.6311019474,
				"element": "H" 
			}
		],
		 "valence_orbital": [ 
			{
				"type": "occ",
				"energy": -0.31716,
				"method": "rhf"
			},
			{
				"type": "occ",
				"energy": -0.29921,
				"method": "rhf"
			},
			{
				"type": "occ",
				"energy": -0.29506,
				"method": "rhf"
			},
			{
				"type": "occ",
				"energy": -0.29232,
				"method": "rhf"
			},
			{
				"type": "occ",
				"energy": -0.23848,
				"method": "rhf"
			},
			{
				"type": "unocc",
				"energy": -0.09796,
				"method": "rhf"
			},
			{
				"type": "unocc",
				"energy": -0.03081,
				"method": "rhf"
			},
			{
				"type": "unocc",
				"energy": -0.01629,
				"method": "rhf"
			},
			{
				"type": "unocc",
				"energy": -0.00806,
				"method": "rhf"
			},
			{
				"type": "unocc",
				"energy": 0.03695,
				"method": "rhf"
			}
		],
		"cosmo_sigma_profile": { 
			"-0.025": 0.0,
			"-0.024": 0.0,
			"-0.023": 0.0,
			"-0.022": 0.0,
			"-0.021": 0.0,
			"-0.02": 0.0782211459572,
			"-0.019": 0.852861212274,
			"-0.018": 1.03600059184,
			"-0.017": 1.3373870617,
			"-0.016": 0.897081312875,
			"-0.015": 1.25968353472,
			"-0.014": 0.980837301135,
			"-0.013": 0.800880907067,
			"-0.012": 1.32641717616,
			"-0.011": 2.53910903408,
			"-0.01": 2.31265211365,
			"-0.009": 4.27699409429,
			"-0.008": 9.63826785935,
			"-0.007": 12.6572417586,
			"-0.006": 12.343452023,
			"-0.005": 12.3358170698,
			"-0.004": 12.6582973728,
			"-0.003": 13.1909850052,
			"-0.002": 15.6517495823,
			"-0.001": 17.2639435173,
			"0.0": 21.1093683757,
			"0.001": 20.3037834662,
			"0.002": 23.3905870554,
			"0.003": 29.9797764875,
			"0.004": 7.34239131913,
			"0.005": 4.38207500334,
			"0.006": 5.478827031,
			"0.007": 6.61542328875,
			"0.008": 9.31703498518,
			"0.009": 7.05707122192,
			"0.01": 9.34383042119,
			"0.011": 6.55969788357,
			"0.012": 4.21291199283,
			"0.013": 1.2672136673,
			"0.014": 0.0,
			"0.015": 0.0,
			"0.016": 0.0,
			"0.017": 0.0,
			"0.018": 0.0,
			"0.019": 0.0,
			"0.02": 0.0,
			"0.021": 0.0,
			"0.022": 0.0,
			"0.023": 0.0,
			"0.024": 0.0,
			"0.025": 0.0
		}
	}
}
