{
	 "smiles": "CC(Cl)C1=NN=C(O1)C1=CC=C(C=C1)[N+]([O-])=O", 
	 "Tm": 435.15, 
	 "num_atms": 25, 
	 "gaussian": { 
		 "optdone": 1, 
		 "sigma_profile": "yes", 
		 "theory": "DFT", 
		 "functional": "B3LYP", 
		 "basiset": "6-31G**", 
		 "properties": { 
			 "R2extent": 8060.0461, 
			 "electric_dipole_moment_norm": 4.09020100362, 
			 "electric_quadrupole_moment_norm": 23.4991656637, 
			 "total_energy": -1235.88439504, 
			 "HOMO_LUMO_gap": 0.16105, 
			 "cosmo_polarized_energy": -14.44, 
			 "cosmo_cavitation_energy": 33.29, 
			 "cosmo_dispersion_energy": -23.92, 
			 "cosmo_repulsion_energy": 1.86, 
			 "cosmo_total_nonelectrostatic_energy": 11.23, 
			 "SMD_solvation_energy": 5.95 
		},
		"coords": [
			{
				"x": 2.3920488173,
				"y": -1.7371447493,
				"z": 1.1845303172,
				"element": "C" 
			},
			{
				"x": 2.2045185919,
				"y": -0.2285976483,
				"z": 1.3131203723,
				"element": "C" 
			},
			{
				"x": 3.5189111425,
				"y": 0.6435464802,
				"z": 0.3713658469,
				"element": "Cl" 
			},
			{
				"x": 0.874343251,
				"y": 0.2510551196,
				"z": 0.8565140563,
				"element": "C" 
			},
			{
				"x": 0.0210538971,
				"y": 0.9658307885,
				"z": 1.5233009599,
				"element": "N" 
			},
			{
				"x": -1.0772630434,
				"y": 1.1425647226,
				"z": 0.6924217934,
				"element": "N" 
			},
			{
				"x": -0.8059701504,
				"y": 0.5221888848,
				"z": -0.4198602137,
				"element": "C" 
			},
			{
				"x": 0.4216902534,
				"y": -0.0756750183,
				"z": -0.385690052,
				"element": "O" 
			},
			{
				"x": -1.6299398344,
				"y": 0.4117729352,
				"z": -1.6172793914,
				"element": "C" 
			},
			{
				"x": -1.1703529835,
				"y": -0.2794314421,
				"z": -2.7501094545,
				"element": "C" 
			},
			{
				"x": -1.9726625228,
				"y": -0.3731955899,
				"z": -3.8819718611,
				"element": "C" 
			},
			{
				"x": -3.2289213916,
				"y": 0.2288498565,
				"z": -3.8647497757,
				"element": "C" 
			},
			{
				"x": -3.7065751942,
				"y": 0.9220291744,
				"z": -2.7524240311,
				"element": "C" 
			},
			{
				"x": -2.9013037677,
				"y": 1.0123674132,
				"z": -1.6247708922,
				"element": "C" 
			},
			{
				"x": -4.0810451653,
				"y": 0.1296668869,
				"z": -5.0623896769,
				"element": "N" 
			},
			{
				"x": -5.1845082121,
				"y": 0.6710412395,
				"z": -5.0206226469,
				"element": "O" 
			},
			{
				"x": -3.6349637249,
				"y": -0.4889550968,
				"z": -6.0275272812,
				"element": "O" 
			},
			{
				"x": 3.3817727809,
				"y": -2.024254594,
				"z": 1.5447419638,
				"element": "H" 
			},
			{
				"x": 1.6364035343,
				"y": -2.2512098961,
				"z": 1.7881895983,
				"element": "H" 
			},
			{
				"x": 2.2891522906,
				"y": -2.0565310193,
				"z": 0.1451524423,
				"element": "H" 
			},
			{
				"x": 2.3206379068,
				"y": 0.1052284766,
				"z": 2.3442891966,
				"element": "H" 
			},
			{
				"x": -0.1879249086,
				"y": -0.7377608698,
				"z": -2.7424573292,
				"element": "H" 
			},
			{
				"x": -1.6455179484,
				"y": -0.8986491502,
				"z": -4.770101086,
				"element": "H" 
			},
			{
				"x": -4.689713013,
				"y": 1.3738724541,
				"z": -2.7876896936,
				"element": "H" 
			},
			{
				"x": -3.2405706054,
				"y": 1.5434906418,
				"z": -0.7425831614,
				"element": "H" 
			}
		],
		 "valence_orbital": [ 
			{
				"type": "occ",
				"energy": -0.31616,
				"method": "rhf"
			},
			{
				"type": "occ",
				"energy": -0.30059,
				"method": "rhf"
			},
			{
				"type": "occ",
				"energy": -0.2997,
				"method": "rhf"
			},
			{
				"type": "occ",
				"energy": -0.29377,
				"method": "rhf"
			},
			{
				"type": "occ",
				"energy": -0.27046,
				"method": "rhf"
			},
			{
				"type": "unocc",
				"energy": -0.10941,
				"method": "rhf"
			},
			{
				"type": "unocc",
				"energy": -0.0565,
				"method": "rhf"
			},
			{
				"type": "unocc",
				"energy": -0.0421,
				"method": "rhf"
			},
			{
				"type": "unocc",
				"energy": -0.0288,
				"method": "rhf"
			},
			{
				"type": "unocc",
				"energy": 0.02947,
				"method": "rhf"
			}
		],
		"cosmo_sigma_profile": { 
			"-0.025": 0.0,
			"-0.024": 0.0,
			"-0.023": 0.0,
			"-0.022": 0.0,
			"-0.021": 0.0,
			"-0.02": 0.0,
			"-0.019": 0.0,
			"-0.018": 0.0,
			"-0.017": 0.0,
			"-0.016": 0.0,
			"-0.015": 0.0,
			"-0.014": 0.0,
			"-0.013": 0.0,
			"-0.012": 0.0,
			"-0.011": 0.0,
			"-0.01": 0.458731412027,
			"-0.009": 2.59304906989,
			"-0.008": 7.3001454889,
			"-0.007": 12.6379137094,
			"-0.006": 14.7803646463,
			"-0.005": 17.5714962098,
			"-0.004": 18.4193442665,
			"-0.003": 19.5500800178,
			"-0.002": 25.5444246452,
			"-0.001": 26.1000940624,
			"0.0": 22.6308816418,
			"0.001": 13.1407946819,
			"0.002": 8.49977845331,
			"0.003": 8.93559247529,
			"0.004": 11.7797673831,
			"0.005": 13.0089428163,
			"0.006": 8.71372741228,
			"0.007": 11.7142736537,
			"0.008": 8.25073169072,
			"0.009": 6.34539937026,
			"0.01": 4.59032101419,
			"0.011": 2.83887954133,
			"0.012": 1.94502395115,
			"0.013": 1.95008186132,
			"0.014": 0.558066940968,
			"0.015": 0.0,
			"0.016": 0.0,
			"0.017": 0.0,
			"0.018": 0.0,
			"0.019": 0.0,
			"0.02": 0.0,
			"0.021": 0.0,
			"0.022": 0.0,
			"0.023": 0.0,
			"0.024": 0.0,
			"0.025": 0.0
		}
	}
}
