{
	 "smiles": "IC1=CN=C2C=CC=CN12", 
	 "Tm": 440.15, 
	 "num_atms": 15, 
	 "gaussian": { 
		 "optdone": 1, 
		 "sigma_profile": "yes", 
		 "theory": "DFT", 
		 "functional": "B3LYP", 
		 "basiset": "6-31G**", 
		 "properties": { 
			 "R2extent": 1661.6346, 
			 "electric_dipole_moment_norm": 2.89404326333, 
			 "electric_quadrupole_moment_norm": 8.66239721728, 
			 "total_energy": -390.6314718, 
			 "HOMO_LUMO_gap": 0.17019, 
			 "cosmo_polarized_energy": -8.07, 
			 "cosmo_cavitation_energy": 22.23, 
			 "cosmo_dispersion_energy": -18.21, 
			 "cosmo_repulsion_energy": 1.41, 
			 "cosmo_total_nonelectrostatic_energy": 5.44, 
			 "SMD_solvation_energy": 1.56 
		},
		"coords": [
			{
				"x": -2.985340707,
				"y": -1.8724532743,
				"z": -0.8201329017,
				"element": "I" 
			},
			{
				"x": -0.9522170067,
				"y": -1.7773842581,
				"z": -1.2212412387,
				"element": "C" 
			},
			{
				"x": -0.1330277841,
				"y": -2.6517371708,
				"z": -1.914120033,
				"element": "C" 
			},
			{
				"x": 1.1524544058,
				"y": -2.2160332008,
				"z": -1.9489091906,
				"element": "N" 
			},
			{
				"x": 1.1555710714,
				"y": -1.0636814928,
				"z": -1.2791472244,
				"element": "C" 
			},
			{
				"x": 2.212646672,
				"y": -0.1697436069,
				"z": -0.9962415354,
				"element": "C" 
			},
			{
				"x": 1.9632094114,
				"y": 0.9728655534,
				"z": -0.2752636886,
				"element": "C" 
			},
			{
				"x": 0.6465531839,
				"y": 1.2565407529,
				"z": 0.1855244248,
				"element": "C" 
			},
			{
				"x": -0.384201653,
				"y": 0.3998291739,
				"z": -0.0815912244,
				"element": "C" 
			},
			{
				"x": -0.1339232453,
				"y": -0.743303263,
				"z": -0.8031607321,
				"element": "N" 
			},
			{
				"x": -0.4363735757,
				"y": -3.5771994546,
				"z": -2.3846474244,
				"element": "H" 
			},
			{
				"x": 3.1993791174,
				"y": -0.4239470102,
				"z": -1.3656988583,
				"element": "H" 
			},
			{
				"x": 2.7682129422,
				"y": 1.6653224445,
				"z": -0.0530211633,
				"element": "H" 
			},
			{
				"x": 0.4427054883,
				"y": 2.1560842021,
				"z": 0.7548465219,
				"element": "H" 
			},
			{
				"x": -1.4064483207,
				"y": 0.5553406047,
				"z": 0.2386042683,
				"element": "H" 
			}
		],
		 "valence_orbital": [ 
			{
				"type": "occ",
				"energy": -0.29376,
				"method": "rhf"
			},
			{
				"type": "occ",
				"energy": -0.29166,
				"method": "rhf"
			},
			{
				"type": "occ",
				"energy": -0.2725,
				"method": "rhf"
			},
			{
				"type": "occ",
				"energy": -0.25039,
				"method": "rhf"
			},
			{
				"type": "occ",
				"energy": -0.21192,
				"method": "rhf"
			},
			{
				"type": "unocc",
				"energy": -0.04173,
				"method": "rhf"
			},
			{
				"type": "unocc",
				"energy": -0.03995,
				"method": "rhf"
			},
			{
				"type": "unocc",
				"energy": -0.00702,
				"method": "rhf"
			},
			{
				"type": "unocc",
				"energy": 0.0383,
				"method": "rhf"
			},
			{
				"type": "unocc",
				"energy": 0.044,
				"method": "rhf"
			}
		],
		"cosmo_sigma_profile": { 
			"-0.025": 0.0,
			"-0.024": 0.0,
			"-0.023": 0.0,
			"-0.022": 0.0,
			"-0.021": 0.0,
			"-0.02": 0.0,
			"-0.019": 0.0,
			"-0.018": 0.0,
			"-0.017": 0.0,
			"-0.016": 0.0,
			"-0.015": 0.0,
			"-0.014": 0.0,
			"-0.013": 0.0,
			"-0.012": 0.0,
			"-0.011": 0.0,
			"-0.01": 0.0,
			"-0.009": 0.653133512092,
			"-0.008": 3.68889188166,
			"-0.007": 10.8910531537,
			"-0.006": 10.6447222336,
			"-0.005": 11.1729595478,
			"-0.004": 10.6466808301,
			"-0.003": 10.547121283,
			"-0.002": 8.922892869,
			"-0.001": 15.0997118525,
			"0.0": 14.5546847446,
			"0.001": 18.6009602232,
			"0.002": 20.636613134,
			"0.003": 23.4170172912,
			"0.004": 8.84918861826,
			"0.005": 1.89999784234,
			"0.006": 1.92099147937,
			"0.007": 1.0949745292,
			"0.008": 1.87400704311,
			"0.009": 1.82704238264,
			"0.01": 0.636214147221,
			"0.011": 0.991695853219,
			"0.012": 1.3149140268,
			"0.013": 0.994378426507,
			"0.014": 0.81159442105,
			"0.015": 1.2704197974,
			"0.016": 1.0617895605,
			"0.017": 0.810555675607,
			"0.018": 0.166270516283,
			"0.019": 0.0,
			"0.02": 0.0,
			"0.021": 0.0,
			"0.022": 0.0,
			"0.023": 0.0,
			"0.024": 0.0,
			"0.025": 0.0
		}
	}
}
