{
	 "smiles": "CC1=C(COC2=CC=C(C=C2)C(O)=O)C(C)=NO1", 
	 "Tm": 498.15, 
	 "num_atms": 31, 
	 "gaussian": { 
		 "optdone": 1, 
		 "sigma_profile": "yes", 
		 "theory": "DFT", 
		 "functional": "B3LYP", 
		 "basiset": "6-31G**", 
		 "properties": { 
			 "R2extent": 6703.3333, 
			 "electric_dipole_moment_norm": 5.9053760202, 
			 "electric_quadrupole_moment_norm": 25.1734322354, 
			 "total_energy": -858.825535932, 
			 "HOMO_LUMO_gap": 0.19858, 
			 "cosmo_polarized_energy": -22.3, 
			 "cosmo_cavitation_energy": 35.78, 
			 "cosmo_dispersion_energy": -24.96, 
			 "cosmo_repulsion_energy": 1.93, 
			 "cosmo_total_nonelectrostatic_energy": 12.74, 
			 "SMD_solvation_energy": 7.52 
		},
		"coords": [
			{
				"x": -2.7140194678,
				"y": 0.4700771931,
				"z": 1.7304933543,
				"element": "C" 
			},
			{
				"x": -1.9578678863,
				"y": -0.6952326917,
				"z": 2.2711273039,
				"element": "C" 
			},
			{
				"x": -0.7422844433,
				"y": -0.8431561973,
				"z": 2.8801708965,
				"element": "C" 
			},
			{
				"x": 0.2740397452,
				"y": 0.1947209849,
				"z": 3.2385580589,
				"element": "C" 
			},
			{
				"x": 1.5948557528,
				"y": -0.1044716797,
				"z": 2.7538724017,
				"element": "O" 
			},
			{
				"x": 1.9150107036,
				"y": 0.1069770213,
				"z": 1.447823699,
				"element": "C" 
			},
			{
				"x": 3.23102963,
				"y": -0.2339387567,
				"z": 1.0947080134,
				"element": "C" 
			},
			{
				"x": 3.6791950867,
				"y": -0.0321677084,
				"z": -0.2024511703,
				"element": "C" 
			},
			{
				"x": 2.8306428199,
				"y": 0.5128888459,
				"z": -1.181277572,
				"element": "C" 
			},
			{
				"x": 1.5136595753,
				"y": 0.8232541468,
				"z": -0.8229986863,
				"element": "C" 
			},
			{
				"x": 1.05134122,
				"y": 0.6320896105,
				"z": 0.475625651,
				"element": "C" 
			},
			{
				"x": 3.2395951744,
				"y": 0.7491665241,
				"z": -2.598692684,
				"element": "C" 
			},
			{
				"x": 4.576903915,
				"y": 0.7805546152,
				"z": -2.8575522688,
				"element": "O" 
			},
			{
				"x": 2.4516982228,
				"y": 0.9129310259,
				"z": -3.5019102739,
				"element": "O" 
			},
			{
				"x": -0.6666318096,
				"y": -2.251917435,
				"z": 3.1524160849,
				"element": "C" 
			},
			{
				"x": 0.4404761551,
				"y": -3.0088286912,
				"z": 3.8172912509,
				"element": "C" 
			},
			{
				"x": -1.7385204103,
				"y": -2.8820009843,
				"z": 2.7347868559,
				"element": "N" 
			},
			{
				"x": -2.5658655172,
				"y": -1.8940760396,
				"z": 2.1776779793,
				"element": "O" 
			},
			{
				"x": -2.9272680398,
				"y": 0.3336270292,
				"z": 0.6651502841,
				"element": "H" 
			},
			{
				"x": -3.6731242682,
				"y": 0.5824961537,
				"z": 2.2465818125,
				"element": "H" 
			},
			{
				"x": -2.1493640177,
				"y": 1.39638313,
				"z": 1.8576644993,
				"element": "H" 
			},
			{
				"x": 0.4136171222,
				"y": 0.2425026201,
				"z": 4.3228475558,
				"element": "H" 
			},
			{
				"x": -0.038894174,
				"y": 1.1911484797,
				"z": 2.9051641383,
				"element": "H" 
			},
			{
				"x": 3.8778763762,
				"y": -0.6579358727,
				"z": 1.8552931266,
				"element": "H" 
			},
			{
				"x": 4.6921184992,
				"y": -0.3416878418,
				"z": -0.4497818113,
				"element": "H" 
			},
			{
				"x": 0.8545221359,
				"y": 1.2181608814,
				"z": -1.5887098433,
				"element": "H" 
			},
			{
				"x": 0.0257038629,
				"y": 0.8794439565,
				"z": 0.7146268487,
				"element": "H" 
			},
			{
				"x": 5.0768986498,
				"y": 0.8065788747,
				"z": -2.0305426214,
				"element": "H" 
			},
			{
				"x": 1.3798850953,
				"y": -2.8818631136,
				"z": 3.2721407793,
				"element": "H" 
			},
			{
				"x": 0.6039819971,
				"y": -2.644882994,
				"z": 4.8378832426,
				"element": "H" 
			},
			{
				"x": 0.1904882945,
				"y": -4.070441087,
				"z": 3.8622130942,
				"element": "H" 
			}
		],
		 "valence_orbital": [ 
			{
				"type": "occ",
				"energy": -0.28908,
				"method": "rhf"
			},
			{
				"type": "occ",
				"energy": -0.27462,
				"method": "rhf"
			},
			{
				"type": "occ",
				"energy": -0.26935,
				"method": "rhf"
			},
			{
				"type": "occ",
				"energy": -0.2606,
				"method": "rhf"
			},
			{
				"type": "occ",
				"energy": -0.24102,
				"method": "rhf"
			},
			{
				"type": "unocc",
				"energy": -0.04244,
				"method": "rhf"
			},
			{
				"type": "unocc",
				"energy": -0.02396,
				"method": "rhf"
			},
			{
				"type": "unocc",
				"energy": -0.01538,
				"method": "rhf"
			},
			{
				"type": "unocc",
				"energy": 0.03306,
				"method": "rhf"
			},
			{
				"type": "unocc",
				"energy": 0.05168,
				"method": "rhf"
			}
		],
		"cosmo_sigma_profile": { 
			"-0.025": 0.0,
			"-0.024": 0.0,
			"-0.023": 0.0,
			"-0.022": 0.0,
			"-0.021": 0.0,
			"-0.02": 0.0,
			"-0.019": 0.254698499221,
			"-0.018": 0.795217285147,
			"-0.017": 0.763279315921,
			"-0.016": 1.26586885183,
			"-0.015": 0.812419018104,
			"-0.014": 0.549542958099,
			"-0.013": 1.26522455323,
			"-0.012": 1.34891404152,
			"-0.011": 1.3820849493,
			"-0.01": 1.81192180483,
			"-0.009": 2.68833673198,
			"-0.008": 4.28280881678,
			"-0.007": 8.09247744696,
			"-0.006": 18.7812954293,
			"-0.005": 20.8761662201,
			"-0.004": 21.0020834096,
			"-0.003": 20.5315153995,
			"-0.002": 22.1477966763,
			"-0.001": 18.428615624,
			"0.0": 17.270247155,
			"0.001": 18.4650981133,
			"0.002": 16.5072101231,
			"0.003": 18.3169360845,
			"0.004": 9.98682658057,
			"0.005": 4.69729676954,
			"0.006": 6.36705147981,
			"0.007": 5.91426289783,
			"0.008": 7.22303500601,
			"0.009": 7.53063031986,
			"0.01": 6.19744926435,
			"0.011": 6.58846061044,
			"0.012": 7.1569851961,
			"0.013": 3.81476677614,
			"0.014": 1.64845173386,
			"0.015": 0.479807056876,
			"0.016": 0.0,
			"0.017": 0.0,
			"0.018": 0.0,
			"0.019": 0.0,
			"0.02": 0.0,
			"0.021": 0.0,
			"0.022": 0.0,
			"0.023": 0.0,
			"0.024": 0.0,
			"0.025": 0.0
		}
	}
}
