{
	 "smiles": "CCOC(=O)C(Cl)C(C)=O", 
	 "Tm": 193.15, 
	 "num_atms": 19, 
	 "gaussian": { 
		 "optdone": 1, 
		 "sigma_profile": "yes", 
		 "theory": "DFT", 
		 "functional": "B3LYP", 
		 "basiset": "6-31G**", 
		 "properties": { 
			 "R2extent": 2005.5825, 
			 "electric_dipole_moment_norm": 2.75164817155, 
			 "electric_quadrupole_moment_norm": 9.93799407476, 
			 "total_energy": -919.929760579, 
			 "HOMO_LUMO_gap": 0.22117, 
			 "cosmo_polarized_energy": -11.38, 
			 "cosmo_cavitation_energy": 25.23, 
			 "cosmo_dispersion_energy": -17.69, 
			 "cosmo_repulsion_energy": 1.47, 
			 "cosmo_total_nonelectrostatic_energy": 9.02, 
			 "SMD_solvation_energy": 5.9 
		},
		"coords": [
			{
				"x": 2.6622956161,
				"y": 0.5128226357,
				"z": 1.9406899303,
				"element": "C" 
			},
			{
				"x": 2.1590566815,
				"y": -0.8055486797,
				"z": 1.3752099453,
				"element": "C" 
			},
			{
				"x": 1.403488791,
				"y": -0.5879885393,
				"z": 0.1526750175,
				"element": "O" 
			},
			{
				"x": 0.1017519218,
				"y": -0.2911898542,
				"z": 0.301248868,
				"element": "C" 
			},
			{
				"x": -0.5131809272,
				"y": -0.2917618609,
				"z": 1.3383335719,
				"element": "O" 
			},
			{
				"x": -0.4731554109,
				"y": 0.0783199447,
				"z": -1.0694731233,
				"element": "C" 
			},
			{
				"x": -2.1874638809,
				"y": -0.4644206487,
				"z": -1.2224902633,
				"element": "Cl" 
			},
			{
				"x": -0.3224950983,
				"y": 1.6010747834,
				"z": -1.3097433614,
				"element": "C" 
			},
			{
				"x": -1.0686766042,
				"y": 2.2102317666,
				"z": -2.473428271,
				"element": "C" 
			},
			{
				"x": 0.4117835279,
				"y": 2.2404819523,
				"z": -0.5870392687,
				"element": "O" 
			},
			{
				"x": 1.8254313689,
				"y": 1.1532552433,
				"z": 2.2282196349,
				"element": "H" 
			},
			{
				"x": 3.2751516219,
				"y": 0.3227178827,
				"z": 2.8280785198,
				"element": "H" 
			},
			{
				"x": 3.2712674816,
				"y": 1.0451830168,
				"z": 1.2051230849,
				"element": "H" 
			},
			{
				"x": 2.9803811181,
				"y": -1.4577687842,
				"z": 1.0703125019,
				"element": "H" 
			},
			{
				"x": 1.5206616762,
				"y": -1.3315399776,
				"z": 2.088549495,
				"element": "H" 
			},
			{
				"x": 0.0899402257,
				"y": -0.4412868548,
				"z": -1.8497549792,
				"element": "H" 
			},
			{
				"x": -2.1300458745,
				"y": 2.3048078456,
				"z": -2.2221246209,
				"element": "H" 
			},
			{
				"x": -0.6564743449,
				"y": 3.1992942855,
				"z": -2.6767695596,
				"element": "H" 
			},
			{
				"x": -1.0083178898,
				"y": 1.5772158428,
				"z": -3.3642171222,
				"element": "H" 
			}
		],
		 "valence_orbital": [ 
			{
				"type": "occ",
				"energy": -0.32718,
				"method": "rhf"
			},
			{
				"type": "occ",
				"energy": -0.31446,
				"method": "rhf"
			},
			{
				"type": "occ",
				"energy": -0.30596,
				"method": "rhf"
			},
			{
				"type": "occ",
				"energy": -0.28511,
				"method": "rhf"
			},
			{
				"type": "occ",
				"energy": -0.26885,
				"method": "rhf"
			},
			{
				"type": "unocc",
				"energy": -0.04768,
				"method": "rhf"
			},
			{
				"type": "unocc",
				"energy": -0.01024,
				"method": "rhf"
			},
			{
				"type": "unocc",
				"energy": 0.03463,
				"method": "rhf"
			},
			{
				"type": "unocc",
				"energy": 0.09109,
				"method": "rhf"
			},
			{
				"type": "unocc",
				"energy": 0.10942,
				"method": "rhf"
			}
		],
		"cosmo_sigma_profile": { 
			"-0.025": 0.0,
			"-0.024": 0.0,
			"-0.023": 0.0,
			"-0.022": 0.0,
			"-0.021": 0.0,
			"-0.02": 0.0,
			"-0.019": 0.0,
			"-0.018": 0.0,
			"-0.017": 0.0,
			"-0.016": 0.0,
			"-0.015": 0.0,
			"-0.014": 0.0,
			"-0.013": 0.0,
			"-0.012": 0.20547049656,
			"-0.011": 2.06064340752,
			"-0.01": 2.1505920466,
			"-0.009": 2.3578882489,
			"-0.008": 1.89573115471,
			"-0.007": 4.10671183321,
			"-0.006": 10.1632091534,
			"-0.005": 13.4632449022,
			"-0.004": 19.1427935885,
			"-0.003": 19.6444786545,
			"-0.002": 18.0677004435,
			"-0.001": 14.3945574154,
			"0.0": 12.407171466,
			"0.001": 9.25999393876,
			"0.002": 9.51166743581,
			"0.003": 9.86901114669,
			"0.004": 9.54541044161,
			"0.005": 9.48277902498,
			"0.006": 6.56129991184,
			"0.007": 6.06393032552,
			"0.008": 3.7587204368,
			"0.009": 4.40608018881,
			"0.01": 5.42892897949,
			"0.011": 5.86477488393,
			"0.012": 1.22393196264,
			"0.013": 0.0,
			"0.014": 0.0,
			"0.015": 0.0,
			"0.016": 0.0,
			"0.017": 0.0,
			"0.018": 0.0,
			"0.019": 0.0,
			"0.02": 0.0,
			"0.021": 0.0,
			"0.022": 0.0,
			"0.023": 0.0,
			"0.024": 0.0,
			"0.025": 0.0
		}
	}
}
