{
	 "smiles": "NC1=C(C=CC=C1)C(=O)NC1=CC2=C(OCCO2)C=C1", 
	 "Tm": 391.15, 
	 "num_atms": 34, 
	 "gaussian": { 
		 "optdone": 1, 
		 "sigma_profile": "yes", 
		 "theory": "DFT", 
		 "functional": "B3LYP", 
		 "basiset": "6-31G**", 
		 "properties": { 
			 "R2extent": 6353.2276, 
			 "electric_dipole_moment_norm": 3.18407385279, 
			 "electric_quadrupole_moment_norm": 9.44622029862, 
			 "total_energy": -915.210134367, 
			 "HOMO_LUMO_gap": 0.16479, 
			 "cosmo_polarized_energy": -15.54, 
			 "cosmo_cavitation_energy": 37.19, 
			 "cosmo_dispersion_energy": -26.95, 
			 "cosmo_repulsion_energy": 2.08, 
			 "cosmo_total_nonelectrostatic_energy": 12.32, 
			 "SMD_solvation_energy": 6.8 
		},
		"coords": [
			{
				"x": -4.0547237077,
				"y": -1.1019007897,
				"z": 2.1360235179,
				"element": "N" 
			},
			{
				"x": -3.2609476989,
				"y": -1.5017508133,
				"z": 1.0858161815,
				"element": "C" 
			},
			{
				"x": -2.6769914812,
				"y": -0.5604330297,
				"z": 0.188298658,
				"element": "C" 
			},
			{
				"x": -1.8868061647,
				"y": -1.0310394947,
				"z": -0.8759583455,
				"element": "C" 
			},
			{
				"x": -1.6273352971,
				"y": -2.3829014635,
				"z": -1.0548292973,
				"element": "C" 
			},
			{
				"x": -2.1632356073,
				"y": -3.3003885463,
				"z": -0.1420397296,
				"element": "C" 
			},
			{
				"x": -2.9623523034,
				"y": -2.8700254755,
				"z": 0.9057764862,
				"element": "C" 
			},
			{
				"x": -2.999110586,
				"y": 0.8850266903,
				"z": 0.3280301245,
				"element": "C" 
			},
			{
				"x": -4.0586586527,
				"y": 1.2824118386,
				"z": 0.829955392,
				"element": "O" 
			},
			{
				"x": -2.1278213145,
				"y": 1.8349842399,
				"z": -0.1780859688,
				"element": "N" 
			},
			{
				"x": -0.7130559664,
				"y": 1.8155467309,
				"z": -0.3257643626,
				"element": "C" 
			},
			{
				"x": 0.1144510125,
				"y": 1.1267792886,
				"z": 0.5669814305,
				"element": "C" 
			},
			{
				"x": 1.4984469764,
				"y": 1.1597954658,
				"z": 0.4045447487,
				"element": "C" 
			},
			{
				"x": 2.0734280275,
				"y": 1.923936516,
				"z": -0.6264263899,
				"element": "C" 
			},
			{
				"x": 3.4348198138,
				"y": 2.0062384417,
				"z": -0.7983722112,
				"element": "O" 
			},
			{
				"x": 4.1826720201,
				"y": 1.5803530765,
				"z": 0.3402486032,
				"element": "C" 
			},
			{
				"x": 3.6207991189,
				"y": 0.2735212636,
				"z": 0.8765504679,
				"element": "C" 
			},
			{
				"x": 2.2677629751,
				"y": 0.4531628755,
				"z": 1.2952208894,
				"element": "O" 
			},
			{
				"x": 1.2444657127,
				"y": 2.6192325074,
				"z": -1.505604651,
				"element": "C" 
			},
			{
				"x": -0.1399061575,
				"y": 2.5560124801,
				"z": -1.3693496244,
				"element": "C" 
			},
			{
				"x": -4.4918265252,
				"y": -0.1953241921,
				"z": 2.0123295823,
				"element": "H" 
			},
			{
				"x": -4.6163434732,
				"y": -1.8178005107,
				"z": 2.5710563852,
				"element": "H" 
			},
			{
				"x": -1.4845928286,
				"y": -0.3139294199,
				"z": -1.5825490474,
				"element": "H" 
			},
			{
				"x": -1.02155198,
				"y": -2.7201381017,
				"z": -1.8893880385,
				"element": "H" 
			},
			{
				"x": -1.9659297619,
				"y": -4.3627964909,
				"z": -0.2583938547,
				"element": "H" 
			},
			{
				"x": -3.3874589507,
				"y": -3.5907208608,
				"z": 1.6002035659,
				"element": "H" 
			},
			{
				"x": -2.551244258,
				"y": 2.7550315318,
				"z": -0.1362367591,
				"element": "H" 
			},
			{
				"x": -0.2963987713,
				"y": 0.5508800916,
				"z": 1.3876515309,
				"element": "H" 
			},
			{
				"x": 5.2164215345,
				"y": 1.4607995951,
				"z": 0.0061548168,
				"element": "H" 
			},
			{
				"x": 4.1459634583,
				"y": 2.3512769419,
				"z": 1.1223516142,
				"element": "H" 
			},
			{
				"x": 4.1741183889,
				"y": -0.0665058307,
				"z": 1.7555659578,
				"element": "H" 
			},
			{
				"x": 3.6714714146,
				"y": -0.5016242852,
				"z": 0.0997487072,
				"element": "H" 
			},
			{
				"x": 1.7052792269,
				"y": 3.2011087386,
				"z": -2.2971380275,
				"element": "H" 
			},
			{
				"x": -0.7821081939,
				"y": 3.0826809909,
				"z": -2.0682723526,
				"element": "H" 
			}
		],
		 "valence_orbital": [ 
			{
				"type": "occ",
				"energy": -0.25578,
				"method": "rhf"
			},
			{
				"type": "occ",
				"energy": -0.24514,
				"method": "rhf"
			},
			{
				"type": "occ",
				"energy": -0.23103,
				"method": "rhf"
			},
			{
				"type": "occ",
				"energy": -0.20575,
				"method": "rhf"
			},
			{
				"type": "occ",
				"energy": -0.19656,
				"method": "rhf"
			},
			{
				"type": "unocc",
				"energy": -0.03177,
				"method": "rhf"
			},
			{
				"type": "unocc",
				"energy": -0.00292,
				"method": "rhf"
			},
			{
				"type": "unocc",
				"energy": 0.00697,
				"method": "rhf"
			},
			{
				"type": "unocc",
				"energy": 0.02306,
				"method": "rhf"
			},
			{
				"type": "unocc",
				"energy": 0.06221,
				"method": "rhf"
			}
		],
		"cosmo_sigma_profile": { 
			"-0.025": 0.0,
			"-0.024": 0.0,
			"-0.023": 0.0,
			"-0.022": 0.0,
			"-0.021": 0.0,
			"-0.02": 0.0,
			"-0.019": 0.0,
			"-0.018": 0.0,
			"-0.017": 0.0,
			"-0.016": 0.0,
			"-0.015": 0.0,
			"-0.014": 0.406431762932,
			"-0.013": 1.35087633848,
			"-0.012": 2.51681280905,
			"-0.011": 1.86478669642,
			"-0.01": 2.42307597063,
			"-0.009": 2.7981489926,
			"-0.008": 3.16085887408,
			"-0.007": 10.7699276521,
			"-0.006": 20.4875834328,
			"-0.005": 23.6991502582,
			"-0.004": 23.4069812461,
			"-0.003": 18.8026872116,
			"-0.002": 14.9632139306,
			"-0.001": 14.1594539668,
			"0.0": 16.334793723,
			"0.001": 16.3267196885,
			"0.002": 18.1401167447,
			"0.003": 23.260227741,
			"0.004": 24.5557275438,
			"0.005": 17.7281510752,
			"0.006": 10.1524535223,
			"0.007": 3.88358120235,
			"0.008": 5.11690576593,
			"0.009": 4.77662250013,
			"0.01": 5.10716402955,
			"0.011": 3.44393864241,
			"0.012": 2.61059133067,
			"0.013": 2.973346672,
			"0.014": 0.937269542033,
			"0.015": 0.0,
			"0.016": 0.0,
			"0.017": 0.0,
			"0.018": 0.0,
			"0.019": 0.0,
			"0.02": 0.0,
			"0.021": 0.0,
			"0.022": 0.0,
			"0.023": 0.0,
			"0.024": 0.0,
			"0.025": 0.0
		}
	}
}
