{
	 "smiles": "COC1=CC=CC2=C1OC(=C2)C(=O)CC1=C(C)C=C(C)C=C1C", 
	 "Tm": 395.15, 
	 "num_atms": 43, 
	 "gaussian": { 
		 "optdone": 1, 
		 "sigma_profile": "yes", 
		 "theory": "DFT", 
		 "functional": "B3LYP", 
		 "basiset": "6-31G**", 
		 "properties": { 
			 "R2extent": 9022.675, 
			 "electric_dipole_moment_norm": 2.78161257187, 
			 "electric_quadrupole_moment_norm": 5.24304866752, 
			 "total_energy": -999.845760192, 
			 "HOMO_LUMO_gap": 0.14665, 
			 "cosmo_polarized_energy": -11.68, 
			 "cosmo_cavitation_energy": 45.58, 
			 "cosmo_dispersion_energy": -31.07, 
			 "cosmo_repulsion_energy": 2.37, 
			 "cosmo_total_nonelectrostatic_energy": 16.88, 
			 "SMD_solvation_energy": 9.1 
		},
		"coords": [
			{
				"x": 5.3752579334,
				"y": 0.1718223573,
				"z": 2.0395490557,
				"element": "C" 
			},
			{
				"x": 4.5520624071,
				"y": -0.0117683044,
				"z": 3.1942354463,
				"element": "O" 
			},
			{
				"x": 3.1995947468,
				"y": 0.0006962399,
				"z": 3.0746850349,
				"element": "C" 
			},
			{
				"x": 2.4596055522,
				"y": -0.1748570415,
				"z": 4.2484677359,
				"element": "C" 
			},
			{
				"x": 1.0543211578,
				"y": -0.1832984394,
				"z": 4.2556415018,
				"element": "C" 
			},
			{
				"x": 0.318652675,
				"y": -0.0161570678,
				"z": 3.0901895277,
				"element": "C" 
			},
			{
				"x": 1.0355544767,
				"y": 0.1637289198,
				"z": 1.8951417372,
				"element": "C" 
			},
			{
				"x": 2.4472861179,
				"y": 0.1684923429,
				"z": 1.8994668438,
				"element": "C" 
			},
			{
				"x": 2.9262649171,
				"y": 0.3537297579,
				"z": 0.6334589528,
				"element": "O" 
			},
			{
				"x": 1.8286847699,
				"y": 0.472412743,
				"z": -0.1924629403,
				"element": "C" 
			},
			{
				"x": 0.666710981,
				"y": 0.3621859375,
				"z": 0.5226357845,
				"element": "C" 
			},
			{
				"x": 2.1447296258,
				"y": 0.6841746014,
				"z": -1.6184788981,
				"element": "C" 
			},
			{
				"x": 3.3064336041,
				"y": 0.6696146028,
				"z": -1.9972063392,
				"element": "O" 
			},
			{
				"x": 1.01102881,
				"y": 1.0018606193,
				"z": -2.6050029588,
				"element": "C" 
			},
			{
				"x": -0.246259945,
				"y": 0.1507655845,
				"z": -2.5722482233,
				"element": "C" 
			},
			{
				"x": -0.1664780513,
				"y": -1.2262250894,
				"z": -2.8770265734,
				"element": "C" 
			},
			{
				"x": 1.1527954726,
				"y": -1.8821849939,
				"z": -3.2174710748,
				"element": "C" 
			},
			{
				"x": -1.3301918761,
				"y": -2.0009611515,
				"z": -2.8643326749,
				"element": "C" 
			},
			{
				"x": -2.580928501,
				"y": -1.4548951332,
				"z": -2.5638384974,
				"element": "C" 
			},
			{
				"x": -3.8275031375,
				"y": -2.3079155237,
				"z": -2.5825099716,
				"element": "C" 
			},
			{
				"x": -2.6430724089,
				"y": -0.0894431094,
				"z": -2.2771877697,
				"element": "C" 
			},
			{
				"x": -1.5034074169,
				"y": 0.7244205777,
				"z": -2.2827869201,
				"element": "C" 
			},
			{
				"x": -1.6644740485,
				"y": 2.2011281221,
				"z": -1.9821607701,
				"element": "C" 
			},
			{
				"x": 6.4012669659,
				"y": 0.1201153291,
				"z": 2.4070407441,
				"element": "H" 
			},
			{
				"x": 5.209887712,
				"y": -0.6139224894,
				"z": 1.2969367144,
				"element": "H" 
			},
			{
				"x": 5.2008799745,
				"y": 1.1448023434,
				"z": 1.5710617192,
				"element": "H" 
			},
			{
				"x": 3.0164254959,
				"y": -0.3076818608,
				"z": 5.1702189987,
				"element": "H" 
			},
			{
				"x": 0.5415682393,
				"y": -0.3250609707,
				"z": 5.2022964964,
				"element": "H" 
			},
			{
				"x": -0.7660724744,
				"y": -0.0235937931,
				"z": 3.0973995854,
				"element": "H" 
			},
			{
				"x": -0.3325732283,
				"y": 0.3902700592,
				"z": 0.1165762405,
				"element": "H" 
			},
			{
				"x": 1.4888677321,
				"y": 0.9532497066,
				"z": -3.5892754394,
				"element": "H" 
			},
			{
				"x": 0.7576756929,
				"y": 2.0541384539,
				"z": -2.4408784586,
				"element": "H" 
			},
			{
				"x": 0.9969874461,
				"y": -2.9090126619,
				"z": -3.5580013459,
				"element": "H" 
			},
			{
				"x": 1.828552655,
				"y": -1.9207107439,
				"z": -2.3556014121,
				"element": "H" 
			},
			{
				"x": 1.6875107192,
				"y": -1.3438486003,
				"z": -4.0079423019,
				"element": "H" 
			},
			{
				"x": -1.2549893645,
				"y": -3.0612493391,
				"z": -3.0966079162,
				"element": "H" 
			},
			{
				"x": -4.2185403434,
				"y": -2.4170026034,
				"z": -3.6019594412,
				"element": "H" 
			},
			{
				"x": -4.6230346397,
				"y": -1.8679493207,
				"z": -1.9739352786,
				"element": "H" 
			},
			{
				"x": -3.629004429,
				"y": -3.3155944313,
				"z": -2.2039670989,
				"element": "H" 
			},
			{
				"x": -3.6066262204,
				"y": 0.3603129893,
				"z": -2.0473416636,
				"element": "H" 
			},
			{
				"x": -2.7086081333,
				"y": 2.4356238698,
				"z": -1.7598369593,
				"element": "H" 
			},
			{
				"x": -1.0668640207,
				"y": 2.5199630206,
				"z": -1.1201575655,
				"element": "H" 
			},
			{
				"x": -1.3637776412,
				"y": 2.8268244903,
				"z": -2.8308836265,
				"element": "H" 
			}
		],
		 "valence_orbital": [ 
			{
				"type": "occ",
				"energy": -0.25629,
				"method": "rhf"
			},
			{
				"type": "occ",
				"energy": -0.23867,
				"method": "rhf"
			},
			{
				"type": "occ",
				"energy": -0.238,
				"method": "rhf"
			},
			{
				"type": "occ",
				"energy": -0.22837,
				"method": "rhf"
			},
			{
				"type": "occ",
				"energy": -0.20919,
				"method": "rhf"
			},
			{
				"type": "unocc",
				"energy": -0.06254,
				"method": "rhf"
			},
			{
				"type": "unocc",
				"energy": -0.00545,
				"method": "rhf"
			},
			{
				"type": "unocc",
				"energy": 0.00158,
				"method": "rhf"
			},
			{
				"type": "unocc",
				"energy": 0.01233,
				"method": "rhf"
			},
			{
				"type": "unocc",
				"energy": 0.01929,
				"method": "rhf"
			}
		],
		"cosmo_sigma_profile": { 
			"-0.025": 0.0,
			"-0.024": 0.0,
			"-0.023": 0.0,
			"-0.022": 0.0,
			"-0.021": 0.0,
			"-0.02": 0.0,
			"-0.019": 0.0,
			"-0.018": 0.0,
			"-0.017": 0.0,
			"-0.016": 0.0,
			"-0.015": 0.0,
			"-0.014": 0.0,
			"-0.013": 0.0,
			"-0.012": 0.0,
			"-0.011": 0.0,
			"-0.01": 0.0,
			"-0.009": 0.0,
			"-0.008": 0.0,
			"-0.007": 1.3997420606,
			"-0.006": 11.6365417583,
			"-0.005": 23.1180267947,
			"-0.004": 42.0850772968,
			"-0.003": 39.0536180341,
			"-0.002": 34.5802613527,
			"-0.001": 29.6835676413,
			"0.0": 41.8316427978,
			"0.001": 27.6590167295,
			"0.002": 24.0022878708,
			"0.003": 19.7529761648,
			"0.004": 19.14226526,
			"0.005": 14.5230850789,
			"0.006": 8.99859228586,
			"0.007": 3.89396589155,
			"0.008": 2.49358958582,
			"0.009": 3.9387394507,
			"0.01": 3.00087318865,
			"0.011": 3.73931541293,
			"0.012": 5.02253235936,
			"0.013": 2.02673563526,
			"0.014": 0.00460682068922,
			"0.015": 0.0,
			"0.016": 0.0,
			"0.017": 0.0,
			"0.018": 0.0,
			"0.019": 0.0,
			"0.02": 0.0,
			"0.021": 0.0,
			"0.022": 0.0,
			"0.023": 0.0,
			"0.024": 0.0,
			"0.025": 0.0
		}
	}
}
