{
	 "smiles": "CC(=O)C(C1=CC=CC=C1)C1=CC=CC=C1", 
	 "Tm": 334.15, 
	 "num_atms": 30, 
	 "gaussian": { 
		 "optdone": 1, 
		 "sigma_profile": "yes", 
		 "theory": "DFT", 
		 "functional": "B3LYP", 
		 "basiset": "6-31G**", 
		 "properties": { 
			 "R2extent": 4265.2326, 
			 "electric_dipole_moment_norm": 2.37098601008, 
			 "electric_quadrupole_moment_norm": 9.84817394698, 
			 "total_energy": -655.259209938, 
			 "HOMO_LUMO_gap": 0.20992, 
			 "cosmo_polarized_energy": -10.31, 
			 "cosmo_cavitation_energy": 33.44, 
			 "cosmo_dispersion_energy": -23.09, 
			 "cosmo_repulsion_energy": 1.82, 
			 "cosmo_total_nonelectrostatic_energy": 12.17, 
			 "SMD_solvation_energy": 6.26 
		},
		"coords": [
			{
				"x": -2.4187119335,
				"y": -2.652243602,
				"z": -1.7960399761,
				"element": "C" 
			},
			{
				"x": -1.3451881509,
				"y": -1.9671300042,
				"z": -0.9737217496,
				"element": "C" 
			},
			{
				"x": -0.1727115286,
				"y": -2.27682258,
				"z": -1.0597308042,
				"element": "O" 
			},
			{
				"x": -1.8268699722,
				"y": -0.8279546399,
				"z": -0.0498444389,
				"element": "C" 
			},
			{
				"x": -1.6669994618,
				"y": 0.5192742742,
				"z": -0.767561417,
				"element": "C" 
			},
			{
				"x": -2.6696889128,
				"y": 1.4890077512,
				"z": -0.6256289883,
				"element": "C" 
			},
			{
				"x": -2.5498041524,
				"y": 2.7378868716,
				"z": -1.2343927303,
				"element": "C" 
			},
			{
				"x": -1.4229839078,
				"y": 3.0366177956,
				"z": -2.0029060654,
				"element": "C" 
			},
			{
				"x": -0.4222056208,
				"y": 2.0767281868,
				"z": -2.1559672618,
				"element": "C" 
			},
			{
				"x": -0.5419663393,
				"y": 0.826550692,
				"z": -1.5452926121,
				"element": "C" 
			},
			{
				"x": -1.1670793532,
				"y": -0.8653533466,
				"z": 1.3249670143,
				"element": "C" 
			},
			{
				"x": -1.9576205036,
				"y": -1.0981476868,
				"z": 2.4574738297,
				"element": "C" 
			},
			{
				"x": -1.392043043,
				"y": -1.1386878573,
				"z": 3.7333386983,
				"element": "C" 
			},
			{
				"x": -0.0196638434,
				"y": -0.948982161,
				"z": 3.8929030011,
				"element": "C" 
			},
			{
				"x": 0.7780636397,
				"y": -0.7189751353,
				"z": 2.7695884481,
				"element": "C" 
			},
			{
				"x": 0.2113142014,
				"y": -0.6753920867,
				"z": 1.4962048425,
				"element": "C" 
			},
			{
				"x": -3.0996668349,
				"y": -3.2012645569,
				"z": -1.1342574096,
				"element": "H" 
			},
			{
				"x": -3.0208647465,
				"y": -1.9088710532,
				"z": -2.3305490929,
				"element": "H" 
			},
			{
				"x": -1.9623680567,
				"y": -3.3452174909,
				"z": -2.5040969892,
				"element": "H" 
			},
			{
				"x": -2.902110204,
				"y": -0.9715745493,
				"z": 0.1036037873,
				"element": "H" 
			},
			{
				"x": -3.5481085106,
				"y": 1.2652517625,
				"z": -0.0252294176,
				"element": "H" 
			},
			{
				"x": -3.3373968078,
				"y": 3.4758131244,
				"z": -1.1099540317,
				"element": "H" 
			},
			{
				"x": -1.3281601174,
				"y": 4.0075998708,
				"z": -2.4803445179,
				"element": "H" 
			},
			{
				"x": 0.4559537114,
				"y": 2.2967403076,
				"z": -2.7565798865,
				"element": "H" 
			},
			{
				"x": 0.2360809573,
				"y": 0.0829897789,
				"z": -1.6836150462,
				"element": "H" 
			},
			{
				"x": -3.028731411,
				"y": -1.248048107,
				"z": 2.3413641796,
				"element": "H" 
			},
			{
				"x": -2.0243943181,
				"y": -1.3180571289,
				"z": 4.5984140601,
				"element": "H" 
			},
			{
				"x": 0.425636265,
				"y": -0.9790115421,
				"z": 4.8832668887,
				"element": "H" 
			},
			{
				"x": 1.848351124,
				"y": -0.5717916818,
				"z": 2.8844840051,
				"element": "H" 
			},
			{
				"x": 0.8414378315,
				"y": -0.5019352058,
				"z": 0.6324036805,
				"element": "H" 
			}
		],
		 "valence_orbital": [ 
			{
				"type": "occ",
				"energy": -0.26345,
				"method": "rhf"
			},
			{
				"type": "occ",
				"energy": -0.25191,
				"method": "rhf"
			},
			{
				"type": "occ",
				"energy": -0.24658,
				"method": "rhf"
			},
			{
				"type": "occ",
				"energy": -0.23651,
				"method": "rhf"
			},
			{
				"type": "occ",
				"energy": -0.23462,
				"method": "rhf"
			},
			{
				"type": "unocc",
				"energy": -0.0247,
				"method": "rhf"
			},
			{
				"type": "unocc",
				"energy": -0.01017,
				"method": "rhf"
			},
			{
				"type": "unocc",
				"energy": -0.00164,
				"method": "rhf"
			},
			{
				"type": "unocc",
				"energy": 0.00648,
				"method": "rhf"
			},
			{
				"type": "unocc",
				"energy": 0.01507,
				"method": "rhf"
			}
		],
		"cosmo_sigma_profile": { 
			"-0.025": 0.0,
			"-0.024": 0.0,
			"-0.023": 0.0,
			"-0.022": 0.0,
			"-0.021": 0.0,
			"-0.02": 0.0,
			"-0.019": 0.0,
			"-0.018": 0.0,
			"-0.017": 0.0,
			"-0.016": 0.0,
			"-0.015": 0.0,
			"-0.014": 0.0,
			"-0.013": 0.0,
			"-0.012": 0.0,
			"-0.011": 0.0,
			"-0.01": 0.0,
			"-0.009": 0.0,
			"-0.008": 0.0,
			"-0.007": 2.04442693423,
			"-0.006": 16.5497456058,
			"-0.005": 26.0004990131,
			"-0.004": 27.9437469454,
			"-0.003": 27.3099489419,
			"-0.002": 20.1838955188,
			"-0.001": 21.1515883677,
			"0.0": 14.4569723954,
			"0.001": 14.0559247458,
			"0.002": 14.2801023911,
			"0.003": 14.9125872398,
			"0.004": 16.671340561,
			"0.005": 18.5041265738,
			"0.006": 17.2700985217,
			"0.007": 3.0264810353,
			"0.008": 1.31729722404,
			"0.009": 2.41043122935,
			"0.01": 2.13435764702,
			"0.011": 3.0356835546,
			"0.012": 2.4288528492,
			"0.013": 0.792645529024,
			"0.014": 0.0,
			"0.015": 0.0,
			"0.016": 0.0,
			"0.017": 0.0,
			"0.018": 0.0,
			"0.019": 0.0,
			"0.02": 0.0,
			"0.021": 0.0,
			"0.022": 0.0,
			"0.023": 0.0,
			"0.024": 0.0,
			"0.025": 0.0
		}
	}
}
