{
	 "smiles": "CCC(C)(C)N", 
	 "Tm": 168.15, 
	 "num_atms": 19, 
	 "gaussian": { 
		 "optdone": 1, 
		 "sigma_profile": "yes", 
		 "theory": "DFT", 
		 "functional": "B3LYP", 
		 "basiset": "6-31G**", 
		 "properties": { 
			 "R2extent": 1012.7418, 
			 "electric_dipole_moment_norm": 1.23104834592, 
			 "electric_quadrupole_moment_norm": 4.73900911795, 
			 "total_energy": -253.132202865, 
			 "HOMO_LUMO_gap": 0.29844, 
			 "cosmo_polarized_energy": -4.47, 
			 "cosmo_cavitation_energy": 19.91, 
			 "cosmo_dispersion_energy": -14.44, 
			 "cosmo_repulsion_energy": 1.23, 
			 "cosmo_total_nonelectrostatic_energy": 6.7, 
			 "SMD_solvation_energy": 3.1 
		},
		"coords": [
			{
				"x": -2.0983725551,
				"y": 0.5019843033,
				"z": -0.1726969614,
				"element": "C" 
			},
			{
				"x": -1.0787230156,
				"y": 0.1490674228,
				"z": 0.9147087414,
				"element": "C" 
			},
			{
				"x": 0.1034569849,
				"y": 1.1371707062,
				"z": 1.0735402586,
				"element": "C" 
			},
			{
				"x": 0.8951962922,
				"y": 1.2801402842,
				"z": -0.2364376894,
				"element": "C" 
			},
			{
				"x": 1.0408831114,
				"y": 0.6153546761,
				"z": 2.1838372516,
				"element": "C" 
			},
			{
				"x": -0.4568875504,
				"y": 2.4654354702,
				"z": 1.3995060435,
				"element": "N" 
			},
			{
				"x": -2.4542568063,
				"y": 1.5276439401,
				"z": -0.0463327474,
				"element": "H" 
			},
			{
				"x": -1.6688801694,
				"y": 0.4167128863,
				"z": -1.1760688106,
				"element": "H" 
			},
			{
				"x": -2.9589728221,
				"y": -0.1738002357,
				"z": -0.1280756425,
				"element": "H" 
			},
			{
				"x": -0.6688363984,
				"y": -0.8528458907,
				"z": 0.7323442881,
				"element": "H" 
			},
			{
				"x": -1.5945913227,
				"y": 0.0891708938,
				"z": 1.8841876261,
				"element": "H" 
			},
			{
				"x": 1.2693419422,
				"y": 0.3092225346,
				"z": -0.5774976323,
				"element": "H" 
			},
			{
				"x": 0.2749800281,
				"y": 1.7139416488,
				"z": -1.0242719772,
				"element": "H" 
			},
			{
				"x": 1.7617201843,
				"y": 1.937018867,
				"z": -0.0930498122,
				"element": "H" 
			},
			{
				"x": 1.4658457169,
				"y": -0.3639575097,
				"z": 1.9337534911,
				"element": "H" 
			},
			{
				"x": 0.5007308431,
				"y": 0.5110961057,
				"z": 3.1325499493,
				"element": "H" 
			},
			{
				"x": 1.8741938323,
				"y": 1.309139622,
				"z": 2.3462011455,
				"element": "H" 
			},
			{
				"x": 0.3017455265,
				"y": 3.1381714279,
				"z": 1.4981070167,
				"element": "H" 
			},
			{
				"x": -0.913973822,
				"y": 2.4248328468,
				"z": 2.3095954613,
				"element": "H" 
			}
		],
		 "valence_orbital": [ 
			{
				"type": "occ",
				"energy": -0.34942,
				"method": "rhf"
			},
			{
				"type": "occ",
				"energy": -0.33216,
				"method": "rhf"
			},
			{
				"type": "occ",
				"energy": -0.31838,
				"method": "rhf"
			},
			{
				"type": "occ",
				"energy": -0.30897,
				"method": "rhf"
			},
			{
				"type": "occ",
				"energy": -0.22943,
				"method": "rhf"
			},
			{
				"type": "unocc",
				"energy": 0.06901,
				"method": "rhf"
			},
			{
				"type": "unocc",
				"energy": 0.12657,
				"method": "rhf"
			},
			{
				"type": "unocc",
				"energy": 0.1274,
				"method": "rhf"
			},
			{
				"type": "unocc",
				"energy": 0.13351,
				"method": "rhf"
			},
			{
				"type": "unocc",
				"energy": 0.14108,
				"method": "rhf"
			}
		],
		"cosmo_sigma_profile": { 
			"-0.025": 0.0,
			"-0.024": 0.0,
			"-0.023": 0.0,
			"-0.022": 0.0,
			"-0.021": 0.0,
			"-0.02": 0.0,
			"-0.019": 0.0,
			"-0.018": 0.0,
			"-0.017": 0.0,
			"-0.016": 0.0,
			"-0.015": 0.0,
			"-0.014": 0.0,
			"-0.013": 0.0,
			"-0.012": 0.0,
			"-0.011": 0.0,
			"-0.01": 0.0,
			"-0.009": 0.731605161175,
			"-0.008": 2.67444818828,
			"-0.007": 2.62145004092,
			"-0.006": 2.98792443606,
			"-0.005": 3.89540275955,
			"-0.004": 4.13996200946,
			"-0.003": 9.28746480237,
			"-0.002": 21.9860238831,
			"-0.001": 21.4177652618,
			"0.0": 21.5312475817,
			"0.001": 24.6814757622,
			"0.002": 20.1360083826,
			"0.003": 3.91883449411,
			"0.004": 0.96531076564,
			"0.005": 1.21364620758,
			"0.006": 1.00237809049,
			"0.007": 1.16826815141,
			"0.008": 0.404248617816,
			"0.009": 1.72169802323,
			"0.01": 0.807179143225,
			"0.011": 0.616015286919,
			"0.012": 0.467598715259,
			"0.013": 0.639795240352,
			"0.014": 1.03174958393,
			"0.015": 0.631111373868,
			"0.016": 0.371478491213,
			"0.017": 0.531445732806,
			"0.018": 0.368696918421,
			"0.019": 0.0806269554067,
			"0.02": 0.0,
			"0.021": 0.0,
			"0.022": 0.0,
			"0.023": 0.0,
			"0.024": 0.0,
			"0.025": 0.0
		}
	}
}
