{
	 "smiles": "OCCNC1=CC=C(Br)C=C1", 
	 "Tm": 354.15, 
	 "num_atms": 21, 
	 "gaussian": { 
		 "optdone": 1, 
		 "sigma_profile": "yes", 
		 "theory": "DFT", 
		 "functional": "B3LYP", 
		 "basiset": "6-31G**", 
		 "properties": { 
			 "R2extent": 4162.7207, 
			 "electric_dipole_moment_norm": 3.74515262439, 
			 "electric_quadrupole_moment_norm": 7.20683170055, 
			 "total_energy": -3012.24607699, 
			 "HOMO_LUMO_gap": 0.19002, 
			 "cosmo_polarized_energy": -10.58, 
			 "cosmo_cavitation_energy": 26.75, 
			 "cosmo_dispersion_energy": -20.03, 
			 "cosmo_repulsion_energy": 1.64, 
			 "cosmo_total_nonelectrostatic_energy": 8.36, 
			 "SMD_solvation_energy": 2.38 
		},
		"coords": [
			{
				"x": 3.9326510697,
				"y": -0.5756749366,
				"z": -1.4168519521,
				"element": "O" 
			},
			{
				"x": 2.9125230028,
				"y": -1.4826435229,
				"z": -1.01128023,
				"element": "C" 
			},
			{
				"x": 2.7228201036,
				"y": -1.2818896804,
				"z": 0.4917624623,
				"element": "C" 
			},
			{
				"x": 2.2908491714,
				"y": 0.059330803,
				"z": 0.8546190527,
				"element": "N" 
			},
			{
				"x": 0.9930549184,
				"y": 0.5154511917,
				"z": 0.630604381,
				"element": "C" 
			},
			{
				"x": 0.7559524426,
				"y": 1.9042540125,
				"z": 0.5644530444,
				"element": "C" 
			},
			{
				"x": -0.5271781125,
				"y": 2.413517595,
				"z": 0.4055483535,
				"element": "C" 
			},
			{
				"x": -1.6094096215,
				"y": 1.5390905505,
				"z": 0.3047178254,
				"element": "C" 
			},
			{
				"x": -3.3787783626,
				"y": 2.2341374531,
				"z": 0.0785235921,
				"element": "Br" 
			},
			{
				"x": -1.4050728223,
				"y": 0.1640983339,
				"z": 0.3636167723,
				"element": "C" 
			},
			{
				"x": -0.1162495221,
				"y": -0.3450071492,
				"z": 0.5219405991,
				"element": "C" 
			},
			{
				"x": 3.9562139451,
				"y": -0.55100497,
				"z": -2.380681325,
				"element": "H" 
			},
			{
				"x": 3.1976976056,
				"y": -2.5284690062,
				"z": -1.2099508139,
				"element": "H" 
			},
			{
				"x": 1.9656912711,
				"y": -1.2832003152,
				"z": -1.5344059919,
				"element": "H" 
			},
			{
				"x": 2.0190538497,
				"y": -2.0210455353,
				"z": 0.8847311313,
				"element": "H" 
			},
			{
				"x": 3.6817150556,
				"y": -1.4653294633,
				"z": 0.9885482953,
				"element": "H" 
			},
			{
				"x": 2.9946829256,
				"y": 0.7483202869,
				"z": 0.6221181106,
				"element": "H" 
			},
			{
				"x": 1.595126157,
				"y": 2.5908514354,
				"z": 0.6462562823,
				"element": "H" 
			},
			{
				"x": -0.6850126367,
				"y": 3.4852698819,
				"z": 0.3574201813,
				"element": "H" 
			},
			{
				"x": -2.2468759467,
				"y": -0.5148627571,
				"z": 0.2833711341,
				"element": "H" 
			},
			{
				"x": 0.0125455061,
				"y": -1.4205942078,
				"z": 0.5673390952,
				"element": "H" 
			}
		],
		 "valence_orbital": [ 
			{
				"type": "occ",
				"energy": -0.28114,
				"method": "rhf"
			},
			{
				"type": "occ",
				"energy": -0.2762,
				"method": "rhf"
			},
			{
				"type": "occ",
				"energy": -0.26884,
				"method": "rhf"
			},
			{
				"type": "occ",
				"energy": -0.25464,
				"method": "rhf"
			},
			{
				"type": "occ",
				"energy": -0.19575,
				"method": "rhf"
			},
			{
				"type": "unocc",
				"energy": -0.00573,
				"method": "rhf"
			},
			{
				"type": "unocc",
				"energy": 0.00975,
				"method": "rhf"
			},
			{
				"type": "unocc",
				"energy": 0.01824,
				"method": "rhf"
			},
			{
				"type": "unocc",
				"energy": 0.06557,
				"method": "rhf"
			},
			{
				"type": "unocc",
				"energy": 0.09622,
				"method": "rhf"
			}
		],
		"cosmo_sigma_profile": { 
			"-0.025": 0.0,
			"-0.024": 0.0,
			"-0.023": 0.0,
			"-0.022": 0.0,
			"-0.021": 0.0,
			"-0.02": 0.0,
			"-0.019": 0.0,
			"-0.018": 0.0,
			"-0.017": 0.0,
			"-0.016": 0.372608173683,
			"-0.015": 1.65329342375,
			"-0.014": 0.0940825425703,
			"-0.013": 1.02195218131,
			"-0.012": 1.37536706428,
			"-0.011": 1.73422658112,
			"-0.01": 1.98614953673,
			"-0.009": 2.12644220382,
			"-0.008": 2.28738851317,
			"-0.007": 5.35740160923,
			"-0.006": 10.0222830708,
			"-0.005": 10.0917829269,
			"-0.004": 17.8383359519,
			"-0.003": 18.622015662,
			"-0.002": 16.2289094608,
			"-0.001": 11.9132425979,
			"0.0": 10.190993854,
			"0.001": 8.93645109635,
			"0.002": 13.0872395143,
			"0.003": 14.9684207073,
			"0.004": 19.242324063,
			"0.005": 26.0423897771,
			"0.006": 7.27771844269,
			"0.007": 1.80102819244,
			"0.008": 1.86544436752,
			"0.009": 1.87772032482,
			"0.01": 1.98534547638,
			"0.011": 1.59677389025,
			"0.012": 1.29640204761,
			"0.013": 1.07701016238,
			"0.014": 0.698100443649,
			"0.015": 0.0799960592128,
			"0.016": 0.0,
			"0.017": 0.0,
			"0.018": 0.0,
			"0.019": 0.0,
			"0.02": 0.0,
			"0.021": 0.0,
			"0.022": 0.0,
			"0.023": 0.0,
			"0.024": 0.0,
			"0.025": 0.0
		}
	}
}
