{
	 "smiles": "OC(=O)CNC(=O)C1=NC=CC=C1", 
	 "Tm": 441.15, 
	 "num_atms": 21, 
	 "gaussian": { 
		 "optdone": 1, 
		 "sigma_profile": "yes", 
		 "theory": "DFT", 
		 "functional": "B3LYP", 
		 "basiset": "6-31G**", 
		 "properties": { 
			 "R2extent": 3432.1841, 
			 "electric_dipole_moment_norm": 6.61150040914, 
			 "electric_quadrupole_moment_norm": 12.0403869444, 
			 "total_energy": -644.858892439, 
			 "HOMO_LUMO_gap": 0.19498, 
			 "cosmo_polarized_energy": -20.21, 
			 "cosmo_cavitation_energy": 26.29, 
			 "cosmo_dispersion_energy": -19.35, 
			 "cosmo_repulsion_energy": 1.55, 
			 "cosmo_total_nonelectrostatic_energy": 8.49, 
			 "SMD_solvation_energy": 5.35 
		},
		"coords": [
			{
				"x": -4.4322146841,
				"y": 2.0363855172,
				"z": 0.3973685784,
				"element": "O" 
			},
			{
				"x": -3.7468145789,
				"y": 1.4131806107,
				"z": -0.5886819637,
				"element": "C" 
			},
			{
				"x": -4.303750661,
				"y": 1.0483780826,
				"z": -1.5939384097,
				"element": "O" 
			},
			{
				"x": -2.2557502328,
				"y": 1.2226140074,
				"z": -0.3176048551,
				"element": "C" 
			},
			{
				"x": -1.6699950019,
				"y": 0.5492780886,
				"z": -1.4523213798,
				"element": "N" 
			},
			{
				"x": -0.3937208529,
				"y": 0.1446127152,
				"z": -1.7214917596,
				"element": "C" 
			},
			{
				"x": -0.1314225714,
				"y": -0.4223841669,
				"z": -2.7804752166,
				"element": "O" 
			},
			{
				"x": 0.7104591672,
				"y": 0.3910531562,
				"z": -0.7170591573,
				"element": "C" 
			},
			{
				"x": 0.4435061421,
				"y": 1.0083298816,
				"z": 0.4438658311,
				"element": "N" 
			},
			{
				"x": 1.4563168651,
				"y": 1.2015015899,
				"z": 1.2970753545,
				"element": "C" 
			},
			{
				"x": 2.7658983936,
				"y": 0.795811338,
				"z": 1.0409152093,
				"element": "C" 
			},
			{
				"x": 3.0361201962,
				"y": 0.1543356287,
				"z": -0.1687302421,
				"element": "C" 
			},
			{
				"x": 1.9927046104,
				"y": -0.0529812056,
				"z": -1.064994542,
				"element": "C" 
			},
			{
				"x": -3.8432508958,
				"y": 2.2636788409,
				"z": 1.131926281,
				"element": "H" 
			},
			{
				"x": -2.1337989082,
				"y": 0.6549770982,
				"z": 0.6133825578,
				"element": "H" 
			},
			{
				"x": -1.8001317954,
				"y": 2.2035620583,
				"z": -0.1333047078,
				"element": "H" 
			},
			{
				"x": -2.3313967947,
				"y": 0.3346895809,
				"z": -2.1927171864,
				"element": "H" 
			},
			{
				"x": 1.2087220073,
				"y": 1.70475468,
				"z": 2.230099954,
				"element": "H" 
			},
			{
				"x": 3.5479149205,
				"y": 0.9792761268,
				"z": 1.7708609052,
				"element": "H" 
			},
			{
				"x": 4.042359398,
				"y": -0.1775466003,
				"z": -0.4073741514,
				"element": "H" 
			},
			{
				"x": 2.1286452769,
				"y": -0.5433070286,
				"z": -2.0212011,
				"element": "H" 
			}
		],
		 "valence_orbital": [ 
			{
				"type": "occ",
				"energy": -0.2969,
				"method": "rhf"
			},
			{
				"type": "occ",
				"energy": -0.27828,
				"method": "rhf"
			},
			{
				"type": "occ",
				"energy": -0.27424,
				"method": "rhf"
			},
			{
				"type": "occ",
				"energy": -0.25308,
				"method": "rhf"
			},
			{
				"type": "occ",
				"energy": -0.25066,
				"method": "rhf"
			},
			{
				"type": "unocc",
				"energy": -0.05568,
				"method": "rhf"
			},
			{
				"type": "unocc",
				"energy": -0.03441,
				"method": "rhf"
			},
			{
				"type": "unocc",
				"energy": -0.00274,
				"method": "rhf"
			},
			{
				"type": "unocc",
				"energy": 0.04114,
				"method": "rhf"
			},
			{
				"type": "unocc",
				"energy": 0.05417,
				"method": "rhf"
			}
		],
		"cosmo_sigma_profile": { 
			"-0.025": 0.0,
			"-0.024": 0.0,
			"-0.023": 0.0,
			"-0.022": 0.0,
			"-0.021": 0.00121441990202,
			"-0.02": 0.841485782877,
			"-0.019": 1.1724091314,
			"-0.018": 1.03682966316,
			"-0.017": 1.32759829094,
			"-0.016": 1.27440559423,
			"-0.015": 0.757250375272,
			"-0.014": 1.28235634888,
			"-0.013": 1.12005155595,
			"-0.012": 1.12248041514,
			"-0.011": 1.73994336007,
			"-0.01": 1.16520394257,
			"-0.009": 1.74901864281,
			"-0.008": 5.18219810748,
			"-0.007": 10.276116831,
			"-0.006": 11.7101340136,
			"-0.005": 12.0428479606,
			"-0.004": 8.30361832884,
			"-0.003": 9.55406439333,
			"-0.002": 14.1329941758,
			"-0.001": 11.7046878433,
			"0.0": 14.0015679859,
			"0.001": 20.3813105469,
			"0.002": 16.4787532295,
			"0.003": 6.44054641939,
			"0.004": 5.77362170117,
			"0.005": 6.62993416273,
			"0.006": 5.59795271539,
			"0.007": 3.22566131374,
			"0.008": 4.71773706215,
			"0.009": 5.94243569255,
			"0.01": 6.65218400146,
			"0.011": 5.21769546741,
			"0.012": 3.75236700067,
			"0.013": 4.34392031543,
			"0.014": 3.26067238924,
			"0.015": 0.209281444263,
			"0.016": 0.0,
			"0.017": 0.0,
			"0.018": 0.0,
			"0.019": 0.0,
			"0.02": 0.0,
			"0.021": 0.0,
			"0.022": 0.0,
			"0.023": 0.0,
			"0.024": 0.0,
			"0.025": 0.0
		}
	}
}
