{
	 "smiles": "SC1=NN=CN1C1=CC(Cl)=CC=C1", 
	 "Tm": 461.15, 
	 "num_atms": 19, 
	 "gaussian": { 
		 "optdone": 1, 
		 "sigma_profile": "yes", 
		 "theory": "DFT", 
		 "functional": "B3LYP", 
		 "basiset": "6-31G**", 
		 "properties": { 
			 "R2extent": 4694.6559, 
			 "electric_dipole_moment_norm": 5.66774647104, 
			 "electric_quadrupole_moment_norm": 28.1442590075, 
			 "total_energy": -1331.06080864, 
			 "HOMO_LUMO_gap": 0.20241, 
			 "cosmo_polarized_energy": -17.24, 
			 "cosmo_cavitation_energy": 27.72, 
			 "cosmo_dispersion_energy": -20.37, 
			 "cosmo_repulsion_energy": 1.57, 
			 "cosmo_total_nonelectrostatic_energy": 8.92, 
			 "SMD_solvation_energy": 2.64 
		},
		"coords": [
			{
				"x": -2.3986614311,
				"y": -0.716492294,
				"z": 2.66186795,
				"element": "S" 
			},
			{
				"x": -3.0783115372,
				"y": -1.2082439205,
				"z": 1.1067157273,
				"element": "C" 
			},
			{
				"x": -4.352953933,
				"y": -1.4556546654,
				"z": 0.914335511,
				"element": "N" 
			},
			{
				"x": -4.5297669217,
				"y": -1.7361255357,
				"z": -0.4248963014,
				"element": "N" 
			},
			{
				"x": -3.3550511338,
				"y": -1.6664702109,
				"z": -0.9955568291,
				"element": "C" 
			},
			{
				"x": -2.3819492102,
				"y": -1.3188072446,
				"z": -0.0882856975,
				"element": "N" 
			},
			{
				"x": -0.9906870578,
				"y": -1.1509265743,
				"z": -0.3597552504,
				"element": "C" 
			},
			{
				"x": -0.2858572209,
				"y": -2.2128255364,
				"z": -0.9347277295,
				"element": "C" 
			},
			{
				"x": 1.064361085,
				"y": -2.037262459,
				"z": -1.2342559414,
				"element": "C" 
			},
			{
				"x": 1.9539635838,
				"y": -3.3609911606,
				"z": -1.9630926283,
				"element": "Cl" 
			},
			{
				"x": 1.7187332892,
				"y": -0.8374988463,
				"z": -0.9562186514,
				"element": "C" 
			},
			{
				"x": 0.9974224811,
				"y": 0.2063351206,
				"z": -0.3742190425,
				"element": "C" 
			},
			{
				"x": -0.3575070601,
				"y": 0.0635006391,
				"z": -0.0794612976,
				"element": "C" 
			},
			{
				"x": -1.45049546,
				"y": -1.6753679224,
				"z": 2.7314606619,
				"element": "H" 
			},
			{
				"x": -3.141276523,
				"y": -1.8374991063,
				"z": -2.0411133712,
				"element": "H" 
			},
			{
				"x": -0.7790886346,
				"y": -3.1571590923,
				"z": -1.1342669867,
				"element": "H" 
			},
			{
				"x": 2.7706316705,
				"y": -0.7253460536,
				"z": -1.1929377211,
				"element": "H" 
			},
			{
				"x": 1.4970573832,
				"y": 1.1455619513,
				"z": -0.1591694567,
				"element": "H" 
			},
			{
				"x": -0.9226633694,
				"y": 0.8777729111,
				"z": 0.3580770546,
				"element": "H" 
			}
		],
		 "valence_orbital": [ 
			{
				"type": "occ",
				"energy": -0.29808,
				"method": "rhf"
			},
			{
				"type": "occ",
				"energy": -0.28587,
				"method": "rhf"
			},
			{
				"type": "occ",
				"energy": -0.27279,
				"method": "rhf"
			},
			{
				"type": "occ",
				"energy": -0.25895,
				"method": "rhf"
			},
			{
				"type": "occ",
				"energy": -0.25259,
				"method": "rhf"
			},
			{
				"type": "unocc",
				"energy": -0.05018,
				"method": "rhf"
			},
			{
				"type": "unocc",
				"energy": -0.04164,
				"method": "rhf"
			},
			{
				"type": "unocc",
				"energy": -0.00754,
				"method": "rhf"
			},
			{
				"type": "unocc",
				"energy": 0.00821,
				"method": "rhf"
			},
			{
				"type": "unocc",
				"energy": 0.02226,
				"method": "rhf"
			}
		],
		"cosmo_sigma_profile": { 
			"-0.025": 0.0,
			"-0.024": 0.0,
			"-0.023": 0.0,
			"-0.022": 0.0,
			"-0.021": 0.0,
			"-0.02": 0.0,
			"-0.019": 0.0,
			"-0.018": 0.0,
			"-0.017": 0.0,
			"-0.016": 0.0,
			"-0.015": 0.0,
			"-0.014": 0.0,
			"-0.013": 0.0,
			"-0.012": 0.990495782986,
			"-0.011": 3.93254403426,
			"-0.01": 4.25506487803,
			"-0.009": 4.1680290865,
			"-0.008": 8.87162381742,
			"-0.007": 11.2555454239,
			"-0.006": 11.6689660106,
			"-0.005": 11.8184058755,
			"-0.004": 10.9204495782,
			"-0.003": 11.3258288147,
			"-0.002": 12.3087544307,
			"-0.001": 13.7102553777,
			"0.0": 16.3667838477,
			"0.001": 21.1127391622,
			"0.002": 19.4307289782,
			"0.003": 14.54531453,
			"0.004": 14.5570864823,
			"0.005": 6.44569560047,
			"0.006": 3.09367502945,
			"0.007": 2.58248249084,
			"0.008": 3.35380178818,
			"0.009": 2.33902733972,
			"0.01": 2.46658863533,
			"0.011": 3.02456241359,
			"0.012": 2.99309872575,
			"0.013": 3.63799200766,
			"0.014": 3.111190301,
			"0.015": 2.03142659461,
			"0.016": 2.00220061237,
			"0.017": 0.0762315749881,
			"0.018": 0.0,
			"0.019": 0.0,
			"0.02": 0.0,
			"0.021": 0.0,
			"0.022": 0.0,
			"0.023": 0.0,
			"0.024": 0.0,
			"0.025": 0.0
		}
	}
}
