{
	 "smiles": "OC1=CC=CC=C1NC1=CC=C(C=C1[N+]([O-])=O)[N+]([O-])=O", 
	 "Tm": 470.65, 
	 "num_atms": 29, 
	 "gaussian": { 
		 "optdone": 1, 
		 "sigma_profile": "yes", 
		 "theory": "DFT", 
		 "functional": "B3LYP", 
		 "basiset": "6-31G**", 
		 "properties": { 
			 "R2extent": 7724.5928, 
			 "electric_dipole_moment_norm": 5.60292948019, 
			 "electric_quadrupole_moment_norm": 18.2107890315, 
			 "total_energy": -1002.87701879, 
			 "HOMO_LUMO_gap": 0.13375, 
			 "cosmo_polarized_energy": -17.2, 
			 "cosmo_cavitation_energy": 35.34, 
			 "cosmo_dispersion_energy": -25.19, 
			 "cosmo_repulsion_energy": 1.92, 
			 "cosmo_total_nonelectrostatic_energy": 12.06, 
			 "SMD_solvation_energy": 10.79 
		},
		"coords": [
			{
				"x": 0.8654690371,
				"y": 1.8919503824,
				"z": -3.5236002791,
				"element": "O" 
			},
			{
				"x": 1.5813837607,
				"y": 1.3622877366,
				"z": -2.5001168691,
				"element": "C" 
			},
			{
				"x": 2.9086291466,
				"y": 1.7712451062,
				"z": -2.3262486073,
				"element": "C" 
			},
			{
				"x": 3.663672237,
				"y": 1.2466057985,
				"z": -1.2816430195,
				"element": "C" 
			},
			{
				"x": 3.1137706918,
				"y": 0.3097269284,
				"z": -0.3993659901,
				"element": "C" 
			},
			{
				"x": 1.7959685621,
				"y": -0.1051041663,
				"z": -0.5749067666,
				"element": "C" 
			},
			{
				"x": 1.0239108914,
				"y": 0.4195459369,
				"z": -1.6171268106,
				"element": "C" 
			},
			{
				"x": -0.3218840017,
				"y": -0.0105029176,
				"z": -1.8590564623,
				"element": "N" 
			},
			{
				"x": -1.3757886928,
				"y": 0.2384305218,
				"z": -1.0246672924,
				"element": "C" 
			},
			{
				"x": -1.2613038772,
				"y": 1.1971422535,
				"z": 0.0181817738,
				"element": "C" 
			},
			{
				"x": -2.3146376259,
				"y": 1.4870771957,
				"z": 0.8571280257,
				"element": "C" 
			},
			{
				"x": -3.538679972,
				"y": 0.8214065437,
				"z": 0.6909784536,
				"element": "C" 
			},
			{
				"x": -3.7066706659,
				"y": -0.1201011402,
				"z": -0.3055423454,
				"element": "C" 
			},
			{
				"x": -2.6420816892,
				"y": -0.4129261561,
				"z": -1.1599602945,
				"element": "C" 
			},
			{
				"x": -2.8974128437,
				"y": -1.4199061886,
				"z": -2.1818881103,
				"element": "N" 
			},
			{
				"x": -1.9900693154,
				"y": -1.6927461472,
				"z": -2.9915670374,
				"element": "O" 
			},
			{
				"x": -3.9980463078,
				"y": -1.9605343908,
				"z": -2.2086720865,
				"element": "O" 
			},
			{
				"x": -4.6551150712,
				"y": 1.1273705682,
				"z": 1.583758824,
				"element": "N" 
			},
			{
				"x": -5.7144240908,
				"y": 0.5271292367,
				"z": 1.4041136639,
				"element": "O" 
			},
			{
				"x": -4.4615032834,
				"y": 1.9700696715,
				"z": 2.461689238,
				"element": "O" 
			},
			{
				"x": -0.0315399301,
				"y": 1.5245363521,
				"z": -3.4800833928,
				"element": "H" 
			},
			{
				"x": 3.3212740184,
				"y": 2.4983731548,
				"z": -3.0173463837,
				"element": "H" 
			},
			{
				"x": 4.6921567917,
				"y": 1.5710900944,
				"z": -1.1543440517,
				"element": "H" 
			},
			{
				"x": 3.709062566,
				"y": -0.0993408873,
				"z": 0.4101997099,
				"element": "H" 
			},
			{
				"x": 1.3508086862,
				"y": -0.8403125527,
				"z": 0.0890679706,
				"element": "H" 
			},
			{
				"x": -0.4946299335,
				"y": -0.7670958286,
				"z": -2.5189039354,
				"element": "H" 
			},
			{
				"x": -0.3140621099,
				"y": 1.7074703796,
				"z": 0.1411008462,
				"element": "H" 
			},
			{
				"x": -2.2175890824,
				"y": 2.2237897299,
				"z": 1.6451070538,
				"element": "H" 
			},
			{
				"x": -4.6511678963,
				"y": -0.6317772152,
				"z": -0.4294858253,
				"element": "H" 
			}
		],
		 "valence_orbital": [ 
			{
				"type": "occ",
				"energy": -0.30488,
				"method": "rhf"
			},
			{
				"type": "occ",
				"energy": -0.29685,
				"method": "rhf"
			},
			{
				"type": "occ",
				"energy": -0.27897,
				"method": "rhf"
			},
			{
				"type": "occ",
				"energy": -0.25504,
				"method": "rhf"
			},
			{
				"type": "occ",
				"energy": -0.24298,
				"method": "rhf"
			},
			{
				"type": "unocc",
				"energy": -0.10923,
				"method": "rhf"
			},
			{
				"type": "unocc",
				"energy": -0.09433,
				"method": "rhf"
			},
			{
				"type": "unocc",
				"energy": -0.03468,
				"method": "rhf"
			},
			{
				"type": "unocc",
				"energy": -0.02437,
				"method": "rhf"
			},
			{
				"type": "unocc",
				"energy": -0.01069,
				"method": "rhf"
			}
		],
		"cosmo_sigma_profile": { 
			"-0.025": 0.0,
			"-0.024": 0.0,
			"-0.023": 0.0,
			"-0.022": 0.0,
			"-0.021": 0.0,
			"-0.02": 0.0,
			"-0.019": 0.0,
			"-0.018": 0.0,
			"-0.017": 0.0,
			"-0.016": 0.169559003749,
			"-0.015": 0.575127422394,
			"-0.014": 0.618778084231,
			"-0.013": 0.748982538122,
			"-0.012": 2.15091461152,
			"-0.011": 2.31538058916,
			"-0.01": 2.11602272054,
			"-0.009": 1.76551102899,
			"-0.008": 4.8873909944,
			"-0.007": 9.46153022203,
			"-0.006": 17.2348289667,
			"-0.005": 19.3005872724,
			"-0.004": 22.1502714402,
			"-0.003": 22.3546178436,
			"-0.002": 24.0131641535,
			"-0.001": 16.5660027734,
			"0.0": 15.9255483427,
			"0.001": 13.7178222366,
			"0.002": 12.702133385,
			"0.003": 13.8024894492,
			"0.004": 13.3098969637,
			"0.005": 12.8245115812,
			"0.006": 8.72366727512,
			"0.007": 14.8154141843,
			"0.008": 13.7277204801,
			"0.009": 10.1584791781,
			"0.01": 6.5525559222,
			"0.011": 1.77441728949,
			"0.012": 0.0156161143073,
			"0.013": 0.0,
			"0.014": 0.0,
			"0.015": 0.0,
			"0.016": 0.0,
			"0.017": 0.0,
			"0.018": 0.0,
			"0.019": 0.0,
			"0.02": 0.0,
			"0.021": 0.0,
			"0.022": 0.0,
			"0.023": 0.0,
			"0.024": 0.0,
			"0.025": 0.0
		}
	}
}
