{
	 "smiles": "NC1=NC(=CS1)C1=C(Cl)C=CC(Cl)=C1", 
	 "Tm": 436.15, 
	 "num_atms": 20, 
	 "gaussian": { 
		 "optdone": 1, 
		 "sigma_profile": "yes", 
		 "theory": "DFT", 
		 "functional": "B3LYP", 
		 "basiset": "6-31G**", 
		 "properties": { 
			 "R2extent": 5143.6675, 
			 "electric_dipole_moment_norm": 2.52092991771, 
			 "electric_quadrupole_moment_norm": 19.1133020556, 
			 "total_energy": -1774.64697088, 
			 "HOMO_LUMO_gap": 0.16919, 
			 "cosmo_polarized_energy": -10.37, 
			 "cosmo_cavitation_energy": 29.7, 
			 "cosmo_dispersion_energy": -22.93, 
			 "cosmo_repulsion_energy": 1.76, 
			 "cosmo_total_nonelectrostatic_energy": 8.53, 
			 "SMD_solvation_energy": 3.2 
		},
		"coords": [
			{
				"x": 1.5550734816,
				"y": -0.3233027499,
				"z": -3.8399859274,
				"element": "N" 
			},
			{
				"x": 1.328143634,
				"y": -0.3151750709,
				"z": -2.4837449334,
				"element": "C" 
			},
			{
				"x": 0.7073839419,
				"y": 0.6356435515,
				"z": -1.8555909968,
				"element": "N" 
			},
			{
				"x": 0.5653454453,
				"y": 0.3494685122,
				"z": -0.5007248381,
				"element": "C" 
			},
			{
				"x": 1.099022693,
				"y": -0.8493121936,
				"z": -0.1088671291,
				"element": "C" 
			},
			{
				"x": 1.8026381159,
				"y": -1.6828914315,
				"z": -1.4678107951,
				"element": "S" 
			},
			{
				"x": -0.1717245011,
				"y": 1.3413807873,
				"z": 0.3145984354,
				"element": "C" 
			},
			{
				"x": -0.1584924283,
				"y": 1.4605513046,
				"z": 1.7191458011,
				"element": "C" 
			},
			{
				"x": 0.8223756764,
				"y": 0.4252503928,
				"z": 2.7544400207,
				"element": "Cl" 
			},
			{
				"x": -0.9077418228,
				"y": 2.4371357354,
				"z": 2.3774125648,
				"element": "C" 
			},
			{
				"x": -1.6952259132,
				"y": 3.3334545197,
				"z": 1.6625424754,
				"element": "C" 
			},
			{
				"x": -1.7106200268,
				"y": 3.2356061658,
				"z": 0.2723816998,
				"element": "C" 
			},
			{
				"x": -2.6893286357,
				"y": 4.3581107603,
				"z": -0.6613263073,
				"element": "Cl" 
			},
			{
				"x": -0.9680612782,
				"y": 2.2688344543,
				"z": -0.3893632625,
				"element": "C" 
			},
			{
				"x": 2.3710114622,
				"y": -0.8200423928,
				"z": -4.1671192476,
				"element": "H" 
			},
			{
				"x": 1.4228959546,
				"y": 0.5823956685,
				"z": -4.2708316744,
				"element": "H" 
			},
			{
				"x": 1.1134616404,
				"y": -1.3054473856,
				"z": 0.8657818234,
				"element": "H" 
			},
			{
				"x": -0.8643961019,
				"y": 2.4940439454,
				"z": 3.4591765843,
				"element": "H" 
			},
			{
				"x": -2.2774552116,
				"y": 4.0913120665,
				"z": 2.1737815368,
				"element": "H" 
			},
			{
				"x": -0.9814061257,
				"y": 2.2080833599,
				"z": -1.46959583,
				"element": "H" 
			}
		],
		 "valence_orbital": [ 
			{
				"type": "occ",
				"energy": -0.29318,
				"method": "rhf"
			},
			{
				"type": "occ",
				"energy": -0.28145,
				"method": "rhf"
			},
			{
				"type": "occ",
				"energy": -0.26225,
				"method": "rhf"
			},
			{
				"type": "occ",
				"energy": -0.24382,
				"method": "rhf"
			},
			{
				"type": "occ",
				"energy": -0.2125,
				"method": "rhf"
			},
			{
				"type": "unocc",
				"energy": -0.04331,
				"method": "rhf"
			},
			{
				"type": "unocc",
				"energy": -0.01887,
				"method": "rhf"
			},
			{
				"type": "unocc",
				"energy": 0.00076,
				"method": "rhf"
			},
			{
				"type": "unocc",
				"energy": 0.00496,
				"method": "rhf"
			},
			{
				"type": "unocc",
				"energy": 0.02271,
				"method": "rhf"
			}
		],
		"cosmo_sigma_profile": { 
			"-0.025": 0.0,
			"-0.024": 0.0,
			"-0.023": 0.0,
			"-0.022": 0.0,
			"-0.021": 0.0,
			"-0.02": 0.0,
			"-0.019": 0.0,
			"-0.018": 0.0,
			"-0.017": 0.0,
			"-0.016": 0.0,
			"-0.015": 0.543006400738,
			"-0.014": 2.29419224311,
			"-0.013": 2.55623455531,
			"-0.012": 2.78057185992,
			"-0.011": 3.06889061245,
			"-0.01": 2.34971039235,
			"-0.009": 1.73649893264,
			"-0.008": 4.14673457408,
			"-0.007": 6.96862822759,
			"-0.006": 7.96886911325,
			"-0.005": 6.76081064657,
			"-0.004": 7.01354060398,
			"-0.003": 9.49483259898,
			"-0.002": 12.4977242417,
			"-0.001": 13.7866739707,
			"0.0": 18.6355075743,
			"0.001": 31.8115747819,
			"0.002": 37.3747549354,
			"0.003": 26.7631586413,
			"0.004": 25.1842598643,
			"0.005": 9.95728067053,
			"0.006": 2.76964346469,
			"0.007": 2.45002991494,
			"0.008": 2.3297700335,
			"0.009": 1.80082778956,
			"0.01": 1.24384354342,
			"0.011": 1.01949805321,
			"0.012": 0.454832649636,
			"0.013": 0.0,
			"0.014": 0.0,
			"0.015": 0.0,
			"0.016": 0.0,
			"0.017": 0.0,
			"0.018": 0.0,
			"0.019": 0.0,
			"0.02": 0.0,
			"0.021": 0.0,
			"0.022": 0.0,
			"0.023": 0.0,
			"0.024": 0.0,
			"0.025": 0.0
		}
	}
}
