{
	 "smiles": "BrC1=CC2=C(OCO2)C=C1C=O", 
	 "Tm": 402.15, 
	 "num_atms": 17, 
	 "gaussian": { 
		 "optdone": 1, 
		 "sigma_profile": "yes", 
		 "theory": "DFT", 
		 "functional": "B3LYP", 
		 "basiset": "6-31G**", 
		 "properties": { 
			 "R2extent": 3887.6077, 
			 "electric_dipole_moment_norm": 4.08602050289, 
			 "electric_quadrupole_moment_norm": 10.8952221909, 
			 "total_energy": -3104.89943728, 
			 "HOMO_LUMO_gap": 0.16167, 
			 "cosmo_polarized_energy": -8.87, 
			 "cosmo_cavitation_energy": 24.04, 
			 "cosmo_dispersion_energy": -18.67, 
			 "cosmo_repulsion_energy": 1.47, 
			 "cosmo_total_nonelectrostatic_energy": 6.85, 
			 "SMD_solvation_energy": 4.89 
		},
		"coords": [
			{
				"x": 0.2531448142,
				"y": 3.8645506182,
				"z": -1.0036850793,
				"element": "Br" 
			},
			{
				"x": -0.0776756695,
				"y": 2.0797563399,
				"z": -0.386185217,
				"element": "C" 
			},
			{
				"x": 0.3645530218,
				"y": 1.0448298476,
				"z": -1.2252802121,
				"element": "C" 
			},
			{
				"x": 0.1298405956,
				"y": -0.2439257824,
				"z": -0.7868996191,
				"element": "C" 
			},
			{
				"x": -0.5125119413,
				"y": -0.5139909251,
				"z": 0.4251636303,
				"element": "C" 
			},
			{
				"x": -0.6076619495,
				"y": -1.870986017,
				"z": 0.5998100896,
				"element": "O" 
			},
			{
				"x": -0.0003271788,
				"y": -2.4686648896,
				"z": -0.5494406919,
				"element": "C" 
			},
			{
				"x": 0.4574115314,
				"y": -1.4096033009,
				"z": -1.40986816,
				"element": "O" 
			},
			{
				"x": -0.9458515257,
				"y": 0.4944888638,
				"z": 1.2472612277,
				"element": "C" 
			},
			{
				"x": -0.72411499,
				"y": 1.8330122424,
				"z": 0.8335576546,
				"element": "C" 
			},
			{
				"x": -1.2032914341,
				"y": 2.9023788326,
				"z": 1.7422575093,
				"element": "C" 
			},
			{
				"x": -1.7639728391,
				"y": 2.6769450457,
				"z": 2.8001546767,
				"element": "O" 
			},
			{
				"x": 0.8623229379,
				"y": 1.2474395658,
				"z": -2.1645409836,
				"element": "H" 
			},
			{
				"x": -0.7393596242,
				"y": -3.0745173695,
				"z": -1.0860622318,
				"element": "H" 
			},
			{
				"x": 0.8569730618,
				"y": -3.0777279964,
				"z": -0.2407944212,
				"element": "H" 
			},
			{
				"x": -1.4466259002,
				"y": 0.3188127376,
				"z": 2.1922527028,
				"element": "H" 
			},
			{
				"x": -1.0211529104,
				"y": 3.9376021873,
				"z": 1.401899125,
				"element": "H" 
			}
		],
		 "valence_orbital": [ 
			{
				"type": "occ",
				"energy": -0.30417,
				"method": "rhf"
			},
			{
				"type": "occ",
				"energy": -0.29936,
				"method": "rhf"
			},
			{
				"type": "occ",
				"energy": -0.26528,
				"method": "rhf"
			},
			{
				"type": "occ",
				"energy": -0.25489,
				"method": "rhf"
			},
			{
				"type": "occ",
				"energy": -0.22825,
				"method": "rhf"
			},
			{
				"type": "unocc",
				"energy": -0.06658,
				"method": "rhf"
			},
			{
				"type": "unocc",
				"energy": -0.02189,
				"method": "rhf"
			},
			{
				"type": "unocc",
				"energy": -0.00792,
				"method": "rhf"
			},
			{
				"type": "unocc",
				"energy": 0.03991,
				"method": "rhf"
			},
			{
				"type": "unocc",
				"energy": 0.08301,
				"method": "rhf"
			}
		],
		"cosmo_sigma_profile": { 
			"-0.025": 0.0,
			"-0.024": 0.0,
			"-0.023": 0.0,
			"-0.022": 0.0,
			"-0.021": 0.0,
			"-0.02": 0.0,
			"-0.019": 0.0,
			"-0.018": 0.0,
			"-0.017": 0.0,
			"-0.016": 0.0,
			"-0.015": 0.0,
			"-0.014": 0.0,
			"-0.013": 0.0,
			"-0.012": 0.0,
			"-0.011": 0.0,
			"-0.01": 0.0,
			"-0.009": 2.01760770719,
			"-0.008": 9.52022900167,
			"-0.007": 9.05067338978,
			"-0.006": 8.62101588507,
			"-0.005": 8.8863527646,
			"-0.004": 11.4908761098,
			"-0.003": 11.578759611,
			"-0.002": 12.1502624558,
			"-0.001": 15.3356003238,
			"0.0": 19.8299500953,
			"0.001": 24.6805794561,
			"0.002": 12.9234547316,
			"0.003": 11.5148349797,
			"0.004": 10.1383763398,
			"0.005": 3.6984075897,
			"0.006": 4.17286382534,
			"0.007": 3.86127337772,
			"0.008": 5.17152349512,
			"0.009": 3.19087257688,
			"0.01": 2.12947844992,
			"0.011": 4.35652769319,
			"0.012": 2.28116328145,
			"0.013": 0.665893392399,
			"0.014": 0.0,
			"0.015": 0.0,
			"0.016": 0.0,
			"0.017": 0.0,
			"0.018": 0.0,
			"0.019": 0.0,
			"0.02": 0.0,
			"0.021": 0.0,
			"0.022": 0.0,
			"0.023": 0.0,
			"0.024": 0.0,
			"0.025": 0.0
		}
	}
}
