{
	 "smiles": "OC(=O)C1CCC2=C1C=CC=C2", 
	 "Tm": 328.15, 
	 "num_atms": 22, 
	 "gaussian": { 
		 "optdone": 1, 
		 "sigma_profile": "yes", 
		 "theory": "DFT", 
		 "functional": "B3LYP", 
		 "basiset": "6-31G**", 
		 "properties": { 
			 "R2extent": 3356.0483, 
			 "electric_dipole_moment_norm": 4.13139424529, 
			 "electric_quadrupole_moment_norm": 25.3914943233, 
			 "total_energy": -537.550636666, 
			 "HOMO_LUMO_gap": 0.23121, 
			 "cosmo_polarized_energy": -15.95, 
			 "cosmo_cavitation_energy": 25.25, 
			 "cosmo_dispersion_energy": -18.32, 
			 "cosmo_repulsion_energy": 1.47, 
			 "cosmo_total_nonelectrostatic_energy": 8.4, 
			 "SMD_solvation_energy": 4.91 
		},
		"coords": [
			{
				"x": 1.1794128101,
				"y": 3.4283962765,
				"z": -2.5471243959,
				"element": "O" 
			},
			{
				"x": 1.1345981898,
				"y": 3.1511590205,
				"z": -1.2110915248,
				"element": "C" 
			},
			{
				"x": 1.6349852602,
				"y": 3.9115362499,
				"z": -0.4240598174,
				"element": "O" 
			},
			{
				"x": 0.3968890102,
				"y": 1.8516191486,
				"z": -0.8568201466,
				"element": "C" 
			},
			{
				"x": -1.146146185,
				"y": 1.986570423,
				"z": -1.0855906527,
				"element": "C" 
			},
			{
				"x": -1.7264760599,
				"y": 2.3692142739,
				"z": 0.2973272806,
				"element": "C" 
			},
			{
				"x": -0.7185038858,
				"y": 1.7899125217,
				"z": 1.2659496382,
				"element": "C" 
			},
			{
				"x": 0.4877556084,
				"y": 1.5073832094,
				"z": 0.6144108301,
				"element": "C" 
			},
			{
				"x": 1.5735049256,
				"y": 0.9886527095,
				"z": 1.3159858761,
				"element": "C" 
			},
			{
				"x": 1.4386088893,
				"y": 0.7433934161,
				"z": 2.6848797581,
				"element": "C" 
			},
			{
				"x": 0.2334691028,
				"y": 1.0214797919,
				"z": 3.3378520689,
				"element": "C" 
			},
			{
				"x": -0.8515517916,
				"y": 1.5498598252,
				"z": 2.6325980439,
				"element": "C" 
			},
			{
				"x": 0.7496986781,
				"y": 2.7215446603,
				"z": -3.0492254435,
				"element": "H" 
			},
			{
				"x": 0.8157302061,
				"y": 1.0587562697,
				"z": -1.4922993954,
				"element": "H" 
			},
			{
				"x": -1.4008924601,
				"y": 2.7075522105,
				"z": -1.868429672,
				"element": "H" 
			},
			{
				"x": -1.5401869142,
				"y": 1.0123321881,
				"z": -1.3921396873,
				"element": "H" 
			},
			{
				"x": -2.740602165,
				"y": 1.982461756,
				"z": 0.4417302154,
				"element": "H" 
			},
			{
				"x": -1.78034289,
				"y": 3.4601492495,
				"z": 0.4112976753,
				"element": "H" 
			},
			{
				"x": 2.5125013464,
				"y": 0.7785339109,
				"z": 0.8110393802,
				"element": "H" 
			},
			{
				"x": 2.2740892822,
				"y": 0.3334875098,
				"z": 3.2449016107,
				"element": "H" 
			},
			{
				"x": 0.1391996574,
				"y": 0.8226485697,
				"z": 4.4017192031,
				"element": "H" 
			},
			{
				"x": -1.7857406151,
				"y": 1.7648568094,
				"z": 3.1449891552,
				"element": "H" 
			}
		],
		 "valence_orbital": [ 
			{
				"type": "occ",
				"energy": -0.33264,
				"method": "rhf"
			},
			{
				"type": "occ",
				"energy": -0.31313,
				"method": "rhf"
			},
			{
				"type": "occ",
				"energy": -0.26762,
				"method": "rhf"
			},
			{
				"type": "occ",
				"energy": -0.2474,
				"method": "rhf"
			},
			{
				"type": "occ",
				"energy": -0.23803,
				"method": "rhf"
			},
			{
				"type": "unocc",
				"energy": -0.00682,
				"method": "rhf"
			},
			{
				"type": "unocc",
				"energy": 0.00026,
				"method": "rhf"
			},
			{
				"type": "unocc",
				"energy": 0.01044,
				"method": "rhf"
			},
			{
				"type": "unocc",
				"energy": 0.05622,
				"method": "rhf"
			},
			{
				"type": "unocc",
				"energy": 0.09159,
				"method": "rhf"
			}
		],
		"cosmo_sigma_profile": { 
			"-0.025": 0.0,
			"-0.024": 0.0,
			"-0.023": 0.0,
			"-0.022": 0.0,
			"-0.021": 0.0,
			"-0.02": 0.0,
			"-0.019": 0.195857730362,
			"-0.018": 0.885260541606,
			"-0.017": 1.21965894417,
			"-0.016": 0.731745609961,
			"-0.015": 1.13959354226,
			"-0.014": 0.873364334651,
			"-0.013": 0.996409749042,
			"-0.012": 1.25834610916,
			"-0.011": 1.25668786714,
			"-0.01": 1.24935078173,
			"-0.009": 1.35151243943,
			"-0.008": 1.43929363001,
			"-0.007": 2.55714266612,
			"-0.006": 6.95387193593,
			"-0.005": 14.5455700209,
			"-0.004": 21.3182017276,
			"-0.003": 20.5720034834,
			"-0.002": 15.7249921403,
			"-0.001": 16.3782159315,
			"0.0": 10.1075854394,
			"0.001": 6.99416428284,
			"0.002": 7.80079933351,
			"0.003": 7.80509341682,
			"0.004": 8.29493359233,
			"0.005": 7.74886897555,
			"0.006": 9.07365439191,
			"0.007": 5.20698597908,
			"0.008": 3.12722985444,
			"0.009": 3.41695678207,
			"0.01": 5.15003117958,
			"0.011": 6.33553089056,
			"0.012": 5.69830584368,
			"0.013": 2.33168756542,
			"0.014": 0.0871422905543,
			"0.015": 0.0,
			"0.016": 0.0,
			"0.017": 0.0,
			"0.018": 0.0,
			"0.019": 0.0,
			"0.02": 0.0,
			"0.021": 0.0,
			"0.022": 0.0,
			"0.023": 0.0,
			"0.024": 0.0,
			"0.025": 0.0
		}
	}
}
