{
	 "smiles": "CC1=CC(=NN1C(C)(C)C)C(O)=O", 
	 "Tm": 417.15, 
	 "num_atms": 27, 
	 "gaussian": { 
		 "optdone": 1, 
		 "sigma_profile": "yes", 
		 "theory": "DFT", 
		 "functional": "B3LYP", 
		 "basiset": "6-31G**", 
		 "properties": { 
			 "R2extent": 2882.5871, 
			 "electric_dipole_moment_norm": 7.53520101789, 
			 "electric_quadrupole_moment_norm": 17.3120416089, 
			 "total_energy": -611.359121846, 
			 "HOMO_LUMO_gap": 0.22941, 
			 "cosmo_polarized_energy": -13.82, 
			 "cosmo_cavitation_energy": 29.22, 
			 "cosmo_dispersion_energy": -20.63, 
			 "cosmo_repulsion_energy": 1.62, 
			 "cosmo_total_nonelectrostatic_energy": 10.22, 
			 "SMD_solvation_energy": 6.06 
		},
		"coords": [
			{
				"x": 2.0289019968,
				"y": -0.345888118,
				"z": 0.9733043428,
				"element": "C" 
			},
			{
				"x": 0.8015902223,
				"y": -0.5726276821,
				"z": 0.1426853506,
				"element": "C" 
			},
			{
				"x": 0.3435043599,
				"y": -1.7820143431,
				"z": -0.3478461165,
				"element": "C" 
			},
			{
				"x": -0.8367308336,
				"y": -1.4740282795,
				"z": -1.0446164999,
				"element": "C" 
			},
			{
				"x": -1.0978793969,
				"y": -0.1659175007,
				"z": -0.9977897713,
				"element": "N" 
			},
			{
				"x": -0.1084516684,
				"y": 0.3839526741,
				"z": -0.2665314829,
				"element": "N" 
			},
			{
				"x": -0.0735722821,
				"y": 1.87406411,
				"z": -0.1116611347,
				"element": "C" 
			},
			{
				"x": 1.0385136661,
				"y": 2.4397299455,
				"z": -1.0156322297,
				"element": "C" 
			},
			{
				"x": -1.4293687918,
				"y": 2.4501243745,
				"z": -0.5515767978,
				"element": "C" 
			},
			{
				"x": 0.1604350188,
				"y": 2.2453473002,
				"z": 1.3642877907,
				"element": "C" 
			},
			{
				"x": -1.7544799265,
				"y": -2.3838025863,
				"z": -1.772915238,
				"element": "C" 
			},
			{
				"x": -2.8194584097,
				"y": -1.7658813662,
				"z": -2.3355511969,
				"element": "O" 
			},
			{
				"x": -1.5812350196,
				"y": -3.5773656587,
				"z": -1.8663289964,
				"element": "O" 
			},
			{
				"x": 1.7889736381,
				"y": -0.131025683,
				"z": 2.0198300113,
				"element": "H" 
			},
			{
				"x": 2.6302172973,
				"y": -1.2576351014,
				"z": 0.9562291682,
				"element": "H" 
			},
			{
				"x": 2.6557517785,
				"y": 0.4687259009,
				"z": 0.6000884254,
				"element": "H" 
			},
			{
				"x": 0.7948067283,
				"y": -2.7538564538,
				"z": -0.2190670915,
				"element": "H" 
			},
			{
				"x": 2.0274967579,
				"y": 2.0710651319,
				"z": -0.7314584823,
				"element": "H" 
			},
			{
				"x": 1.0561632448,
				"y": 3.5317052893,
				"z": -0.9446936731,
				"element": "H" 
			},
			{
				"x": 0.8572976569,
				"y": 2.165457812,
				"z": -2.0587028545,
				"element": "H" 
			},
			{
				"x": -1.6371669266,
				"y": 2.2386626012,
				"z": -1.6009107485,
				"element": "H" 
			},
			{
				"x": -2.2479317188,
				"y": 2.0425345062,
				"z": 0.0463412085,
				"element": "H" 
			},
			{
				"x": -1.402658348,
				"y": 3.534738331,
				"z": -0.4117432654,
				"element": "H" 
			},
			{
				"x": -0.5788653721,
				"y": 1.7598274639,
				"z": 2.008174713,
				"element": "H" 
			},
			{
				"x": 0.0528660557,
				"y": 3.3276511027,
				"z": 1.4809152539,
				"element": "H" 
			},
			{
				"x": 1.1579196956,
				"y": 1.9790393021,
				"z": 1.7159164397,
				"element": "H" 
			},
			{
				"x": -2.7510394227,
				"y": -0.8162830725,
				"z": -2.1298471246,
				"element": "H" 
			}
		],
		 "valence_orbital": [ 
			{
				"type": "occ",
				"energy": -0.30818,
				"method": "rhf"
			},
			{
				"type": "occ",
				"energy": -0.29884,
				"method": "rhf"
			},
			{
				"type": "occ",
				"energy": -0.2591,
				"method": "rhf"
			},
			{
				"type": "occ",
				"energy": -0.25889,
				"method": "rhf"
			},
			{
				"type": "occ",
				"energy": -0.25331,
				"method": "rhf"
			},
			{
				"type": "unocc",
				"energy": -0.0239,
				"method": "rhf"
			},
			{
				"type": "unocc",
				"energy": 0.02154,
				"method": "rhf"
			},
			{
				"type": "unocc",
				"energy": 0.06079,
				"method": "rhf"
			},
			{
				"type": "unocc",
				"energy": 0.08506,
				"method": "rhf"
			},
			{
				"type": "unocc",
				"energy": 0.09601,
				"method": "rhf"
			}
		],
		"cosmo_sigma_profile": { 
			"-0.025": 0.0,
			"-0.024": 0.0,
			"-0.023": 0.0,
			"-0.022": 0.0,
			"-0.021": 0.0,
			"-0.02": 0.0,
			"-0.019": 0.0,
			"-0.018": 0.0,
			"-0.017": 0.0,
			"-0.016": 0.0,
			"-0.015": 0.0,
			"-0.014": 0.15429685225,
			"-0.013": 0.257082730172,
			"-0.012": 0.950777715358,
			"-0.011": 0.63099762049,
			"-0.01": 0.454616360206,
			"-0.009": 0.891275810498,
			"-0.008": 0.834127915417,
			"-0.007": 2.45502814487,
			"-0.006": 6.40210046673,
			"-0.005": 13.8441158886,
			"-0.004": 22.8902758248,
			"-0.003": 25.4261079757,
			"-0.002": 26.9711230629,
			"-0.001": 26.9926157419,
			"0.0": 24.1037478026,
			"0.001": 13.1451674232,
			"0.002": 10.0778077932,
			"0.003": 10.4289472384,
			"0.004": 7.96524944015,
			"0.005": 4.24475537904,
			"0.006": 2.97105120646,
			"0.007": 2.53834402873,
			"0.008": 2.78354386447,
			"0.009": 3.03969012208,
			"0.01": 4.47684528823,
			"0.011": 5.37030603568,
			"0.012": 6.1348954952,
			"0.013": 2.53906982773,
			"0.014": 0.39351219393,
			"0.015": 0.0,
			"0.016": 0.0,
			"0.017": 0.0,
			"0.018": 0.0,
			"0.019": 0.0,
			"0.02": 0.0,
			"0.021": 0.0,
			"0.022": 0.0,
			"0.023": 0.0,
			"0.024": 0.0,
			"0.025": 0.0
		}
	}
}
