{
	 "smiles": "BrC1=CC=C2C(=C1)C(=O)C1=C2C=CC(Br)=C1", 
	 "Tm": 476.15, 
	 "num_atms": 22, 
	 "gaussian": { 
		 "optdone": 1, 
		 "sigma_profile": "yes", 
		 "theory": "DFT", 
		 "functional": "B3LYP", 
		 "basiset": "6-31G**", 
		 "properties": { 
			 "R2extent": 10209.0785, 
			 "electric_dipole_moment_norm": 3.79157327372, 
			 "electric_quadrupole_moment_norm": 3.05847421438, 
			 "total_energy": -5717.03854425, 
			 "HOMO_LUMO_gap": 0.1338, 
			 "cosmo_polarized_energy": -8.9, 
			 "cosmo_cavitation_energy": 32.12, 
			 "cosmo_dispersion_energy": -24.2, 
			 "cosmo_repulsion_energy": 1.85, 
			 "cosmo_total_nonelectrostatic_energy": 9.76, 
			 "SMD_solvation_energy": 3.18 
		},
		"coords": [
			{
				"x": 3.5153951331,
				"y": 4.4664096318,
				"z": -0.9860568064,
				"element": "Br" 
			},
			{
				"x": 2.545837932,
				"y": 2.86839021,
				"z": -0.5983155821,
				"element": "C" 
			},
			{
				"x": 2.4655253158,
				"y": 2.4247681283,
				"z": 0.7236967129,
				"element": "C" 
			},
			{
				"x": 1.7604883493,
				"y": 1.2545869016,
				"z": 1.0382049865,
				"element": "C" 
			},
			{
				"x": 1.1445898772,
				"y": 0.5460942272,
				"z": 0.0125508306,
				"element": "C" 
			},
			{
				"x": 1.2397153679,
				"y": 1.0138079687,
				"z": -1.3134010879,
				"element": "C" 
			},
			{
				"x": 1.9321664628,
				"y": 2.1680441636,
				"z": -1.6427725948,
				"element": "C" 
			},
			{
				"x": 0.4952588455,
				"y": 0.0763852243,
				"z": -2.2191287277,
				"element": "C" 
			},
			{
				"x": 0.360996264,
				"y": 0.1591970333,
				"z": -3.4251495895,
				"element": "O" 
			},
			{
				"x": -0.0468942306,
				"y": -0.9858104622,
				"z": -1.3074592127,
				"element": "C" 
			},
			{
				"x": 0.3429178333,
				"y": -0.6998309344,
				"z": 0.0162520602,
				"element": "C" 
			},
			{
				"x": -0.0438819843,
				"y": -1.5496108382,
				"z": 1.0465469513,
				"element": "C" 
			},
			{
				"x": -0.8174520381,
				"y": -2.6775609855,
				"z": 0.7388816655,
				"element": "C" 
			},
			{
				"x": -1.1914119997,
				"y": -2.9400846238,
				"z": -0.5810434641,
				"element": "C" 
			},
			{
				"x": -2.2446193461,
				"y": -4.4865548518,
				"z": -0.9596623602,
				"element": "Br" 
			},
			{
				"x": -0.8112281424,
				"y": -2.0957403027,
				"z": -1.6300886382,
				"element": "C" 
			},
			{
				"x": 2.953398351,
				"y": 2.9927782529,
				"z": 1.5077612221,
				"element": "H" 
			},
			{
				"x": 1.7070603416,
				"y": 0.9223780311,
				"z": 2.0707498978,
				"element": "H" 
			},
			{
				"x": 1.9922851364,
				"y": 2.5092157822,
				"z": -2.6703215019,
				"element": "H" 
			},
			{
				"x": 0.2390568626,
				"y": -1.3589142329,
				"z": 2.0775394277,
				"element": "H" 
			},
			{
				"x": -1.1300422923,
				"y": -3.3536773499,
				"z": 1.5266481658,
				"element": "H" 
			},
			{
				"x": -1.0995620393,
				"y": -2.2961709738,
				"z": -2.656032355,
				"element": "H" 
			}
		],
		 "valence_orbital": [ 
			{
				"type": "occ",
				"energy": -0.28397,
				"method": "rhf"
			},
			{
				"type": "occ",
				"energy": -0.27957,
				"method": "rhf"
			},
			{
				"type": "occ",
				"energy": -0.27464,
				"method": "rhf"
			},
			{
				"type": "occ",
				"energy": -0.26541,
				"method": "rhf"
			},
			{
				"type": "occ",
				"energy": -0.2335,
				"method": "rhf"
			},
			{
				"type": "unocc",
				"energy": -0.0997,
				"method": "rhf"
			},
			{
				"type": "unocc",
				"energy": -0.05672,
				"method": "rhf"
			},
			{
				"type": "unocc",
				"energy": -0.0218,
				"method": "rhf"
			},
			{
				"type": "unocc",
				"energy": -0.00559,
				"method": "rhf"
			},
			{
				"type": "unocc",
				"energy": -6e-05,
				"method": "rhf"
			}
		],
		"cosmo_sigma_profile": { 
			"-0.025": 0.0,
			"-0.024": 0.0,
			"-0.023": 0.0,
			"-0.022": 0.0,
			"-0.021": 0.0,
			"-0.02": 0.0,
			"-0.019": 0.0,
			"-0.018": 0.0,
			"-0.017": 0.0,
			"-0.016": 0.0,
			"-0.015": 0.0,
			"-0.014": 0.0,
			"-0.013": 0.0,
			"-0.012": 0.0,
			"-0.011": 0.0,
			"-0.01": 0.0,
			"-0.009": 0.0192490741168,
			"-0.008": 8.02296037343,
			"-0.007": 12.0402210294,
			"-0.006": 10.3976524772,
			"-0.005": 10.0843216827,
			"-0.004": 13.5512044188,
			"-0.003": 14.9796748509,
			"-0.002": 16.2424793047,
			"-0.001": 22.1235874026,
			"0.0": 28.3975593071,
			"0.001": 43.4622240467,
			"0.002": 26.7425557207,
			"0.003": 16.4403616863,
			"0.004": 22.9221108519,
			"0.005": 5.44183888538,
			"0.006": 2.03751139085,
			"0.007": 1.6278961926,
			"0.008": 1.81137942271,
			"0.009": 1.87120616117,
			"0.01": 3.44438773435,
			"0.011": 4.3223231426,
			"0.012": 0.803840188718,
			"0.013": 0.0,
			"0.014": 0.0,
			"0.015": 0.0,
			"0.016": 0.0,
			"0.017": 0.0,
			"0.018": 0.0,
			"0.019": 0.0,
			"0.02": 0.0,
			"0.021": 0.0,
			"0.022": 0.0,
			"0.023": 0.0,
			"0.024": 0.0,
			"0.025": 0.0
		}
	}
}
