{
	 "smiles": "COC1=C(O)C=C2C=NC=CC2=C1", 
	 "Tm": 433.15, 
	 "num_atms": 22, 
	 "gaussian": { 
		 "optdone": 1, 
		 "sigma_profile": "yes", 
		 "theory": "DFT", 
		 "functional": "B3LYP", 
		 "basiset": "6-31G**", 
		 "properties": { 
			 "R2extent": 2957.3392, 
			 "electric_dipole_moment_norm": 3.82818076245, 
			 "electric_quadrupole_moment_norm": 17.4061877239, 
			 "total_energy": -591.665569599, 
			 "HOMO_LUMO_gap": 0.17196, 
			 "cosmo_polarized_energy": -12.42, 
			 "cosmo_cavitation_energy": 25.83, 
			 "cosmo_dispersion_energy": -19.54, 
			 "cosmo_repulsion_energy": 1.51, 
			 "cosmo_total_nonelectrostatic_energy": 7.8, 
			 "SMD_solvation_energy": 3.94 
		},
		"coords": [
			{
				"x": 2.6039452459,
				"y": -0.3733653029,
				"z": 1.8460140632,
				"element": "C" 
			},
			{
				"x": 1.5777531383,
				"y": -0.8351540904,
				"z": 0.9658180354,
				"element": "O" 
			},
			{
				"x": 0.4091764353,
				"y": -0.1744258668,
				"z": 0.7507062714,
				"element": "C" 
			},
			{
				"x": 0.0101853662,
				"y": 1.0690724038,
				"z": 1.3519683839,
				"element": "C" 
			},
			{
				"x": 0.8699628712,
				"y": 1.6729319891,
				"z": 2.2326993586,
				"element": "O" 
			},
			{
				"x": -1.2118049831,
				"y": 1.621680602,
				"z": 1.0353309591,
				"element": "C" 
			},
			{
				"x": -2.09782876,
				"y": 0.9967356157,
				"z": 0.1259169244,
				"element": "C" 
			},
			{
				"x": -3.3639722837,
				"y": 1.5355531416,
				"z": -0.2245762236,
				"element": "C" 
			},
			{
				"x": -4.2057831789,
				"y": 0.9724486536,
				"z": -1.068312319,
				"element": "N" 
			},
			{
				"x": -3.8248334182,
				"y": -0.205436089,
				"z": -1.6361783882,
				"element": "C" 
			},
			{
				"x": -2.6259522203,
				"y": -0.8312847565,
				"z": -1.3809902556,
				"element": "C" 
			},
			{
				"x": -1.7092004312,
				"y": -0.2374001573,
				"z": -0.4749524318,
				"element": "C" 
			},
			{
				"x": -0.452733642,
				"y": -0.7905643584,
				"z": -0.1394096605,
				"element": "C" 
			},
			{
				"x": 3.0039093344,
				"y": 0.5941282704,
				"z": 1.5327563166,
				"element": "H" 
			},
			{
				"x": 2.2517732966,
				"y": -0.2981956299,
				"z": 2.8777441084,
				"element": "H" 
			},
			{
				"x": 3.3860547752,
				"y": -1.1321867846,
				"z": 1.7799660625,
				"element": "H" 
			},
			{
				"x": 0.4617954183,
				"y": 2.4904215971,
				"z": 2.5463968225,
				"element": "H" 
			},
			{
				"x": -1.5036228119,
				"y": 2.5641733509,
				"z": 1.496906708,
				"element": "H" 
			},
			{
				"x": -3.6780863616,
				"y": 2.4790833372,
				"z": 0.2252498715,
				"element": "H" 
			},
			{
				"x": -4.5400585375,
				"y": -0.6454201518,
				"z": -2.327568812,
				"element": "H" 
			},
			{
				"x": -2.3793455418,
				"y": -1.7713994572,
				"z": -1.8663294931,
				"element": "H" 
			},
			{
				"x": -0.1303337111,
				"y": -1.7282963164,
				"z": -0.5807563017,
				"element": "H" 
			}
		],
		 "valence_orbital": [ 
			{
				"type": "occ",
				"energy": -0.3097,
				"method": "rhf"
			},
			{
				"type": "occ",
				"energy": -0.28489,
				"method": "rhf"
			},
			{
				"type": "occ",
				"energy": -0.24502,
				"method": "rhf"
			},
			{
				"type": "occ",
				"energy": -0.22113,
				"method": "rhf"
			},
			{
				"type": "occ",
				"energy": -0.21476,
				"method": "rhf"
			},
			{
				"type": "unocc",
				"energy": -0.0428,
				"method": "rhf"
			},
			{
				"type": "unocc",
				"energy": -0.00743,
				"method": "rhf"
			},
			{
				"type": "unocc",
				"energy": 0.0302,
				"method": "rhf"
			},
			{
				"type": "unocc",
				"energy": 0.05313,
				"method": "rhf"
			},
			{
				"type": "unocc",
				"energy": 0.09279,
				"method": "rhf"
			}
		],
		"cosmo_sigma_profile": { 
			"-0.025": 0.0,
			"-0.024": 0.0,
			"-0.023": 0.0,
			"-0.022": 0.0,
			"-0.021": 0.0,
			"-0.02": 0.0,
			"-0.019": 0.0378875986616,
			"-0.018": 0.845861789473,
			"-0.017": 1.15271000381,
			"-0.016": 0.775245511106,
			"-0.015": 1.37590888039,
			"-0.014": 0.952229678243,
			"-0.013": 0.497734758793,
			"-0.012": 1.17292980247,
			"-0.011": 1.2236928058,
			"-0.01": 1.17297918612,
			"-0.009": 1.25233609721,
			"-0.008": 1.38171415812,
			"-0.007": 3.52947455191,
			"-0.006": 10.6533903263,
			"-0.005": 13.8857071342,
			"-0.004": 14.5626779125,
			"-0.003": 14.4977686584,
			"-0.002": 12.3486703754,
			"-0.001": 10.7799356494,
			"0.0": 10.2763871562,
			"0.001": 12.9543264062,
			"0.002": 19.8992480044,
			"0.003": 26.4435930243,
			"0.004": 14.1683185629,
			"0.005": 6.43247392243,
			"0.006": 6.56377281866,
			"0.007": 3.17840180571,
			"0.008": 2.86652883071,
			"0.009": 3.3339290624,
			"0.01": 1.33919563096,
			"0.011": 1.00695522941,
			"0.012": 1.4272474799,
			"0.013": 0.685261429636,
			"0.014": 1.09234581877,
			"0.015": 0.937397927517,
			"0.016": 0.972265774836,
			"0.017": 0.671747306068,
			"0.018": 0.0905033987249,
			"0.019": 0.0,
			"0.02": 0.0,
			"0.021": 0.0,
			"0.022": 0.0,
			"0.023": 0.0,
			"0.024": 0.0,
			"0.025": 0.0
		}
	}
}
