{
	 "smiles": "C#CCN1C2=C(C=CC=C2)C2=C1C=CC=C2", 
	 "Tm": 377.15, 
	 "num_atms": 27, 
	 "gaussian": { 
		 "optdone": 1, 
		 "sigma_profile": "yes", 
		 "theory": "DFT", 
		 "functional": "B3LYP", 
		 "basiset": "6-31G**", 
		 "properties": { 
			 "R2extent": 3455.7352, 
			 "electric_dipole_moment_norm": 1.43291578957, 
			 "electric_quadrupole_moment_norm": 6.38923039027, 
			 "total_energy": -632.918599259, 
			 "HOMO_LUMO_gap": 0.17444, 
			 "cosmo_polarized_energy": -9.39, 
			 "cosmo_cavitation_energy": 31.66, 
			 "cosmo_dispersion_energy": -22.05, 
			 "cosmo_repulsion_energy": 1.67, 
			 "cosmo_total_nonelectrostatic_energy": 11.28, 
			 "SMD_solvation_energy": 5.99 
		},
		"coords": [
			{
				"x": 1.2787299239,
				"y": 1.8683464061,
				"z": -3.3045559521,
				"element": "C" 
			},
			{
				"x": 0.5554431059,
				"y": 1.9688148689,
				"z": -2.3436524163,
				"element": "C" 
			},
			{
				"x": -0.3303153997,
				"y": 2.1015455004,
				"z": -1.1783543313,
				"element": "C" 
			},
			{
				"x": -0.1558848308,
				"y": 1.0701625183,
				"z": -0.1717587777,
				"element": "N" 
			},
			{
				"x": -0.816572191,
				"y": -0.1555010193,
				"z": -0.14580658,
				"element": "C" 
			},
			{
				"x": -0.3661702409,
				"y": -0.8953407193,
				"z": 0.9795424291,
				"element": "C" 
			},
			{
				"x": -0.9071098221,
				"y": -2.1612481424,
				"z": 1.2309288524,
				"element": "C" 
			},
			{
				"x": -1.873007997,
				"y": -2.6704281263,
				"z": 0.3664545916,
				"element": "C" 
			},
			{
				"x": -2.2997286337,
				"y": -1.9282722334,
				"z": -0.7479730335,
				"element": "C" 
			},
			{
				"x": -1.7781313278,
				"y": -0.6650342146,
				"z": -1.0224874477,
				"element": "C" 
			},
			{
				"x": 0.6300458848,
				"y": -0.0788179692,
				"z": 1.6434828697,
				"element": "C" 
			},
			{
				"x": 0.7410908451,
				"y": 1.1212033564,
				"z": 0.8923266034,
				"element": "C" 
			},
			{
				"x": 1.6353785649,
				"y": 2.1327986735,
				"z": 1.2524496143,
				"element": "C" 
			},
			{
				"x": 2.4125613565,
				"y": 1.9340516599,
				"z": 2.3924815297,
				"element": "C" 
			},
			{
				"x": 2.3089090312,
				"y": 0.757174515,
				"z": 3.153425043,
				"element": "C" 
			},
			{
				"x": 1.422801591,
				"y": -0.251611223,
				"z": 2.7836691536,
				"element": "C" 
			},
			{
				"x": 1.9233259584,
				"y": 1.7673404135,
				"z": -4.1470510542,
				"element": "H" 
			},
			{
				"x": -1.3768572269,
				"y": 2.0885706426,
				"z": -1.504121735,
				"element": "H" 
			},
			{
				"x": -0.1727414301,
				"y": 3.0757776194,
				"z": -0.7012724505,
				"element": "H" 
			},
			{
				"x": -0.5754744991,
				"y": -2.7401730876,
				"z": 2.0884059434,
				"element": "H" 
			},
			{
				"x": -2.2983782013,
				"y": -3.6523290422,
				"z": 0.5502982495,
				"element": "H" 
			},
			{
				"x": -3.0473202359,
				"y": -2.3478945029,
				"z": -1.4148969401,
				"element": "H" 
			},
			{
				"x": -2.1023883787,
				"y": -0.1108882518,
				"z": -1.8976568375,
				"element": "H" 
			},
			{
				"x": 1.7395499796,
				"y": 3.0381245856,
				"z": 0.6628129752,
				"element": "H" 
			},
			{
				"x": 3.1167844469,
				"y": 2.7044041967,
				"z": 2.6931295323,
				"element": "H" 
			},
			{
				"x": 2.9305046162,
				"y": 0.6333883027,
				"z": 4.0349952243,
				"element": "H" 
			},
			{
				"x": 1.3493551106,
				"y": -1.1625647268,
				"z": 3.3711849443,
				"element": "H" 
			}
		],
		 "valence_orbital": [ 
			{
				"type": "occ",
				"energy": -0.27669,
				"method": "rhf"
			},
			{
				"type": "occ",
				"energy": -0.27588,
				"method": "rhf"
			},
			{
				"type": "occ",
				"energy": -0.24928,
				"method": "rhf"
			},
			{
				"type": "occ",
				"energy": -0.21086,
				"method": "rhf"
			},
			{
				"type": "occ",
				"energy": -0.20024,
				"method": "rhf"
			},
			{
				"type": "unocc",
				"energy": -0.0258,
				"method": "rhf"
			},
			{
				"type": "unocc",
				"energy": 0.00792,
				"method": "rhf"
			},
			{
				"type": "unocc",
				"energy": 0.02438,
				"method": "rhf"
			},
			{
				"type": "unocc",
				"energy": 0.03683,
				"method": "rhf"
			},
			{
				"type": "unocc",
				"energy": 0.04073,
				"method": "rhf"
			}
		],
		"cosmo_sigma_profile": { 
			"-0.025": 0.0,
			"-0.024": 0.0,
			"-0.023": 0.0,
			"-0.022": 0.0,
			"-0.021": 0.0,
			"-0.02": 0.0,
			"-0.019": 0.0,
			"-0.018": 0.0,
			"-0.017": 0.0,
			"-0.016": 0.0,
			"-0.015": 0.0,
			"-0.014": 0.0,
			"-0.013": 0.0,
			"-0.012": 0.603083793475,
			"-0.011": 1.43725854593,
			"-0.01": 0.954571981259,
			"-0.009": 2.19277203256,
			"-0.008": 7.1461889539,
			"-0.007": 7.02570518996,
			"-0.006": 12.1274799732,
			"-0.005": 20.4907631886,
			"-0.004": 18.1413528802,
			"-0.003": 18.9909526425,
			"-0.002": 14.2446775113,
			"-0.001": 13.3172203732,
			"0.0": 11.7551987151,
			"0.001": 13.170146768,
			"0.002": 16.9741073732,
			"0.003": 21.6284677409,
			"0.004": 22.0346766236,
			"0.005": 23.9023044755,
			"0.006": 25.1626288586,
			"0.007": 4.48468625689,
			"0.008": 0.0,
			"0.009": 0.0,
			"0.01": 0.0,
			"0.011": 0.0,
			"0.012": 0.0,
			"0.013": 0.0,
			"0.014": 0.0,
			"0.015": 0.0,
			"0.016": 0.0,
			"0.017": 0.0,
			"0.018": 0.0,
			"0.019": 0.0,
			"0.02": 0.0,
			"0.021": 0.0,
			"0.022": 0.0,
			"0.023": 0.0,
			"0.024": 0.0,
			"0.025": 0.0
		}
	}
}
