{
	 "smiles": "CC(=O)NC1=CC=C(F)C=C1", 
	 "Tm": 426.15, 
	 "num_atms": 19, 
	 "gaussian": { 
		 "optdone": 1, 
		 "sigma_profile": "yes", 
		 "theory": "DFT", 
		 "functional": "B3LYP", 
		 "basiset": "6-31G**", 
		 "properties": { 
			 "R2extent": 2523.5054, 
			 "electric_dipole_moment_norm": 3.92173854049, 
			 "electric_quadrupole_moment_norm": 11.089849366, 
			 "total_energy": -539.502169472, 
			 "HOMO_LUMO_gap": 0.20679, 
			 "cosmo_polarized_energy": -12.25, 
			 "cosmo_cavitation_energy": 23.7, 
			 "cosmo_dispersion_energy": -17.51, 
			 "cosmo_repulsion_energy": 1.38, 
			 "cosmo_total_nonelectrostatic_energy": 7.57, 
			 "SMD_solvation_energy": 5.43 
		},
		"coords": [
			{
				"x": 2.3025577747,
				"y": -1.4635424081,
				"z": -3.2711068568,
				"element": "C" 
			},
			{
				"x": 1.0121196009,
				"y": -1.1216771996,
				"z": -2.5388282005,
				"element": "C" 
			},
			{
				"x": 0.0209164918,
				"y": -0.7333893404,
				"z": -3.1408877581,
				"element": "O" 
			},
			{
				"x": 1.0705351005,
				"y": -1.2872486236,
				"z": -1.1720554782,
				"element": "N" 
			},
			{
				"x": 0.0621001817,
				"y": -1.061177033,
				"z": -0.2088927951,
				"element": "C" 
			},
			{
				"x": 0.3839185258,
				"y": -1.3129284463,
				"z": 1.1343831905,
				"element": "C" 
			},
			{
				"x": -0.5543494817,
				"y": -1.114821926,
				"z": 2.143497626,
				"element": "C" 
			},
			{
				"x": -1.8218640232,
				"y": -0.6613926885,
				"z": 1.7982013581,
				"element": "C" 
			},
			{
				"x": -2.7385498106,
				"y": -0.4665547128,
				"z": 2.7715306362,
				"element": "F" 
			},
			{
				"x": -2.164717973,
				"y": -0.405122235,
				"z": 0.4769012496,
				"element": "C" 
			},
			{
				"x": -1.2250912485,
				"y": -0.6033572765,
				"z": -0.5344235506,
				"element": "C" 
			},
			{
				"x": 2.6381434428,
				"y": -0.5777114418,
				"z": -3.8172366919,
				"element": "H" 
			},
			{
				"x": 2.0875128598,
				"y": -2.2390885363,
				"z": -4.0111087037,
				"element": "H" 
			},
			{
				"x": 3.113005191,
				"y": -1.8075577044,
				"z": -2.6223558829,
				"element": "H" 
			},
			{
				"x": 1.9492895333,
				"y": -1.614564297,
				"z": -0.7991460987,
				"element": "H" 
			},
			{
				"x": 1.3784638097,
				"y": -1.6677552176,
				"z": 1.3951046424,
				"element": "H" 
			},
			{
				"x": -0.3140528444,
				"y": -1.3068148503,
				"z": 3.183397593,
				"element": "H" 
			},
			{
				"x": -3.1635062265,
				"y": -0.0520131645,
				"z": 0.2436602037,
				"element": "H" 
			},
			{
				"x": -1.4717309039,
				"y": -0.4100828984,
				"z": -1.568434483,
				"element": "H" 
			}
		],
		 "valence_orbital": [ 
			{
				"type": "occ",
				"energy": -0.34618,
				"method": "rhf"
			},
			{
				"type": "occ",
				"energy": -0.30251,
				"method": "rhf"
			},
			{
				"type": "occ",
				"energy": -0.26115,
				"method": "rhf"
			},
			{
				"type": "occ",
				"energy": -0.25571,
				"method": "rhf"
			},
			{
				"type": "occ",
				"energy": -0.21867,
				"method": "rhf"
			},
			{
				"type": "unocc",
				"energy": -0.01188,
				"method": "rhf"
			},
			{
				"type": "unocc",
				"energy": -0.01127,
				"method": "rhf"
			},
			{
				"type": "unocc",
				"energy": 0.04558,
				"method": "rhf"
			},
			{
				"type": "unocc",
				"energy": 0.05846,
				"method": "rhf"
			},
			{
				"type": "unocc",
				"energy": 0.09098,
				"method": "rhf"
			}
		],
		"cosmo_sigma_profile": { 
			"-0.025": 0.0,
			"-0.024": 0.0,
			"-0.023": 0.0,
			"-0.022": 0.0,
			"-0.021": 0.0,
			"-0.02": 0.0,
			"-0.019": 0.0,
			"-0.018": 0.0,
			"-0.017": 0.0,
			"-0.016": 0.0399229731876,
			"-0.015": 1.10814353789,
			"-0.014": 1.5112727357,
			"-0.013": 1.68243969948,
			"-0.012": 1.33936288708,
			"-0.011": 1.56149885967,
			"-0.01": 1.94543215259,
			"-0.009": 1.42312556448,
			"-0.008": 1.78995067605,
			"-0.007": 6.30254561429,
			"-0.006": 9.05628331512,
			"-0.005": 10.526735378,
			"-0.004": 11.3059458684,
			"-0.003": 12.75641926,
			"-0.002": 12.8370672189,
			"-0.001": 11.9675967687,
			"0.0": 8.9629269492,
			"0.001": 13.7116705128,
			"0.002": 14.6987700829,
			"0.003": 16.5571186014,
			"0.004": 21.552125543,
			"0.005": 9.41503357642,
			"0.006": 1.42445068279,
			"0.007": 1.93649761114,
			"0.008": 1.08192194295,
			"0.009": 1.85992854732,
			"0.01": 1.60201346795,
			"0.011": 1.72162692935,
			"0.012": 2.53532229857,
			"0.013": 3.07001780355,
			"0.014": 1.92044489426,
			"0.015": 0.266816215971,
			"0.016": 0.0,
			"0.017": 0.0,
			"0.018": 0.0,
			"0.019": 0.0,
			"0.02": 0.0,
			"0.021": 0.0,
			"0.022": 0.0,
			"0.023": 0.0,
			"0.024": 0.0,
			"0.025": 0.0
		}
	}
}
