{
	 "smiles": "FC1=CC=C(C=C1)[C@@H]1CCNC[C@H]1COC1=CC=C2OCOC2=C1", 
	 "Tm": 403.15, 
	 "num_atms": 44, 
	 "gaussian": { 
		 "optdone": 1, 
		 "sigma_profile": "yes", 
		 "theory": "DFT", 
		 "functional": "B3LYP", 
		 "basiset": "6-31G**", 
		 "properties": { 
			 "R2extent": 10700.2685, 
			 "electric_dipole_moment_norm": 1.70421932274, 
			 "electric_quadrupole_moment_norm": 22.9401466942, 
			 "total_energy": -1116.28105818, 
			 "HOMO_LUMO_gap": 0.18802, 
			 "cosmo_polarized_energy": -11.78, 
			 "cosmo_cavitation_energy": 45.33, 
			 "cosmo_dispersion_energy": -32.12, 
			 "cosmo_repulsion_energy": 2.42, 
			 "cosmo_total_nonelectrostatic_energy": 15.63, 
			 "SMD_solvation_energy": 7.5 
		},
		"coords": [
			{
				"x": -0.2546539481,
				"y": -5.3752498779,
				"z": -3.7052584019,
				"element": "F" 
			},
			{
				"x": -0.5967775281,
				"y": -4.5691398069,
				"z": -2.6753587172,
				"element": "C" 
			},
			{
				"x": 0.1436851398,
				"y": -4.6201784381,
				"z": -1.5017444299,
				"element": "C" 
			},
			{
				"x": -0.2240544251,
				"y": -3.7846076013,
				"z": -0.4459575884,
				"element": "C" 
			},
			{
				"x": -1.3114874616,
				"y": -2.9045060943,
				"z": -0.5465252097,
				"element": "C" 
			},
			{
				"x": -2.0343529292,
				"y": -2.8841827138,
				"z": -1.7505690269,
				"element": "C" 
			},
			{
				"x": -1.6823888636,
				"y": -3.7127106419,
				"z": -2.8162931101,
				"element": "C" 
			},
			{
				"x": -1.6512026877,
				"y": -2.0007533467,
				"z": 0.6368130025,
				"element": "C" 
			},
			{
				"x": -3.15361271,
				"y": -2.048525722,
				"z": 1.0667561813,
				"element": "C" 
			},
			{
				"x": -3.9429284934,
				"y": -0.7826662045,
				"z": 0.681035187,
				"element": "C" 
			},
			{
				"x": -3.4469174372,
				"y": -0.2858130915,
				"z": -0.5982377949,
				"element": "N" 
			},
			{
				"x": -2.0945581811,
				"y": 0.2861647,
				"z": -0.514386114,
				"element": "C" 
			},
			{
				"x": -1.1606837181,
				"y": -0.5382198687,
				"z": 0.4130719403,
				"element": "C" 
			},
			{
				"x": -0.9433718109,
				"y": 0.1530601891,
				"z": 1.7747248755,
				"element": "C" 
			},
			{
				"x": -0.4282497719,
				"y": 1.4778290905,
				"z": 1.6559811406,
				"element": "O" 
			},
			{
				"x": 0.9093848056,
				"y": 1.6841073949,
				"z": 1.4294748101,
				"element": "C" 
			},
			{
				"x": 1.280979953,
				"y": 3.0232026538,
				"z": 1.2511860382,
				"element": "C" 
			},
			{
				"x": 2.617760684,
				"y": 3.3887511561,
				"z": 1.0333926929,
				"element": "C" 
			},
			{
				"x": 3.5540224516,
				"y": 2.3733513624,
				"z": 0.9968193001,
				"element": "C" 
			},
			{
				"x": 4.9229449916,
				"y": 2.4546076038,
				"z": 0.8304262713,
				"element": "O" 
			},
			{
				"x": 5.3630360901,
				"y": 1.1024852348,
				"z": 0.6931705983,
				"element": "C" 
			},
			{
				"x": 4.2957395085,
				"y": 0.2417512629,
				"z": 1.116354335,
				"element": "O" 
			},
			{
				"x": 3.1830692508,
				"y": 1.0465483444,
				"z": 1.1723161663,
				"element": "C" 
			},
			{
				"x": 1.8740672964,
				"y": 0.6547855089,
				"z": 1.3908716809,
				"element": "C" 
			},
			{
				"x": 0.9820105977,
				"y": -5.3041026899,
				"z": -1.422820627,
				"element": "H" 
			},
			{
				"x": 0.3485867972,
				"y": -3.8253888684,
				"z": 0.477818003,
				"element": "H" 
			},
			{
				"x": -2.8736588594,
				"y": -2.2006627555,
				"z": -1.842932441,
				"element": "H" 
			},
			{
				"x": -2.2364459689,
				"y": -3.701873858,
				"z": -3.7492554524,
				"element": "H" 
			},
			{
				"x": -1.0628497255,
				"y": -2.3927817278,
				"z": 1.4760998656,
				"element": "H" 
			},
			{
				"x": -3.2265697844,
				"y": -2.1990399423,
				"z": 2.1499915193,
				"element": "H" 
			},
			{
				"x": -3.6210243234,
				"y": -2.9199754592,
				"z": 0.5997837192,
				"element": "H" 
			},
			{
				"x": -5.0042139174,
				"y": -1.0295196766,
				"z": 0.5719464611,
				"element": "H" 
			},
			{
				"x": -3.882713583,
				"y": -0.028500384,
				"z": 1.4884853983,
				"element": "H" 
			},
			{
				"x": -4.0834059822,
				"y": 0.4020067541,
				"z": -0.9884793776,
				"element": "H" 
			},
			{
				"x": -2.0970502346,
				"y": 1.3267535868,
				"z": -0.152493079,
				"element": "H" 
			},
			{
				"x": -1.6773611441,
				"y": 0.304811988,
				"z": -1.5272760347,
				"element": "H" 
			},
			{
				"x": -0.1799146242,
				"y": -0.5905390466,
				"z": -0.0705716987,
				"element": "H" 
			},
			{
				"x": -0.2899663857,
				"y": -0.4561955255,
				"z": 2.4129071261,
				"element": "H" 
			},
			{
				"x": -1.8898950595,
				"y": 0.2796289665,
				"z": 2.3073156667,
				"element": "H" 
			},
			{
				"x": 0.502807692,
				"y": 3.7771390351,
				"z": 1.2891957115,
				"element": "H" 
			},
			{
				"x": 2.9033291155,
				"y": 4.4262703985,
				"z": 0.9015984725,
				"element": "H" 
			},
			{
				"x": 5.6005046909,
				"y": 0.8935447866,
				"z": -0.3610895653,
				"element": "H" 
			},
			{
				"x": 6.2369295076,
				"y": 0.9347315169,
				"z": 1.3293439665,
				"element": "H" 
			},
			{
				"x": 1.6307509862,
				"y": -0.3910981926,
				"z": 1.5192685385,
				"element": "H" 
			}
		],
		 "valence_orbital": [ 
			{
				"type": "occ",
				"energy": -0.25103,
				"method": "rhf"
			},
			{
				"type": "occ",
				"energy": -0.24148,
				"method": "rhf"
			},
			{
				"type": "occ",
				"energy": -0.22984,
				"method": "rhf"
			},
			{
				"type": "occ",
				"energy": -0.22182,
				"method": "rhf"
			},
			{
				"type": "occ",
				"energy": -0.19172,
				"method": "rhf"
			},
			{
				"type": "unocc",
				"energy": -0.0037,
				"method": "rhf"
			},
			{
				"type": "unocc",
				"energy": 0.00031,
				"method": "rhf"
			},
			{
				"type": "unocc",
				"energy": 0.00914,
				"method": "rhf"
			},
			{
				"type": "unocc",
				"energy": 0.02311,
				"method": "rhf"
			},
			{
				"type": "unocc",
				"energy": 0.06325,
				"method": "rhf"
			}
		],
		"cosmo_sigma_profile": { 
			"-0.025": 0.0,
			"-0.024": 0.0,
			"-0.023": 0.0,
			"-0.022": 0.0,
			"-0.021": 0.0,
			"-0.02": 0.0,
			"-0.019": 0.0,
			"-0.018": 0.0,
			"-0.017": 0.0,
			"-0.016": 0.0,
			"-0.015": 0.0,
			"-0.014": 0.0,
			"-0.013": 0.0,
			"-0.012": 0.0,
			"-0.011": 0.0537127218191,
			"-0.01": 1.06912994391,
			"-0.009": 1.50160027849,
			"-0.008": 3.91656722975,
			"-0.007": 10.7086578755,
			"-0.006": 18.5172175492,
			"-0.005": 23.4750622081,
			"-0.004": 23.5499280764,
			"-0.003": 28.9559945216,
			"-0.002": 28.8299614007,
			"-0.001": 29.3523265683,
			"0.0": 26.7689248395,
			"0.001": 24.6524757448,
			"0.002": 25.3302348754,
			"0.003": 27.4877928553,
			"0.004": 29.5576650491,
			"0.005": 28.5790710983,
			"0.006": 6.26102882116,
			"0.007": 5.95713129203,
			"0.008": 4.9101077693,
			"0.009": 4.70091024024,
			"0.01": 3.92532626081,
			"0.011": 0.555556142361,
			"0.012": 0.0,
			"0.013": 0.0,
			"0.014": 0.0,
			"0.015": 0.0,
			"0.016": 0.0,
			"0.017": 0.0,
			"0.018": 0.0,
			"0.019": 0.0,
			"0.02": 0.0,
			"0.021": 0.0,
			"0.022": 0.0,
			"0.023": 0.0,
			"0.024": 0.0,
			"0.025": 0.0
		}
	}
}
