{
	 "smiles": "C1CCN(C1)C1=CC(=CC(=C1)N1CCCC1)C1=CC=CC=C1", 
	 "Tm": 447.15, 
	 "num_atms": 46, 
	 "gaussian": { 
		 "optdone": 1, 
		 "sigma_profile": "yes", 
		 "theory": "DFT", 
		 "functional": "B3LYP", 
		 "basiset": "6-31G**", 
		 "properties": { 
			 "R2extent": 9052.5839, 
			 "electric_dipole_moment_norm": 2.62120090607, 
			 "electric_quadrupole_moment_norm": 11.4821617538, 
			 "total_energy": -886.108929157, 
			 "HOMO_LUMO_gap": 0.15918, 
			 "cosmo_polarized_energy": -8.91, 
			 "cosmo_cavitation_energy": 45.47, 
			 "cosmo_dispersion_energy": -32.84, 
			 "cosmo_repulsion_energy": 2.51, 
			 "cosmo_total_nonelectrostatic_energy": 15.15, 
			 "SMD_solvation_energy": 4.61 
		},
		"coords": [
			{
				"x": -4.4590350215,
				"y": 2.3761088984,
				"z": -0.3186582997,
				"element": "C" 
			},
			{
				"x": -4.0480908963,
				"y": 2.9989060997,
				"z": 1.0249409113,
				"element": "C" 
			},
			{
				"x": -2.9744469416,
				"y": 2.031585265,
				"z": 1.5457958675,
				"element": "C" 
			},
			{
				"x": -2.3703404289,
				"y": 1.4983846823,
				"z": 0.3286501127,
				"element": "N" 
			},
			{
				"x": -3.1347986643,
				"y": 1.8255577499,
				"z": -0.8697013963,
				"element": "C" 
			},
			{
				"x": -1.1935385265,
				"y": 0.7741138506,
				"z": 0.3142483478,
				"element": "C" 
			},
			{
				"x": -0.5735383892,
				"y": 0.3898729918,
				"z": 1.5223395435,
				"element": "C" 
			},
			{
				"x": 0.6136317009,
				"y": -0.3516345359,
				"z": 1.5014347406,
				"element": "C" 
			},
			{
				"x": 1.1960820498,
				"y": -0.7209840093,
				"z": 0.2832473436,
				"element": "C" 
			},
			{
				"x": 0.5900330368,
				"y": -0.3504964462,
				"z": -0.9361509718,
				"element": "C" 
			},
			{
				"x": -0.6032674994,
				"y": 0.3972798044,
				"z": -0.9078214574,
				"element": "C" 
			},
			{
				"x": 1.1652731107,
				"y": -0.7041219153,
				"z": -2.1418421985,
				"element": "N" 
			},
			{
				"x": 2.3299149668,
				"y": -1.5767043268,
				"z": -2.2547578295,
				"element": "C" 
			},
			{
				"x": 2.3881891752,
				"y": -1.9126667787,
				"z": -3.7525494262,
				"element": "C" 
			},
			{
				"x": 1.7835051435,
				"y": -0.6648521581,
				"z": -4.415404489,
				"element": "C" 
			},
			{
				"x": 0.6724041449,
				"y": -0.251805792,
				"z": -3.4380121836,
				"element": "C" 
			},
			{
				"x": 1.2600702848,
				"y": -0.7493726618,
				"z": 2.7812979478,
				"element": "C" 
			},
			{
				"x": 1.8556277722,
				"y": -2.0137498178,
				"z": 2.9297167331,
				"element": "C" 
			},
			{
				"x": 2.4624722254,
				"y": -2.3868414371,
				"z": 4.1284628263,
				"element": "C" 
			},
			{
				"x": 2.4867380707,
				"y": -1.5040371672,
				"z": 5.2099586974,
				"element": "C" 
			},
			{
				"x": 1.8986332154,
				"y": -0.2444641467,
				"z": 5.0789655749,
				"element": "C" 
			},
			{
				"x": 1.2939075858,
				"y": 0.1278332656,
				"z": 3.878907368,
				"element": "C" 
			},
			{
				"x": -4.9326368672,
				"y": 3.0882353667,
				"z": -1.0001086242,
				"element": "H" 
			},
			{
				"x": -5.1631190482,
				"y": 1.5529859023,
				"z": -0.1518581882,
				"element": "H" 
			},
			{
				"x": -4.8823591752,
				"y": 3.1140330387,
				"z": 1.7224095681,
				"element": "H" 
			},
			{
				"x": -3.6086849373,
				"y": 3.9895600496,
				"z": 0.8614981486,
				"element": "H" 
			},
			{
				"x": -3.4202002663,
				"y": 1.2324156231,
				"z": 2.1607323609,
				"element": "H" 
			},
			{
				"x": -2.2271419027,
				"y": 2.5397792059,
				"z": 2.1680277323,
				"element": "H" 
			},
			{
				"x": -2.6156818324,
				"y": 2.5763438442,
				"z": -1.4889153099,
				"element": "H" 
			},
			{
				"x": -3.2871069308,
				"y": 0.9381435339,
				"z": -1.4976257694,
				"element": "H" 
			},
			{
				"x": -1.0396494643,
				"y": 0.6179618414,
				"z": 2.4724806182,
				"element": "H" 
			},
			{
				"x": 2.1432745778,
				"y": -1.2452744639,
				"z": 0.285678728,
				"element": "H" 
			},
			{
				"x": -1.0729897416,
				"y": 0.686240969,
				"z": -1.8378255286,
				"element": "H" 
			},
			{
				"x": 3.2505148535,
				"y": -1.0691413269,
				"z": -1.9224156611,
				"element": "H" 
			},
			{
				"x": 2.2131807467,
				"y": -2.4739737865,
				"z": -1.6341275716,
				"element": "H" 
			},
			{
				"x": 3.4032333889,
				"y": -2.1352881787,
				"z": -4.0929063704,
				"element": "H" 
			},
			{
				"x": 1.7645930613,
				"y": -2.7893079152,
				"z": -3.9618641513,
				"element": "H" 
			},
			{
				"x": 1.4061113468,
				"y": -0.8497282141,
				"z": -5.4249558039,
				"element": "H" 
			},
			{
				"x": 2.5363516405,
				"y": 0.1290047217,
				"z": -4.4793240017,
				"element": "H" 
			},
			{
				"x": 0.503084534,
				"y": 0.8327908758,
				"z": -3.441480394,
				"element": "H" 
			},
			{
				"x": -0.2868661052,
				"y": -0.730996873,
				"z": -3.696288331,
				"element": "H" 
			},
			{
				"x": 1.8186218269,
				"y": -2.7155272057,
				"z": 2.1018170933,
				"element": "H" 
			},
			{
				"x": 2.9092474694,
				"y": -3.3731935762,
				"z": 4.2209460132,
				"element": "H" 
			},
			{
				"x": 2.958674995,
				"y": -1.7944022977,
				"z": 6.1443809444,
				"element": "H" 
			},
			{
				"x": 1.9186866936,
				"y": 0.454706684,
				"z": 5.910717306,
				"element": "H" 
			},
			{
				"x": 0.8612350216,
				"y": 1.1186207664,
				"z": 3.7768394295,
				"element": "H" 
			}
		],
		 "valence_orbital": [ 
			{
				"type": "occ",
				"energy": -0.26691,
				"method": "rhf"
			},
			{
				"type": "occ",
				"energy": -0.23735,
				"method": "rhf"
			},
			{
				"type": "occ",
				"energy": -0.21928,
				"method": "rhf"
			},
			{
				"type": "occ",
				"energy": -0.18088,
				"method": "rhf"
			},
			{
				"type": "occ",
				"energy": -0.16626,
				"method": "rhf"
			},
			{
				"type": "unocc",
				"energy": -0.00708,
				"method": "rhf"
			},
			{
				"type": "unocc",
				"energy": 0.01107,
				"method": "rhf"
			},
			{
				"type": "unocc",
				"energy": 0.04073,
				"method": "rhf"
			},
			{
				"type": "unocc",
				"energy": 0.05165,
				"method": "rhf"
			},
			{
				"type": "unocc",
				"energy": 0.08195,
				"method": "rhf"
			}
		],
		"cosmo_sigma_profile": { 
			"-0.025": 0.0,
			"-0.024": 0.0,
			"-0.023": 0.0,
			"-0.022": 0.0,
			"-0.021": 0.0,
			"-0.02": 0.0,
			"-0.019": 0.0,
			"-0.018": 0.0,
			"-0.017": 0.0,
			"-0.016": 0.0,
			"-0.015": 0.0,
			"-0.014": 0.0,
			"-0.013": 0.0,
			"-0.012": 0.0,
			"-0.011": 0.0,
			"-0.01": 0.0,
			"-0.009": 0.0,
			"-0.008": 0.0,
			"-0.007": 0.0,
			"-0.006": 1.52346900309,
			"-0.005": 7.3956917648,
			"-0.004": 22.5164199043,
			"-0.003": 58.8735423978,
			"-0.002": 66.5196643515,
			"-0.001": 50.8202819468,
			"0.0": 33.4534795871,
			"0.001": 17.9670145138,
			"0.002": 14.0174861474,
			"0.003": 12.8982235948,
			"0.004": 15.8374624371,
			"0.005": 17.5276421865,
			"0.006": 17.8036026165,
			"0.007": 10.0224368624,
			"0.008": 8.31530799266,
			"0.009": 1.74706005743,
			"0.01": 0.0,
			"0.011": 0.0,
			"0.012": 0.0,
			"0.013": 0.0,
			"0.014": 0.0,
			"0.015": 0.0,
			"0.016": 0.0,
			"0.017": 0.0,
			"0.018": 0.0,
			"0.019": 0.0,
			"0.02": 0.0,
			"0.021": 0.0,
			"0.022": 0.0,
			"0.023": 0.0,
			"0.024": 0.0,
			"0.025": 0.0
		}
	}
}
