{
	 "smiles": "CC(=O)NC1=CC=CC=C1C1=CC2=CC=CC=C2N1", 
	 "Tm": 425.15, 
	 "num_atms": 33, 
	 "gaussian": { 
		 "optdone": 1, 
		 "sigma_profile": "yes", 
		 "theory": "DFT", 
		 "functional": "B3LYP", 
		 "basiset": "6-31G**", 
		 "properties": { 
			 "R2extent": 6218.8909, 
			 "electric_dipole_moment_norm": 2.95597662372, 
			 "electric_quadrupole_moment_norm": 18.1526729238, 
			 "total_energy": -802.904555637, 
			 "HOMO_LUMO_gap": 0.16763, 
			 "cosmo_polarized_energy": -14.9, 
			 "cosmo_cavitation_energy": 36.77, 
			 "cosmo_dispersion_energy": -26.46, 
			 "cosmo_repulsion_energy": 2.02, 
			 "cosmo_total_nonelectrostatic_energy": 12.33, 
			 "SMD_solvation_energy": 6.35 
		},
		"coords": [
			{
				"x": 1.9466962427,
				"y": 1.3969202678,
				"z": 2.4685285236,
				"element": "C" 
			},
			{
				"x": 2.3638782472,
				"y": 1.0206639063,
				"z": 1.0531434087,
				"element": "C" 
			},
			{
				"x": 3.529893696,
				"y": 1.0933693679,
				"z": 0.6908358257,
				"element": "O" 
			},
			{
				"x": 1.3181877071,
				"y": 0.6176713852,
				"z": 0.2490757269,
				"element": "N" 
			},
			{
				"x": 1.3304317288,
				"y": 0.2619818616,
				"z": -1.112455124,
				"element": "C" 
			},
			{
				"x": 2.489539982,
				"y": 0.3499567663,
				"z": -1.899370372,
				"element": "C" 
			},
			{
				"x": 2.4419774623,
				"y": 0.0348898914,
				"z": -3.2556130984,
				"element": "C" 
			},
			{
				"x": 1.2483750545,
				"y": -0.3676186722,
				"z": -3.8550467959,
				"element": "C" 
			},
			{
				"x": 0.0987034082,
				"y": -0.4643894794,
				"z": -3.0766164876,
				"element": "C" 
			},
			{
				"x": 0.1111564865,
				"y": -0.1641350857,
				"z": -1.7046680547,
				"element": "C" 
			},
			{
				"x": -1.14000814,
				"y": -0.278967784,
				"z": -0.9369704686,
				"element": "C" 
			},
			{
				"x": -1.4147256629,
				"y": -0.8312702886,
				"z": 0.3019153662,
				"element": "C" 
			},
			{
				"x": -2.825547081,
				"y": -0.7079795033,
				"z": 0.5346344896,
				"element": "C" 
			},
			{
				"x": -3.6854588446,
				"y": -1.0809973935,
				"z": 1.5832900607,
				"element": "C" 
			},
			{
				"x": -5.0390990467,
				"y": -0.7885620733,
				"z": 1.4796322329,
				"element": "C" 
			},
			{
				"x": -5.5587226827,
				"y": -0.1298750315,
				"z": 0.3456381389,
				"element": "C" 
			},
			{
				"x": -4.7363435927,
				"y": 0.2434586053,
				"z": -0.7115271305,
				"element": "C" 
			},
			{
				"x": -3.3745589764,
				"y": -0.0570342763,
				"z": -0.6047181525,
				"element": "C" 
			},
			{
				"x": -2.3349318707,
				"y": 0.1727738889,
				"z": -1.4833140157,
				"element": "N" 
			},
			{
				"x": 2.004101756,
				"y": 2.4847926546,
				"z": 2.5771841415,
				"element": "H" 
			},
			{
				"x": 2.6636562502,
				"y": 0.9604315859,
				"z": 3.1671102024,
				"element": "H" 
			},
			{
				"x": 0.9370256105,
				"y": 1.0730943952,
				"z": 2.7359009596,
				"element": "H" 
			},
			{
				"x": 0.3987584681,
				"y": 0.6071999988,
				"z": 0.6724274296,
				"element": "H" 
			},
			{
				"x": 3.4088724432,
				"y": 0.6697255201,
				"z": -1.4301729385,
				"element": "H" 
			},
			{
				"x": 3.3514129226,
				"y": 0.1073803419,
				"z": -3.8450606775,
				"element": "H" 
			},
			{
				"x": 1.2144528217,
				"y": -0.6172458473,
				"z": -4.9109844466,
				"element": "H" 
			},
			{
				"x": -0.8288624108,
				"y": -0.8120018478,
				"z": -3.522958046,
				"element": "H" 
			},
			{
				"x": -0.7018927587,
				"y": -1.3483403422,
				"z": 0.9295423837,
				"element": "H" 
			},
			{
				"x": -3.2947169263,
				"y": -1.5882703764,
				"z": 2.461026642,
				"element": "H" 
			},
			{
				"x": -5.7126416458,
				"y": -1.06963188,
				"z": 2.2838605493,
				"element": "H" 
			},
			{
				"x": -6.6216436739,
				"y": 0.0869813534,
				"z": 0.2956173315,
				"element": "H" 
			},
			{
				"x": -5.1381201061,
				"y": 0.745876253,
				"z": -1.5869007403,
				"element": "H" 
			},
			{
				"x": -2.3900468681,
				"y": 0.724251838,
				"z": -2.3250868637,
				"element": "H" 
			}
		],
		 "valence_orbital": [ 
			{
				"type": "occ",
				"energy": -0.26153,
				"method": "rhf"
			},
			{
				"type": "occ",
				"energy": -0.25087,
				"method": "rhf"
			},
			{
				"type": "occ",
				"energy": -0.22964,
				"method": "rhf"
			},
			{
				"type": "occ",
				"energy": -0.22059,
				"method": "rhf"
			},
			{
				"type": "occ",
				"energy": -0.20313,
				"method": "rhf"
			},
			{
				"type": "unocc",
				"energy": -0.0355,
				"method": "rhf"
			},
			{
				"type": "unocc",
				"energy": -0.01298,
				"method": "rhf"
			},
			{
				"type": "unocc",
				"energy": 0.00587,
				"method": "rhf"
			},
			{
				"type": "unocc",
				"energy": 0.02263,
				"method": "rhf"
			},
			{
				"type": "unocc",
				"energy": 0.04361,
				"method": "rhf"
			}
		],
		"cosmo_sigma_profile": { 
			"-0.025": 0.0,
			"-0.024": 0.0,
			"-0.023": 0.0,
			"-0.022": 0.0,
			"-0.021": 0.0,
			"-0.02": 0.0,
			"-0.019": 0.0,
			"-0.018": 0.0,
			"-0.017": 0.0,
			"-0.016": 0.070681374248,
			"-0.015": 0.93262192981,
			"-0.014": 1.39801218558,
			"-0.013": 0.652430629814,
			"-0.012": 1.07124036899,
			"-0.011": 0.905726433202,
			"-0.01": 2.62689402766,
			"-0.009": 3.46508721348,
			"-0.008": 3.17320049138,
			"-0.007": 3.91663929684,
			"-0.006": 14.8428337663,
			"-0.005": 21.2750432842,
			"-0.004": 24.3362839776,
			"-0.003": 24.6326947381,
			"-0.002": 23.5074601349,
			"-0.001": 20.3452844552,
			"0.0": 16.1112921589,
			"0.001": 13.180579562,
			"0.002": 19.2695819732,
			"0.003": 18.1821555188,
			"0.004": 23.511535683,
			"0.005": 21.3430343256,
			"0.006": 14.2059964346,
			"0.007": 7.58654233807,
			"0.008": 1.49157119699,
			"0.009": 1.56706425121,
			"0.01": 1.3462946539,
			"0.011": 1.80288691933,
			"0.012": 2.81436004907,
			"0.013": 3.07115200233,
			"0.014": 1.77452493745,
			"0.015": 0.214993460146,
			"0.016": 0.0,
			"0.017": 0.0,
			"0.018": 0.0,
			"0.019": 0.0,
			"0.02": 0.0,
			"0.021": 0.0,
			"0.022": 0.0,
			"0.023": 0.0,
			"0.024": 0.0,
			"0.025": 0.0
		}
	}
}
