{
	 "smiles": "CCCCN1C(N)=CC(=O)N(C)C1=O", 
	 "Tm": 366.15, 
	 "num_atms": 29, 
	 "gaussian": { 
		 "optdone": 1, 
		 "sigma_profile": "yes", 
		 "theory": "DFT", 
		 "functional": "B3LYP", 
		 "basiset": "6-31G**", 
		 "properties": { 
			 "R2extent": 3072.1012, 
			 "electric_dipole_moment_norm": 5.69476364391, 
			 "electric_quadrupole_moment_norm": 14.3998172336, 
			 "total_energy": -666.748101258, 
			 "HOMO_LUMO_gap": 0.20883, 
			 "cosmo_polarized_energy": -19.53, 
			 "cosmo_cavitation_energy": 30.41, 
			 "cosmo_dispersion_energy": -21.65, 
			 "cosmo_repulsion_energy": 1.7, 
			 "cosmo_total_nonelectrostatic_energy": 10.46, 
			 "SMD_solvation_energy": 6.38 
		},
		"coords": [
			{
				"x": -0.1402867693,
				"y": 2.4441732704,
				"z": -1.6816637666,
				"element": "C" 
			},
			{
				"x": 1.1825216504,
				"y": 2.3964424682,
				"z": -0.9051683112,
				"element": "C" 
			},
			{
				"x": 1.0735140894,
				"y": 1.836536587,
				"z": 0.5285383464,
				"element": "C" 
			},
			{
				"x": 1.1848761351,
				"y": 0.3080030576,
				"z": 0.6546691053,
				"element": "C" 
			},
			{
				"x": 0.1342367672,
				"y": -0.4706796943,
				"z": -0.0268513347,
				"element": "N" 
			},
			{
				"x": -1.1518357107,
				"y": -0.5841308182,
				"z": 0.4753830191,
				"element": "C" 
			},
			{
				"x": -1.4230778206,
				"y": 0.0794251955,
				"z": 1.6552145161,
				"element": "N" 
			},
			{
				"x": -2.1139252668,
				"y": -1.2758878277,
				"z": -0.2055768476,
				"element": "C" 
			},
			{
				"x": -1.8415323499,
				"y": -1.91108711,
				"z": -1.4635702507,
				"element": "C" 
			},
			{
				"x": -2.652343075,
				"y": -2.5437141729,
				"z": -2.1306823897,
				"element": "O" 
			},
			{
				"x": -0.4936295167,
				"y": -1.7676953772,
				"z": -1.9139236494,
				"element": "N" 
			},
			{
				"x": -0.1066850998,
				"y": -2.3940447231,
				"z": -3.1804346986,
				"element": "C" 
			},
			{
				"x": 0.4991551205,
				"y": -1.0835464377,
				"z": -1.2454977722,
				"element": "C" 
			},
			{
				"x": 1.6409749128,
				"y": -0.9980800189,
				"z": -1.6823306118,
				"element": "O" 
			},
			{
				"x": 0.0069471541,
				"y": 2.8952348592,
				"z": -2.668383638,
				"element": "H" 
			},
			{
				"x": -0.5719536732,
				"y": 1.4518642382,
				"z": -1.8375305137,
				"element": "H" 
			},
			{
				"x": -0.8856184294,
				"y": 3.0466755306,
				"z": -1.1497029205,
				"element": "H" 
			},
			{
				"x": 1.9220075245,
				"y": 1.8137009747,
				"z": -1.4667213428,
				"element": "H" 
			},
			{
				"x": 1.5784655851,
				"y": 3.4174348817,
				"z": -0.8405792945,
				"element": "H" 
			},
			{
				"x": 1.896498786,
				"y": 2.2381357045,
				"z": 1.1344518974,
				"element": "H" 
			},
			{
				"x": 0.1463421802,
				"y": 2.1899093639,
				"z": 0.9953819223,
				"element": "H" 
			},
			{
				"x": 2.1200435602,
				"y": -0.0317939299,
				"z": 0.2104933517,
				"element": "H" 
			},
			{
				"x": 1.2109992696,
				"y": 0.0122440709,
				"z": 1.7111026621,
				"element": "H" 
			},
			{
				"x": -0.6737292465,
				"y": 0.1762568849,
				"z": 2.3237394491,
				"element": "H" 
			},
			{
				"x": -2.304587567,
				"y": -0.1727265131,
				"z": 2.077960885,
				"element": "H" 
			},
			{
				"x": -3.1159189509,
				"y": -1.3696698648,
				"z": 0.1913621407,
				"element": "H" 
			},
			{
				"x": -0.995691952,
				"y": -2.87933935,
				"z": -3.5772014655,
				"element": "H" 
			},
			{
				"x": 0.2636437973,
				"y": -1.6374957022,
				"z": -3.8757936717,
				"element": "H" 
			},
			{
				"x": 0.6880888954,
				"y": -3.1244455475,
				"z": -3.012084816,
				"element": "H" 
			}
		],
		 "valence_orbital": [ 
			{
				"type": "occ",
				"energy": -0.28548,
				"method": "rhf"
			},
			{
				"type": "occ",
				"energy": -0.27941,
				"method": "rhf"
			},
			{
				"type": "occ",
				"energy": -0.25789,
				"method": "rhf"
			},
			{
				"type": "occ",
				"energy": -0.24442,
				"method": "rhf"
			},
			{
				"type": "occ",
				"energy": -0.21841,
				"method": "rhf"
			},
			{
				"type": "unocc",
				"energy": -0.00958,
				"method": "rhf"
			},
			{
				"type": "unocc",
				"energy": 0.02105,
				"method": "rhf"
			},
			{
				"type": "unocc",
				"energy": 0.04764,
				"method": "rhf"
			},
			{
				"type": "unocc",
				"energy": 0.08346,
				"method": "rhf"
			},
			{
				"type": "unocc",
				"energy": 0.09679,
				"method": "rhf"
			}
		],
		"cosmo_sigma_profile": { 
			"-0.025": 0.0,
			"-0.024": 0.0,
			"-0.023": 0.0,
			"-0.022": 0.0,
			"-0.021": 0.0,
			"-0.02": 0.0,
			"-0.019": 0.0,
			"-0.018": 0.0,
			"-0.017": 0.0,
			"-0.016": 0.0,
			"-0.015": 0.850210199662,
			"-0.014": 2.93132494009,
			"-0.013": 3.16787338772,
			"-0.012": 3.39202257068,
			"-0.011": 2.84721607971,
			"-0.01": 2.59102971211,
			"-0.009": 2.82447757844,
			"-0.008": 2.22479461577,
			"-0.007": 3.20553287827,
			"-0.006": 3.96562464859,
			"-0.005": 7.43326984016,
			"-0.004": 12.6705741241,
			"-0.003": 21.9818119942,
			"-0.002": 31.0509953593,
			"-0.001": 25.6206417971,
			"0.0": 21.5747880612,
			"0.001": 20.8426260652,
			"0.002": 10.4390146959,
			"0.003": 7.35863429101,
			"0.004": 8.53466490935,
			"0.005": 5.10342282541,
			"0.006": 3.27848094069,
			"0.007": 4.21334248694,
			"0.008": 3.32365626083,
			"0.009": 3.66054259266,
			"0.01": 2.99342662248,
			"0.011": 2.76178389372,
			"0.012": 4.01156834405,
			"0.013": 6.64080890538,
			"0.014": 4.80294432499,
			"0.015": 1.85800440991,
			"0.016": 0.0889781693887,
			"0.017": 0.0,
			"0.018": 0.0,
			"0.019": 0.0,
			"0.02": 0.0,
			"0.021": 0.0,
			"0.022": 0.0,
			"0.023": 0.0,
			"0.024": 0.0,
			"0.025": 0.0
		}
	}
}
