{
	 "smiles": "NCCCN1CCC(CC1)C(N)=O", 
	 "Tm": 368.15, 
	 "num_atms": 32, 
	 "gaussian": { 
		 "optdone": 1, 
		 "sigma_profile": "yes", 
		 "theory": "DFT", 
		 "functional": "B3LYP", 
		 "basiset": "6-31G**", 
		 "properties": { 
			 "R2extent": 3942.5808, 
			 "electric_dipole_moment_norm": 4.21524908042, 
			 "electric_quadrupole_moment_norm": 14.5061148396, 
			 "total_energy": -593.889566932, 
			 "HOMO_LUMO_gap": 0.22284, 
			 "cosmo_polarized_energy": -17.64, 
			 "cosmo_cavitation_energy": 32.47, 
			 "cosmo_dispersion_energy": -23.36, 
			 "cosmo_repulsion_energy": 1.9, 
			 "cosmo_total_nonelectrostatic_energy": 11.01, 
			 "SMD_solvation_energy": 2.08 
		},
		"coords": [
			{
				"x": -3.9286368212,
				"y": 0.1059744653,
				"z": -3.1182298457,
				"element": "N" 
			},
			{
				"x": -2.8624286683,
				"y": 1.031325676,
				"z": -3.52429012,
				"element": "C" 
			},
			{
				"x": -1.5408975439,
				"y": 0.7010000122,
				"z": -2.8223928198,
				"element": "C" 
			},
			{
				"x": -1.6103455535,
				"y": 0.8415492491,
				"z": -1.2962391273,
				"element": "C" 
			},
			{
				"x": -0.3057107816,
				"y": 0.664543606,
				"z": -0.654719631,
				"element": "N" 
			},
			{
				"x": -0.2408001156,
				"y": 1.1823633316,
				"z": 0.7261790663,
				"element": "C" 
			},
			{
				"x": -0.4776109198,
				"y": 0.114840338,
				"z": 1.8038746818,
				"element": "C" 
			},
			{
				"x": 0.6000357244,
				"y": -0.9942191185,
				"z": 1.720560277,
				"element": "C" 
			},
			{
				"x": 1.231095845,
				"y": -1.030137005,
				"z": 0.2987901203,
				"element": "C" 
			},
			{
				"x": 0.1813012119,
				"y": -0.7167085091,
				"z": -0.7690190446,
				"element": "C" 
			},
			{
				"x": 1.7065612793,
				"y": -0.784577243,
				"z": 2.759003733,
				"element": "C" 
			},
			{
				"x": 2.4378754329,
				"y": -1.9028445125,
				"z": 3.0562031823,
				"element": "N" 
			},
			{
				"x": 1.9592827433,
				"y": 0.3030894916,
				"z": 3.2601247974,
				"element": "O" 
			},
			{
				"x": -3.71676926,
				"y": -0.8287295772,
				"z": -3.4619223797,
				"element": "H" 
			},
			{
				"x": -4.8076285221,
				"y": 0.3750372002,
				"z": -3.5532639184,
				"element": "H" 
			},
			{
				"x": -3.1783990627,
				"y": 2.0440529194,
				"z": -3.2415083173,
				"element": "H" 
			},
			{
				"x": -2.6850567464,
				"y": 1.0546368753,
				"z": -4.6144665288,
				"element": "H" 
			},
			{
				"x": -1.2409038385,
				"y": -0.3190026988,
				"z": -3.0999396682,
				"element": "H" 
			},
			{
				"x": -0.7556271458,
				"y": 1.3671346692,
				"z": -3.2001282287,
				"element": "H" 
			},
			{
				"x": -1.9602961483,
				"y": 1.8551750494,
				"z": -1.0665094424,
				"element": "H" 
			},
			{
				"x": -2.3752715963,
				"y": 0.1451311329,
				"z": -0.906711717,
				"element": "H" 
			},
			{
				"x": -0.9738382807,
				"y": 1.9885355214,
				"z": 0.8239539381,
				"element": "H" 
			},
			{
				"x": 0.7424879967,
				"y": 1.6357957288,
				"z": 0.9029175922,
				"element": "H" 
			},
			{
				"x": -0.4523869202,
				"y": 0.5802910394,
				"z": 2.7929086304,
				"element": "H" 
			},
			{
				"x": -1.4706868337,
				"y": -0.3287166276,
				"z": 1.6687292757,
				"element": "H" 
			},
			{
				"x": 0.1302246181,
				"y": -1.9694173283,
				"z": 1.9071379466,
				"element": "H" 
			},
			{
				"x": 2.0397045778,
				"y": -0.2935455901,
				"z": 0.2299609055,
				"element": "H" 
			},
			{
				"x": 1.6794228844,
				"y": -2.0097219135,
				"z": 0.1014256885,
				"element": "H" 
			},
			{
				"x": 0.6126496199,
				"y": -0.8735094298,
				"z": -1.7655872697,
				"element": "H" 
			},
			{
				"x": -0.6479376998,
				"y": -1.4479957887,
				"z": -0.6709847316,
				"element": "H" 
			},
			{
				"x": 3.1961031364,
				"y": -1.8154212193,
				"z": 3.7155669932,
				"element": "H" 
			},
			{
				"x": 2.2076873883,
				"y": -2.8133297445,
				"z": 2.6940759617,
				"element": "H" 
			}
		],
		 "valence_orbital": [ 
			{
				"type": "occ",
				"energy": -0.30994,
				"method": "rhf"
			},
			{
				"type": "occ",
				"energy": -0.26284,
				"method": "rhf"
			},
			{
				"type": "occ",
				"energy": -0.24101,
				"method": "rhf"
			},
			{
				"type": "occ",
				"energy": -0.23189,
				"method": "rhf"
			},
			{
				"type": "occ",
				"energy": -0.18884,
				"method": "rhf"
			},
			{
				"type": "unocc",
				"energy": 0.034,
				"method": "rhf"
			},
			{
				"type": "unocc",
				"energy": 0.06665,
				"method": "rhf"
			},
			{
				"type": "unocc",
				"energy": 0.08209,
				"method": "rhf"
			},
			{
				"type": "unocc",
				"energy": 0.09552,
				"method": "rhf"
			},
			{
				"type": "unocc",
				"energy": 0.1141,
				"method": "rhf"
			}
		],
		"cosmo_sigma_profile": { 
			"-0.025": 0.0,
			"-0.024": 0.0,
			"-0.023": 0.0,
			"-0.022": 0.0,
			"-0.021": 0.0,
			"-0.02": 0.0,
			"-0.019": 0.0,
			"-0.018": 0.0,
			"-0.017": 0.0,
			"-0.016": 0.0,
			"-0.015": 0.0,
			"-0.014": 0.947995892569,
			"-0.013": 2.54002435069,
			"-0.012": 1.82971384325,
			"-0.011": 2.72793396849,
			"-0.01": 3.13419827398,
			"-0.009": 4.72649219443,
			"-0.008": 4.66375920245,
			"-0.007": 5.45101138217,
			"-0.006": 5.70755518123,
			"-0.005": 5.30650444769,
			"-0.004": 9.96834298778,
			"-0.003": 20.2306186135,
			"-0.002": 33.7082639617,
			"-0.001": 39.1350778543,
			"0.0": 30.8166158966,
			"0.001": 15.0823880974,
			"0.002": 8.33887984526,
			"0.003": 6.08932592207,
			"0.004": 5.60420280343,
			"0.005": 5.17991487333,
			"0.006": 3.61161894409,
			"0.007": 3.89237262993,
			"0.008": 3.11805580294,
			"0.009": 3.25361791813,
			"0.01": 2.93359641282,
			"0.011": 2.70292337947,
			"0.012": 3.31104802527,
			"0.013": 3.3254509777,
			"0.014": 6.71181760676,
			"0.015": 2.44404062559,
			"0.016": 1.16113569314,
			"0.017": 0.684024113399,
			"0.018": 0.488577731316,
			"0.019": 0.125166860178,
			"0.02": 0.0,
			"0.021": 0.0,
			"0.022": 0.0,
			"0.023": 0.0,
			"0.024": 0.0,
			"0.025": 0.0
		}
	}
}
