{
	 "smiles": "COC1=CC=C(C=C(C#N)C2=NC(=CS2)C2=CC=CO2)C=C1", 
	 "Tm": 382.15, 
	 "num_atms": 34, 
	 "gaussian": { 
		 "optdone": 1, 
		 "sigma_profile": "yes", 
		 "theory": "DFT", 
		 "functional": "B3LYP", 
		 "basiset": "6-31G**", 
		 "properties": { 
			 "R2extent": 10205.2012, 
			 "electric_dipole_moment_norm": 6.83136607788, 
			 "electric_quadrupole_moment_norm": 20.7952263438, 
			 "total_energy": -1313.10604273, 
			 "HOMO_LUMO_gap": 0.12188, 
			 "cosmo_polarized_energy": -14.13, 
			 "cosmo_cavitation_energy": 42.32, 
			 "cosmo_dispersion_energy": -29.69, 
			 "cosmo_repulsion_energy": 2.16, 
			 "cosmo_total_nonelectrostatic_energy": 14.8, 
			 "SMD_solvation_energy": 9.31 
		},
		"coords": [
			{
				"x": 1.4812850312,
				"y": -1.2901456436,
				"z": -3.9494595209,
				"element": "C" 
			},
			{
				"x": 0.0843492112,
				"y": -1.0222578456,
				"z": -3.9696863091,
				"element": "O" 
			},
			{
				"x": -0.4941604305,
				"y": -0.4977842321,
				"z": -2.8612143238,
				"element": "C" 
			},
			{
				"x": 0.1857158188,
				"y": -0.1849449554,
				"z": -1.6743986842,
				"element": "C" 
			},
			{
				"x": -0.5023643295,
				"y": 0.3549444951,
				"z": -0.5926555995,
				"element": "C" 
			},
			{
				"x": -1.8912250883,
				"y": 0.5935384147,
				"z": -0.6529971992,
				"element": "C" 
			},
			{
				"x": -2.7321405475,
				"y": 1.116699529,
				"z": 0.4047701259,
				"element": "C" 
			},
			{
				"x": -2.5667721795,
				"y": 1.5526404462,
				"z": 1.7003472392,
				"element": "C" 
			},
			{
				"x": -3.7912862377,
				"y": 1.9295946407,
				"z": 2.3566807966,
				"element": "C" 
			},
			{
				"x": -4.7827703546,
				"y": 2.2295213574,
				"z": 2.8890441994,
				"element": "N" 
			},
			{
				"x": -1.3709144341,
				"y": 1.7042823854,
				"z": 2.5341877466,
				"element": "C" 
			},
			{
				"x": -0.1222755605,
				"y": 1.5765321256,
				"z": 2.1680514545,
				"element": "N" 
			},
			{
				"x": 0.7494024274,
				"y": 1.7983008084,
				"z": 3.2099185893,
				"element": "C" 
			},
			{
				"x": 0.1552109109,
				"y": 2.1034056939,
				"z": 4.412367062,
				"element": "C" 
			},
			{
				"x": -1.5582905004,
				"y": 2.1234151172,
				"z": 4.2482114313,
				"element": "S" 
			},
			{
				"x": 2.1770671514,
				"y": 1.7111689008,
				"z": 2.9688942348,
				"element": "C" 
			},
			{
				"x": 2.9246975043,
				"y": 1.5166887103,
				"z": 1.8381574329,
				"element": "C" 
			},
			{
				"x": 4.2945419228,
				"y": 1.5451050658,
				"z": 2.2495202779,
				"element": "C" 
			},
			{
				"x": 4.2835653301,
				"y": 1.7551846764,
				"z": 3.5952157262,
				"element": "C" 
			},
			{
				"x": 3.0027289331,
				"y": 1.8590331316,
				"z": 4.0510983125,
				"element": "O" 
			},
			{
				"x": -2.5532377034,
				"y": 0.2654728376,
				"z": -1.8656307496,
				"element": "C" 
			},
			{
				"x": -1.8779765362,
				"y": -0.2641610761,
				"z": -2.9474359018,
				"element": "C" 
			},
			{
				"x": 1.7386830617,
				"y": -2.0218661214,
				"z": -3.1741480739,
				"element": "H" 
			},
			{
				"x": 1.7200715758,
				"y": -1.7041095164,
				"z": -4.9297339056,
				"element": "H" 
			},
			{
				"x": 2.0635747035,
				"y": -0.3743090552,
				"z": -3.7911102177,
				"element": "H" 
			},
			{
				"x": 1.2518493318,
				"y": -0.3575741414,
				"z": -1.5856174528,
				"element": "H" 
			},
			{
				"x": 0.0311792674,
				"y": 0.6068784202,
				"z": 0.314409551,
				"element": "H" 
			},
			{
				"x": -3.7754202327,
				"y": 1.1598249885,
				"z": 0.0980815029,
				"element": "H" 
			},
			{
				"x": 0.6399435807,
				"y": 2.3196365459,
				"z": 5.3526191723,
				"element": "H" 
			},
			{
				"x": 2.5372494662,
				"y": 1.3856872815,
				"z": 0.8392781086,
				"element": "H" 
			},
			{
				"x": 5.1685020691,
				"y": 1.4272769469,
				"z": 1.6252969965,
				"element": "H" 
			},
			{
				"x": 5.0563762185,
				"y": 1.8500762205,
				"z": 4.341854042,
				"element": "H" 
			},
			{
				"x": -3.6240179813,
				"y": 0.4337178618,
				"z": -1.9452898834,
				"element": "H" 
			},
			{
				"x": -2.3908413994,
				"y": -0.5113740139,
				"z": -3.8707261806,
				"element": "H" 
			}
		],
		 "valence_orbital": [ 
			{
				"type": "occ",
				"energy": -0.28368,
				"method": "rhf"
			},
			{
				"type": "occ",
				"energy": -0.27308,
				"method": "rhf"
			},
			{
				"type": "occ",
				"energy": -0.2655,
				"method": "rhf"
			},
			{
				"type": "occ",
				"energy": -0.2271,
				"method": "rhf"
			},
			{
				"type": "occ",
				"energy": -0.20475,
				"method": "rhf"
			},
			{
				"type": "unocc",
				"energy": -0.08287,
				"method": "rhf"
			},
			{
				"type": "unocc",
				"energy": -0.03424,
				"method": "rhf"
			},
			{
				"type": "unocc",
				"energy": -0.01365,
				"method": "rhf"
			},
			{
				"type": "unocc",
				"energy": 1e-05,
				"method": "rhf"
			},
			{
				"type": "unocc",
				"energy": 0.00653,
				"method": "rhf"
			}
		],
		"cosmo_sigma_profile": { 
			"-0.025": 0.0,
			"-0.024": 0.0,
			"-0.023": 0.0,
			"-0.022": 0.0,
			"-0.021": 0.0,
			"-0.02": 0.0,
			"-0.019": 0.0,
			"-0.018": 0.0,
			"-0.017": 0.0,
			"-0.016": 0.0,
			"-0.015": 0.0,
			"-0.014": 0.0,
			"-0.013": 0.0,
			"-0.012": 0.0,
			"-0.011": 0.0,
			"-0.01": 0.474310101907,
			"-0.009": 4.56663918324,
			"-0.008": 6.96040645648,
			"-0.007": 10.8045478931,
			"-0.006": 20.7636114565,
			"-0.005": 21.9376995109,
			"-0.004": 22.1856518094,
			"-0.003": 21.3746594448,
			"-0.002": 18.15116385,
			"-0.001": 21.3346629745,
			"0.0": 26.2413493335,
			"0.001": 34.3498355498,
			"0.002": 40.9758280085,
			"0.003": 32.981135241,
			"0.004": 19.6738142513,
			"0.005": 12.0345180361,
			"0.006": 6.03049033764,
			"0.007": 5.22348038047,
			"0.008": 3.96251189222,
			"0.009": 4.37751817785,
			"0.01": 3.43750647451,
			"0.011": 2.81310767671,
			"0.012": 2.47789145983,
			"0.013": 1.53524419182,
			"0.014": 0.0560154159933,
			"0.015": 0.0,
			"0.016": 0.0,
			"0.017": 0.0,
			"0.018": 0.0,
			"0.019": 0.0,
			"0.02": 0.0,
			"0.021": 0.0,
			"0.022": 0.0,
			"0.023": 0.0,
			"0.024": 0.0,
			"0.025": 0.0
		}
	}
}
