{
	 "smiles": "OC(=O)C1=CC=C(NS(=O)(=O)C2=C(Cl)SC(Cl)=C2)C=C1", 
	 "Tm": 463.15, 
	 "num_atms": 27, 
	 "gaussian": { 
		 "optdone": 1, 
		 "sigma_profile": "yes", 
		 "theory": "DFT", 
		 "functional": "B3LYP", 
		 "basiset": "6-31G**", 
		 "properties": { 
			 "R2extent": 8761.2521, 
			 "electric_dipole_moment_norm": 4.54263064204, 
			 "electric_quadrupole_moment_norm": 31.3541454685, 
			 "total_energy": -2495.69534996, 
			 "HOMO_LUMO_gap": 0.17858, 
			 "cosmo_polarized_energy": -23.53, 
			 "cosmo_cavitation_energy": 39.64, 
			 "cosmo_dispersion_energy": -28.38, 
			 "cosmo_repulsion_energy": 2.11, 
			 "cosmo_total_nonelectrostatic_energy": 13.37, 
			 "SMD_solvation_energy": 6.22 
		},
		"coords": [
			{
				"x": 1.0549207476,
				"y": 4.389904316,
				"z": 2.718444927,
				"element": "O" 
			},
			{
				"x": 1.6215701713,
				"y": 3.1929106763,
				"z": 2.4025142495,
				"element": "C" 
			},
			{
				"x": 2.8246096553,
				"y": 3.077233014,
				"z": 2.4006669022,
				"element": "O" 
			},
			{
				"x": 0.6884316391,
				"y": 2.07191177,
				"z": 2.0670621235,
				"element": "C" 
			},
			{
				"x": 1.1822732101,
				"y": 0.761986676,
				"z": 2.1446967852,
				"element": "C" 
			},
			{
				"x": 0.3766843686,
				"y": -0.331178337,
				"z": 1.8529861804,
				"element": "C" 
			},
			{
				"x": -0.9462720621,
				"y": -0.1233159271,
				"z": 1.4293526576,
				"element": "C" 
			},
			{
				"x": -1.8175723688,
				"y": -1.2009996101,
				"z": 1.1452282553,
				"element": "N" 
			},
			{
				"x": -1.3956500513,
				"y": -2.6066925003,
				"z": 0.306007459,
				"element": "S" 
			},
			{
				"x": -2.6651360861,
				"y": -3.2977426811,
				"z": 0.1144487099,
				"element": "O" 
			},
			{
				"x": -0.2605233387,
				"y": -3.2260582581,
				"z": 0.9839943935,
				"element": "O" 
			},
			{
				"x": -0.7658531663,
				"y": -2.0611079823,
				"z": -1.2815802037,
				"element": "C" 
			},
			{
				"x": -1.4735855713,
				"y": -1.3708955233,
				"z": -2.233964476,
				"element": "C" 
			},
			{
				"x": -3.1018297701,
				"y": -0.8095414059,
				"z": -2.1599416197,
				"element": "Cl" 
			},
			{
				"x": -0.5155152863,
				"y": -1.0625932779,
				"z": -3.6538547965,
				"element": "S" 
			},
			{
				"x": 0.8469479035,
				"y": -1.8870198167,
				"z": -2.9321664399,
				"element": "C" 
			},
			{
				"x": 2.3305145677,
				"y": -2.0271843681,
				"z": -3.8005549135,
				"element": "Cl" 
			},
			{
				"x": 0.5749843351,
				"y": -2.3601807472,
				"z": -1.6833434528,
				"element": "C" 
			},
			{
				"x": -1.4418708043,
				"y": 1.1843066885,
				"z": 1.3189538702,
				"element": "C" 
			},
			{
				"x": -0.6344547461,
				"y": 2.268042556,
				"z": 1.6475695164,
				"element": "C" 
			},
			{
				"x": 0.1038787918,
				"y": 4.2840675224,
				"z": 2.8573184226,
				"element": "H" 
			},
			{
				"x": 2.2107141992,
				"y": 0.618380704,
				"z": 2.4579781837,
				"element": "H" 
			},
			{
				"x": 0.7557066094,
				"y": -1.3399717938,
				"z": 1.9584088179,
				"element": "H" 
			},
			{
				"x": -2.7789603567,
				"y": -0.9526113096,
				"z": 0.9366170019,
				"element": "H" 
			},
			{
				"x": 1.2728910133,
				"y": -2.9028033,
				"z": -1.0604896284,
				"element": "H" 
			},
			{
				"x": -2.4562202446,
				"y": 1.3503967368,
				"z": 0.966697975,
				"element": "H" 
			},
			{
				"x": -1.0380833593,
				"y": 3.2695561787,
				"z": 1.5205490997,
				"element": "H" 
			}
		],
		 "valence_orbital": [ 
			{
				"type": "occ",
				"energy": -0.30081,
				"method": "rhf"
			},
			{
				"type": "occ",
				"energy": -0.28353,
				"method": "rhf"
			},
			{
				"type": "occ",
				"energy": -0.27806,
				"method": "rhf"
			},
			{
				"type": "occ",
				"energy": -0.26309,
				"method": "rhf"
			},
			{
				"type": "occ",
				"energy": -0.25248,
				"method": "rhf"
			},
			{
				"type": "unocc",
				"energy": -0.0739,
				"method": "rhf"
			},
			{
				"type": "unocc",
				"energy": -0.05823,
				"method": "rhf"
			},
			{
				"type": "unocc",
				"energy": -0.03452,
				"method": "rhf"
			},
			{
				"type": "unocc",
				"energy": -0.0325,
				"method": "rhf"
			},
			{
				"type": "unocc",
				"energy": -0.02744,
				"method": "rhf"
			}
		],
		"cosmo_sigma_profile": { 
			"-0.025": 0.0,
			"-0.024": 0.0,
			"-0.023": 0.0,
			"-0.022": 0.0,
			"-0.021": 0.0,
			"-0.02": 0.0,
			"-0.019": 0.226923928737,
			"-0.018": 0.932241195747,
			"-0.017": 0.957949297111,
			"-0.016": 1.50831896203,
			"-0.015": 1.93583875336,
			"-0.014": 2.14486090541,
			"-0.013": 1.13853831121,
			"-0.012": 1.95519128796,
			"-0.011": 2.64056175495,
			"-0.01": 2.89473078496,
			"-0.009": 3.70204757507,
			"-0.008": 6.03444286043,
			"-0.007": 7.05749688469,
			"-0.006": 7.68685650287,
			"-0.005": 12.6986076215,
			"-0.004": 19.5263604897,
			"-0.003": 21.4317601431,
			"-0.002": 31.4153182137,
			"-0.001": 30.339336261,
			"0.0": 28.8448813837,
			"0.001": 26.4464149855,
			"0.002": 30.8359903946,
			"0.003": 17.7684927265,
			"0.004": 6.55152670447,
			"0.005": 6.09591295635,
			"0.006": 6.51611644756,
			"0.007": 4.94343820604,
			"0.008": 6.48425789972,
			"0.009": 10.7610886058,
			"0.01": 11.7509056279,
			"0.011": 6.445439918,
			"0.012": 5.0481448404,
			"0.013": 1.68168534803,
			"0.014": 0.0531821609275,
			"0.015": 0.0,
			"0.016": 0.0,
			"0.017": 0.0,
			"0.018": 0.0,
			"0.019": 0.0,
			"0.02": 0.0,
			"0.021": 0.0,
			"0.022": 0.0,
			"0.023": 0.0,
			"0.024": 0.0,
			"0.0": 0.0
		}
	}
}
