{
	 "smiles": "CCN(C(C)C)C(C)C", 
	 "Tm": 225.15, 
	 "num_atms": 28, 
	 "gaussian": { 
		 "optdone": 1, 
		 "sigma_profile": "yes", 
		 "theory": "DFT", 
		 "functional": "B3LYP", 
		 "basiset": "6-31G**", 
		 "properties": { 
			 "R2extent": 1546.4304, 
			 "electric_dipole_moment_norm": 0.601838998404, 
			 "electric_quadrupole_moment_norm": 1.61359011834, 
			 "total_energy": -371.057256592, 
			 "HOMO_LUMO_gap": 0.27553, 
			 "cosmo_polarized_energy": -2.44, 
			 "cosmo_cavitation_energy": 26.91, 
			 "cosmo_dispersion_energy": -18.98, 
			 "cosmo_repulsion_energy": 1.53, 
			 "cosmo_total_nonelectrostatic_energy": 9.47, 
			 "SMD_solvation_energy": 3.62 
		},
		"coords": [
			{
				"x": 2.0928669895,
				"y": 1.3624735683,
				"z": 0.8375342492,
				"element": "C" 
			},
			{
				"x": 1.5915856908,
				"y": -0.0635681983,
				"z": 0.5804469963,
				"element": "C" 
			},
			{
				"x": 0.1436758929,
				"y": -0.1342869324,
				"z": 0.3070218633,
				"element": "N" 
			},
			{
				"x": -0.1611303072,
				"y": -0.4871847058,
				"z": -1.0958787087,
				"element": "C" 
			},
			{
				"x": 0.3966962819,
				"y": 0.5839618895,
				"z": -2.0485474357,
				"element": "C" 
			},
			{
				"x": -1.6670590851,
				"y": -0.6324018361,
				"z": -1.3602445758,
				"element": "C" 
			},
			{
				"x": -0.6254458861,
				"y": -0.8589936829,
				"z": 1.3405432087,
				"element": "C" 
			},
			{
				"x": -0.307542196,
				"y": -2.3654386066,
				"z": 1.4545736138,
				"element": "C" 
			},
			{
				"x": -0.508785623,
				"y": -0.1604413547,
				"z": 2.7031492483,
				"element": "C" 
			},
			{
				"x": 3.1719907938,
				"y": 1.364903275,
				"z": 1.034084729,
				"element": "H" 
			},
			{
				"x": 1.5872784869,
				"y": 1.800072209,
				"z": 1.7033396933,
				"element": "H" 
			},
			{
				"x": 1.8998084521,
				"y": 2.013063238,
				"z": -0.0198196797,
				"element": "H" 
			},
			{
				"x": 2.156251066,
				"y": -0.5084551268,
				"z": -0.2508295734,
				"element": "H" 
			},
			{
				"x": 1.8403379857,
				"y": -0.6811491649,
				"z": 1.4510428511,
				"element": "H" 
			},
			{
				"x": 0.3171220596,
				"y": -1.4502993456,
				"z": -1.367935514,
				"element": "H" 
			},
			{
				"x": -0.0734735044,
				"y": 1.5518496941,
				"z": -1.844267798,
				"element": "H" 
			},
			{
				"x": 0.1874435357,
				"y": 0.3077302018,
				"z": -3.0873366447,
				"element": "H" 
			},
			{
				"x": 1.4784531893,
				"y": 0.7067481512,
				"z": -1.9561736566,
				"element": "H" 
			},
			{
				"x": -1.8348056357,
				"y": -0.7517599467,
				"z": -2.435006414,
				"element": "H" 
			},
			{
				"x": -2.204917845,
				"y": 0.2641258413,
				"z": -1.0322622586,
				"element": "H" 
			},
			{
				"x": -2.1090440837,
				"y": -1.5018611813,
				"z": -0.8669488282,
				"element": "H" 
			},
			{
				"x": -1.6763257883,
				"y": -0.7704376392,
				"z": 1.0527112554,
				"element": "H" 
			},
			{
				"x": -0.9766273224,
				"y": -2.8461591916,
				"z": 2.1768356595,
				"element": "H" 
			},
			{
				"x": 0.7193837554,
				"y": -2.5409763225,
				"z": 1.7931493751,
				"element": "H" 
			},
			{
				"x": -0.433747596,
				"y": -2.8753997507,
				"z": 0.4938847404,
				"element": "H" 
			},
			{
				"x": -1.1947785578,
				"y": -0.6220406349,
				"z": 3.4213593704,
				"element": "H" 
			},
			{
				"x": -0.7647615306,
				"y": 0.8989084579,
				"z": 2.6106551357,
				"element": "H" 
			},
			{
				"x": 0.4991507816,
				"y": -0.2328829051,
				"z": 3.1252190978,
				"element": "H" 
			}
		],
		 "valence_orbital": [ 
			{
				"type": "occ",
				"energy": -0.33297,
				"method": "rhf"
			},
			{
				"type": "occ",
				"energy": -0.32665,
				"method": "rhf"
			},
			{
				"type": "occ",
				"energy": -0.31686,
				"method": "rhf"
			},
			{
				"type": "occ",
				"energy": -0.31017,
				"method": "rhf"
			},
			{
				"type": "occ",
				"energy": -0.19515,
				"method": "rhf"
			},
			{
				"type": "unocc",
				"energy": 0.08038,
				"method": "rhf"
			},
			{
				"type": "unocc",
				"energy": 0.10676,
				"method": "rhf"
			},
			{
				"type": "unocc",
				"energy": 0.11407,
				"method": "rhf"
			},
			{
				"type": "unocc",
				"energy": 0.12419,
				"method": "rhf"
			},
			{
				"type": "unocc",
				"energy": 0.12984,
				"method": "rhf"
			}
		],
		"cosmo_sigma_profile": { 
			"-0.025": 0.0,
			"-0.024": 0.0,
			"-0.023": 0.0,
			"-0.022": 0.0,
			"-0.021": 0.0,
			"-0.02": 0.0,
			"-0.019": 0.0,
			"-0.018": 0.0,
			"-0.017": 0.0,
			"-0.016": 0.0,
			"-0.015": 0.0,
			"-0.014": 0.0,
			"-0.013": 0.0,
			"-0.012": 0.0,
			"-0.011": 0.0,
			"-0.01": 0.0,
			"-0.009": 0.0,
			"-0.008": 0.0,
			"-0.007": 0.0,
			"-0.006": 0.0,
			"-0.005": 0.0,
			"-0.004": 0.792092968441,
			"-0.003": 15.878256813,
			"-0.002": 36.4830460615,
			"-0.001": 39.7551988957,
			"0.0": 42.0487218786,
			"0.001": 36.6885151191,
			"0.002": 22.8734943428,
			"0.003": 2.85481954727,
			"0.004": 1.29427184182,
			"0.005": 1.19390598092,
			"0.006": 1.55697189431,
			"0.007": 0.41474875801,
			"0.008": 0.749097057309,
			"0.009": 0.601495061366,
			"0.01": 0.7845853006,
			"0.011": 0.634523630188,
			"0.012": 0.391144825711,
			"0.013": 0.632177998165,
			"0.014": 0.398950269572,
			"0.015": 0.173056245368,
			"0.016": 0.0302528592818,
			"0.017": 0.0,
			"0.018": 0.0,
			"0.019": 0.0,
			"0.02": 0.0,
			"0.021": 0.0,
			"0.022": 0.0,
			"0.023": 0.0,
			"0.024": 0.0,
			"0.025": 0.0
		}
	}
}
