{
	 "smiles": "CC1=CC=C(C=C1)S(=O)(=O)N1CCCC(C1)C(O)=O", 
	 "Tm": 423.15, 
	 "num_atms": 36, 
	 "gaussian": { 
		 "optdone": 1, 
		 "sigma_profile": "yes", 
		 "theory": "DFT", 
		 "functional": "B3LYP", 
		 "basiset": "6-31G**", 
		 "properties": { 
			 "R2extent": 5770.8275, 
			 "electric_dipole_moment_norm": 3.93167620615, 
			 "electric_quadrupole_moment_norm": 25.8587899189, 
			 "total_energy": -1259.41456225, 
			 "HOMO_LUMO_gap": 0.20664, 
			 "cosmo_polarized_energy": -18.51, 
			 "cosmo_cavitation_energy": 39.28, 
			 "cosmo_dispersion_energy": -27.2, 
			 "cosmo_repulsion_energy": 2.04, 
			 "cosmo_total_nonelectrostatic_energy": 14.12, 
			 "SMD_solvation_energy": 6.36 
		},
		"coords": [
			{
				"x": -0.3608065159,
				"y": -3.9241989894,
				"z": -3.1282241514,
				"element": "C" 
			},
			{
				"x": 0.1936729354,
				"y": -2.9381540204,
				"z": -2.1284673543,
				"element": "C" 
			},
			{
				"x": -0.4675996098,
				"y": -2.7153712364,
				"z": -0.9080889206,
				"element": "C" 
			},
			{
				"x": 0.0228466704,
				"y": -1.804680469,
				"z": 0.0203629566,
				"element": "C" 
			},
			{
				"x": 1.1938019252,
				"y": -1.0972868545,
				"z": -0.2716579843,
				"element": "C" 
			},
			{
				"x": 1.872327468,
				"y": -1.300877988,
				"z": -1.4706763184,
				"element": "C" 
			},
			{
				"x": 1.3653640741,
				"y": -2.2202614889,
				"z": -2.3916301377,
				"element": "C" 
			},
			{
				"x": 1.868391075,
				"y": 0.0378138062,
				"z": 0.9426912062,
				"element": "S" 
			},
			{
				"x": 2.0028600536,
				"y": -0.6615997165,
				"z": 2.2251824233,
				"element": "O" 
			},
			{
				"x": 3.0313010616,
				"y": 0.6870149648,
				"z": 0.3205322958,
				"element": "O" 
			},
			{
				"x": 0.6168857825,
				"y": 1.143358449,
				"z": 1.1485538853,
				"element": "N" 
			},
			{
				"x": 0.4400283313,
				"y": 2.1883478033,
				"z": 0.1083139373,
				"element": "C" 
			},
			{
				"x": 0.150126919,
				"y": 3.544027555,
				"z": 0.7587499429,
				"element": "C" 
			},
			{
				"x": -1.0910671297,
				"y": 3.4918501394,
				"z": 1.6714089078,
				"element": "C" 
			},
			{
				"x": -1.1685579291,
				"y": 2.1623785716,
				"z": 2.4626047519,
				"element": "C" 
			},
			{
				"x": 0.2044169566,
				"y": 1.4674765291,
				"z": 2.5252312395,
				"element": "C" 
			},
			{
				"x": -2.2052008681,
				"y": 1.2107655407,
				"z": 1.8709117817,
				"element": "C" 
			},
			{
				"x": -2.3046460632,
				"y": 0.0688194366,
				"z": 2.59739255,
				"element": "O" 
			},
			{
				"x": -2.8902395376,
				"y": 1.4100225845,
				"z": 0.8919998879,
				"element": "O" 
			},
			{
				"x": 0.3188641178,
				"y": -4.0635921157,
				"z": -3.9727951237,
				"element": "H" 
			},
			{
				"x": -0.5324689216,
				"y": -4.9030390456,
				"z": -2.6672816481,
				"element": "H" 
			},
			{
				"x": -1.3235991141,
				"y": -3.5831929564,
				"z": -3.5267938392,
				"element": "H" 
			},
			{
				"x": -1.3779516256,
				"y": -3.2667787171,
				"z": -0.6864830851,
				"element": "H" 
			},
			{
				"x": -0.4948507126,
				"y": -1.6349969437,
				"z": 0.958830339,
				"element": "H" 
			},
			{
				"x": 2.782280857,
				"y": -0.7461273551,
				"z": -1.6705074773,
				"element": "H" 
			},
			{
				"x": 1.892373411,
				"y": -2.3811261851,
				"z": -3.3282373987,
				"element": "H" 
			},
			{
				"x": -0.3901520621,
				"y": 1.9015198671,
				"z": -0.5489984061,
				"element": "H" 
			},
			{
				"x": 1.3509656438,
				"y": 2.2492818126,
				"z": -0.4923620363,
				"element": "H" 
			},
			{
				"x": 0.0075138236,
				"y": 4.2907839753,
				"z": -0.0292845933,
				"element": "H" 
			},
			{
				"x": 1.0322327536,
				"y": 3.8571300005,
				"z": 1.3289376679,
				"element": "H" 
			},
			{
				"x": -1.0666021433,
				"y": 4.3345106304,
				"z": 2.3694856463,
				"element": "H" 
			},
			{
				"x": -1.9989332009,
				"y": 3.5921922891,
				"z": 1.0713297506,
				"element": "H" 
			},
			{
				"x": -1.4835006795,
				"y": 2.3456113201,
				"z": 3.4973365401,
				"element": "H" 
			},
			{
				"x": 0.9184125055,
				"y": 2.1325570546,
				"z": 3.0305741143,
				"element": "H" 
			},
			{
				"x": 0.1510895658,
				"y": 0.5430713151,
				"z": 3.0969323713,
				"element": "H" 
			},
			{
				"x": -2.9907798179,
				"y": -0.465949563,
				"z": 2.1640262787,
				"element": "H" 
			}
		],
		 "valence_orbital": [ 
			{
				"type": "occ",
				"energy": -0.29147,
				"method": "rhf"
			},
			{
				"type": "occ",
				"energy": -0.28409,
				"method": "rhf"
			},
			{
				"type": "occ",
				"energy": -0.26553,
				"method": "rhf"
			},
			{
				"type": "occ",
				"energy": -0.26334,
				"method": "rhf"
			},
			{
				"type": "occ",
				"energy": -0.23846,
				"method": "rhf"
			},
			{
				"type": "unocc",
				"energy": -0.03182,
				"method": "rhf"
			},
			{
				"type": "unocc",
				"energy": -0.01572,
				"method": "rhf"
			},
			{
				"type": "unocc",
				"energy": -0.00146,
				"method": "rhf"
			},
			{
				"type": "unocc",
				"energy": 0.05345,
				"method": "rhf"
			},
			{
				"type": "unocc",
				"energy": 0.06898,
				"method": "rhf"
			}
		],
		"cosmo_sigma_profile": { 
			"-0.025": 0.0,
			"-0.024": 0.0,
			"-0.023": 0.0,
			"-0.022": 0.0,
			"-0.021": 0.0,
			"-0.02": 0.0,
			"-0.019": 0.0228271016943,
			"-0.018": 0.620069439625,
			"-0.017": 1.11139778534,
			"-0.016": 0.589658881563,
			"-0.015": 0.49660041404,
			"-0.014": 0.726545862474,
			"-0.013": 0.554346815037,
			"-0.012": 1.12479567015,
			"-0.011": 0.811932024116,
			"-0.01": 0.542203669314,
			"-0.009": 0.645517625182,
			"-0.008": 0.334265668049,
			"-0.007": 4.50467163468,
			"-0.006": 12.3964104725,
			"-0.005": 23.3593286594,
			"-0.004": 30.9766487536,
			"-0.003": 32.8313914161,
			"-0.002": 29.9084038779,
			"-0.001": 30.2406762903,
			"0.0": 23.3039134415,
			"0.001": 14.8739281289,
			"0.002": 15.7978239875,
			"0.003": 18.8997131983,
			"0.004": 9.99378748561,
			"0.005": 6.0612292636,
			"0.006": 4.3815089718,
			"0.007": 5.4387854376,
			"0.008": 4.93757580629,
			"0.009": 6.1283774896,
			"0.01": 7.58123884621,
			"0.011": 11.819720611,
			"0.012": 8.12714847792,
			"0.013": 0.0841691311987,
			"0.014": 0.0,
			"0.015": 0.0,
			"0.016": 0.0,
			"0.017": 0.0,
			"0.018": 0.0,
			"0.019": 0.0,
			"0.02": 0.0,
			"0.021": 0.0,
			"0.022": 0.0,
			"0.023": 0.0,
			"0.024": 0.0,
			"0.0": 0.0
		}
	}
}
