{
	 "smiles": "NC(=O)N1C2=CC=CC=C2CCC2=CC=CC=C12", 
	 "Tm": 478.15, 
	 "num_atms": 32, 
	 "gaussian": { 
		 "optdone": 1, 
		 "sigma_profile": "yes", 
		 "theory": "DFT", 
		 "functional": "B3LYP", 
		 "basiset": "6-31G**", 
		 "properties": { 
			 "R2extent": 4025.6411, 
			 "electric_dipole_moment_norm": 4.02587122, 
			 "electric_quadrupole_moment_norm": 9.47360944202, 
			 "total_energy": -764.789465686, 
			 "HOMO_LUMO_gap": 0.20057, 
			 "cosmo_polarized_energy": -14.79, 
			 "cosmo_cavitation_energy": 34.11, 
			 "cosmo_dispersion_energy": -24.27, 
			 "cosmo_repulsion_energy": 1.86, 
			 "cosmo_total_nonelectrostatic_energy": 11.7, 
			 "SMD_solvation_energy": 6.2 
		},
		"coords": [
			{
				"x": 0.6994617248,
				"y": -0.8798187122,
				"z": -2.5840046696,
				"element": "N" 
			},
			{
				"x": 0.649137147,
				"y": 0.2680221974,
				"z": -1.8152257686,
				"element": "C" 
			},
			{
				"x": 0.9555622793,
				"y": 1.3620041304,
				"z": -2.2668753509,
				"element": "O" 
			},
			{
				"x": 0.1930964905,
				"y": 0.0824203215,
				"z": -0.5018568117,
				"element": "N" 
			},
			{
				"x": 0.1045431875,
				"y": 1.2131505593,
				"z": 0.3834110629,
				"element": "C" 
			},
			{
				"x": -0.6451024424,
				"y": 2.3215891879,
				"z": -0.0409464791,
				"element": "C" 
			},
			{
				"x": -0.7954998581,
				"y": 3.4380238287,
				"z": 0.7712826979,
				"element": "C" 
			},
			{
				"x": -0.2087719618,
				"y": 3.4521287252,
				"z": 2.0386540646,
				"element": "C" 
			},
			{
				"x": 0.5269835393,
				"y": 2.3515179739,
				"z": 2.4607511944,
				"element": "C" 
			},
			{
				"x": 0.7144531723,
				"y": 1.2170221774,
				"z": 1.6519200413,
				"element": "C" 
			},
			{
				"x": 1.5636001839,
				"y": 0.1009625154,
				"z": 2.250753342,
				"element": "C" 
			},
			{
				"x": 1.889908832,
				"y": -1.123144777,
				"z": 1.3766928956,
				"element": "C" 
			},
			{
				"x": 0.6474839303,
				"y": -1.8451421696,
				"z": 0.9234614807,
				"element": "C" 
			},
			{
				"x": 0.2696423901,
				"y": -3.0984529295,
				"z": 1.4170255788,
				"element": "C" 
			},
			{
				"x": -0.9075427036,
				"y": -3.712672195,
				"z": 0.9858898348,
				"element": "C" 
			},
			{
				"x": -1.7308393413,
				"y": -3.0719701485,
				"z": 0.0577452783,
				"element": "C" 
			},
			{
				"x": -1.3763565278,
				"y": -1.8152719987,
				"z": -0.4339895614,
				"element": "C" 
			},
			{
				"x": -0.1918376691,
				"y": -1.2074603964,
				"z": -0.004891243,
				"element": "C" 
			},
			{
				"x": 0.7461720385,
				"y": -1.787879049,
				"z": -2.1481085803,
				"element": "H" 
			},
			{
				"x": 1.2134688217,
				"y": -0.7571421637,
				"z": -3.4428414235,
				"element": "H" 
			},
			{
				"x": -1.0920858185,
				"y": 2.2954988455,
				"z": -1.0270098028,
				"element": "H" 
			},
			{
				"x": -1.3739684607,
				"y": 4.2874539498,
				"z": 0.4203539526,
				"element": "H" 
			},
			{
				"x": -0.3221458307,
				"y": 4.3136345857,
				"z": 2.69031203,
				"element": "H" 
			},
			{
				"x": 0.9878092316,
				"y": 2.362843996,
				"z": 3.4462073371,
				"element": "H" 
			},
			{
				"x": 2.5092378796,
				"y": 0.5445488537,
				"z": 2.5873270529,
				"element": "H" 
			},
			{
				"x": 1.0628196309,
				"y": -0.2561225847,
				"z": 3.161153975,
				"element": "H" 
			},
			{
				"x": 2.472815283,
				"y": -0.8039906313,
				"z": 0.5046202633,
				"element": "H" 
			},
			{
				"x": 2.5247971861,
				"y": -1.8023182408,
				"z": 1.9554755191,
				"element": "H" 
			},
			{
				"x": 0.9086411042,
				"y": -3.598748732,
				"z": 2.1404655017,
				"element": "H" 
			},
			{
				"x": -1.1821103568,
				"y": -4.6888999853,
				"z": 1.3748939684,
				"element": "H" 
			},
			{
				"x": -2.6502440046,
				"y": -3.5434910888,
				"z": -0.2763252191,
				"element": "H" 
			},
			{
				"x": -2.006029077,
				"y": -1.2977960454,
				"z": -1.1506221614,
				"element": "H" 
			}
		],
		 "valence_orbital": [ 
			{
				"type": "occ",
				"energy": -0.25928,
				"method": "rhf"
			},
			{
				"type": "occ",
				"energy": -0.25267,
				"method": "rhf"
			},
			{
				"type": "occ",
				"energy": -0.24047,
				"method": "rhf"
			},
			{
				"type": "occ",
				"energy": -0.23287,
				"method": "rhf"
			},
			{
				"type": "occ",
				"energy": -0.21815,
				"method": "rhf"
			},
			{
				"type": "unocc",
				"energy": -0.01758,
				"method": "rhf"
			},
			{
				"type": "unocc",
				"energy": -0.01152,
				"method": "rhf"
			},
			{
				"type": "unocc",
				"energy": 0.00538,
				"method": "rhf"
			},
			{
				"type": "unocc",
				"energy": 0.00735,
				"method": "rhf"
			},
			{
				"type": "unocc",
				"energy": 0.06593,
				"method": "rhf"
			}
		],
		"cosmo_sigma_profile": { 
			"-0.025": 0.0,
			"-0.024": 0.0,
			"-0.023": 0.0,
			"-0.022": 0.0,
			"-0.021": 0.0,
			"-0.02": 0.0,
			"-0.019": 0.0,
			"-0.018": 0.0,
			"-0.017": 0.0,
			"-0.016": 0.0,
			"-0.015": 0.0,
			"-0.014": 0.248456502352,
			"-0.013": 1.0661909302,
			"-0.012": 1.99529403484,
			"-0.011": 1.43394591953,
			"-0.01": 1.95380408493,
			"-0.009": 2.0035866883,
			"-0.008": 2.0052773295,
			"-0.007": 1.8849990805,
			"-0.006": 9.38526290018,
			"-0.005": 19.6497001997,
			"-0.004": 28.8679024523,
			"-0.003": 28.9815869223,
			"-0.002": 24.9695171795,
			"-0.001": 20.2763314389,
			"0.0": 16.7229429982,
			"0.001": 14.6189783368,
			"0.002": 16.4489826641,
			"0.003": 15.2541812493,
			"0.004": 15.9990312501,
			"0.005": 14.5458581922,
			"0.006": 9.59156551321,
			"0.007": 2.94260048335,
			"0.008": 2.00767698369,
			"0.009": 2.26386595638,
			"0.01": 1.472714478,
			"0.011": 1.92012398395,
			"0.012": 1.62275323201,
			"0.013": 2.6276419624,
			"0.014": 5.75838226489,
			"0.015": 2.34792287252,
			"0.016": 0.0,
			"0.017": 0.0,
			"0.018": 0.0,
			"0.019": 0.0,
			"0.02": 0.0,
			"0.021": 0.0,
			"0.022": 0.0,
			"0.023": 0.0,
			"0.024": 0.0,
			"0.025": 0.0
		}
	}
}
