{
	 "smiles": "CCCCC(CC)CN1C(=O)C2C3CC(C=C3)C2C1=O", 
	 "Tm": 253.15, 
	 "num_atms": 45, 
	 "gaussian": { 
		 "optdone": 1, 
		 "sigma_profile": "yes", 
		 "theory": "DFT", 
		 "functional": "B3LYP", 
		 "basiset": "6-31G**", 
		 "properties": { 
			 "R2extent": 6327.3299, 
			 "electric_dipole_moment_norm": 2.10015432766, 
			 "electric_quadrupole_moment_norm": 18.6588614599, 
			 "total_energy": -868.097312581, 
			 "HOMO_LUMO_gap": 0.23297, 
			 "cosmo_polarized_energy": -10.74, 
			 "cosmo_cavitation_energy": 43.03, 
			 "cosmo_dispersion_energy": -28.6, 
			 "cosmo_repulsion_energy": 2.2, 
			 "cosmo_total_nonelectrostatic_energy": 16.62, 
			 "SMD_solvation_energy": 6.91 
		},
		"coords": [
			{
				"x": -1.0662365504,
				"y": -1.0622564004,
				"z": -3.0856490989,
				"element": "C" 
			},
			{
				"x": -1.9723440383,
				"y": 0.1108168048,
				"z": -2.6896608315,
				"element": "C" 
			},
			{
				"x": -1.3979699024,
				"y": 1.0080107624,
				"z": -1.5797852377,
				"element": "C" 
			},
			{
				"x": -1.2016562498,
				"y": 0.2920660515,
				"z": -0.2352028636,
				"element": "C" 
			},
			{
				"x": -0.7764817075,
				"y": 1.2040592833,
				"z": 0.9344507671,
				"element": "C" 
			},
			{
				"x": -0.9256279537,
				"y": 0.5053575481,
				"z": 2.3044476739,
				"element": "C" 
			},
			{
				"x": -2.377970243,
				"y": 0.2917602753,
				"z": 2.7481038483,
				"element": "C" 
			},
			{
				"x": 0.6297626288,
				"y": 1.822518069,
				"z": 0.7544087054,
				"element": "C" 
			},
			{
				"x": 1.7582226749,
				"y": 0.8836134229,
				"z": 0.7730568395,
				"element": "N" 
			},
			{
				"x": 2.3291749006,
				"y": 0.3462961427,
				"z": -0.3845039806,
				"element": "C" 
			},
			{
				"x": 1.9237409523,
				"y": 0.5462368754,
				"z": -1.5139421209,
				"element": "O" 
			},
			{
				"x": 3.5359670217,
				"y": -0.4848994745,
				"z": 0.0213130182,
				"element": "C" 
			},
			{
				"x": 3.4058946428,
				"y": -2.0466261025,
				"z": -0.1689850448,
				"element": "C" 
			},
			{
				"x": 4.3681966993,
				"y": -2.5081861716,
				"z": 0.9560934452,
				"element": "C" 
			},
			{
				"x": 3.5552302686,
				"y": -1.8123747926,
				"z": 2.0785123064,
				"element": "C" 
			},
			{
				"x": 2.1624334845,
				"y": -2.3368337264,
				"z": 1.7604838896,
				"element": "C" 
			},
			{
				"x": 2.0738565064,
				"y": -2.4751931362,
				"z": 0.4294125716,
				"element": "C" 
			},
			{
				"x": 3.6373568356,
				"y": -0.3247901309,
				"z": 1.5562795655,
				"element": "C" 
			},
			{
				"x": 2.4812427193,
				"y": 0.5871826299,
				"z": 1.9359775908,
				"element": "C" 
			},
			{
				"x": 2.2183392134,
				"y": 1.0197594243,
				"z": 3.0406885974,
				"element": "O" 
			},
			{
				"x": -0.0587326716,
				"y": -0.7131755405,
				"z": -3.3358110672,
				"element": "H" 
			},
			{
				"x": -1.468911542,
				"y": -1.5951091125,
				"z": -3.9537932404,
				"element": "H" 
			},
			{
				"x": -0.9685361185,
				"y": -1.7908683297,
				"z": -2.2735846271,
				"element": "H" 
			},
			{
				"x": -2.9547753048,
				"y": -0.2728666068,
				"z": -2.3797537778,
				"element": "H" 
			},
			{
				"x": -2.1566507847,
				"y": 0.7322427025,
				"z": -3.5755239392,
				"element": "H" 
			},
			{
				"x": -2.0760229507,
				"y": 1.8605790466,
				"z": -1.4310355128,
				"element": "H" 
			},
			{
				"x": -0.4404646695,
				"y": 1.4150016212,
				"z": -1.922225194,
				"element": "H" 
			},
			{
				"x": -2.1451189047,
				"y": -0.1992958383,
				"z": 0.0353251542,
				"element": "H" 
			},
			{
				"x": -0.4629246983,
				"y": -0.511357754,
				"z": -0.3419726458,
				"element": "H" 
			},
			{
				"x": -1.4504387337,
				"y": 2.0760390305,
				"z": 0.938037976,
				"element": "H" 
			},
			{
				"x": -0.4034591464,
				"y": 1.0955490774,
				"z": 3.0647566299,
				"element": "H" 
			},
			{
				"x": -0.4062084407,
				"y": -0.4614740113,
				"z": 2.2717752903,
				"element": "H" 
			},
			{
				"x": -2.9141667529,
				"y": 1.2457295521,
				"z": 2.8144193293,
				"element": "H" 
			},
			{
				"x": -2.9356379523,
				"y": -0.3528663619,
				"z": 2.0611323234,
				"element": "H" 
			},
			{
				"x": -2.4158477522,
				"y": -0.1766302342,
				"z": 3.7371171455,
				"element": "H" 
			},
			{
				"x": 0.8157463828,
				"y": 2.5318391103,
				"z": 1.5656921756,
				"element": "H" 
			},
			{
				"x": 0.6906754224,
				"y": 2.3542403153,
				"z": -0.1979945451,
				"element": "H" 
			},
			{
				"x": 4.4116412622,
				"y": -0.1154035657,
				"z": -0.519980991,
				"element": "H" 
			},
			{
				"x": 3.61207047,
				"y": -2.3802267469,
				"z": -1.1862885597,
				"element": "H" 
			},
			{
				"x": 5.3883752558,
				"y": -2.1221233872,
				"z": 0.8480414096,
				"element": "H" 
			},
			{
				"x": 4.3956558183,
				"y": -3.595354329,
				"z": 1.0675510084,
				"element": "H" 
			},
			{
				"x": 3.8974269836,
				"y": -1.9326592747,
				"z": 3.1066868303,
				"element": "H" 
			},
			{
				"x": 1.3727582756,
				"y": -2.4716744093,
				"z": 2.4909938674,
				"element": "H" 
			},
			{
				"x": 1.1971312385,
				"y": -2.7459630103,
				"z": -0.1480795869,
				"element": "H" 
			},
			{
				"x": 4.5706834106,
				"y": 0.1367107019,
				"z": 1.8913149061,
				"element": "H" 
			}
		],
		 "valence_orbital": [ 
			{
				"type": "occ",
				"energy": -0.29501,
				"method": "rhf"
			},
			{
				"type": "occ",
				"energy": -0.27567,
				"method": "rhf"
			},
			{
				"type": "occ",
				"energy": -0.26838,
				"method": "rhf"
			},
			{
				"type": "occ",
				"energy": -0.25523,
				"method": "rhf"
			},
			{
				"type": "occ",
				"energy": -0.2543,
				"method": "rhf"
			},
			{
				"type": "unocc",
				"energy": -0.02133,
				"method": "rhf"
			},
			{
				"type": "unocc",
				"energy": -8e-05,
				"method": "rhf"
			},
			{
				"type": "unocc",
				"energy": 0.02086,
				"method": "rhf"
			},
			{
				"type": "unocc",
				"energy": 0.07603,
				"method": "rhf"
			},
			{
				"type": "unocc",
				"energy": 0.09465,
				"method": "rhf"
			}
		],
		"cosmo_sigma_profile": { 
			"-0.025": 0.0,
			"-0.024": 0.0,
			"-0.023": 0.0,
			"-0.022": 0.0,
			"-0.021": 0.0,
			"-0.02": 0.0,
			"-0.019": 0.0,
			"-0.018": 0.0,
			"-0.017": 0.0,
			"-0.016": 0.0,
			"-0.015": 0.0,
			"-0.014": 0.0,
			"-0.013": 0.0,
			"-0.012": 0.0,
			"-0.011": 0.0,
			"-0.01": 0.0,
			"-0.009": 0.0,
			"-0.008": 0.00294716486129,
			"-0.007": 2.71689441703,
			"-0.006": 10.5238464054,
			"-0.005": 16.5349036862,
			"-0.004": 18.9154144002,
			"-0.003": 30.1576300994,
			"-0.002": 44.9027440028,
			"-0.001": 44.2239441662,
			"0.0": 48.8909454921,
			"0.001": 41.5991437095,
			"0.002": 23.7513240973,
			"0.003": 6.42971685911,
			"0.004": 5.6125778476,
			"0.005": 6.53831820926,
			"0.006": 7.16102627026,
			"0.007": 4.1721337715,
			"0.008": 2.99717206864,
			"0.009": 3.14160199313,
			"0.01": 2.74269933854,
			"0.011": 4.60506523435,
			"0.012": 5.6393232144,
			"0.013": 2.32083047539,
			"0.014": 0.163518186876,
			"0.015": 0.0,
			"0.016": 0.0,
			"0.017": 0.0,
			"0.018": 0.0,
			"0.019": 0.0,
			"0.02": 0.0,
			"0.021": 0.0,
			"0.022": 0.0,
			"0.023": 0.0,
			"0.024": 0.0,
			"0.025": 0.0
		}
	}
}
