{
	 "smiles": "NC1=C(CC2=CC=C(F)C=C2)C(N)=NN1", 
	 "Tm": 433.15, 
	 "num_atms": 26, 
	 "gaussian": { 
		 "optdone": 1, 
		 "sigma_profile": "yes", 
		 "theory": "DFT", 
		 "functional": "B3LYP", 
		 "basiset": "6-31G**", 
		 "properties": { 
			 "R2extent": 3976.0916, 
			 "electric_dipole_moment_norm": 1.73364504441, 
			 "electric_quadrupole_moment_norm": 17.6281760628, 
			 "total_energy": -706.516221942, 
			 "HOMO_LUMO_gap": 0.17633, 
			 "cosmo_polarized_energy": -18.09, 
			 "cosmo_cavitation_energy": 30.6, 
			 "cosmo_dispersion_energy": -21.61, 
			 "cosmo_repulsion_energy": 1.7, 
			 "cosmo_total_nonelectrostatic_energy": 10.69, 
			 "SMD_solvation_energy": 4.26 
		},
		"coords": [
			{
				"x": 0.1015858071,
				"y": 2.0875949483,
				"z": -2.2844893198,
				"element": "N" 
			},
			{
				"x": -0.0272079033,
				"y": 0.7037110632,
				"z": -2.4048299502,
				"element": "C" 
			},
			{
				"x": 0.5971025565,
				"y": -0.327288675,
				"z": -1.7114279744,
				"element": "C" 
			},
			{
				"x": 1.5906633214,
				"y": -0.2103621635,
				"z": -0.5879099632,
				"element": "C" 
			},
			{
				"x": 1.1427651292,
				"y": 0.6492248646,
				"z": 0.5889579105,
				"element": "C" 
			},
			{
				"x": -0.125388332,
				"y": 0.4821757391,
				"z": 1.1676112155,
				"element": "C" 
			},
			{
				"x": -0.5264333565,
				"y": 1.240740337,
				"z": 2.2656185184,
				"element": "C" 
			},
			{
				"x": 0.3543810912,
				"y": 2.1847667355,
				"z": 2.7851192814,
				"element": "C" 
			},
			{
				"x": -0.0307448198,
				"y": 2.9273210675,
				"z": 3.8455626197,
				"element": "F" 
			},
			{
				"x": 1.613688882,
				"y": 2.3880266887,
				"z": 2.2371832879,
				"element": "C" 
			},
			{
				"x": 1.997668977,
				"y": 1.6139138409,
				"z": 1.1388686786,
				"element": "C" 
			},
			{
				"x": 0.1192263631,
				"y": -1.5046400757,
				"z": -2.3599189578,
				"element": "C" 
			},
			{
				"x": 0.5038990038,
				"y": -2.8221611854,
				"z": -2.0745725385,
				"element": "N" 
			},
			{
				"x": -0.7266464104,
				"y": -1.2455190355,
				"z": -3.3493408103,
				"element": "N" 
			},
			{
				"x": -0.8069002061,
				"y": 0.1282095359,
				"z": -3.354459146,
				"element": "N" 
			},
			{
				"x": -0.7703265378,
				"y": 2.5882098094,
				"z": -2.417507656,
				"element": "H" 
			},
			{
				"x": 0.5097509492,
				"y": 2.3483659711,
				"z": -1.3941811312,
				"element": "H" 
			},
			{
				"x": 2.5482589603,
				"y": 0.1830457661,
				"z": -0.9564779591,
				"element": "H" 
			},
			{
				"x": 1.8231570495,
				"y": -1.2202820541,
				"z": -0.2254660371,
				"element": "H" 
			},
			{
				"x": -0.8095763821,
				"y": -0.2466005183,
				"z": 0.74218051,
				"element": "H" 
			},
			{
				"x": -1.5036581875,
				"y": 1.1141660604,
				"z": 2.7195982532,
				"element": "H" 
			},
			{
				"x": 2.271800915,
				"y": 3.1368380621,
				"z": 2.6648314443,
				"element": "H" 
			},
			{
				"x": 2.9841479483,
				"y": 1.7613607832,
				"z": 0.7061631324,
				"element": "H" 
			},
			{
				"x": -0.0563810417,
				"y": -3.4763215111,
				"z": -2.6102015344,
				"element": "H" 
			},
			{
				"x": 0.4431377646,
				"y": -3.0481860456,
				"z": -1.0879900375,
				"element": "H" 
			},
			{
				"x": -1.2700715408,
				"y": 0.5860899911,
				"z": -4.1221218364,
				"element": "H" 
			}
		],
		 "valence_orbital": [ 
			{
				"type": "occ",
				"energy": -0.27231,
				"method": "rhf"
			},
			{
				"type": "occ",
				"energy": -0.26337,
				"method": "rhf"
			},
			{
				"type": "occ",
				"energy": -0.24195,
				"method": "rhf"
			},
			{
				"type": "occ",
				"energy": -0.2034,
				"method": "rhf"
			},
			{
				"type": "occ",
				"energy": -0.1917,
				"method": "rhf"
			},
			{
				"type": "unocc",
				"energy": -0.01537,
				"method": "rhf"
			},
			{
				"type": "unocc",
				"energy": -0.00168,
				"method": "rhf"
			},
			{
				"type": "unocc",
				"energy": 0.04345,
				"method": "rhf"
			},
			{
				"type": "unocc",
				"energy": 0.07082,
				"method": "rhf"
			},
			{
				"type": "unocc",
				"energy": 0.07573,
				"method": "rhf"
			}
		],
		"cosmo_sigma_profile": { 
			"-0.025": 0.0,
			"-0.024": 0.0,
			"-0.023": 0.0,
			"-0.022": 0.0,
			"-0.021": 0.0,
			"-0.02": 0.0,
			"-0.019": 0.0,
			"-0.018": 0.0,
			"-0.017": 0.0,
			"-0.016": 0.16540461143,
			"-0.015": 1.70780056665,
			"-0.014": 1.50982326693,
			"-0.013": 3.1947232026,
			"-0.012": 3.07323845914,
			"-0.011": 4.04951483394,
			"-0.01": 4.62847456236,
			"-0.009": 5.29449684965,
			"-0.008": 6.08538228703,
			"-0.007": 6.75716520824,
			"-0.006": 10.3020924067,
			"-0.005": 13.0178394605,
			"-0.004": 16.6919512879,
			"-0.003": 12.2904223677,
			"-0.002": 12.2518813475,
			"-0.001": 11.4859399105,
			"0.0": 12.7776108323,
			"0.001": 15.9750106433,
			"0.002": 16.5188187892,
			"0.003": 14.5373703717,
			"0.004": 18.9119206614,
			"0.005": 13.9355504205,
			"0.006": 5.51754928924,
			"0.007": 4.82938510546,
			"0.008": 4.33095235378,
			"0.009": 3.77829345351,
			"0.01": 3.68892848387,
			"0.011": 1.80189241157,
			"0.012": 1.89669607455,
			"0.013": 2.90381613229,
			"0.014": 3.36236845575,
			"0.015": 2.41530287754,
			"0.016": 1.46661674033,
			"0.017": 0.965257120259,
			"0.018": 0.517418861568,
			"0.019": 0.0,
			"0.02": 0.0,
			"0.021": 0.0,
			"0.022": 0.0,
			"0.023": 0.0,
			"0.024": 0.0,
			"0.025": 0.0
		}
	}
}
