{
	 "smiles": "CC(=O)OCC1=C(NC=C1)C=O", 
	 "Tm": 333.15, 
	 "num_atms": 21, 
	 "gaussian": { 
		 "optdone": 1, 
		 "sigma_profile": "yes", 
		 "theory": "DFT", 
		 "functional": "B3LYP", 
		 "basiset": "6-31G**", 
		 "properties": { 
			 "R2extent": 3032.7868, 
			 "electric_dipole_moment_norm": 1.21115565886, 
			 "electric_quadrupole_moment_norm": 20.4943626929, 
			 "total_energy": -590.698167926, 
			 "HOMO_LUMO_gap": 0.18034, 
			 "cosmo_polarized_energy": -13.31, 
			 "cosmo_cavitation_energy": 26.1, 
			 "cosmo_dispersion_energy": -18.61, 
			 "cosmo_repulsion_energy": 1.51, 
			 "cosmo_total_nonelectrostatic_energy": 9.0, 
			 "SMD_solvation_energy": 7.0 
		},
		"coords": [
			{
				"x": -0.3205474931,
				"y": -2.5963222413,
				"z": -1.6597973359,
				"element": "C" 
			},
			{
				"x": 0.29503534,
				"y": -1.3151277205,
				"z": -1.1496793014,
				"element": "C" 
			},
			{
				"x": 1.3001397734,
				"y": -0.7972330441,
				"z": -1.5884347122,
				"element": "O" 
			},
			{
				"x": -0.4332070596,
				"y": -0.8100215546,
				"z": -0.1264584328,
				"element": "O" 
			},
			{
				"x": 0.0443284463,
				"y": 0.4386151329,
				"z": 0.4494196138,
				"element": "C" 
			},
			{
				"x": -0.4845385333,
				"y": 1.6364971009,
				"z": -0.2762561894,
				"element": "C" 
			},
			{
				"x": -1.6087163726,
				"y": 2.3955909928,
				"z": 0.0737862182,
				"element": "C" 
			},
			{
				"x": -1.7389826759,
				"y": 3.3948603239,
				"z": -0.8639567396,
				"element": "N" 
			},
			{
				"x": -0.7486249412,
				"y": 3.2947411614,
				"z": -1.7903584796,
				"element": "C" 
			},
			{
				"x": 0.0501971403,
				"y": 2.2107780416,
				"z": -1.4557595658,
				"element": "C" 
			},
			{
				"x": -2.5648490859,
				"y": 2.3156782726,
				"z": 1.1578408649,
				"element": "C" 
			},
			{
				"x": -3.4974336389,
				"y": 3.1021880698,
				"z": 1.2833691699,
				"element": "O" 
			},
			{
				"x": -0.4811261484,
				"y": -3.2968866527,
				"z": -0.8359280764,
				"element": "H" 
			},
			{
				"x": 0.3331955888,
				"y": -3.0387589945,
				"z": -2.4107410761,
				"element": "H" 
			},
			{
				"x": -1.2986178463,
				"y": -2.3827872279,
				"z": -2.1021787362,
				"element": "H" 
			},
			{
				"x": -0.3035393167,
				"y": 0.4068718107,
				"z": 1.4830238831,
				"element": "H" 
			},
			{
				"x": 1.1359109287,
				"y": 0.43053734,
				"z": 0.4333397929,
				"element": "H" 
			},
			{
				"x": -2.4818776924,
				"y": 4.0775109398,
				"z": -0.8129327478,
				"element": "H" 
			},
			{
				"x": -0.6742782842,
				"y": 3.9908075933,
				"z": -2.6133152651,
				"element": "H" 
			},
			{
				"x": 0.9154166533,
				"y": 1.855942455,
				"z": -1.9960968322,
				"element": "H" 
			},
			{
				"x": -2.4084847825,
				"y": 1.4895182008,
				"z": 1.8798139477,
				"element": "H" 
			}
		],
		 "valence_orbital": [ 
			{
				"type": "occ",
				"energy": -0.30472,
				"method": "rhf"
			},
			{
				"type": "occ",
				"energy": -0.27592,
				"method": "rhf"
			},
			{
				"type": "occ",
				"energy": -0.25936,
				"method": "rhf"
			},
			{
				"type": "occ",
				"energy": -0.25587,
				"method": "rhf"
			},
			{
				"type": "occ",
				"energy": -0.23346,
				"method": "rhf"
			},
			{
				"type": "unocc",
				"energy": -0.05312,
				"method": "rhf"
			},
			{
				"type": "unocc",
				"energy": 0.01009,
				"method": "rhf"
			},
			{
				"type": "unocc",
				"energy": 0.04427,
				"method": "rhf"
			},
			{
				"type": "unocc",
				"energy": 0.07811,
				"method": "rhf"
			},
			{
				"type": "unocc",
				"energy": 0.08455,
				"method": "rhf"
			}
		],
		"cosmo_sigma_profile": { 
			"-0.025": 0.0,
			"-0.024": 0.0,
			"-0.023": 0.0,
			"-0.022": 0.0,
			"-0.021": 0.0,
			"-0.02": 0.0,
			"-0.019": 0.0,
			"-0.018": 0.0,
			"-0.017": 0.0,
			"-0.016": 0.295411784281,
			"-0.015": 1.26841011277,
			"-0.014": 0.610287279817,
			"-0.013": 0.981011017957,
			"-0.012": 0.995487557678,
			"-0.011": 0.939099136167,
			"-0.01": 0.844519901355,
			"-0.009": 2.37785219933,
			"-0.008": 5.54130861194,
			"-0.007": 7.79600997795,
			"-0.006": 11.7846597585,
			"-0.005": 13.1097941727,
			"-0.004": 16.4171588001,
			"-0.003": 16.0363098634,
			"-0.002": 16.8021218448,
			"-0.001": 14.686247197,
			"0.0": 10.8215351661,
			"0.001": 11.3089534771,
			"0.002": 9.43476307745,
			"0.003": 12.476701196,
			"0.004": 9.95054545887,
			"0.005": 8.51589856507,
			"0.006": 3.91887064619,
			"0.007": 3.23656825292,
			"0.008": 4.34345893967,
			"0.009": 3.52794195253,
			"0.01": 3.93183300557,
			"0.011": 5.21144995662,
			"0.012": 6.78589129925,
			"0.013": 3.34787255789,
			"0.014": 0.596474694099,
			"0.015": 0.0,
			"0.016": 0.0,
			"0.017": 0.0,
			"0.018": 0.0,
			"0.019": 0.0,
			"0.02": 0.0,
			"0.021": 0.0,
			"0.022": 0.0,
			"0.023": 0.0,
			"0.024": 0.0,
			"0.025": 0.0
		}
	}
}
