{
	 "smiles": "CC(C)(C(O)C1=CC=CC=C1)C(O)=O", 
	 "Tm": 409.15, 
	 "num_atms": 28, 
	 "gaussian": { 
		 "optdone": 1, 
		 "sigma_profile": "yes", 
		 "theory": "DFT", 
		 "functional": "B3LYP", 
		 "basiset": "6-31G**", 
		 "properties": { 
			 "R2extent": 3546.9567, 
			 "electric_dipole_moment_norm": 6.02539702426, 
			 "electric_quadrupole_moment_norm": 19.8401934668, 
			 "total_energy": -653.296039136, 
			 "HOMO_LUMO_gap": 0.22632, 
			 "cosmo_polarized_energy": -15.28, 
			 "cosmo_cavitation_energy": 29.76, 
			 "cosmo_dispersion_energy": -21.11, 
			 "cosmo_repulsion_energy": 1.64, 
			 "cosmo_total_nonelectrostatic_energy": 10.29, 
			 "SMD_solvation_energy": 6.28 
		},
		"coords": [
			{
				"x": 0.1426065005,
				"y": -1.7682435323,
				"z": 0.0609091288,
				"element": "C" 
			},
			{
				"x": -0.1925582841,
				"y": -1.2166567535,
				"z": -1.3335421353,
				"element": "C" 
			},
			{
				"x": -1.6142269813,
				"y": -0.6087138804,
				"z": -1.3276421333,
				"element": "C" 
			},
			{
				"x": 0.8857295696,
				"y": -0.1678233227,
				"z": -1.7650474539,
				"element": "C" 
			},
			{
				"x": 0.4692093867,
				"y": 0.3667083192,
				"z": -3.0423818366,
				"element": "O" 
			},
			{
				"x": 1.1397736562,
				"y": 0.9647796216,
				"z": -0.7849395354,
				"element": "C" 
			},
			{
				"x": 0.3523325383,
				"y": 2.1252171933,
				"z": -0.7998403045,
				"element": "C" 
			},
			{
				"x": 0.6001098345,
				"y": 3.161982372,
				"z": 0.1010518924,
				"element": "C" 
			},
			{
				"x": 1.6394001502,
				"y": 3.0559533065,
				"z": 1.0269651823,
				"element": "C" 
			},
			{
				"x": 2.4369377043,
				"y": 1.9100659164,
				"z": 1.041120973,
				"element": "C" 
			},
			{
				"x": 2.1914013216,
				"y": 0.8763773509,
				"z": 0.1371196929,
				"element": "C" 
			},
			{
				"x": -0.2124179409,
				"y": -2.4166741192,
				"z": -2.3274503254,
				"element": "C" 
			},
			{
				"x": -0.0863491004,
				"y": -2.1257304233,
				"z": -3.6357369088,
				"element": "O" 
			},
			{
				"x": -0.3792468191,
				"y": -3.558058143,
				"z": -1.9627899275,
				"element": "O" 
			},
			{
				"x": 1.161003482,
				"y": -2.1685314437,
				"z": 0.1015864248,
				"element": "H" 
			},
			{
				"x": -0.5349603707,
				"y": -2.5899172347,
				"z": 0.2954474837,
				"element": "H" 
			},
			{
				"x": 0.0451506449,
				"y": -0.9902866132,
				"z": 0.8217044019,
				"element": "H" 
			},
			{
				"x": -2.338573157,
				"y": -1.3800564531,
				"z": -1.0509557234,
				"element": "H" 
			},
			{
				"x": -1.8918922776,
				"y": -0.2121319544,
				"z": -2.3070471733,
				"element": "H" 
			},
			{
				"x": -1.6824012805,
				"y": 0.199570872,
				"z": -0.5940426507,
				"element": "H" 
			},
			{
				"x": 1.8284715457,
				"y": -0.7196689327,
				"z": -1.8982398805,
				"element": "H" 
			},
			{
				"x": 1.1617058418,
				"y": 0.9595351051,
				"z": -3.3641351949,
				"element": "H" 
			},
			{
				"x": -0.4442966555,
				"y": 2.217853517,
				"z": -1.5305391293,
				"element": "H" 
			},
			{
				"x": -0.0182786712,
				"y": 4.0547534252,
				"z": 0.0766768648,
				"element": "H" 
			},
			{
				"x": 1.8324360711,
				"y": 3.8640409961,
				"z": 1.7264514936,
				"element": "H" 
			},
			{
				"x": 3.2563178899,
				"y": 1.8241244285,
				"z": 1.7488945259,
				"element": "H" 
			},
			{
				"x": 2.8243144141,
				"y": -0.0073626721,
				"z": 0.1457841352,
				"element": "H" 
			},
			{
				"x": 0.0670009867,
				"y": -1.1613069454,
				"z": -3.7376818866,
				"element": "H" 
			}
		],
		 "valence_orbital": [ 
			{
				"type": "occ",
				"energy": -0.30977,
				"method": "rhf"
			},
			{
				"type": "occ",
				"energy": -0.29408,
				"method": "rhf"
			},
			{
				"type": "occ",
				"energy": -0.26444,
				"method": "rhf"
			},
			{
				"type": "occ",
				"energy": -0.26193,
				"method": "rhf"
			},
			{
				"type": "occ",
				"energy": -0.24821,
				"method": "rhf"
			},
			{
				"type": "unocc",
				"energy": -0.02189,
				"method": "rhf"
			},
			{
				"type": "unocc",
				"energy": -0.01665,
				"method": "rhf"
			},
			{
				"type": "unocc",
				"energy": 0.02552,
				"method": "rhf"
			},
			{
				"type": "unocc",
				"energy": 0.05262,
				"method": "rhf"
			},
			{
				"type": "unocc",
				"energy": 0.07919,
				"method": "rhf"
			}
		],
		"cosmo_sigma_profile": { 
			"-0.025": 0.0,
			"-0.024": 0.0,
			"-0.023": 0.0,
			"-0.022": 0.0,
			"-0.021": 0.0,
			"-0.02": 0.0,
			"-0.019": 0.0,
			"-0.018": 0.00890057327889,
			"-0.017": 0.83304827523,
			"-0.016": 1.036401879,
			"-0.015": 0.971411288446,
			"-0.014": 0.563768701729,
			"-0.013": 1.19068907163,
			"-0.012": 0.683779283982,
			"-0.011": 0.924051099058,
			"-0.01": 1.23485049267,
			"-0.009": 0.503506565114,
			"-0.008": 1.24382312256,
			"-0.007": 4.14038531756,
			"-0.006": 12.3153937606,
			"-0.005": 15.5999456073,
			"-0.004": 17.8960880531,
			"-0.003": 21.4028119185,
			"-0.002": 22.3405958923,
			"-0.001": 19.7089065324,
			"0.0": 19.9435071175,
			"0.001": 15.6431549002,
			"0.002": 10.6531105352,
			"0.003": 10.0602014506,
			"0.004": 10.2923246532,
			"0.005": 10.3938625943,
			"0.006": 6.16882343984,
			"0.007": 2.27523917592,
			"0.008": 3.55577028248,
			"0.009": 2.43080437159,
			"0.01": 3.33769052958,
			"0.011": 5.19420298968,
			"0.012": 6.28580434937,
			"0.013": 3.65261274961,
			"0.014": 1.22319756622,
			"0.015": 0.0,
			"0.016": 0.0,
			"0.017": 0.0,
			"0.018": 0.0,
			"0.019": 0.0,
			"0.02": 0.0,
			"0.021": 0.0,
			"0.022": 0.0,
			"0.023": 0.0,
			"0.024": 0.0,
			"0.025": 0.0
		}
	}
}
