{
	 "smiles": "C1CSC2=C(N1)C=CC=C2", 
	 "Tm": 309.15, 
	 "num_atms": 19, 
	 "gaussian": { 
		 "optdone": 1, 
		 "sigma_profile": "yes", 
		 "theory": "DFT", 
		 "functional": "B3LYP", 
		 "basiset": "6-31G**", 
		 "properties": { 
			 "R2extent": 2001.9089, 
			 "electric_dipole_moment_norm": 2.68726631542, 
			 "electric_quadrupole_moment_norm": 6.68296735665, 
			 "total_energy": -763.214376018, 
			 "HOMO_LUMO_gap": 0.19048, 
			 "cosmo_polarized_energy": -8.57, 
			 "cosmo_cavitation_energy": 22.72, 
			 "cosmo_dispersion_energy": -18.05, 
			 "cosmo_repulsion_energy": 1.4, 
			 "cosmo_total_nonelectrostatic_energy": 6.06, 
			 "SMD_solvation_energy": 2.22 
		},
		"coords": [
			{
				"x": -0.6121293488,
				"y": -0.1369737,
				"z": 1.1909589622,
				"element": "C" 
			},
			{
				"x": 0.0693732866,
				"y": 1.1568739066,
				"z": 0.7517987377,
				"element": "C" 
			},
			{
				"x": 0.012534794,
				"y": 1.3468881111,
				"z": -1.0679549555,
				"element": "S" 
			},
			{
				"x": 0.4214601311,
				"y": -0.3191977191,
				"z": -1.5741611523,
				"element": "C" 
			},
			{
				"x": 0.3875040026,
				"y": -1.4218973102,
				"z": -0.6911470711,
				"element": "C" 
			},
			{
				"x": 0.1126176318,
				"y": -1.2856883425,
				"z": 0.672289236,
				"element": "N" 
			},
			{
				"x": 0.700540049,
				"y": -2.6941968581,
				"z": -1.203539036,
				"element": "C" 
			},
			{
				"x": 1.028137795,
				"y": -2.878945814,
				"z": -2.5422134544,
				"element": "C" 
			},
			{
				"x": 1.0563249001,
				"y": -1.7864145888,
				"z": -3.4115175681,
				"element": "C" 
			},
			{
				"x": 0.7609359161,
				"y": -0.5180731324,
				"z": -2.9176072957,
				"element": "C" 
			},
			{
				"x": -1.6672992379,
				"y": -0.1148055789,
				"z": 0.876107664,
				"element": "H" 
			},
			{
				"x": -0.5925426812,
				"y": -0.2005261129,
				"z": 2.2852258863,
				"element": "H" 
			},
			{
				"x": 1.1058018027,
				"y": 1.1751107186,
				"z": 1.0981784067,
				"element": "H" 
			},
			{
				"x": -0.4544531998,
				"y": 2.0265105925,
				"z": 1.1564570957,
				"element": "H" 
			},
			{
				"x": -0.1170608266,
				"y": -2.1590660615,
				"z": 1.1250412374,
				"element": "H" 
			},
			{
				"x": 0.6830654464,
				"y": -3.5453299232,
				"z": -0.525707861,
				"element": "H" 
			},
			{
				"x": 1.2603616521,
				"y": -3.8764377693,
				"z": -2.9036680499,
				"element": "H" 
			},
			{
				"x": 1.3121029448,
				"y": -1.916170069,
				"z": -4.4583040525,
				"element": "H" 
			},
			{
				"x": 0.791224942,
				"y": 0.3421396512,
				"z": -3.5812367293,
				"element": "H" 
			}
		],
		 "valence_orbital": [ 
			{
				"type": "occ",
				"energy": -0.31059,
				"method": "rhf"
			},
			{
				"type": "occ",
				"energy": -0.29347,
				"method": "rhf"
			},
			{
				"type": "occ",
				"energy": -0.27613,
				"method": "rhf"
			},
			{
				"type": "occ",
				"energy": -0.21619,
				"method": "rhf"
			},
			{
				"type": "occ",
				"energy": -0.18576,
				"method": "rhf"
			},
			{
				"type": "unocc",
				"energy": 0.00472,
				"method": "rhf"
			},
			{
				"type": "unocc",
				"energy": 0.01489,
				"method": "rhf"
			},
			{
				"type": "unocc",
				"energy": 0.04083,
				"method": "rhf"
			},
			{
				"type": "unocc",
				"energy": 0.07647,
				"method": "rhf"
			},
			{
				"type": "unocc",
				"energy": 0.07999,
				"method": "rhf"
			}
		],
		"cosmo_sigma_profile": { 
			"-0.025": 0.0,
			"-0.024": 0.0,
			"-0.023": 0.0,
			"-0.022": 0.0,
			"-0.021": 0.0,
			"-0.02": 0.0,
			"-0.019": 0.0,
			"-0.018": 0.0,
			"-0.017": 0.0,
			"-0.016": 0.0,
			"-0.015": 0.0,
			"-0.014": 0.0,
			"-0.013": 0.509461225333,
			"-0.012": 1.47891829808,
			"-0.011": 1.498372992,
			"-0.01": 1.29221244232,
			"-0.009": 1.45748722183,
			"-0.008": 1.8083356326,
			"-0.007": 2.57512584317,
			"-0.006": 8.08626104475,
			"-0.005": 14.5982484567,
			"-0.004": 17.0118019624,
			"-0.003": 18.7551143595,
			"-0.002": 15.407975515,
			"-0.001": 9.63089466249,
			"0.0": 8.02098536441,
			"0.001": 7.79362812244,
			"0.002": 8.46159751608,
			"0.003": 9.11039009491,
			"0.004": 9.57960774916,
			"0.005": 12.747173565,
			"0.006": 13.6357994262,
			"0.007": 10.1283918987,
			"0.008": 3.5162665687,
			"0.009": 2.93920689694,
			"0.01": 1.64837433999,
			"0.011": 0.370042485855,
			"0.012": 0.0207061174592,
			"0.013": 0.0,
			"0.014": 0.0,
			"0.015": 0.0,
			"0.016": 0.0,
			"0.017": 0.0,
			"0.018": 0.0,
			"0.019": 0.0,
			"0.02": 0.0,
			"0.021": 0.0,
			"0.022": 0.0,
			"0.023": 0.0,
			"0.024": 0.0,
			"0.025": 0.0
		}
	}
}
