{
	 "smiles": "CC1=CC(OCC(O)=O)=NO1", 
	 "Tm": 397.15, 
	 "num_atms": 18, 
	 "gaussian": { 
		 "optdone": 1, 
		 "sigma_profile": "yes", 
		 "theory": "DFT", 
		 "functional": "B3LYP", 
		 "basiset": "6-31G**", 
		 "properties": { 
			 "R2extent": 2386.4673, 
			 "electric_dipole_moment_norm": 2.6189113368, 
			 "electric_quadrupole_moment_norm": 20.1627381657, 
			 "total_energy": -588.443110139, 
			 "HOMO_LUMO_gap": 0.23797, 
			 "cosmo_polarized_energy": -17.03, 
			 "cosmo_cavitation_energy": 23.22, 
			 "cosmo_dispersion_energy": -16.98, 
			 "cosmo_repulsion_energy": 1.39, 
			 "cosmo_total_nonelectrostatic_energy": 7.63, 
			 "SMD_solvation_energy": 5.65 
		},
		"coords": [
			{
				"x": -2.8771988408,
				"y": -0.2179919319,
				"z": -1.9727362576,
				"element": "C" 
			},
			{
				"x": -1.4875799462,
				"y": 0.2879194442,
				"z": -1.8006899914,
				"element": "C" 
			},
			{
				"x": -0.2998608258,
				"y": -0.3172383886,
				"z": -1.5085338005,
				"element": "C" 
			},
			{
				"x": 0.6192913422,
				"y": 0.7738844186,
				"z": -1.4958802659,
				"element": "C" 
			},
			{
				"x": 1.9565609811,
				"y": 0.7764903378,
				"z": -1.2397700594,
				"element": "O" 
			},
			{
				"x": 2.5918996262,
				"y": -0.5004476584,
				"z": -1.1609408205,
				"element": "C" 
			},
			{
				"x": 2.4744995649,
				"y": -1.1287292882,
				"z": 0.2324566423,
				"element": "C" 
			},
			{
				"x": 2.1851395441,
				"y": -0.2632729674,
				"z": 1.2204553295,
				"element": "O" 
			},
			{
				"x": 2.6683436983,
				"y": -2.3026063369,
				"z": 0.4239287697,
				"element": "O" 
			},
			{
				"x": 0.0534896236,
				"y": 1.9300808358,
				"z": -1.7553894072,
				"element": "N" 
			},
			{
				"x": -1.2973852954,
				"y": 1.6147625093,
				"z": -1.9475330898,
				"element": "O" 
			},
			{
				"x": -3.5539671863,
				"y": 0.255291999,
				"z": -1.2540063312,
				"element": "H" 
			},
			{
				"x": -2.9070591127,
				"y": -1.2985640318,
				"z": -1.8216205994,
				"element": "H" 
			},
			{
				"x": -3.2508298526,
				"y": 0.0063000159,
				"z": -2.9771831831,
				"element": "H" 
			},
			{
				"x": -0.1217321643,
				"y": -1.3633466859,
				"z": -1.3159426001,
				"element": "H" 
			},
			{
				"x": 3.6506438287,
				"y": -0.3210710288,
				"z": -1.3696556572,
				"element": "H" 
			},
			{
				"x": 2.2082957811,
				"y": -1.2005730745,
				"z": -1.9068592129,
				"element": "H" 
			},
			{
				"x": 2.0670492341,
				"y": 0.6217118317,
				"z": 0.8327005348,
				"element": "H" 
			}
		],
		 "valence_orbital": [ 
			{
				"type": "occ",
				"energy": -0.32707,
				"method": "rhf"
			},
			{
				"type": "occ",
				"energy": -0.31521,
				"method": "rhf"
			},
			{
				"type": "occ",
				"energy": -0.29453,
				"method": "rhf"
			},
			{
				"type": "occ",
				"energy": -0.27692,
				"method": "rhf"
			},
			{
				"type": "occ",
				"energy": -0.26088,
				"method": "rhf"
			},
			{
				"type": "unocc",
				"energy": -0.02291,
				"method": "rhf"
			},
			{
				"type": "unocc",
				"energy": -0.00425,
				"method": "rhf"
			},
			{
				"type": "unocc",
				"energy": 0.05531,
				"method": "rhf"
			},
			{
				"type": "unocc",
				"energy": 0.06046,
				"method": "rhf"
			},
			{
				"type": "unocc",
				"energy": 0.07783,
				"method": "rhf"
			}
		],
		"cosmo_sigma_profile": { 
			"-0.025": 0.0,
			"-0.024": 0.0,
			"-0.023": 0.0,
			"-0.022": 0.0,
			"-0.021": 0.0,
			"-0.02": 0.0,
			"-0.019": 0.0,
			"-0.018": 0.0,
			"-0.017": 0.262591495412,
			"-0.016": 0.650747169252,
			"-0.015": 0.356143027775,
			"-0.014": 0.610085317935,
			"-0.013": 1.20696111623,
			"-0.012": 1.37008878897,
			"-0.011": 1.53892323776,
			"-0.01": 4.8171845876,
			"-0.009": 6.99981065707,
			"-0.008": 6.72080888348,
			"-0.007": 8.89662415986,
			"-0.006": 12.6453167733,
			"-0.005": 10.4571213165,
			"-0.004": 10.211268062,
			"-0.003": 12.1315817988,
			"-0.002": 13.2100428267,
			"-0.001": 8.29556310898,
			"0.0": 8.2554237799,
			"0.001": 6.85126555607,
			"0.002": 4.74892875698,
			"0.003": 4.41015918363,
			"0.004": 5.17706617621,
			"0.005": 4.21389815495,
			"0.006": 5.59368107117,
			"0.007": 6.91680380041,
			"0.008": 9.7569515207,
			"0.009": 7.83312528821,
			"0.01": 5.25455001951,
			"0.011": 7.42484824955,
			"0.012": 5.24209041112,
			"0.013": 1.80424749129,
			"0.014": 1.16306267011,
			"0.015": 0.0335526816518,
			"0.016": 0.0,
			"0.017": 0.0,
			"0.018": 0.0,
			"0.019": 0.0,
			"0.02": 0.0,
			"0.021": 0.0,
			"0.022": 0.0,
			"0.023": 0.0,
			"0.024": 0.0,
			"0.025": 0.0
		}
	}
}
