{
	 "smiles": "[O-][N+](=O)C1=CC=CC(=C1)C(=O)CBr", 
	 "Tm": 367.15, 
	 "num_atms": 19, 
	 "gaussian": { 
		 "optdone": 1, 
		 "sigma_profile": "yes", 
		 "theory": "DFT", 
		 "functional": "B3LYP", 
		 "basiset": "6-31G**", 
		 "properties": { 
			 "R2extent": 5296.3014, 
			 "electric_dipole_moment_norm": 5.1807887247, 
			 "electric_quadrupole_moment_norm": 11.8301930563, 
			 "total_energy": -3160.18862514, 
			 "HOMO_LUMO_gap": 0.17511, 
			 "cosmo_polarized_energy": -12.77, 
			 "cosmo_cavitation_energy": 26.94, 
			 "cosmo_dispersion_energy": -19.82, 
			 "cosmo_repulsion_energy": 1.57, 
			 "cosmo_total_nonelectrostatic_energy": 8.69, 
			 "SMD_solvation_energy": 6.39 
		},
		"coords": [
			{
				"x": 3.1890533254,
				"y": 1.6126783129,
				"z": -0.1188480086,
				"element": "O" 
			},
			{
				"x": 2.6697110313,
				"y": 0.7823185965,
				"z": 0.6224769802,
				"element": "N" 
			},
			{
				"x": 3.2827469055,
				"y": 0.0041152634,
				"z": 1.3516981735,
				"element": "O" 
			},
			{
				"x": 1.1952944643,
				"y": 0.711183289,
				"z": 0.6420238804,
				"element": "C" 
			},
			{
				"x": 0.5796981512,
				"y": -0.221206929,
				"z": 1.4778093814,
				"element": "C" 
			},
			{
				"x": -0.8115634076,
				"y": -0.2837247271,
				"z": 1.492230323,
				"element": "C" 
			},
			{
				"x": -1.5633082526,
				"y": 0.5729656824,
				"z": 0.6860776777,
				"element": "C" 
			},
			{
				"x": -0.9292307707,
				"y": 1.5078641501,
				"z": -0.1473380682,
				"element": "C" 
			},
			{
				"x": 0.4707120028,
				"y": 1.5732581328,
				"z": -0.16822807,
				"element": "C" 
			},
			{
				"x": -1.6724994304,
				"y": 2.4771089855,
				"z": -1.0156365944,
				"element": "C" 
			},
			{
				"x": -1.0803601834,
				"y": 3.2748308162,
				"z": -1.72123308,
				"element": "O" 
			},
			{
				"x": -3.1963518833,
				"y": 2.5096906461,
				"z": -0.9898118135,
				"element": "C" 
			},
			{
				"x": -3.954114738,
				"y": 0.9379725418,
				"z": -1.9237245196,
				"element": "Br" 
			},
			{
				"x": 1.1912443653,
				"y": -0.8715597197,
				"z": 2.0906682202,
				"element": "H" 
			},
			{
				"x": -1.3119161199,
				"y": -1.0045746917,
				"z": 2.1304403722,
				"element": "H" 
			},
			{
				"x": -2.6444774014,
				"y": 0.4924386244,
				"z": 0.6958939751,
				"element": "H" 
			},
			{
				"x": 0.9722889744,
				"y": 2.2896338373,
				"z": -0.8064991348,
				"element": "H" 
			},
			{
				"x": -3.5343994034,
				"y": 3.3843990039,
				"z": -1.5393267035,
				"element": "H" 
			},
			{
				"x": -3.6107276296,
				"y": 2.4948081853,
				"z": 0.0182270087,
				"element": "H" 
			}
		],
		 "valence_orbital": [ 
			{
				"type": "occ",
				"energy": -0.30294,
				"method": "rhf"
			},
			{
				"type": "occ",
				"energy": -0.29983,
				"method": "rhf"
			},
			{
				"type": "occ",
				"energy": -0.29356,
				"method": "rhf"
			},
			{
				"type": "occ",
				"energy": -0.29018,
				"method": "rhf"
			},
			{
				"type": "occ",
				"energy": -0.27669,
				"method": "rhf"
			},
			{
				"type": "unocc",
				"energy": -0.10158,
				"method": "rhf"
			},
			{
				"type": "unocc",
				"energy": -0.09081,
				"method": "rhf"
			},
			{
				"type": "unocc",
				"energy": -0.03289,
				"method": "rhf"
			},
			{
				"type": "unocc",
				"energy": -0.01636,
				"method": "rhf"
			},
			{
				"type": "unocc",
				"energy": 0.03225,
				"method": "rhf"
			}
		],
		"cosmo_sigma_profile": { 
			"-0.025": 0.0,
			"-0.024": 0.0,
			"-0.023": 0.0,
			"-0.022": 0.0,
			"-0.021": 0.0,
			"-0.02": 0.0,
			"-0.019": 0.0,
			"-0.018": 0.0,
			"-0.017": 0.0,
			"-0.016": 0.0,
			"-0.015": 0.0,
			"-0.014": 0.0,
			"-0.013": 0.0,
			"-0.012": 0.0,
			"-0.011": 0.334098470695,
			"-0.01": 2.49035279669,
			"-0.009": 4.56148897105,
			"-0.008": 8.35449780787,
			"-0.007": 11.7575649263,
			"-0.006": 10.5657230555,
			"-0.005": 10.1381314253,
			"-0.004": 10.6862318051,
			"-0.003": 11.5291667976,
			"-0.002": 17.5354058858,
			"-0.001": 20.0871359015,
			"0.0": 18.5417851771,
			"0.001": 13.9412765927,
			"0.002": 9.32413199839,
			"0.003": 9.91166238282,
			"0.004": 12.388079004,
			"0.005": 9.65885064183,
			"0.006": 6.30961653456,
			"0.007": 10.8460810505,
			"0.008": 7.71924882882,
			"0.009": 6.20227176692,
			"0.01": 4.90302530779,
			"0.011": 1.88291663946,
			"0.012": 0.154592253898,
			"0.013": 0.0,
			"0.014": 0.0,
			"0.015": 0.0,
			"0.016": 0.0,
			"0.017": 0.0,
			"0.018": 0.0,
			"0.019": 0.0,
			"0.02": 0.0,
			"0.021": 0.0,
			"0.022": 0.0,
			"0.023": 0.0,
			"0.024": 0.0,
			"0.025": 0.0
		}
	}
}
