{
	 "smiles": "COC1=C(C=C(/C#N)C2=NC3=C(C=CC=C3)N2C)C=CC=C1", 
	 "Tm": 499.15, 
	 "num_atms": 37, 
	 "gaussian": { 
		 "optdone": 1, 
		 "sigma_profile": "yes", 
		 "theory": "DFT", 
		 "functional": "B3LYP", 
		 "basiset": "6-31G**", 
		 "properties": { 
			 "R2extent": 8817.5418, 
			 "electric_dipole_moment_norm": 2.0291747633, 
			 "electric_quadrupole_moment_norm": 21.2951891642, 
			 "total_energy": -934.40309532, 
			 "HOMO_LUMO_gap": 0.13384, 
			 "cosmo_polarized_energy": -15.18, 
			 "cosmo_cavitation_energy": 41.56, 
			 "cosmo_dispersion_energy": -29.19, 
			 "cosmo_repulsion_energy": 2.17, 
			 "cosmo_total_nonelectrostatic_energy": 14.55, 
			 "SMD_solvation_energy": 6.53 
		},
		"coords": [
			{
				"x": -0.4298169689,
				"y": -3.1113304121,
				"z": -3.9626407008,
				"element": "C" 
			},
			{
				"x": 0.2309879255,
				"y": -2.1866397071,
				"z": -3.1082593538,
				"element": "O" 
			},
			{
				"x": 1.5689506387,
				"y": -2.0187157795,
				"z": -3.2144553212,
				"element": "C" 
			},
			{
				"x": 2.1810106338,
				"y": -1.2018012563,
				"z": -2.2255875548,
				"element": "C" 
			},
			{
				"x": 1.4989064483,
				"y": -0.6197099265,
				"z": -1.0758008984,
				"element": "C" 
			},
			{
				"x": 0.4787292764,
				"y": -1.0736085506,
				"z": -0.2904995555,
				"element": "C" 
			},
			{
				"x": -0.1208191017,
				"y": -2.3655459745,
				"z": -0.4321319408,
				"element": "C" 
			},
			{
				"x": -0.6185079066,
				"y": -3.4178837068,
				"z": -0.4706058654,
				"element": "N" 
			},
			{
				"x": -0.0257305223,
				"y": -0.1825576597,
				"z": 0.7738851963,
				"element": "C" 
			},
			{
				"x": 0.0693912067,
				"y": 1.1309995261,
				"z": 0.6859488296,
				"element": "N" 
			},
			{
				"x": -0.491756666,
				"y": 1.6182352295,
				"z": 1.8469986328,
				"element": "C" 
			},
			{
				"x": -0.9472267481,
				"y": 0.5484441435,
				"z": 2.6540036969,
				"element": "C" 
			},
			{
				"x": -1.5681848773,
				"y": 0.7568738878,
				"z": 3.8889931585,
				"element": "C" 
			},
			{
				"x": -1.7188132582,
				"y": 2.0784873632,
				"z": 4.3008352134,
				"element": "C" 
			},
			{
				"x": -1.270474948,
				"y": 3.1556721172,
				"z": 3.5078360071,
				"element": "C" 
			},
			{
				"x": -0.6570725502,
				"y": 2.9420794316,
				"z": 2.2790914961,
				"element": "C" 
			},
			{
				"x": -0.6302784837,
				"y": -0.6046816655,
				"z": 1.9521941946,
				"element": "N" 
			},
			{
				"x": -0.8139860402,
				"y": -1.956014944,
				"z": 2.4673935903,
				"element": "C" 
			},
			{
				"x": 3.5459620887,
				"y": -0.8910466132,
				"z": -2.3837837665,
				"element": "C" 
			},
			{
				"x": 4.3092457238,
				"y": -1.4233178953,
				"z": -3.4167326712,
				"element": "C" 
			},
			{
				"x": 3.6986741636,
				"y": -2.2669973292,
				"z": -4.3458676531,
				"element": "C" 
			},
			{
				"x": 2.3372972851,
				"y": -2.5563337569,
				"z": -4.2547125848,
				"element": "C" 
			},
			{
				"x": 0.0082751354,
				"y": -4.1124776678,
				"z": -3.8805961895,
				"element": "H" 
			},
			{
				"x": -0.399864367,
				"y": -2.7802699141,
				"z": -5.0080769611,
				"element": "H" 
			},
			{
				"x": -1.4631687297,
				"y": -3.1433168592,
				"z": -3.6180305998,
				"element": "H" 
			},
			{
				"x": 1.8981041383,
				"y": 0.3385330462,
				"z": -0.7511267117,
				"element": "H" 
			},
			{
				"x": -1.9271482564,
				"y": -0.0637699458,
				"z": 4.5022673643,
				"element": "H" 
			},
			{
				"x": -2.1977087077,
				"y": 2.28445643,
				"z": 5.2535397272,
				"element": "H" 
			},
			{
				"x": -1.4117772087,
				"y": 4.170394936,
				"z": 3.8680191082,
				"element": "H" 
			},
			{
				"x": -0.3109497996,
				"y": 3.7645445537,
				"z": 1.6614941265,
				"element": "H" 
			},
			{
				"x": -0.8446188882,
				"y": -1.9058571391,
				"z": 3.5575065454,
				"element": "H" 
			},
			{
				"x": -1.7388461292,
				"y": -2.4095327082,
				"z": 2.1004677008,
				"element": "H" 
			},
			{
				"x": 0.0217860232,
				"y": -2.5918282113,
				"z": 2.1767143681,
				"element": "H" 
			},
			{
				"x": 4.0096956625,
				"y": -0.2346669666,
				"z": -1.6523232172,
				"element": "H" 
			},
			{
				"x": 5.3640233442,
				"y": -1.1822952249,
				"z": -3.4983481193,
				"element": "H" 
			},
			{
				"x": 4.2774280945,
				"y": -2.6930927511,
				"z": -5.1603227481,
				"element": "H" 
			},
			{
				"x": 1.8734823692,
				"y": -3.1869280993,
				"z": -5.0032865431,
				"element": "H" 
			}
		],
		 "valence_orbital": [ 
			{
				"type": "occ",
				"energy": -0.27059,
				"method": "rhf"
			},
			{
				"type": "occ",
				"energy": -0.25403,
				"method": "rhf"
			},
			{
				"type": "occ",
				"energy": -0.23347,
				"method": "rhf"
			},
			{
				"type": "occ",
				"energy": -0.2216,
				"method": "rhf"
			},
			{
				"type": "occ",
				"energy": -0.20723,
				"method": "rhf"
			},
			{
				"type": "unocc",
				"energy": -0.07339,
				"method": "rhf"
			},
			{
				"type": "unocc",
				"energy": -0.00831,
				"method": "rhf"
			},
			{
				"type": "unocc",
				"energy": -0.00176,
				"method": "rhf"
			},
			{
				"type": "unocc",
				"energy": 0.01514,
				"method": "rhf"
			},
			{
				"type": "unocc",
				"energy": 0.0239,
				"method": "rhf"
			}
		],
		"cosmo_sigma_profile": { 
			"-0.025": 0.0,
			"-0.024": 0.0,
			"-0.023": 0.0,
			"-0.022": 0.0,
			"-0.021": 0.0,
			"-0.02": 0.0,
			"-0.019": 0.0,
			"-0.018": 0.0,
			"-0.017": 0.0,
			"-0.016": 0.0,
			"-0.015": 0.0,
			"-0.014": 0.0,
			"-0.013": 0.0,
			"-0.012": 0.0,
			"-0.011": 0.0,
			"-0.01": 0.0,
			"-0.009": 0.00245062808883,
			"-0.008": 2.36132455351,
			"-0.007": 10.1824409524,
			"-0.006": 24.0597259569,
			"-0.005": 30.4055336057,
			"-0.004": 32.018573532,
			"-0.003": 30.3461481422,
			"-0.002": 18.2381009832,
			"-0.001": 21.1078354779,
			"0.0": 19.3525225591,
			"0.001": 19.872593403,
			"0.002": 22.1639241104,
			"0.003": 21.9470959552,
			"0.004": 23.962881803,
			"0.005": 19.2512477161,
			"0.006": 11.9608506194,
			"0.007": 4.65788146701,
			"0.008": 4.47134346483,
			"0.009": 3.46800010432,
			"0.01": 3.07255230872,
			"0.011": 3.17390449333,
			"0.012": 3.33318311705,
			"0.013": 2.37630838892,
			"0.014": 0.774553980936,
			"0.015": 1.00959134301,
			"0.016": 0.298276891721,
			"0.017": 0.0,
			"0.018": 0.0,
			"0.019": 0.0,
			"0.02": 0.0,
			"0.021": 0.0,
			"0.022": 0.0,
			"0.023": 0.0,
			"0.024": 0.0,
			"0.025": 0.0
		}
	}
}
