{
	 "smiles": "CC(=O)C(CC1=CC=CC=C1)=CN", 
	 "Tm": 368.15, 
	 "num_atms": 26, 
	 "gaussian": { 
		 "optdone": 1, 
		 "sigma_profile": "yes", 
		 "theory": "DFT", 
		 "functional": "B3LYP", 
		 "basiset": "6-31G**", 
		 "properties": { 
			 "R2extent": 2884.6205, 
			 "electric_dipole_moment_norm": 5.46613282129, 
			 "electric_quadrupole_moment_norm": 18.2443093887, 
			 "total_energy": -556.971514284, 
			 "HOMO_LUMO_gap": 0.1823, 
			 "cosmo_polarized_energy": -16.55, 
			 "cosmo_cavitation_energy": 29.14, 
			 "cosmo_dispersion_energy": -20.87, 
			 "cosmo_repulsion_energy": 1.66, 
			 "cosmo_total_nonelectrostatic_energy": 9.93, 
			 "SMD_solvation_energy": 5.61 
		},
		"coords": [
			{
				"x": 0.3685854586,
				"y": 2.6230164824,
				"z": -2.2580146102,
				"element": "C" 
			},
			{
				"x": 0.7543967596,
				"y": 1.5708569167,
				"z": -1.221276226,
				"element": "C" 
			},
			{
				"x": 1.533348599,
				"y": 0.6796485514,
				"z": -1.5611541559,
				"element": "O" 
			},
			{
				"x": 0.2201211202,
				"y": 1.6253494373,
				"z": 0.1484995699,
				"element": "C" 
			},
			{
				"x": 0.6871129859,
				"y": 0.5153608157,
				"z": 1.0889935339,
				"element": "C" 
			},
			{
				"x": -0.1753338065,
				"y": -0.7381091066,
				"z": 1.0584360651,
				"element": "C" 
			},
			{
				"x": -0.0602257283,
				"y": -1.6703750339,
				"z": 0.0159935101,
				"element": "C" 
			},
			{
				"x": -0.8663366354,
				"y": -2.8086411698,
				"z": -0.0119984342,
				"element": "C" 
			},
			{
				"x": -1.8009943054,
				"y": -3.0390199209,
				"z": 1.000527261,
				"element": "C" 
			},
			{
				"x": -1.921014399,
				"y": -2.121436078,
				"z": 2.0446448107,
				"element": "C" 
			},
			{
				"x": -1.1130211287,
				"y": -0.9826481387,
				"z": 2.070164309,
				"element": "C" 
			},
			{
				"x": -0.6493206816,
				"y": 2.5530296589,
				"z": 0.6451178751,
				"element": "C" 
			},
			{
				"x": -1.291083729,
				"y": 3.6066920561,
				"z": 0.0553536991,
				"element": "N" 
			},
			{
				"x": 0.8901367032,
				"y": 2.3909241266,
				"z": -3.1874111258,
				"element": "H" 
			},
			{
				"x": -0.7112407281,
				"y": 2.6172620375,
				"z": -2.4506619807,
				"element": "H" 
			},
			{
				"x": 0.6629161991,
				"y": 3.6308257391,
				"z": -1.9375010371,
				"element": "H" 
			},
			{
				"x": 0.7118479488,
				"y": 0.8998171051,
				"z": 2.1149474333,
				"element": "H" 
			},
			{
				"x": 1.7129378694,
				"y": 0.2543004584,
				"z": 0.814670846,
				"element": "H" 
			},
			{
				"x": 0.6643619608,
				"y": -1.4880863584,
				"z": -0.7713132929,
				"element": "H" 
			},
			{
				"x": -0.7613545799,
				"y": -3.52115505,
				"z": -0.8260235549,
				"element": "H" 
			},
			{
				"x": -2.4253812951,
				"y": -3.9279170955,
				"z": 0.9783252959,
				"element": "H" 
			},
			{
				"x": -2.638774211,
				"y": -2.2930390833,
				"z": 2.842574868,
				"element": "H" 
			},
			{
				"x": -1.2068352942,
				"y": -0.2777698266,
				"z": 2.8939968606,
				"element": "H" 
			},
			{
				"x": -0.9352417385,
				"y": 2.4416496464,
				"z": 1.6896508911,
				"element": "H" 
			},
			{
				"x": -1.7359942186,
				"y": 4.2842119153,
				"z": 0.6521186408,
				"element": "H" 
			},
			{
				"x": -1.0381131254,
				"y": 3.927051915,
				"z": -0.8635610521,
				"element": "H" 
			}
		],
		 "valence_orbital": [ 
			{
				"type": "occ",
				"energy": -0.31987,
				"method": "rhf"
			},
			{
				"type": "occ",
				"energy": -0.2377,
				"method": "rhf"
			},
			{
				"type": "occ",
				"energy": -0.23412,
				"method": "rhf"
			},
			{
				"type": "occ",
				"energy": -0.22588,
				"method": "rhf"
			},
			{
				"type": "occ",
				"energy": -0.21208,
				"method": "rhf"
			},
			{
				"type": "unocc",
				"energy": -0.02978,
				"method": "rhf"
			},
			{
				"type": "unocc",
				"energy": 0.0134,
				"method": "rhf"
			},
			{
				"type": "unocc",
				"energy": 0.01475,
				"method": "rhf"
			},
			{
				"type": "unocc",
				"energy": 0.05968,
				"method": "rhf"
			},
			{
				"type": "unocc",
				"energy": 0.0729,
				"method": "rhf"
			}
		],
		"cosmo_sigma_profile": { 
			"-0.025": 0.0,
			"-0.024": 0.0,
			"-0.023": 0.0,
			"-0.022": 0.0,
			"-0.021": 0.0,
			"-0.02": 0.0,
			"-0.019": 0.0,
			"-0.018": 0.0,
			"-0.017": 0.0,
			"-0.016": 0.0,
			"-0.015": 0.178625303274,
			"-0.014": 1.76780952606,
			"-0.013": 2.25840067834,
			"-0.012": 2.29252635374,
			"-0.011": 3.26969365219,
			"-0.01": 2.71327692249,
			"-0.009": 2.89541671721,
			"-0.008": 3.60714840906,
			"-0.007": 4.42921091976,
			"-0.006": 6.19609438662,
			"-0.005": 14.8354434012,
			"-0.004": 16.5167458057,
			"-0.003": 17.1190080039,
			"-0.002": 17.4817643299,
			"-0.001": 16.8440524589,
			"0.0": 15.1349624958,
			"0.001": 13.5957555533,
			"0.002": 13.248992578,
			"0.003": 12.5245421096,
			"0.004": 13.8541128269,
			"0.005": 13.0816855787,
			"0.006": 12.4120391786,
			"0.007": 8.82732441323,
			"0.008": 3.15114634585,
			"0.009": 1.22678040466,
			"0.01": 1.42173789072,
			"0.011": 1.51342870683,
			"0.012": 2.11274999976,
			"0.013": 2.50459939562,
			"0.014": 2.43649812847,
			"0.015": 1.19086346639,
			"0.016": 0.0406055263397,
			"0.017": 0.0,
			"0.018": 0.0,
			"0.019": 0.0,
			"0.02": 0.0,
			"0.021": 0.0,
			"0.022": 0.0,
			"0.023": 0.0,
			"0.024": 0.0,
			"0.025": 0.0
		}
	}
}
