{
	 "smiles": "[O-][N+](=O)NC(=O)C1=CC=CC=C1", 
	 "Tm": 416.15, 
	 "num_atms": 18, 
	 "gaussian": { 
		 "optdone": 1, 
		 "sigma_profile": "yes", 
		 "theory": "DFT", 
		 "functional": "B3LYP", 
		 "basiset": "6-31G**", 
		 "properties": { 
			 "R2extent": 3482.1151, 
			 "electric_dipole_moment_norm": 6.06993890414, 
			 "electric_quadrupole_moment_norm": 15.2765104085, 
			 "total_energy": -605.414407666, 
			 "HOMO_LUMO_gap": 0.19399, 
			 "cosmo_polarized_energy": -15.04, 
			 "cosmo_cavitation_energy": 23.94, 
			 "cosmo_dispersion_energy": -17.53, 
			 "cosmo_repulsion_energy": 1.4, 
			 "cosmo_total_nonelectrostatic_energy": 7.82, 
			 "SMD_solvation_energy": 7.42 
		},
		"coords": [
			{
				"x": 2.0699626933,
				"y": -3.9395061745,
				"z": 0.3942769344,
				"element": "O" 
			},
			{
				"x": 1.0466000171,
				"y": -3.3505243259,
				"z": 0.6722949952,
				"element": "N" 
			},
			{
				"x": -0.042163534,
				"y": -3.8277203521,
				"z": 0.982740815,
				"element": "O" 
			},
			{
				"x": 1.0442110742,
				"y": -1.9440419555,
				"z": 0.5994895689,
				"element": "N" 
			},
			{
				"x": 2.1862919885,
				"y": -1.1274359135,
				"z": 0.805109637,
				"element": "C" 
			},
			{
				"x": 3.2919934979,
				"y": -1.5660688518,
				"z": 1.027645459,
				"element": "O" 
			},
			{
				"x": 1.8668448767,
				"y": 0.3336001529,
				"z": 0.7400290208,
				"element": "C" 
			},
			{
				"x": 0.7451959703,
				"y": 0.8525401129,
				"z": 0.0754878254,
				"element": "C" 
			},
			{
				"x": 0.5247668004,
				"y": 2.2292896493,
				"z": 0.0501311374,
				"element": "C" 
			},
			{
				"x": 1.4181680642,
				"y": 3.0927240926,
				"z": 0.6872111423,
				"element": "C" 
			},
			{
				"x": 2.5426460709,
				"y": 2.5801322864,
				"z": 1.3403705808,
				"element": "C" 
			},
			{
				"x": 2.7706733429,
				"y": 1.2071993111,
				"z": 1.3620989152,
				"element": "C" 
			},
			{
				"x": 0.1262437408,
				"y": -1.6018001098,
				"z": 0.8538145439,
				"element": "H" 
			},
			{
				"x": 0.0633148612,
				"y": 0.1946804029,
				"z": -0.4551554549,
				"element": "H" 
			},
			{
				"x": -0.3386858178,
				"y": 2.6271605253,
				"z": -0.4741279034,
				"element": "H" 
			},
			{
				"x": 1.242484681,
				"y": 4.1642801465,
				"z": 0.6682744818,
				"element": "H" 
			},
			{
				"x": 3.2411656215,
				"y": 3.2516936106,
				"z": 1.8301448392,
				"element": "H" 
			},
			{
				"x": 3.6417860509,
				"y": 0.7879973925,
				"z": 1.853963462,
				"element": "H" 
			}
		],
		 "valence_orbital": [ 
			{
				"type": "occ",
				"energy": -0.31766,
				"method": "rhf"
			},
			{
				"type": "occ",
				"energy": -0.30589,
				"method": "rhf"
			},
			{
				"type": "occ",
				"energy": -0.28452,
				"method": "rhf"
			},
			{
				"type": "occ",
				"energy": -0.28057,
				"method": "rhf"
			},
			{
				"type": "occ",
				"energy": -0.27558,
				"method": "rhf"
			},
			{
				"type": "unocc",
				"energy": -0.08159,
				"method": "rhf"
			},
			{
				"type": "unocc",
				"energy": -0.04805,
				"method": "rhf"
			},
			{
				"type": "unocc",
				"energy": -0.02951,
				"method": "rhf"
			},
			{
				"type": "unocc",
				"energy": 0.03199,
				"method": "rhf"
			},
			{
				"type": "unocc",
				"energy": 0.06511,
				"method": "rhf"
			}
		],
		"cosmo_sigma_profile": { 
			"-0.025": 0.0,
			"-0.024": 0.0,
			"-0.023": 0.0,
			"-0.022": 0.0,
			"-0.021": 0.0,
			"-0.02": 0.0,
			"-0.019": 0.0,
			"-0.018": 0.0,
			"-0.017": 0.660486588825,
			"-0.016": 0.980563287767,
			"-0.015": 1.16373945431,
			"-0.014": 1.3845241356,
			"-0.013": 1.38094785572,
			"-0.012": 1.05511773077,
			"-0.011": 0.843338680699,
			"-0.01": 1.37858489671,
			"-0.009": 2.66943293917,
			"-0.008": 2.64966773543,
			"-0.007": 7.04886487493,
			"-0.006": 13.9996573449,
			"-0.005": 13.1473808849,
			"-0.004": 12.0728602684,
			"-0.003": 11.1693858367,
			"-0.002": 10.503719377,
			"-0.001": 8.87194100583,
			"0.0": 9.62288582445,
			"0.001": 10.821489539,
			"0.002": 12.855212105,
			"0.003": 14.8546994437,
			"0.004": 7.09014012645,
			"0.005": 4.90386422279,
			"0.006": 7.45666577026,
			"0.007": 12.5183534193,
			"0.008": 6.71807927088,
			"0.009": 3.85167134081,
			"0.01": 4.08761875931,
			"0.011": 4.14061404556,
			"0.012": 1.93797255824,
			"0.013": 0.570966684769,
			"0.014": 0.0,
			"0.015": 0.0,
			"0.016": 0.0,
			"0.017": 0.0,
			"0.018": 0.0,
			"0.019": 0.0,
			"0.02": 0.0,
			"0.021": 0.0,
			"0.022": 0.0,
			"0.023": 0.0,
			"0.024": 0.0,
			"0.025": 0.0
		}
	}
}
