{
	 "smiles": "OC(=O)CNC(=O)C1=CC=C(C=C1)C(F)(F)F", 
	 "Tm": 428.15, 
	 "num_atms": 25, 
	 "gaussian": { 
		 "optdone": 1, 
		 "sigma_profile": "yes", 
		 "theory": "DFT", 
		 "functional": "B3LYP", 
		 "basiset": "6-31G**", 
		 "properties": { 
			 "R2extent": 6610.1491, 
			 "electric_dipole_moment_norm": 4.72791062733, 
			 "electric_quadrupole_moment_norm": 11.0013407378, 
			 "total_energy": -965.858902244, 
			 "HOMO_LUMO_gap": 0.20194, 
			 "cosmo_polarized_energy": -18.04, 
			 "cosmo_cavitation_energy": 31.93, 
			 "cosmo_dispersion_energy": -22.22, 
			 "cosmo_repulsion_energy": 1.69, 
			 "cosmo_total_nonelectrostatic_energy": 11.4, 
			 "SMD_solvation_energy": 8.22 
		},
		"coords": [
			{
				"x": -0.1082809606,
				"y": 2.8891656694,
				"z": 2.5253637496,
				"element": "O" 
			},
			{
				"x": -0.5911669344,
				"y": 2.4825056944,
				"z": 1.3306709224,
				"element": "C" 
			},
			{
				"x": -1.6885984774,
				"y": 2.7771251439,
				"z": 0.9179060938,
				"element": "O" 
			},
			{
				"x": 0.4254333205,
				"y": 1.5879696784,
				"z": 0.624698374,
				"element": "C" 
			},
			{
				"x": 0.2032323107,
				"y": 1.4627484962,
				"z": -0.7957166893,
				"element": "N" 
			},
			{
				"x": -0.1379995135,
				"y": 0.3376223984,
				"z": -1.515478678,
				"element": "C" 
			},
			{
				"x": 0.0924083871,
				"y": 0.2725816735,
				"z": -2.7164387913,
				"element": "O" 
			},
			{
				"x": -0.8229648576,
				"y": -0.7930315559,
				"z": -0.7983420489,
				"element": "C" 
			},
			{
				"x": -1.8578740636,
				"y": -0.5849243289,
				"z": 0.1239778448,
				"element": "C" 
			},
			{
				"x": -2.5148030474,
				"y": -1.6747426609,
				"z": 0.6944976345,
				"element": "C" 
			},
			{
				"x": -2.1351901972,
				"y": -2.9744839114,
				"z": 0.3534687232,
				"element": "C" 
			},
			{
				"x": -1.1126708787,
				"y": -3.1880866753,
				"z": -0.5771333038,
				"element": "C" 
			},
			{
				"x": -0.4708562575,
				"y": -2.1007118393,
				"z": -1.1599941555,
				"element": "C" 
			},
			{
				"x": -2.8723619043,
				"y": -4.1507974674,
				"z": 0.9372185171,
				"element": "C" 
			},
			{
				"x": -3.374708848,
				"y": -3.8726365735,
				"z": 2.1606185011,
				"element": "F" 
			},
			{
				"x": -3.9140320671,
				"y": -4.5212125943,
				"z": 0.1582717829,
				"element": "F" 
			},
			{
				"x": -2.0712072757,
				"y": -5.2319651968,
				"z": 1.0621551759,
				"element": "F" 
			},
			{
				"x": -0.8101915568,
				"y": 3.413887837,
				"z": 2.9465551733,
				"element": "H" 
			},
			{
				"x": 1.4284396886,
				"y": 1.9785709945,
				"z": 0.82970632,
				"element": "H" 
			},
			{
				"x": 0.3761022579,
				"y": 0.6037523182,
				"z": 1.10057067,
				"element": "H" 
			},
			{
				"x": 0.6019254325,
				"y": 2.1801048668,
				"z": -1.3880428674,
				"element": "H" 
			},
			{
				"x": -2.169576924,
				"y": 0.4251917318,
				"z": 0.3700111942,
				"element": "H" 
			},
			{
				"x": -3.3193847707,
				"y": -1.51617042,
				"z": 1.4043368021,
				"element": "H" 
			},
			{
				"x": -0.8253454262,
				"y": -4.2003001863,
				"z": -0.8403853549,
				"element": "H" 
			},
			{
				"x": 0.3050725636,
				"y": -2.2482630922,
				"z": -1.90349559,
				"element": "H" 
			}
		],
		 "valence_orbital": [ 
			{
				"type": "occ",
				"energy": -0.30231,
				"method": "rhf"
			},
			{
				"type": "occ",
				"energy": -0.28077,
				"method": "rhf"
			},
			{
				"type": "occ",
				"energy": -0.27443,
				"method": "rhf"
			},
			{
				"type": "occ",
				"energy": -0.27007,
				"method": "rhf"
			},
			{
				"type": "occ",
				"energy": -0.25457,
				"method": "rhf"
			},
			{
				"type": "unocc",
				"energy": -0.05263,
				"method": "rhf"
			},
			{
				"type": "unocc",
				"energy": -0.02394,
				"method": "rhf"
			},
			{
				"type": "unocc",
				"energy": -0.01367,
				"method": "rhf"
			},
			{
				"type": "unocc",
				"energy": 0.03252,
				"method": "rhf"
			},
			{
				"type": "unocc",
				"energy": 0.05875,
				"method": "rhf"
			}
		],
		"cosmo_sigma_profile": { 
			"-0.025": 0.0,
			"-0.024": 0.0,
			"-0.023": 0.0,
			"-0.022": 0.0,
			"-0.021": 0.0,
			"-0.02": 0.0,
			"-0.019": 0.209170996357,
			"-0.018": 1.10354910955,
			"-0.017": 0.742450385993,
			"-0.016": 1.3701562393,
			"-0.015": 0.825722981621,
			"-0.014": 1.96908094577,
			"-0.013": 1.94519373746,
			"-0.012": 1.75813470601,
			"-0.011": 1.93628796038,
			"-0.01": 2.0901900717,
			"-0.009": 2.91072395441,
			"-0.008": 6.6641198522,
			"-0.007": 10.2715302715,
			"-0.006": 11.6828225218,
			"-0.005": 13.1738262432,
			"-0.004": 11.9534356376,
			"-0.003": 11.6878016697,
			"-0.002": 12.4345543889,
			"-0.001": 13.5383629997,
			"0.0": 16.9980770264,
			"0.001": 19.4272832518,
			"0.002": 32.7073105193,
			"0.003": 31.0492398384,
			"0.004": 4.97273755445,
			"0.005": 3.98959826056,
			"0.006": 3.20298795872,
			"0.007": 4.70294951842,
			"0.008": 4.2219809037,
			"0.009": 4.485793634,
			"0.01": 4.37948772458,
			"0.011": 5.5062144079,
			"0.012": 4.38510873828,
			"0.013": 5.35824454708,
			"0.014": 1.60655238936,
			"0.015": 0.0,
			"0.016": 0.0,
			"0.017": 0.0,
			"0.018": 0.0,
			"0.019": 0.0,
			"0.02": 0.0,
			"0.021": 0.0,
			"0.022": 0.0,
			"0.023": 0.0,
			"0.024": 0.0,
			"0.025": 0.0
		}
	}
}
