{
	 "smiles": "[O-][N+](=O)C1=CC(=CC=C1F)S(=O)(=O)C1=CC(=C(F)C=C1)[N+]([O-])=O", 
	 "Tm": 467.15, 
	 "num_atms": 29, 
	 "gaussian": { 
		 "optdone": 1, 
		 "sigma_profile": "yes", 
		 "theory": "DFT", 
		 "functional": "B3LYP", 
		 "basiset": "6-31G**", 
		 "properties": { 
			 "R2extent": 9351.9426, 
			 "electric_dipole_moment_norm": 7.35467957562, 
			 "electric_quadrupole_moment_norm": 7.70139139831, 
			 "total_energy": -1619.29268147, 
			 "HOMO_LUMO_gap": 0.17992, 
			 "cosmo_polarized_energy": -22.79, 
			 "cosmo_cavitation_energy": 39.23, 
			 "cosmo_dispersion_energy": -27.31, 
			 "cosmo_repulsion_energy": 1.99, 
			 "cosmo_total_nonelectrostatic_energy": 13.92, 
			 "SMD_solvation_energy": 11.42 
		},
		"coords": [
			{
				"x": -4.2758261799,
				"y": -0.6519577777,
				"z": -1.1181812804,
				"element": "O" 
			},
			{
				"x": -3.1708045607,
				"y": -1.143650658,
				"z": -1.3189927512,
				"element": "N" 
			},
			{
				"x": -2.781546672,
				"y": -1.6090647997,
				"z": -2.3881869821,
				"element": "O" 
			},
			{
				"x": -2.2160290322,
				"y": -1.1731106952,
				"z": -0.1961945275,
				"element": "C" 
			},
			{
				"x": -0.9001454875,
				"y": -1.5435496918,
				"z": -0.4717701885,
				"element": "C" 
			},
			{
				"x": 0.029615429,
				"y": -1.5702334555,
				"z": 0.5611898596,
				"element": "C" 
			},
			{
				"x": -0.3375394172,
				"y": -1.2604778916,
				"z": 1.8749429609,
				"element": "C" 
			},
			{
				"x": -1.6518103824,
				"y": -0.9014283543,
				"z": 2.1485044228,
				"element": "C" 
			},
			{
				"x": -2.5905950472,
				"y": -0.8499208792,
				"z": 1.118004281,
				"element": "C" 
			},
			{
				"x": -3.8347589191,
				"y": -0.5098811873,
				"z": 1.4347597318,
				"element": "F" 
			},
			{
				"x": 1.7274815335,
				"y": -2.0652177027,
				"z": 0.208320093,
				"element": "S" 
			},
			{
				"x": 2.3066153738,
				"y": -2.5272414506,
				"z": 1.4780589868,
				"element": "O" 
			},
			{
				"x": 1.6960901065,
				"y": -2.8959129669,
				"z": -1.0010213284,
				"element": "O" 
			},
			{
				"x": 2.5725316128,
				"y": -0.5304937835,
				"z": -0.2196939105,
				"element": "C" 
			},
			{
				"x": 2.5796912838,
				"y": -0.1039104744,
				"z": -1.5427749859,
				"element": "C" 
			},
			{
				"x": 3.2570806268,
				"y": 1.06774619,
				"z": -1.8776575549,
				"element": "C" 
			},
			{
				"x": 3.9185551224,
				"y": 1.8028381718,
				"z": -0.8811591251,
				"element": "C" 
			},
			{
				"x": 4.5562454219,
				"y": 2.9367977499,
				"z": -1.1492375472,
				"element": "F" 
			},
			{
				"x": 3.9094062889,
				"y": 1.3595646477,
				"z": 0.4411792357,
				"element": "C" 
			},
			{
				"x": 3.2415203744,
				"y": 0.1877269646,
				"z": 0.7768050878,
				"element": "C" 
			},
			{
				"x": 3.2571118044,
				"y": 1.4812596256,
				"z": -3.2918063652,
				"element": "N" 
			},
			{
				"x": 2.4591959291,
				"y": 0.9109937478,
				"z": -4.0335134594,
				"element": "O" 
			},
			{
				"x": 4.0497966159,
				"y": 2.351616749,
				"z": -3.6337753542,
				"element": "O" 
			},
			{
				"x": -0.6369637878,
				"y": -1.8249992841,
				"z": -1.4842862614,
				"element": "H" 
			},
			{
				"x": 0.3956993755,
				"y": -1.3277930425,
				"z": 2.6710508661,
				"element": "H" 
			},
			{
				"x": -1.9807142388,
				"y": -0.6652462058,
				"z": 3.1543026367,
				"element": "H" 
			},
			{
				"x": 2.0902983897,
				"y": -0.6684838983,
				"z": -2.3271607566,
				"element": "H" 
			},
			{
				"x": 4.4382149656,
				"y": 1.9469597561,
				"z": 1.183418379,
				"element": "H" 
			},
			{
				"x": 3.2522834707,
				"y": -0.1842294034,
				"z": 1.7953758371,
				"element": "H" 
			}
		],
		 "valence_orbital": [ 
			{
				"type": "occ",
				"energy": -0.31829,
				"method": "rhf"
			},
			{
				"type": "occ",
				"energy": -0.31529,
				"method": "rhf"
			},
			{
				"type": "occ",
				"energy": -0.30841,
				"method": "rhf"
			},
			{
				"type": "occ",
				"energy": -0.3076,
				"method": "rhf"
			},
			{
				"type": "occ",
				"energy": -0.29425,
				"method": "rhf"
			},
			{
				"type": "unocc",
				"energy": -0.11433,
				"method": "rhf"
			},
			{
				"type": "unocc",
				"energy": -0.11047,
				"method": "rhf"
			},
			{
				"type": "unocc",
				"energy": -0.08441,
				"method": "rhf"
			},
			{
				"type": "unocc",
				"energy": -0.05573,
				"method": "rhf"
			},
			{
				"type": "unocc",
				"energy": -0.04118,
				"method": "rhf"
			}
		],
		"cosmo_sigma_profile": { 
			"-0.025": 0.0,
			"-0.024": 0.0,
			"-0.023": 0.0,
			"-0.022": 0.0,
			"-0.021": 0.0,
			"-0.02": 0.0,
			"-0.019": 0.0,
			"-0.018": 0.0,
			"-0.017": 0.0,
			"-0.016": 0.0,
			"-0.015": 0.0,
			"-0.014": 0.0,
			"-0.013": 0.0,
			"-0.012": 0.0,
			"-0.011": 0.0,
			"-0.01": 2.96501594475,
			"-0.009": 10.5397993017,
			"-0.008": 13.7586705948,
			"-0.007": 12.8703843429,
			"-0.006": 14.7297328596,
			"-0.005": 16.2512303382,
			"-0.004": 27.0890181523,
			"-0.003": 30.2522225308,
			"-0.002": 24.6933299099,
			"-0.001": 17.9018918979,
			"0.0": 11.6155551066,
			"0.001": 10.4707550132,
			"0.002": 18.5093261783,
			"0.003": 11.4236133054,
			"0.004": 8.31288654582,
			"0.005": 10.8282321184,
			"0.006": 14.8682672866,
			"0.007": 24.1265011087,
			"0.008": 13.2417477886,
			"0.009": 11.6460636787,
			"0.01": 7.30275400142,
			"0.011": 4.63520409551,
			"0.012": 0.0051043229057,
			"0.013": 0.0,
			"0.014": 0.0,
			"0.015": 0.0,
			"0.016": 0.0,
			"0.017": 0.0,
			"0.018": 0.0,
			"0.019": 0.0,
			"0.02": 0.0,
			"0.021": 0.0,
			"0.022": 0.0,
			"0.023": 0.0,
			"0.024": 0.0,
			"0.025": 0.0
		}
	}
}
