{
	 "smiles": "COC1=CC=CC(C=O)=C1O", 
	 "Tm": 315.95, 
	 "num_atms": 19, 
	 "gaussian": { 
		 "optdone": 1, 
		 "sigma_profile": "yes", 
		 "theory": "DFT", 
		 "functional": "B3LYP", 
		 "basiset": "6-31G**", 
		 "properties": { 
			 "R2extent": 2091.0136, 
			 "electric_dipole_moment_norm": 6.12898393945, 
			 "electric_quadrupole_moment_norm": 9.47004779502, 
			 "total_energy": -535.319546063, 
			 "HOMO_LUMO_gap": 0.16852, 
			 "cosmo_polarized_energy": -11.1, 
			 "cosmo_cavitation_energy": 23.28, 
			 "cosmo_dispersion_energy": -17.33, 
			 "cosmo_repulsion_energy": 1.38, 
			 "cosmo_total_nonelectrostatic_energy": 7.33, 
			 "SMD_solvation_energy": 6.21 
		},
		"coords": [
			{
				"x": -1.8035922089,
				"y": 1.7705551887,
				"z": 1.4532443288,
				"element": "C" 
			},
			{
				"x": -1.3806106158,
				"y": 0.4265042886,
				"z": 1.2727315223,
				"element": "O" 
			},
			{
				"x": -0.6740098356,
				"y": 0.1144381098,
				"z": 0.1364546804,
				"element": "C" 
			},
			{
				"x": -0.3189936222,
				"y": 0.9912283389,
				"z": -0.8802799009,
				"element": "C" 
			},
			{
				"x": 0.4095015886,
				"y": 0.5183289075,
				"z": -1.9866312941,
				"element": "C" 
			},
			{
				"x": 0.7716836217,
				"y": -0.8151505635,
				"z": -2.0628787877,
				"element": "C" 
			},
			{
				"x": 0.4184527382,
				"y": -1.7160929731,
				"z": -1.0388242198,
				"element": "C" 
			},
			{
				"x": 0.8152091275,
				"y": -3.1373350674,
				"z": -1.1392553284,
				"element": "C" 
			},
			{
				"x": 1.4464229091,
				"y": -3.5962796137,
				"z": -2.0766618253,
				"element": "O" 
			},
			{
				"x": -0.3071361342,
				"y": -1.2482792609,
				"z": 0.0644919541,
				"element": "C" 
			},
			{
				"x": -0.6644782128,
				"y": -2.0879548632,
				"z": 1.0695388503,
				"element": "O" 
			},
			{
				"x": -0.9470263533,
				"y": 2.4542522378,
				"z": 1.4991349973,
				"element": "H" 
			},
			{
				"x": -2.3386535213,
				"y": 1.7968017666,
				"z": 2.4033279789,
				"element": "H" 
			},
			{
				"x": -2.4772525321,
				"y": 2.0870287264,
				"z": 0.6474708975,
				"element": "H" 
			},
			{
				"x": -0.5997107714,
				"y": 2.037082407,
				"z": -0.8264989483,
				"element": "H" 
			},
			{
				"x": 0.6829768872,
				"y": 1.2100317934,
				"z": -2.7769445647,
				"element": "H" 
			},
			{
				"x": 1.3333062997,
				"y": -1.2084090997,
				"z": -2.9034996331,
				"element": "H" 
			},
			{
				"x": 0.500654942,
				"y": -3.7807584317,
				"z": -0.2956779303,
				"element": "H" 
			},
			{
				"x": -1.1531443064,
				"y": -1.5596918918,
				"z": 1.720657223,
				"element": "H" 
			}
		],
		 "valence_orbital": [ 
			{
				"type": "occ",
				"energy": -0.35471,
				"method": "rhf"
			},
			{
				"type": "occ",
				"energy": -0.32734,
				"method": "rhf"
			},
			{
				"type": "occ",
				"energy": -0.24979,
				"method": "rhf"
			},
			{
				"type": "occ",
				"energy": -0.24203,
				"method": "rhf"
			},
			{
				"type": "occ",
				"energy": -0.22106,
				"method": "rhf"
			},
			{
				"type": "unocc",
				"energy": -0.05254,
				"method": "rhf"
			},
			{
				"type": "unocc",
				"energy": 0.00563,
				"method": "rhf"
			},
			{
				"type": "unocc",
				"energy": 0.04957,
				"method": "rhf"
			},
			{
				"type": "unocc",
				"energy": 0.06401,
				"method": "rhf"
			},
			{
				"type": "unocc",
				"energy": 0.08382,
				"method": "rhf"
			}
		],
		"cosmo_sigma_profile": { 
			"-0.025": 0.0,
			"-0.024": 0.0,
			"-0.023": 0.0,
			"-0.022": 0.0,
			"-0.021": 0.0,
			"-0.02": 0.0,
			"-0.019": 0.0,
			"-0.018": 0.0,
			"-0.017": 0.0,
			"-0.016": 0.0288276470886,
			"-0.015": 0.47425177012,
			"-0.014": 0.275582183731,
			"-0.013": 0.521657022744,
			"-0.012": 0.355763169256,
			"-0.011": 0.956096949669,
			"-0.01": 0.937031315096,
			"-0.009": 0.525855835649,
			"-0.008": 0.749367453365,
			"-0.007": 3.78245044155,
			"-0.006": 13.4324049779,
			"-0.005": 16.2256149435,
			"-0.004": 16.8845636961,
			"-0.003": 14.603499051,
			"-0.002": 11.0172882504,
			"-0.001": 9.57508223648,
			"0.0": 12.2994733853,
			"0.001": 15.007404221,
			"0.002": 13.7153475466,
			"0.003": 12.8980222581,
			"0.004": 11.1804829471,
			"0.005": 6.70729133534,
			"0.006": 2.48616651833,
			"0.007": 3.01853233658,
			"0.008": 3.9456030665,
			"0.009": 2.87063653976,
			"0.01": 2.07880501974,
			"0.011": 4.02789129187,
			"0.012": 3.76640578575,
			"0.013": 1.46675150387,
			"0.014": 0.0938190255548,
			"0.015": 0.0,
			"0.016": 0.0,
			"0.017": 0.0,
			"0.018": 0.0,
			"0.019": 0.0,
			"0.02": 0.0,
			"0.021": 0.0,
			"0.022": 0.0,
			"0.023": 0.0,
			"0.024": 0.0,
			"0.025": 0.0
		}
	}
}
