{
	 "smiles": "ClC1=CC=C(C=C1)C(=O)C1=NN(C2C1C(=O)N(C2=O)C1=CC=C(Br)C=C1)C1=CC=CC=C1", 
	 "Tm": 528.15, 
	 "num_atms": 47, 
	 "gaussian": { 
		 "optdone": 1, 
		 "sigma_profile": "yes", 
		 "theory": "DFT", 
		 "functional": "B3LYP", 
		 "basiset": "6-31G**", 
		 "properties": { 
			 "R2extent": 24634.1975, 
			 "electric_dipole_moment_norm": 3.15356960443, 
			 "electric_quadrupole_moment_norm": 11.378965141, 
			 "total_energy": -4345.10688783, 
			 "HOMO_LUMO_gap": 0.13166, 
			 "cosmo_polarized_energy": -19.72, 
			 "cosmo_cavitation_energy": 56.85, 
			 "cosmo_dispersion_energy": -40.02, 
			 "cosmo_repulsion_energy": 2.98, 
			 "cosmo_total_nonelectrostatic_energy": 19.81, 
			 "SMD_solvation_energy": 8.45 
		},
		"coords": [
			{
				"x": -6.3119467056,
				"y": -0.9231305776,
				"z": -4.7981635787,
				"element": "Cl" 
			},
			{
				"x": -4.7108522052,
				"y": -0.9353632418,
				"z": -4.081425524,
				"element": "C" 
			},
			{
				"x": -3.5883429458,
				"y": -0.8869871755,
				"z": -4.911573519,
				"element": "C" 
			},
			{
				"x": -2.3245025318,
				"y": -0.8944152323,
				"z": -4.3340584239,
				"element": "C" 
			},
			{
				"x": -2.1660508451,
				"y": -0.9618883144,
				"z": -2.9396682021,
				"element": "C" 
			},
			{
				"x": -3.3097757948,
				"y": -1.0024318081,
				"z": -2.1268784743,
				"element": "C" 
			},
			{
				"x": -4.5827487856,
				"y": -0.9889871359,
				"z": -2.6936740962,
				"element": "C" 
			},
			{
				"x": -0.7651679211,
				"y": -0.9372509577,
				"z": -2.420199283,
				"element": "C" 
			},
			{
				"x": 0.179234319,
				"y": -0.6561340564,
				"z": -3.1565305098,
				"element": "O" 
			},
			{
				"x": -0.439753904,
				"y": -1.2834271588,
				"z": -1.0189365968,
				"element": "C" 
			},
			{
				"x": -1.1801003613,
				"y": -1.9996857336,
				"z": -0.2312780907,
				"element": "N" 
			},
			{
				"x": -0.5290167608,
				"y": -2.2868134828,
				"z": 0.9145140716,
				"element": "N" 
			},
			{
				"x": 0.8541084956,
				"y": -1.752025659,
				"z": 0.9138320852,
				"element": "C" 
			},
			{
				"x": 0.9267274394,
				"y": -0.996419265,
				"z": -0.4236217386,
				"element": "C" 
			},
			{
				"x": 1.1068384047,
				"y": 0.4799406589,
				"z": -0.0468142962,
				"element": "C" 
			},
			{
				"x": 1.1915497412,
				"y": 1.4149666936,
				"z": -0.8035082341,
				"element": "O" 
			},
			{
				"x": 1.1642602319,
				"y": 0.56781315,
				"z": 1.3632832485,
				"element": "N" 
			},
			{
				"x": 1.0764048915,
				"y": -0.67588863,
				"z": 1.9943533977,
				"element": "C" 
			},
			{
				"x": 1.1675456689,
				"y": -0.8689708462,
				"z": 3.187425625,
				"element": "O" 
			},
			{
				"x": 1.3278809015,
				"y": 1.8019541543,
				"z": 2.0721533822,
				"element": "C" 
			},
			{
				"x": 2.2241371376,
				"y": 2.7662646934,
				"z": 1.6004107388,
				"element": "C" 
			},
			{
				"x": 2.3760338011,
				"y": 3.9677209122,
				"z": 2.2897277851,
				"element": "C" 
			},
			{
				"x": 1.6375134774,
				"y": 4.1920092498,
				"z": 3.4500245786,
				"element": "C" 
			},
			{
				"x": 1.8511338001,
				"y": 5.8347254898,
				"z": 4.3976490742,
				"element": "Br" 
			},
			{
				"x": 0.7451270191,
				"y": 3.2343919227,
				"z": 3.928985551,
				"element": "C" 
			},
			{
				"x": 0.5867160497,
				"y": 2.0371387823,
				"z": 3.2346734816,
				"element": "C" 
			},
			{
				"x": -0.9780526674,
				"y": -3.3595412807,
				"z": 1.7226923513,
				"element": "C" 
			},
			{
				"x": -0.3045675702,
				"y": -3.6705516283,
				"z": 2.912596481,
				"element": "C" 
			},
			{
				"x": -0.7446229493,
				"y": -4.7413795154,
				"z": 3.6919672581,
				"element": "C" 
			},
			{
				"x": -1.8528916029,
				"y": -5.4965274954,
				"z": 3.3112940371,
				"element": "C" 
			},
			{
				"x": -2.5252967428,
				"y": -5.1710094369,
				"z": 2.1303023545,
				"element": "C" 
			},
			{
				"x": -2.0956901443,
				"y": -4.1153371248,
				"z": 1.331640359,
				"element": "C" 
			},
			{
				"x": -3.7094928763,
				"y": -0.8414033043,
				"z": -5.9880763035,
				"element": "H" 
			},
			{
				"x": -1.4340842427,
				"y": -0.8461334792,
				"z": -4.9513045817,
				"element": "H" 
			},
			{
				"x": -3.2110620376,
				"y": -1.0448537838,
				"z": -1.0498560873,
				"element": "H" 
			},
			{
				"x": -5.4673488579,
				"y": -1.0157353329,
				"z": -2.067355947,
				"element": "H" 
			},
			{
				"x": 1.5768225867,
				"y": -2.5615866204,
				"z": 1.0566546019,
				"element": "H" 
			},
			{
				"x": 1.7295037232,
				"y": -1.2811432857,
				"z": -1.1082030318,
				"element": "H" 
			},
			{
				"x": 2.7885391717,
				"y": 2.590643467,
				"z": 0.693853632,
				"element": "H" 
			},
			{
				"x": 3.0657057805,
				"y": 4.7204141117,
				"z": 1.9262775211,
				"element": "H" 
			},
			{
				"x": 0.1761994986,
				"y": 3.4200287839,
				"z": 4.8324108756,
				"element": "H" 
			},
			{
				"x": -0.1004533418,
				"y": 1.287027213,
				"z": 3.6052459914,
				"element": "H" 
			},
			{
				"x": 0.5262160417,
				"y": -3.0615812791,
				"z": 3.2483717542,
				"element": "H" 
			},
			{
				"x": -0.2159350592,
				"y": -4.9731857154,
				"z": 4.6119201572,
				"element": "H" 
			},
			{
				"x": -2.1916844079,
				"y": -6.3248140951,
				"z": 3.9256927372,
				"element": "H" 
			},
			{
				"x": -3.3891983651,
				"y": -5.7506384616,
				"z": 1.8178993132,
				"element": "H" 
			},
			{
				"x": -2.6065585544,
				"y": -3.8752981687,
				"z": 0.4078740744,
				"element": "H" 
			}
		],
		 "valence_orbital": [ 
			{
				"type": "occ",
				"energy": -0.26737,
				"method": "rhf"
			},
			{
				"type": "occ",
				"energy": -0.26014,
				"method": "rhf"
			},
			{
				"type": "occ",
				"energy": -0.25558,
				"method": "rhf"
			},
			{
				"type": "occ",
				"energy": -0.24744,
				"method": "rhf"
			},
			{
				"type": "occ",
				"energy": -0.21915,
				"method": "rhf"
			},
			{
				"type": "unocc",
				"energy": -0.08749,
				"method": "rhf"
			},
			{
				"type": "unocc",
				"energy": -0.05183,
				"method": "rhf"
			},
			{
				"type": "unocc",
				"energy": -0.04302,
				"method": "rhf"
			},
			{
				"type": "unocc",
				"energy": -0.03063,
				"method": "rhf"
			},
			{
				"type": "unocc",
				"energy": -0.02479,
				"method": "rhf"
			}
		],
		"cosmo_sigma_profile": { 
			"-0.025": 0.0,
			"-0.024": 0.0,
			"-0.023": 0.0,
			"-0.022": 0.0,
			"-0.021": 0.0,
			"-0.02": 0.0,
			"-0.019": 0.0,
			"-0.018": 0.0,
			"-0.017": 0.0,
			"-0.016": 0.0,
			"-0.015": 0.0,
			"-0.014": 0.0,
			"-0.013": 0.0,
			"-0.012": 0.304185492848,
			"-0.011": 1.56136111912,
			"-0.01": 4.61249698915,
			"-0.009": 7.63140599604,
			"-0.008": 8.79795227011,
			"-0.007": 17.3175646505,
			"-0.006": 25.4659937442,
			"-0.005": 25.5034978799,
			"-0.004": 26.879484358,
			"-0.003": 27.329023404,
			"-0.002": 25.0729438901,
			"-0.001": 28.5041444028,
			"0.0": 33.2920811404,
			"0.001": 41.7194927211,
			"0.002": 55.1158416204,
			"0.003": 37.806731322,
			"0.004": 36.7219492142,
			"0.005": 19.9297826266,
			"0.006": 5.7780189175,
			"0.007": 5.11896101316,
			"0.008": 5.7765736379,
			"0.009": 6.30380088761,
			"0.01": 8.19372403179,
			"0.011": 6.73577287216,
			"0.012": 3.03788918128,
			"0.013": 0.0,
			"0.014": 0.0,
			"0.015": 0.0,
			"0.016": 0.0,
			"0.017": 0.0,
			"0.018": 0.0,
			"0.019": 0.0,
			"0.02": 0.0,
			"0.021": 0.0,
			"0.022": 0.0,
			"0.023": 0.0,
			"0.024": 0.0,
			"0.025": 0.0
		}
	}
}
