{
	 "smiles": "OC(=O)CC=CC1=CC=C(F)C=C1", 
	 "Tm": 385.15, 
	 "num_atms": 22, 
	 "gaussian": { 
		 "optdone": 1, 
		 "sigma_profile": "yes", 
		 "theory": "DFT", 
		 "functional": "B3LYP", 
		 "basiset": "6-31G**", 
		 "properties": { 
			 "R2extent": 3767.814, 
			 "electric_dipole_moment_norm": 2.5414072696, 
			 "electric_quadrupole_moment_norm": 6.00923580749, 
			 "total_energy": -636.769513181, 
			 "HOMO_LUMO_gap": 0.19222, 
			 "cosmo_polarized_energy": -9.63, 
			 "cosmo_cavitation_energy": 27.07, 
			 "cosmo_dispersion_energy": -19.35, 
			 "cosmo_repulsion_energy": 1.52, 
			 "cosmo_total_nonelectrostatic_energy": 9.24, 
			 "SMD_solvation_energy": 6.28 
		},
		"coords": [
			{
				"x": -0.783778223,
				"y": -2.9883488433,
				"z": -0.582753665,
				"element": "O" 
			},
			{
				"x": -0.5143007906,
				"y": -1.7772680726,
				"z": -0.0427964588,
				"element": "C" 
			},
			{
				"x": 0.4465091232,
				"y": -1.5818437282,
				"z": 0.6710831448,
				"element": "O" 
			},
			{
				"x": -1.5245242444,
				"y": -0.7287459413,
				"z": -0.4751103127,
				"element": "C" 
			},
			{
				"x": -1.2026234396,
				"y": -0.1956999691,
				"z": -1.8528000124,
				"element": "C" 
			},
			{
				"x": -0.6218785332,
				"y": 0.9772124678,
				"z": -2.1574604779,
				"element": "C" 
			},
			{
				"x": -0.1083846837,
				"y": 2.0334489782,
				"z": -1.2664200606,
				"element": "C" 
			},
			{
				"x": -0.204654445,
				"y": 3.3721615622,
				"z": -1.6934266259,
				"element": "C" 
			},
			{
				"x": 0.2527402751,
				"y": 4.4239664912,
				"z": -0.9051503693,
				"element": "C" 
			},
			{
				"x": 0.8330875528,
				"y": 4.1287690799,
				"z": 0.3240325039,
				"element": "C" 
			},
			{
				"x": 1.2853671566,
				"y": 5.1404529823,
				"z": 1.0940820893,
				"element": "F" 
			},
			{
				"x": 0.9747031706,
				"y": 2.8209212519,
				"z": 0.7716186414,
				"element": "C" 
			},
			{
				"x": 0.5090405049,
				"y": 1.7762657118,
				"z": -0.0262899893,
				"element": "C" 
			},
			{
				"x": -0.0684989117,
				"y": -3.580782921,
				"z": -0.2946421195,
				"element": "H" 
			},
			{
				"x": -1.517671102,
				"y": 0.0676380598,
				"z": 0.2703195685,
				"element": "H" 
			},
			{
				"x": -2.5158235347,
				"y": -1.1943013517,
				"z": -0.4935741183,
				"element": "H" 
			},
			{
				"x": -1.5035810686,
				"y": -0.8387721303,
				"z": -2.6767472875,
				"element": "H" 
			},
			{
				"x": -0.5502944677,
				"y": 1.2140625341,
				"z": -3.2189680671,
				"element": "H" 
			},
			{
				"x": -0.657864681,
				"y": 3.5905084626,
				"z": -2.6567865508,
				"element": "H" 
			},
			{
				"x": 0.1715807184,
				"y": 5.456489933,
				"z": -1.2273079393,
				"element": "H" 
			},
			{
				"x": 1.4575153891,
				"y": 2.6299700659,
				"z": 1.7240320166,
				"element": "H" 
			},
			{
				"x": 0.6611342347,
				"y": 0.7553953768,
				"z": 0.3080660897,
				"element": "H" 
			}
		],
		 "valence_orbital": [ 
			{
				"type": "occ",
				"energy": -0.32385,
				"method": "rhf"
			},
			{
				"type": "occ",
				"energy": -0.296,
				"method": "rhf"
			},
			{
				"type": "occ",
				"energy": -0.27639,
				"method": "rhf"
			},
			{
				"type": "occ",
				"energy": -0.25899,
				"method": "rhf"
			},
			{
				"type": "occ",
				"energy": -0.22383,
				"method": "rhf"
			},
			{
				"type": "unocc",
				"energy": -0.03161,
				"method": "rhf"
			},
			{
				"type": "unocc",
				"energy": -0.01011,
				"method": "rhf"
			},
			{
				"type": "unocc",
				"energy": 0.00639,
				"method": "rhf"
			},
			{
				"type": "unocc",
				"energy": 0.05011,
				"method": "rhf"
			},
			{
				"type": "unocc",
				"energy": 0.07231,
				"method": "rhf"
			}
		],
		"cosmo_sigma_profile": { 
			"-0.025": 0.0,
			"-0.024": 0.0,
			"-0.023": 0.0,
			"-0.022": 0.0,
			"-0.021": 0.0,
			"-0.02": 0.0,
			"-0.019": 0.0214720827747,
			"-0.018": 0.815239875277,
			"-0.017": 1.13205998768,
			"-0.016": 0.480094143008,
			"-0.015": 0.916939815637,
			"-0.014": 0.918404623329,
			"-0.013": 1.07268151108,
			"-0.012": 0.246636070515,
			"-0.011": 0.587606812614,
			"-0.01": 0.48954439823,
			"-0.009": 0.620820058895,
			"-0.008": 0.992921197486,
			"-0.007": 4.709110454,
			"-0.006": 11.5750656486,
			"-0.005": 14.9954418979,
			"-0.004": 15.9910181209,
			"-0.003": 13.3789688072,
			"-0.002": 12.9720551839,
			"-0.001": 12.3054929699,
			"0.0": 12.7200106693,
			"0.001": 18.9912499195,
			"0.002": 18.5874296745,
			"0.003": 18.704891971,
			"0.004": 24.7724951754,
			"0.005": 9.04298466207,
			"0.006": 2.80981807598,
			"0.007": 2.77589914395,
			"0.008": 3.2091976035,
			"0.009": 2.19597970093,
			"0.01": 2.89277632364,
			"0.011": 3.86046883315,
			"0.012": 1.52359010518,
			"0.013": 0.0,
			"0.014": 0.0,
			"0.015": 0.0,
			"0.016": 0.0,
			"0.017": 0.0,
			"0.018": 0.0,
			"0.019": 0.0,
			"0.02": 0.0,
			"0.021": 0.0,
			"0.022": 0.0,
			"0.023": 0.0,
			"0.024": 0.0,
			"0.025": 0.0
		}
	}
}
