{
	 "smiles": "NC1=NC(=C(S1)C1=NC=CN1)C1=CC=CC=C1", 
	 "Tm": 530.15, 
	 "num_atms": 27, 
	 "gaussian": { 
		 "optdone": 1, 
		 "sigma_profile": "yes", 
		 "theory": "DFT", 
		 "functional": "B3LYP", 
		 "basiset": "6-31G**", 
		 "properties": { 
			 "R2extent": 4641.709, 
			 "electric_dipole_moment_norm": 3.94418379262, 
			 "electric_quadrupole_moment_norm": 17.6496669949, 
			 "total_energy": -1080.49276653, 
			 "HOMO_LUMO_gap": 0.15297, 
			 "cosmo_polarized_energy": -20.88, 
			 "cosmo_cavitation_energy": 33.09, 
			 "cosmo_dispersion_energy": -24.6, 
			 "cosmo_repulsion_energy": 1.87, 
			 "cosmo_total_nonelectrostatic_energy": 10.36, 
			 "SMD_solvation_energy": 2.97 
		},
		"coords": [
			{
				"x": -0.2151208915,
				"y": 3.8533599616,
				"z": -0.6159253914,
				"element": "N" 
			},
			{
				"x": -0.2218807455,
				"y": 2.4785798988,
				"z": -0.5637966435,
				"element": "C" 
			},
			{
				"x": 0.6525967568,
				"y": 1.7726016564,
				"z": 0.0834215299,
				"element": "N" 
			},
			{
				"x": 0.4861263341,
				"y": 0.4088991168,
				"z": -0.115904836,
				"element": "C" 
			},
			{
				"x": -0.5812333845,
				"y": 0.0641624938,
				"z": -0.9235215127,
				"element": "C" 
			},
			{
				"x": -1.3903523501,
				"y": 1.5374891284,
				"z": -1.4885228268,
				"element": "S" 
			},
			{
				"x": -1.1718504903,
				"y": -1.2168310521,
				"z": -1.2858210753,
				"element": "C" 
			},
			{
				"x": -1.311336703,
				"y": -2.2887061713,
				"z": -0.5202867711,
				"element": "N" 
			},
			{
				"x": -1.955413005,
				"y": -3.220928005,
				"z": -1.2947602433,
				"element": "C" 
			},
			{
				"x": -2.2284195889,
				"y": -2.7177373259,
				"z": -2.5439421933,
				"element": "C" 
			},
			{
				"x": -1.72543061,
				"y": -1.4355090105,
				"z": -2.5294279455,
				"element": "N" 
			},
			{
				"x": 1.4700721629,
				"y": -0.4785687756,
				"z": 0.5444669069,
				"element": "C" 
			},
			{
				"x": 1.7802238188,
				"y": -1.7627873306,
				"z": 0.0676827483,
				"element": "C" 
			},
			{
				"x": 2.7408670842,
				"y": -2.5432581761,
				"z": 0.7063414494,
				"element": "C" 
			},
			{
				"x": 3.4115688539,
				"y": -2.0612290164,
				"z": 1.8325304889,
				"element": "C" 
			},
			{
				"x": 3.118030966,
				"y": -0.7830770002,
				"z": 2.3102306749,
				"element": "C" 
			},
			{
				"x": 2.1627681054,
				"y": 0.0030523125,
				"z": 1.6695215797,
				"element": "C" 
			},
			{
				"x": 0.3917580515,
				"y": 4.2672482586,
				"z": 0.0802240457,
				"element": "H" 
			},
			{
				"x": -1.1102263468,
				"y": 4.3131207234,
				"z": -0.7048694179,
				"element": "H" 
			},
			{
				"x": -2.1967507965,
				"y": -4.2012116434,
				"z": -0.9076712388,
				"element": "H" 
			},
			{
				"x": -2.7186089545,
				"y": -3.1342203952,
				"z": -3.4101531982,
				"element": "H" 
			},
			{
				"x": -1.7013359841,
				"y": -0.7947993961,
				"z": -3.3085817881,
				"element": "H" 
			},
			{
				"x": 1.2708024065,
				"y": -2.1545645935,
				"z": -0.8030733499,
				"element": "H" 
			},
			{
				"x": 2.9680183415,
				"y": -3.5327051214,
				"z": 0.3195513529,
				"element": "H" 
			},
			{
				"x": 4.1580935528,
				"y": -2.674531434,
				"z": 2.3293693108,
				"element": "H" 
			},
			{
				"x": 3.6360386626,
				"y": -0.3941536219,
				"z": 3.1825791577,
				"element": "H" 
			},
			{
				"x": 1.9431947536,
				"y": 1.0021045189,
				"z": 2.0279391867,
				"element": "H" 
			}
		],
		 "valence_orbital": [ 
			{
				"type": "occ",
				"energy": -0.26512,
				"method": "rhf"
			},
			{
				"type": "occ",
				"energy": -0.24807,
				"method": "rhf"
			},
			{
				"type": "occ",
				"energy": -0.23554,
				"method": "rhf"
			},
			{
				"type": "occ",
				"energy": -0.23345,
				"method": "rhf"
			},
			{
				"type": "occ",
				"energy": -0.19071,
				"method": "rhf"
			},
			{
				"type": "unocc",
				"energy": -0.03774,
				"method": "rhf"
			},
			{
				"type": "unocc",
				"energy": -0.00403,
				"method": "rhf"
			},
			{
				"type": "unocc",
				"energy": 0.01235,
				"method": "rhf"
			},
			{
				"type": "unocc",
				"energy": 0.01747,
				"method": "rhf"
			},
			{
				"type": "unocc",
				"energy": 0.03635,
				"method": "rhf"
			}
		],
		"cosmo_sigma_profile": { 
			"-0.025": 0.0,
			"-0.024": 0.0,
			"-0.023": 0.0,
			"-0.022": 0.0,
			"-0.021": 0.0,
			"-0.02": 0.0,
			"-0.019": 0.0,
			"-0.018": 0.0,
			"-0.017": 0.128038354328,
			"-0.016": 0.819608364055,
			"-0.015": 2.2915381249,
			"-0.014": 3.07004504564,
			"-0.013": 3.66079473818,
			"-0.012": 4.17463992532,
			"-0.011": 3.72588474151,
			"-0.01": 4.06327424727,
			"-0.009": 3.56757030647,
			"-0.008": 5.97895865612,
			"-0.007": 4.75770585162,
			"-0.006": 7.75016832646,
			"-0.005": 12.5593770267,
			"-0.004": 14.8367440499,
			"-0.003": 17.3236318057,
			"-0.002": 13.1478064175,
			"-0.001": 13.2343973129,
			"0.0": 14.5139753941,
			"0.001": 18.7895918429,
			"0.002": 21.373922443,
			"0.003": 21.2898769695,
			"0.004": 18.8524778947,
			"0.005": 18.2066543824,
			"0.006": 13.5091949206,
			"0.007": 4.94681422722,
			"0.008": 4.04186835154,
			"0.009": 4.46591186453,
			"0.01": 2.96633018409,
			"0.011": 2.14996316291,
			"0.012": 2.84569541982,
			"0.013": 1.26444451918,
			"0.014": 0.61172193226,
			"0.015": 1.50023183137,
			"0.016": 0.770272697309,
			"0.017": 0.662718235776,
			"0.018": 0.175639264137,
			"0.019": 0.0,
			"0.02": 0.0,
			"0.021": 0.0,
			"0.022": 0.0,
			"0.023": 0.0,
			"0.024": 0.0,
			"0.025": 0.0
		}
	}
}
