{
	 "smiles": "SC1=NC2=C(N1)N=CC(Cl)=C2", 
	 "Tm": 626.15, 
	 "num_atms": 15, 
	 "gaussian": { 
		 "optdone": 1, 
		 "sigma_profile": "yes", 
		 "theory": "DFT", 
		 "functional": "B3LYP", 
		 "basiset": "6-31G**", 
		 "properties": { 
			 "R2extent": 3158.7159, 
			 "electric_dipole_moment_norm": 2.62456447816, 
			 "electric_quadrupole_moment_norm": 3.26986739639, 
			 "total_energy": -1253.68492248, 
			 "HOMO_LUMO_gap": 0.18559, 
			 "cosmo_polarized_energy": -11.46, 
			 "cosmo_cavitation_energy": 23.54, 
			 "cosmo_dispersion_energy": -18.61, 
			 "cosmo_repulsion_energy": 1.44, 
			 "cosmo_total_nonelectrostatic_energy": 6.37, 
			 "SMD_solvation_energy": -0.54 
		},
		"coords": [
			{
				"x": 0.269175169,
				"y": -1.3414152829,
				"z": 3.0679080154,
				"element": "S" 
			},
			{
				"x": 0.297826287,
				"y": -0.924433362,
				"z": 1.3539839686,
				"element": "C" 
			},
			{
				"x": -0.5720671869,
				"y": -1.3235341959,
				"z": 0.4556078785,
				"element": "N" 
			},
			{
				"x": -0.1347913847,
				"y": -0.744866805,
				"z": -0.7250746966,
				"element": "C" 
			},
			{
				"x": 1.0355169294,
				"y": 0.0203782928,
				"z": -0.5029795901,
				"element": "C" 
			},
			{
				"x": 1.2927810142,
				"y": -0.1138534894,
				"z": 0.8517735192,
				"element": "N" 
			},
			{
				"x": 1.728643596,
				"y": 0.7106794025,
				"z": -1.3949355581,
				"element": "N" 
			},
			{
				"x": 1.2357372385,
				"y": 0.6549373463,
				"z": -2.6394825543,
				"element": "C" 
			},
			{
				"x": 0.0803480293,
				"y": -0.0727508626,
				"z": -2.9789933539,
				"element": "C" 
			},
			{
				"x": -0.457549349,
				"y": -0.0610654662,
				"z": -4.6504685946,
				"element": "Cl" 
			},
			{
				"x": -0.6372652201,
				"y": -0.7943147152,
				"z": -2.0256787413,
				"element": "C" 
			},
			{
				"x": -0.8435367457,
				"y": -2.0883002758,
				"z": 2.9439069494,
				"element": "H" 
			},
			{
				"x": 2.0610812125,
				"y": 0.3061595586,
				"z": 1.3533290698,
				"element": "H" 
			},
			{
				"x": 1.7697825687,
				"y": 1.2056620962,
				"z": -3.4081243217,
				"element": "H" 
			},
			{
				"x": -1.5278821582,
				"y": -1.3568822416,
				"z": -2.2803719904,
				"element": "H" 
			}
		],
		 "valence_orbital": [ 
			{
				"type": "occ",
				"energy": -0.31298,
				"method": "rhf"
			},
			{
				"type": "occ",
				"energy": -0.30284,
				"method": "rhf"
			},
			{
				"type": "occ",
				"energy": -0.27035,
				"method": "rhf"
			},
			{
				"type": "occ",
				"energy": -0.25658,
				"method": "rhf"
			},
			{
				"type": "occ",
				"energy": -0.23213,
				"method": "rhf"
			},
			{
				"type": "unocc",
				"energy": -0.04654,
				"method": "rhf"
			},
			{
				"type": "unocc",
				"energy": -0.0101,
				"method": "rhf"
			},
			{
				"type": "unocc",
				"energy": -0.00375,
				"method": "rhf"
			},
			{
				"type": "unocc",
				"energy": 0.02732,
				"method": "rhf"
			},
			{
				"type": "unocc",
				"energy": 0.02896,
				"method": "rhf"
			}
		],
		"cosmo_sigma_profile": { 
			"-0.025": 0.0,
			"-0.024": 0.0,
			"-0.023": 0.0,
			"-0.022": 0.0,
			"-0.021": 0.0,
			"-0.02": 0.0,
			"-0.019": 0.0,
			"-0.018": 0.551968091528,
			"-0.017": 1.72432509901,
			"-0.016": 1.27093033656,
			"-0.015": 1.18152689372,
			"-0.014": 1.19514642568,
			"-0.013": 1.49100768415,
			"-0.012": 2.57830760098,
			"-0.011": 2.01314036816,
			"-0.01": 1.68339122641,
			"-0.009": 2.69406843905,
			"-0.008": 4.28523950665,
			"-0.007": 5.1330479104,
			"-0.006": 5.20999302327,
			"-0.005": 5.84024890073,
			"-0.004": 5.78352808823,
			"-0.003": 5.5792484497,
			"-0.002": 11.143453568,
			"-0.001": 16.9338266383,
			"0.0": 17.9941671048,
			"0.001": 24.8061060638,
			"0.002": 15.8958411464,
			"0.003": 13.4905554375,
			"0.004": 15.3792164179,
			"0.005": 9.71102919707,
			"0.006": 4.39107060976,
			"0.007": 2.76479793772,
			"0.008": 2.19106640917,
			"0.009": 2.09737427881,
			"0.01": 1.89542268658,
			"0.011": 1.73759155792,
			"0.012": 2.02217698627,
			"0.013": 1.57396801201,
			"0.014": 1.71309970778,
			"0.015": 0.980157913338,
			"0.016": 0.071384805588,
			"0.017": 0.0,
			"0.018": 0.0,
			"0.019": 0.0,
			"0.02": 0.0,
			"0.021": 0.0,
			"0.022": 0.0,
			"0.023": 0.0,
			"0.024": 0.0,
			"0.025": 0.0
		}
	}
}
