{
	 "smiles": "OC(=O)CCN1C=C(C=N1)[N+]([O-])=O", 
	 "Tm": 417.15, 
	 "num_atms": 20, 
	 "gaussian": { 
		 "optdone": 1, 
		 "sigma_profile": "yes", 
		 "theory": "DFT", 
		 "functional": "B3LYP", 
		 "basiset": "6-31G**", 
		 "properties": { 
			 "R2extent": 3012.5434, 
			 "electric_dipole_moment_norm": 6.33464058096, 
			 "electric_quadrupole_moment_norm": 13.1204788525, 
			 "total_energy": -697.897612066, 
			 "HOMO_LUMO_gap": 0.20306, 
			 "cosmo_polarized_energy": -16.97, 
			 "cosmo_cavitation_energy": 26.17, 
			 "cosmo_dispersion_energy": -18.61, 
			 "cosmo_repulsion_energy": 1.5, 
			 "cosmo_total_nonelectrostatic_energy": 9.06, 
			 "SMD_solvation_energy": 7.39 
		},
		"coords": [
			{
				"x": 0.664325908,
				"y": 0.5359503106,
				"z": 3.0919136549,
				"element": "O" 
			},
			{
				"x": 1.1834298368,
				"y": 0.2122888048,
				"z": 1.8910151664,
				"element": "C" 
			},
			{
				"x": 1.7969474682,
				"y": 0.9989119054,
				"z": 1.2006181585,
				"element": "O" 
			},
			{
				"x": 0.9233760771,
				"y": -1.2395436911,
				"z": 1.5425210642,
				"element": "C" 
			},
			{
				"x": 1.3168573024,
				"y": -1.5734067064,
				"z": 0.1026534678,
				"element": "C" 
			},
			{
				"x": 0.3781215831,
				"y": -1.0326600997,
				"z": -0.8749651093,
				"element": "N" 
			},
			{
				"x": 0.4478172764,
				"y": 0.1375595222,
				"z": -1.5424320287,
				"element": "C" 
			},
			{
				"x": -0.7096082818,
				"y": 0.1933757054,
				"z": -2.3029544833,
				"element": "C" 
			},
			{
				"x": -1.423798689,
				"y": -0.9916652652,
				"z": -2.0219131603,
				"element": "C" 
			},
			{
				"x": -0.7586345236,
				"y": -1.7355397932,
				"z": -1.1489037622,
				"element": "N" 
			},
			{
				"x": -1.086022613,
				"y": 1.2465121264,
				"z": -3.193052178,
				"element": "N" 
			},
			{
				"x": -2.1606278713,
				"y": 1.1253596092,
				"z": -3.7867656714,
				"element": "O" 
			},
			{
				"x": -0.3132417042,
				"y": 2.2021982818,
				"z": -3.3056721313,
				"element": "O" 
			},
			{
				"x": 0.8833961295,
				"y": 1.4704104429,
				"z": 3.2489288726,
				"element": "H" 
			},
			{
				"x": -0.1291561367,
				"y": -1.4779411641,
				"z": 1.7234367913,
				"element": "H" 
			},
			{
				"x": 1.5043156418,
				"y": -1.8577063739,
				"z": 2.2381165036,
				"element": "H" 
			},
			{
				"x": 2.3062338493,
				"y": -1.1718801226,
				"z": -0.1231548131,
				"element": "H" 
			},
			{
				"x": 1.3277506467,
				"y": -2.6549339825,
				"z": -0.0419868957,
				"element": "H" 
			},
			{
				"x": 1.261277308,
				"y": 0.8350221783,
				"z": -1.4244313104,
				"element": "H" 
			},
			{
				"x": -2.3720592077,
				"y": -1.3109116884,
				"z": -2.4279721354,
				"element": "H" 
			}
		],
		 "valence_orbital": [ 
			{
				"type": "occ",
				"energy": -0.29991,
				"method": "rhf"
			},
			{
				"type": "occ",
				"energy": -0.29574,
				"method": "rhf"
			},
			{
				"type": "occ",
				"energy": -0.28267,
				"method": "rhf"
			},
			{
				"type": "occ",
				"energy": -0.28076,
				"method": "rhf"
			},
			{
				"type": "occ",
				"energy": -0.27608,
				"method": "rhf"
			},
			{
				"type": "unocc",
				"energy": -0.07302,
				"method": "rhf"
			},
			{
				"type": "unocc",
				"energy": -0.0175,
				"method": "rhf"
			},
			{
				"type": "unocc",
				"energy": -0.00623,
				"method": "rhf"
			},
			{
				"type": "unocc",
				"energy": 0.0601,
				"method": "rhf"
			},
			{
				"type": "unocc",
				"energy": 0.07357,
				"method": "rhf"
			}
		],
		"cosmo_sigma_profile": { 
			"-0.025": 0.0,
			"-0.024": 0.0,
			"-0.023": 0.0,
			"-0.022": 0.0,
			"-0.021": 0.0,
			"-0.02": 0.0,
			"-0.019": 0.286525112524,
			"-0.018": 0.813053488668,
			"-0.017": 1.34730389934,
			"-0.016": 0.363718734607,
			"-0.015": 0.811133094621,
			"-0.014": 0.59636114633,
			"-0.013": 0.56993181135,
			"-0.012": 0.436655286232,
			"-0.011": 1.31024668088,
			"-0.01": 1.37993428815,
			"-0.009": 2.39561976295,
			"-0.008": 8.86560022807,
			"-0.007": 13.7088111756,
			"-0.006": 11.9961596515,
			"-0.005": 12.5722873826,
			"-0.004": 12.9256801678,
			"-0.003": 10.9632144586,
			"-0.002": 12.0620284363,
			"-0.001": 14.9248105029,
			"0.0": 11.2364990445,
			"0.001": 9.66830009454,
			"0.002": 6.82306326745,
			"0.003": 5.51665655619,
			"0.004": 5.98956904093,
			"0.005": 7.93356945709,
			"0.006": 6.4689087042,
			"0.007": 7.6694852948,
			"0.008": 15.6272805872,
			"0.009": 8.87525720635,
			"0.01": 7.19260929195,
			"0.011": 4.32829629416,
			"0.012": 1.53904081003,
			"0.013": 0.864746878803,
			"0.014": 0.370028012777,
			"0.015": 0.0,
			"0.016": 0.0,
			"0.017": 0.0,
			"0.018": 0.0,
			"0.019": 0.0,
			"0.02": 0.0,
			"0.021": 0.0,
			"0.022": 0.0,
			"0.023": 0.0,
			"0.024": 0.0,
			"0.025": 0.0
		}
	}
}
