{
	 "smiles": "CC(=N/CCO)C1=C(O)C2=CC=CC=C2N(C2=CC=CC=C2)C1=O", 
	 "Tm": 475.15, 
	 "num_atms": 42, 
	 "gaussian": { 
		 "optdone": 1, 
		 "sigma_profile": "yes", 
		 "theory": "DFT", 
		 "functional": "B3LYP", 
		 "basiset": "6-31G**", 
		 "properties": { 
			 "R2extent": 8249.8586, 
			 "electric_dipole_moment_norm": 6.69162660494, 
			 "electric_quadrupole_moment_norm": 14.112152446, 
			 "total_energy": -1070.03888855, 
			 "HOMO_LUMO_gap": 0.1645, 
			 "cosmo_polarized_energy": -23.07, 
			 "cosmo_cavitation_energy": 44.4, 
			 "cosmo_dispersion_energy": -30.95, 
			 "cosmo_repulsion_energy": 2.35, 
			 "cosmo_total_nonelectrostatic_energy": 15.8, 
			 "SMD_solvation_energy": 5.59 
		},
		"coords": [
			{
				"x": -0.3092887916,
				"y": 1.6913139099,
				"z": 3.5895497357,
				"element": "C" 
			},
			{
				"x": -0.1829429258,
				"y": 0.3439582565,
				"z": 2.8993271827,
				"element": "C" 
			},
			{
				"x": 0.5172067016,
				"y": -0.6591952687,
				"z": 3.2597243407,
				"element": "N" 
			},
			{
				"x": 1.469005545,
				"y": -0.5365053787,
				"z": 4.3446158456,
				"element": "C" 
			},
			{
				"x": 2.8537753736,
				"y": -0.3267062135,
				"z": 3.6885334141,
				"element": "C" 
			},
			{
				"x": 2.891702007,
				"y": 0.8200011445,
				"z": 2.8677531732,
				"element": "O" 
			},
			{
				"x": -0.8574721807,
				"y": 0.2076118789,
				"z": 1.5667267178,
				"element": "C" 
			},
			{
				"x": -2.2106576388,
				"y": 0.1452065091,
				"z": 1.4154239081,
				"element": "C" 
			},
			{
				"x": -2.9755741377,
				"y": 0.2212292972,
				"z": 2.5358737164,
				"element": "O" 
			},
			{
				"x": -2.8224169237,
				"y": -0.0248446452,
				"z": 0.1128266802,
				"element": "C" 
			},
			{
				"x": -4.21119697,
				"y": -0.1703997392,
				"z": -0.0715132305,
				"element": "C" 
			},
			{
				"x": -4.761512053,
				"y": -0.3259082518,
				"z": -1.3331964216,
				"element": "C" 
			},
			{
				"x": -3.9146481507,
				"y": -0.347098748,
				"z": -2.4495830055,
				"element": "C" 
			},
			{
				"x": -2.5411792334,
				"y": -0.2238032375,
				"z": -2.3016620987,
				"element": "C" 
			},
			{
				"x": -1.9713750057,
				"y": -0.0655468887,
				"z": -1.0227825949,
				"element": "C" 
			},
			{
				"x": -0.5937871849,
				"y": 0.0490350028,
				"z": -0.8531276339,
				"element": "N" 
			},
			{
				"x": 0.2836370223,
				"y": 0.0374889407,
				"z": -2.001748268,
				"element": "C" 
			},
			{
				"x": 0.5732388499,
				"y": 1.2314201258,
				"z": -2.6635962645,
				"element": "C" 
			},
			{
				"x": 1.4155238862,
				"y": 1.2157630108,
				"z": -3.7758304575,
				"element": "C" 
			},
			{
				"x": 1.9661017848,
				"y": 0.012138801,
				"z": -4.2207927963,
				"element": "C" 
			},
			{
				"x": 1.6753614092,
				"y": -1.1781805218,
				"z": -3.5510243866,
				"element": "C" 
			},
			{
				"x": 0.8328897701,
				"y": -1.1685160592,
				"z": -2.4389457772,
				"element": "C" 
			},
			{
				"x": 0.0273193981,
				"y": 0.1829556426,
				"z": 0.407640332,
				"element": "C" 
			},
			{
				"x": 1.2527543811,
				"y": 0.3068989057,
				"z": 0.4618379824,
				"element": "O" 
			},
			{
				"x": 0.5653402473,
				"y": 2.3035810877,
				"z": 3.3444137777,
				"element": "H" 
			},
			{
				"x": -1.2105938646,
				"y": 2.2114737347,
				"z": 3.2596118695,
				"element": "H" 
			},
			{
				"x": -0.3474645467,
				"y": 1.589227012,
				"z": 4.6774850869,
				"element": "H" 
			},
			{
				"x": 1.4855692149,
				"y": -1.4716460894,
				"z": 4.9181573084,
				"element": "H" 
			},
			{
				"x": 1.272546327,
				"y": 0.291211538,
				"z": 5.0404578651,
				"element": "H" 
			},
			{
				"x": 3.115937487,
				"y": -1.2356609266,
				"z": 3.1269317212,
				"element": "H" 
			},
			{
				"x": 3.6022455882,
				"y": -0.1897108899,
				"z": 4.4779302817,
				"element": "H" 
			},
			{
				"x": 2.3863834881,
				"y": 0.6225565043,
				"z": 2.0563153358,
				"element": "H" 
			},
			{
				"x": -3.9054997501,
				"y": 0.3274518907,
				"z": 2.3006739842,
				"element": "H" 
			},
			{
				"x": -4.879335335,
				"y": -0.1862230777,
				"z": 0.7866822315,
				"element": "H" 
			},
			{
				"x": -5.8340671947,
				"y": -0.4377060421,
				"z": -1.4521484147,
				"element": "H" 
			},
			{
				"x": -4.331420428,
				"y": -0.4688263649,
				"z": -3.4448363328,
				"element": "H" 
			},
			{
				"x": -1.8967008817,
				"y": -0.2517258478,
				"z": -3.1707829544,
				"element": "H" 
			},
			{
				"x": 0.1453813492,
				"y": 2.1608717173,
				"z": -2.3015071688,
				"element": "H" 
			},
			{
				"x": 1.6447585396,
				"y": 2.1441277104,
				"z": -4.2903107645,
				"element": "H" 
			},
			{
				"x": 2.6236169725,
				"y": 0.0024207867,
				"z": -5.0850473357,
				"element": "H" 
			},
			{
				"x": 2.1069842391,
				"y": -2.114903387,
				"z": -3.8905980085,
				"element": "H" 
			},
			{
				"x": 0.6050536152,
				"y": -2.0844358296,
				"z": -1.9032585761,
				"element": "H" 
			}
		],
		 "valence_orbital": [ 
			{
				"type": "occ",
				"energy": -0.25445,
				"method": "rhf"
			},
			{
				"type": "occ",
				"energy": -0.24251,
				"method": "rhf"
			},
			{
				"type": "occ",
				"energy": -0.23267,
				"method": "rhf"
			},
			{
				"type": "occ",
				"energy": -0.22557,
				"method": "rhf"
			},
			{
				"type": "occ",
				"energy": -0.22142,
				"method": "rhf"
			},
			{
				"type": "unocc",
				"energy": -0.05692,
				"method": "rhf"
			},
			{
				"type": "unocc",
				"energy": -0.01814,
				"method": "rhf"
			},
			{
				"type": "unocc",
				"energy": -0.01567,
				"method": "rhf"
			},
			{
				"type": "unocc",
				"energy": -0.01126,
				"method": "rhf"
			},
			{
				"type": "unocc",
				"energy": 0.01251,
				"method": "rhf"
			}
		],
		"cosmo_sigma_profile": { 
			"-0.025": 0.0,
			"-0.024": 0.0,
			"-0.023": 0.0,
			"-0.022": 0.0,
			"-0.021": 0.0,
			"-0.02": 0.0,
			"-0.019": 0.578607517002,
			"-0.018": 1.11289950276,
			"-0.017": 0.592058897044,
			"-0.016": 1.12969552141,
			"-0.015": 1.02512091746,
			"-0.014": 0.60770794562,
			"-0.013": 0.797966785171,
			"-0.012": 1.56826477528,
			"-0.011": 0.998932829334,
			"-0.01": 0.875846640483,
			"-0.009": 1.41435797591,
			"-0.008": 1.57885412002,
			"-0.007": 6.78614105098,
			"-0.006": 17.1755323651,
			"-0.005": 22.1477106459,
			"-0.004": 28.9505545173,
			"-0.003": 31.3906292638,
			"-0.002": 32.1795764836,
			"-0.001": 31.9226013718,
			"0.0": 30.1112519507,
			"0.001": 20.7672540323,
			"0.002": 20.9026140619,
			"0.003": 21.7454262333,
			"0.004": 19.5929025689,
			"0.005": 10.1895963984,
			"0.006": 7.52062213806,
			"0.007": 6.37638213917,
			"0.008": 5.47368869126,
			"0.009": 5.68266251463,
			"0.01": 4.11464376932,
			"0.011": 4.51265760753,
			"0.012": 4.52089289191,
			"0.013": 2.8506193826,
			"0.014": 2.93464922228,
			"0.015": 2.4092479775,
			"0.016": 0.989993074026,
			"0.017": 0.375002228211,
			"0.018": 0.0,
			"0.019": 0.0,
			"0.02": 0.0,
			"0.021": 0.0,
			"0.022": 0.0,
			"0.023": 0.0,
			"0.024": 0.0,
			"0.025": 0.0
		}
	}
}
