{
	 "smiles": "CC(CC=C(C1=CC=CC=C1)C1=CC=CC=C1)C1CCC2C3C(O)CC4CC(O)CCC4(C)C3CC(O)C12C", 
	 "Tm": 493.15, 
	 "num_atms": 87, 
	 "gaussian": { 
		 "optdone": 1, 
		 "sigma_profile": "yes", 
		 "theory": "DFT", 
		 "functional": "B3LYP", 
		 "basiset": "6-31G**", 
		 "properties": { 
			 "R2extent": 25567.4041, 
			 "electric_dipole_moment_norm": 2.3237444653, 
			 "electric_quadrupole_moment_norm": 16.0113370332, 
			 "total_energy": -1626.40550332, 
			 "HOMO_LUMO_gap": 0.18608, 
			 "cosmo_polarized_energy": -19.28, 
			 "cosmo_cavitation_energy": 75.15, 
			 "cosmo_dispersion_energy": -48.37, 
			 "cosmo_repulsion_energy": 3.56, 
			 "cosmo_total_nonelectrostatic_energy": 30.34, 
			 "SMD_solvation_energy": 10.92 
		},
		"coords": [
			{
				"x": -4.1439010321,
				"y": -0.464406592,
				"z": -1.3314703646,
				"element": "C" 
			},
			{
				"x": -3.0578023334,
				"y": 0.5824115443,
				"z": -1.0145727505,
				"element": "C" 
			},
			{
				"x": -2.7407211103,
				"y": 0.585634849,
				"z": 0.5130180482,
				"element": "C" 
			},
			{
				"x": -2.0964430432,
				"y": 1.8344792857,
				"z": 1.0525546083,
				"element": "C" 
			},
			{
				"x": -2.6206630582,
				"y": 2.7295359344,
				"z": 1.9198867504,
				"element": "C" 
			},
			{
				"x": -3.9629017929,
				"y": 2.5554471107,
				"z": 2.5586874193,
				"element": "C" 
			},
			{
				"x": -4.9643331263,
				"y": 3.5251049288,
				"z": 2.3813155145,
				"element": "C" 
			},
			{
				"x": -6.2180639714,
				"y": 3.376716834,
				"z": 2.9727127027,
				"element": "C" 
			},
			{
				"x": -6.4930313731,
				"y": 2.2609214348,
				"z": 3.7672925942,
				"element": "C" 
			},
			{
				"x": -5.5034660162,
				"y": 1.2974159837,
				"z": 3.9660221409,
				"element": "C" 
			},
			{
				"x": -4.2501215972,
				"y": 1.445000524,
				"z": 3.3684620405,
				"element": "C" 
			},
			{
				"x": -1.8548175609,
				"y": 3.9535208458,
				"z": 2.299937956,
				"element": "C" 
			},
			{
				"x": -1.021249149,
				"y": 4.6159991296,
				"z": 1.3801467934,
				"element": "C" 
			},
			{
				"x": -0.2804785927,
				"y": 5.7358257653,
				"z": 1.7556504019,
				"element": "C" 
			},
			{
				"x": -0.3625123121,
				"y": 6.230909533,
				"z": 3.0587383329,
				"element": "C" 
			},
			{
				"x": -1.1978817533,
				"y": 5.5958845967,
				"z": 3.9797838852,
				"element": "C" 
			},
			{
				"x": -1.9383413137,
				"y": 4.4760208382,
				"z": 3.6036482259,
				"element": "C" 
			},
			{
				"x": -1.8811587376,
				"y": 0.5585967904,
				"z": -2.051203014,
				"element": "C" 
			},
			{
				"x": -1.2272674101,
				"y": 1.9842371467,
				"z": -2.1817369682,
				"element": "C" 
			},
			{
				"x": 0.2710303247,
				"y": 1.8750759121,
				"z": -1.8100110404,
				"element": "C" 
			},
			{
				"x": 0.4330802443,
				"y": 0.4601582548,
				"z": -1.2337931316,
				"element": "C" 
			},
			{
				"x": 1.8887931876,
				"y": -0.0836423276,
				"z": -1.1404206273,
				"element": "C" 
			},
			{
				"x": 2.5000136655,
				"y": 0.3656682265,
				"z": 0.2043330626,
				"element": "C" 
			},
			{
				"x": 2.5796616747,
				"y": 1.7921517639,
				"z": 0.1695953218,
				"element": "O" 
			},
			{
				"x": 3.8621930544,
				"y": -0.2560627861,
				"z": 0.5106110897,
				"element": "C" 
			},
			{
				"x": 3.787646044,
				"y": -1.7849723994,
				"z": 0.4622191188,
				"element": "C" 
			},
			{
				"x": 5.0949486203,
				"y": -2.4554845486,
				"z": 0.9231465033,
				"element": "C" 
			},
			{
				"x": 5.000401603,
				"y": -3.9864457179,
				"z": 0.9088416112,
				"element": "C" 
			},
			{
				"x": 6.2506760057,
				"y": -4.6028757938,
				"z": 1.206210444,
				"element": "O" 
			},
			{
				"x": 4.5568686533,
				"y": -4.4959180097,
				"z": -0.4611417612,
				"element": "C" 
			},
			{
				"x": 3.2425543709,
				"y": -3.8273705762,
				"z": -0.8956688088,
				"element": "C" 
			},
			{
				"x": 3.321528514,
				"y": -2.2783346542,
				"z": -0.9383852174,
				"element": "C" 
			},
			{
				"x": 4.3212296133,
				"y": -1.8728975573,
				"z": -2.0524802645,
				"element": "C" 
			},
			{
				"x": 1.9365863091,
				"y": -1.638412099,
				"z": -1.3202540778,
				"element": "C" 
			},
			{
				"x": 0.666337811,
				"y": -2.2233348183,
				"z": -0.6762919346,
				"element": "C" 
			},
			{
				"x": -0.6294915553,
				"y": -1.8499090184,
				"z": -1.4457884907,
				"element": "C" 
			},
			{
				"x": -1.7378372921,
				"y": -2.0697525416,
				"z": -0.5724231236,
				"element": "O" 
			},
			{
				"x": -0.5991311782,
				"y": -0.3941509754,
				"z": -2.0229120964,
				"element": "C" 
			},
			{
				"x": -0.2087865682,
				"y": -0.5208245419,
				"z": -3.5260550103,
				"element": "C" 
			},
			{
				"x": -5.0338391372,
				"y": -0.2868124514,
				"z": -0.7169840864,
				"element": "H" 
			},
			{
				"x": -3.7928539844,
				"y": -1.4798315887,
				"z": -1.1489805688,
				"element": "H" 
			},
			{
				"x": -4.4522413818,
				"y": -0.3900047508,
				"z": -2.3812356991,
				"element": "H" 
			},
			{
				"x": -3.5356712562,
				"y": 1.5528252939,
				"z": -1.2149219268,
				"element": "H" 
			},
			{
				"x": -2.1180227173,
				"y": -0.2858980642,
				"z": 0.7369086764,
				"element": "H" 
			},
			{
				"x": -3.691508482,
				"y": 0.425917132,
				"z": 1.0284815979,
				"element": "H" 
			},
			{
				"x": -1.0871222343,
				"y": 2.0407873919,
				"z": 0.7041473486,
				"element": "H" 
			},
			{
				"x": -4.7533712372,
				"y": 4.3979921022,
				"z": 1.77007434,
				"element": "H" 
			},
			{
				"x": -6.9814572743,
				"y": 4.1335684521,
				"z": 2.8143858785,
				"element": "H" 
			},
			{
				"x": -7.4686650963,
				"y": 2.1470644077,
				"z": 4.23130846,
				"element": "H" 
			},
			{
				"x": -5.7037057626,
				"y": 0.4310188872,
				"z": 4.5905262875,
				"element": "H" 
			},
			{
				"x": -3.4784939944,
				"y": 0.6989362934,
				"z": 3.5346652089,
				"element": "H" 
			},
			{
				"x": -0.9707215908,
				"y": 4.2611064978,
				"z": 0.3554869519,
				"element": "H" 
			},
			{
				"x": 0.3507337261,
				"y": 6.2315225869,
				"z": 1.0230102464,
				"element": "H" 
			},
			{
				"x": 0.2094086206,
				"y": 7.1075129104,
				"z": 3.349632762,
				"element": "H" 
			},
			{
				"x": -1.2743258468,
				"y": 5.9731458325,
				"z": 4.9960411514,
				"element": "H" 
			},
			{
				"x": -2.5838853099,
				"y": 3.9905687755,
				"z": 4.3288882181,
				"element": "H" 
			},
			{
				"x": -2.3946712012,
				"y": 0.3409259629,
				"z": -2.9944289185,
				"element": "H" 
			},
			{
				"x": -1.3523399863,
				"y": 2.3754048582,
				"z": -3.196859383,
				"element": "H" 
			},
			{
				"x": -1.743999274,
				"y": 2.6888295391,
				"z": -1.5251104491,
				"element": "H" 
			},
			{
				"x": 0.5953920242,
				"y": 2.6353756896,
				"z": -1.0972420399,
				"element": "H" 
			},
			{
				"x": 0.9084890837,
				"y": 1.9921708005,
				"z": -2.693918316,
				"element": "H" 
			},
			{
				"x": 0.049658243,
				"y": 0.4809660929,
				"z": -0.2056701455,
				"element": "H" 
			},
			{
				"x": 2.4929019834,
				"y": 0.3840477418,
				"z": -1.9279001782,
				"element": "H" 
			},
			{
				"x": 1.8069888309,
				"y": 0.0563543005,
				"z": 1.0067449146,
				"element": "H" 
			},
			{
				"x": 2.8412444745,
				"y": 2.0965332124,
				"z": 1.0482411907,
				"element": "H" 
			},
			{
				"x": 4.1865629894,
				"y": 0.0703720313,
				"z": 1.5095037288,
				"element": "H" 
			},
			{
				"x": 4.6062688414,
				"y": 0.1274430377,
				"z": -0.1970929884,
				"element": "H" 
			},
			{
				"x": 3.0058265369,
				"y": -2.0938559712,
				"z": 1.175791258,
				"element": "H" 
			},
			{
				"x": 5.3378878983,
				"y": -2.1105955805,
				"z": 1.93882769,
				"element": "H" 
			},
			{
				"x": 5.9353225494,
				"y": -2.1551464236,
				"z": 0.2855841381,
				"element": "H" 
			},
			{
				"x": 4.241817558,
				"y": -4.2937798361,
				"z": 1.6520532321,
				"element": "H" 
			},
			{
				"x": 6.5419138014,
				"y": -4.2815721355,
				"z": 2.0695433641,
				"element": "H" 
			},
			{
				"x": 4.4314214992,
				"y": -5.5834448194,
				"z": -0.4166585739,
				"element": "H" 
			},
			{
				"x": 5.362029264,
				"y": -4.3052655797,
				"z": -1.1794663753,
				"element": "H" 
			},
			{
				"x": 2.9311132528,
				"y": -4.2118927508,
				"z": -1.875582145,
				"element": "H" 
			},
			{
				"x": 2.467670072,
				"y": -4.1333885557,
				"z": -0.1831238819,
				"element": "H" 
			},
			{
				"x": 4.339055388,
				"y": -0.794488392,
				"z": -2.2246767143,
				"element": "H" 
			},
			{
				"x": 4.0342049232,
				"y": -2.3478736312,
				"z": -2.9973913072,
				"element": "H" 
			},
			{
				"x": 5.345787042,
				"y": -2.1815421352,
				"z": -1.8341558859,
				"element": "H" 
			},
			{
				"x": 1.8459694443,
				"y": -1.8428309919,
				"z": -2.3924316913,
				"element": "H" 
			},
			{
				"x": 0.5515870096,
				"y": -1.8623785962,
				"z": 0.3532949769,
				"element": "H" 
			},
			{
				"x": 0.7049722051,
				"y": -3.3162202845,
				"z": -0.6209159803,
				"element": "H" 
			},
			{
				"x": -0.7234274013,
				"y": -2.5384725862,
				"z": -2.3003590961,
				"element": "H" 
			},
			{
				"x": -1.6501569779,
				"y": -2.9634433328,
				"z": -0.2149943442,
				"element": "H" 
			},
			{
				"x": -0.9624914917,
				"y": -1.117772753,
				"z": -4.0512108845,
				"element": "H" 
			},
			{
				"x": 0.7579152024,
				"y": -1.0029405842,
				"z": -3.6858282477,
				"element": "H" 
			},
			{
				"x": -0.1668186439,
				"y": 0.4538396893,
				"z": -4.0174076778,
				"element": "H" 
			}
		],
		 "valence_orbital": [ 
			{
				"type": "occ",
				"energy": -0.2536,
				"method": "rhf"
			},
			{
				"type": "occ",
				"energy": -0.24633,
				"method": "rhf"
			},
			{
				"type": "occ",
				"energy": -0.24153,
				"method": "rhf"
			},
			{
				"type": "occ",
				"energy": -0.23971,
				"method": "rhf"
			},
			{
				"type": "occ",
				"energy": -0.20399,
				"method": "rhf"
			},
			{
				"type": "unocc",
				"energy": -0.01791,
				"method": "rhf"
			},
			{
				"type": "unocc",
				"energy": 0.00045,
				"method": "rhf"
			},
			{
				"type": "unocc",
				"energy": 0.00238,
				"method": "rhf"
			},
			{
				"type": "unocc",
				"energy": 0.01246,
				"method": "rhf"
			},
			{
				"type": "unocc",
				"energy": 0.0621,
				"method": "rhf"
			}
		],
		"cosmo_sigma_profile": { 
			"-0.025": 0.0,
			"-0.024": 0.0,
			"-0.023": 0.0,
			"-0.022": 0.0,
			"-0.021": 0.0,
			"-0.02": 0.0,
			"-0.019": 0.0,
			"-0.018": 0.0,
			"-0.017": 0.0,
			"-0.016": 0.0,
			"-0.015": 1.23649819036,
			"-0.014": 2.7487090707,
			"-0.013": 2.50673801529,
			"-0.012": 3.2108846994,
			"-0.011": 2.39343759331,
			"-0.01": 2.33385989793,
			"-0.009": 2.67131768789,
			"-0.008": 3.11493173034,
			"-0.007": 3.44376760275,
			"-0.006": 7.19206394804,
			"-0.005": 18.8268019961,
			"-0.004": 24.2279750964,
			"-0.003": 49.3933107282,
			"-0.002": 82.2071873376,
			"-0.001": 77.8605318853,
			"0.0": 65.5203237598,
			"0.001": 58.6878076254,
			"0.002": 40.242129635,
			"0.003": 33.8461098584,
			"0.004": 28.2043796921,
			"0.005": 24.8538727503,
			"0.006": 19.1924452523,
			"0.007": 7.7696850644,
			"0.008": 3.87704062182,
			"0.009": 1.97412381483,
			"0.01": 2.9837380296,
			"0.011": 2.21065583958,
			"0.012": 2.32143860481,
			"0.013": 2.12664094728,
			"0.014": 2.73216755453,
			"0.015": 1.95505385929,
			"0.016": 0.0,
			"0.017": 0.0,
			"0.018": 0.0,
			"0.019": 0.0,
			"0.02": 0.0,
			"0.021": 0.0,
			"0.022": 0.0,
			"0.023": 0.0,
			"0.024": 0.0,
			"0.025": 0.0
		}
	}
}
