{
	 "smiles": "OCCC(F)(F)C(F)(F)C(F)(F)C(F)(F)C(F)(F)C(F)(F)F", 
	 "Tm": 238.15, 
	 "num_atms": 27, 
	 "gaussian": { 
		 "optdone": 1, 
		 "sigma_profile": "yes", 
		 "theory": "DFT", 
		 "functional": "B3LYP", 
		 "basiset": "6-31G**", 
		 "properties": { 
			 "R2extent": 8100.8566, 
			 "electric_dipole_moment_norm": 1.83079176588, 
			 "electric_quadrupole_moment_norm": 12.7138384405, 
			 "total_energy": -1680.95894314, 
			 "HOMO_LUMO_gap": 0.30209, 
			 "cosmo_polarized_energy": -7.81, 
			 "cosmo_cavitation_energy": 34.68, 
			 "cosmo_dispersion_energy": -23.24, 
			 "cosmo_repulsion_energy": 1.55, 
			 "cosmo_total_nonelectrostatic_energy": 13.0, 
			 "SMD_solvation_energy": 9.87 
		},
		"coords": [
			{
				"x": -0.6323458727,
				"y": -2.2903082934,
				"z": -3.6503594214,
				"element": "O" 
			},
			{
				"x": -0.8257996229,
				"y": -1.4453098223,
				"z": -2.5283265383,
				"element": "C" 
			},
			{
				"x": 0.2004066766,
				"y": -0.2980499566,
				"z": -2.528100977,
				"element": "C" 
			},
			{
				"x": 0.1033493083,
				"y": 0.6845017999,
				"z": -1.3683256147,
				"element": "C" 
			},
			{
				"x": -1.1920234256,
				"y": 0.8512496289,
				"z": -0.9682769053,
				"element": "F" 
			},
			{
				"x": 0.5570139969,
				"y": 1.9075427845,
				"z": -1.7825989701,
				"element": "F" 
			},
			{
				"x": 0.9534363344,
				"y": 0.3888123621,
				"z": -0.0972102155,
				"element": "C" 
			},
			{
				"x": 0.7294949453,
				"y": 1.3864488328,
				"z": 0.7906548094,
				"element": "F" 
			},
			{
				"x": 2.2625331937,
				"y": 0.411378946,
				"z": -0.4650211877,
				"element": "F" 
			},
			{
				"x": 0.698466469,
				"y": -0.9602566214,
				"z": 0.6162850388,
				"element": "C" 
			},
			{
				"x": -0.6399415138,
				"y": -1.1480298313,
				"z": 0.7370577773,
				"element": "F" 
			},
			{
				"x": 1.2027486051,
				"y": -1.9575621036,
				"z": -0.1533930077,
				"element": "F" 
			},
			{
				"x": 1.2780954602,
				"y": -1.1239207046,
				"z": 2.058096528,
				"element": "C" 
			},
			{
				"x": 0.6143797576,
				"y": -0.2904364615,
				"z": 2.8853117511,
				"element": "F" 
			},
			{
				"x": 1.0083469277,
				"y": -2.4043354712,
				"z": 2.4189278607,
				"element": "F" 
			},
			{
				"x": 2.8006292952,
				"y": -0.8874135904,
				"z": 2.2313825697,
				"element": "C" 
			},
			{
				"x": 3.4707519247,
				"y": -1.5196287715,
				"z": 1.2409409134,
				"element": "F" 
			},
			{
				"x": 3.0396075539,
				"y": 0.4412433488,
				"z": 2.1586152683,
				"element": "F" 
			},
			{
				"x": 3.3749505807,
				"y": -1.39540552,
				"z": 3.5812971346,
				"element": "C" 
			},
			{
				"x": 4.6273291486,
				"y": -0.9427201966,
				"z": 3.7129756957,
				"element": "F" 
			},
			{
				"x": 3.3938713238,
				"y": -2.7313948013,
				"z": 3.6115850304,
				"element": "F" 
			},
			{
				"x": 2.6399235665,
				"y": -0.9418343862,
				"z": 4.6049767163,
				"element": "F" 
			},
			{
				"x": -0.8921364849,
				"y": -1.8039229076,
				"z": -4.4434445147,
				"element": "H" 
			},
			{
				"x": -1.8419767473,
				"y": -1.0313939803,
				"z": -2.4949879758,
				"element": "H" 
			},
			{
				"x": -0.7027729018,
				"y": -2.0818613886,
				"z": -1.6518230948,
				"element": "H" 
			},
			{
				"x": 0.0544072731,
				"y": 0.3074499345,
				"z": -3.4300450525,
				"element": "H" 
			},
			{
				"x": 1.2136542276,
				"y": -0.705242829,
				"z": -2.5749936177,
				"element": "H" 
			}
		],
		 "valence_orbital": [ 
			{
				"type": "occ",
				"energy": -0.38744,
				"method": "rhf"
			},
			{
				"type": "occ",
				"energy": -0.362,
				"method": "rhf"
			},
			{
				"type": "occ",
				"energy": -0.34501,
				"method": "rhf"
			},
			{
				"type": "occ",
				"energy": -0.3381,
				"method": "rhf"
			},
			{
				"type": "occ",
				"energy": -0.28423,
				"method": "rhf"
			},
			{
				"type": "unocc",
				"energy": 0.01786,
				"method": "rhf"
			},
			{
				"type": "unocc",
				"energy": 0.02099,
				"method": "rhf"
			},
			{
				"type": "unocc",
				"energy": 0.05579,
				"method": "rhf"
			},
			{
				"type": "unocc",
				"energy": 0.05813,
				"method": "rhf"
			},
			{
				"type": "unocc",
				"energy": 0.06941,
				"method": "rhf"
			}
		],
		"cosmo_sigma_profile": { 
			"-0.025": 0.0,
			"-0.024": 0.0,
			"-0.023": 0.0,
			"-0.022": 0.0,
			"-0.021": 0.0,
			"-0.02": 0.0,
			"-0.019": 0.0,
			"-0.018": 0.0,
			"-0.017": 0.00858573327905,
			"-0.016": 0.778619244663,
			"-0.015": 1.34755013648,
			"-0.014": 0.941997515209,
			"-0.013": 0.80755182745,
			"-0.012": 1.35020486869,
			"-0.011": 1.55501898243,
			"-0.01": 1.31306353568,
			"-0.009": 0.688519569592,
			"-0.008": 1.5589863687,
			"-0.007": 3.46378501872,
			"-0.006": 3.68402689602,
			"-0.005": 6.65622731384,
			"-0.004": 8.01404071932,
			"-0.003": 13.0170276246,
			"-0.002": 18.8473731501,
			"-0.001": 22.8138722702,
			"0.0": 43.2285520494,
			"0.001": 85.1617552703,
			"0.002": 28.874158938,
			"0.003": 16.4594497485,
			"0.004": 2.45750830103,
			"0.005": 0.841343302769,
			"0.006": 1.2197566027,
			"0.007": 1.58000973842,
			"0.008": 0.852469492553,
			"0.009": 1.27556731265,
			"0.01": 0.964641797509,
			"0.011": 0.891897670135,
			"0.012": 1.7346783209,
			"0.013": 2.08790340355,
			"0.014": 1.58491105916,
			"0.015": 0.0188215003732,
			"0.016": 0.0,
			"0.017": 0.0,
			"0.018": 0.0,
			"0.019": 0.0,
			"0.02": 0.0,
			"0.021": 0.0,
			"0.022": 0.0,
			"0.023": 0.0,
			"0.024": 0.0,
			"0.025": 0.0
		}
	}
}
