{
	 "smiles": "NC(=O)C(F)(F)C1=CC=CC=C1", 
	 "Tm": 390.15, 
	 "num_atms": 19, 
	 "gaussian": { 
		 "optdone": 1, 
		 "sigma_profile": "yes", 
		 "theory": "DFT", 
		 "functional": "B3LYP", 
		 "basiset": "6-31G**", 
		 "properties": { 
			 "R2extent": 2469.8526, 
			 "electric_dipole_moment_norm": 2.94526413417, 
			 "electric_quadrupole_moment_norm": 13.7245535683, 
			 "total_energy": -638.737998228, 
			 "HOMO_LUMO_gap": 0.22806, 
			 "cosmo_polarized_energy": -12.27, 
			 "cosmo_cavitation_energy": 24.12, 
			 "cosmo_dispersion_energy": -17.38, 
			 "cosmo_repulsion_energy": 1.37, 
			 "cosmo_total_nonelectrostatic_energy": 8.11, 
			 "SMD_solvation_energy": 5.62 
		},
		"coords": [
			{
				"x": 0.0688884655,
				"y": -2.5760994539,
				"z": -1.3212780694,
				"element": "N" 
			},
			{
				"x": 0.8929250001,
				"y": -1.5536977593,
				"z": -1.6592090344,
				"element": "C" 
			},
			{
				"x": 1.9853321872,
				"y": -1.674237085,
				"z": -2.1855598249,
				"element": "O" 
			},
			{
				"x": 0.3522556982,
				"y": -0.1427700192,
				"z": -1.3021948869,
				"element": "C" 
			},
			{
				"x": 0.3017745918,
				"y": 0.5602767367,
				"z": -2.4748965058,
				"element": "F" 
			},
			{
				"x": -0.9498008215,
				"y": -0.254783594,
				"z": -0.8463281146,
				"element": "F" 
			},
			{
				"x": 1.1983654859,
				"y": 0.5856851952,
				"z": -0.2897886848,
				"element": "C" 
			},
			{
				"x": 0.759824075,
				"y": 0.749867652,
				"z": 1.0269990894,
				"element": "C" 
			},
			{
				"x": 1.5671006448,
				"y": 1.4176280899,
				"z": 1.948962812,
				"element": "C" 
			},
			{
				"x": 2.810676256,
				"y": 1.9163157616,
				"z": 1.5587671649,
				"element": "C" 
			},
			{
				"x": 3.2487668392,
				"y": 1.7469203625,
				"z": 0.2427956483,
				"element": "C" 
			},
			{
				"x": 2.4467200975,
				"y": 1.0829053507,
				"z": -0.6832290115,
				"element": "C" 
			},
			{
				"x": -0.8618966924,
				"y": -2.3987383139,
				"z": -0.9810964664,
				"element": "H" 
			},
			{
				"x": 0.346644981,
				"y": -3.5134090789,
				"z": -1.5698423428,
				"element": "H" 
			},
			{
				"x": -0.2100195313,
				"y": 0.3666905652,
				"z": 1.3239684995,
				"element": "H" 
			},
			{
				"x": 1.2221322532,
				"y": 1.5495629886,
				"z": 2.9702739041,
				"element": "H" 
			},
			{
				"x": 3.4378842674,
				"y": 2.4354463385,
				"z": 2.2778082684,
				"element": "H" 
			},
			{
				"x": 4.2166139407,
				"y": 2.1328804069,
				"z": -0.0630964522,
				"element": "H" 
			},
			{
				"x": 2.7821122618,
				"y": 0.9350558564,
				"z": -1.7031559931,
				"element": "H" 
			}
		],
		 "valence_orbital": [ 
			{
				"type": "occ",
				"energy": -0.34708,
				"method": "rhf"
			},
			{
				"type": "occ",
				"energy": -0.28248,
				"method": "rhf"
			},
			{
				"type": "occ",
				"energy": -0.26743,
				"method": "rhf"
			},
			{
				"type": "occ",
				"energy": -0.25585,
				"method": "rhf"
			},
			{
				"type": "occ",
				"energy": -0.25376,
				"method": "rhf"
			},
			{
				"type": "unocc",
				"energy": -0.0257,
				"method": "rhf"
			},
			{
				"type": "unocc",
				"energy": -0.00685,
				"method": "rhf"
			},
			{
				"type": "unocc",
				"energy": 0.02203,
				"method": "rhf"
			},
			{
				"type": "unocc",
				"energy": 0.07675,
				"method": "rhf"
			},
			{
				"type": "unocc",
				"energy": 0.09352,
				"method": "rhf"
			}
		],
		"cosmo_sigma_profile": { 
			"-0.025": 0.0,
			"-0.024": 0.0,
			"-0.023": 0.0,
			"-0.022": 0.0,
			"-0.021": 0.0,
			"-0.02": 0.0,
			"-0.019": 0.0,
			"-0.018": 0.0,
			"-0.017": 0.0,
			"-0.016": 0.0448036342759,
			"-0.015": 1.06153676299,
			"-0.014": 2.4055289892,
			"-0.013": 1.79623741947,
			"-0.012": 2.00384942163,
			"-0.011": 2.42659168543,
			"-0.01": 1.8847461687,
			"-0.009": 1.67203886227,
			"-0.008": 1.53893675454,
			"-0.007": 2.70501416567,
			"-0.006": 9.57446392221,
			"-0.005": 13.0923369964,
			"-0.004": 14.0871202603,
			"-0.003": 10.3996030654,
			"-0.002": 9.32259814966,
			"-0.001": 9.03937044101,
			"0.0": 11.3384527775,
			"0.001": 13.8714643679,
			"0.002": 13.5200120322,
			"0.003": 20.5717911949,
			"0.004": 24.7090198093,
			"0.005": 6.42724960577,
			"0.006": 2.77912036823,
			"0.007": 1.96173891011,
			"0.008": 1.3189503595,
			"0.009": 1.48586123332,
			"0.01": 1.98754431721,
			"0.011": 1.91741154454,
			"0.012": 4.08498907658,
			"0.013": 3.48731135631,
			"0.014": 0.237479611535,
			"0.015": 0.0,
			"0.016": 0.0,
			"0.017": 0.0,
			"0.018": 0.0,
			"0.019": 0.0,
			"0.02": 0.0,
			"0.021": 0.0,
			"0.022": 0.0,
			"0.023": 0.0,
			"0.024": 0.0,
			"0.025": 0.0
		}
	}
}
