{
	 "smiles": "ClC1(Cl)C(=O)NC2=C1C=C(C=C2)S(Cl)(=O)=O", 
	 "Tm": 408.15, 
	 "num_atms": 20, 
	 "gaussian": { 
		 "optdone": 1, 
		 "sigma_profile": "yes", 
		 "theory": "DFT", 
		 "functional": "B3LYP", 
		 "basiset": "6-31G**", 
		 "properties": { 
			 "R2extent": 6213.1605, 
			 "electric_dipole_moment_norm": 5.17565170196, 
			 "electric_quadrupole_moment_norm": 25.8208382457, 
			 "total_energy": -2366.38270953, 
			 "HOMO_LUMO_gap": 0.1727, 
			 "cosmo_polarized_energy": -18.71, 
			 "cosmo_cavitation_energy": 32.46, 
			 "cosmo_dispersion_energy": -23.68, 
			 "cosmo_repulsion_energy": 1.82, 
			 "cosmo_total_nonelectrostatic_energy": 10.6, 
			 "SMD_solvation_energy": 3.98 
		},
		"coords": [
			{
				"x": -3.1416382021,
				"y": -2.3190453028,
				"z": 1.3906999581,
				"element": "Cl" 
			},
			{
				"x": -2.6372565801,
				"y": -1.2624066303,
				"z": 0.0228400663,
				"element": "C" 
			},
			{
				"x": -2.8343853758,
				"y": -2.1307523882,
				"z": -1.5422006625,
				"element": "Cl" 
			},
			{
				"x": -3.5427282251,
				"y": 0.0212927473,
				"z": 0.0107662754,
				"element": "C" 
			},
			{
				"x": -4.7384595817,
				"y": 0.0755433395,
				"z": -0.1130191656,
				"element": "O" 
			},
			{
				"x": -2.6714074149,
				"y": 1.0877724391,
				"z": 0.1744351546,
				"element": "N" 
			},
			{
				"x": -1.3427037366,
				"y": 0.6928898916,
				"z": 0.2891397659,
				"element": "C" 
			},
			{
				"x": -1.2522785958,
				"y": -0.7092468463,
				"z": 0.2034673363,
				"element": "C" 
			},
			{
				"x": -0.0291248519,
				"y": -1.3465475059,
				"z": 0.2924798253,
				"element": "C" 
			},
			{
				"x": 1.1011046917,
				"y": -0.5385679002,
				"z": 0.4701795891,
				"element": "C" 
			},
			{
				"x": 1.0244725368,
				"y": 0.8547753919,
				"z": 0.5578287251,
				"element": "C" 
			},
			{
				"x": -0.2141813409,
				"y": 1.4900655468,
				"z": 0.4685885146,
				"element": "C" 
			},
			{
				"x": 2.6975244056,
				"y": -1.3180223027,
				"z": 0.6037361955,
				"element": "S" 
			},
			{
				"x": 3.3174306769,
				"y": -1.3753297831,
				"z": -1.4367658018,
				"element": "Cl" 
			},
			{
				"x": 2.5202885006,
				"y": -2.7054216348,
				"z": 1.0118772408,
				"element": "O" 
			},
			{
				"x": 3.6174951074,
				"y": -0.4114370775,
				"z": 1.2791633359,
				"element": "O" 
			},
			{
				"x": -3.0056253294,
				"y": 2.0406301729,
				"z": 0.2038730721,
				"element": "H" 
			},
			{
				"x": 0.0589730285,
				"y": -2.4260580208,
				"z": 0.238091875,
				"element": "H" 
			},
			{
				"x": 1.9294958368,
				"y": 1.4332805653,
				"z": 0.7056901858,
				"element": "H" 
			},
			{
				"x": -0.2894955501,
				"y": 2.5696852981,
				"z": 0.5416285141,
				"element": "H" 
			}
		],
		 "valence_orbital": [ 
			{
				"type": "occ",
				"energy": -0.32825,
				"method": "rhf"
			},
			{
				"type": "occ",
				"energy": -0.31982,
				"method": "rhf"
			},
			{
				"type": "occ",
				"energy": -0.30474,
				"method": "rhf"
			},
			{
				"type": "occ",
				"energy": -0.30058,
				"method": "rhf"
			},
			{
				"type": "occ",
				"energy": -0.27282,
				"method": "rhf"
			},
			{
				"type": "unocc",
				"energy": -0.10012,
				"method": "rhf"
			},
			{
				"type": "unocc",
				"energy": -0.08695,
				"method": "rhf"
			},
			{
				"type": "unocc",
				"energy": -0.05672,
				"method": "rhf"
			},
			{
				"type": "unocc",
				"energy": -0.03423,
				"method": "rhf"
			},
			{
				"type": "unocc",
				"energy": -0.02675,
				"method": "rhf"
			}
		],
		"cosmo_sigma_profile": { 
			"-0.025": 0.0,
			"-0.024": 0.0,
			"-0.023": 0.0,
			"-0.022": 0.0,
			"-0.021": 0.0,
			"-0.02": 0.0,
			"-0.019": 0.0,
			"-0.018": 1.08220975045,
			"-0.017": 1.65761258228,
			"-0.016": 1.6027380968,
			"-0.015": 1.28886243558,
			"-0.014": 0.952174748503,
			"-0.013": 1.48237112515,
			"-0.012": 1.14553623725,
			"-0.011": 1.3115441988,
			"-0.01": 2.3223608043,
			"-0.009": 5.44651359344,
			"-0.008": 6.58078578763,
			"-0.007": 7.31071349195,
			"-0.006": 7.46136957721,
			"-0.005": 8.45085297982,
			"-0.004": 11.1719793028,
			"-0.003": 16.4794166484,
			"-0.002": 18.5055432524,
			"-0.001": 22.4192483294,
			"0.0": 20.2278616986,
			"0.001": 18.2670787439,
			"0.002": 21.3664267075,
			"0.003": 32.2210609954,
			"0.004": 15.1085714717,
			"0.005": 5.36735890398,
			"0.006": 5.32311019449,
			"0.007": 8.07709819716,
			"0.008": 11.0069520267,
			"0.009": 7.07539823057,
			"0.01": 5.21181732421,
			"0.011": 2.64755954885,
			"0.012": 0.0357840938832,
			"0.013": 0.0,
			"0.014": 0.0,
			"0.015": 0.0,
			"0.016": 0.0,
			"0.017": 0.0,
			"0.018": 0.0,
			"0.019": 0.0,
			"0.02": 0.0,
			"0.021": 0.0,
			"0.022": 0.0,
			"0.023": 0.0,
			"0.024": 0.0,
			"0.025": 0.0
		}
	}
}
