{
	 "smiles": "CN1C(Cl)=CN=C1CC#N", 
	 "Tm": 416.15, 
	 "num_atms": 16, 
	 "gaussian": { 
		 "optdone": 1, 
		 "sigma_profile": "yes", 
		 "theory": "DFT", 
		 "functional": "B3LYP", 
		 "basiset": "6-31G**", 
		 "properties": { 
			 "R2extent": 1907.8527, 
			 "electric_dipole_moment_norm": 3.17861955415, 
			 "electric_quadrupole_moment_norm": 13.2347851785, 
			 "total_energy": -856.670135461, 
			 "HOMO_LUMO_gap": 0.23284, 
			 "cosmo_polarized_energy": -12.81, 
			 "cosmo_cavitation_energy": 22.88, 
			 "cosmo_dispersion_energy": -16.25, 
			 "cosmo_repulsion_energy": 1.32, 
			 "cosmo_total_nonelectrostatic_energy": 7.94, 
			 "SMD_solvation_energy": 3.53 
		},
		"coords": [
			{
				"x": -1.1429228826,
				"y": -0.1121221551,
				"z": -1.4052374029,
				"element": "C" 
			},
			{
				"x": -0.3618096925,
				"y": -0.186540678,
				"z": -0.1759631117,
				"element": "N" 
			},
			{
				"x": -0.0142433646,
				"y": 0.8543119688,
				"z": 0.6680976292,
				"element": "C" 
			},
			{
				"x": -0.4492539481,
				"y": 2.4930218607,
				"z": 0.3462948425,
				"element": "Cl" 
			},
			{
				"x": 0.6913023887,
				"y": 0.3094843958,
				"z": 1.7100539581,
				"element": "C" 
			},
			{
				"x": 0.7866247177,
				"y": -1.0486294416,
				"z": 1.5387239738,
				"element": "N" 
			},
			{
				"x": 0.1533282058,
				"y": -1.3156327251,
				"z": 0.4153054759,
				"element": "C" 
			},
			{
				"x": 0.0316541716,
				"y": -2.6979957504,
				"z": -0.1643451602,
				"element": "C" 
			},
			{
				"x": -1.3571303087,
				"y": -3.1514878554,
				"z": -0.3268071575,
				"element": "C" 
			},
			{
				"x": -2.4602335167,
				"y": -3.4806595836,
				"z": -0.4737686024,
				"element": "N" 
			},
			{
				"x": -0.632387687,
				"y": -0.6532160552,
				"z": -2.2061223744,
				"element": "H" 
			},
			{
				"x": -1.2407346156,
				"y": 0.9324780381,
				"z": -1.6983514755,
				"element": "H" 
			},
			{
				"x": -2.1374244771,
				"y": -0.5420984549,
				"z": -1.2605166309,
				"element": "H" 
			},
			{
				"x": 1.1260208694,
				"y": 0.8209337031,
				"z": 2.5559812807,
				"element": "H" 
			},
			{
				"x": 0.5329710063,
				"y": -2.7775890534,
				"z": -1.1386333585,
				"element": "H" 
			},
			{
				"x": 0.5528391334,
				"y": -3.3693582139,
				"z": 0.5240881141,
				"element": "H" 
			}
		],
		 "valence_orbital": [ 
			{
				"type": "occ",
				"energy": -0.33996,
				"method": "rhf"
			},
			{
				"type": "occ",
				"energy": -0.33701,
				"method": "rhf"
			},
			{
				"type": "occ",
				"energy": -0.28921,
				"method": "rhf"
			},
			{
				"type": "occ",
				"energy": -0.28567,
				"method": "rhf"
			},
			{
				"type": "occ",
				"energy": -0.23546,
				"method": "rhf"
			},
			{
				"type": "unocc",
				"energy": -0.00262,
				"method": "rhf"
			},
			{
				"type": "unocc",
				"energy": 0.01909,
				"method": "rhf"
			},
			{
				"type": "unocc",
				"energy": 0.02562,
				"method": "rhf"
			},
			{
				"type": "unocc",
				"energy": 0.03159,
				"method": "rhf"
			},
			{
				"type": "unocc",
				"energy": 0.05351,
				"method": "rhf"
			}
		],
		"cosmo_sigma_profile": { 
			"-0.025": 0.0,
			"-0.024": 0.0,
			"-0.023": 0.0,
			"-0.022": 0.0,
			"-0.021": 0.0,
			"-0.02": 0.0,
			"-0.019": 0.0,
			"-0.018": 0.0,
			"-0.017": 0.0,
			"-0.016": 0.0,
			"-0.015": 0.0,
			"-0.014": 0.0,
			"-0.013": 0.0,
			"-0.012": 0.0,
			"-0.011": 0.347096656017,
			"-0.01": 4.65597126496,
			"-0.009": 5.85544394639,
			"-0.008": 6.12278981624,
			"-0.007": 8.47172877023,
			"-0.006": 9.9066642231,
			"-0.005": 10.6699945945,
			"-0.004": 14.6459339648,
			"-0.003": 12.2961991668,
			"-0.002": 10.0254663678,
			"-0.001": 10.346594638,
			"0.0": 10.0142767854,
			"0.001": 11.3716899579,
			"0.002": 13.4942105839,
			"0.003": 13.7090392872,
			"0.004": 7.72046548044,
			"0.005": 4.04619841975,
			"0.006": 3.81675551311,
			"0.007": 4.15767062696,
			"0.008": 4.67174847153,
			"0.009": 4.08740493924,
			"0.01": 3.80604493863,
			"0.011": 3.70660864864,
			"0.012": 3.43370605205,
			"0.013": 2.03469348735,
			"0.014": 1.18084098769,
			"0.015": 0.763350037451,
			"0.016": 0.838675421548,
			"0.017": 0.159612871216,
			"0.018": 0.0,
			"0.019": 0.0,
			"0.02": 0.0,
			"0.021": 0.0,
			"0.022": 0.0,
			"0.023": 0.0,
			"0.024": 0.0,
			"0.025": 0.0
		}
	}
}
