{
	 "smiles": "ClC1=CC=C(C=C1)C(=O)N=C=S", 
	 "Tm": 318.65, 
	 "num_atms": 16, 
	 "gaussian": { 
		 "optdone": 1, 
		 "sigma_profile": "yes", 
		 "theory": "DFT", 
		 "functional": "B3LYP", 
		 "basiset": "6-31G**", 
		 "properties": { 
			 "R2extent": 4294.5164, 
			 "electric_dipole_moment_norm": 1.83278970152, 
			 "electric_quadrupole_moment_norm": 7.4207402279, 
			 "total_energy": -1295.6149662, 
			 "HOMO_LUMO_gap": 0.17576, 
			 "cosmo_polarized_energy": -5.73, 
			 "cosmo_cavitation_energy": 26.44, 
			 "cosmo_dispersion_energy": -19.71, 
			 "cosmo_repulsion_energy": 1.54, 
			 "cosmo_total_nonelectrostatic_energy": 8.27, 
			 "SMD_solvation_energy": 5.39 
		},
		"coords": [
			{
				"x": -1.8162656482,
				"y": -0.1326081124,
				"z": 4.0389094099,
				"element": "Cl" 
			},
			{
				"x": -0.8784926357,
				"y": -0.2261872209,
				"z": 2.5627685339,
				"element": "C" 
			},
			{
				"x": -1.4752170932,
				"y": -0.7296372409,
				"z": 1.4051581894,
				"element": "C" 
			},
			{
				"x": -0.7253837374,
				"y": -0.8018681214,
				"z": 0.2344678159,
				"element": "C" 
			},
			{
				"x": 0.6095302876,
				"y": -0.3746329476,
				"z": 0.2206036326,
				"element": "C" 
			},
			{
				"x": 1.1903889603,
				"y": 0.1282420972,
				"z": 1.3950362944,
				"element": "C" 
			},
			{
				"x": 0.4514043403,
				"y": 0.2049514647,
				"z": 2.5693307758,
				"element": "C" 
			},
			{
				"x": 1.4466814601,
				"y": -0.4322112887,
				"z": -0.9999006975,
				"element": "C" 
			},
			{
				"x": 2.6041403556,
				"y": -0.0745096533,
				"z": -1.0598740017,
				"element": "O" 
			},
			{
				"x": 0.7722767883,
				"y": -0.9561627502,
				"z": -2.1388105589,
				"element": "N" 
			},
			{
				"x": 1.0294962065,
				"y": -1.1857502104,
				"z": -3.3009198213,
				"element": "C" 
			},
			{
				"x": 1.24019695,
				"y": -1.5261805331,
				"z": -4.8206982722,
				"element": "S" 
			},
			{
				"x": -2.5081720886,
				"y": -1.057772041,
				"z": 1.4250504356,
				"element": "H" 
			},
			{
				"x": -1.1742895959,
				"y": -1.1904588677,
				"z": -0.6732189117,
				"element": "H" 
			},
			{
				"x": 2.2243551377,
				"y": 0.4546910736,
				"z": 1.3677564427,
				"element": "H" 
			},
			{
				"x": 0.8920503126,
				"y": 0.591994352,
				"z": 3.4810407332,
				"element": "H" 
			}
		],
		 "valence_orbital": [ 
			{
				"type": "occ",
				"energy": -0.31239,
				"method": "rhf"
			},
			{
				"type": "occ",
				"energy": -0.28599,
				"method": "rhf"
			},
			{
				"type": "occ",
				"energy": -0.2793,
				"method": "rhf"
			},
			{
				"type": "occ",
				"energy": -0.27585,
				"method": "rhf"
			},
			{
				"type": "occ",
				"energy": -0.26704,
				"method": "rhf"
			},
			{
				"type": "unocc",
				"energy": -0.09128,
				"method": "rhf"
			},
			{
				"type": "unocc",
				"energy": -0.05027,
				"method": "rhf"
			},
			{
				"type": "unocc",
				"energy": -0.03402,
				"method": "rhf"
			},
			{
				"type": "unocc",
				"energy": -0.02153,
				"method": "rhf"
			},
			{
				"type": "unocc",
				"energy": 0.01563,
				"method": "rhf"
			}
		],
		"cosmo_sigma_profile": { 
			"-0.025": 0.0,
			"-0.024": 0.0,
			"-0.023": 0.0,
			"-0.022": 0.0,
			"-0.021": 0.0,
			"-0.02": 0.0,
			"-0.019": 0.0,
			"-0.018": 0.0,
			"-0.017": 0.0,
			"-0.016": 0.0,
			"-0.015": 0.0,
			"-0.014": 0.0,
			"-0.013": 0.0,
			"-0.012": 0.0,
			"-0.011": 0.0,
			"-0.01": 0.0,
			"-0.009": 0.0913499195815,
			"-0.008": 3.69937727664,
			"-0.007": 7.14047759005,
			"-0.006": 7.3832005753,
			"-0.005": 6.39348462679,
			"-0.004": 9.82588315531,
			"-0.003": 14.574026363,
			"-0.002": 19.1103085308,
			"-0.001": 24.2381175551,
			"0.0": 28.0354278763,
			"0.001": 31.4568162607,
			"0.002": 26.1929880983,
			"0.003": 16.6371871048,
			"0.004": 10.602239487,
			"0.005": 1.83251228971,
			"0.006": 1.00405372179,
			"0.007": 1.88013555625,
			"0.008": 1.81478681067,
			"0.009": 2.84753648382,
			"0.01": 4.20593595058,
			"0.011": 1.32408771444,
			"0.012": 0.0,
			"0.013": 0.0,
			"0.014": 0.0,
			"0.015": 0.0,
			"0.016": 0.0,
			"0.017": 0.0,
			"0.018": 0.0,
			"0.019": 0.0,
			"0.02": 0.0,
			"0.021": 0.0,
			"0.022": 0.0,
			"0.023": 0.0,
			"0.024": 0.0,
			"0.025": 0.0
		}
	}
}
