{
	 "smiles": "CCC1=C(N)N=CC=C1", 
	 "Tm": 312.15, 
	 "num_atms": 19, 
	 "gaussian": { 
		 "optdone": 1, 
		 "sigma_profile": "yes", 
		 "theory": "DFT", 
		 "functional": "B3LYP", 
		 "basiset": "6-31G**", 
		 "properties": { 
			 "R2extent": 1405.1517, 
			 "electric_dipole_moment_norm": 2.02627788075, 
			 "electric_quadrupole_moment_norm": 5.75380162849, 
			 "total_energy": -382.289555232, 
			 "HOMO_LUMO_gap": 0.19996, 
			 "cosmo_polarized_energy": -8.48, 
			 "cosmo_cavitation_energy": 21.73, 
			 "cosmo_dispersion_energy": -16.23, 
			 "cosmo_repulsion_energy": 1.34, 
			 "cosmo_total_nonelectrostatic_energy": 6.85, 
			 "SMD_solvation_energy": 2.47 
		},
		"coords": [
			{
				"x": 1.4193870941,
				"y": -1.5637012333,
				"z": 2.1093600626,
				"element": "C" 
			},
			{
				"x": 1.7055207016,
				"y": -0.5753447904,
				"z": 0.9630074256,
				"element": "C" 
			},
			{
				"x": 0.8066692784,
				"y": -0.7653995204,
				"z": -0.2386892144,
				"element": "C" 
			},
			{
				"x": -0.5549974847,
				"y": -0.3625769727,
				"z": -0.2289479996,
				"element": "C" 
			},
			{
				"x": -1.1264275113,
				"y": 0.2161370773,
				"z": 0.8973154938,
				"element": "N" 
			},
			{
				"x": -1.3848706388,
				"y": -0.5444003247,
				"z": -1.2654460291,
				"element": "N" 
			},
			{
				"x": -0.9062934923,
				"y": -1.1465360024,
				"z": -2.3609137299,
				"element": "C" 
			},
			{
				"x": 0.4087174599,
				"y": -1.5782417944,
				"z": -2.4900377254,
				"element": "C" 
			},
			{
				"x": 1.2650433171,
				"y": -1.3727692377,
				"z": -1.4038040381,
				"element": "C" 
			},
			{
				"x": 1.5836721952,
				"y": -2.5938301429,
				"z": 1.7783934991,
				"element": "H" 
			},
			{
				"x": 2.0771346466,
				"y": -1.3720007648,
				"z": 2.9637226973,
				"element": "H" 
			},
			{
				"x": 0.3827803109,
				"y": -1.4850644864,
				"z": 2.4491035992,
				"element": "H" 
			},
			{
				"x": 1.6214838612,
				"y": 0.4542197954,
				"z": 1.3423135882,
				"element": "H" 
			},
			{
				"x": 2.748275881,
				"y": -0.6831661884,
				"z": 0.6431227678,
				"element": "H" 
			},
			{
				"x": -0.5197600413,
				"y": 0.7682025423,
				"z": 1.4862689523,
				"element": "H" 
			},
			{
				"x": -2.0175197142,
				"y": 0.6514949416,
				"z": 0.6990129583,
				"element": "H" 
			},
			{
				"x": -1.6165821116,
				"y": -1.2785424691,
				"z": -3.1757392568,
				"element": "H" 
			},
			{
				"x": 0.7541257095,
				"y": -2.0518778307,
				"z": -3.402717041,
				"element": "H" 
			},
			{
				"x": 2.3039405388,
				"y": -1.6909025983,
				"z": -1.4593260098,
				"element": "H" 
			}
		],
		 "valence_orbital": [ 
			{
				"type": "occ",
				"energy": -0.33864,
				"method": "rhf"
			},
			{
				"type": "occ",
				"energy": -0.30966,
				"method": "rhf"
			},
			{
				"type": "occ",
				"energy": -0.26513,
				"method": "rhf"
			},
			{
				"type": "occ",
				"energy": -0.24818,
				"method": "rhf"
			},
			{
				"type": "occ",
				"energy": -0.20749,
				"method": "rhf"
			},
			{
				"type": "unocc",
				"energy": -0.00753,
				"method": "rhf"
			},
			{
				"type": "unocc",
				"energy": 0.01428,
				"method": "rhf"
			},
			{
				"type": "unocc",
				"energy": 0.07392,
				"method": "rhf"
			},
			{
				"type": "unocc",
				"energy": 0.10659,
				"method": "rhf"
			},
			{
				"type": "unocc",
				"energy": 0.12625,
				"method": "rhf"
			}
		],
		"cosmo_sigma_profile": { 
			"-0.025": 0.0,
			"-0.024": 0.0,
			"-0.023": 0.0,
			"-0.022": 0.0,
			"-0.021": 0.0,
			"-0.02": 0.0,
			"-0.019": 0.0,
			"-0.018": 0.0,
			"-0.017": 0.0,
			"-0.016": 0.0,
			"-0.015": 0.0,
			"-0.014": 0.0,
			"-0.013": 0.0566445758262,
			"-0.012": 1.37801646406,
			"-0.011": 2.63145305411,
			"-0.01": 2.25833312951,
			"-0.009": 2.70463537387,
			"-0.008": 2.52018707224,
			"-0.007": 2.0891698972,
			"-0.006": 4.87226306106,
			"-0.005": 9.6434216871,
			"-0.004": 10.6908397108,
			"-0.003": 13.2024721363,
			"-0.002": 13.0415487825,
			"-0.001": 17.7299209661,
			"0.0": 16.5108798927,
			"0.001": 13.8459782278,
			"0.002": 10.1329341279,
			"0.003": 8.73531133242,
			"0.004": 11.4009228905,
			"0.005": 9.31218910083,
			"0.006": 2.93688931767,
			"0.007": 3.06739020618,
			"0.008": 2.1568304856,
			"0.009": 1.78579805553,
			"0.01": 1.95517174582,
			"0.011": 1.75757234739,
			"0.012": 1.54591240871,
			"0.013": 1.23214598277,
			"0.014": 0.660117910225,
			"0.015": 0.648683489545,
			"0.016": 0.786336783963,
			"0.017": 0.0101046246301,
			"0.018": 0.0,
			"0.019": 0.0,
			"0.02": 0.0,
			"0.021": 0.0,
			"0.022": 0.0,
			"0.023": 0.0,
			"0.024": 0.0,
			"0.025": 0.0
		}
	}
}
