{
	 "smiles": "NNC1=C2C=CSC2=CC=N1", 
	 "Tm": 465.15, 
	 "num_atms": 18, 
	 "gaussian": { 
		 "optdone": 1, 
		 "sigma_profile": "yes", 
		 "theory": "DFT", 
		 "functional": "B3LYP", 
		 "basiset": "6-31G**", 
		 "properties": { 
			 "R2extent": 2295.5849, 
			 "electric_dipole_moment_norm": 2.21077361347, 
			 "electric_quadrupole_moment_norm": 7.70066566993, 
			 "total_energy": -833.367405238, 
			 "HOMO_LUMO_gap": 0.17473, 
			 "cosmo_polarized_energy": -11.05, 
			 "cosmo_cavitation_energy": 23.18, 
			 "cosmo_dispersion_energy": -18.2, 
			 "cosmo_repulsion_energy": 1.39, 
			 "cosmo_total_nonelectrostatic_energy": 6.37, 
			 "SMD_solvation_energy": 2.74 
		},
		"coords": [
			{
				"x": -0.5393486788,
				"y": -2.9209112577,
				"z": -0.282970178,
				"element": "N" 
			},
			{
				"x": -1.5069516555,
				"y": -2.0878720071,
				"z": -0.8773535869,
				"element": "N" 
			},
			{
				"x": -1.3778571172,
				"y": -0.7103698786,
				"z": -0.9947010295,
				"element": "C" 
			},
			{
				"x": -0.1351814071,
				"y": -0.0368182828,
				"z": -1.1855577068,
				"element": "C" 
			},
			{
				"x": 1.2207470617,
				"y": -0.5195109027,
				"z": -1.3075753007,
				"element": "C" 
			},
			{
				"x": 2.1252232012,
				"y": 0.4747354587,
				"z": -1.4987243257,
				"element": "C" 
			},
			{
				"x": 1.3920231439,
				"y": 2.062518195,
				"z": -1.5480940417,
				"element": "S" 
			},
			{
				"x": -0.1990333891,
				"y": 1.372251958,
				"z": -1.3099891962,
				"element": "C" 
			},
			{
				"x": -1.4169513786,
				"y": 2.0605274337,
				"z": -1.2709362535,
				"element": "C" 
			},
			{
				"x": -2.5515283284,
				"y": 1.2803799833,
				"z": -1.10402655,
				"element": "C" 
			},
			{
				"x": -2.5419802564,
				"y": -0.0543951023,
				"z": -0.9575255772,
				"element": "N" 
			},
			{
				"x": 0.1249500321,
				"y": -3.2294985215,
				"z": -0.9863449615,
				"element": "H" 
			},
			{
				"x": -0.0332176477,
				"y": -2.4310980566,
				"z": 0.4531849937,
				"element": "H" 
			},
			{
				"x": -2.4514933031,
				"y": -2.3404632267,
				"z": -0.6113606624,
				"element": "H" 
			},
			{
				"x": 1.5089226814,
				"y": -1.5603193447,
				"z": -1.2619813256,
				"element": "H" 
			},
			{
				"x": 3.1956164671,
				"y": 0.3798124672,
				"z": -1.6188041552,
				"element": "H" 
			},
			{
				"x": -1.479594254,
				"y": 3.1378803487,
				"z": -1.3711892299,
				"element": "H" 
			},
			{
				"x": -3.5336451716,
				"y": 1.7482507363,
				"z": -1.0731509128,
				"element": "H" 
			}
		],
		 "valence_orbital": [ 
			{
				"type": "occ",
				"energy": -0.278,
				"method": "rhf"
			},
			{
				"type": "occ",
				"energy": -0.25877,
				"method": "rhf"
			},
			{
				"type": "occ",
				"energy": -0.25852,
				"method": "rhf"
			},
			{
				"type": "occ",
				"energy": -0.25681,
				"method": "rhf"
			},
			{
				"type": "occ",
				"energy": -0.20226,
				"method": "rhf"
			},
			{
				"type": "unocc",
				"energy": -0.02753,
				"method": "rhf"
			},
			{
				"type": "unocc",
				"energy": -0.00868,
				"method": "rhf"
			},
			{
				"type": "unocc",
				"energy": 0.01772,
				"method": "rhf"
			},
			{
				"type": "unocc",
				"energy": 0.03892,
				"method": "rhf"
			},
			{
				"type": "unocc",
				"energy": 0.06713,
				"method": "rhf"
			}
		],
		"cosmo_sigma_profile": { 
			"-0.025": 0.0,
			"-0.024": 0.0,
			"-0.023": 0.0,
			"-0.022": 0.0,
			"-0.021": 0.0,
			"-0.02": 0.0,
			"-0.019": 0.0,
			"-0.018": 0.0,
			"-0.017": 0.0,
			"-0.016": 0.0,
			"-0.015": 0.0,
			"-0.014": 0.0,
			"-0.013": 0.0810384941235,
			"-0.012": 1.73652360764,
			"-0.011": 4.09610627881,
			"-0.01": 4.87723037906,
			"-0.009": 3.55679052395,
			"-0.008": 5.60874261681,
			"-0.007": 6.96391256963,
			"-0.006": 9.50676683844,
			"-0.005": 10.6391373669,
			"-0.004": 8.47304919754,
			"-0.003": 8.79533126642,
			"-0.002": 8.17691459196,
			"-0.001": 8.01533625126,
			"0.0": 10.4469998545,
			"0.001": 9.99288025588,
			"0.002": 18.4767425262,
			"0.003": 20.859842903,
			"0.004": 17.5549520305,
			"0.005": 8.41048581138,
			"0.006": 3.73740448643,
			"0.007": 2.27196208242,
			"0.008": 2.42979016987,
			"0.009": 3.34938593917,
			"0.01": 2.27369676403,
			"0.011": 1.18933146941,
			"0.012": 0.888152383641,
			"0.013": 2.1566801645,
			"0.014": 1.17173186073,
			"0.015": 1.40727901971,
			"0.016": 0.58532194364,
			"0.017": 0.0136489594606,
			"0.018": 0.0,
			"0.019": 0.0,
			"0.02": 0.0,
			"0.021": 0.0,
			"0.022": 0.0,
			"0.023": 0.0,
			"0.024": 0.0,
			"0.025": 0.0
		}
	}
}
