{
	 "smiles": "CN1CCC2(CC1)NC(=O)NC2=O", 
	 "Tm": 557.15, 
	 "num_atms": 26, 
	 "gaussian": { 
		 "optdone": 1, 
		 "sigma_profile": "yes", 
		 "theory": "DFT", 
		 "functional": "B3LYP", 
		 "basiset": "6-31G**", 
		 "properties": { 
			 "R2extent": 3338.224, 
			 "electric_dipole_moment_norm": 2.69922828416, 
			 "electric_quadrupole_moment_norm": 12.4703901262, 
			 "total_energy": -627.41613143, 
			 "HOMO_LUMO_gap": 0.19891, 
			 "cosmo_polarized_energy": -16.91, 
			 "cosmo_cavitation_energy": 27.71, 
			 "cosmo_dispersion_energy": -20.26, 
			 "cosmo_repulsion_energy": 1.6, 
			 "cosmo_total_nonelectrostatic_energy": 9.05, 
			 "SMD_solvation_energy": 3.0 
		},
		"coords": [
			{
				"x": 2.2555072873,
				"y": -1.0121480161,
				"z": -1.3547817375,
				"element": "C" 
			},
			{
				"x": 0.9573935653,
				"y": -1.5761369208,
				"z": -1.0244093027,
				"element": "N" 
			},
			{
				"x": 0.7637875529,
				"y": -1.8487544801,
				"z": 0.4130550126,
				"element": "C" 
			},
			{
				"x": -0.0803807421,
				"y": -0.777285692,
				"z": 1.1162612854,
				"element": "C" 
			},
			{
				"x": -1.5161953091,
				"y": -0.7367563681,
				"z": 0.51622485,
				"element": "C" 
			},
			{
				"x": -1.4710045403,
				"y": -1.1558696628,
				"z": -0.9776633336,
				"element": "C" 
			},
			{
				"x": -0.1319536031,
				"y": -0.7997292423,
				"z": -1.6223521826,
				"element": "C" 
			},
			{
				"x": -2.1675632509,
				"y": 0.5529510023,
				"z": 0.747056745,
				"element": "N" 
			},
			{
				"x": -3.207746186,
				"y": 0.4997660027,
				"z": 1.6399754825,
				"element": "C" 
			},
			{
				"x": -3.8665526605,
				"y": 1.4103151842,
				"z": 2.0967008597,
				"element": "O" 
			},
			{
				"x": -3.3753169723,
				"y": -0.8727317362,
				"z": 1.9306467365,
				"element": "N" 
			},
			{
				"x": -2.4521251498,
				"y": -1.6787096577,
				"z": 1.3038551636,
				"element": "C" 
			},
			{
				"x": -2.3753911658,
				"y": -2.8895666453,
				"z": 1.3613070491,
				"element": "O" 
			},
			{
				"x": 2.4260261904,
				"y": 0.0023152939,
				"z": -0.9411271522,
				"element": "H" 
			},
			{
				"x": 3.0539171215,
				"y": -1.6666488927,
				"z": -0.9922208193,
				"element": "H" 
			},
			{
				"x": 2.3546922422,
				"y": -0.9407568221,
				"z": -2.4437172611,
				"element": "H" 
			},
			{
				"x": 0.2743874722,
				"y": -2.8212634599,
				"z": 0.5458508018,
				"element": "H" 
			},
			{
				"x": 1.7454725454,
				"y": -1.9213021835,
				"z": 0.8906056076,
				"element": "H" 
			},
			{
				"x": 0.3785156888,
				"y": 0.2089055498,
				"z": 0.9729359102,
				"element": "H" 
			},
			{
				"x": -0.1214474443,
				"y": -0.9520143372,
				"z": 2.1965635349,
				"element": "H" 
			},
			{
				"x": -2.2978070915,
				"y": -0.6766611707,
				"z": -1.509454919,
				"element": "H" 
			},
			{
				"x": -1.6174244452,
				"y": -2.2393536628,
				"z": -1.0367427399,
				"element": "H" 
			},
			{
				"x": -0.1670342919,
				"y": -1.0061567492,
				"z": -2.6995201467,
				"element": "H" 
			},
			{
				"x": 0.0386154486,
				"y": 0.293404264,
				"z": -1.5268053169,
				"element": "H" 
			},
			{
				"x": -1.7413348406,
				"y": 1.4428220183,
				"z": 0.5379232626,
				"element": "H" 
			},
			{
				"x": -4.1130374211,
				"y": -1.2102336155,
				"z": 2.5320326098,
				"element": "H" 
			}
		],
		 "valence_orbital": [ 
			{
				"type": "occ",
				"energy": -0.29011,
				"method": "rhf"
			},
			{
				"type": "occ",
				"energy": -0.28916,
				"method": "rhf"
			},
			{
				"type": "occ",
				"energy": -0.26737,
				"method": "rhf"
			},
			{
				"type": "occ",
				"energy": -0.26104,
				"method": "rhf"
			},
			{
				"type": "occ",
				"energy": -0.2099,
				"method": "rhf"
			},
			{
				"type": "unocc",
				"energy": -0.01099,
				"method": "rhf"
			},
			{
				"type": "unocc",
				"energy": 0.05717,
				"method": "rhf"
			},
			{
				"type": "unocc",
				"energy": 0.06189,
				"method": "rhf"
			},
			{
				"type": "unocc",
				"energy": 0.08356,
				"method": "rhf"
			},
			{
				"type": "unocc",
				"energy": 0.09547,
				"method": "rhf"
			}
		],
		"cosmo_sigma_profile": { 
			"-0.025": 0.0,
			"-0.024": 0.0,
			"-0.023": 0.0,
			"-0.022": 0.0,
			"-0.021": 0.0,
			"-0.02": 0.0,
			"-0.019": 0.0,
			"-0.018": 0.0,
			"-0.017": 0.301448946743,
			"-0.016": 1.32334562253,
			"-0.015": 1.67674985213,
			"-0.014": 1.80897798961,
			"-0.013": 1.77636798439,
			"-0.012": 1.49814816036,
			"-0.011": 2.97298951899,
			"-0.01": 2.2090857355,
			"-0.009": 1.81948921536,
			"-0.008": 2.53639458223,
			"-0.007": 2.73926159412,
			"-0.006": 3.39867961669,
			"-0.005": 8.10678386242,
			"-0.004": 16.8701504181,
			"-0.003": 23.8698577141,
			"-0.002": 29.5780186139,
			"-0.001": 27.4967735758,
			"0.0": 18.2798164879,
			"0.001": 6.6519106618,
			"0.002": 5.75690676286,
			"0.003": 5.08491002513,
			"0.004": 4.56961045085,
			"0.005": 4.11002875326,
			"0.006": 2.38603048747,
			"0.007": 3.10854412613,
			"0.008": 4.03828076878,
			"0.009": 3.13735434188,
			"0.01": 4.2665485867,
			"0.011": 4.78262675469,
			"0.012": 8.92652293106,
			"0.013": 7.76979965792,
			"0.014": 2.02394133194,
			"0.015": 0.520712463632,
			"0.016": 0.286788686023,
			"0.017": 0.0979836059768,
			"0.018": 0.0,
			"0.019": 0.0,
			"0.02": 0.0,
			"0.021": 0.0,
			"0.022": 0.0,
			"0.023": 0.0,
			"0.024": 0.0,
			"0.025": 0.0
		}
	}
}
