{
	 "smiles": "COC(=O)C1=C(OC)C=C(N)C=C1", 
	 "Tm": 429.15, 
	 "num_atms": 24, 
	 "gaussian": { 
		 "optdone": 1, 
		 "sigma_profile": "yes", 
		 "theory": "DFT", 
		 "functional": "B3LYP", 
		 "basiset": "6-31G**", 
		 "properties": { 
			 "R2extent": 3082.3855, 
			 "electric_dipole_moment_norm": 3.38678798421, 
			 "electric_quadrupole_moment_norm": 18.2177962067, 
			 "total_energy": -630.006068757, 
			 "HOMO_LUMO_gap": 0.18544, 
			 "cosmo_polarized_energy": -14.39, 
			 "cosmo_cavitation_energy": 27.93, 
			 "cosmo_dispersion_energy": -20.49, 
			 "cosmo_repulsion_energy": 1.64, 
			 "cosmo_total_nonelectrostatic_energy": 9.08, 
			 "SMD_solvation_energy": 6.99 
		},
		"coords": [
			{
				"x": 1.140128951,
				"y": -0.7481009375,
				"z": -3.9231598061,
				"element": "C" 
			},
			{
				"x": 0.0439830107,
				"y": -0.5383418488,
				"z": -3.0252165371,
				"element": "O" 
			},
			{
				"x": 0.3512694389,
				"y": -0.6633098163,
				"z": -1.7032721609,
				"element": "C" 
			},
			{
				"x": 1.4752907768,
				"y": -0.9525382987,
				"z": -1.3348451359,
				"element": "O" 
			},
			{
				"x": -0.824313569,
				"y": -0.4012708053,
				"z": -0.8419080207,
				"element": "C" 
			},
			{
				"x": -0.8449631434,
				"y": -0.7363254909,
				"z": 0.5349868077,
				"element": "C" 
			},
			{
				"x": 0.1959054949,
				"y": -1.3657137293,
				"z": 1.1649850395,
				"element": "O" 
			},
			{
				"x": 1.2536541827,
				"y": -0.5179569142,
				"z": 1.6231440051,
				"element": "C" 
			},
			{
				"x": -1.9871517802,
				"y": -0.506002552,
				"z": 1.2987903261,
				"element": "C" 
			},
			{
				"x": -3.1410209643,
				"y": 0.0653821964,
				"z": 0.7394601222,
				"element": "C" 
			},
			{
				"x": -4.2497797381,
				"y": 0.3342236306,
				"z": 1.5249774762,
				"element": "N" 
			},
			{
				"x": -3.1245592473,
				"y": 0.4050965274,
				"z": -0.6275407117,
				"element": "C" 
			},
			{
				"x": -1.9930953356,
				"y": 0.1642473683,
				"z": -1.3878586149,
				"element": "C" 
			},
			{
				"x": 1.539547402,
				"y": -1.7602586972,
				"z": -3.8182082409,
				"element": "H" 
			},
			{
				"x": 0.7330117783,
				"y": -0.6008990669,
				"z": -4.9240791755,
				"element": "H" 
			},
			{
				"x": 1.9459262716,
				"y": -0.0349506247,
				"z": -3.7290103411,
				"element": "H" 
			},
			{
				"x": 1.7603989152,
				"y": -0.035915271,
				"z": 0.7840739024,
				"element": "H" 
			},
			{
				"x": 1.9580749459,
				"y": -1.1704711569,
				"z": 2.1427036403,
				"element": "H" 
			},
			{
				"x": 0.8711283711,
				"y": 0.2351301144,
				"z": 2.3249723032,
				"element": "H" 
			},
			{
				"x": -1.9633096005,
				"y": -0.7961369703,
				"z": 2.3450770697,
				"element": "H" 
			},
			{
				"x": -5.1286455187,
				"y": 0.4433260459,
				"z": 1.0403277865,
				"element": "H" 
			},
			{
				"x": -4.3296775165,
				"y": -0.187066341,
				"z": 2.3858540659,
				"element": "H" 
			},
			{
				"x": -4.003809503,
				"y": 0.8519068069,
				"z": -1.0837294139,
				"element": "H" 
			},
			{
				"x": -1.9973936226,
				"y": 0.4151458313,
				"z": -2.4418243862,
				"element": "H" 
			}
		],
		 "valence_orbital": [ 
			{
				"type": "occ",
				"energy": -0.28946,
				"method": "rhf"
			},
			{
				"type": "occ",
				"energy": -0.26443,
				"method": "rhf"
			},
			{
				"type": "occ",
				"energy": -0.25369,
				"method": "rhf"
			},
			{
				"type": "occ",
				"energy": -0.24074,
				"method": "rhf"
			},
			{
				"type": "occ",
				"energy": -0.21125,
				"method": "rhf"
			},
			{
				"type": "unocc",
				"energy": -0.02581,
				"method": "rhf"
			},
			{
				"type": "unocc",
				"energy": 0.00243,
				"method": "rhf"
			},
			{
				"type": "unocc",
				"energy": 0.06594,
				"method": "rhf"
			},
			{
				"type": "unocc",
				"energy": 0.07942,
				"method": "rhf"
			},
			{
				"type": "unocc",
				"energy": 0.10814,
				"method": "rhf"
			}
		],
		"cosmo_sigma_profile": { 
			"-0.025": 0.0,
			"-0.024": 0.0,
			"-0.023": 0.0,
			"-0.022": 0.0,
			"-0.021": 0.0,
			"-0.02": 0.0,
			"-0.019": 0.0,
			"-0.018": 0.0,
			"-0.017": 0.0,
			"-0.016": 0.0,
			"-0.015": 0.0,
			"-0.014": 0.244524850691,
			"-0.013": 2.24506336192,
			"-0.012": 3.14280467069,
			"-0.011": 2.96732991349,
			"-0.01": 3.19366925397,
			"-0.009": 2.49473665147,
			"-0.008": 2.81674147446,
			"-0.007": 4.14370602877,
			"-0.006": 7.37585759727,
			"-0.005": 13.6467837546,
			"-0.004": 15.7158885755,
			"-0.003": 20.6824562784,
			"-0.002": 19.3818563917,
			"-0.001": 14.6784182181,
			"0.0": 12.444804964,
			"0.001": 10.9950249948,
			"0.002": 11.9017540949,
			"0.003": 12.9114544186,
			"0.004": 17.1165230809,
			"0.005": 11.2532328487,
			"0.006": 4.66535051712,
			"0.007": 4.0123626524,
			"0.008": 4.26928204144,
			"0.009": 3.01695269201,
			"0.01": 3.44267250877,
			"0.011": 3.6383700053,
			"0.012": 6.03992622973,
			"0.013": 2.51212884606,
			"0.014": 0.320310519299,
			"0.015": 0.0,
			"0.016": 0.0,
			"0.017": 0.0,
			"0.018": 0.0,
			"0.019": 0.0,
			"0.02": 0.0,
			"0.021": 0.0,
			"0.022": 0.0,
			"0.023": 0.0,
			"0.024": 0.0,
			"0.025": 0.0
		}
	}
}
