{
	 "smiles": "NC(=S)N1CCC2=C(C1)C=CS2", 
	 "Tm": 383.15, 
	 "num_atms": 22, 
	 "gaussian": { 
		 "optdone": 1, 
		 "sigma_profile": "yes", 
		 "theory": "DFT", 
		 "functional": "B3LYP", 
		 "basiset": "6-31G**", 
		 "properties": { 
			 "R2extent": 3614.5837, 
			 "electric_dipole_moment_norm": 5.16850258102, 
			 "electric_quadrupole_moment_norm": 21.2394661927, 
			 "total_energy": -1216.75664832, 
			 "HOMO_LUMO_gap": 0.18327, 
			 "cosmo_polarized_energy": -17.37, 
			 "cosmo_cavitation_energy": 27.43, 
			 "cosmo_dispersion_energy": -21.49, 
			 "cosmo_repulsion_energy": 1.61, 
			 "cosmo_total_nonelectrostatic_energy": 7.56, 
			 "SMD_solvation_energy": 2.85 
		},
		"coords": [
			{
				"x": 1.1533753712,
				"y": 1.4802695428,
				"z": 3.5704846712,
				"element": "N" 
			},
			{
				"x": 1.3472215295,
				"y": 1.3545055061,
				"z": 2.2133824027,
				"element": "C" 
			},
			{
				"x": 2.8315339088,
				"y": 1.7999149374,
				"z": 1.5418732495,
				"element": "S" 
			},
			{
				"x": 0.3036835443,
				"y": 0.8225291509,
				"z": 1.5159047433,
				"element": "N" 
			},
			{
				"x": 0.2965514015,
				"y": 0.7884124571,
				"z": 0.0499140904,
				"element": "C" 
			},
			{
				"x": 0.2278188941,
				"y": -0.6540991946,
				"z": -0.4671468271,
				"element": "C" 
			},
			{
				"x": -0.9062251969,
				"y": -1.344973594,
				"z": 0.2315729361,
				"element": "C" 
			},
			{
				"x": -1.4338541665,
				"y": -0.9236215047,
				"z": 1.4226413956,
				"element": "C" 
			},
			{
				"x": -0.8784601226,
				"y": 0.2596655701,
				"z": 2.1800266769,
				"element": "C" 
			},
			{
				"x": -2.5287262697,
				"y": -1.7327791356,
				"z": 1.8698225539,
				"element": "C" 
			},
			{
				"x": -2.8102337882,
				"y": -2.7564102539,
				"z": 1.0116928744,
				"element": "C" 
			},
			{
				"x": -1.7450793801,
				"y": -2.7519075217,
				"z": -0.3620516528,
				"element": "S" 
			},
			{
				"x": 0.2311785231,
				"y": 1.7022937002,
				"z": 3.9209454965,
				"element": "H" 
			},
			{
				"x": 1.9121386452,
				"y": 1.9588534111,
				"z": 4.0336456024,
				"element": "H" 
			},
			{
				"x": 1.2002070362,
				"y": 1.2899452976,
				"z": -0.2931069017,
				"element": "H" 
			},
			{
				"x": -0.5807064861,
				"y": 1.3469370636,
				"z": -0.3032588985,
				"element": "H" 
			},
			{
				"x": 0.0835924829,
				"y": -0.6422483354,
				"z": -1.5535562942,
				"element": "H" 
			},
			{
				"x": 1.1825792574,
				"y": -1.1592396869,
				"z": -0.2729089317,
				"element": "H" 
			},
			{
				"x": -1.6593262573,
				"y": 1.029569718,
				"z": 2.3042046967,
				"element": "H" 
			},
			{
				"x": -0.5834169496,
				"y": -0.0705906024,
				"z": 3.1804736663,
				"element": "H" 
			},
			{
				"x": -3.0769214752,
				"y": -1.5583553855,
				"z": 2.7897759859,
				"element": "H" 
			},
			{
				"x": -3.5758305021,
				"y": -3.5143711401,
				"z": 1.1005684643,
				"element": "H" 
			}
		],
		 "valence_orbital": [ 
			{
				"type": "occ",
				"energy": -0.26618,
				"method": "rhf"
			},
			{
				"type": "occ",
				"energy": -0.25326,
				"method": "rhf"
			},
			{
				"type": "occ",
				"energy": -0.23375,
				"method": "rhf"
			},
			{
				"type": "occ",
				"energy": -0.21012,
				"method": "rhf"
			},
			{
				"type": "occ",
				"energy": -0.19989,
				"method": "rhf"
			},
			{
				"type": "unocc",
				"energy": -0.01662,
				"method": "rhf"
			},
			{
				"type": "unocc",
				"energy": -0.00108,
				"method": "rhf"
			},
			{
				"type": "unocc",
				"energy": 0.02167,
				"method": "rhf"
			},
			{
				"type": "unocc",
				"energy": 0.04973,
				"method": "rhf"
			},
			{
				"type": "unocc",
				"energy": 0.06922,
				"method": "rhf"
			}
		],
		"cosmo_sigma_profile": { 
			"-0.025": 0.0,
			"-0.024": 0.0,
			"-0.023": 0.0,
			"-0.022": 0.0,
			"-0.021": 0.0,
			"-0.02": 0.0,
			"-0.019": 0.0,
			"-0.018": 0.0,
			"-0.017": 0.0,
			"-0.016": 0.0,
			"-0.015": 0.2432622562,
			"-0.014": 1.56636602354,
			"-0.013": 2.85156530104,
			"-0.012": 2.21464915434,
			"-0.011": 3.22699555285,
			"-0.01": 2.20190075765,
			"-0.009": 2.24285933909,
			"-0.008": 3.81023180529,
			"-0.007": 6.54928392319,
			"-0.006": 11.1648454067,
			"-0.005": 17.5986785522,
			"-0.004": 16.8708511427,
			"-0.003": 15.6487180018,
			"-0.002": 14.5379620496,
			"-0.001": 12.1127717231,
			"0.0": 9.69207891276,
			"0.001": 9.27095297371,
			"0.002": 10.9370686201,
			"0.003": 12.7458198991,
			"0.004": 13.28193025,
			"0.005": 15.0654935528,
			"0.006": 7.65651112305,
			"0.007": 3.6373973641,
			"0.008": 3.72304704203,
			"0.009": 4.6007358623,
			"0.01": 5.61956368351,
			"0.011": 6.37762009316,
			"0.012": 6.02721933066,
			"0.013": 0.9220151965,
			"0.014": 0.0,
			"0.015": 0.0,
			"0.016": 0.0,
			"0.017": 0.0,
			"0.018": 0.0,
			"0.019": 0.0,
			"0.02": 0.0,
			"0.021": 0.0,
			"0.022": 0.0,
			"0.023": 0.0,
			"0.024": 0.0,
			"0.025": 0.0
		}
	}
}
