{
	 "smiles": "CN1C(=O)C(=C(O)C2=CC=CC=C12)C1=NC2=CC=CC=C2SC(C1)C1=CC=CS1", 
	 "Tm": 497.15, 
	 "num_atms": 47, 
	 "gaussian": { 
		 "optdone": 1, 
		 "sigma_profile": "yes", 
		 "theory": "DFT", 
		 "functional": "B3LYP", 
		 "basiset": "6-31G**", 
		 "properties": { 
			 "R2extent": 14098.5041, 
			 "electric_dipole_moment_norm": 2.86208402742, 
			 "electric_quadrupole_moment_norm": 23.4159777163, 
			 "total_energy": -1943.64367072, 
			 "HOMO_LUMO_gap": 0.13871, 
			 "cosmo_polarized_energy": -13.68, 
			 "cosmo_cavitation_energy": 51.44, 
			 "cosmo_dispersion_energy": -37.06, 
			 "cosmo_repulsion_energy": 2.62, 
			 "cosmo_total_nonelectrostatic_energy": 17.0, 
			 "SMD_solvation_energy": 7.7 
		},
		"coords": [
			{
				"x": -3.4297261449,
				"y": 1.9840605776,
				"z": 2.5510447298,
				"element": "C" 
			},
			{
				"x": -3.2593097214,
				"y": 1.0042046298,
				"z": 1.4779693661,
				"element": "N" 
			},
			{
				"x": -1.9689849888,
				"y": 0.8860663533,
				"z": 0.9198388644,
				"element": "C" 
			},
			{
				"x": -1.0522693774,
				"y": 1.5763310393,
				"z": 1.3798644663,
				"element": "O" 
			},
			{
				"x": -1.7989182359,
				"y": -0.0713572002,
				"z": -0.1725695095,
				"element": "C" 
			},
			{
				"x": -2.8640429049,
				"y": -0.9142120623,
				"z": -0.5323397328,
				"element": "C" 
			},
			{
				"x": -2.7445394375,
				"y": -1.8487617055,
				"z": -1.447192494,
				"element": "O" 
			},
			{
				"x": -4.1619304551,
				"y": -0.7667494656,
				"z": 0.0885767545,
				"element": "C" 
			},
			{
				"x": -5.2435555949,
				"y": -1.5798108507,
				"z": -0.2965745045,
				"element": "C" 
			},
			{
				"x": -6.4883742746,
				"y": -1.4276458959,
				"z": 0.290736493,
				"element": "C" 
			},
			{
				"x": -6.6612810417,
				"y": -0.4500230759,
				"z": 1.28092982,
				"element": "C" 
			},
			{
				"x": -5.608046926,
				"y": 0.362025889,
				"z": 1.680493729,
				"element": "C" 
			},
			{
				"x": -4.3353379907,
				"y": 0.2173325608,
				"z": 1.0904359217,
				"element": "C" 
			},
			{
				"x": -0.5220557682,
				"y": -0.1891061019,
				"z": -0.8753941401,
				"element": "C" 
			},
			{
				"x": -0.4017356444,
				"y": -1.1833601947,
				"z": -1.7209346647,
				"element": "N" 
			},
			{
				"x": 0.7888837037,
				"y": -1.4897486166,
				"z": -2.3943507274,
				"element": "C" 
			},
			{
				"x": 0.6976834235,
				"y": -1.86199895,
				"z": -3.7458935741,
				"element": "C" 
			},
			{
				"x": 1.8266808559,
				"y": -2.2451416705,
				"z": -4.4623609455,
				"element": "C" 
			},
			{
				"x": 3.0741243046,
				"y": -2.2777101231,
				"z": -3.8342201807,
				"element": "C" 
			},
			{
				"x": 3.1807064833,
				"y": -1.9212048587,
				"z": -2.4913762833,
				"element": "C" 
			},
			{
				"x": 2.0541324111,
				"y": -1.5298573402,
				"z": -1.7522335111,
				"element": "C" 
			},
			{
				"x": 2.2461913388,
				"y": -1.2878795039,
				"z": 0.0056841349,
				"element": "S" 
			},
			{
				"x": 1.6625632246,
				"y": 0.4773757505,
				"z": 0.2776125136,
				"element": "C" 
			},
			{
				"x": 0.5795582431,
				"y": 0.8437791062,
				"z": -0.7519272092,
				"element": "C" 
			},
			{
				"x": 2.7805827981,
				"y": 1.4700035097,
				"z": 0.3477786024,
				"element": "C" 
			},
			{
				"x": 3.1971206036,
				"y": 2.1611724582,
				"z": 1.4574214751,
				"element": "C" 
			},
			{
				"x": 4.287701706,
				"y": 3.046892592,
				"z": 1.2042713689,
				"element": "C" 
			},
			{
				"x": 4.6933046937,
				"y": 3.0217784354,
				"z": -0.1005016307,
				"element": "C" 
			},
			{
				"x": 3.7493059426,
				"y": 1.9125453879,
				"z": -1.0435910111,
				"element": "S" 
			},
			{
				"x": -2.4675315741,
				"y": 2.4662228552,
				"z": 2.7029637901,
				"element": "H" 
			},
			{
				"x": -4.1774364653,
				"y": 2.7330139333,
				"z": 2.2719842708,
				"element": "H" 
			},
			{
				"x": -3.7430080599,
				"y": 1.4921089034,
				"z": 3.4772696366,
				"element": "H" 
			},
			{
				"x": -1.7324060836,
				"y": -1.7980318055,
				"z": -1.7530523855,
				"element": "H" 
			},
			{
				"x": -5.070595502,
				"y": -2.3241063612,
				"z": -1.0653298101,
				"element": "H" 
			},
			{
				"x": -7.3194226423,
				"y": -2.0567662439,
				"z": -0.0108506146,
				"element": "H" 
			},
			{
				"x": -7.6325345236,
				"y": -0.3198379239,
				"z": 1.749676197,
				"element": "H" 
			},
			{
				"x": -5.7739782354,
				"y": 1.105339065,
				"z": 2.4490637648,
				"element": "H" 
			},
			{
				"x": -0.2793028086,
				"y": -1.8401937044,
				"z": -4.2194339902,
				"element": "H" 
			},
			{
				"x": 1.7322423835,
				"y": -2.5208179858,
				"z": -5.5085243862,
				"element": "H" 
			},
			{
				"x": 3.9600049288,
				"y": -2.5765681209,
				"z": -4.3862845265,
				"element": "H" 
			},
			{
				"x": 4.1445196022,
				"y": -1.9425951682,
				"z": -1.9933529099,
				"element": "H" 
			},
			{
				"x": 1.1907497595,
				"y": 0.4427606389,
				"z": 1.2622197368,
				"element": "H" 
			},
			{
				"x": 1.0428080369,
				"y": 0.9433653201,
				"z": -1.7392711877,
				"element": "H" 
			},
			{
				"x": 0.1646658086,
				"y": 1.8067837238,
				"z": -0.4583879137,
				"element": "H" 
			},
			{
				"x": 2.7281324561,
				"y": 2.0397060247,
				"z": 2.4278702614,
				"element": "H" 
			},
			{
				"x": 4.7466305894,
				"y": 3.6729102642,
				"z": 1.9611016574,
				"element": "H" 
			},
			{
				"x": 5.4890311039,
				"y": 3.5845059114,
				"z": -0.5687597117,
				"element": "H" 
			}
		],
		 "valence_orbital": [ 
			{
				"type": "occ",
				"energy": -0.24462,
				"method": "rhf"
			},
			{
				"type": "occ",
				"energy": -0.23415,
				"method": "rhf"
			},
			{
				"type": "occ",
				"energy": -0.22759,
				"method": "rhf"
			},
			{
				"type": "occ",
				"energy": -0.21859,
				"method": "rhf"
			},
			{
				"type": "occ",
				"energy": -0.2091,
				"method": "rhf"
			},
			{
				"type": "unocc",
				"energy": -0.07039,
				"method": "rhf"
			},
			{
				"type": "unocc",
				"energy": -0.03128,
				"method": "rhf"
			},
			{
				"type": "unocc",
				"energy": -0.01991,
				"method": "rhf"
			},
			{
				"type": "unocc",
				"energy": -0.0071,
				"method": "rhf"
			},
			{
				"type": "unocc",
				"energy": -0.00177,
				"method": "rhf"
			}
		],
		"cosmo_sigma_profile": { 
			"-0.025": 0.0,
			"-0.024": 0.0,
			"-0.023": 0.0,
			"-0.022": 0.0,
			"-0.021": 0.0,
			"-0.02": 0.0,
			"-0.019": 0.0,
			"-0.018": 0.0,
			"-0.017": 0.0,
			"-0.016": 0.0,
			"-0.015": 0.0,
			"-0.014": 0.0,
			"-0.013": 0.0,
			"-0.012": 0.0,
			"-0.011": 0.0,
			"-0.01": 0.0,
			"-0.009": 0.224397555344,
			"-0.008": 1.97472842186,
			"-0.007": 9.09615087165,
			"-0.006": 25.3891453459,
			"-0.005": 30.367003009,
			"-0.004": 32.2028949694,
			"-0.003": 31.6666542059,
			"-0.002": 32.2021809178,
			"-0.001": 30.582961309,
			"0.0": 33.9654359563,
			"0.001": 29.1004339235,
			"0.002": 35.0137764454,
			"0.003": 36.6580276305,
			"0.004": 36.1490477714,
			"0.005": 21.5045382142,
			"0.006": 9.72410653658,
			"0.007": 6.53931738506,
			"0.008": 5.16995329019,
			"0.009": 3.86654048431,
			"0.01": 1.68893215691,
			"0.011": 1.71601702199,
			"0.012": 1.39355348792,
			"0.013": 0.812889227761,
			"0.014": 0.0,
			"0.015": 0.0,
			"0.016": 0.0,
			"0.017": 0.0,
			"0.018": 0.0,
			"0.019": 0.0,
			"0.02": 0.0,
			"0.021": 0.0,
			"0.022": 0.0,
			"0.023": 0.0,
			"0.024": 0.0,
			"0.025": 0.0
		}
	}
}
