{
	 "smiles": "O=N(=O)OCCOCCON(=O)=O", 
	 "Tm": 261.85, 
	 "num_atms": 21, 
	 "gaussian": { 
		 "optdone": 1, 
		 "sigma_profile": "yes", 
		 "theory": "DFT", 
		 "functional": "B3LYP", 
		 "basiset": "6-31G**", 
		 "properties": { 
			 "R2extent": 3953.788, 
			 "electric_dipole_moment_norm": 4.36195853029, 
			 "electric_quadrupole_moment_norm": 11.3873797219, 
			 "total_energy": -793.006308458, 
			 "HOMO_LUMO_gap": 0.21438, 
			 "cosmo_polarized_energy": -13.11, 
			 "cosmo_cavitation_energy": 27.92, 
			 "cosmo_dispersion_energy": -19.65, 
			 "cosmo_repulsion_energy": 1.64, 
			 "cosmo_total_nonelectrostatic_energy": 9.92, 
			 "SMD_solvation_energy": 11.01 
		},
		"coords": [
			{
				"x": 1.5148334983,
				"y": 2.8015987532,
				"z": 1.3520353284,
				"element": "O" 
			},
			{
				"x": 0.533298665,
				"y": 2.5819685299,
				"z": 2.036044609,
				"element": "N" 
			},
			{
				"x": 0.4547737647,
				"y": 2.3422198267,
				"z": 3.2137136233,
				"element": "O" 
			},
			{
				"x": -0.735816625,
				"y": 2.602334744,
				"z": 1.4004797812,
				"element": "O" 
			},
			{
				"x": -0.6875270965,
				"y": 2.8791477725,
				"z": -0.0159993837,
				"element": "C" 
			},
			{
				"x": -0.3738866289,
				"y": 1.6498731497,
				"z": -0.8488234284,
				"element": "C" 
			},
			{
				"x": -1.4692861973,
				"y": 0.7560675608,
				"z": -0.746663376,
				"element": "O" 
			},
			{
				"x": -1.3079938959,
				"y": -0.4615004958,
				"z": -1.4515591101,
				"element": "C" 
			},
			{
				"x": -0.5736480564,
				"y": -1.4892755871,
				"z": -0.5852367908,
				"element": "C" 
			},
			{
				"x": -0.4971664658,
				"y": -2.6751764305,
				"z": -1.4009272807,
				"element": "O" 
			},
			{
				"x": 0.1690511112,
				"y": -3.760583095,
				"z": -0.7723935688,
				"element": "N" 
			},
			{
				"x": 0.2144686609,
				"y": -4.7429367164,
				"z": -1.4693991281,
				"element": "O" 
			},
			{
				"x": 0.5973389383,
				"y": -3.5754965434,
				"z": 0.3478728533,
				"element": "O" 
			},
			{
				"x": -1.7012774726,
				"y": 3.2272810983,
				"z": -0.2274132661,
				"element": "H" 
			},
			{
				"x": 0.030308919,
				"y": 3.6769606338,
				"z": -0.2152230112,
				"element": "H" 
			},
			{
				"x": -0.2269393154,
				"y": 1.9686861869,
				"z": -1.89412875,
				"element": "H" 
			},
			{
				"x": 0.5661443735,
				"y": 1.1970859771,
				"z": -0.5060842873,
				"element": "H" 
			},
			{
				"x": -2.3107667106,
				"y": -0.8300772051,
				"z": -1.68538774,
				"element": "H" 
			},
			{
				"x": -0.7716639258,
				"y": -0.313684923,
				"z": -2.3997447199,
				"element": "H" 
			},
			{
				"x": 0.4333676616,
				"y": -1.1569908494,
				"z": -0.3171101226,
				"element": "H" 
			},
			{
				"x": -1.1317132023,
				"y": -1.691102387,
				"z": 0.3328477685,
				"element": "H" 
			}
		],
		 "valence_orbital": [ 
			{
				"type": "occ",
				"energy": -0.33434,
				"method": "rhf"
			},
			{
				"type": "occ",
				"energy": -0.33171,
				"method": "rhf"
			},
			{
				"type": "occ",
				"energy": -0.32256,
				"method": "rhf"
			},
			{
				"type": "occ",
				"energy": -0.32211,
				"method": "rhf"
			},
			{
				"type": "occ",
				"energy": -0.28782,
				"method": "rhf"
			},
			{
				"type": "unocc",
				"energy": -0.07344,
				"method": "rhf"
			},
			{
				"type": "unocc",
				"energy": -0.06973,
				"method": "rhf"
			},
			{
				"type": "unocc",
				"energy": 0.03339,
				"method": "rhf"
			},
			{
				"type": "unocc",
				"energy": 0.04132,
				"method": "rhf"
			},
			{
				"type": "unocc",
				"energy": 0.06238,
				"method": "rhf"
			}
		],
		"cosmo_sigma_profile": { 
			"-0.025": 0.0,
			"-0.024": 0.0,
			"-0.023": 0.0,
			"-0.022": 0.0,
			"-0.021": 0.0,
			"-0.02": 0.0,
			"-0.019": 0.0,
			"-0.018": 0.0,
			"-0.017": 0.0,
			"-0.016": 0.0,
			"-0.015": 0.0,
			"-0.014": 0.0,
			"-0.013": 0.0,
			"-0.012": 0.0,
			"-0.011": 0.0,
			"-0.01": 0.0,
			"-0.009": 0.47985027259,
			"-0.008": 9.60183645319,
			"-0.007": 16.3355928308,
			"-0.006": 22.8909121942,
			"-0.005": 17.3678442827,
			"-0.004": 14.4071722552,
			"-0.003": 10.3459856873,
			"-0.002": 9.80145808584,
			"-0.001": 7.29101119566,
			"0.0": 7.5974041052,
			"0.001": 7.83380546982,
			"0.002": 7.86579097864,
			"0.003": 8.17377386219,
			"0.004": 12.1011635975,
			"0.005": 16.3920371614,
			"0.006": 25.2794161215,
			"0.007": 17.8904436206,
			"0.008": 5.31187925443,
			"0.009": 1.24348200941,
			"0.01": 1.06438627502,
			"0.011": 1.09563776352,
			"0.012": 0.0913133022286,
			"0.013": 0.0,
			"0.014": 0.0,
			"0.015": 0.0,
			"0.016": 0.0,
			"0.017": 0.0,
			"0.018": 0.0,
			"0.019": 0.0,
			"0.02": 0.0,
			"0.021": 0.0,
			"0.022": 0.0,
			"0.023": 0.0,
			"0.024": 0.0,
			"0.025": 0.0
		}
	}
}
