{
	 "smiles": "CC(=O)N1CCC2=C1C=CC(=C2)[N+]([O-])=O", 
	 "Tm": 450.15, 
	 "num_atms": 25, 
	 "gaussian": { 
		 "optdone": 1, 
		 "sigma_profile": "yes", 
		 "theory": "DFT", 
		 "functional": "B3LYP", 
		 "basiset": "6-31G**", 
		 "properties": { 
			 "R2extent": 4136.6453, 
			 "electric_dipole_moment_norm": 2.98566195508, 
			 "electric_quadrupole_moment_norm": 31.8933677875, 
			 "total_energy": -722.186555606, 
			 "HOMO_LUMO_gap": 0.1497, 
			 "cosmo_polarized_energy": -14.75, 
			 "cosmo_cavitation_energy": 28.96, 
			 "cosmo_dispersion_energy": -21.42, 
			 "cosmo_repulsion_energy": 1.65, 
			 "cosmo_total_nonelectrostatic_energy": 9.19, 
			 "SMD_solvation_energy": 7.3 
		},
		"coords": [
			{
				"x": 1.9929868644,
				"y": -0.5612795777,
				"z": -2.7231323216,
				"element": "C" 
			},
			{
				"x": 0.590044182,
				"y": -0.6600760193,
				"z": -3.2854582259,
				"element": "C" 
			},
			{
				"x": 0.3874638678,
				"y": -0.9574316904,
				"z": -4.454676368,
				"element": "O" 
			},
			{
				"x": -0.496970916,
				"y": -0.3876243321,
				"z": -2.4617733507,
				"element": "N" 
			},
			{
				"x": -1.8459501868,
				"y": -0.4336527957,
				"z": -3.0819410596,
				"element": "C" 
			},
			{
				"x": -2.7824359355,
				"y": 0.2013029493,
				"z": -2.0329823688,
				"element": "C" 
			},
			{
				"x": -1.9395600236,
				"y": 0.223313216,
				"z": -0.7795896964,
				"element": "C" 
			},
			{
				"x": -0.6009564455,
				"y": -0.1045371467,
				"z": -1.0924830514,
				"element": "C" 
			},
			{
				"x": 0.371688623,
				"y": -0.1325449405,
				"z": -0.0820929555,
				"element": "C" 
			},
			{
				"x": -0.0054178282,
				"y": 0.1792058146,
				"z": 1.2229211917,
				"element": "C" 
			},
			{
				"x": -1.3288028393,
				"y": 0.5053763212,
				"z": 1.509713045,
				"element": "C" 
			},
			{
				"x": -2.3127626858,
				"y": 0.5309081717,
				"z": 0.514247529,
				"element": "C" 
			},
			{
				"x": -1.7023600472,
				"y": 0.8238221214,
				"z": 2.8870288353,
				"element": "N" 
			},
			{
				"x": -2.8832228463,
				"y": 1.0992806592,
				"z": 3.1100137,
				"element": "O" 
			},
			{
				"x": -0.8171135837,
				"y": 0.7994752683,
				"z": 3.7443638912,
				"element": "O" 
			},
			{
				"x": 2.2002806422,
				"y": -1.3872378496,
				"z": -2.0346518666,
				"element": "H" 
			},
			{
				"x": 2.1605293647,
				"y": 0.3797335212,
				"z": -2.1918461397,
				"element": "H" 
			},
			{
				"x": 2.6807060263,
				"y": -0.6322434276,
				"z": -3.5654701299,
				"element": "H" 
			},
			{
				"x": -1.8211936065,
				"y": 0.0967270691,
				"z": -4.0339605574,
				"element": "H" 
			},
			{
				"x": -2.1051020277,
				"y": -1.4760106399,
				"z": -3.2947736531,
				"element": "H" 
			},
			{
				"x": -3.0710629543,
				"y": 1.2192055359,
				"z": -2.3214459028,
				"element": "H" 
			},
			{
				"x": -3.7054521665,
				"y": -0.3719592578,
				"z": -1.909075055,
				"element": "H" 
			},
			{
				"x": 1.3991531263,
				"y": -0.3999073828,
				"z": -0.2778149362,
				"element": "H" 
			},
			{
				"x": 0.7176972528,
				"y": 0.1639443712,
				"z": 2.0286767167,
				"element": "H" 
			},
			{
				"x": -3.3319858565,
				"y": 0.7877100411,
				"z": 0.7768027297,
				"element": "H" 
			}
		],
		 "valence_orbital": [ 
			{
				"type": "occ",
				"energy": -0.30366,
				"method": "rhf"
			},
			{
				"type": "occ",
				"energy": -0.28631,
				"method": "rhf"
			},
			{
				"type": "occ",
				"energy": -0.27916,
				"method": "rhf"
			},
			{
				"type": "occ",
				"energy": -0.27049,
				"method": "rhf"
			},
			{
				"type": "occ",
				"energy": -0.23615,
				"method": "rhf"
			},
			{
				"type": "unocc",
				"energy": -0.08645,
				"method": "rhf"
			},
			{
				"type": "unocc",
				"energy": -0.03441,
				"method": "rhf"
			},
			{
				"type": "unocc",
				"energy": -0.01288,
				"method": "rhf"
			},
			{
				"type": "unocc",
				"energy": 0.02857,
				"method": "rhf"
			},
			{
				"type": "unocc",
				"energy": 0.07769,
				"method": "rhf"
			}
		],
		"cosmo_sigma_profile": { 
			"-0.025": 0.0,
			"-0.024": 0.0,
			"-0.023": 0.0,
			"-0.022": 0.0,
			"-0.021": 0.0,
			"-0.02": 0.0,
			"-0.019": 0.0,
			"-0.018": 0.0,
			"-0.017": 0.0,
			"-0.016": 0.0,
			"-0.015": 0.0,
			"-0.014": 0.0,
			"-0.013": 0.0,
			"-0.012": 0.0,
			"-0.011": 0.0,
			"-0.01": 0.0,
			"-0.009": 0.381195196292,
			"-0.008": 3.15464950468,
			"-0.007": 8.42256286578,
			"-0.006": 14.6259706784,
			"-0.005": 24.5421011416,
			"-0.004": 22.8142299026,
			"-0.003": 19.7750985028,
			"-0.002": 21.8330616212,
			"-0.001": 17.2472402741,
			"0.0": 12.6039335802,
			"0.001": 15.5340570252,
			"0.002": 10.8190818399,
			"0.003": 5.17969265057,
			"0.004": 4.17146636879,
			"0.005": 2.70322382505,
			"0.006": 5.46425015002,
			"0.007": 6.12516249358,
			"0.008": 11.483477668,
			"0.009": 6.88390988946,
			"0.01": 5.05055539333,
			"0.011": 3.3976096104,
			"0.012": 3.62071628873,
			"0.013": 4.10354113358,
			"0.014": 0.865943082614,
			"0.015": 0.0,
			"0.016": 0.0,
			"0.017": 0.0,
			"0.018": 0.0,
			"0.019": 0.0,
			"0.02": 0.0,
			"0.021": 0.0,
			"0.022": 0.0,
			"0.023": 0.0,
			"0.024": 0.0,
			"0.025": 0.0
		}
	}
}
