{
	 "smiles": "CC1=CC=C(C=C1)N(C1CS(=O)(=O)C=C1)C(=O)CCl", 
	 "Tm": 392.15, 
	 "num_atms": 33, 
	 "gaussian": { 
		 "optdone": 1, 
		 "sigma_profile": "yes", 
		 "theory": "DFT", 
		 "functional": "B3LYP", 
		 "basiset": "6-31G**", 
		 "properties": { 
			 "R2extent": 6623.2795, 
			 "electric_dipole_moment_norm": 4.48049657404, 
			 "electric_quadrupole_moment_norm": 36.2872275718, 
			 "total_energy": -1642.53461116, 
			 "HOMO_LUMO_gap": 0.20696, 
			 "cosmo_polarized_energy": -25.24, 
			 "cosmo_cavitation_energy": 39.43, 
			 "cosmo_dispersion_energy": -27.15, 
			 "cosmo_repulsion_energy": 2.09, 
			 "cosmo_total_nonelectrostatic_energy": 14.36, 
			 "SMD_solvation_energy": 6.53 
		},
		"coords": [
			{
				"x": -3.78283258,
				"y": 2.7773283614,
				"z": -1.0394299666,
				"element": "C" 
			},
			{
				"x": -2.390393147,
				"y": 2.2465087097,
				"z": -0.79637783,
				"element": "C" 
			},
			{
				"x": -1.9942898624,
				"y": 1.8254772546,
				"z": 0.4810318597,
				"element": "C" 
			},
			{
				"x": -0.722658129,
				"y": 1.3041410078,
				"z": 0.7056178086,
				"element": "C" 
			},
			{
				"x": 0.1871936149,
				"y": 1.194640907,
				"z": -0.3509692354,
				"element": "C" 
			},
			{
				"x": -0.1844554412,
				"y": 1.6298964539,
				"z": -1.6239139535,
				"element": "C" 
			},
			{
				"x": -1.4625142564,
				"y": 2.1452170194,
				"z": -1.839989621,
				"element": "C" 
			},
			{
				"x": 1.4985000074,
				"y": 0.6347531353,
				"z": -0.1148488774,
				"element": "N" 
			},
			{
				"x": 1.7299149013,
				"y": -0.7754487719,
				"z": -0.4628207481,
				"element": "C" 
			},
			{
				"x": 0.8002148576,
				"y": -1.752443601,
				"z": 0.2908742567,
				"element": "C" 
			},
			{
				"x": 0.4690538327,
				"y": -3.1418580284,
				"z": -0.8555823875,
				"element": "S" 
			},
			{
				"x": 1.4280266152,
				"y": -4.2313565525,
				"z": -0.616241691,
				"element": "O" 
			},
			{
				"x": -0.9693395678,
				"y": -3.4331052984,
				"z": -0.91764978,
				"element": "O" 
			},
			{
				"x": 0.9849940441,
				"y": -2.2071874635,
				"z": -2.2876991259,
				"element": "C" 
			},
			{
				"x": 1.5737146009,
				"y": -1.0633225956,
				"z": -1.9503893438,
				"element": "C" 
			},
			{
				"x": 2.4269065037,
				"y": 1.4552211588,
				"z": 0.5033345979,
				"element": "C" 
			},
			{
				"x": 2.1924446021,
				"y": 2.6252663284,
				"z": 0.7560731801,
				"element": "O" 
			},
			{
				"x": 3.8076767952,
				"y": 0.8905571032,
				"z": 0.8553079831,
				"element": "C" 
			},
			{
				"x": 3.7524412225,
				"y": -0.3317271693,
				"z": 2.1993045921,
				"element": "Cl" 
			},
			{
				"x": -4.1423983428,
				"y": 3.3613206979,
				"z": -0.1868173059,
				"element": "H" 
			},
			{
				"x": -3.8191449425,
				"y": 3.4145962723,
				"z": -1.9274305874,
				"element": "H" 
			},
			{
				"x": -4.494546391,
				"y": 1.9570686561,
				"z": -1.1946432696,
				"element": "H" 
			},
			{
				"x": -2.6895434222,
				"y": 1.9087271233,
				"z": 1.3121706269,
				"element": "H" 
			},
			{
				"x": -0.4230697425,
				"y": 0.9963785275,
				"z": 1.7027538419,
				"element": "H" 
			},
			{
				"x": 0.5284453357,
				"y": 1.586771076,
				"z": -2.44046674,
				"element": "H" 
			},
			{
				"x": -1.7382123556,
				"y": 2.4825800235,
				"z": -2.8355810919,
				"element": "H" 
			},
			{
				"x": 2.7605168405,
				"y": -1.0124255808,
				"z": -0.1945888543,
				"element": "H" 
			},
			{
				"x": -0.1665320276,
				"y": -1.2935937734,
				"z": 0.5010699894,
				"element": "H" 
			},
			{
				"x": 1.2425970364,
				"y": -2.1551028051,
				"z": 1.2021775797,
				"element": "H" 
			},
			{
				"x": 0.834728257,
				"y": -2.62483327,
				"z": -3.2755433267,
				"element": "H" 
			},
			{
				"x": 1.9959785651,
				"y": -0.3714936757,
				"z": -2.6730801209,
				"element": "H" 
			},
			{
				"x": 4.3952056956,
				"y": 1.7302133595,
				"z": 1.2181899995,
				"element": "H" 
			},
			{
				"x": 4.3158768801,
				"y": 0.4195354097,
				"z": 0.0117575413,
				"element": "H" 
			}
		],
		 "valence_orbital": [ 
			{
				"type": "occ",
				"energy": -0.28719,
				"method": "rhf"
			},
			{
				"type": "occ",
				"energy": -0.27431,
				"method": "rhf"
			},
			{
				"type": "occ",
				"energy": -0.27074,
				"method": "rhf"
			},
			{
				"type": "occ",
				"energy": -0.26527,
				"method": "rhf"
			},
			{
				"type": "occ",
				"energy": -0.25365,
				"method": "rhf"
			},
			{
				"type": "unocc",
				"energy": -0.04669,
				"method": "rhf"
			},
			{
				"type": "unocc",
				"energy": -0.03434,
				"method": "rhf"
			},
			{
				"type": "unocc",
				"energy": -0.0206,
				"method": "rhf"
			},
			{
				"type": "unocc",
				"energy": -0.01657,
				"method": "rhf"
			},
			{
				"type": "unocc",
				"energy": 0.03357,
				"method": "rhf"
			}
		],
		"cosmo_sigma_profile": { 
			"-0.025": 0.0,
			"-0.024": 0.0,
			"-0.023": 0.0,
			"-0.022": 0.0,
			"-0.021": 0.0,
			"-0.02": 0.0,
			"-0.019": 0.0,
			"-0.018": 0.0,
			"-0.017": 0.0,
			"-0.016": 0.0,
			"-0.015": 0.0,
			"-0.014": 0.0,
			"-0.013": 0.145428447519,
			"-0.012": 1.15432878567,
			"-0.011": 2.81262952182,
			"-0.01": 5.2841866518,
			"-0.009": 8.71279969148,
			"-0.008": 11.8283901039,
			"-0.007": 11.3308649979,
			"-0.006": 19.018694645,
			"-0.005": 23.7185980301,
			"-0.004": 23.4105666498,
			"-0.003": 18.6684024359,
			"-0.002": 19.4926795713,
			"-0.001": 19.9246721696,
			"0.0": 21.8474228333,
			"0.001": 15.6450853495,
			"0.002": 14.2147416274,
			"0.003": 12.8927825445,
			"0.004": 15.0138418032,
			"0.005": 13.4263502742,
			"0.006": 5.10884448731,
			"0.007": 3.41572753943,
			"0.008": 4.25944104691,
			"0.009": 5.34516826267,
			"0.01": 7.14756309869,
			"0.011": 15.5618494392,
			"0.012": 12.9189928851,
			"0.013": 3.51742782152,
			"0.014": 0.0723545315238,
			"0.015": 0.0,
			"0.016": 0.0,
			"0.017": 0.0,
			"0.018": 0.0,
			"0.019": 0.0,
			"0.02": 0.0,
			"0.021": 0.0,
			"0.022": 0.0,
			"0.023": 0.0,
			"0.024": 0.0,
			"0.025": 0.0
		}
	}
}
