{
	 "smiles": "CC(OC1=C(N)N=CC=C1)C1=CC=CC=C1", 
	 "Tm": 357.15, 
	 "num_atms": 30, 
	 "gaussian": { 
		 "optdone": 1, 
		 "sigma_profile": "yes", 
		 "theory": "DFT", 
		 "functional": "B3LYP", 
		 "basiset": "6-31G**", 
		 "properties": { 
			 "R2extent": 4000.8446, 
			 "electric_dipole_moment_norm": 3.26488465646, 
			 "electric_quadrupole_moment_norm": 16.4550136493, 
			 "total_energy": -688.548449876, 
			 "HOMO_LUMO_gap": 0.18124, 
			 "cosmo_polarized_energy": -11.61, 
			 "cosmo_cavitation_energy": 33.35, 
			 "cosmo_dispersion_energy": -23.07, 
			 "cosmo_repulsion_energy": 1.82, 
			 "cosmo_total_nonelectrostatic_energy": 12.09, 
			 "SMD_solvation_energy": 4.17 
		},
		"coords": [
			{
				"x": -3.1985750032,
				"y": -0.0772979623,
				"z": -0.1587659487,
				"element": "C" 
			},
			{
				"x": -1.6940982195,
				"y": 0.1141149584,
				"z": 0.0123631672,
				"element": "C" 
			},
			{
				"x": -1.4317970718,
				"y": 1.5247449339,
				"z": -0.1968967011,
				"element": "O" 
			},
			{
				"x": -0.3804768225,
				"y": 2.0845097796,
				"z": 0.5035725607,
				"element": "C" 
			},
			{
				"x": 0.682728905,
				"y": 2.668284163,
				"z": -0.2327339502,
				"element": "C" 
			},
			{
				"x": 0.6485993642,
				"y": 2.6840226291,
				"z": -1.6095110683,
				"element": "N" 
			},
			{
				"x": 1.7211959256,
				"y": 3.2606199353,
				"z": 0.3699134531,
				"element": "N" 
			},
			{
				"x": 1.7382741157,
				"y": 3.3085405877,
				"z": 1.7090113876,
				"element": "C" 
			},
			{
				"x": 0.7372271932,
				"y": 2.7812542458,
				"z": 2.5166433862,
				"element": "C" 
			},
			{
				"x": -0.347581452,
				"y": 2.1569529515,
				"z": 1.8873205031,
				"element": "C" 
			},
			{
				"x": -0.8659704962,
				"y": -0.7275205865,
				"z": -0.944895277,
				"element": "C" 
			},
			{
				"x": -0.9867904672,
				"y": -0.5588646562,
				"z": -2.3331100141,
				"element": "C" 
			},
			{
				"x": -0.2258488778,
				"y": -1.3289200843,
				"z": -3.2115748436,
				"element": "C" 
			},
			{
				"x": 0.666483773,
				"y": -2.2837935515,
				"z": -2.7151190414,
				"element": "C" 
			},
			{
				"x": 0.7934346725,
				"y": -2.4594877248,
				"z": -1.3375441902,
				"element": "C" 
			},
			{
				"x": 0.0327603936,
				"y": -1.682675804,
				"z": -0.4597434316,
				"element": "C" 
			},
			{
				"x": -3.4671152243,
				"y": -1.1283514526,
				"z": -0.0180003297,
				"element": "H" 
			},
			{
				"x": -3.517114574,
				"y": 0.2269007239,
				"z": -1.1598699138,
				"element": "H" 
			},
			{
				"x": -3.7409031867,
				"y": 0.5300500992,
				"z": 0.5710958894,
				"element": "H" 
			},
			{
				"x": -1.4114357595,
				"y": -0.1473238809,
				"z": 1.0390867736,
				"element": "H" 
			},
			{
				"x": 1.5432766259,
				"y": 2.8637769366,
				"z": -2.0415928829,
				"element": "H" 
			},
			{
				"x": 0.078157908,
				"y": 1.9759436328,
				"z": -2.0469983974,
				"element": "H" 
			},
			{
				"x": 2.6054649477,
				"y": 3.7952575145,
				"z": 2.1522105646,
				"element": "H" 
			},
			{
				"x": 0.7945139135,
				"y": 2.8539923944,
				"z": 3.5974153047,
				"element": "H" 
			},
			{
				"x": -1.1662566391,
				"y": 1.7391422107,
				"z": 2.4666866523,
				"element": "H" 
			},
			{
				"x": -1.6818089169,
				"y": 0.1794195095,
				"z": -2.7251295754,
				"element": "H" 
			},
			{
				"x": -0.330581595,
				"y": -1.1880413926,
				"z": -4.2837648181,
				"element": "H" 
			},
			{
				"x": 1.2585859893,
				"y": -2.8844997444,
				"z": -3.3994118793,
				"element": "H" 
			},
			{
				"x": 1.4879214526,
				"y": -3.1958861247,
				"z": -0.9433622369,
				"element": "H" 
			},
			{
				"x": 0.141429126,
				"y": -1.8186642411,
				"z": 0.6135048569,
				"element": "H" 
			}
		],
		 "valence_orbital": [ 
			{
				"type": "occ",
				"energy": -0.26043,
				"method": "rhf"
			},
			{
				"type": "occ",
				"energy": -0.25868,
				"method": "rhf"
			},
			{
				"type": "occ",
				"energy": -0.25118,
				"method": "rhf"
			},
			{
				"type": "occ",
				"energy": -0.24234,
				"method": "rhf"
			},
			{
				"type": "occ",
				"energy": -0.19711,
				"method": "rhf"
			},
			{
				"type": "unocc",
				"energy": -0.01587,
				"method": "rhf"
			},
			{
				"type": "unocc",
				"energy": -0.0101,
				"method": "rhf"
			},
			{
				"type": "unocc",
				"energy": -0.00457,
				"method": "rhf"
			},
			{
				"type": "unocc",
				"energy": 0.02122,
				"method": "rhf"
			},
			{
				"type": "unocc",
				"energy": 0.08399,
				"method": "rhf"
			}
		],
		"cosmo_sigma_profile": { 
			"-0.025": 0.0,
			"-0.024": 0.0,
			"-0.023": 0.0,
			"-0.022": 0.0,
			"-0.021": 0.0,
			"-0.02": 0.0,
			"-0.019": 0.0,
			"-0.018": 0.0,
			"-0.017": 0.0,
			"-0.016": 0.0,
			"-0.015": 0.0,
			"-0.014": 0.0,
			"-0.013": 0.0970176575251,
			"-0.012": 1.086947968,
			"-0.011": 0.716766208174,
			"-0.01": 1.18165457623,
			"-0.009": 1.13690404684,
			"-0.008": 1.56382411311,
			"-0.007": 4.55629577219,
			"-0.006": 15.4352327922,
			"-0.005": 21.6088537453,
			"-0.004": 25.5202672561,
			"-0.003": 22.7501105903,
			"-0.002": 19.0317794347,
			"-0.001": 17.4180419558,
			"0.0": 18.4792058665,
			"0.001": 17.2221271434,
			"0.002": 16.5522003435,
			"0.003": 18.1189332312,
			"0.004": 17.2227085476,
			"0.005": 15.8479309978,
			"0.006": 8.55797395925,
			"0.007": 3.78832336921,
			"0.008": 3.34655892215,
			"0.009": 3.38282576128,
			"0.01": 2.99566896979,
			"0.011": 2.43200694804,
			"0.012": 1.25062478626,
			"0.013": 1.43541087217,
			"0.014": 0.661074736075,
			"0.015": 1.15136893747,
			"0.016": 0.468926191864,
			"0.017": 0.0574303448626,
			"0.018": 0.0,
			"0.019": 0.0,
			"0.02": 0.0,
			"0.021": 0.0,
			"0.022": 0.0,
			"0.023": 0.0,
			"0.024": 0.0,
			"0.025": 0.0
		}
	}
}
