{
	 "smiles": "CCCCOC1=CC2=C(C=C(N2)C(O)=O)C=C1", 
	 "Tm": 447.15, 
	 "num_atms": 32, 
	 "gaussian": { 
		 "optdone": 1, 
		 "sigma_profile": "yes", 
		 "theory": "DFT", 
		 "functional": "B3LYP", 
		 "basiset": "6-31G**", 
		 "properties": { 
			 "R2extent": 7020.2206, 
			 "electric_dipole_moment_norm": 3.53490183598, 
			 "electric_quadrupole_moment_norm": 31.2220977011, 
			 "total_energy": -784.867231509, 
			 "HOMO_LUMO_gap": 0.15993, 
			 "cosmo_polarized_energy": -16.85, 
			 "cosmo_cavitation_energy": 35.77, 
			 "cosmo_dispersion_energy": -25.88, 
			 "cosmo_repulsion_energy": 2.03, 
			 "cosmo_total_nonelectrostatic_energy": 11.93, 
			 "SMD_solvation_energy": 6.89 
		},
		"coords": [
			{
				"x": 2.8781788004,
				"y": 3.0136922956,
				"z": -1.1821661269,
				"element": "C" 
			},
			{
				"x": 1.5451726131,
				"y": 3.1682003831,
				"z": -0.4442355214,
				"element": "C" 
			},
			{
				"x": 1.342861675,
				"y": 2.1123332652,
				"z": 0.6502287729,
				"element": "C" 
			},
			{
				"x": 0.008288181,
				"y": 2.2465973987,
				"z": 1.3856571926,
				"element": "C" 
			},
			{
				"x": -1.1244814166,
				"y": 2.1074660648,
				"z": 0.5218430895,
				"element": "O" 
			},
			{
				"x": -1.5721268997,
				"y": 0.8665120769,
				"z": 0.1739651221,
				"element": "C" 
			},
			{
				"x": -1.0270688706,
				"y": -0.3338756538,
				"z": 0.6203591585,
				"element": "C" 
			},
			{
				"x": -1.6382761742,
				"y": -1.5163484401,
				"z": 0.1716100779,
				"element": "C" 
			},
			{
				"x": -2.7623707884,
				"y": -1.5230731553,
				"z": -0.7040593041,
				"element": "C" 
			},
			{
				"x": -3.0995906202,
				"y": -2.8898351453,
				"z": -0.9402101535,
				"element": "C" 
			},
			{
				"x": -2.2012491096,
				"y": -3.660292117,
				"z": -0.2256030473,
				"element": "C" 
			},
			{
				"x": -1.323775612,
				"y": -2.8209438897,
				"z": 0.4404916135,
				"element": "N" 
			},
			{
				"x": -2.0124737622,
				"y": -5.1056965432,
				"z": -0.0495690306,
				"element": "C" 
			},
			{
				"x": -2.8722805171,
				"y": -5.9276354949,
				"z": -0.7022830714,
				"element": "O" 
			},
			{
				"x": -1.1293628999,
				"y": -5.5642685956,
				"z": 0.6470379807,
				"element": "O" 
			},
			{
				"x": -3.2828549817,
				"y": -0.284751607,
				"z": -1.1370652006,
				"element": "C" 
			},
			{
				"x": -2.6933654875,
				"y": 0.8831936998,
				"z": -0.7022052515,
				"element": "C" 
			},
			{
				"x": 2.9492168787,
				"y": 2.0358172743,
				"z": -1.6718606114,
				"element": "H" 
			},
			{
				"x": 2.9962832913,
				"y": 3.7803597968,
				"z": -1.9545672334,
				"element": "H" 
			},
			{
				"x": 3.7275459342,
				"y": 3.1009854729,
				"z": -0.4947126573,
				"element": "H" 
			},
			{
				"x": 1.4865964262,
				"y": 4.1686334028,
				"z": 0.0061641505,
				"element": "H" 
			},
			{
				"x": 0.7152920794,
				"y": 3.1051904774,
				"z": -1.157213662,
				"element": "H" 
			},
			{
				"x": 1.4258091914,
				"y": 1.1093114271,
				"z": 0.2138905495,
				"element": "H" 
			},
			{
				"x": 2.1436998204,
				"y": 2.192090016,
				"z": 1.3987644961,
				"element": "H" 
			},
			{
				"x": -0.091497341,
				"y": 3.2546807526,
				"z": 1.8006826427,
				"element": "H" 
			},
			{
				"x": -0.0644121064,
				"y": 1.5382745974,
				"z": 2.2206569793,
				"element": "H" 
			},
			{
				"x": -0.1688611073,
				"y": -0.3726783043,
				"z": 1.2792441925,
				"element": "H" 
			},
			{
				"x": -3.9100404349,
				"y": -3.2442512841,
				"z": -1.5643910582,
				"element": "H" 
			},
			{
				"x": -0.5851704342,
				"y": -3.1827472769,
				"z": 1.0255405657,
				"element": "H" 
			},
			{
				"x": -3.511920716,
				"y": -5.4093141974,
				"z": -1.2103718574,
				"element": "H" 
			},
			{
				"x": -4.1390069464,
				"y": -0.2487359417,
				"z": -1.8044677866,
				"element": "H" 
			},
			{
				"x": -3.0687586651,
				"y": 1.852809245,
				"z": -1.0109550105,
				"element": "H" 
			}
		],
		 "valence_orbital": [ 
			{
				"type": "occ",
				"energy": -0.30643,
				"method": "rhf"
			},
			{
				"type": "occ",
				"energy": -0.28013,
				"method": "rhf"
			},
			{
				"type": "occ",
				"energy": -0.27653,
				"method": "rhf"
			},
			{
				"type": "occ",
				"energy": -0.22812,
				"method": "rhf"
			},
			{
				"type": "occ",
				"energy": -0.2069,
				"method": "rhf"
			},
			{
				"type": "unocc",
				"energy": -0.04697,
				"method": "rhf"
			},
			{
				"type": "unocc",
				"energy": 0.00942,
				"method": "rhf"
			},
			{
				"type": "unocc",
				"energy": 0.03285,
				"method": "rhf"
			},
			{
				"type": "unocc",
				"energy": 0.05526,
				"method": "rhf"
			},
			{
				"type": "unocc",
				"energy": 0.08611,
				"method": "rhf"
			}
		],
		"cosmo_sigma_profile": { 
			"-0.025": 0.0,
			"-0.024": 0.0,
			"-0.023": 0.0,
			"-0.022": 0.0,
			"-0.021": 0.0,
			"-0.02": 0.0,
			"-0.019": 0.206280309532,
			"-0.018": 0.796635930134,
			"-0.017": 1.15823062559,
			"-0.016": 1.0999213358,
			"-0.015": 1.42441862645,
			"-0.014": 1.20236723751,
			"-0.013": 1.89798286945,
			"-0.012": 2.92812265289,
			"-0.011": 2.18839101748,
			"-0.01": 1.89144508135,
			"-0.009": 2.08716620126,
			"-0.008": 3.3690039145,
			"-0.007": 5.13739486266,
			"-0.006": 7.23250798159,
			"-0.005": 11.9373276815,
			"-0.004": 14.1056697533,
			"-0.003": 22.6853457925,
			"-0.002": 26.4204208187,
			"-0.001": 24.6820345121,
			"0.0": 24.5148494343,
			"0.001": 23.2172794071,
			"0.002": 17.7067032893,
			"0.003": 16.8124051198,
			"0.004": 19.0560362331,
			"0.005": 15.4804273458,
			"0.006": 4.89898026001,
			"0.007": 3.32808117657,
			"0.008": 3.33739416756,
			"0.009": 4.52003218406,
			"0.01": 5.49272121857,
			"0.011": 4.74979775674,
			"0.012": 4.56085048884,
			"0.013": 2.27606680093,
			"0.014": 0.362262326975,
			"0.015": 0.0,
			"0.016": 0.0,
			"0.017": 0.0,
			"0.018": 0.0,
			"0.019": 0.0,
			"0.02": 0.0,
			"0.021": 0.0,
			"0.022": 0.0,
			"0.023": 0.0,
			"0.024": 0.0,
			"0.025": 0.0
		}
	}
}
