{
	 "smiles": "NC(=NO)C1=CC=C(CN2C=NC3=C2C=CC=C3)C=C1", 
	 "Tm": 511.15, 
	 "num_atms": 34, 
	 "gaussian": { 
		 "optdone": 1, 
		 "sigma_profile": "yes", 
		 "theory": "DFT", 
		 "functional": "B3LYP", 
		 "basiset": "6-31G**", 
		 "properties": { 
			 "R2extent": 7759.5379, 
			 "electric_dipole_moment_norm": 4.44012032832, 
			 "electric_quadrupole_moment_norm": 13.5171491403, 
			 "total_energy": -874.216740751, 
			 "HOMO_LUMO_gap": 0.17531, 
			 "cosmo_polarized_energy": -20.73, 
			 "cosmo_cavitation_energy": 38.59, 
			 "cosmo_dispersion_energy": -27.24, 
			 "cosmo_repulsion_energy": 2.1, 
			 "cosmo_total_nonelectrostatic_energy": 13.45, 
			 "SMD_solvation_energy": 4.73 
		},
		"coords": [
			{
				"x": -1.544386526,
				"y": -1.3335624125,
				"z": 6.0808674819,
				"element": "N" 
			},
			{
				"x": -2.1683812944,
				"y": -0.7368981983,
				"z": 4.9755715062,
				"element": "C" 
			},
			{
				"x": -3.4415756699,
				"y": -0.5538576177,
				"z": 5.0867836843,
				"element": "N" 
			},
			{
				"x": -4.0533116802,
				"y": -0.1357840113,
				"z": 3.8829602931,
				"element": "O" 
			},
			{
				"x": -1.2816992938,
				"y": -0.4565811358,
				"z": 3.8167598496,
				"element": "C" 
			},
			{
				"x": -0.1598933519,
				"y": -1.2722784437,
				"z": 3.5977130564,
				"element": "C" 
			},
			{
				"x": 0.7093942538,
				"y": -1.0155399657,
				"z": 2.5394127185,
				"element": "C" 
			},
			{
				"x": 0.4938583745,
				"y": 0.070110164,
				"z": 1.6846457808,
				"element": "C" 
			},
			{
				"x": 1.4900231836,
				"y": 0.3672054712,
				"z": 0.575438581,
				"element": "C" 
			},
			{
				"x": 0.8974210745,
				"y": 0.8688494217,
				"z": -0.6532577647,
				"element": "N" 
			},
			{
				"x": 1.0639326568,
				"y": 2.1266652898,
				"z": -1.1971436502,
				"element": "C" 
			},
			{
				"x": 0.4469411856,
				"y": 2.3089831882,
				"z": -2.3350836912,
				"element": "N" 
			},
			{
				"x": -0.179316714,
				"y": 1.0940664177,
				"z": -2.5867923472,
				"element": "C" 
			},
			{
				"x": 0.0887599568,
				"y": 0.174507769,
				"z": -1.5433265015,
				"element": "C" 
			},
			{
				"x": -0.4165129215,
				"y": -1.1283043099,
				"z": -1.540955464,
				"element": "C" 
			},
			{
				"x": -1.2041888705,
				"y": -1.4943702328,
				"z": -2.6293896068,
				"element": "C" 
			},
			{
				"x": -1.4799710926,
				"y": -0.5929281532,
				"z": -3.6780192653,
				"element": "C" 
			},
			{
				"x": -0.9765741958,
				"y": 0.7037173382,
				"z": -3.6704704618,
				"element": "C" 
			},
			{
				"x": -0.6215136605,
				"y": 0.8874510271,
				"z": 1.9044009476,
				"element": "C" 
			},
			{
				"x": -1.5024505708,
				"y": 0.6276909564,
				"z": 2.9498654815,
				"element": "C" 
			},
			{
				"x": -0.6933932915,
				"y": -0.8649166563,
				"z": 6.3712333463,
				"element": "H" 
			},
			{
				"x": -2.1920578395,
				"y": -1.449361466,
				"z": 6.8526808669,
				"element": "H" 
			},
			{
				"x": -4.9814449869,
				"y": -0.0951416761,
				"z": 4.1458725429,
				"element": "H" 
			},
			{
				"x": 0.0106737376,
				"y": -2.1226236214,
				"z": 4.2493167927,
				"element": "H" 
			},
			{
				"x": 1.5630887979,
				"y": -1.6696488055,
				"z": 2.3771718646,
				"element": "H" 
			},
			{
				"x": 2.2078619861,
				"y": 1.1257713656,
				"z": 0.910146025,
				"element": "H" 
			},
			{
				"x": 2.0710090106,
				"y": -0.5353509039,
				"z": 0.3512284323,
				"element": "H" 
			},
			{
				"x": 1.6687987185,
				"y": 2.8685670085,
				"z": -0.6887950028,
				"element": "H" 
			},
			{
				"x": -0.2194235265,
				"y": -1.8203711288,
				"z": -0.7287078975,
				"element": "H" 
			},
			{
				"x": -1.6198230239,
				"y": -2.4969634549,
				"z": -2.6686364697,
				"element": "H" 
			},
			{
				"x": -2.1011539227,
				"y": -0.9216336843,
				"z": -4.5060357005,
				"element": "H" 
			},
			{
				"x": -1.1857985123,
				"y": 1.4031282091,
				"z": -4.4734632619,
				"element": "H" 
			},
			{
				"x": -0.8100797429,
				"y": 1.7284566941,
				"z": 1.2435105206,
				"element": "H" 
			},
			{
				"x": -2.3686122482,
				"y": 1.2590455578,
				"z": 3.0974973129,
				"element": "H" 
			}
		],
		 "valence_orbital": [ 
			{
				"type": "occ",
				"energy": -0.2599,
				"method": "rhf"
			},
			{
				"type": "occ",
				"energy": -0.25918,
				"method": "rhf"
			},
			{
				"type": "occ",
				"energy": -0.22339,
				"method": "rhf"
			},
			{
				"type": "occ",
				"energy": -0.21855,
				"method": "rhf"
			},
			{
				"type": "occ",
				"energy": -0.21323,
				"method": "rhf"
			},
			{
				"type": "unocc",
				"energy": -0.03792,
				"method": "rhf"
			},
			{
				"type": "unocc",
				"energy": -0.01268,
				"method": "rhf"
			},
			{
				"type": "unocc",
				"energy": -0.01066,
				"method": "rhf"
			},
			{
				"type": "unocc",
				"energy": 0.02427,
				"method": "rhf"
			},
			{
				"type": "unocc",
				"energy": 0.04756,
				"method": "rhf"
			}
		],
		"cosmo_sigma_profile": { 
			"-0.025": 0.0,
			"-0.024": 0.0,
			"-0.023": 0.0,
			"-0.022": 0.0,
			"-0.021": 0.0,
			"-0.02": 0.0,
			"-0.019": 0.0,
			"-0.018": 0.0,
			"-0.017": 0.259718103332,
			"-0.016": 1.04413337556,
			"-0.015": 0.696974947311,
			"-0.014": 0.775811732715,
			"-0.013": 1.13701520421,
			"-0.012": 2.4113630639,
			"-0.011": 3.24375359928,
			"-0.01": 5.1272045412,
			"-0.009": 6.27737292993,
			"-0.008": 6.26978535219,
			"-0.007": 9.06803984842,
			"-0.006": 15.9980736316,
			"-0.005": 22.5402905121,
			"-0.004": 23.0305892299,
			"-0.003": 19.1050555781,
			"-0.002": 16.4804653146,
			"-0.001": 15.0886473482,
			"0.0": 15.0333774216,
			"0.001": 15.4583251368,
			"0.002": 17.7678072217,
			"0.003": 19.0790857865,
			"0.004": 22.8094028342,
			"0.005": 19.5443156068,
			"0.006": 14.5387721286,
			"0.007": 6.97606913558,
			"0.008": 5.35096834545,
			"0.009": 4.3472092358,
			"0.01": 3.85407482974,
			"0.011": 3.54634774802,
			"0.012": 3.89631415483,
			"0.013": 2.3646293604,
			"0.014": 1.22554619502,
			"0.015": 1.37775920497,
			"0.016": 0.810921788478,
			"0.017": 1.11333037111,
			"0.018": 0.33321616367,
			"0.019": 0.0,
			"0.02": 0.0,
			"0.021": 0.0,
			"0.022": 0.0,
			"0.023": 0.0,
			"0.024": 0.0,
			"0.025": 0.0
		}
	}
}
