{
	 "smiles": "CC1=CC(C)=C(C(O)=O)C(C)=C1[N+]([O-])=O", 
	 "Tm": 443.15, 
	 "num_atms": 26, 
	 "gaussian": { 
		 "optdone": 1, 
		 "sigma_profile": "yes", 
		 "theory": "DFT", 
		 "functional": "B3LYP", 
		 "basiset": "6-31G**", 
		 "properties": { 
			 "R2extent": 3621.192, 
			 "electric_dipole_moment_norm": 3.55661930631, 
			 "electric_quadrupole_moment_norm": 17.6794336009, 
			 "total_energy": -743.255852221, 
			 "HOMO_LUMO_gap": 0.17739, 
			 "cosmo_polarized_energy": -16.03, 
			 "cosmo_cavitation_energy": 29.9, 
			 "cosmo_dispersion_energy": -21.13, 
			 "cosmo_repulsion_energy": 1.64, 
			 "cosmo_total_nonelectrostatic_energy": 10.41, 
			 "SMD_solvation_energy": 8.3 
		},
		"coords": [
			{
				"x": 0.6379630898,
				"y": 3.4763858457,
				"z": -2.1790415885,
				"element": "C" 
			},
			{
				"x": 0.4495805091,
				"y": 2.3636870823,
				"z": -1.176368212,
				"element": "C" 
			},
			{
				"x": -0.5670188214,
				"y": 2.457482952,
				"z": -0.2213708629,
				"element": "C" 
			},
			{
				"x": -0.7895697555,
				"y": 1.4759246649,
				"z": 0.7437603508,
				"element": "C" 
			},
			{
				"x": -1.9112960005,
				"y": 1.6365337815,
				"z": 1.741972034,
				"element": "C" 
			},
			{
				"x": 0.0555375841,
				"y": 0.3457172916,
				"z": 0.7594132989,
				"element": "C" 
			},
			{
				"x": -0.1948773723,
				"y": -0.7005911814,
				"z": 1.81958668,
				"element": "C" 
			},
			{
				"x": 0.8039578505,
				"y": -0.871474907,
				"z": 2.7298593186,
				"element": "O" 
			},
			{
				"x": -1.212019151,
				"y": -1.3405097253,
				"z": 1.9130455819,
				"element": "O" 
			},
			{
				"x": 1.0653100128,
				"y": 0.1692124147,
				"z": -0.2061200061,
				"element": "C" 
			},
			{
				"x": 1.9085384744,
				"y": -1.0887942175,
				"z": -0.2464314997,
				"element": "C" 
			},
			{
				"x": 1.2317066433,
				"y": 1.2000415242,
				"z": -1.1493025891,
				"element": "C" 
			},
			{
				"x": 2.2827620093,
				"y": 1.0540989716,
				"z": -2.1718505704,
				"element": "N" 
			},
			{
				"x": 3.0488342608,
				"y": 2.0033073866,
				"z": -2.3368216365,
				"element": "O" 
			},
			{
				"x": 2.3300537535,
				"y": -0.0008474408,
				"z": -2.802647252,
				"element": "O" 
			},
			{
				"x": 1.5228510763,
				"y": 4.0723088128,
				"z": -1.9394584288,
				"element": "H" 
			},
			{
				"x": 0.7797609046,
				"y": 3.0982623472,
				"z": -3.19519577,
				"element": "H" 
			},
			{
				"x": -0.2361544065,
				"y": 4.1317450845,
				"z": -2.175688369,
				"element": "H" 
			},
			{
				"x": -1.2083004131,
				"y": 3.3343323958,
				"z": -0.2343277694,
				"element": "H" 
			},
			{
				"x": -2.6439031588,
				"y": 0.8321446367,
				"z": 1.6335694516,
				"element": "H" 
			},
			{
				"x": -1.5437357004,
				"y": 1.5900748844,
				"z": 2.7731219691,
				"element": "H" 
			},
			{
				"x": -2.4164200494,
				"y": 2.5953677784,
				"z": 1.6060314946,
				"element": "H" 
			},
			{
				"x": 1.5146944576,
				"y": -0.2377728131,
				"z": 2.5522848799,
				"element": "H" 
			},
			{
				"x": 2.9633421789,
				"y": -0.8679466033,
				"z": -0.4297499909,
				"element": "H" 
			},
			{
				"x": 1.5791521022,
				"y": -1.7361068145,
				"z": -1.0631906443,
				"element": "H" 
			},
			{
				"x": 1.8347499217,
				"y": -1.6500841522,
				"z": 0.6847201301,
				"element": "H" 
			}
		],
		 "valence_orbital": [ 
			{
				"type": "occ",
				"energy": -0.31165,
				"method": "rhf"
			},
			{
				"type": "occ",
				"energy": -0.30733,
				"method": "rhf"
			},
			{
				"type": "occ",
				"energy": -0.28904,
				"method": "rhf"
			},
			{
				"type": "occ",
				"energy": -0.2691,
				"method": "rhf"
			},
			{
				"type": "occ",
				"energy": -0.26462,
				"method": "rhf"
			},
			{
				"type": "unocc",
				"energy": -0.08723,
				"method": "rhf"
			},
			{
				"type": "unocc",
				"energy": -0.04468,
				"method": "rhf"
			},
			{
				"type": "unocc",
				"energy": -0.02303,
				"method": "rhf"
			},
			{
				"type": "unocc",
				"energy": 0.00437,
				"method": "rhf"
			},
			{
				"type": "unocc",
				"energy": 0.05838,
				"method": "rhf"
			}
		],
		"cosmo_sigma_profile": { 
			"-0.025": 0.0,
			"-0.024": 0.0,
			"-0.023": 0.0,
			"-0.022": 0.0,
			"-0.021": 0.0,
			"-0.02": 0.0,
			"-0.019": 0.355254937634,
			"-0.018": 0.80033149307,
			"-0.017": 0.968240466804,
			"-0.016": 0.800440366071,
			"-0.015": 0.755864879987,
			"-0.014": 1.08964689694,
			"-0.013": 0.587002279323,
			"-0.012": 1.32020799714,
			"-0.011": 1.73631155028,
			"-0.01": 0.436668291768,
			"-0.009": 0.637323159304,
			"-0.008": 2.41841143897,
			"-0.007": 6.0778701722,
			"-0.006": 11.5821099665,
			"-0.005": 15.1171744672,
			"-0.004": 17.6319912696,
			"-0.003": 20.2634429737,
			"-0.002": 20.3984448771,
			"-0.001": 25.1447158408,
			"0.0": 16.3843118097,
			"0.001": 14.1350388362,
			"0.002": 11.2707844681,
			"0.003": 6.39117740947,
			"0.004": 5.35689429801,
			"0.005": 5.0102004768,
			"0.006": 6.28890215469,
			"0.007": 11.4823062095,
			"0.008": 9.19397712917,
			"0.009": 8.09754265062,
			"0.01": 6.79518910044,
			"0.011": 5.39051876216,
			"0.012": 2.58360943668,
			"0.013": 0.210481700032,
			"0.014": 0.0,
			"0.015": 0.0,
			"0.016": 0.0,
			"0.017": 0.0,
			"0.018": 0.0,
			"0.019": 0.0,
			"0.02": 0.0,
			"0.021": 0.0,
			"0.022": 0.0,
			"0.023": 0.0,
			"0.024": 0.0,
			"0.025": 0.0
		}
	}
}
