{
	 "smiles": "OC(=O)CC1=CC=C(S1)S(=O)(=O)N1CCCC1", 
	 "Tm": 536.15, 
	 "num_atms": 30, 
	 "gaussian": { 
		 "optdone": 1, 
		 "sigma_profile": "yes", 
		 "theory": "DFT", 
		 "functional": "B3LYP", 
		 "basiset": "6-31G**", 
		 "properties": { 
			 "R2extent": 6978.1397, 
			 "electric_dipole_moment_norm": 6.75539820366, 
			 "electric_quadrupole_moment_norm": 20.6087148794, 
			 "total_energy": -1540.84669114, 
			 "HOMO_LUMO_gap": 0.19489, 
			 "cosmo_polarized_energy": -21.01, 
			 "cosmo_cavitation_energy": 35.92, 
			 "cosmo_dispersion_energy": -26.29, 
			 "cosmo_repulsion_energy": 2.0, 
			 "cosmo_total_nonelectrostatic_energy": 11.63, 
			 "SMD_solvation_energy": 4.85 
		},
		"coords": [
			{
				"x": 3.2415427313,
				"y": -5.5587218732,
				"z": 0.3744938379,
				"element": "O" 
			},
			{
				"x": 2.5415428215,
				"y": -4.4425343353,
				"z": 0.0744483027,
				"element": "C" 
			},
			{
				"x": 1.5702864943,
				"y": -4.0835652859,
				"z": 0.7004792391,
				"element": "O" 
			},
			{
				"x": 3.1059708524,
				"y": -3.7653838895,
				"z": -1.1630289551,
				"element": "C" 
			},
			{
				"x": 2.803577931,
				"y": -2.3007033149,
				"z": -1.2927878835,
				"element": "C" 
			},
			{
				"x": 3.6890008578,
				"y": -1.3278861806,
				"z": -1.6911345629,
				"element": "C" 
			},
			{
				"x": 3.0965625918,
				"y": -0.042029732,
				"z": -1.8249912944,
				"element": "C" 
			},
			{
				"x": 1.7558824122,
				"y": -0.0600138548,
				"z": -1.532235582,
				"element": "C" 
			},
			{
				"x": 1.2020439668,
				"y": -1.6470647478,
				"z": -1.0737601977,
				"element": "S" 
			},
			{
				"x": 0.6841159421,
				"y": 1.3603559625,
				"z": -1.5060735493,
				"element": "S" 
			},
			{
				"x": 1.3784602854,
				"y": 2.3976105669,
				"z": -2.2690594438,
				"element": "O" 
			},
			{
				"x": -0.661843916,
				"y": 0.8916228404,
				"z": -1.8365304273,
				"element": "O" 
			},
			{
				"x": 0.620274391,
				"y": 1.8905479572,
				"z": 0.0665506852,
				"element": "N" 
			},
			{
				"x": 1.8154691592,
				"y": 2.5122947905,
				"z": 0.6855823938,
				"element": "C" 
			},
			{
				"x": 1.6216065522,
				"y": 2.2511780138,
				"z": 2.1937196808,
				"element": "C" 
			},
			{
				"x": 0.11555049,
				"y": 1.9684583748,
				"z": 2.3422410115,
				"element": "C" 
			},
			{
				"x": -0.2172977418,
				"y": 1.1936591952,
				"z": 1.0633275021,
				"element": "C" 
			},
			{
				"x": 2.795954875,
				"y": -5.9671368753,
				"z": 1.1362914845,
				"element": "H" 
			},
			{
				"x": 2.6983756084,
				"y": -4.3239824386,
				"z": -2.019137312,
				"element": "H" 
			},
			{
				"x": 4.1879323992,
				"y": -3.9206663057,
				"z": -1.1919752988,
				"element": "H" 
			},
			{
				"x": 4.7333518144,
				"y": -1.5342075955,
				"z": -1.9001579883,
				"element": "H" 
			},
			{
				"x": 3.6152797491,
				"y": 0.853675803,
				"z": -2.1430724333,
				"element": "H" 
			},
			{
				"x": 2.7434707287,
				"y": 2.0637015561,
				"z": 0.3119309102,
				"element": "H" 
			},
			{
				"x": 1.8349475203,
				"y": 3.5779982094,
				"z": 0.4401429133,
				"element": "H" 
			},
			{
				"x": 1.963165743,
				"y": 3.0918966636,
				"z": 2.8031985876,
				"element": "H" 
			},
			{
				"x": 2.1952015461,
				"y": 1.3679873959,
				"z": 2.4952424295,
				"element": "H" 
			},
			{
				"x": -0.1269878769,
				"y": 1.4011306195,
				"z": 3.2447406432,
				"element": "H" 
			},
			{
				"x": -0.4507664045,
				"y": 2.9056014344,
				"z": 2.3647003635,
				"element": "H" 
			},
			{
				"x": 0.0639395409,
				"y": 0.134313291,
				"z": 1.1656014809,
				"element": "H" 
			},
			{
				"x": -1.2666110647,
				"y": 1.2473637548,
				"z": 0.7704534624,
				"element": "H" 
			}
		],
		 "valence_orbital": [ 
			{
				"type": "occ",
				"energy": -0.29627,
				"method": "rhf"
			},
			{
				"type": "occ",
				"energy": -0.2943,
				"method": "rhf"
			},
			{
				"type": "occ",
				"energy": -0.2637,
				"method": "rhf"
			},
			{
				"type": "occ",
				"energy": -0.26266,
				"method": "rhf"
			},
			{
				"type": "occ",
				"energy": -0.23658,
				"method": "rhf"
			},
			{
				"type": "unocc",
				"energy": -0.04169,
				"method": "rhf"
			},
			{
				"type": "unocc",
				"energy": -0.00861,
				"method": "rhf"
			},
			{
				"type": "unocc",
				"energy": 0.02539,
				"method": "rhf"
			},
			{
				"type": "unocc",
				"energy": 0.03959,
				"method": "rhf"
			},
			{
				"type": "unocc",
				"energy": 0.05666,
				"method": "rhf"
			}
		],
		"cosmo_sigma_profile": { 
			"-0.025": 0.0,
			"-0.024": 0.0,
			"-0.023": 0.0,
			"-0.022": 0.0,
			"-0.021": 0.0,
			"-0.02": 0.0,
			"-0.019": 0.241777123574,
			"-0.018": 0.884889003475,
			"-0.017": 1.01237207983,
			"-0.016": 1.03765841837,
			"-0.015": 0.502429348759,
			"-0.014": 0.610239696526,
			"-0.013": 0.707449303211,
			"-0.012": 1.06246298327,
			"-0.011": 0.765370601119,
			"-0.01": 0.537563847897,
			"-0.009": 2.15263024841,
			"-0.008": 8.05196930304,
			"-0.007": 9.23700470807,
			"-0.006": 8.05277517758,
			"-0.005": 14.639793645,
			"-0.004": 28.9154185887,
			"-0.003": 34.8660030417,
			"-0.002": 25.7314777883,
			"-0.001": 18.051443367,
			"0.0": 14.6374619915,
			"0.001": 12.0976491798,
			"0.002": 15.5737022066,
			"0.003": 15.0426945203,
			"0.004": 7.3624418335,
			"0.005": 8.01374128835,
			"0.006": 7.33227423724,
			"0.007": 8.20400213067,
			"0.008": 6.27838492746,
			"0.009": 6.42440951128,
			"0.01": 10.2634624158,
			"0.011": 13.2203098874,
			"0.012": 4.20841514132,
			"0.013": 0.0,
			"0.014": 0.0,
			"0.015": 0.0,
			"0.016": 0.0,
			"0.017": 0.0,
			"0.018": 0.0,
			"0.019": 0.0,
			"0.02": 0.0,
			"0.021": 0.0,
			"0.022": 0.0,
			"0.023": 0.0,
			"0.024": 0.0,
			"0.025": 0.0
		}
	}
}
