{
	 "smiles": "COC1=C(NS(=O)(=O)C2=CC(N)=C(O)C=C2)C=CC=C1", 
	 "Tm": 441.15, 
	 "num_atms": 34, 
	 "gaussian": { 
		 "optdone": 1, 
		 "sigma_profile": "yes", 
		 "theory": "DFT", 
		 "functional": "B3LYP", 
		 "basiset": "6-31G**", 
		 "properties": { 
			 "R2extent": 6230.1438, 
			 "electric_dipole_moment_norm": 6.61847116561, 
			 "electric_quadrupole_moment_norm": 26.4241850241, 
			 "total_energy": -1312.32729181, 
			 "HOMO_LUMO_gap": 0.18885, 
			 "cosmo_polarized_energy": -21.02, 
			 "cosmo_cavitation_energy": 39.28, 
			 "cosmo_dispersion_energy": -27.49, 
			 "cosmo_repulsion_energy": 2.11, 
			 "cosmo_total_nonelectrostatic_energy": 13.91, 
			 "SMD_solvation_energy": 7.11 
		},
		"coords": [
			{
				"x": -0.7895342111,
				"y": -0.0518546188,
				"z": -3.8402448706,
				"element": "C" 
			},
			{
				"x": 0.0468816348,
				"y": 0.5411158713,
				"z": -2.8581893985,
				"element": "O" 
			},
			{
				"x": 1.2378396953,
				"y": -0.0704456383,
				"z": -2.5632100099,
				"element": "C" 
			},
			{
				"x": 2.0417591758,
				"y": 0.6120110743,
				"z": -1.6220964911,
				"element": "C" 
			},
			{
				"x": 1.5736383681,
				"y": 1.8515639391,
				"z": -1.1135530049,
				"element": "N" 
			},
			{
				"x": 1.4182973464,
				"y": 2.1559239036,
				"z": 0.5535498569,
				"element": "S" 
			},
			{
				"x": 0.7758299498,
				"y": 3.4711045682,
				"z": 0.6071224,
				"element": "O" 
			},
			{
				"x": 2.7264305456,
				"y": 1.896420202,
				"z": 1.1552913471,
				"element": "O" 
			},
			{
				"x": 0.2688835622,
				"y": 0.9564625805,
				"z": 1.2122273045,
				"element": "C" 
			},
			{
				"x": -1.0795698019,
				"y": 1.3078702905,
				"z": 1.3335456522,
				"element": "C" 
			},
			{
				"x": -1.988132649,
				"y": 0.3768292599,
				"z": 1.8241731548,
				"element": "C" 
			},
			{
				"x": -3.3988784575,
				"y": 0.6043525834,
				"z": 2.0080261601,
				"element": "N" 
			},
			{
				"x": -1.5426462094,
				"y": -0.9155445123,
				"z": 2.1792507173,
				"element": "C" 
			},
			{
				"x": -2.4371895798,
				"y": -1.8171263642,
				"z": 2.629532811,
				"element": "O" 
			},
			{
				"x": -0.1885888262,
				"y": -1.2536908832,
				"z": 2.0683839357,
				"element": "C" 
			},
			{
				"x": 0.7184624032,
				"y": -0.3148335378,
				"z": 1.5891632758,
				"element": "C" 
			},
			{
				"x": 3.284079111,
				"y": 0.0824758989,
				"z": -1.2679137529,
				"element": "C" 
			},
			{
				"x": 3.7148249537,
				"y": -1.1277755052,
				"z": -1.8170071622,
				"element": "C" 
			},
			{
				"x": 2.9203670854,
				"y": -1.795491041,
				"z": -2.7453838982,
				"element": "C" 
			},
			{
				"x": 1.6840704775,
				"y": -1.2650482815,
				"z": -3.1286999181,
				"element": "C" 
			},
			{
				"x": -1.1177965579,
				"y": -1.0534947573,
				"z": -3.5359579966,
				"element": "H" 
			},
			{
				"x": -1.6596191999,
				"y": 0.6001521107,
				"z": -3.930171038,
				"element": "H" 
			},
			{
				"x": -0.2837576299,
				"y": -0.1174588691,
				"z": -4.8114842385,
				"element": "H" 
			},
			{
				"x": 0.7427896058,
				"y": 2.1854933477,
				"z": -1.5943310713,
				"element": "H" 
			},
			{
				"x": -1.4000987056,
				"y": 2.3102770889,
				"z": 1.0670139047,
				"element": "H" 
			},
			{
				"x": -3.5780981421,
				"y": 1.1965562147,
				"z": 2.8160849599,
				"element": "H" 
			},
			{
				"x": -3.8146972326,
				"y": 1.0595349716,
				"z": 1.2007402235,
				"element": "H" 
			},
			{
				"x": -3.300552333,
				"y": -1.3571964695,
				"z": 2.5611104254,
				"element": "H" 
			},
			{
				"x": 0.1318463141,
				"y": -2.2476141943,
				"z": 2.3609839182,
				"element": "H" 
			},
			{
				"x": 1.7723407102,
				"y": -0.557076837,
				"z": 1.5161994327,
				"element": "H" 
			},
			{
				"x": 3.8973342446,
				"y": 0.6279485668,
				"z": -0.5607407284,
				"element": "H" 
			},
			{
				"x": 4.6793318909,
				"y": -1.5334414905,
				"z": -1.5283761697,
				"element": "H" 
			},
			{
				"x": 3.2568277932,
				"y": -2.7293308234,
				"z": -3.185500009,
				"element": "H" 
			},
			{
				"x": 1.0751246683,
				"y": -1.7906686486,
				"z": -3.8547397219,
				"element": "H" 
			}
		],
		 "valence_orbital": [ 
			{
				"type": "occ",
				"energy": -0.28897,
				"method": "rhf"
			},
			{
				"type": "occ",
				"energy": -0.26453,
				"method": "rhf"
			},
			{
				"type": "occ",
				"energy": -0.2442,
				"method": "rhf"
			},
			{
				"type": "occ",
				"energy": -0.23413,
				"method": "rhf"
			},
			{
				"type": "occ",
				"energy": -0.21475,
				"method": "rhf"
			},
			{
				"type": "unocc",
				"energy": -0.0259,
				"method": "rhf"
			},
			{
				"type": "unocc",
				"energy": -0.0204,
				"method": "rhf"
			},
			{
				"type": "unocc",
				"energy": -0.00394,
				"method": "rhf"
			},
			{
				"type": "unocc",
				"energy": 0.00718,
				"method": "rhf"
			},
			{
				"type": "unocc",
				"energy": 0.05889,
				"method": "rhf"
			}
		],
		"cosmo_sigma_profile": { 
			"-0.025": 0.0,
			"-0.024": 0.0,
			"-0.023": 0.0,
			"-0.022": 0.0,
			"-0.021": 0.0,
			"-0.02": 0.0,
			"-0.019": 0.0,
			"-0.018": 0.0,
			"-0.017": 0.0,
			"-0.016": 0.0,
			"-0.015": 0.0,
			"-0.014": 0.0,
			"-0.013": 0.326907443163,
			"-0.012": 3.19112177361,
			"-0.011": 3.76432721435,
			"-0.01": 4.70724192284,
			"-0.009": 4.74941665206,
			"-0.008": 4.28682872332,
			"-0.007": 9.01444211228,
			"-0.006": 19.07796338,
			"-0.005": 22.8418212437,
			"-0.004": 23.1043449312,
			"-0.003": 21.2386232102,
			"-0.002": 15.6801175705,
			"-0.001": 16.2263030256,
			"0.0": 17.1047365972,
			"0.001": 18.2127320632,
			"0.002": 26.5943031914,
			"0.003": 24.1771442149,
			"0.004": 16.4226259704,
			"0.005": 14.7759645182,
			"0.006": 8.48422910941,
			"0.007": 5.92527084471,
			"0.008": 5.88468611972,
			"0.009": 6.28878637645,
			"0.01": 8.12517309229,
			"0.011": 10.0066324605,
			"0.012": 2.75586088062,
			"0.013": 0.0,
			"0.014": 0.0,
			"0.015": 0.0,
			"0.016": 0.0,
			"0.017": 0.0,
			"0.018": 0.0,
			"0.019": 0.0,
			"0.02": 0.0,
			"0.021": 0.0,
			"0.022": 0.0,
			"0.023": 0.0,
			"0.024": 0.0,
			"0.025": 0.0
		}
	}
}
