{
	 "smiles": "CC(=O)NC1=CC(=C(N)C=C1)C(F)(F)F", 
	 "Tm": 392.15, 
	 "num_atms": 24, 
	 "gaussian": { 
		 "optdone": 1, 
		 "sigma_profile": "yes", 
		 "theory": "DFT", 
		 "functional": "B3LYP", 
		 "basiset": "6-31G**", 
		 "properties": { 
			 "R2extent": 4167.8681, 
			 "electric_dipole_moment_norm": 4.67907864862, 
			 "electric_quadrupole_moment_norm": 11.0139560876, 
			 "total_energy": -832.657304883, 
			 "HOMO_LUMO_gap": 0.17995, 
			 "cosmo_polarized_energy": -14.95, 
			 "cosmo_cavitation_energy": 29.44, 
			 "cosmo_dispersion_energy": -20.68, 
			 "cosmo_repulsion_energy": 1.57, 
			 "cosmo_total_nonelectrostatic_energy": 10.33, 
			 "SMD_solvation_energy": 6.94 
		},
		"coords": [
			{
				"x": -1.0882651768,
				"y": -2.6382516706,
				"z": 2.1079374011,
				"element": "C" 
			},
			{
				"x": 0.2146226044,
				"y": -2.925741771,
				"z": 1.3837087433,
				"element": "C" 
			},
			{
				"x": 0.8388798444,
				"y": -3.9632296814,
				"z": 1.5535796921,
				"element": "O" 
			},
			{
				"x": 0.6971445416,
				"y": -1.9683249425,
				"z": 0.5086763171,
				"element": "N" 
			},
			{
				"x": 0.172862235,
				"y": -0.6974898884,
				"z": 0.1594683985,
				"element": "C" 
			},
			{
				"x": -1.1320084946,
				"y": -0.5397441829,
				"z": -0.3105413037,
				"element": "C" 
			},
			{
				"x": -1.6301938207,
				"y": 0.7177464267,
				"z": -0.6580429315,
				"element": "C" 
			},
			{
				"x": -0.8079206264,
				"y": 1.8667857022,
				"z": -0.5806828627,
				"element": "C" 
			},
			{
				"x": -1.2482326914,
				"y": 3.1195103653,
				"z": -0.9737726385,
				"element": "N" 
			},
			{
				"x": 0.5161834601,
				"y": 1.6880186096,
				"z": -0.1368791204,
				"element": "C" 
			},
			{
				"x": 0.9919115906,
				"y": 0.4389747152,
				"z": 0.2340522769,
				"element": "C" 
			},
			{
				"x": -3.0320605407,
				"y": 0.831540441,
				"z": -1.1834054077,
				"element": "C" 
			},
			{
				"x": -3.7244796182,
				"y": -0.3181115168,
				"z": -1.0704128426,
				"element": "F" 
			},
			{
				"x": -3.0646368887,
				"y": 1.1950632467,
				"z": -2.4854811057,
				"element": "F" 
			},
			{
				"x": -3.7454188438,
				"y": 1.7874085783,
				"z": -0.5128679098,
				"element": "F" 
			},
			{
				"x": -1.2274457335,
				"y": -1.5788155947,
				"z": 2.3342765327,
				"element": "H" 
			},
			{
				"x": -1.9387704921,
				"y": -2.9695384278,
				"z": 1.5026942517,
				"element": "H" 
			},
			{
				"x": -1.0852708052,
				"y": -3.2230689151,
				"z": 3.0283748848,
				"element": "H" 
			},
			{
				"x": 1.6070406174,
				"y": -2.2173617016,
				"z": 0.1397416336,
				"element": "H" 
			},
			{
				"x": -1.7743741789,
				"y": -1.4045741437,
				"z": -0.418402812,
				"element": "H" 
			},
			{
				"x": -2.2429354953,
				"y": 3.285341898,
				"z": -0.9387024899,
				"element": "H" 
			},
			{
				"x": -0.6979705064,
				"y": 3.8995341332,
				"z": -0.6461171742,
				"element": "H" 
			},
			{
				"x": 1.1705715361,
				"y": 2.5533761375,
				"z": -0.0733717616,
				"element": "H" 
			},
			{
				"x": 2.010967483,
				"y": 0.3374521828,
				"z": 0.5967702285,
				"element": "H" 
			}
		],
		 "valence_orbital": [ 
			{
				"type": "occ",
				"energy": -0.33416,
				"method": "rhf"
			},
			{
				"type": "occ",
				"energy": -0.27586,
				"method": "rhf"
			},
			{
				"type": "occ",
				"energy": -0.2697,
				"method": "rhf"
			},
			{
				"type": "occ",
				"energy": -0.24836,
				"method": "rhf"
			},
			{
				"type": "occ",
				"energy": -0.21218,
				"method": "rhf"
			},
			{
				"type": "unocc",
				"energy": -0.03223,
				"method": "rhf"
			},
			{
				"type": "unocc",
				"energy": -0.01189,
				"method": "rhf"
			},
			{
				"type": "unocc",
				"energy": 0.03264,
				"method": "rhf"
			},
			{
				"type": "unocc",
				"energy": 0.07431,
				"method": "rhf"
			},
			{
				"type": "unocc",
				"energy": 0.08671,
				"method": "rhf"
			}
		],
		"cosmo_sigma_profile": { 
			"-0.025": 0.0,
			"-0.024": 0.0,
			"-0.023": 0.0,
			"-0.022": 0.0,
			"-0.021": 0.0,
			"-0.02": 0.0,
			"-0.019": 0.0,
			"-0.018": 0.0,
			"-0.017": 0.0,
			"-0.016": 0.0,
			"-0.015": 0.0,
			"-0.014": 0.607309486506,
			"-0.013": 2.23118220013,
			"-0.012": 3.12303506995,
			"-0.011": 2.95795148445,
			"-0.01": 4.11788014822,
			"-0.009": 3.78832767522,
			"-0.008": 4.32419345579,
			"-0.007": 7.77551544001,
			"-0.006": 9.21307435265,
			"-0.005": 10.5182298853,
			"-0.004": 11.7444808251,
			"-0.003": 12.1342554012,
			"-0.002": 14.7789567784,
			"-0.001": 17.8045402566,
			"0.0": 14.5161022731,
			"0.001": 16.9015010423,
			"0.002": 25.3034835199,
			"0.003": 33.360188695,
			"0.004": 9.53039602638,
			"0.005": 3.99248748215,
			"0.006": 2.10055197945,
			"0.007": 2.14715873838,
			"0.008": 2.47686381625,
			"0.009": 1.79203425847,
			"0.01": 1.65460071214,
			"0.011": 2.24350256969,
			"0.012": 2.57848025544,
			"0.013": 3.66540188072,
			"0.014": 5.42329665395,
			"0.015": 1.38197959514,
			"0.016": 0.0,
			"0.017": 0.0,
			"0.018": 0.0,
			"0.019": 0.0,
			"0.02": 0.0,
			"0.021": 0.0,
			"0.022": 0.0,
			"0.023": 0.0,
			"0.024": 0.0,
			"0.025": 0.0
		}
	}
}
