{
	 "smiles": "CC(NC(=O)CCl)C1CC2CCC1C2", 
	 "Tm": 361.15, 
	 "num_atms": 32, 
	 "gaussian": { 
		 "optdone": 1, 
		 "sigma_profile": "yes", 
		 "theory": "DFT", 
		 "functional": "B3LYP", 
		 "basiset": "6-31G**", 
		 "properties": { 
			 "R2extent": 4474.3394, 
			 "electric_dipole_moment_norm": 1.91921415168, 
			 "electric_quadrupole_moment_norm": 5.22340965654, 
			 "total_energy": -1020.21481318, 
			 "HOMO_LUMO_gap": 0.27087, 
			 "cosmo_polarized_energy": -9.2, 
			 "cosmo_cavitation_energy": 33.12, 
			 "cosmo_dispersion_energy": -23.52, 
			 "cosmo_repulsion_energy": 1.88, 
			 "cosmo_total_nonelectrostatic_energy": 11.47, 
			 "SMD_solvation_energy": 5.02 
		},
		"coords": [
			{
				"x": -1.0950839297,
				"y": 0.972046034,
				"z": -2.9311552459,
				"element": "C" 
			},
			{
				"x": -0.9065923152,
				"y": 0.1668246241,
				"z": -1.6372740268,
				"element": "C" 
			},
			{
				"x": -2.1525086038,
				"y": -0.5346397854,
				"z": -1.3096893903,
				"element": "N" 
			},
			{
				"x": -2.2569672489,
				"y": -1.8805097781,
				"z": -1.2767881416,
				"element": "C" 
			},
			{
				"x": -1.3404861966,
				"y": -2.6712621897,
				"z": -1.4825228482,
				"element": "O" 
			},
			{
				"x": -3.6235633644,
				"y": -2.4921311928,
				"z": -0.9520022948,
				"element": "C" 
			},
			{
				"x": -4.9991723724,
				"y": -1.3374182745,
				"z": -0.6622461067,
				"element": "Cl" 
			},
			{
				"x": -0.4444358504,
				"y": 1.0533702546,
				"z": -0.4661767915,
				"element": "C" 
			},
			{
				"x": 0.985302744,
				"y": 1.6708027443,
				"z": -0.6617732338,
				"element": "C" 
			},
			{
				"x": 1.6995509939,
				"y": 1.355245659,
				"z": 0.6746243652,
				"element": "C" 
			},
			{
				"x": 2.0369727109,
				"y": -0.1546548982,
				"z": 0.7010144847,
				"element": "C" 
			},
			{
				"x": 0.6372620801,
				"y": -0.8271594836,
				"z": 0.888075725,
				"element": "C" 
			},
			{
				"x": -0.3301605588,
				"y": 0.3812808814,
				"z": 0.9309510905,
				"element": "C" 
			},
			{
				"x": 0.5276586754,
				"y": 1.4271058012,
				"z": 1.6782613022,
				"element": "C" 
			},
			{
				"x": -1.3905823861,
				"y": 0.3160737404,
				"z": -3.7548679801,
				"element": "H" 
			},
			{
				"x": -1.8716336013,
				"y": 1.7367750688,
				"z": -2.8076803012,
				"element": "H" 
			},
			{
				"x": -0.1696497255,
				"y": 1.4816981527,
				"z": -3.214063388,
				"element": "H" 
			},
			{
				"x": -0.1736836346,
				"y": -0.6245567907,
				"z": -1.8143043059,
				"element": "H" 
			},
			{
				"x": -2.9855066655,
				"y": 0.0109738439,
				"z": -1.1320881564,
				"element": "H" 
			},
			{
				"x": -3.5223990689,
				"y": -3.0995866704,
				"z": -0.052568474,
				"element": "H" 
			},
			{
				"x": -3.9163795049,
				"y": -3.1360203936,
				"z": -1.7812550275,
				"element": "H" 
			},
			{
				"x": -1.173299551,
				"y": 1.872768762,
				"z": -0.3757199903,
				"element": "H" 
			},
			{
				"x": 1.516178362,
				"y": 1.2280468626,
				"z": -1.5127004625,
				"element": "H" 
			},
			{
				"x": 0.9305374697,
				"y": 2.749328399,
				"z": -0.8427018243,
				"element": "H" 
			},
			{
				"x": 2.5553818776,
				"y": 2.0046108756,
				"z": 0.8792158286,
				"element": "H" 
			},
			{
				"x": 2.7045105204,
				"y": -0.3901061499,
				"z": 1.5368409891,
				"element": "H" 
			},
			{
				"x": 2.5420769697,
				"y": -0.4768638165,
				"z": -0.2158406656,
				"element": "H" 
			},
			{
				"x": 0.5899826809,
				"y": -1.3674239262,
				"z": 1.8397624032,
				"element": "H" 
			},
			{
				"x": 0.393683366,
				"y": -1.5488808462,
				"z": 0.1048467866,
				"element": "H" 
			},
			{
				"x": -1.3008759287,
				"y": 0.1503716154,
				"z": 1.3774560062,
				"element": "H" 
			},
			{
				"x": 0.0599902345,
				"y": 2.4168404682,
				"z": 1.7321282203,
				"element": "H" 
			},
			{
				"x": 0.8037918216,
				"y": 1.1130504088,
				"z": 2.6908414538,
				"element": "H" 
			}
		],
		 "valence_orbital": [ 
			{
				"type": "occ",
				"energy": -0.30996,
				"method": "rhf"
			},
			{
				"type": "occ",
				"energy": -0.29887,
				"method": "rhf"
			},
			{
				"type": "occ",
				"energy": -0.28774,
				"method": "rhf"
			},
			{
				"type": "occ",
				"energy": -0.25726,
				"method": "rhf"
			},
			{
				"type": "occ",
				"energy": -0.25637,
				"method": "rhf"
			},
			{
				"type": "unocc",
				"energy": 0.0145,
				"method": "rhf"
			},
			{
				"type": "unocc",
				"energy": 0.02,
				"method": "rhf"
			},
			{
				"type": "unocc",
				"energy": 0.07234,
				"method": "rhf"
			},
			{
				"type": "unocc",
				"energy": 0.09,
				"method": "rhf"
			},
			{
				"type": "unocc",
				"energy": 0.10322,
				"method": "rhf"
			}
		],
		"cosmo_sigma_profile": { 
			"-0.025": 0.0,
			"-0.024": 0.0,
			"-0.023": 0.0,
			"-0.022": 0.0,
			"-0.021": 0.0,
			"-0.02": 0.0,
			"-0.019": 0.0,
			"-0.018": 0.0,
			"-0.017": 0.0,
			"-0.016": 0.0,
			"-0.015": 0.0,
			"-0.014": 0.0,
			"-0.013": 0.0,
			"-0.012": 0.23703122754,
			"-0.011": 0.519602395055,
			"-0.01": 0.775274931247,
			"-0.009": 3.48375281662,
			"-0.008": 5.15972882282,
			"-0.007": 4.43259747685,
			"-0.006": 4.95757713015,
			"-0.005": 5.71813219822,
			"-0.004": 7.3944555027,
			"-0.003": 19.5890052751,
			"-0.002": 36.1321018848,
			"-0.001": 38.1383586083,
			"0.0": 37.0088292423,
			"0.001": 32.4228785302,
			"0.002": 19.4488970682,
			"0.003": 6.71877525129,
			"0.004": 6.70687139478,
			"0.005": 8.20212920818,
			"0.006": 5.82957466848,
			"0.007": 1.91516430771,
			"0.008": 1.53041905345,
			"0.009": 0.678549748152,
			"0.01": 1.46259049175,
			"0.011": 1.70326140267,
			"0.012": 1.50643472025,
			"0.013": 4.05379676406,
			"0.014": 3.10333833225,
			"0.015": 0.214496172915,
			"0.016": 0.0,
			"0.017": 0.0,
			"0.018": 0.0,
			"0.019": 0.0,
			"0.02": 0.0,
			"0.021": 0.0,
			"0.022": 0.0,
			"0.023": 0.0,
			"0.024": 0.0,
			"0.025": 0.0
		}
	}
}
