{
	 "smiles": "ClC1=C(Cl)C=C(C=C1)N1C(=O)NC2=C(C(=CS2)C2=CC=CC=C2)C1=O", 
	 "Tm": 548.15, 
	 "num_atms": 35, 
	 "gaussian": { 
		 "optdone": 1, 
		 "sigma_profile": "yes", 
		 "theory": "DFT", 
		 "functional": "B3LYP", 
		 "basiset": "6-31G**", 
		 "properties": { 
			 "R2extent": 13983.9441, 
			 "electric_dipole_moment_norm": 5.64492264429, 
			 "electric_quadrupole_moment_norm": 16.3844438539, 
			 "total_energy": -2270.48814677, 
			 "HOMO_LUMO_gap": 0.17747, 
			 "cosmo_polarized_energy": -19.66, 
			 "cosmo_cavitation_energy": 45.58, 
			 "cosmo_dispersion_energy": -33.01, 
			 "cosmo_repulsion_energy": 2.45, 
			 "cosmo_total_nonelectrostatic_energy": 15.01, 
			 "SMD_solvation_energy": 7.8 
		},
		"coords": [
			{
				"x": 3.0665226464,
				"y": -0.3577797914,
				"z": 6.6095651112,
				"element": "Cl" 
			},
			{
				"x": 2.2967713922,
				"y": 0.0765298921,
				"z": 5.1046932643,
				"element": "C" 
			},
			{
				"x": 0.9459318374,
				"y": 0.4454199418,
				"z": 5.052182287,
				"element": "C" 
			},
			{
				"x": -0.0458284278,
				"y": 0.4910515641,
				"z": 6.4885958341,
				"element": "Cl" 
			},
			{
				"x": 0.3644159744,
				"y": 0.7825294059,
				"z": 3.8299164797,
				"element": "C" 
			},
			{
				"x": 1.1288087382,
				"y": 0.7626324336,
				"z": 2.6662531874,
				"element": "C" 
			},
			{
				"x": 2.474143635,
				"y": 0.3987367603,
				"z": 2.7127288145,
				"element": "C" 
			},
			{
				"x": 3.051795284,
				"y": 0.053621538,
				"z": 3.9297476806,
				"element": "C" 
			},
			{
				"x": 0.5169903818,
				"y": 1.1150159474,
				"z": 1.4085988722,
				"element": "N" 
			},
			{
				"x": 0.0727850054,
				"y": 2.4406180214,
				"z": 1.2786695541,
				"element": "C" 
			},
			{
				"x": 0.1671142893,
				"y": 3.2844821952,
				"z": 2.1497870578,
				"element": "O" 
			},
			{
				"x": -0.5017033154,
				"y": 2.7341173618,
				"z": 0.0470562608,
				"element": "N" 
			},
			{
				"x": -0.6325765644,
				"y": 1.8117693441,
				"z": -0.9585320868,
				"element": "C" 
			},
			{
				"x": -0.2158340837,
				"y": 0.5025347258,
				"z": -0.834933654,
				"element": "C" 
			},
			{
				"x": -0.4355322348,
				"y": -0.2594727269,
				"z": -2.0539105558,
				"element": "C" 
			},
			{
				"x": -1.0066525255,
				"y": 0.51867802,
				"z": -3.0228218494,
				"element": "C" 
			},
			{
				"x": -1.295814153,
				"y": 2.1699247936,
				"z": -2.5192324582,
				"element": "S" 
			},
			{
				"x": -0.1240685823,
				"y": -1.6885194523,
				"z": -2.3049241464,
				"element": "C" 
			},
			{
				"x": 0.4891797123,
				"y": -2.0570676245,
				"z": -3.5137683635,
				"element": "C" 
			},
			{
				"x": 0.7286647613,
				"y": -3.3980156005,
				"z": -3.8130206164,
				"element": "C" 
			},
			{
				"x": 0.3583733957,
				"y": -4.3926332805,
				"z": -2.9074157562,
				"element": "C" 
			},
			{
				"x": -0.2487219921,
				"y": -4.036399264,
				"z": -1.7008769377,
				"element": "C" 
			},
			{
				"x": -0.4875254747,
				"y": -2.6975743766,
				"z": -1.3989819693,
				"element": "C" 
			},
			{
				"x": 0.4287083721,
				"y": 0.0854836043,
				"z": 0.4089857769,
				"element": "C" 
			},
			{
				"x": 0.8768663843,
				"y": -1.0222508883,
				"z": 0.6446152442,
				"element": "O" 
			},
			{
				"x": -0.6789193926,
				"y": 1.0703276054,
				"z": 3.7971670572,
				"element": "H" 
			},
			{
				"x": 3.0625276985,
				"y": 0.3743061375,
				"z": 1.8033278603,
				"element": "H" 
			},
			{
				"x": 4.0952039307,
				"y": -0.2356796482,
				"z": 3.9800274866,
				"element": "H" 
			},
			{
				"x": -0.8132897228,
				"y": 3.6900848495,
				"z": -0.0526622559,
				"element": "H" 
			},
			{
				"x": -1.3211544279,
				"y": 0.212451807,
				"z": -4.0098335049,
				"element": "H" 
			},
			{
				"x": 0.7971839816,
				"y": -1.2831153731,
				"z": -4.2107749464,
				"element": "H" 
			},
			{
				"x": 1.2111422647,
				"y": -3.6628937697,
				"z": -4.7495106194,
				"element": "H" 
			},
			{
				"x": 0.5466295622,
				"y": -5.4376343533,
				"z": -3.1361867829,
				"element": "H" 
			},
			{
				"x": -0.5375052806,
				"y": -4.8045333563,
				"z": -0.9894227795,
				"element": "H" 
			},
			{
				"x": -0.9518330698,
				"y": -2.432246443,
				"z": -0.4570085461,
				"element": "H" 
			}
		],
		 "valence_orbital": [ 
			{
				"type": "occ",
				"energy": -0.26158,
				"method": "rhf"
			},
			{
				"type": "occ",
				"energy": -0.25259,
				"method": "rhf"
			},
			{
				"type": "occ",
				"energy": -0.24948,
				"method": "rhf"
			},
			{
				"type": "occ",
				"energy": -0.24635,
				"method": "rhf"
			},
			{
				"type": "occ",
				"energy": -0.22721,
				"method": "rhf"
			},
			{
				"type": "unocc",
				"energy": -0.04974,
				"method": "rhf"
			},
			{
				"type": "unocc",
				"energy": -0.03573,
				"method": "rhf"
			},
			{
				"type": "unocc",
				"energy": -0.02493,
				"method": "rhf"
			},
			{
				"type": "unocc",
				"energy": -0.0229,
				"method": "rhf"
			},
			{
				"type": "unocc",
				"energy": -0.01643,
				"method": "rhf"
			}
		],
		"cosmo_sigma_profile": { 
			"-0.025": 0.0,
			"-0.024": 0.0,
			"-0.023": 0.0,
			"-0.022": 0.0,
			"-0.021": 0.0,
			"-0.02": 0.0,
			"-0.019": 0.0,
			"-0.018": 0.715981369353,
			"-0.017": 1.23741560989,
			"-0.016": 1.23440138453,
			"-0.015": 1.25466414296,
			"-0.014": 1.18219615249,
			"-0.013": 0.800046386395,
			"-0.012": 0.896421729774,
			"-0.011": 1.15962970372,
			"-0.01": 1.18642841947,
			"-0.009": 3.7055742165,
			"-0.008": 7.25298164001,
			"-0.007": 8.87467050071,
			"-0.006": 15.7106878178,
			"-0.005": 21.0543750615,
			"-0.004": 22.6582836747,
			"-0.003": 26.0490148197,
			"-0.002": 23.4802548951,
			"-0.001": 27.2672107383,
			"0.0": 34.0434570419,
			"0.001": 33.8029617984,
			"0.002": 31.372324315,
			"0.003": 29.954619657,
			"0.004": 24.8004136298,
			"0.005": 15.3124116502,
			"0.006": 8.33879834366,
			"0.007": 4.03846009904,
			"0.008": 3.20571766472,
			"0.009": 3.94007582807,
			"0.01": 4.06869705229,
			"0.011": 5.2328850821,
			"0.012": 9.30164083251,
			"0.013": 1.30360242147,
			"0.014": 0.0,
			"0.015": 0.0,
			"0.016": 0.0,
			"0.017": 0.0,
			"0.018": 0.0,
			"0.019": 0.0,
			"0.02": 0.0,
			"0.021": 0.0,
			"0.022": 0.0,
			"0.023": 0.0,
			"0.024": 0.0,
			"0.025": 0.0
		}
	}
}
