{
	 "smiles": "OC1=CC=C(O)C(CC2=CC=CC=C2)=C1", 
	 "Tm": 379.15, 
	 "num_atms": 27, 
	 "gaussian": { 
		 "optdone": 1, 
		 "sigma_profile": "yes", 
		 "theory": "DFT", 
		 "functional": "B3LYP", 
		 "basiset": "6-31G**", 
		 "properties": { 
			 "R2extent": 4381.8512, 
			 "electric_dipole_moment_norm": 0.908285781018, 
			 "electric_quadrupole_moment_norm": 12.5108171811, 
			 "total_energy": -653.061117764, 
			 "HOMO_LUMO_gap": 0.18325, 
			 "cosmo_polarized_energy": -11.97, 
			 "cosmo_cavitation_energy": 30.53, 
			 "cosmo_dispersion_energy": -21.98, 
			 "cosmo_repulsion_energy": 1.71, 
			 "cosmo_total_nonelectrostatic_energy": 10.26, 
			 "SMD_solvation_energy": 5.31 
		},
		"coords": [
			{
				"x": 1.7385055985,
				"y": 1.6977963325,
				"z": 4.8105492943,
				"element": "O" 
			},
			{
				"x": 1.9025674689,
				"y": 1.6385887415,
				"z": 3.4494959125,
				"element": "C" 
			},
			{
				"x": 3.107543645,
				"y": 1.2799253842,
				"z": 2.8417431261,
				"element": "C" 
			},
			{
				"x": 3.196199141,
				"y": 1.2306817242,
				"z": 1.4507029934,
				"element": "C" 
			},
			{
				"x": 2.0946282937,
				"y": 1.5490155879,
				"z": 0.6562789422,
				"element": "C" 
			},
			{
				"x": 2.2635958843,
				"y": 1.5090275489,
				"z": -0.7047879681,
				"element": "O" 
			},
			{
				"x": 0.8784719438,
				"y": 1.9303615184,
				"z": 1.2586272364,
				"element": "C" 
			},
			{
				"x": -0.3080455854,
				"y": 2.3401858296,
				"z": 0.4063998257,
				"element": "C" 
			},
			{
				"x": -0.8251273459,
				"y": 1.2629724501,
				"z": -0.5407252682,
				"element": "C" 
			},
			{
				"x": -1.0830818673,
				"y": -0.037463201,
				"z": -0.0787009841,
				"element": "C" 
			},
			{
				"x": -1.5851162182,
				"y": -1.0122792852,
				"z": -0.9389391323,
				"element": "C" 
			},
			{
				"x": -1.8328040655,
				"y": -0.7087491552,
				"z": -2.2809443578,
				"element": "C" 
			},
			{
				"x": -1.5748179276,
				"y": 0.5767671746,
				"z": -2.7548881179,
				"element": "C" 
			},
			{
				"x": -1.0751723758,
				"y": 1.5544379237,
				"z": -1.8894653807,
				"element": "C" 
			},
			{
				"x": 0.7994245135,
				"y": 1.9592928734,
				"z": 2.6534532801,
				"element": "C" 
			},
			{
				"x": 2.5725114976,
				"y": 1.4610266965,
				"z": 5.2354930283,
				"element": "H" 
			},
			{
				"x": 3.9752671221,
				"y": 1.0299606613,
				"z": 3.4487921407,
				"element": "H" 
			},
			{
				"x": 4.1214250315,
				"y": 0.9437829119,
				"z": 0.9618341455,
				"element": "H" 
			},
			{
				"x": 1.405043949,
				"y": 1.3744022792,
				"z": -1.13217381,
				"element": "H" 
			},
			{
				"x": -0.042753497,
				"y": 3.2258382416,
				"z": -0.185908427,
				"element": "H" 
			},
			{
				"x": -1.1220133584,
				"y": 2.6530038246,
				"z": 1.0709886223,
				"element": "H" 
			},
			{
				"x": -0.8815628242,
				"y": -0.2813047061,
				"z": 0.9607406113,
				"element": "H" 
			},
			{
				"x": -1.7807148308,
				"y": -2.0127284765,
				"z": -0.5633207614,
				"element": "H" 
			},
			{
				"x": -2.2200500567,
				"y": -1.4709876516,
				"z": -2.9507480711,
				"element": "H" 
			},
			{
				"x": -1.7603408558,
				"y": 0.8229328015,
				"z": -3.79654004,
				"element": "H" 
			},
			{
				"x": -0.8839067638,
				"y": 2.5580541667,
				"z": -2.2629876343,
				"element": "H" 
			},
			{
				"x": -0.1258765165,
				"y": 2.2486578033,
				"z": 3.142930794,
				"element": "H" 
			}
		],
		 "valence_orbital": [ 
			{
				"type": "occ",
				"energy": -0.2952,
				"method": "rhf"
			},
			{
				"type": "occ",
				"energy": -0.25718,
				"method": "rhf"
			},
			{
				"type": "occ",
				"energy": -0.25271,
				"method": "rhf"
			},
			{
				"type": "occ",
				"energy": -0.24169,
				"method": "rhf"
			},
			{
				"type": "occ",
				"energy": -0.19524,
				"method": "rhf"
			},
			{
				"type": "unocc",
				"energy": -0.01199,
				"method": "rhf"
			},
			{
				"type": "unocc",
				"energy": -0.01125,
				"method": "rhf"
			},
			{
				"type": "unocc",
				"energy": 0.00488,
				"method": "rhf"
			},
			{
				"type": "unocc",
				"energy": 0.02792,
				"method": "rhf"
			},
			{
				"type": "unocc",
				"energy": 0.07521,
				"method": "rhf"
			}
		],
		"cosmo_sigma_profile": { 
			"-0.025": 0.0,
			"-0.024": 0.0,
			"-0.023": 0.0,
			"-0.022": 0.0,
			"-0.021": 0.0,
			"-0.02": 0.0,
			"-0.019": 0.0,
			"-0.018": 0.0275432337362,
			"-0.017": 0.857058574016,
			"-0.016": 1.25194880573,
			"-0.015": 1.00940966694,
			"-0.014": 0.933754519977,
			"-0.013": 1.39758399654,
			"-0.012": 0.78160258719,
			"-0.011": 0.518206922091,
			"-0.01": 0.884757001971,
			"-0.009": 1.53875974123,
			"-0.008": 1.57250938185,
			"-0.007": 3.80370506751,
			"-0.006": 12.2598009825,
			"-0.005": 20.1674015376,
			"-0.004": 19.8605225092,
			"-0.003": 20.2298927689,
			"-0.002": 16.5795708432,
			"-0.001": 13.955575087,
			"0.0": 14.0113339651,
			"0.001": 12.873967428,
			"0.002": 13.3818174643,
			"0.003": 16.155340868,
			"0.004": 18.1351194525,
			"0.005": 20.8803383397,
			"0.006": 10.7016728726,
			"0.007": 2.99503987555,
			"0.008": 2.79956290077,
			"0.009": 2.81854225082,
			"0.01": 3.12102096768,
			"0.011": 3.21970529007,
			"0.012": 3.9442056401,
			"0.013": 0.287981721677,
			"0.014": 0.0,
			"0.015": 0.0,
			"0.016": 0.0,
			"0.017": 0.0,
			"0.018": 0.0,
			"0.019": 0.0,
			"0.02": 0.0,
			"0.021": 0.0,
			"0.022": 0.0,
			"0.023": 0.0,
			"0.024": 0.0,
			"0.025": 0.0
		}
	}
}
