{
	 "smiles": "CO[C@]1(CBr)O[C@H](COC(=O)C2=CC=C(C)C=C2)[C@@H](OC(=O)C2=CC=C(C)C=C2)[C@@H]1OC(=O)C1=CC=C(C)C=C1", 
	 "Tm": 421.15, 
	 "num_atms": 71, 
	 "gaussian": { 
		 "optdone": 1, 
		 "sigma_profile": "yes", 
		 "theory": "DFT", 
		 "functional": "B3LYP", 
		 "basiset": "6-31G**", 
		 "properties": { 
			 "R2extent": 31028.1666, 
			 "electric_dipole_moment_norm": 5.68711552371, 
			 "electric_quadrupole_moment_norm": 33.8761778178, 
			 "total_energy": -4373.21848062, 
			 "HOMO_LUMO_gap": 0.19537, 
			 "cosmo_polarized_energy": -24.73, 
			 "cosmo_cavitation_energy": 76.89, 
			 "cosmo_dispersion_energy": -49.97, 
			 "cosmo_repulsion_energy": 3.8, 
			 "cosmo_total_nonelectrostatic_energy": 30.73, 
			 "SMD_solvation_energy": 13.91 
		},
		"coords": [
			{
				"x": 0.7364632021,
				"y": -3.4644698734,
				"z": -3.172300661,
				"element": "C" 
			},
			{
				"x": 1.1848116369,
				"y": -3.0532511904,
				"z": -1.8813909132,
				"element": "O" 
			},
			{
				"x": 1.5610897236,
				"y": -1.7128665675,
				"z": -1.6654326127,
				"element": "C" 
			},
			{
				"x": 2.253888053,
				"y": -1.0403504204,
				"z": -2.8541567773,
				"element": "C" 
			},
			{
				"x": 3.9085930179,
				"y": -1.9441355089,
				"z": -3.4225414122,
				"element": "Br" 
			},
			{
				"x": 2.4486479642,
				"y": -1.6791122938,
				"z": -0.5817398491,
				"element": "O" 
			},
			{
				"x": 1.736701202,
				"y": -1.5946726935,
				"z": 0.6633807375,
				"element": "C" 
			},
			{
				"x": 1.4885091329,
				"y": -2.9998050675,
				"z": 1.2242410191,
				"element": "C" 
			},
			{
				"x": 0.8345456307,
				"y": -2.9144201807,
				"z": 2.5065027376,
				"element": "O" 
			},
			{
				"x": 1.6264010193,
				"y": -2.6916967099,
				"z": 3.5853503102,
				"element": "C" 
			},
			{
				"x": 2.8312329792,
				"y": -2.5368069552,
				"z": 3.5095712913,
				"element": "O" 
			},
			{
				"x": 0.8527412205,
				"y": -2.6632106775,
				"z": 4.8557066763,
				"element": "C" 
			},
			{
				"x": -0.5366302536,
				"y": -2.8442221176,
				"z": 4.8981582782,
				"element": "C" 
			},
			{
				"x": -1.2062730164,
				"y": -2.8028989009,
				"z": 6.1182357345,
				"element": "C" 
			},
			{
				"x": -0.5149324349,
				"y": -2.5854959509,
				"z": 7.318970463,
				"element": "C" 
			},
			{
				"x": -1.2438467823,
				"y": -2.574395188,
				"z": 8.6409671135,
				"element": "C" 
			},
			{
				"x": 0.8750984246,
				"y": -2.4026825192,
				"z": 7.2624193898,
				"element": "C" 
			},
			{
				"x": 1.5533711541,
				"y": -2.4410059276,
				"z": 6.0488403546,
				"element": "C" 
			},
			{
				"x": 0.4557351327,
				"y": -0.8059294376,
				"z": 0.3662016954,
				"element": "C" 
			},
			{
				"x": 0.6747880098,
				"y": 0.5503268636,
				"z": 0.8201235964,
				"element": "O" 
			},
			{
				"x": -0.4377051169,
				"y": 1.322762504,
				"z": 0.9390217569,
				"element": "C" 
			},
			{
				"x": -1.5469827748,
				"y": 0.9335780933,
				"z": 0.6253786475,
				"element": "O" 
			},
			{
				"x": -0.1363510617,
				"y": 2.6735779676,
				"z": 1.4803913634,
				"element": "C" 
			},
			{
				"x": -1.200046521,
				"y": 3.57509975,
				"z": 1.6264519956,
				"element": "C" 
			},
			{
				"x": -0.9713274809,
				"y": 4.8522280574,
				"z": 2.1259959012,
				"element": "C" 
			},
			{
				"x": 0.3189145436,
				"y": 5.2635261088,
				"z": 2.4950364065,
				"element": "C" 
			},
			{
				"x": 0.5566754185,
				"y": 6.6402127916,
				"z": 3.0665518476,
				"element": "C" 
			},
			{
				"x": 1.3756152152,
				"y": 4.3545227367,
				"z": 2.3418976624,
				"element": "C" 
			},
			{
				"x": 1.1573385539,
				"y": 3.0730762372,
				"z": 1.8426627037,
				"element": "C" 
			},
			{
				"x": 0.3415964271,
				"y": -0.835367534,
				"z": -1.1800177421,
				"element": "C" 
			},
			{
				"x": -0.9039896587,
				"y": -1.2019904252,
				"z": -1.7756800154,
				"element": "O" 
			},
			{
				"x": -1.6975549184,
				"y": -2.1846656903,
				"z": -1.2686972926,
				"element": "C" 
			},
			{
				"x": -1.4228871082,
				"y": -2.8600851453,
				"z": -0.2976458804,
				"element": "O" 
			},
			{
				"x": -2.9479855771,
				"y": -2.3351210584,
				"z": -2.0604771635,
				"element": "C" 
			},
			{
				"x": -3.826353946,
				"y": -3.3682767699,
				"z": -1.7037309784,
				"element": "C" 
			},
			{
				"x": -5.0108616128,
				"y": -3.5550837906,
				"z": -2.407055843,
				"element": "C" 
			},
			{
				"x": -5.3529599084,
				"y": -2.719961162,
				"z": -3.4819126774,
				"element": "C" 
			},
			{
				"x": -6.6260499216,
				"y": -2.9453904483,
				"z": -4.2607449891,
				"element": "C" 
			},
			{
				"x": -4.4713072897,
				"y": -1.6851548156,
				"z": -3.8254091771,
				"element": "C" 
			},
			{
				"x": -3.2817132042,
				"y": -1.4905338095,
				"z": -3.1283071173,
				"element": "C" 
			},
			{
				"x": 0.3798521866,
				"y": -4.4883286232,
				"z": -3.0448144378,
				"element": "H" 
			},
			{
				"x": 1.5546050715,
				"y": -3.4637330672,
				"z": -3.9005016613,
				"element": "H" 
			},
			{
				"x": -0.0910878848,
				"y": -2.8508291312,
				"z": -3.5445354906,
				"element": "H" 
			},
			{
				"x": 1.6072498223,
				"y": -0.998816467,
				"z": -3.7297199197,
				"element": "H" 
			},
			{
				"x": 2.5554848339,
				"y": -0.0341582356,
				"z": -2.56977228,
				"element": "H" 
			},
			{
				"x": 2.3749185092,
				"y": -1.0417104954,
				"z": 1.3552406765,
				"element": "H" 
			},
			{
				"x": 0.8090222241,
				"y": -3.5609439017,
				"z": 0.5863695786,
				"element": "H" 
			},
			{
				"x": 2.4454406558,
				"y": -3.5147882943,
				"z": 1.3244239973,
				"element": "H" 
			},
			{
				"x": -1.0828881605,
				"y": -3.0120499005,
				"z": 3.9769900439,
				"element": "H" 
			},
			{
				"x": -2.2844811848,
				"y": -2.9398393338,
				"z": 6.1408652576,
				"element": "H" 
			},
			{
				"x": -0.7455671099,
				"y": -1.9261546525,
				"z": 9.367936616,
				"element": "H" 
			},
			{
				"x": -1.2827626509,
				"y": -3.5811051135,
				"z": 9.0760855848,
				"element": "H" 
			},
			{
				"x": -2.2759817902,
				"y": -2.2300953626,
				"z": 8.526912755,
				"element": "H" 
			},
			{
				"x": 1.4282858516,
				"y": -2.2265396917,
				"z": 8.1815691529,
				"element": "H" 
			},
			{
				"x": 2.6277695541,
				"y": -2.2983251166,
				"z": 6.0010222306,
				"element": "H" 
			},
			{
				"x": -0.4238894203,
				"y": -1.2075092,
				"z": 0.8593852824,
				"element": "H" 
			},
			{
				"x": -2.1959585745,
				"y": 3.2541576779,
				"z": 1.3399479637,
				"element": "H" 
			},
			{
				"x": -1.80301571,
				"y": 5.5442320286,
				"z": 2.2317839044,
				"element": "H" 
			},
			{
				"x": 1.5865049235,
				"y": 6.9702984379,
				"z": 2.9031553642,
				"element": "H" 
			},
			{
				"x": 0.3778914434,
				"y": 6.6508595266,
				"z": 4.1491390684,
				"element": "H" 
			},
			{
				"x": -0.1147824009,
				"y": 7.3803353909,
				"z": 2.6207884344,
				"element": "H" 
			},
			{
				"x": 2.3828040342,
				"y": 4.6559651512,
				"z": 2.6178699988,
				"element": "H" 
			},
			{
				"x": 1.9841449691,
				"y": 2.3810903957,
				"z": 1.7307483574,
				"element": "H" 
			},
			{
				"x": 0.4909459952,
				"y": 0.1897533455,
				"z": -1.5260965897,
				"element": "H" 
			},
			{
				"x": -3.5626869888,
				"y": -4.0095492136,
				"z": -0.8695313908,
				"element": "H" 
			},
			{
				"x": -5.6847100207,
				"y": -4.3580004608,
				"z": -2.1191418328,
				"element": "H" 
			},
			{
				"x": -7.427022805,
				"y": -3.3224265833,
				"z": -3.6177673554,
				"element": "H" 
			},
			{
				"x": -6.4730814654,
				"y": -3.6858558223,
				"z": -5.05603583,
				"element": "H" 
			},
			{
				"x": -6.9742153205,
				"y": -2.0238863546,
				"z": -4.7359775553,
				"element": "H" 
			},
			{
				"x": -4.7239186689,
				"y": -1.0202930082,
				"z": -4.6474036489,
				"element": "H" 
			},
			{
				"x": -2.6153689925,
				"y": -0.6800062061,
				"z": -3.3994528551,
				"element": "H" 
			}
		],
		 "valence_orbital": [ 
			{
				"type": "occ",
				"energy": -0.25651,
				"method": "rhf"
			},
			{
				"type": "occ",
				"energy": -0.2523,
				"method": "rhf"
			},
			{
				"type": "occ",
				"energy": -0.25111,
				"method": "rhf"
			},
			{
				"type": "occ",
				"energy": -0.25035,
				"method": "rhf"
			},
			{
				"type": "occ",
				"energy": -0.24369,
				"method": "rhf"
			},
			{
				"type": "unocc",
				"energy": -0.04832,
				"method": "rhf"
			},
			{
				"type": "unocc",
				"energy": -0.0455,
				"method": "rhf"
			},
			{
				"type": "unocc",
				"energy": -0.03743,
				"method": "rhf"
			},
			{
				"type": "unocc",
				"energy": -0.01006,
				"method": "rhf"
			},
			{
				"type": "unocc",
				"energy": -0.00793,
				"method": "rhf"
			}
		],
		"cosmo_sigma_profile": { 
			"-0.025": 0.0,
			"-0.024": 0.0,
			"-0.023": 0.0,
			"-0.022": 0.0,
			"-0.021": 0.0,
			"-0.02": 0.0,
			"-0.019": 0.0,
			"-0.018": 0.0,
			"-0.017": 0.0,
			"-0.016": 0.0,
			"-0.015": 0.0,
			"-0.014": 0.0,
			"-0.013": 0.0,
			"-0.012": 0.0,
			"-0.011": 0.262529205714,
			"-0.01": 1.78345067975,
			"-0.009": 3.44287975614,
			"-0.008": 6.43757282741,
			"-0.007": 5.89504819139,
			"-0.006": 19.5637545064,
			"-0.005": 44.5556542194,
			"-0.004": 57.6118557688,
			"-0.003": 54.9859444281,
			"-0.002": 52.5701487552,
			"-0.001": 55.8961320073,
			"0.0": 52.9375306404,
			"0.001": 44.7842803773,
			"0.002": 44.3251162303,
			"0.003": 41.9527304831,
			"0.004": 47.8151758246,
			"0.005": 20.7398596051,
			"0.006": 14.6085185695,
			"0.007": 8.18783058059,
			"0.008": 7.48493088652,
			"0.009": 7.24266711147,
			"0.01": 8.55757190675,
			"0.011": 7.94857586794,
			"0.012": 4.22990819308,
			"0.013": 0.0286461757916,
			"0.014": 0.0,
			"0.015": 0.0,
			"0.016": 0.0,
			"0.017": 0.0,
			"0.018": 0.0,
			"0.019": 0.0,
			"0.02": 0.0,
			"0.021": 0.0,
			"0.022": 0.0,
			"0.023": 0.0,
			"0.024": 0.0,
			"0.025": 0.0
		}
	}
}
