{
	 "smiles": "CCCCCCCCCOC1=CC=C(N)C=C1", 
	 "Tm": 312.15, 
	 "num_atms": 42, 
	 "gaussian": { 
		 "optdone": 1, 
		 "sigma_profile": "yes", 
		 "theory": "DFT", 
		 "functional": "B3LYP", 
		 "basiset": "6-31G**", 
		 "properties": { 
			 "R2extent": 9622.1357, 
			 "electric_dipole_moment_norm": 1.61592749219, 
			 "electric_quadrupole_moment_norm": 17.6717936928, 
			 "total_energy": -716.65617207, 
			 "HOMO_LUMO_gap": 0.18751, 
			 "cosmo_polarized_energy": -9.83, 
			 "cosmo_cavitation_energy": 43.13, 
			 "cosmo_dispersion_energy": -30.52, 
			 "cosmo_repulsion_energy": 2.45, 
			 "cosmo_total_nonelectrostatic_energy": 15.07, 
			 "SMD_solvation_energy": 6.4 
		},
		"coords": [
			{
				"x": 6.310375847,
				"y": 1.4693418055,
				"z": -2.535628761,
				"element": "C" 
			},
			{
				"x": 5.2809897463,
				"y": 0.3963191211,
				"z": -2.9157788722,
				"element": "C" 
			},
			{
				"x": 3.9672535431,
				"y": 0.9259806159,
				"z": -3.5311107003,
				"element": "C" 
			},
			{
				"x": 2.84273653,
				"y": 1.2882061153,
				"z": -2.54322673,
				"element": "C" 
			},
			{
				"x": 3.1161922744,
				"y": 2.4798623404,
				"z": -1.6124283007,
				"element": "C" 
			},
			{
				"x": 1.8885765227,
				"y": 2.9463043766,
				"z": -0.8112839068,
				"element": "C" 
			},
			{
				"x": 1.366933667,
				"y": 1.9262917786,
				"z": 0.2101872706,
				"element": "C" 
			},
			{
				"x": 0.1887911925,
				"y": 2.4580056975,
				"z": 1.0359798442,
				"element": "C" 
			},
			{
				"x": -0.3553006004,
				"y": 1.4550329442,
				"z": 2.0457674993,
				"element": "C" 
			},
			{
				"x": -0.8759553542,
				"y": 0.3423177067,
				"z": 1.3270426781,
				"element": "O" 
			},
			{
				"x": -1.4097393946,
				"y": -0.7032030567,
				"z": 2.0367332416,
				"element": "C" 
			},
			{
				"x": -1.4919570465,
				"y": -0.76826935,
				"z": 3.4306780949,
				"element": "C" 
			},
			{
				"x": -2.0562291402,
				"y": -1.8884896902,
				"z": 4.0483271248,
				"element": "C" 
			},
			{
				"x": -2.5504895946,
				"y": -2.9621891798,
				"z": 3.2986739809,
				"element": "C" 
			},
			{
				"x": -3.1747570916,
				"y": -4.0586893538,
				"z": 3.9191572474,
				"element": "N" 
			},
			{
				"x": -2.4630094406,
				"y": -2.8827903652,
				"z": 1.8970706242,
				"element": "C" 
			},
			{
				"x": -1.9018288161,
				"y": -1.7737726567,
				"z": 1.2778043321,
				"element": "C" 
			},
			{
				"x": 6.5879042556,
				"y": 2.0690139222,
				"z": -3.4103315814,
				"element": "H" 
			},
			{
				"x": 5.9341759444,
				"y": 2.1571831147,
				"z": -1.7733941311,
				"element": "H" 
			},
			{
				"x": 7.2263888952,
				"y": 1.0125641407,
				"z": -2.145113568,
				"element": "H" 
			},
			{
				"x": 5.7533687806,
				"y": -0.2825562753,
				"z": -3.637171545,
				"element": "H" 
			},
			{
				"x": 5.0465161772,
				"y": -0.2212391759,
				"z": -2.0376209783,
				"element": "H" 
			},
			{
				"x": 4.1895806096,
				"y": 1.7944977368,
				"z": -4.1679667249,
				"element": "H" 
			},
			{
				"x": 3.5687320409,
				"y": 0.1574463899,
				"z": -4.2056915466,
				"element": "H" 
			},
			{
				"x": 1.9371471951,
				"y": 1.5087225829,
				"z": -3.126442951,
				"element": "H" 
			},
			{
				"x": 2.6039466233,
				"y": 0.3988698767,
				"z": -1.9450363588,
				"element": "H" 
			},
			{
				"x": 3.9219123469,
				"y": 2.2305656594,
				"z": -0.9098751652,
				"element": "H" 
			},
			{
				"x": 3.4845366441,
				"y": 3.3226147964,
				"z": -2.2133081476,
				"element": "H" 
			},
			{
				"x": 1.0792779593,
				"y": 3.2056265398,
				"z": -1.5091414008,
				"element": "H" 
			},
			{
				"x": 2.1436601948,
				"y": 3.8768036567,
				"z": -0.2851355643,
				"element": "H" 
			},
			{
				"x": 2.1846651345,
				"y": 1.6425870697,
				"z": 0.8892293296,
				"element": "H" 
			},
			{
				"x": 1.0522822843,
				"y": 1.0068690656,
				"z": -0.2942050974,
				"element": "H" 
			},
			{
				"x": 0.4923540343,
				"y": 3.358556982,
				"z": 1.58674398,
				"element": "H" 
			},
			{
				"x": -0.6292545519,
				"y": 2.7586657354,
				"z": 0.3690822312,
				"element": "H" 
			},
			{
				"x": 0.4426479439,
				"y": 1.1232756306,
				"z": 2.7283390171,
				"element": "H" 
			},
			{
				"x": -1.1479832643,
				"y": 1.9131568579,
				"z": 2.6558070962,
				"element": "H" 
			},
			{
				"x": -1.1211255542,
				"y": 0.0396790511,
				"z": 4.0503750399,
				"element": "H" 
			},
			{
				"x": -2.1152373221,
				"y": -1.9204987514,
				"z": 5.1338062156,
				"element": "H" 
			},
			{
				"x": -3.1273169541,
				"y": -4.9151726906,
				"z": 3.3823976949,
				"element": "H" 
			},
			{
				"x": -2.8701853704,
				"y": -4.2197780904,
				"z": 4.8705504495,
				"element": "H" 
			},
			{
				"x": -2.8443972347,
				"y": -3.6998336675,
				"z": 1.2890850256,
				"element": "H" 
			},
			{
				"x": -1.8332796566,
				"y": -1.7166790066,
				"z": 0.1960540137,
				"element": "H" 
			}
		],
		 "valence_orbital": [ 
			{
				"type": "occ",
				"energy": -0.30241,
				"method": "rhf"
			},
			{
				"type": "occ",
				"energy": -0.29578,
				"method": "rhf"
			},
			{
				"type": "occ",
				"energy": -0.26888,
				"method": "rhf"
			},
			{
				"type": "occ",
				"energy": -0.24125,
				"method": "rhf"
			},
			{
				"type": "occ",
				"energy": -0.18069,
				"method": "rhf"
			},
			{
				"type": "unocc",
				"energy": 0.00682,
				"method": "rhf"
			},
			{
				"type": "unocc",
				"energy": 0.03561,
				"method": "rhf"
			},
			{
				"type": "unocc",
				"energy": 0.086,
				"method": "rhf"
			},
			{
				"type": "unocc",
				"energy": 0.09005,
				"method": "rhf"
			},
			{
				"type": "unocc",
				"energy": 0.09927,
				"method": "rhf"
			}
		],
		"cosmo_sigma_profile": { 
			"-0.025": 0.0,
			"-0.024": 0.0,
			"-0.023": 0.0,
			"-0.022": 0.0,
			"-0.021": 0.0,
			"-0.02": 0.0,
			"-0.019": 0.0,
			"-0.018": 0.0,
			"-0.017": 0.0,
			"-0.016": 0.0,
			"-0.015": 0.0,
			"-0.014": 0.0,
			"-0.013": 0.0,
			"-0.012": 1.18734759091,
			"-0.011": 2.71095876228,
			"-0.01": 2.68155382645,
			"-0.009": 3.1387185068,
			"-0.008": 3.14203300924,
			"-0.007": 3.10103591587,
			"-0.006": 4.9588484279,
			"-0.005": 9.49416339632,
			"-0.004": 13.3551157885,
			"-0.003": 20.6886133842,
			"-0.002": 37.8784639588,
			"-0.001": 51.3135986069,
			"0.0": 52.5447222399,
			"0.001": 44.6262426915,
			"0.002": 21.939732548,
			"0.003": 7.71195173931,
			"0.004": 8.67417360243,
			"0.005": 10.9446364591,
			"0.006": 12.4499836395,
			"0.007": 10.863781887,
			"0.008": 2.90863779321,
			"0.009": 2.20373881987,
			"0.01": 1.40522637841,
			"0.011": 0.84528175415,
			"0.012": 1.12688800575,
			"0.013": 0.517820692794,
			"0.014": 0.673370743031,
			"0.015": 0.68777553572,
			"0.016": 0.400416024035,
			"0.017": 0.0,
			"0.018": 0.0,
			"0.019": 0.0,
			"0.02": 0.0,
			"0.021": 0.0,
			"0.022": 0.0,
			"0.023": 0.0,
			"0.024": 0.0,
			"0.025": 0.0
		}
	}
}
