{
	 "smiles": "COC1=C2N(C=C(C(O)=O)C(=O)C2=CC(F)=C1N1CCNC(C)C1)C1CC1", 
	 "Tm": 456.65, 
	 "num_atms": 49, 
	 "gaussian": { 
		 "optdone": 1, 
		 "sigma_profile": "yes", 
		 "theory": "DFT", 
		 "functional": "B3LYP", 
		 "basiset": "6-31G**", 
		 "properties": { 
			 "R2extent": 11632.3345, 
			 "electric_dipole_moment_norm": 10.7473309896, 
			 "electric_quadrupole_moment_norm": 53.1198751133, 
			 "total_energy": -1302.23377375, 
			 "HOMO_LUMO_gap": 0.15287, 
			 "cosmo_polarized_energy": -21.78, 
			 "cosmo_cavitation_energy": 49.23, 
			 "cosmo_dispersion_energy": -33.69, 
			 "cosmo_repulsion_energy": 2.49, 
			 "cosmo_total_nonelectrostatic_energy": 18.03, 
			 "SMD_solvation_energy": 8.05 
		},
		"coords": [
			{
				"x": -2.1868597407,
				"y": 1.2101217021,
				"z": -0.6132585401,
				"element": "C" 
			},
			{
				"x": -0.9504434302,
				"y": 0.5505385761,
				"z": -0.9217447083,
				"element": "O" 
			},
			{
				"x": -0.3303772482,
				"y": -0.007887097,
				"z": 0.1773562869,
				"element": "C" 
			},
			{
				"x": -0.4019825334,
				"y": -1.4057333547,
				"z": 0.3967724407,
				"element": "C" 
			},
			{
				"x": -0.9635137609,
				"y": -2.2995582693,
				"z": -0.5390127132,
				"element": "N" 
			},
			{
				"x": -1.191724256,
				"y": -3.5883477741,
				"z": -0.1727163441,
				"element": "C" 
			},
			{
				"x": -0.8350177772,
				"y": -4.1364328098,
				"z": 1.02855408,
				"element": "C" 
			},
			{
				"x": -1.1588398108,
				"y": -5.5829392241,
				"z": 1.2541301383,
				"element": "C" 
			},
			{
				"x": -0.7415695054,
				"y": -6.0822386009,
				"z": 2.4202786897,
				"element": "O" 
			},
			{
				"x": -1.7555995489,
				"y": -6.2501566452,
				"z": 0.4293739306,
				"element": "O" 
			},
			{
				"x": -0.124505371,
				"y": -3.3353671744,
				"z": 1.9982432193,
				"element": "C" 
			},
			{
				"x": 0.2886681773,
				"y": -3.7893426192,
				"z": 3.0904289251,
				"element": "O" 
			},
			{
				"x": 0.0617015721,
				"y": -1.9266015712,
				"z": 1.6309391441,
				"element": "C" 
			},
			{
				"x": 0.6844494017,
				"y": -1.0729927982,
				"z": 2.5547428994,
				"element": "C" 
			},
			{
				"x": 0.8517711974,
				"y": 0.2544537839,
				"z": 2.261314031,
				"element": "C" 
			},
			{
				"x": 1.5284577011,
				"y": 1.0316855169,
				"z": 3.1427189296,
				"element": "F" 
			},
			{
				"x": 0.3506201157,
				"y": 0.8500120815,
				"z": 1.0756942057,
				"element": "C" 
			},
			{
				"x": 0.4729442826,
				"y": 2.2055180042,
				"z": 0.8058121139,
				"element": "N" 
			},
			{
				"x": 0.4545769543,
				"y": 3.242160591,
				"z": 1.841746338,
				"element": "C" 
			},
			{
				"x": 1.8115672522,
				"y": 3.9409595461,
				"z": 1.9528562992,
				"element": "C" 
			},
			{
				"x": 2.1781862885,
				"y": 4.4610564786,
				"z": 0.6338475125,
				"element": "N" 
			},
			{
				"x": 2.301255875,
				"y": 3.39653946,
				"z": -0.3668598617,
				"element": "C" 
			},
			{
				"x": 2.7440240288,
				"y": 3.986730521,
				"z": -1.7044002462,
				"element": "C" 
			},
			{
				"x": 0.9361561912,
				"y": 2.6969321294,
				"z": -0.495510621,
				"element": "C" 
			},
			{
				"x": -1.2057521119,
				"y": -1.9385960679,
				"z": -1.9334155928,
				"element": "C" 
			},
			{
				"x": -0.0441733043,
				"y": -1.6147199952,
				"z": -2.8263711722,
				"element": "C" 
			},
			{
				"x": -0.8027573421,
				"y": -2.9036764333,
				"z": -3.020841528,
				"element": "C" 
			},
			{
				"x": -2.0318195102,
				"y": 2.0305259336,
				"z": 0.0943785633,
				"element": "H" 
			},
			{
				"x": -2.9137809149,
				"y": 0.502130733,
				"z": -0.1966231623,
				"element": "H" 
			},
			{
				"x": -2.564145703,
				"y": 1.6082893474,
				"z": -1.557361672,
				"element": "H" 
			},
			{
				"x": -1.6767030716,
				"y": -4.2189749387,
				"z": -0.9077733283,
				"element": "H" 
			},
			{
				"x": -0.2738152176,
				"y": -5.3552269474,
				"z": 2.9188482903,
				"element": "H" 
			},
			{
				"x": 1.057191241,
				"y": -1.4918327012,
				"z": 3.4821250138,
				"element": "H" 
			},
			{
				"x": -0.2986899349,
				"y": 3.9909094984,
				"z": 1.5556500029,
				"element": "H" 
			},
			{
				"x": 0.1587504613,
				"y": 2.808757532,
				"z": 2.7953735234,
				"element": "H" 
			},
			{
				"x": 2.5431767924,
				"y": 3.2197261787,
				"z": 2.3553486249,
				"element": "H" 
			},
			{
				"x": 1.7359518598,
				"y": 4.7780476858,
				"z": 2.6560261729,
				"element": "H" 
			},
			{
				"x": 3.0535055239,
				"y": 4.9748364263,
				"z": 0.6944794265,
				"element": "H" 
			},
			{
				"x": 3.031867909,
				"y": 2.62425413,
				"z": -0.0535439175,
				"element": "H" 
			},
			{
				"x": 3.7196458657,
				"y": 4.4765681548,
				"z": -1.6105312502,
				"element": "H" 
			},
			{
				"x": 2.8376893715,
				"y": 3.2067776625,
				"z": -2.4668936229,
				"element": "H" 
			},
			{
				"x": 2.0239887046,
				"y": 4.7344215109,
				"z": -2.0518862475,
				"element": "H" 
			},
			{
				"x": 0.2108995473,
				"y": 3.4207599393,
				"z": -0.8960117178,
				"element": "H" 
			},
			{
				"x": 1.0033985631,
				"y": 1.8652591479,
				"z": -1.1949111797,
				"element": "H" 
			},
			{
				"x": -2.1187150764,
				"y": -1.3739895062,
				"z": -2.0874289937,
				"element": "H" 
			},
			{
				"x": 0.949311812,
				"y": -1.6884710187,
				"z": -2.3953001976,
				"element": "H" 
			},
			{
				"x": -0.1710722168,
				"y": -0.8014397749,
				"z": -3.5327294195,
				"element": "H" 
			},
			{
				"x": -0.3013825084,
				"y": -3.8251393985,
				"z": -2.7439425102,
				"element": "H" 
			},
			{
				"x": -1.4750167948,
				"y": -3.0001075517,
				"z": -3.8674702551,
				"element": "H" 
			}
		],
		 "valence_orbital": [ 
			{
				"type": "occ",
				"energy": -0.25802,
				"method": "rhf"
			},
			{
				"type": "occ",
				"energy": -0.24716,
				"method": "rhf"
			},
			{
				"type": "occ",
				"energy": -0.23822,
				"method": "rhf"
			},
			{
				"type": "occ",
				"energy": -0.22669,
				"method": "rhf"
			},
			{
				"type": "occ",
				"energy": -0.21164,
				"method": "rhf"
			},
			{
				"type": "unocc",
				"energy": -0.05877,
				"method": "rhf"
			},
			{
				"type": "unocc",
				"energy": -0.03919,
				"method": "rhf"
			},
			{
				"type": "unocc",
				"energy": -0.00382,
				"method": "rhf"
			},
			{
				"type": "unocc",
				"energy": 0.03916,
				"method": "rhf"
			},
			{
				"type": "unocc",
				"energy": 0.0552,
				"method": "rhf"
			}
		],
		"cosmo_sigma_profile": { 
			"-0.025": 0.0,
			"-0.024": 0.0,
			"-0.023": 0.0,
			"-0.022": 0.0,
			"-0.021": 0.0,
			"-0.02": 0.0,
			"-0.019": 0.0,
			"-0.018": 0.0,
			"-0.017": 0.0,
			"-0.016": 0.0,
			"-0.015": 0.0,
			"-0.014": 0.0,
			"-0.013": 0.0,
			"-0.012": 0.0,
			"-0.011": 0.0,
			"-0.01": 0.639304300272,
			"-0.009": 1.40836045014,
			"-0.008": 1.37659523819,
			"-0.007": 3.9782176695,
			"-0.006": 14.6734451515,
			"-0.005": 27.0802133447,
			"-0.004": 31.4348592241,
			"-0.003": 44.2920478871,
			"-0.002": 50.9738548588,
			"-0.001": 49.0087153828,
			"0.0": 37.4702021782,
			"0.001": 27.866692801,
			"0.002": 17.1328375024,
			"0.003": 12.0497932522,
			"0.004": 11.9431635823,
			"0.005": 6.93101556198,
			"0.006": 5.63012203469,
			"0.007": 4.53702196335,
			"0.008": 4.46239255423,
			"0.009": 5.42652442837,
			"0.01": 5.61924255546,
			"0.011": 5.95653308923,
			"0.012": 8.78813575977,
			"0.013": 5.50879494404,
			"0.014": 2.71705345042,
			"0.015": 0.415293816326,
			"0.016": 0.595191916288,
			"0.017": 0.301043927724,
			"0.018": 0.139766353756,
			"0.019": 0.0,
			"0.02": 0.0,
			"0.021": 0.0,
			"0.022": 0.0,
			"0.023": 0.0,
			"0.024": 0.0,
			"0.025": 0.0
		}
	}
}
