{
	 "smiles": "COC1=CC=C(NS(=O)(=O)C2=C(C)C=CC(=C2)C(O)=O)C=C1", 
	 "Tm": 345.15, 
	 "num_atms": 37, 
	 "gaussian": { 
		 "optdone": 1, 
		 "sigma_profile": "yes", 
		 "theory": "DFT", 
		 "functional": "B3LYP", 
		 "basiset": "6-31G**", 
		 "properties": { 
			 "R2extent": 8958.6488, 
			 "electric_dipole_moment_norm": 5.65320464427, 
			 "electric_quadrupole_moment_norm": 30.3129361907, 
			 "total_energy": -1409.63532287, 
			 "HOMO_LUMO_gap": 0.15082, 
			 "cosmo_polarized_energy": -23.19, 
			 "cosmo_cavitation_energy": 42.87, 
			 "cosmo_dispersion_energy": -29.64, 
			 "cosmo_repulsion_energy": 2.23, 
			 "cosmo_total_nonelectrostatic_energy": 15.46, 
			 "SMD_solvation_energy": 8.46 
		},
		"coords": [
			{
				"x": -1.4898502812,
				"y": -5.8123739561,
				"z": 0.3144982856,
				"element": "C" 
			},
			{
				"x": -0.7044862461,
				"y": -4.9323011398,
				"z": 1.1039986301,
				"element": "O" 
			},
			{
				"x": -1.2038809273,
				"y": -3.6928040849,
				"z": 1.3779689413,
				"element": "C" 
			},
			{
				"x": -0.3844666898,
				"y": -2.8648305732,
				"z": 2.1594724962,
				"element": "C" 
			},
			{
				"x": -0.7948932552,
				"y": -1.5778786628,
				"z": 2.4796166631,
				"element": "C" 
			},
			{
				"x": -2.0445178332,
				"y": -1.1014217088,
				"z": 2.0556194211,
				"element": "C" 
			},
			{
				"x": -2.4806735576,
				"y": 0.2031693403,
				"z": 2.4359134478,
				"element": "N" 
			},
			{
				"x": -2.891553411,
				"y": 1.3995065238,
				"z": 1.3107480684,
				"element": "S" 
			},
			{
				"x": -3.0924077505,
				"y": 2.6035359695,
				"z": 2.120366013,
				"element": "O" 
			},
			{
				"x": -3.9569344892,
				"y": 0.8566034719,
				"z": 0.469988798,
				"element": "O" 
			},
			{
				"x": -1.4521985462,
				"y": 1.6346175585,
				"z": 0.2382153526,
				"element": "C" 
			},
			{
				"x": -0.2691237782,
				"y": 2.262179613,
				"z": 0.6890305656,
				"element": "C" 
			},
			{
				"x": -0.0756376523,
				"y": 2.7840903932,
				"z": 2.0916514874,
				"element": "C" 
			},
			{
				"x": 0.7722388609,
				"y": 2.3942027674,
				"z": -0.2403712175,
				"element": "C" 
			},
			{
				"x": 0.6611310765,
				"y": 1.9297953523,
				"z": -1.5481125738,
				"element": "C" 
			},
			{
				"x": -0.5188540396,
				"y": 1.3085363545,
				"z": -1.9692084895,
				"element": "C" 
			},
			{
				"x": -1.5777873742,
				"y": 1.1647489823,
				"z": -1.0668055074,
				"element": "C" 
			},
			{
				"x": -0.7020585991,
				"y": 0.7876304935,
				"z": -3.3502482065,
				"element": "C" 
			},
			{
				"x": 0.3815019675,
				"y": 0.9974351027,
				"z": -4.1392378978,
				"element": "O" 
			},
			{
				"x": -1.7014144067,
				"y": 0.2297972249,
				"z": -3.755056852,
				"element": "O" 
			},
			{
				"x": -2.8692633903,
				"y": -1.9341346866,
				"z": 1.2948748627,
				"element": "C" 
			},
			{
				"x": -2.4463943127,
				"y": -3.2168977751,
				"z": 0.9419039714,
				"element": "C" 
			},
			{
				"x": -2.4473980644,
				"y": -6.0449518609,
				"z": 0.7979441136,
				"element": "H" 
			},
			{
				"x": -0.9068189345,
				"y": -6.7291688888,
				"z": 0.2151796751,
				"element": "H" 
			},
			{
				"x": -1.6834115098,
				"y": -5.3979005622,
				"z": -0.683190195,
				"element": "H" 
			},
			{
				"x": 0.5748568557,
				"y": -3.2469088757,
				"z": 2.4920974918,
				"element": "H" 
			},
			{
				"x": -0.1434185123,
				"y": -0.9385852269,
				"z": 3.070462098,
				"element": "H" 
			},
			{
				"x": -2.0040654706,
				"y": 0.6176642002,
				"z": 3.2292895356,
				"element": "H" 
			},
			{
				"x": -0.8698053022,
				"y": 3.4794377345,
				"z": 2.3708124445,
				"element": "H" 
			},
			{
				"x": -0.0913713811,
				"y": 1.9690958606,
				"z": 2.8254865032,
				"element": "H" 
			},
			{
				"x": 0.8911549778,
				"y": 3.2843038928,
				"z": 2.1812420267,
				"element": "H" 
			},
			{
				"x": 1.6919280572,
				"y": 2.8777897774,
				"z": 0.0762532255,
				"element": "H" 
			},
			{
				"x": 1.4852069803,
				"y": 2.0479695257,
				"z": -2.2423983002,
				"element": "H" 
			},
			{
				"x": -2.4981940984,
				"y": 0.6946435719,
				"z": -1.3915031411,
				"element": "H" 
			},
			{
				"x": 0.1537823549,
				"y": 0.6234726748,
				"z": -5.0062442099,
				"element": "H" 
			},
			{
				"x": -3.8396902677,
				"y": -1.5727570299,
				"z": 0.9763407807,
				"element": "H" 
			},
			{
				"x": -3.1025310493,
				"y": -3.837211354,
				"z": 0.3434016917,
				"element": "H" 
			}
		],
		 "valence_orbital": [ 
			{
				"type": "occ",
				"energy": -0.28391,
				"method": "rhf"
			},
			{
				"type": "occ",
				"energy": -0.27407,
				"method": "rhf"
			},
			{
				"type": "occ",
				"energy": -0.26977,
				"method": "rhf"
			},
			{
				"type": "occ",
				"energy": -0.26007,
				"method": "rhf"
			},
			{
				"type": "occ",
				"energy": -0.21439,
				"method": "rhf"
			},
			{
				"type": "unocc",
				"energy": -0.06357,
				"method": "rhf"
			},
			{
				"type": "unocc",
				"energy": -0.03753,
				"method": "rhf"
			},
			{
				"type": "unocc",
				"energy": -0.01148,
				"method": "rhf"
			},
			{
				"type": "unocc",
				"energy": -0.00092,
				"method": "rhf"
			},
			{
				"type": "unocc",
				"energy": 0.03211,
				"method": "rhf"
			}
		],
		"cosmo_sigma_profile": { 
			"-0.025": 0.0,
			"-0.024": 0.0,
			"-0.023": 0.0,
			"-0.022": 0.0,
			"-0.021": 0.0,
			"-0.02": 0.0,
			"-0.019": 0.294035867524,
			"-0.018": 0.846109975878,
			"-0.017": 0.78633240595,
			"-0.016": 1.12979030438,
			"-0.015": 1.30964087633,
			"-0.014": 1.14288902934,
			"-0.013": 2.31505145705,
			"-0.012": 2.0284450402,
			"-0.011": 2.37956612096,
			"-0.01": 1.63254124967,
			"-0.009": 2.49989283484,
			"-0.008": 3.1959678634,
			"-0.007": 10.3724274759,
			"-0.006": 17.9718542268,
			"-0.005": 22.4036475191,
			"-0.004": 20.4781858038,
			"-0.003": 24.2109976186,
			"-0.002": 24.463989751,
			"-0.001": 26.4597228072,
			"0.0": 24.3565930303,
			"0.001": 26.7100328663,
			"0.002": 19.780546062,
			"0.003": 17.220175392,
			"0.004": 20.6548626057,
			"0.005": 12.8760738141,
			"0.006": 8.82886524829,
			"0.007": 7.38092991857,
			"0.008": 6.09706298237,
			"0.009": 8.27590585074,
			"0.01": 9.49254092998,
			"0.011": 11.1643680166,
			"0.012": 3.36001963916,
			"0.013": 0.0,
			"0.014": 0.0,
			"0.015": 0.0,
			"0.016": 0.0,
			"0.017": 0.0,
			"0.018": 0.0,
			"0.019": 0.0,
			"0.02": 0.0,
			"0.021": 0.0,
			"0.022": 0.0,
			"0.023": 0.0,
			"0.024": 0.0,
			"0.0": 0.0
		}
	}
}
