{
	 "smiles": "CN1C2=C(N(CN3CCOCC3)C=N2)C(=O)N(C)C1=O", 
	 "Tm": 450.15, 
	 "num_atms": 37, 
	 "gaussian": { 
		 "optdone": 1, 
		 "sigma_profile": "yes", 
		 "theory": "DFT", 
		 "functional": "B3LYP", 
		 "basiset": "6-31G**", 
		 "properties": { 
			 "R2extent": 6074.6479, 
			 "electric_dipole_moment_norm": 3.23537245151, 
			 "electric_quadrupole_moment_norm": 12.4035629405, 
			 "total_energy": -966.966058568, 
			 "HOMO_LUMO_gap": 0.18591, 
			 "cosmo_polarized_energy": -16.54, 
			 "cosmo_cavitation_energy": 37.99, 
			 "cosmo_dispersion_energy": -27.24, 
			 "cosmo_repulsion_energy": 2.05, 
			 "cosmo_total_nonelectrostatic_energy": 12.8, 
			 "SMD_solvation_energy": 3.97 
		},
		"coords": [
			{
				"x": -0.3175249022,
				"y": 2.1639613139,
				"z": -3.5357045489,
				"element": "C" 
			},
			{
				"x": -0.0382160416,
				"y": 1.1660896433,
				"z": -2.5037249126,
				"element": "N" 
			},
			{
				"x": -1.0276472276,
				"y": 0.7585887101,
				"z": -1.641447643,
				"element": "C" 
			},
			{
				"x": -0.7976430496,
				"y": -0.1788708469,
				"z": -0.650385833,
				"element": "C" 
			},
			{
				"x": -2.0257600128,
				"y": -0.3477407605,
				"z": -0.0193925439,
				"element": "N" 
			},
			{
				"x": -2.3437767774,
				"y": -1.2187331893,
				"z": 1.1603623709,
				"element": "C" 
			},
			{
				"x": -2.2130063035,
				"y": -0.6327905121,
				"z": 2.4523699502,
				"element": "N" 
			},
			{
				"x": -3.1333026023,
				"y": 0.4607610282,
				"z": 2.7648253245,
				"element": "C" 
			},
			{
				"x": -2.7603322924,
				"y": 1.0648477073,
				"z": 4.1152923355,
				"element": "C" 
			},
			{
				"x": -1.4639368257,
				"y": 1.6524885488,
				"z": 4.1057540991,
				"element": "O" 
			},
			{
				"x": -0.5229211835,
				"y": 1.0019077157,
				"z": 3.2475510739,
				"element": "C" 
			},
			{
				"x": -0.8612225274,
				"y": -0.4698263127,
				"z": 3.0209778074,
				"element": "C" 
			},
			{
				"x": -2.8791607158,
				"y": 0.4905241995,
				"z": -0.6632956969,
				"element": "C" 
			},
			{
				"x": -2.3191001644,
				"y": 1.181532242,
				"z": -1.6529805499,
				"element": "N" 
			},
			{
				"x": 0.4645532796,
				"y": -0.8333663136,
				"z": -0.4751817452,
				"element": "C" 
			},
			{
				"x": 0.7319888502,
				"y": -1.7012497357,
				"z": 0.3590315704,
				"element": "O" 
			},
			{
				"x": 1.4259950613,
				"y": -0.3603518395,
				"z": -1.3989387643,
				"element": "N" 
			},
			{
				"x": 2.7772952415,
				"y": -0.9294326208,
				"z": -1.3385028678,
				"element": "C" 
			},
			{
				"x": 1.2355456306,
				"y": 0.6080866636,
				"z": -2.4053061428,
				"element": "C" 
			},
			{
				"x": 2.1533385134,
				"y": 0.9291308995,
				"z": -3.1467064659,
				"element": "O" 
			},
			{
				"x": -1.0973362554,
				"y": 1.7989403555,
				"z": -4.2090561591,
				"element": "H" 
			},
			{
				"x": -0.6615209501,
				"y": 3.0925802801,
				"z": -3.0735380559,
				"element": "H" 
			},
			{
				"x": 0.6067558589,
				"y": 2.3331468608,
				"z": -4.0837306808,
				"element": "H" 
			},
			{
				"x": -1.684409737,
				"y": -2.0822336574,
				"z": 1.0741351448,
				"element": "H" 
			},
			{
				"x": -3.3818675387,
				"y": -1.5334691164,
				"z": 1.0072363231,
				"element": "H" 
			},
			{
				"x": -3.1093453226,
				"y": 1.2655071929,
				"z": 2.0093827946,
				"element": "H" 
			},
			{
				"x": -4.163053071,
				"y": 0.0772411621,
				"z": 2.7998624094,
				"element": "H" 
			},
			{
				"x": -2.8281823538,
				"y": 0.286509473,
				"z": 4.8915096544,
				"element": "H" 
			},
			{
				"x": -3.4649024907,
				"y": 1.8604634075,
				"z": 4.3774991092,
				"element": "H" 
			},
			{
				"x": 0.4597857065,
				"y": 1.0957630633,
				"z": 3.7227118993,
				"element": "H" 
			},
			{
				"x": -0.4775783534,
				"y": 1.5270182805,
				"z": 2.2809287341,
				"element": "H" 
			},
			{
				"x": -0.8043831122,
				"y": -0.9989375624,
				"z": 3.9824138299,
				"element": "H" 
			},
			{
				"x": -0.1243352797,
				"y": -0.9238005911,
				"z": 2.3535269076,
				"element": "H" 
			},
			{
				"x": -3.9219676212,
				"y": 0.5612025078,
				"z": -0.3842804119,
				"element": "H" 
			},
			{
				"x": 3.0184925209,
				"y": -1.4208616657,
				"z": -2.2834072108,
				"element": "H" 
			},
			{
				"x": 2.7915430697,
				"y": -1.6463167636,
				"z": -0.5208592121,
				"element": "H" 
			},
			{
				"x": 3.5073389795,
				"y": -0.1354097674,
				"z": -1.1695318938,
				"element": "H" 
			}
		],
		 "valence_orbital": [ 
			{
				"type": "occ",
				"energy": -0.27043,
				"method": "rhf"
			},
			{
				"type": "occ",
				"energy": -0.26333,
				"method": "rhf"
			},
			{
				"type": "occ",
				"energy": -0.25154,
				"method": "rhf"
			},
			{
				"type": "occ",
				"energy": -0.22792,
				"method": "rhf"
			},
			{
				"type": "occ",
				"energy": -0.22286,
				"method": "rhf"
			},
			{
				"type": "unocc",
				"energy": -0.03695,
				"method": "rhf"
			},
			{
				"type": "unocc",
				"energy": 0.02016,
				"method": "rhf"
			},
			{
				"type": "unocc",
				"energy": 0.03091,
				"method": "rhf"
			},
			{
				"type": "unocc",
				"energy": 0.07578,
				"method": "rhf"
			},
			{
				"type": "unocc",
				"energy": 0.09815,
				"method": "rhf"
			}
		],
		"cosmo_sigma_profile": { 
			"-0.025": 0.0,
			"-0.024": 0.0,
			"-0.023": 0.0,
			"-0.022": 0.0,
			"-0.021": 0.0,
			"-0.02": 0.0,
			"-0.019": 0.0,
			"-0.018": 0.0,
			"-0.017": 0.0,
			"-0.016": 0.0,
			"-0.015": 0.0,
			"-0.014": 0.0,
			"-0.013": 0.0,
			"-0.012": 0.0,
			"-0.011": 0.0249975379792,
			"-0.01": 2.2341315398,
			"-0.009": 2.73158460455,
			"-0.008": 3.15309370298,
			"-0.007": 4.00712026367,
			"-0.006": 7.70498993581,
			"-0.005": 20.7703738121,
			"-0.004": 32.6579072853,
			"-0.003": 47.4982841683,
			"-0.002": 43.5726334049,
			"-0.001": 25.3180304081,
			"0.0": 16.1124564691,
			"0.001": 11.3907058665,
			"0.002": 7.09438251632,
			"0.003": 8.5892976437,
			"0.004": 8.0530054664,
			"0.005": 6.53897868412,
			"0.006": 5.86216381394,
			"0.007": 6.22222142257,
			"0.008": 5.38720424418,
			"0.009": 6.09139967902,
			"0.01": 4.79501529583,
			"0.011": 5.52335461983,
			"0.012": 9.08863958772,
			"0.013": 6.69618214347,
			"0.014": 2.02365379239,
			"0.015": 0.542962120337,
			"0.016": 0.179192237018,
			"0.017": 0.0,
			"0.018": 0.0,
			"0.019": 0.0,
			"0.02": 0.0,
			"0.021": 0.0,
			"0.022": 0.0,
			"0.023": 0.0,
			"0.024": 0.0,
			"0.025": 0.0
		}
	}
}
