{
	 "smiles": "CC1=CC=C(O)C=C1Br", 
	 "Tm": 329.15, 
	 "num_atms": 16, 
	 "gaussian": { 
		 "optdone": 1, 
		 "sigma_profile": "yes", 
		 "theory": "DFT", 
		 "functional": "B3LYP", 
		 "basiset": "6-31G**", 
		 "properties": { 
			 "R2extent": 3325.7556, 
			 "electric_dipole_moment_norm": 2.91592249897, 
			 "electric_quadrupole_moment_norm": 4.97612035827, 
			 "total_energy": -2917.59390759, 
			 "HOMO_LUMO_gap": 0.21066, 
			 "cosmo_polarized_energy": -8.25, 
			 "cosmo_cavitation_energy": 21.91, 
			 "cosmo_dispersion_energy": -16.74, 
			 "cosmo_repulsion_energy": 1.36, 
			 "cosmo_total_nonelectrostatic_energy": 6.53, 
			 "SMD_solvation_energy": 3.11 
		},
		"coords": [
			{
				"x": -3.4923718832,
				"y": 1.1853422048,
				"z": 1.6448888511,
				"element": "C" 
			},
			{
				"x": -2.4396171502,
				"y": 0.7017487033,
				"z": 0.6809905604,
				"element": "C" 
			},
			{
				"x": -2.3072838224,
				"y": -0.6594061187,
				"z": 0.3781871321,
				"element": "C" 
			},
			{
				"x": -1.3452535865,
				"y": -1.1406929854,
				"z": -0.5082299856,
				"element": "C" 
			},
			{
				"x": -0.4699593352,
				"y": -0.2458558321,
				"z": -1.1285678324,
				"element": "C" 
			},
			{
				"x": 0.4990542592,
				"y": -0.6357631326,
				"z": -2.0081641244,
				"element": "O" 
			},
			{
				"x": -0.5688819949,
				"y": 1.1215546823,
				"z": -0.8533326456,
				"element": "C" 
			},
			{
				"x": -1.540563553,
				"y": 1.5658683036,
				"z": 0.0361538382,
				"element": "C" 
			},
			{
				"x": -1.6284109329,
				"y": 3.4519862648,
				"z": 0.374369726,
				"element": "Br" 
			},
			{
				"x": -4.1789638774,
				"y": 1.8928899225,
				"z": 1.1675540844,
				"element": "H" 
			},
			{
				"x": -4.0785422942,
				"y": 0.3453972052,
				"z": 2.0266610784,
				"element": "H" 
			},
			{
				"x": -3.0459041245,
				"y": 1.7070288335,
				"z": 2.4983457627,
				"element": "H" 
			},
			{
				"x": -2.9827995908,
				"y": -1.3647704445,
				"z": 0.8548297797,
				"element": "H" 
			},
			{
				"x": -1.27727633,
				"y": -2.2063378131,
				"z": -0.7149921684,
				"element": "H" 
			},
			{
				"x": 0.4643419966,
				"y": -1.5953604578,
				"z": -2.1126910062,
				"element": "H" 
			},
			{
				"x": 0.1105322193,
				"y": 1.8136706643,
				"z": -1.3352030505,
				"element": "H" 
			}
		],
		 "valence_orbital": [ 
			{
				"type": "occ",
				"energy": -0.34408,
				"method": "rhf"
			},
			{
				"type": "occ",
				"energy": -0.30208,
				"method": "rhf"
			},
			{
				"type": "occ",
				"energy": -0.28236,
				"method": "rhf"
			},
			{
				"type": "occ",
				"energy": -0.24464,
				"method": "rhf"
			},
			{
				"type": "occ",
				"energy": -0.223,
				"method": "rhf"
			},
			{
				"type": "unocc",
				"energy": -0.01234,
				"method": "rhf"
			},
			{
				"type": "unocc",
				"energy": 0.00582,
				"method": "rhf"
			},
			{
				"type": "unocc",
				"energy": 0.0114,
				"method": "rhf"
			},
			{
				"type": "unocc",
				"energy": 0.06589,
				"method": "rhf"
			},
			{
				"type": "unocc",
				"energy": 0.10448,
				"method": "rhf"
			}
		],
		"cosmo_sigma_profile": { 
			"-0.025": 0.0,
			"-0.024": 0.0,
			"-0.023": 0.0,
			"-0.022": 0.0,
			"-0.021": 0.0,
			"-0.02": 0.0,
			"-0.019": 0.00799019872635,
			"-0.018": 0.658778398997,
			"-0.017": 1.13193043702,
			"-0.016": 1.14089432544,
			"-0.015": 1.16641879794,
			"-0.014": 1.17216397543,
			"-0.013": 0.516400045507,
			"-0.012": 0.732258729887,
			"-0.011": 1.00304647762,
			"-0.01": 1.39792356203,
			"-0.009": 1.2940408031,
			"-0.008": 1.20353909266,
			"-0.007": 2.45741785847,
			"-0.006": 5.61152356347,
			"-0.005": 6.72682974369,
			"-0.004": 9.81186048049,
			"-0.003": 10.7319744123,
			"-0.002": 11.7852076501,
			"-0.001": 12.0910937154,
			"0.0": 15.3816837598,
			"0.001": 13.8184766447,
			"0.002": 13.1343743487,
			"0.003": 20.9555045008,
			"0.004": 21.9550833604,
			"0.005": 12.022157954,
			"0.006": 1.19368464993,
			"0.007": 1.24375205607,
			"0.008": 1.94846966475,
			"0.009": 1.42286072383,
			"0.01": 1.50947625488,
			"0.011": 1.87466922329,
			"0.012": 0.234392441778,
			"0.013": 0.0,
			"0.014": 0.0,
			"0.015": 0.0,
			"0.016": 0.0,
			"0.017": 0.0,
			"0.018": 0.0,
			"0.019": 0.0,
			"0.02": 0.0,
			"0.021": 0.0,
			"0.022": 0.0,
			"0.023": 0.0,
			"0.024": 0.0,
			"0.025": 0.0
		}
	}
}
