{
	 "smiles": "CCOC(C)=CC(=O)OCC", 
	 "Tm": 303.15, 
	 "num_atms": 25, 
	 "gaussian": { 
		 "optdone": 1, 
		 "sigma_profile": "yes", 
		 "theory": "DFT", 
		 "functional": "B3LYP", 
		 "basiset": "6-31G**", 
		 "properties": { 
			 "R2extent": 3199.2134, 
			 "electric_dipole_moment_norm": 4.48516832683, 
			 "electric_quadrupole_moment_norm": 12.1548195914, 
			 "total_energy": -538.955857374, 
			 "HOMO_LUMO_gap": 0.20494, 
			 "cosmo_polarized_energy": -10.39, 
			 "cosmo_cavitation_energy": 28.1, 
			 "cosmo_dispersion_energy": -20.08, 
			 "cosmo_repulsion_energy": 1.66, 
			 "cosmo_total_nonelectrostatic_energy": 9.68, 
			 "SMD_solvation_energy": 6.76 
		},
		"coords": [
			{
				"x": -2.7489378112,
				"y": -1.0330752033,
				"z": 3.2538100617,
				"element": "C" 
			},
			{
				"x": -1.9898628322,
				"y": -2.3364387912,
				"z": 3.0322469452,
				"element": "C" 
			},
			{
				"x": -1.6227788678,
				"y": -2.5146858217,
				"z": 1.658215459,
				"element": "O" 
			},
			{
				"x": -0.5168820758,
				"y": -1.9138867623,
				"z": 1.1304814806,
				"element": "C" 
			},
			{
				"x": 0.5823115653,
				"y": -1.5047546996,
				"z": 2.0678276451,
				"element": "C" 
			},
			{
				"x": -0.5271463668,
				"y": -1.8117410429,
				"z": -0.2211587067,
				"element": "C" 
			},
			{
				"x": 0.4804420468,
				"y": -1.3166766376,
				"z": -1.1618490996,
				"element": "C" 
			},
			{
				"x": 0.2902629519,
				"y": -1.2925225286,
				"z": -2.3665696712,
				"element": "O" 
			},
			{
				"x": 1.6491922929,
				"y": -0.8835680845,
				"z": -0.6027448276,
				"element": "O" 
			},
			{
				"x": 2.6481970019,
				"y": -0.3887410318,
				"z": -1.521912705,
				"element": "C" 
			},
			{
				"x": 2.415733474,
				"y": 1.0752270159,
				"z": -1.8669707531,
				"element": "C" 
			},
			{
				"x": -2.1207889888,
				"y": -0.1612593986,
				"z": 3.0461053249,
				"element": "H" 
			},
			{
				"x": -3.0888657107,
				"y": -0.967632899,
				"z": 4.2928727351,
				"element": "H" 
			},
			{
				"x": -3.6235142385,
				"y": -0.9856272696,
				"z": 2.599207209,
				"element": "H" 
			},
			{
				"x": -2.6312955122,
				"y": -3.1940524086,
				"z": 3.2529457729,
				"element": "H" 
			},
			{
				"x": -1.1143367738,
				"y": -2.4037693701,
				"z": 3.6861599472,
				"element": "H" 
			},
			{
				"x": 1.4236332366,
				"y": -1.1103924249,
				"z": 1.5059859398,
				"element": "H" 
			},
			{
				"x": 0.2421153921,
				"y": -0.738823532,
				"z": 2.7736545375,
				"element": "H" 
			},
			{
				"x": 0.9186798616,
				"y": -2.3663630932,
				"z": 2.6566647521,
				"element": "H" 
			},
			{
				"x": -1.4222103091,
				"y": -2.1602543948,
				"z": -0.7244865491,
				"element": "H" 
			},
			{
				"x": 2.6382751573,
				"y": -1.0081911107,
				"z": -2.4214968001,
				"element": "H" 
			},
			{
				"x": 3.5959712194,
				"y": -0.5284641729,
				"z": -0.9950889248,
				"element": "H" 
			},
			{
				"x": 1.4746737277,
				"y": 1.1927809058,
				"z": -2.4090737556,
				"element": "H" 
			},
			{
				"x": 3.2283531527,
				"y": 1.4425552307,
				"z": -2.5030699693,
				"element": "H" 
			},
			{
				"x": 2.3839784068,
				"y": 1.6898575254,
				"z": -0.962056048,
				"element": "H" 
			}
		],
		 "valence_orbital": [ 
			{
				"type": "occ",
				"energy": -0.32627,
				"method": "rhf"
			},
			{
				"type": "occ",
				"energy": -0.32187,
				"method": "rhf"
			},
			{
				"type": "occ",
				"energy": -0.28367,
				"method": "rhf"
			},
			{
				"type": "occ",
				"energy": -0.25566,
				"method": "rhf"
			},
			{
				"type": "occ",
				"energy": -0.22711,
				"method": "rhf"
			},
			{
				"type": "unocc",
				"energy": -0.02217,
				"method": "rhf"
			},
			{
				"type": "unocc",
				"energy": 0.07832,
				"method": "rhf"
			},
			{
				"type": "unocc",
				"energy": 0.10206,
				"method": "rhf"
			},
			{
				"type": "unocc",
				"energy": 0.10775,
				"method": "rhf"
			},
			{
				"type": "unocc",
				"energy": 0.11617,
				"method": "rhf"
			}
		],
		"cosmo_sigma_profile": { 
			"-0.025": 0.0,
			"-0.024": 0.0,
			"-0.023": 0.0,
			"-0.022": 0.0,
			"-0.021": 0.0,
			"-0.02": 0.0,
			"-0.019": 0.0,
			"-0.018": 0.0,
			"-0.017": 0.0,
			"-0.016": 0.0,
			"-0.015": 0.0,
			"-0.014": 0.0,
			"-0.013": 0.0,
			"-0.012": 0.0,
			"-0.011": 0.0,
			"-0.01": 0.0,
			"-0.009": 0.0,
			"-0.008": 0.0,
			"-0.007": 0.392578037887,
			"-0.006": 8.03579317948,
			"-0.005": 16.2018210955,
			"-0.004": 22.3682434459,
			"-0.003": 26.6522209676,
			"-0.002": 24.6221502614,
			"-0.001": 21.8340425742,
			"0.0": 24.3721554819,
			"0.001": 15.6282188197,
			"0.002": 11.3704048049,
			"0.003": 9.73484986386,
			"0.004": 8.45762120821,
			"0.005": 6.14475006009,
			"0.006": 3.33870840696,
			"0.007": 2.92693930394,
			"0.008": 3.04516950541,
			"0.009": 2.71776801618,
			"0.01": 2.45578122248,
			"0.011": 1.11100987057,
			"0.012": 2.70064789495,
			"0.013": 4.55646370465,
			"0.014": 1.56809504157,
			"0.015": 0.102717576713,
			"0.016": 0.0,
			"0.017": 0.0,
			"0.018": 0.0,
			"0.019": 0.0,
			"0.02": 0.0,
			"0.021": 0.0,
			"0.022": 0.0,
			"0.023": 0.0,
			"0.024": 0.0,
			"0.025": 0.0
		}
	}
}
