{
	 "smiles": "[O-][N+](=O)C1=CC(NN=C2/SC(=N)NC2=O)=CC=C1", 
	 "Tm": 481.15, 
	 "num_atms": 25, 
	 "gaussian": { 
		 "optdone": 1, 
		 "sigma_profile": "yes", 
		 "theory": "DFT", 
		 "functional": "B3LYP", 
		 "basiset": "6-31G**", 
		 "properties": { 
			 "R2extent": 8083.2228, 
			 "electric_dipole_moment_norm": 2.42475510928, 
			 "electric_quadrupole_moment_norm": 24.0436538176, 
			 "total_energy": -1244.66511642, 
			 "HOMO_LUMO_gap": 0.13566, 
			 "cosmo_polarized_energy": -22.08, 
			 "cosmo_cavitation_energy": 34.02, 
			 "cosmo_dispersion_energy": -25.25, 
			 "cosmo_repulsion_energy": 1.9, 
			 "cosmo_total_nonelectrostatic_energy": 10.67, 
			 "SMD_solvation_energy": 7.4 
		},
		"coords": [
			{
				"x": 2.6910416009,
				"y": -3.1941996087,
				"z": -3.3757375727,
				"element": "O" 
			},
			{
				"x": 1.9625386151,
				"y": -2.5527790179,
				"z": -4.132972626,
				"element": "N" 
			},
			{
				"x": 2.0582029828,
				"y": -2.5449905754,
				"z": -5.3585282431,
				"element": "O" 
			},
			{
				"x": 0.8976772502,
				"y": -1.7342275343,
				"z": -3.5259566874,
				"element": "C" 
			},
			{
				"x": 0.7801849684,
				"y": -1.7355171379,
				"z": -2.1400644398,
				"element": "C" 
			},
			{
				"x": -0.2272360937,
				"y": -0.9617453406,
				"z": -1.5560695492,
				"element": "C" 
			},
			{
				"x": -0.3461975256,
				"y": -0.962445914,
				"z": -0.1621017926,
				"element": "N" 
			},
			{
				"x": -1.2858553475,
				"y": -0.2444114882,
				"z": 0.4455750665,
				"element": "N" 
			},
			{
				"x": -1.3945778111,
				"y": -0.2452149679,
				"z": 1.7218862104,
				"element": "C" 
			},
			{
				"x": -0.3962556117,
				"y": -1.1362260546,
				"z": 2.9192241873,
				"element": "S" 
			},
			{
				"x": -1.3691114173,
				"y": -0.4450002739,
				"z": 4.2896250185,
				"element": "C" 
			},
			{
				"x": -1.2273410228,
				"y": -0.6462637111,
				"z": 5.5302693259,
				"element": "N" 
			},
			{
				"x": -2.3472705608,
				"y": 0.3826334708,
				"z": 3.7667381693,
				"element": "N" 
			},
			{
				"x": -2.4564287544,
				"y": 0.5670601228,
				"z": 2.3937968483,
				"element": "C" 
			},
			{
				"x": -3.2812982386,
				"y": 1.2722331603,
				"z": 1.8532820831,
				"element": "O" 
			},
			{
				"x": -1.0930086137,
				"y": -0.2057851382,
				"z": -2.364095654,
				"element": "C" 
			},
			{
				"x": -0.9419040723,
				"y": -0.2317692271,
				"z": -3.7483136901,
				"element": "C" 
			},
			{
				"x": 0.0562441455,
				"y": -0.9965356657,
				"z": -4.3537824249,
				"element": "C" 
			},
			{
				"x": 1.4670241363,
				"y": -2.3316717702,
				"z": -1.550518376,
				"element": "H" 
			},
			{
				"x": 0.3053420808,
				"y": -1.5272112371,
				"z": 0.3769908723,
				"element": "H" 
			},
			{
				"x": -0.4613923669,
				"y": -1.2809482762,
				"z": 5.7470261031,
				"element": "H" 
			},
			{
				"x": -2.9823262732,
				"y": 0.8523434826,
				"z": 4.3994346224,
				"element": "H" 
			},
			{
				"x": -1.8678528994,
				"y": 0.38800793,
				"z": -1.8946875316,
				"element": "H" 
			},
			{
				"x": -1.6149161535,
				"y": 0.3550803743,
				"z": -4.3651785017,
				"element": "H" 
			},
			{
				"x": 0.1905169824,
				"y": -1.0305156019,
				"z": -5.4267414183,
				"element": "H" 
			}
		],
		 "valence_orbital": [ 
			{
				"type": "occ",
				"energy": -0.29237,
				"method": "rhf"
			},
			{
				"type": "occ",
				"energy": -0.28858,
				"method": "rhf"
			},
			{
				"type": "occ",
				"energy": -0.28432,
				"method": "rhf"
			},
			{
				"type": "occ",
				"energy": -0.28115,
				"method": "rhf"
			},
			{
				"type": "occ",
				"energy": -0.23142,
				"method": "rhf"
			},
			{
				"type": "unocc",
				"energy": -0.09576,
				"method": "rhf"
			},
			{
				"type": "unocc",
				"energy": -0.07805,
				"method": "rhf"
			},
			{
				"type": "unocc",
				"energy": -0.03502,
				"method": "rhf"
			},
			{
				"type": "unocc",
				"energy": -0.02413,
				"method": "rhf"
			},
			{
				"type": "unocc",
				"energy": -0.00333,
				"method": "rhf"
			}
		],
		"cosmo_sigma_profile": { 
			"-0.025": 0.0,
			"-0.024": 0.0,
			"-0.023": 0.0,
			"-0.022": 0.0,
			"-0.021": 0.0,
			"-0.02": 0.0,
			"-0.019": 0.0,
			"-0.018": 0.0,
			"-0.017": 0.752523866204,
			"-0.016": 2.52765113739,
			"-0.015": 2.2053011987,
			"-0.014": 2.38183928734,
			"-0.013": 3.35491949669,
			"-0.012": 3.40155745094,
			"-0.011": 4.04371868068,
			"-0.01": 2.9139295521,
			"-0.009": 3.8169216106,
			"-0.008": 3.72104381341,
			"-0.007": 8.61897818749,
			"-0.006": 12.6682854821,
			"-0.005": 12.5417711559,
			"-0.004": 11.8167598769,
			"-0.003": 15.0643725441,
			"-0.002": 16.758357336,
			"-0.001": 21.4505077772,
			"0.0": 26.5028614731,
			"0.001": 22.1387202475,
			"0.002": 16.8160064654,
			"0.003": 9.17193491424,
			"0.004": 8.48547123457,
			"0.005": 6.49092092996,
			"0.006": 6.56896947268,
			"0.007": 11.7496305797,
			"0.008": 9.79278799755,
			"0.009": 6.96727001567,
			"0.01": 6.32357777191,
			"0.011": 6.33394916356,
			"0.012": 6.04271282151,
			"0.013": 2.91219690748,
			"0.014": 0.845307945147,
			"0.015": 0.796753625943,
			"0.016": 0.184007546249,
			"0.017": 0.0,
			"0.018": 0.0,
			"0.019": 0.0,
			"0.02": 0.0,
			"0.021": 0.0,
			"0.022": 0.0,
			"0.023": 0.0,
			"0.024": 0.0,
			"0.025": 0.0
		}
	}
}
