{
	 "smiles": "OC(=O)C=CC1=CC(=C(Cl)C=C1)[N+]([O-])=O", 
	 "Tm": 460.15, 
	 "num_atms": 21, 
	 "gaussian": { 
		 "optdone": 1, 
		 "sigma_profile": "yes", 
		 "theory": "DFT", 
		 "functional": "B3LYP", 
		 "basiset": "6-31G**", 
		 "properties": { 
			 "R2extent": 6006.4191, 
			 "electric_dipole_moment_norm": 5.44073033333, 
			 "electric_quadrupole_moment_norm": 11.4054621187, 
			 "total_energy": -1162.30028306, 
			 "HOMO_LUMO_gap": 0.16032, 
			 "cosmo_polarized_energy": -15.88, 
			 "cosmo_cavitation_energy": 29.6, 
			 "cosmo_dispersion_energy": -21.45, 
			 "cosmo_repulsion_energy": 1.68, 
			 "cosmo_total_nonelectrostatic_energy": 9.83, 
			 "SMD_solvation_energy": 8.48 
		},
		"coords": [
			{
				"x": -0.3432707583,
				"y": -1.389670218,
				"z": 3.2609511543,
				"element": "O" 
			},
			{
				"x": -0.4948399498,
				"y": -2.1655216587,
				"z": 2.1552731695,
				"element": "C" 
			},
			{
				"x": -0.5671875702,
				"y": -3.3768970914,
				"z": 2.2150574347,
				"element": "O" 
			},
			{
				"x": -0.5608291114,
				"y": -1.3997626142,
				"z": 0.8958388987,
				"element": "C" 
			},
			{
				"x": -0.4773923067,
				"y": -0.0588397595,
				"z": 0.8331598407,
				"element": "C" 
			},
			{
				"x": -0.5345421725,
				"y": 0.772053302,
				"z": -0.3721365429,
				"element": "C" 
			},
			{
				"x": -0.719622833,
				"y": 0.2465218348,
				"z": -1.6585856095,
				"element": "C" 
			},
			{
				"x": -0.7472555257,
				"y": 1.0751776625,
				"z": -2.7751213432,
				"element": "C" 
			},
			{
				"x": -0.6216498904,
				"y": 2.4692698173,
				"z": -2.6439649777,
				"element": "C" 
			},
			{
				"x": -0.732287004,
				"y": 3.5821372273,
				"z": -3.9748043511,
				"element": "Cl" 
			},
			{
				"x": -0.4578775527,
				"y": 3.0001931538,
				"z": -1.3617418061,
				"element": "C" 
			},
			{
				"x": -0.4043410462,
				"y": 2.167048456,
				"z": -0.2507022091,
				"element": "C" 
			},
			{
				"x": -0.9014931596,
				"y": 0.4005247528,
				"z": -4.0795193195,
				"element": "N" 
			},
			{
				"x": -1.5581140476,
				"y": -0.6401082288,
				"z": -4.0877479289,
				"element": "O" 
			},
			{
				"x": -0.3454229641,
				"y": 0.8962496763,
				"z": -5.0526096155,
				"element": "O" 
			},
			{
				"x": -0.3137146884,
				"y": -2.0049662285,
				"z": 4.0115767643,
				"element": "H" 
			},
			{
				"x": -0.6826415177,
				"y": -2.025738309,
				"z": 0.0181828319,
				"element": "H" 
			},
			{
				"x": -0.352455282,
				"y": 0.4831176736,
				"z": 1.7674932876,
				"element": "H" 
			},
			{
				"x": -0.8489843545,
				"y": -0.8157374247,
				"z": -1.8239131896,
				"element": "H" 
			},
			{
				"x": -0.3763419206,
				"y": 4.0751974186,
				"z": -1.2487482039,
				"element": "H" 
			},
			{
				"x": -0.2660363447,
				"y": 2.606050558,
				"z": 0.7331617151,
				"element": "H" 
			}
		],
		 "valence_orbital": [ 
			{
				"type": "occ",
				"energy": -0.31453,
				"method": "rhf"
			},
			{
				"type": "occ",
				"energy": -0.30754,
				"method": "rhf"
			},
			{
				"type": "occ",
				"energy": -0.29055,
				"method": "rhf"
			},
			{
				"type": "occ",
				"energy": -0.28476,
				"method": "rhf"
			},
			{
				"type": "occ",
				"energy": -0.25996,
				"method": "rhf"
			},
			{
				"type": "unocc",
				"energy": -0.09964,
				"method": "rhf"
			},
			{
				"type": "unocc",
				"energy": -0.0901,
				"method": "rhf"
			},
			{
				"type": "unocc",
				"energy": -0.03191,
				"method": "rhf"
			},
			{
				"type": "unocc",
				"energy": -0.00605,
				"method": "rhf"
			},
			{
				"type": "unocc",
				"energy": 0.00432,
				"method": "rhf"
			}
		],
		"cosmo_sigma_profile": { 
			"-0.025": 0.0,
			"-0.024": 0.0,
			"-0.023": 0.0,
			"-0.022": 0.0,
			"-0.021": 0.0,
			"-0.02": 0.0,
			"-0.019": 0.126134008734,
			"-0.018": 0.550216917124,
			"-0.017": 0.984149703694,
			"-0.016": 1.22081456623,
			"-0.015": 0.391550679496,
			"-0.014": 0.365806067064,
			"-0.013": 0.646611765426,
			"-0.012": 0.748226741902,
			"-0.011": 1.49255091639,
			"-0.01": 2.76428809552,
			"-0.009": 5.93286551408,
			"-0.008": 8.42559144761,
			"-0.007": 10.1432326214,
			"-0.006": 7.73033861285,
			"-0.005": 9.03630441465,
			"-0.004": 8.66444909529,
			"-0.003": 11.654886215,
			"-0.002": 18.3084737965,
			"-0.001": 25.7255118313,
			"0.0": 24.9784691917,
			"0.001": 15.3428521827,
			"0.002": 12.0428938876,
			"0.003": 12.8939511513,
			"0.004": 5.92467520497,
			"0.005": 6.85203485617,
			"0.006": 7.2863403449,
			"0.007": 13.7484474963,
			"0.008": 9.16145982419,
			"0.009": 5.32289992156,
			"0.01": 2.38682120472,
			"0.011": 3.19347246436,
			"0.012": 5.20112516344,
			"0.013": 1.08584039972,
			"0.014": 0.0,
			"0.015": 0.0,
			"0.016": 0.0,
			"0.017": 0.0,
			"0.018": 0.0,
			"0.019": 0.0,
			"0.02": 0.0,
			"0.021": 0.0,
			"0.022": 0.0,
			"0.023": 0.0,
			"0.024": 0.0,
			"0.025": 0.0
		}
	}
}
