{
	 "smiles": "NC(C#N)=C(N)C#N", 
	 "Tm": 451.15, 
	 "num_atms": 12, 
	 "gaussian": { 
		 "optdone": 1, 
		 "sigma_profile": "yes", 
		 "theory": "DFT", 
		 "functional": "B3LYP", 
		 "basiset": "6-31G**", 
		 "properties": { 
			 "R2extent": 1326.6993, 
			 "electric_dipole_moment_norm": 0.0, 
			 "electric_quadrupole_moment_norm": 20.6031553006, 
			 "total_energy": -373.780891192, 
			 "HOMO_LUMO_gap": 0.14927, 
			 "cosmo_polarized_energy": -15.69, 
			 "cosmo_cavitation_energy": 18.68, 
			 "cosmo_dispersion_energy": -12.68, 
			 "cosmo_repulsion_energy": 1.1, 
			 "cosmo_total_nonelectrostatic_energy": 7.09, 
			 "SMD_solvation_energy": 5.93 
		},
		"coords": [
			{
				"x": -0.1553057317,
				"y": 0.1478967934,
				"z": -2.6897312217,
				"element": "N" 
			},
			{
				"x": 0.175602136,
				"y": 0.7871502633,
				"z": -1.4904449553,
				"element": "C" 
			},
			{
				"x": 1.4819641785,
				"y": 1.361030109,
				"z": -1.4132306199,
				"element": "C" 
			},
			{
				"x": 2.542458399,
				"y": 1.8313420026,
				"z": -1.3069910812,
				"element": "N" 
			},
			{
				"x": -0.6685191644,
				"y": 0.9586499097,
				"z": -0.4211048385,
				"element": "C" 
			},
			{
				"x": -0.3376110695,
				"y": 1.5979032413,
				"z": 0.7781820693,
				"element": "N" 
			},
			{
				"x": -1.9748818285,
				"y": 0.3847715762,
				"z": -0.4983200212,
				"element": "C" 
			},
			{
				"x": -3.0353731252,
				"y": -0.0855476097,
				"z": -0.6045563984,
				"element": "N" 
			},
			{
				"x": -1.0411103929,
				"y": -0.3435791557,
				"z": -2.6648491184,
				"element": "H" 
			},
			{
				"x": 0.5835346099,
				"y": -0.4282054605,
				"z": -3.0740242833,
				"element": "H" 
			},
			{
				"x": 0.5481931729,
				"y": 2.0893801839,
				"z": 0.7532983942,
				"element": "H" 
			},
			{
				"x": -1.0764511842,
				"y": 2.1740081465,
				"z": 1.1624720744,
				"element": "H" 
			}
		],
		 "valence_orbital": [ 
			{
				"type": "occ",
				"energy": -0.36615,
				"method": "rhf"
			},
			{
				"type": "occ",
				"energy": -0.35306,
				"method": "rhf"
			},
			{
				"type": "occ",
				"energy": -0.3375,
				"method": "rhf"
			},
			{
				"type": "occ",
				"energy": -0.3271,
				"method": "rhf"
			},
			{
				"type": "occ",
				"energy": -0.22119,
				"method": "rhf"
			},
			{
				"type": "unocc",
				"energy": -0.07192,
				"method": "rhf"
			},
			{
				"type": "unocc",
				"energy": -0.015,
				"method": "rhf"
			},
			{
				"type": "unocc",
				"energy": 0.02273,
				"method": "rhf"
			},
			{
				"type": "unocc",
				"energy": 0.06194,
				"method": "rhf"
			},
			{
				"type": "unocc",
				"energy": 0.06313,
				"method": "rhf"
			}
		],
		"cosmo_sigma_profile": { 
			"-0.025": 0.0,
			"-0.024": 0.0,
			"-0.023": 0.0,
			"-0.022": 0.0,
			"-0.021": 0.0,
			"-0.02": 0.0,
			"-0.019": 0.0,
			"-0.018": 0.0,
			"-0.017": 0.0,
			"-0.016": 0.0,
			"-0.015": 0.485471193511,
			"-0.014": 3.06284577253,
			"-0.013": 4.07403501933,
			"-0.012": 5.03705163214,
			"-0.011": 5.63155733495,
			"-0.01": 5.17953246121,
			"-0.009": 3.9561981548,
			"-0.008": 3.69989717106,
			"-0.007": 6.03074339523,
			"-0.006": 3.36268829902,
			"-0.005": 3.9662757785,
			"-0.004": 5.32928759002,
			"-0.003": 6.34031478246,
			"-0.002": 6.70241611764,
			"-0.001": 7.42231612846,
			"0.0": 8.22010873295,
			"0.001": 6.07104088683,
			"0.002": 5.2593990668,
			"0.003": 5.51283476619,
			"0.004": 5.28334402922,
			"0.005": 5.84068371271,
			"0.006": 6.62463842607,
			"0.007": 5.9678291105,
			"0.008": 7.26696871555,
			"0.009": 6.88455486703,
			"0.01": 7.18762622964,
			"0.011": 5.56965668151,
			"0.012": 4.50417685078,
			"0.013": 0.453152321351,
			"0.014": 0.0,
			"0.015": 0.0,
			"0.016": 0.0,
			"0.017": 0.0,
			"0.018": 0.0,
			"0.019": 0.0,
			"0.02": 0.0,
			"0.021": 0.0,
			"0.022": 0.0,
			"0.023": 0.0,
			"0.024": 0.0,
			"0.025": 0.0
		}
	}
}
