{
	 "smiles": "NC1=CC=NC2=NC(=NN12)C(F)(F)F", 
	 "Tm": 495.15, 
	 "num_atms": 18, 
	 "gaussian": { 
		 "optdone": 1, 
		 "sigma_profile": "yes", 
		 "theory": "DFT", 
		 "functional": "B3LYP", 
		 "basiset": "6-31G**", 
		 "properties": { 
			 "R2extent": 3403.8575, 
			 "electric_dipole_moment_norm": 7.71582857637, 
			 "electric_quadrupole_moment_norm": 6.56572008161, 
			 "total_energy": -804.31588968, 
			 "HOMO_LUMO_gap": 0.19431, 
			 "cosmo_polarized_energy": -18.48, 
			 "cosmo_cavitation_energy": 24.79, 
			 "cosmo_dispersion_energy": -18.3, 
			 "cosmo_repulsion_energy": 1.38, 
			 "cosmo_total_nonelectrostatic_energy": 7.87, 
			 "SMD_solvation_energy": 1.32 
		},
		"coords": [
			{
				"x": 0.5290492218,
				"y": 1.9797667266,
				"z": 1.4489069901,
				"element": "N" 
			},
			{
				"x": -0.275753402,
				"y": 1.3637141488,
				"z": 0.5575594765,
				"element": "C" 
			},
			{
				"x": -1.0669355189,
				"y": 1.9346624765,
				"z": -0.4340975052,
				"element": "C" 
			},
			{
				"x": -1.8140877625,
				"y": 1.0876790941,
				"z": -1.2767976694,
				"element": "C" 
			},
			{
				"x": -1.8448961332,
				"y": -0.2388971931,
				"z": -1.2207326957,
				"element": "N" 
			},
			{
				"x": -1.0842373539,
				"y": -0.7844884075,
				"z": -0.2616225032,
				"element": "C" 
			},
			{
				"x": -0.8958827623,
				"y": -2.0659698303,
				"z": 0.0676557563,
				"element": "N" 
			},
			{
				"x": -0.0395917727,
				"y": -1.9918000746,
				"z": 1.1037852872,
				"element": "C" 
			},
			{
				"x": 0.3593458221,
				"y": -0.7792110195,
				"z": 1.4928672991,
				"element": "N" 
			},
			{
				"x": -0.316415875,
				"y": -0.0010767828,
				"z": 0.6081755372,
				"element": "N" 
			},
			{
				"x": 0.4590809362,
				"y": -3.2286875378,
				"z": 1.8040410141,
				"element": "C" 
			},
			{
				"x": 1.1322535264,
				"y": -4.0235189957,
				"z": 0.9516596947,
				"element": "F" 
			},
			{
				"x": -0.566247059,
				"y": -3.9421783319,
				"z": 2.3045315097,
				"element": "F" 
			},
			{
				"x": 1.2828869486,
				"y": -2.9123839556,
				"z": 2.8187945494,
				"element": "F" 
			},
			{
				"x": 0.5102009408,
				"y": 2.9806494389,
				"z": 1.5451335638,
				"element": "H" 
			},
			{
				"x": 0.9685408962,
				"y": 1.4147544609,
				"z": 2.1614425379,
				"element": "H" 
			},
			{
				"x": -1.1000780334,
				"y": 3.010450395,
				"z": -0.5544298145,
				"element": "H" 
			},
			{
				"x": -2.4287326192,
				"y": 1.5432353879,
				"z": -2.0509730278,
				"element": "H" 
			}
		],
		 "valence_orbital": [ 
			{
				"type": "occ",
				"energy": -0.31736,
				"method": "rhf"
			},
			{
				"type": "occ",
				"energy": -0.29549,
				"method": "rhf"
			},
			{
				"type": "occ",
				"energy": -0.28342,
				"method": "rhf"
			},
			{
				"type": "occ",
				"energy": -0.28211,
				"method": "rhf"
			},
			{
				"type": "occ",
				"energy": -0.24313,
				"method": "rhf"
			},
			{
				"type": "unocc",
				"energy": -0.04882,
				"method": "rhf"
			},
			{
				"type": "unocc",
				"energy": -0.02961,
				"method": "rhf"
			},
			{
				"type": "unocc",
				"energy": 0.02906,
				"method": "rhf"
			},
			{
				"type": "unocc",
				"energy": 0.05155,
				"method": "rhf"
			},
			{
				"type": "unocc",
				"energy": 0.08263,
				"method": "rhf"
			}
		],
		"cosmo_sigma_profile": { 
			"-0.025": 0.0,
			"-0.024": 0.0,
			"-0.023": 0.0,
			"-0.022": 0.0,
			"-0.021": 0.0,
			"-0.02": 0.0,
			"-0.019": 0.0,
			"-0.018": 0.0,
			"-0.017": 0.251482564475,
			"-0.016": 1.57432082573,
			"-0.015": 2.0124425884,
			"-0.014": 2.05064887983,
			"-0.013": 2.73251546344,
			"-0.012": 2.54955377794,
			"-0.011": 1.67406442513,
			"-0.01": 2.62672761754,
			"-0.009": 2.69426335709,
			"-0.008": 4.48010530052,
			"-0.007": 6.26205535963,
			"-0.006": 5.33782030357,
			"-0.005": 6.95366752132,
			"-0.004": 8.3261683895,
			"-0.003": 9.48214585653,
			"-0.002": 11.2065690494,
			"-0.001": 11.7198464063,
			"0.0": 12.4845947946,
			"0.001": 15.3892761501,
			"0.002": 32.8283248961,
			"0.003": 18.4011785061,
			"0.004": 5.94644279137,
			"0.005": 4.10346430128,
			"0.006": 4.55819081583,
			"0.007": 4.74532504774,
			"0.008": 3.03446645774,
			"0.009": 2.59946222996,
			"0.01": 2.31326304378,
			"0.011": 3.24737227423,
			"0.012": 2.6522275084,
			"0.013": 2.02939133701,
			"0.014": 2.20938164887,
			"0.015": 1.5631753572,
			"0.016": 0.174397172397,
			"0.017": 0.0,
			"0.018": 0.0,
			"0.019": 0.0,
			"0.02": 0.0,
			"0.021": 0.0,
			"0.022": 0.0,
			"0.023": 0.0,
			"0.024": 0.0,
			"0.025": 0.0
		}
	}
}
