{
	 "smiles": "OC1=CC=CC2=C1C(=O)C=C(O2)C1=CC=CC=C1", 
	 "Tm": 431.15, 
	 "num_atms": 28, 
	 "gaussian": { 
		 "optdone": 1, 
		 "sigma_profile": "yes", 
		 "theory": "DFT", 
		 "functional": "B3LYP", 
		 "basiset": "6-31G**", 
		 "properties": { 
			 "R2extent": 6769.0238, 
			 "electric_dipole_moment_norm": 5.0023310906, 
			 "electric_quadrupole_moment_norm": 19.0280722132, 
			 "total_energy": -803.308141514, 
			 "HOMO_LUMO_gap": 0.14733, 
			 "cosmo_polarized_energy": -10.26, 
			 "cosmo_cavitation_energy": 32.23, 
			 "cosmo_dispersion_energy": -24.23, 
			 "cosmo_repulsion_energy": 1.8, 
			 "cosmo_total_nonelectrostatic_energy": 9.81, 
			 "SMD_solvation_energy": 6.34 
		},
		"coords": [
			{
				"x": 4.3613656546,
				"y": -2.0713851628,
				"z": 2.9144099124,
				"element": "O" 
			},
			{
				"x": 3.9749858082,
				"y": -1.8231058315,
				"z": 1.6580236225,
				"element": "C" 
			},
			{
				"x": 4.5272076217,
				"y": -2.5478448556,
				"z": 0.5959805567,
				"element": "C" 
			},
			{
				"x": 4.1171686035,
				"y": -2.282960616,
				"z": -0.7111903698,
				"element": "C" 
			},
			{
				"x": 3.1624565678,
				"y": -1.3077855161,
				"z": -1.005868139,
				"element": "C" 
			},
			{
				"x": 2.6182894595,
				"y": -0.5921121283,
				"z": 0.056568908,
				"element": "C" 
			},
			{
				"x": 3.0007922876,
				"y": -0.8224085587,
				"z": 1.3880521789,
				"element": "C" 
			},
			{
				"x": 2.3954820598,
				"y": -0.0486309731,
				"z": 2.4663364767,
				"element": "C" 
			},
			{
				"x": 2.704965455,
				"y": -0.2258799746,
				"z": 3.665657575,
				"element": "O" 
			},
			{
				"x": 1.4096699291,
				"y": 0.9255390934,
				"z": 2.0471286761,
				"element": "C" 
			},
			{
				"x": 1.0998091793,
				"y": 1.1063506067,
				"z": 0.7343237257,
				"element": "C" 
			},
			{
				"x": 1.6838480822,
				"y": 0.3683817706,
				"z": -0.2474722257,
				"element": "O" 
			},
			{
				"x": 0.1186097349,
				"y": 2.0699468179,
				"z": 0.2016650405,
				"element": "C" 
			},
			{
				"x": -0.2957464467,
				"y": 3.1723512813,
				"z": 0.9690359535,
				"element": "C" 
			},
			{
				"x": -1.2354057871,
				"y": 4.0684693329,
				"z": 0.4673804018,
				"element": "C" 
			},
			{
				"x": -1.7730134434,
				"y": 3.8834493108,
				"z": -0.8087904008,
				"element": "C" 
			},
			{
				"x": -1.3599977526,
				"y": 2.7972780341,
				"z": -1.58229773,
				"element": "C" 
			},
			{
				"x": -0.4196079551,
				"y": 1.8976485804,
				"z": -1.0850670172,
				"element": "C" 
			},
			{
				"x": 3.8419950566,
				"y": -1.4471036815,
				"z": 3.4946420764,
				"element": "H" 
			},
			{
				"x": 5.2695344398,
				"y": -3.3075891515,
				"z": 0.8133491535,
				"element": "H" 
			},
			{
				"x": 4.5545634287,
				"y": -2.8527141084,
				"z": -1.5259290692,
				"element": "H" 
			},
			{
				"x": 2.8440120196,
				"y": -1.0989011013,
				"z": -2.0202787205,
				"element": "H" 
			},
			{
				"x": 0.9082093051,
				"y": 1.4972608533,
				"z": 2.8166817939,
				"element": "H" 
			},
			{
				"x": 0.1334787526,
				"y": 3.3429554703,
				"z": 1.9506248872,
				"element": "H" 
			},
			{
				"x": -1.5414888381,
				"y": 4.9180751926,
				"z": 1.0702777058,
				"element": "H" 
			},
			{
				"x": -2.5046616261,
				"y": 4.5847941846,
				"z": -1.1988039265,
				"element": "H" 
			},
			{
				"x": -1.771859414,
				"y": 2.647839872,
				"z": -2.5759114994,
				"element": "H" 
			},
			{
				"x": -0.1023621825,
				"y": 1.0536812585,
				"z": -1.6862295465,
				"element": "H" 
			}
		],
		 "valence_orbital": [ 
			{
				"type": "occ",
				"energy": -0.26941,
				"method": "rhf"
			},
			{
				"type": "occ",
				"energy": -0.25695,
				"method": "rhf"
			},
			{
				"type": "occ",
				"energy": -0.25622,
				"method": "rhf"
			},
			{
				"type": "occ",
				"energy": -0.24925,
				"method": "rhf"
			},
			{
				"type": "occ",
				"energy": -0.21996,
				"method": "rhf"
			},
			{
				"type": "unocc",
				"energy": -0.07263,
				"method": "rhf"
			},
			{
				"type": "unocc",
				"energy": -0.03397,
				"method": "rhf"
			},
			{
				"type": "unocc",
				"energy": -0.01818,
				"method": "rhf"
			},
			{
				"type": "unocc",
				"energy": 0.00411,
				"method": "rhf"
			},
			{
				"type": "unocc",
				"energy": 0.02226,
				"method": "rhf"
			}
		],
		"cosmo_sigma_profile": { 
			"-0.025": 0.0,
			"-0.024": 0.0,
			"-0.023": 0.0,
			"-0.022": 0.0,
			"-0.021": 0.0,
			"-0.02": 0.0,
			"-0.019": 0.0,
			"-0.018": 0.0,
			"-0.017": 0.0,
			"-0.016": 0.0,
			"-0.015": 0.0,
			"-0.014": 0.0,
			"-0.013": 0.0,
			"-0.012": 0.0,
			"-0.011": 0.0,
			"-0.01": 0.0127367113222,
			"-0.009": 1.05889082919,
			"-0.008": 2.47396619084,
			"-0.007": 7.68409666105,
			"-0.006": 16.2978340814,
			"-0.005": 18.4261320547,
			"-0.004": 18.3599088573,
			"-0.003": 15.2409062607,
			"-0.002": 19.9652040221,
			"-0.001": 21.6034575859,
			"0.0": 22.9800971454,
			"0.001": 25.5980346126,
			"0.002": 21.8555008612,
			"0.003": 22.6114206438,
			"0.004": 19.627420496,
			"0.005": 3.75616569813,
			"0.006": 2.75727364518,
			"0.007": 3.1877009075,
			"0.008": 1.93256351271,
			"0.009": 3.29309639097,
			"0.01": 3.15970880001,
			"0.011": 3.23402252884,
			"0.012": 2.62321803977,
			"0.013": 1.82423743041,
			"0.014": 0.8359898121,
			"0.015": 0.0,
			"0.016": 0.0,
			"0.017": 0.0,
			"0.018": 0.0,
			"0.019": 0.0,
			"0.02": 0.0,
			"0.021": 0.0,
			"0.022": 0.0,
			"0.023": 0.0,
			"0.024": 0.0,
			"0.025": 0.0
		}
	}
}
