{
	 "smiles": "NC1=CC(=O)NN1C1=CC=C(F)C=C1", 
	 "Tm": 476.15, 
	 "num_atms": 22, 
	 "gaussian": { 
		 "optdone": 1, 
		 "sigma_profile": "yes", 
		 "theory": "DFT", 
		 "functional": "B3LYP", 
		 "basiset": "6-31G**", 
		 "properties": { 
			 "R2extent": 3965.0691, 
			 "electric_dipole_moment_norm": 5.34272147225, 
			 "electric_quadrupole_moment_norm": 28.8799769946, 
			 "total_energy": -687.060420817, 
			 "HOMO_LUMO_gap": 0.17434, 
			 "cosmo_polarized_energy": -19.29, 
			 "cosmo_cavitation_energy": 27.09, 
			 "cosmo_dispersion_energy": -19.7, 
			 "cosmo_repulsion_energy": 1.53, 
			 "cosmo_total_nonelectrostatic_energy": 8.91, 
			 "SMD_solvation_energy": 5.94 
		},
		"coords": [
			{
				"x": 0.9977343329,
				"y": -2.9205809203,
				"z": -0.4230365953,
				"element": "N" 
			},
			{
				"x": 1.3289722488,
				"y": -2.5234531798,
				"z": 0.8484299165,
				"element": "C" 
			},
			{
				"x": 1.2422403337,
				"y": -3.2123292678,
				"z": 2.0267292694,
				"element": "C" 
			},
			{
				"x": 1.7092237258,
				"y": -2.3503483384,
				"z": 3.0869958287,
				"element": "C" 
			},
			{
				"x": 1.9197503206,
				"y": -2.537781032,
				"z": 4.2750010657,
				"element": "O" 
			},
			{
				"x": 1.9326334638,
				"y": -1.0727496491,
				"z": 2.4629833486,
				"element": "N" 
			},
			{
				"x": 1.8781535644,
				"y": -1.2536152487,
				"z": 1.0535329581,
				"element": "N" 
			},
			{
				"x": 1.4911995106,
				"y": -0.1158072641,
				"z": 0.2788250366,
				"element": "C" 
			},
			{
				"x": 0.6694704916,
				"y": 0.8867038924,
				"z": 0.8135571609,
				"element": "C" 
			},
			{
				"x": 0.3256464092,
				"y": 1.9914545546,
				"z": 0.0386747361,
				"element": "C" 
			},
			{
				"x": 0.7962212022,
				"y": 2.076493844,
				"z": -1.2687914459,
				"element": "C" 
			},
			{
				"x": 0.4562831511,
				"y": 3.143537908,
				"z": -2.0188982147,
				"element": "F" 
			},
			{
				"x": 1.6160434062,
				"y": 1.0980884003,
				"z": -1.817924114,
				"element": "C" 
			},
			{
				"x": 1.9794588965,
				"y": 0.0050655298,
				"z": -1.0298253135,
				"element": "C" 
			},
			{
				"x": 0.3689212724,
				"y": -3.7094464687,
				"z": -0.4630210075,
				"element": "H" 
			},
			{
				"x": 0.7639749697,
				"y": -2.1838028119,
				"z": -1.075857462,
				"element": "H" 
			},
			{
				"x": 0.9272678271,
				"y": -4.2360222178,
				"z": 2.1573325933,
				"element": "H" 
			},
			{
				"x": 2.8016116222,
				"y": -0.629999701,
				"z": 2.7498549203,
				"element": "H" 
			},
			{
				"x": 0.3171728292,
				"y": 0.7914916157,
				"z": 1.8341008057,
				"element": "H" 
			},
			{
				"x": -0.3071403047,
				"y": 2.7802727114,
				"z": 0.4309382972,
				"element": "H" 
			},
			{
				"x": 1.9811615926,
				"y": 1.2098392684,
				"z": -2.8329026622,
				"element": "H" 
			},
			{
				"x": 2.660999134,
				"y": -0.7457116249,
				"z": -1.4171991219,
				"element": "H" 
			}
		],
		 "valence_orbital": [ 
			{
				"type": "occ",
				"energy": -0.28051,
				"method": "rhf"
			},
			{
				"type": "occ",
				"energy": -0.2701,
				"method": "rhf"
			},
			{
				"type": "occ",
				"energy": -0.24466,
				"method": "rhf"
			},
			{
				"type": "occ",
				"energy": -0.23141,
				"method": "rhf"
			},
			{
				"type": "occ",
				"energy": -0.20712,
				"method": "rhf"
			},
			{
				"type": "unocc",
				"energy": -0.03278,
				"method": "rhf"
			},
			{
				"type": "unocc",
				"energy": -0.0208,
				"method": "rhf"
			},
			{
				"type": "unocc",
				"energy": 0.00747,
				"method": "rhf"
			},
			{
				"type": "unocc",
				"energy": 0.06617,
				"method": "rhf"
			},
			{
				"type": "unocc",
				"energy": 0.07526,
				"method": "rhf"
			}
		],
		"cosmo_sigma_profile": { 
			"-0.025": 0.0,
			"-0.024": 0.0,
			"-0.023": 0.0,
			"-0.022": 0.0,
			"-0.021": 0.0,
			"-0.02": 0.0,
			"-0.019": 0.0,
			"-0.018": 0.0,
			"-0.017": 0.0,
			"-0.016": 0.0,
			"-0.015": 0.437833995587,
			"-0.014": 2.71385459056,
			"-0.013": 2.97673412564,
			"-0.012": 3.10521832587,
			"-0.011": 3.60956138058,
			"-0.01": 3.07646529006,
			"-0.009": 2.90240056585,
			"-0.008": 5.08910037812,
			"-0.007": 10.2629790676,
			"-0.006": 12.5534798374,
			"-0.005": 11.2280371093,
			"-0.004": 8.61200713078,
			"-0.003": 9.79023399572,
			"-0.002": 10.3712341854,
			"-0.001": 9.38038430762,
			"0.0": 14.4949672827,
			"0.001": 16.8849700104,
			"0.002": 17.0016900182,
			"0.003": 16.3432665572,
			"0.004": 18.5161030692,
			"0.005": 7.77596779363,
			"0.006": 2.4073945915,
			"0.007": 3.16451028629,
			"0.008": 2.28100071353,
			"0.009": 1.85008247791,
			"0.01": 2.24871771623,
			"0.011": 1.82234246023,
			"0.012": 1.77552468499,
			"0.013": 2.34467093482,
			"0.014": 5.1394878205,
			"0.015": 5.65903782584,
			"0.016": 1.0422390287,
			"0.017": 0.0,
			"0.018": 0.0,
			"0.019": 0.0,
			"0.02": 0.0,
			"0.021": 0.0,
			"0.022": 0.0,
			"0.023": 0.0,
			"0.024": 0.0,
			"0.025": 0.0
		}
	}
}
