{
	 "smiles": "CC(Cl)C=C", 
	 "Tm": 223.15, 
	 "num_atms": 12, 
	 "gaussian": { 
		 "optdone": 1, 
		 "sigma_profile": "yes", 
		 "theory": "DFT", 
		 "functional": "B3LYP", 
		 "basiset": "6-31G**", 
		 "properties": { 
			 "R2extent": 1167.7235, 
			 "electric_dipole_moment_norm": 2.1656948677, 
			 "electric_quadrupole_moment_norm": 5.92320251553, 
			 "total_energy": -616.820175029, 
			 "HOMO_LUMO_gap": 0.27677, 
			 "cosmo_polarized_energy": -4.21, 
			 "cosmo_cavitation_energy": 16.71, 
			 "cosmo_dispersion_energy": -12.33, 
			 "cosmo_repulsion_energy": 1.08, 
			 "cosmo_total_nonelectrostatic_energy": 5.46, 
			 "SMD_solvation_energy": 3.45 
		},
		"coords": [
			{
				"x": 0.4984643558,
				"y": -1.9858295216,
				"z": 0.4569408702,
				"element": "C" 
			},
			{
				"x": -0.4749491645,
				"y": -1.833014879,
				"z": -0.7130806705,
				"element": "C" 
			},
			{
				"x": 0.4239205216,
				"y": -2.1211545555,
				"z": -2.2818669194,
				"element": "Cl" 
			},
			{
				"x": -1.1925116084,
				"y": -0.5096984796,
				"z": -0.68993818,
				"element": "C" 
			},
			{
				"x": -1.1953113961,
				"y": 0.4450097542,
				"z": -1.6166272986,
				"element": "C" 
			},
			{
				"x": 1.2803428145,
				"y": -1.2237623369,
				"z": 0.4082022941,
				"element": "H" 
			},
			{
				"x": 0.9650731066,
				"y": -2.9735893323,
				"z": 0.4510607029,
				"element": "H" 
			},
			{
				"x": -0.0438169635,
				"y": -1.8644626262,
				"z": 1.4016974466,
				"element": "H" 
			},
			{
				"x": -1.2124270328,
				"y": -2.6418058593,
				"z": -0.6827699333,
				"element": "H" 
			},
			{
				"x": -1.7610581888,
				"y": -0.3646267747,
				"z": 0.2302781809,
				"element": "H" 
			},
			{
				"x": -1.7552561584,
				"y": 1.362484071,
				"z": -1.4652828878,
				"element": "H" 
			},
			{
				"x": -0.647270286,
				"y": 0.3420505398,
				"z": -2.5470136052,
				"element": "H" 
			}
		],
		 "valence_orbital": [ 
			{
				"type": "occ",
				"energy": -0.36785,
				"method": "rhf"
			},
			{
				"type": "occ",
				"energy": -0.35255,
				"method": "rhf"
			},
			{
				"type": "occ",
				"energy": -0.29561,
				"method": "rhf"
			},
			{
				"type": "occ",
				"energy": -0.29399,
				"method": "rhf"
			},
			{
				"type": "occ",
				"energy": -0.26624,
				"method": "rhf"
			},
			{
				"type": "unocc",
				"energy": 0.01053,
				"method": "rhf"
			},
			{
				"type": "unocc",
				"energy": 0.0248,
				"method": "rhf"
			},
			{
				"type": "unocc",
				"energy": 0.09251,
				"method": "rhf"
			},
			{
				"type": "unocc",
				"energy": 0.13708,
				"method": "rhf"
			},
			{
				"type": "unocc",
				"energy": 0.13807,
				"method": "rhf"
			}
		],
		"cosmo_sigma_profile": { 
			"-0.025": 0.0,
			"-0.024": 0.0,
			"-0.023": 0.0,
			"-0.022": 0.0,
			"-0.021": 0.0,
			"-0.02": 0.0,
			"-0.019": 0.0,
			"-0.018": 0.0,
			"-0.017": 0.0,
			"-0.016": 0.0,
			"-0.015": 0.0,
			"-0.014": 0.0,
			"-0.013": 0.0,
			"-0.012": 0.0,
			"-0.011": 0.0,
			"-0.01": 0.0,
			"-0.009": 0.0,
			"-0.008": 0.0339949355201,
			"-0.007": 3.15125604165,
			"-0.006": 7.26745441134,
			"-0.005": 9.06867918963,
			"-0.004": 11.1619911917,
			"-0.003": 11.3011775917,
			"-0.002": 11.2065144848,
			"-0.001": 12.5820230119,
			"0.0": 10.8807091556,
			"0.001": 8.44474510484,
			"0.002": 7.45390129813,
			"0.003": 7.55416543758,
			"0.004": 9.82602700628,
			"0.005": 9.24646625742,
			"0.006": 8.90305866061,
			"0.007": 5.54751596962,
			"0.008": 0.0502009946341,
			"0.009": 0.0,
			"0.01": 0.0,
			"0.011": 0.0,
			"0.012": 0.0,
			"0.013": 0.0,
			"0.014": 0.0,
			"0.015": 0.0,
			"0.016": 0.0,
			"0.017": 0.0,
			"0.018": 0.0,
			"0.019": 0.0,
			"0.02": 0.0,
			"0.021": 0.0,
			"0.022": 0.0,
			"0.023": 0.0,
			"0.024": 0.0,
			"0.025": 0.0
		}
	}
}
