{
	 "smiles": "CC(C)(C)OC(=O)NC(CSCC1=CC=CC=C1)C(O)=O", 
	 "Tm": 359.65, 
	 "num_atms": 42, 
	 "gaussian": { 
		 "optdone": 1, 
		 "sigma_profile": "yes", 
		 "theory": "DFT", 
		 "functional": "B3LYP", 
		 "basiset": "6-31G**", 
		 "properties": { 
			 "R2extent": 11323.9504, 
			 "electric_dipole_moment_norm": 1.55309101794, 
			 "electric_quadrupole_moment_norm": 20.5154040226, 
			 "total_energy": -1338.13703772, 
			 "HOMO_LUMO_gap": 0.21469, 
			 "cosmo_polarized_energy": -20.92, 
			 "cosmo_cavitation_energy": 46.71, 
			 "cosmo_dispersion_energy": -30.86, 
			 "cosmo_repulsion_energy": 2.34, 
			 "cosmo_total_nonelectrostatic_energy": 18.2, 
			 "SMD_solvation_energy": 9.12 
		},
		"coords": [
			{
				"x": -4.1624305688,
				"y": 1.9409501574,
				"z": 3.1374683952,
				"element": "C" 
			},
			{
				"x": -2.703187178,
				"y": 2.3219277182,
				"z": 3.3991898278,
				"element": "C" 
			},
			{
				"x": -2.4746396975,
				"y": 3.8351690488,
				"z": 3.3564069076,
				"element": "C" 
			},
			{
				"x": -2.2014472022,
				"y": 1.7268822353,
				"z": 4.7157903332,
				"element": "C" 
			},
			{
				"x": -1.8275847272,
				"y": 1.665547108,
				"z": 2.3988032633,
				"element": "O" 
			},
			{
				"x": -1.9209280241,
				"y": 1.9514841074,
				"z": 1.0879138416,
				"element": "C" 
			},
			{
				"x": -2.7412781935,
				"y": 2.664559656,
				"z": 0.5447953873,
				"element": "O" 
			},
			{
				"x": -0.872649876,
				"y": 1.3507207436,
				"z": 0.387271982,
				"element": "N" 
			},
			{
				"x": -0.1077074327,
				"y": 0.2037723467,
				"z": 0.8887873627,
				"element": "C" 
			},
			{
				"x": -0.932119933,
				"y": -1.0526359973,
				"z": 1.204764777,
				"element": "C" 
			},
			{
				"x": -1.7385398691,
				"y": -1.7950590422,
				"z": -0.265041427,
				"element": "S" 
			},
			{
				"x": -0.3418889583,
				"y": -2.8179884254,
				"z": -0.9289736037,
				"element": "C" 
			},
			{
				"x": -0.7907061055,
				"y": -3.5669234233,
				"z": -2.1580013232,
				"element": "C" 
			},
			{
				"x": -0.5817272577,
				"y": -3.0342580208,
				"z": -3.4367508434,
				"element": "C" 
			},
			{
				"x": -1.0048555454,
				"y": -3.723814917,
				"z": -4.5733691549,
				"element": "C" 
			},
			{
				"x": -1.647632322,
				"y": -4.95633305,
				"z": -4.4447550198,
				"element": "C" 
			},
			{
				"x": -1.8649271605,
				"y": -5.4943011601,
				"z": -3.1745215619,
				"element": "C" 
			},
			{
				"x": -1.4409039108,
				"y": -4.8029719173,
				"z": -2.0398789494,
				"element": "C" 
			},
			{
				"x": 0.7925474251,
				"y": 0.6094285684,
				"z": 2.0765563768,
				"element": "C" 
			},
			{
				"x": 1.2162407945,
				"y": 1.8873855817,
				"z": 2.0492645025,
				"element": "O" 
			},
			{
				"x": 1.1634389608,
				"y": -0.1715657896,
				"z": 2.9176304326,
				"element": "O" 
			},
			{
				"x": -4.2784602838,
				"y": 0.8525919694,
				"z": 3.1303014016,
				"element": "H" 
			},
			{
				"x": -4.7908654727,
				"y": 2.3417064682,
				"z": 3.9392500122,
				"element": "H" 
			},
			{
				"x": -4.509385976,
				"y": 2.3410204915,
				"z": 2.1845127527,
				"element": "H" 
			},
			{
				"x": -1.4132936065,
				"y": 4.0626290306,
				"z": 3.4968152047,
				"element": "H" 
			},
			{
				"x": -3.0334387351,
				"y": 4.310475602,
				"z": 4.1686334375,
				"element": "H" 
			},
			{
				"x": -2.8095272247,
				"y": 4.2579418207,
				"z": 2.4083796948,
				"element": "H" 
			},
			{
				"x": -1.1407069713,
				"y": 1.947902866,
				"z": 4.861698297,
				"element": "H" 
			},
			{
				"x": -2.330323915,
				"y": 0.6408409684,
				"z": 4.7259644866,
				"element": "H" 
			},
			{
				"x": -2.7654051777,
				"y": 2.1494119518,
				"z": 5.552545824,
				"element": "H" 
			},
			{
				"x": -1.0741540079,
				"y": 1.3358241245,
				"z": -0.6046437798,
				"element": "H" 
			},
			{
				"x": 0.5991350572,
				"y": -0.0397625048,
				"z": 0.0843312618,
				"element": "H" 
			},
			{
				"x": -1.730716411,
				"y": -0.8008282276,
				"z": 1.9050571449,
				"element": "H" 
			},
			{
				"x": -0.2913586337,
				"y": -1.7903323512,
				"z": 1.692542517,
				"element": "H" 
			},
			{
				"x": -0.0307883255,
				"y": -3.5094285253,
				"z": -0.1401860377,
				"element": "H" 
			},
			{
				"x": 0.5027921805,
				"y": -2.1643633198,
				"z": -1.1666317316,
				"element": "H" 
			},
			{
				"x": -0.0816213488,
				"y": -2.0745300505,
				"z": -3.5412937514,
				"element": "H" 
			},
			{
				"x": -0.8311024595,
				"y": -3.299626141,
				"z": -5.5581474123,
				"element": "H" 
			},
			{
				"x": -1.9756391075,
				"y": -5.4953165576,
				"z": -5.328839846,
				"element": "H" 
			},
			{
				"x": -2.3631821325,
				"y": -6.4534974407,
				"z": -3.0670107581,
				"element": "H" 
			},
			{
				"x": -1.613667977,
				"y": -5.2231947746,
				"z": -1.052434182,
				"element": "H" 
			},
			{
				"x": 0.7469373103,
				"y": 2.3349590714,
				"z": 1.3223039584,
				"element": "H" 
			}
		],
		 "valence_orbital": [ 
			{
				"type": "occ",
				"energy": -0.28072,
				"method": "rhf"
			},
			{
				"type": "occ",
				"energy": -0.26871,
				"method": "rhf"
			},
			{
				"type": "occ",
				"energy": -0.25635,
				"method": "rhf"
			},
			{
				"type": "occ",
				"energy": -0.24912,
				"method": "rhf"
			},
			{
				"type": "occ",
				"energy": -0.23112,
				"method": "rhf"
			},
			{
				"type": "unocc",
				"energy": -0.01643,
				"method": "rhf"
			},
			{
				"type": "unocc",
				"energy": -0.00648,
				"method": "rhf"
			},
			{
				"type": "unocc",
				"energy": 0.00312,
				"method": "rhf"
			},
			{
				"type": "unocc",
				"energy": 0.02612,
				"method": "rhf"
			},
			{
				"type": "unocc",
				"energy": 0.03342,
				"method": "rhf"
			}
		],
		"cosmo_sigma_profile": { 
			"-0.025": 0.0,
			"-0.024": 0.0,
			"-0.023": 0.0,
			"-0.022": 0.0,
			"-0.021": 0.0,
			"-0.02": 0.0,
			"-0.019": 0.0,
			"-0.018": 0.0,
			"-0.017": 0.0,
			"-0.016": 0.0,
			"-0.015": 0.494709736606,
			"-0.014": 0.88025919209,
			"-0.013": 1.46444026215,
			"-0.012": 1.31593207772,
			"-0.011": 2.52912552419,
			"-0.01": 3.79067095073,
			"-0.009": 6.28607200865,
			"-0.008": 4.14925881685,
			"-0.007": 4.98663854293,
			"-0.006": 13.7122230055,
			"-0.005": 24.8297939625,
			"-0.004": 32.8610614639,
			"-0.003": 32.9579341503,
			"-0.002": 30.5628777794,
			"-0.001": 30.821364324,
			"0.0": 32.778888405,
			"0.001": 21.2307953489,
			"0.002": 15.6772021005,
			"0.003": 14.0247591838,
			"0.004": 18.5671102469,
			"0.005": 17.4541826244,
			"0.006": 13.4821518132,
			"0.007": 6.38718936064,
			"0.008": 6.49081846982,
			"0.009": 6.64742604198,
			"0.01": 7.17884863736,
			"0.011": 7.05725155076,
			"0.012": 7.20969315655,
			"0.013": 3.04430089255,
			"0.014": 0.00584144213557,
			"0.015": 0.0,
			"0.016": 0.0,
			"0.017": 0.0,
			"0.018": 0.0,
			"0.019": 0.0,
			"0.02": 0.0,
			"0.021": 0.0,
			"0.022": 0.0,
			"0.023": 0.0,
			"0.024": 0.0,
			"0.025": 0.0
		}
	}
}
