{
	 "smiles": "NC1=CC=C(C=C1)C1=CC=C(C=C1)C1=CC=C(N)C=C1", 
	 "Tm": 520.15, 
	 "num_atms": 36, 
	 "gaussian": { 
		 "optdone": 1, 
		 "sigma_profile": "yes", 
		 "theory": "DFT", 
		 "functional": "B3LYP", 
		 "basiset": "6-31G**", 
		 "properties": { 
			 "R2extent": 10176.5952, 
			 "electric_dipole_moment_norm": 2.14310255938, 
			 "electric_quadrupole_moment_norm": 30.9845657305, 
			 "total_energy": -805.086067811, 
			 "HOMO_LUMO_gap": 0.15905, 
			 "cosmo_polarized_energy": -16.86, 
			 "cosmo_cavitation_energy": 39.82, 
			 "cosmo_dispersion_energy": -29.17, 
			 "cosmo_repulsion_energy": 2.21, 
			 "cosmo_total_nonelectrostatic_energy": 12.86, 
			 "SMD_solvation_energy": 6.07 
		},
		"coords": [
			{
				"x": 2.6862776584,
				"y": -5.9544409365,
				"z": -2.6189011824,
				"element": "N" 
			},
			{
				"x": 2.2065522427,
				"y": -4.7977995854,
				"z": -2.0010199537,
				"element": "C" 
			},
			{
				"x": 1.2003900535,
				"y": -4.0222756975,
				"z": -2.6021143466,
				"element": "C" 
			},
			{
				"x": 0.7660876824,
				"y": -2.8411321342,
				"z": -2.0111598492,
				"element": "C" 
			},
			{
				"x": 1.3079894135,
				"y": -2.3774597377,
				"z": -0.7996258893,
				"element": "C" 
			},
			{
				"x": 2.3137854095,
				"y": -3.1615754627,
				"z": -0.2080585906,
				"element": "C" 
			},
			{
				"x": 2.7564658063,
				"y": -4.3441556062,
				"z": -0.7899358369,
				"element": "C" 
			},
			{
				"x": 0.8389143631,
				"y": -1.1194882796,
				"z": -0.1731343771,
				"element": "C" 
			},
			{
				"x": 1.7219796574,
				"y": -0.2726929099,
				"z": 0.519910464,
				"element": "C" 
			},
			{
				"x": 1.2817302799,
				"y": 0.9086497535,
				"z": 1.1084096545,
				"element": "C" 
			},
			{
				"x": -0.0650499269,
				"y": 1.3061524531,
				"z": 1.0352488452,
				"element": "C" 
			},
			{
				"x": -0.948065745,
				"y": 0.4594560351,
				"z": 0.3420416632,
				"element": "C" 
			},
			{
				"x": -0.5078166716,
				"y": -0.7218859052,
				"z": -0.2464573256,
				"element": "C" 
			},
			{
				"x": -0.5336388898,
				"y": 2.5640064988,
				"z": 1.6623388062,
				"element": "C" 
			},
			{
				"x": -1.5406022511,
				"y": 3.348032276,
				"z": 1.0725984065,
				"element": "C" 
			},
			{
				"x": -1.9862504723,
				"y": 4.5276259574,
				"z": 1.658183703,
				"element": "C" 
			},
			{
				"x": -1.4374023342,
				"y": 4.9789348021,
				"z": 2.8707026214,
				"element": "C" 
			},
			{
				"x": -1.8408122103,
				"y": 6.191442798,
				"z": 3.4335624848,
				"element": "N" 
			},
			{
				"x": -0.4295100014,
				"y": 4.2039869269,
				"z": 3.4694797217,
				"element": "C" 
			},
			{
				"x": 0.0077751789,
				"y": 3.0257830624,
				"z": 2.874793779,
				"element": "C" 
			},
			{
				"x": 3.1287408507,
				"y": -6.6194535126,
				"z": -1.9995069008,
				"element": "H" 
			},
			{
				"x": 2.0379326162,
				"y": -6.4037515027,
				"z": -3.2509289707,
				"element": "H" 
			},
			{
				"x": 0.7699627856,
				"y": -4.3438000687,
				"z": -3.5476981374,
				"element": "H" 
			},
			{
				"x": 0.0046797372,
				"y": -2.2522547903,
				"z": -2.5144943692,
				"element": "H" 
			},
			{
				"x": 2.7389361705,
				"y": -2.8541490156,
				"z": 0.743052605,
				"element": "H" 
			},
			{
				"x": 3.5314095255,
				"y": -4.9300302029,
				"z": -0.3009893191,
				"element": "H" 
			},
			{
				"x": 2.7774763909,
				"y": -0.5254255906,
				"z": 0.5651296572,
				"element": "H" 
			},
			{
				"x": 2.0021549449,
				"y": 1.5550226487,
				"z": 1.6015420044,
				"element": "H" 
			},
			{
				"x": -2.0034610394,
				"y": 0.7125963371,
				"z": 0.2959326259,
				"element": "H" 
			},
			{
				"x": -1.2281795985,
				"y": -1.3677456807,
				"z": -0.7404260546,
				"element": "H" 
			},
			{
				"x": -1.9678805965,
				"y": 3.0404375945,
				"z": 0.1225004914,
				"element": "H" 
			},
			{
				"x": -2.756486772,
				"y": 5.1176924008,
				"z": 1.1669242391,
				"element": "H" 
			},
			{
				"x": -2.7699799463,
				"y": 6.4955851109,
				"z": 3.1769816811,
				"element": "H" 
			},
			{
				"x": -1.67850403,
				"y": 6.2778431051,
				"z": 4.4274715962,
				"element": "H" 
			},
			{
				"x": 0.0063298704,
				"y": 4.5278552221,
				"z": 4.4118214646,
				"element": "H" 
			},
			{
				"x": 0.7676698476,
				"y": 2.4351136363,
				"z": 3.3783245887,
				"element": "H" 
			}
		],
		 "valence_orbital": [ 
			{
				"type": "occ",
				"energy": -0.24285,
				"method": "rhf"
			},
			{
				"type": "occ",
				"energy": -0.24277,
				"method": "rhf"
			},
			{
				"type": "occ",
				"energy": -0.23897,
				"method": "rhf"
			},
			{
				"type": "occ",
				"energy": -0.20068,
				"method": "rhf"
			},
			{
				"type": "occ",
				"energy": -0.17946,
				"method": "rhf"
			},
			{
				"type": "unocc",
				"energy": -0.02041,
				"method": "rhf"
			},
			{
				"type": "unocc",
				"energy": 0.0035,
				"method": "rhf"
			},
			{
				"type": "unocc",
				"energy": 0.00607,
				"method": "rhf"
			},
			{
				"type": "unocc",
				"energy": 0.01148,
				"method": "rhf"
			},
			{
				"type": "unocc",
				"energy": 0.02366,
				"method": "rhf"
			}
		],
		"cosmo_sigma_profile": { 
			"-0.025": 0.0,
			"-0.024": 0.0,
			"-0.023": 0.0,
			"-0.022": 0.0,
			"-0.021": 0.0,
			"-0.02": 0.0,
			"-0.019": 0.0,
			"-0.018": 0.0,
			"-0.017": 0.0,
			"-0.016": 0.0,
			"-0.015": 0.0,
			"-0.014": 0.0,
			"-0.013": 0.577381510744,
			"-0.012": 4.64959080356,
			"-0.011": 5.66606912118,
			"-0.01": 5.37056116372,
			"-0.009": 6.57149756179,
			"-0.008": 6.13275999301,
			"-0.007": 5.82697245972,
			"-0.006": 8.71386962328,
			"-0.005": 23.4219965184,
			"-0.004": 26.0334566933,
			"-0.003": 23.2687625499,
			"-0.002": 16.5041716456,
			"-0.001": 16.7033565867,
			"0.0": 14.1931999959,
			"0.001": 15.6416202324,
			"0.002": 15.2515553685,
			"0.003": 20.0763196296,
			"0.004": 22.5126120421,
			"0.005": 27.5912978032,
			"0.006": 29.8227076008,
			"0.007": 12.2944009296,
			"0.008": 1.62149569545,
			"0.009": 1.56993411798,
			"0.01": 1.67220700374,
			"0.011": 1.46395053419,
			"0.012": 1.17886587704,
			"0.013": 1.29803205438,
			"0.014": 1.38377897642,
			"0.015": 0.281814695815,
			"0.016": 0.0,
			"0.017": 0.0,
			"0.018": 0.0,
			"0.019": 0.0,
			"0.02": 0.0,
			"0.021": 0.0,
			"0.022": 0.0,
			"0.023": 0.0,
			"0.024": 0.0,
			"0.025": 0.0
		}
	}
}
