{
	 "smiles": "FC12CC3CC(CC(C3)C1)C2", 
	 "Tm": 498.15, 
	 "num_atms": 26, 
	 "gaussian": { 
		 "optdone": 1, 
		 "sigma_profile": "yes", 
		 "theory": "DFT", 
		 "functional": "B3LYP", 
		 "basiset": "6-31G**", 
		 "properties": { 
			 "R2extent": 1606.2419, 
			 "electric_dipole_moment_norm": 1.95584972327, 
			 "electric_quadrupole_moment_norm": 6.13937375471, 
			 "total_energy": -489.979613236, 
			 "HOMO_LUMO_gap": 0.34135, 
			 "cosmo_polarized_energy": -2.87, 
			 "cosmo_cavitation_energy": 24.07, 
			 "cosmo_dispersion_energy": -18.63, 
			 "cosmo_repulsion_energy": 1.43, 
			 "cosmo_total_nonelectrostatic_energy": 6.87, 
			 "SMD_solvation_energy": 3.02 
		},
		"coords": [
			{
				"x": 1.6702236387,
				"y": -2.5452625883,
				"z": 1.2915189584,
				"element": "F" 
			},
			{
				"x": 0.7410088644,
				"y": -1.6029399959,
				"z": 0.8195356609,
				"element": "C" 
			},
			{
				"x": 1.1854378175,
				"y": -1.1233154558,
				"z": -0.5661156236,
				"element": "C" 
			},
			{
				"x": 0.1671153844,
				"y": -0.0863971151,
				"z": -1.0909660779,
				"element": "C" 
			},
			{
				"x": -1.2272934014,
				"y": -0.7428052181,
				"z": -1.1840002936,
				"element": "C" 
			},
			{
				"x": -1.6624970252,
				"y": -1.2377336456,
				"z": 0.2122217436,
				"element": "C" 
			},
			{
				"x": -1.719583832,
				"y": -0.0407872903,
				"z": 1.1858521998,
				"element": "C" 
			},
			{
				"x": -0.3258641951,
				"y": 0.6165597734,
				"z": 1.282837013,
				"element": "C" 
			},
			{
				"x": 0.1069787499,
				"y": 1.1086290204,
				"z": -0.1151349026,
				"element": "C" 
			},
			{
				"x": 0.6947786591,
				"y": -0.4236276662,
				"z": 1.7965887357,
				"element": "C" 
			},
			{
				"x": -0.6357879447,
				"y": -2.2693853125,
				"z": 0.7310831242,
				"element": "C" 
			},
			{
				"x": 1.2520158779,
				"y": -1.9837395514,
				"z": -1.2428187412,
				"element": "H" 
			},
			{
				"x": 2.1880626109,
				"y": -0.6850528836,
				"z": -0.4930162338,
				"element": "H" 
			},
			{
				"x": 0.4797519692,
				"y": 0.2611860416,
				"z": -2.083286945,
				"element": "H" 
			},
			{
				"x": -1.2028971008,
				"y": -1.5819997594,
				"z": -1.8910818616,
				"element": "H" 
			},
			{
				"x": -1.9573651903,
				"y": -0.0203390446,
				"z": -1.5707092507,
				"element": "H" 
			},
			{
				"x": -2.650862474,
				"y": -1.7090035802,
				"z": 0.1465148962,
				"element": "H" 
			},
			{
				"x": -2.4572470817,
				"y": 0.6928119364,
				"z": 0.8362847672,
				"element": "H" 
			},
			{
				"x": -2.0482894722,
				"y": -0.376636026,
				"z": 2.1778041288,
				"element": "H" 
			},
			{
				"x": -0.3637019761,
				"y": 1.463972399,
				"z": 1.9783450429,
				"element": "H" 
			},
			{
				"x": -0.602332391,
				"y": 1.8600699699,
				"z": -0.4849093433,
				"element": "H" 
			},
			{
				"x": 1.0881189088,
				"y": 1.5971916018,
				"z": -0.0560884187,
				"element": "H" 
			},
			{
				"x": 0.4142966202,
				"y": -0.7889188789,
				"z": 2.7918616183,
				"element": "H" 
			},
			{
				"x": 1.6954051726,
				"y": 0.017553509,
				"z": 1.8790049788,
				"element": "H" 
			},
			{
				"x": -0.5766970152,
				"y": -3.1344684813,
				"z": 0.0596602144,
				"element": "H" 
			},
			{
				"x": -0.9218751737,
				"y": -2.6420617583,
				"z": 1.7220146096,
				"element": "H" 
			}
		],
		 "valence_orbital": [ 
			{
				"type": "occ",
				"energy": -0.31148,
				"method": "rhf"
			},
			{
				"type": "occ",
				"energy": -0.31146,
				"method": "rhf"
			},
			{
				"type": "occ",
				"energy": -0.30899,
				"method": "rhf"
			},
			{
				"type": "occ",
				"energy": -0.27857,
				"method": "rhf"
			},
			{
				"type": "occ",
				"energy": -0.27855,
				"method": "rhf"
			},
			{
				"type": "unocc",
				"energy": 0.0628,
				"method": "rhf"
			},
			{
				"type": "unocc",
				"energy": 0.11468,
				"method": "rhf"
			},
			{
				"type": "unocc",
				"energy": 0.12376,
				"method": "rhf"
			},
			{
				"type": "unocc",
				"energy": 0.12377,
				"method": "rhf"
			},
			{
				"type": "unocc",
				"energy": 0.13036,
				"method": "rhf"
			}
		],
		"cosmo_sigma_profile": { 
			"-0.025": 0.0,
			"-0.024": 0.0,
			"-0.023": 0.0,
			"-0.022": 0.0,
			"-0.021": 0.0,
			"-0.02": 0.0,
			"-0.019": 0.0,
			"-0.018": 0.0,
			"-0.017": 0.0,
			"-0.016": 0.0,
			"-0.015": 0.0,
			"-0.014": 0.0,
			"-0.013": 0.0,
			"-0.012": 0.0,
			"-0.011": 0.0,
			"-0.01": 0.0,
			"-0.009": 0.0,
			"-0.008": 0.0,
			"-0.007": 0.0,
			"-0.006": 0.0,
			"-0.005": 0.0,
			"-0.004": 0.0136675308521,
			"-0.003": 15.1572970298,
			"-0.002": 46.1962731785,
			"-0.001": 35.8568159213,
			"0.0": 37.379430756,
			"0.001": 21.239148065,
			"0.002": 4.79025844569,
			"0.003": 2.55410645995,
			"0.004": 1.87012924133,
			"0.005": 2.52474545474,
			"0.006": 3.70121673658,
			"0.007": 7.89367166037,
			"0.008": 4.91796951083,
			"0.009": 0.0,
			"0.01": 0.0,
			"0.011": 0.0,
			"0.012": 0.0,
			"0.013": 0.0,
			"0.014": 0.0,
			"0.015": 0.0,
			"0.016": 0.0,
			"0.017": 0.0,
			"0.018": 0.0,
			"0.019": 0.0,
			"0.02": 0.0,
			"0.021": 0.0,
			"0.022": 0.0,
			"0.023": 0.0,
			"0.024": 0.0,
			"0.025": 0.0
		}
	}
}
