{
	 "smiles": "CC1CCC(C(O)C1)C(C)=C", 
	 "Tm": 351.15, 
	 "num_atms": 29, 
	 "gaussian": { 
		 "optdone": 1, 
		 "sigma_profile": "yes", 
		 "theory": "DFT", 
		 "functional": "B3LYP", 
		 "basiset": "6-31G**", 
		 "properties": { 
			 "R2extent": 2332.5382, 
			 "electric_dipole_moment_norm": 1.3503173627, 
			 "electric_quadrupole_moment_norm": 4.0696683403, 
			 "total_energy": -467.122134854, 
			 "HOMO_LUMO_gap": 0.26591, 
			 "cosmo_polarized_energy": -6.22, 
			 "cosmo_cavitation_energy": 28.57, 
			 "cosmo_dispersion_energy": -20.31, 
			 "cosmo_repulsion_energy": 1.62, 
			 "cosmo_total_nonelectrostatic_energy": 9.88, 
			 "SMD_solvation_energy": 5.03 
		},
		"coords": [
			{
				"x": -0.8702050435,
				"y": 2.3401262076,
				"z": -1.0831960355,
				"element": "C" 
			},
			{
				"x": -0.7531947869,
				"y": 1.0994373106,
				"z": -0.1874236905,
				"element": "C" 
			},
			{
				"x": -0.6908739314,
				"y": -0.2140458969,
				"z": -1.0125854002,
				"element": "C" 
			},
			{
				"x": 0.7530180841,
				"y": -0.6842768236,
				"z": -1.2293331381,
				"element": "C" 
			},
			{
				"x": 1.4375288717,
				"y": -1.0622531687,
				"z": 0.1173500178,
				"element": "C" 
			},
			{
				"x": 0.9520469648,
				"y": -0.1322976804,
				"z": 1.2717199951,
				"element": "C" 
			},
			{
				"x": -0.1636173476,
				"y": -0.706484197,
				"z": 1.9641081503,
				"element": "O" 
			},
			{
				"x": 0.4742062205,
				"y": 1.2216021775,
				"z": 0.7491593358,
				"element": "C" 
			},
			{
				"x": 2.947000679,
				"y": -1.1540900362,
				"z": -0.0585209096,
				"element": "C" 
			},
			{
				"x": 3.4385174028,
				"y": -2.4058020863,
				"z": -0.7486429094,
				"element": "C" 
			},
			{
				"x": 3.8053246142,
				"y": -0.2014281151,
				"z": 0.3249520868,
				"element": "C" 
			},
			{
				"x": -1.7927233754,
				"y": 2.3178132726,
				"z": -1.673793578,
				"element": "H" 
			},
			{
				"x": -0.8753405161,
				"y": 3.2619779159,
				"z": -0.4901518051,
				"element": "H" 
			},
			{
				"x": -0.0280241465,
				"y": 2.4044501561,
				"z": -1.7836386577,
				"element": "H" 
			},
			{
				"x": -1.6466518485,
				"y": 1.052168004,
				"z": 0.4444315039,
				"element": "H" 
			},
			{
				"x": -1.2397470291,
				"y": -0.9997663425,
				"z": -0.4825874923,
				"element": "H" 
			},
			{
				"x": -1.1881329169,
				"y": -0.0736438527,
				"z": -1.980083063,
				"element": "H" 
			},
			{
				"x": 1.3345566888,
				"y": 0.111152078,
				"z": -1.7128117135,
				"element": "H" 
			},
			{
				"x": 0.7785755486,
				"y": -1.5406644017,
				"z": -1.9120429447,
				"element": "H" 
			},
			{
				"x": 1.0817787322,
				"y": -2.0703769547,
				"z": 0.3807495987,
				"element": "H" 
			},
			{
				"x": 1.7787017857,
				"y": 0.0173737696,
				"z": 1.9802345078,
				"element": "H" 
			},
			{
				"x": 0.1314127269,
				"y": -1.5347321654,
				"z": 2.3636095399,
				"element": "H" 
			},
			{
				"x": 1.3079573956,
				"y": 1.6904463276,
				"z": 0.2104467312,
				"element": "H" 
			},
			{
				"x": 0.2361359858,
				"y": 1.8764672888,
				"z": 1.5943548386,
				"element": "H" 
			},
			{
				"x": 4.5253949799,
				"y": -2.4020763093,
				"z": -0.8664501383,
				"element": "H" 
			},
			{
				"x": 3.1588710242,
				"y": -3.3027017481,
				"z": -0.1803973574,
				"element": "H" 
			},
			{
				"x": 2.9916664048,
				"y": -2.5168432678,
				"z": -1.7442873787,
				"element": "H" 
			},
			{
				"x": 4.8728408932,
				"y": -0.3063006104,
				"z": 0.1512539857,
				"element": "H" 
			},
			{
				"x": 3.490275939,
				"y": 0.7137691482,
				"z": 0.8154759203,
				"element": "H" 
			}
		],
		 "valence_orbital": [ 
			{
				"type": "occ",
				"energy": -0.30308,
				"method": "rhf"
			},
			{
				"type": "occ",
				"energy": -0.29855,
				"method": "rhf"
			},
			{
				"type": "occ",
				"energy": -0.28692,
				"method": "rhf"
			},
			{
				"type": "occ",
				"energy": -0.25698,
				"method": "rhf"
			},
			{
				"type": "occ",
				"energy": -0.24114,
				"method": "rhf"
			},
			{
				"type": "unocc",
				"energy": 0.02477,
				"method": "rhf"
			},
			{
				"type": "unocc",
				"energy": 0.07434,
				"method": "rhf"
			},
			{
				"type": "unocc",
				"energy": 0.09325,
				"method": "rhf"
			},
			{
				"type": "unocc",
				"energy": 0.10359,
				"method": "rhf"
			},
			{
				"type": "unocc",
				"energy": 0.11431,
				"method": "rhf"
			}
		],
		"cosmo_sigma_profile": { 
			"-0.025": 0.0,
			"-0.024": 0.0,
			"-0.023": 0.0,
			"-0.022": 0.0,
			"-0.021": 0.0,
			"-0.02": 0.0,
			"-0.019": 0.0,
			"-0.018": 0.0,
			"-0.017": 0.0,
			"-0.016": 0.0,
			"-0.015": 0.424366957054,
			"-0.014": 1.00160159713,
			"-0.013": 1.08106650704,
			"-0.012": 0.837879937729,
			"-0.011": 1.02944994895,
			"-0.01": 0.727360115922,
			"-0.009": 1.31651331525,
			"-0.008": 0.785410686878,
			"-0.007": 0.539986521717,
			"-0.006": 1.57207060008,
			"-0.005": 1.26030052267,
			"-0.004": 6.51669366167,
			"-0.003": 18.9472395883,
			"-0.002": 31.3193075603,
			"-0.001": 34.8240120404,
			"0.0": 37.0243405582,
			"0.001": 32.1303609049,
			"0.002": 15.9984718631,
			"0.003": 5.0918093335,
			"0.004": 5.00991848372,
			"0.005": 4.23811831296,
			"0.006": 4.11374542997,
			"0.007": 3.83760625427,
			"0.008": 1.4292100531,
			"0.009": 1.80147608408,
			"0.01": 1.50375463016,
			"0.011": 0.881824004857,
			"0.012": 1.20397723398,
			"0.013": 1.68662067454,
			"0.014": 0.99711403273,
			"0.015": 0.397334596888,
			"0.016": 0.0,
			"0.017": 0.0,
			"0.018": 0.0,
			"0.019": 0.0,
			"0.02": 0.0,
			"0.021": 0.0,
			"0.022": 0.0,
			"0.023": 0.0,
			"0.024": 0.0,
			"0.025": 0.0
		}
	}
}
