{
	 "smiles": "FC(F)(F)COC(=O)NC1=C(N2CCOCC2)C(Cl)=CC=C1", 
	 "Tm": 348.15, 
	 "num_atms": 36, 
	 "gaussian": { 
		 "optdone": 1, 
		 "sigma_profile": "yes", 
		 "theory": "DFT", 
		 "functional": "B3LYP", 
		 "basiset": "6-31G**", 
		 "properties": { 
			 "R2extent": 9286.8719, 
			 "electric_dipole_moment_norm": 1.48728642837, 
			 "electric_quadrupole_moment_norm": 9.92935165054, 
			 "total_energy": -1598.71579116, 
			 "HOMO_LUMO_gap": 0.20965, 
			 "cosmo_polarized_energy": -11.3, 
			 "cosmo_cavitation_energy": 42.1, 
			 "cosmo_dispersion_energy": -28.75, 
			 "cosmo_repulsion_energy": 2.15, 
			 "cosmo_total_nonelectrostatic_energy": 15.51, 
			 "SMD_solvation_energy": 8.9 
		},
		"coords": [
			{
				"x": -2.058033127,
				"y": -1.8671948678,
				"z": -2.6086738383,
				"element": "F" 
			},
			{
				"x": -0.9852815634,
				"y": -2.0250517783,
				"z": -3.4056867754,
				"element": "C" 
			},
			{
				"x": -0.3249069753,
				"y": -3.1232453811,
				"z": -2.9907476635,
				"element": "F" 
			},
			{
				"x": -1.420084765,
				"y": -2.2523302119,
				"z": -4.6630531011,
				"element": "F" 
			},
			{
				"x": -0.0963660467,
				"y": -0.7926987007,
				"z": -3.3935967511,
				"element": "C" 
			},
			{
				"x": 0.3481872366,
				"y": -0.5378796228,
				"z": -2.0685589909,
				"element": "O" 
			},
			{
				"x": -0.277627718,
				"y": 0.5001297698,
				"z": -1.4143208025,
				"element": "C" 
			},
			{
				"x": -1.0761984451,
				"y": 1.2522410677,
				"z": -1.9364909279,
				"element": "O" 
			},
			{
				"x": 0.1771086132,
				"y": 0.5219426132,
				"z": -0.131386514,
				"element": "N" 
			},
			{
				"x": -0.1554195386,
				"y": 1.4156833647,
				"z": 0.8939693379,
				"element": "C" 
			},
			{
				"x": 0.4846439755,
				"y": 1.1749469891,
				"z": 2.140326347,
				"element": "C" 
			},
			{
				"x": 1.3814150824,
				"y": 0.0587474089,
				"z": 2.1967610879,
				"element": "N" 
			},
			{
				"x": 0.9606868618,
				"y": -1.0879263751,
				"z": 3.0227641333,
				"element": "C" 
			},
			{
				"x": 1.8489567264,
				"y": -2.2857374771,
				"z": 2.6893149432,
				"element": "C" 
			},
			{
				"x": 3.2231489421,
				"y": -1.978624215,
				"z": 2.8797385043,
				"element": "O" 
			},
			{
				"x": 3.6241471655,
				"y": -0.8931312073,
				"z": 2.0560309874,
				"element": "C" 
			},
			{
				"x": 2.8137401345,
				"y": 0.3656753779,
				"z": 2.3623279681,
				"element": "C" 
			},
			{
				"x": 0.181221079,
				"y": 2.0466454666,
				"z": 3.1971360151,
				"element": "C" 
			},
			{
				"x": 0.9236437371,
				"y": 1.8290749517,
				"z": 4.780453197,
				"element": "Cl" 
			},
			{
				"x": -0.7086392866,
				"y": 3.110724996,
				"z": 3.0500973414,
				"element": "C" 
			},
			{
				"x": -1.3170424168,
				"y": 3.314756559,
				"z": 1.814203925,
				"element": "C" 
			},
			{
				"x": -1.0513711291,
				"y": 2.4793114795,
				"z": 0.7327820847,
				"element": "C" 
			},
			{
				"x": 0.7815962941,
				"y": -0.986438588,
				"z": -4.0133281616,
				"element": "H" 
			},
			{
				"x": -0.6603368477,
				"y": 0.0573239302,
				"z": -3.7817374166,
				"element": "H" 
			},
			{
				"x": 0.8416864337,
				"y": -0.1883198845,
				"z": 0.1647996494,
				"element": "H" 
			},
			{
				"x": -0.084316243,
				"y": -1.3212686769,
				"z": 2.7936502874,
				"element": "H" 
			},
			{
				"x": 1.0358084117,
				"y": -0.8695057411,
				"z": 4.0974437063,
				"element": "H" 
			},
			{
				"x": 1.6718679225,
				"y": -2.6020024382,
				"z": 1.6472994637,
				"element": "H" 
			},
			{
				"x": 1.6213665786,
				"y": -3.1261290133,
				"z": 3.3514820866,
				"element": "H" 
			},
			{
				"x": 3.5074035969,
				"y": -1.1609777798,
				"z": 0.9920080719,
				"element": "H" 
			},
			{
				"x": 4.685708212,
				"y": -0.7224396323,
				"z": 2.2576518949,
				"element": "H" 
			},
			{
				"x": 3.0463113567,
				"y": 0.7063614779,
				"z": 3.3811797971,
				"element": "H" 
			},
			{
				"x": 3.0848237419,
				"y": 1.1650609887,
				"z": 1.6647161108,
				"element": "H" 
			},
			{
				"x": -0.9139117585,
				"y": 3.7593235371,
				"z": 3.8937371364,
				"element": "H" 
			},
			{
				"x": -2.0118637846,
				"y": 4.1399661764,
				"z": 1.691081149,
				"element": "H" 
			},
			{
				"x": -1.5230724568,
				"y": 2.6330854365,
				"z": -0.227674283,
				"element": "H" 
			}
		],
		 "valence_orbital": [ 
			{
				"type": "occ",
				"energy": -0.29541,
				"method": "rhf"
			},
			{
				"type": "occ",
				"energy": -0.26811,
				"method": "rhf"
			},
			{
				"type": "occ",
				"energy": -0.2551,
				"method": "rhf"
			},
			{
				"type": "occ",
				"energy": -0.23846,
				"method": "rhf"
			},
			{
				"type": "occ",
				"energy": -0.23184,
				"method": "rhf"
			},
			{
				"type": "unocc",
				"energy": -0.02219,
				"method": "rhf"
			},
			{
				"type": "unocc",
				"energy": -0.02053,
				"method": "rhf"
			},
			{
				"type": "unocc",
				"energy": 0.02059,
				"method": "rhf"
			},
			{
				"type": "unocc",
				"energy": 0.04878,
				"method": "rhf"
			},
			{
				"type": "unocc",
				"energy": 0.07034,
				"method": "rhf"
			}
		],
		"cosmo_sigma_profile": { 
			"-0.025": 0.0,
			"-0.024": 0.0,
			"-0.023": 0.0,
			"-0.022": 0.0,
			"-0.021": 0.0,
			"-0.02": 0.0,
			"-0.019": 0.0,
			"-0.018": 0.0,
			"-0.017": 0.0,
			"-0.016": 0.0,
			"-0.015": 0.0,
			"-0.014": 0.0,
			"-0.013": 0.0,
			"-0.012": 0.0,
			"-0.011": 0.0,
			"-0.01": 0.371296113078,
			"-0.009": 2.64472042703,
			"-0.008": 2.90781046238,
			"-0.007": 7.54349917633,
			"-0.006": 10.7395115584,
			"-0.005": 22.7789006823,
			"-0.004": 32.2675215987,
			"-0.003": 26.30271808,
			"-0.002": 25.1520788484,
			"-0.001": 23.6287388885,
			"0.0": 24.8427714994,
			"0.001": 26.5554995467,
			"0.002": 39.9503381472,
			"0.003": 41.2427967524,
			"0.004": 19.0332632829,
			"0.005": 6.28486582953,
			"0.006": 3.92576393156,
			"0.007": 3.3742375165,
			"0.008": 2.80652371759,
			"0.009": 2.54358431026,
			"0.01": 2.919955268,
			"0.011": 4.30975359572,
			"0.012": 2.23456455128,
			"0.013": 1.56672155645,
			"0.014": 0.378550570285,
			"0.015": 0.0,
			"0.016": 0.0,
			"0.017": 0.0,
			"0.018": 0.0,
			"0.019": 0.0,
			"0.02": 0.0,
			"0.021": 0.0,
			"0.022": 0.0,
			"0.023": 0.0,
			"0.024": 0.0,
			"0.025": 0.0
		}
	}
}
