{
	 "smiles": "CC(=O)C1=CC(=CC=C1)N1C(=O)C=CC1=O", 
	 "Tm": 378.15, 
	 "num_atms": 25, 
	 "gaussian": { 
		 "optdone": 1, 
		 "sigma_profile": "yes", 
		 "theory": "DFT", 
		 "functional": "B3LYP", 
		 "basiset": "6-31G**", 
		 "properties": { 
			 "R2extent": 4704.2411, 
			 "electric_dipole_moment_norm": 4.46350250476, 
			 "electric_quadrupole_moment_norm": 11.1430565587, 
			 "total_energy": -743.125084147, 
			 "HOMO_LUMO_gap": 0.13729, 
			 "cosmo_polarized_energy": -14.21, 
			 "cosmo_cavitation_energy": 30.49, 
			 "cosmo_dispersion_energy": -21.63, 
			 "cosmo_repulsion_energy": 1.66, 
			 "cosmo_total_nonelectrostatic_energy": 10.51, 
			 "SMD_solvation_energy": 7.51 
		},
		"coords": [
			{
				"x": -1.9117516402,
				"y": 2.5202242619,
				"z": 1.732473142,
				"element": "C" 
			},
			{
				"x": -0.676175785,
				"y": 2.4485903884,
				"z": 2.6126477789,
				"element": "C" 
			},
			{
				"x": -0.6765464713,
				"y": 2.9416230036,
				"z": 3.7301364569,
				"element": "O" 
			},
			{
				"x": 0.5519029467,
				"y": 1.7624825019,
				"z": 2.0858047018,
				"element": "C" 
			},
			{
				"x": 0.5860793626,
				"y": 1.1665887948,
				"z": 0.8192904088,
				"element": "C" 
			},
			{
				"x": 1.7594845987,
				"y": 0.5557595947,
				"z": 0.3650459212,
				"element": "C" 
			},
			{
				"x": 2.8982703999,
				"y": 0.5276536229,
				"z": 1.1786101481,
				"element": "C" 
			},
			{
				"x": 2.8514277001,
				"y": 1.1050435281,
				"z": 2.4487430678,
				"element": "C" 
			},
			{
				"x": 1.6915203136,
				"y": 1.7234686877,
				"z": 2.9023247568,
				"element": "C" 
			},
			{
				"x": 1.7941987568,
				"y": -0.0369064101,
				"z": -0.9326508834,
				"element": "N" 
			},
			{
				"x": 1.1452687328,
				"y": 0.4728751343,
				"z": -2.0789170929,
				"element": "C" 
			},
			{
				"x": 0.4615199194,
				"y": 1.4726503428,
				"z": -2.1350143011,
				"element": "O" 
			},
			{
				"x": 1.4661896882,
				"y": -0.4708596307,
				"z": -3.1983871017,
				"element": "C" 
			},
			{
				"x": 2.2367975505,
				"y": -1.4544165038,
				"z": -2.7288592467,
				"element": "C" 
			},
			{
				"x": 2.483566975,
				"y": -1.2244397316,
				"z": -1.2682980152,
				"element": "C" 
			},
			{
				"x": 3.1419206602,
				"y": -1.9108960636,
				"z": -0.5174144951,
				"element": "O" 
			},
			{
				"x": -2.2764770366,
				"y": 1.5168003334,
				"z": 1.4858094465,
				"element": "H" 
			},
			{
				"x": -2.6897165467,
				"y": 3.0645526375,
				"z": 2.2682598615,
				"element": "H" 
			},
			{
				"x": -1.6934083028,
				"y": 3.0285662042,
				"z": 0.7869711606,
				"element": "H" 
			},
			{
				"x": -0.2819623045,
				"y": 1.1880095168,
				"z": 0.1750759215,
				"element": "H" 
			},
			{
				"x": 3.8021535509,
				"y": 0.0471150231,
				"z": 0.8270823297,
				"element": "H" 
			},
			{
				"x": 3.7350641785,
				"y": 1.0740149468,
				"z": 3.0789252614,
				"element": "H" 
			},
			{
				"x": 1.6383681113,
				"y": 2.1863486766,
				"z": 3.88158431,
				"element": "H" 
			},
			{
				"x": 1.0900121716,
				"y": -0.3063250538,
				"z": -4.1993674956,
				"element": "H" 
			},
			{
				"x": 2.6554924703,
				"y": -2.3091238059,
				"z": -3.243376042,
				"element": "H" 
			}
		],
		 "valence_orbital": [ 
			{
				"type": "occ",
				"energy": -0.3087,
				"method": "rhf"
			},
			{
				"type": "occ",
				"energy": -0.28309,
				"method": "rhf"
			},
			{
				"type": "occ",
				"energy": -0.26479,
				"method": "rhf"
			},
			{
				"type": "occ",
				"energy": -0.24937,
				"method": "rhf"
			},
			{
				"type": "occ",
				"energy": -0.24599,
				"method": "rhf"
			},
			{
				"type": "unocc",
				"energy": -0.1087,
				"method": "rhf"
			},
			{
				"type": "unocc",
				"energy": -0.05715,
				"method": "rhf"
			},
			{
				"type": "unocc",
				"energy": -0.02086,
				"method": "rhf"
			},
			{
				"type": "unocc",
				"energy": 0.02958,
				"method": "rhf"
			},
			{
				"type": "unocc",
				"energy": 0.05378,
				"method": "rhf"
			}
		],
		"cosmo_sigma_profile": { 
			"-0.025": 0.0,
			"-0.024": 0.0,
			"-0.023": 0.0,
			"-0.022": 0.0,
			"-0.021": 0.0,
			"-0.02": 0.0,
			"-0.019": 0.0,
			"-0.018": 0.0,
			"-0.017": 0.0,
			"-0.016": 0.0,
			"-0.015": 0.0,
			"-0.014": 0.0,
			"-0.013": 0.0,
			"-0.012": 0.0,
			"-0.011": 0.04828029907,
			"-0.01": 3.01800837546,
			"-0.009": 3.58569735913,
			"-0.008": 3.42656261545,
			"-0.007": 6.27696712738,
			"-0.006": 18.430090889,
			"-0.005": 23.036860033,
			"-0.004": 21.2769380911,
			"-0.003": 18.403824995,
			"-0.002": 18.0601670812,
			"-0.001": 17.01636181,
			"0.0": 14.6743771446,
			"0.001": 11.6412262508,
			"0.002": 14.5174119234,
			"0.003": 16.1366491095,
			"0.004": 5.93270364706,
			"0.005": 5.45460526513,
			"0.006": 5.37500224239,
			"0.007": 5.65717138627,
			"0.008": 3.87875966817,
			"0.009": 6.72660839435,
			"0.01": 10.0147356243,
			"0.011": 7.55915224042,
			"0.012": 3.95361407614,
			"0.013": 1.37261728316,
			"0.014": 0.049427984394,
			"0.015": 0.0,
			"0.016": 0.0,
			"0.017": 0.0,
			"0.018": 0.0,
			"0.019": 0.0,
			"0.02": 0.0,
			"0.021": 0.0,
			"0.022": 0.0,
			"0.023": 0.0,
			"0.024": 0.0,
			"0.025": 0.0
		}
	}
}
