{
	 "smiles": "FC(F)(Br)C(F)(Cl)Br", 
	 "Tm": 323.15, 
	 "num_atms": 8, 
	 "gaussian": { 
		 "optdone": 1, 
		 "sigma_profile": "yes", 
		 "theory": "DFT", 
		 "functional": "B3LYP", 
		 "basiset": "6-31G**", 
		 "properties": { 
			 "R2extent": 2841.6994, 
			 "electric_dipole_moment_norm": 0.165770292875, 
			 "electric_quadrupole_moment_norm": 2.7532704789, 
			 "total_energy": -5978.6962955, 
			 "HOMO_LUMO_gap": 0.23373, 
			 "cosmo_polarized_energy": -1.4, 
			 "cosmo_cavitation_energy": 19.83, 
			 "cosmo_dispersion_energy": -15.05, 
			 "cosmo_repulsion_energy": 1.19, 
			 "cosmo_total_nonelectrostatic_energy": 5.97, 
			 "SMD_solvation_energy": 2.0 
		},
		"coords": [
			{
				"x": -1.7491501484,
				"y": 1.1508020248,
				"z": 0.6132571753,
				"element": "F" 
			},
			{
				"x": -1.3248542001,
				"y": 0.5934296516,
				"z": -0.5283291928,
				"element": "C" 
			},
			{
				"x": -2.2816895736,
				"y": 0.7110960853,
				"z": -1.4533773396,
				"element": "F" 
			},
			{
				"x": 0.2790906089,
				"y": 1.5590141057,
				"z": -1.1205567787,
				"element": "Br" 
			},
			{
				"x": -1.0152826132,
				"y": -0.9123850282,
				"z": -0.2657429416,
				"element": "C" 
			},
			{
				"x": -0.0279740449,
				"y": -0.9869962186,
				"z": 0.6410383925,
				"element": "F" 
			},
			{
				"x": -0.5267673215,
				"y": -1.7471121927,
				"z": -1.7562167259,
				"element": "Cl" 
			},
			{
				"x": -2.6207727073,
				"y": -1.7593484279,
				"z": 0.4995274108,
				"element": "Br" 
			}
		],
		 "valence_orbital": [ 
			{
				"type": "occ",
				"energy": -0.34612,
				"method": "rhf"
			},
			{
				"type": "occ",
				"energy": -0.32472,
				"method": "rhf"
			},
			{
				"type": "occ",
				"energy": -0.31655,
				"method": "rhf"
			},
			{
				"type": "occ",
				"energy": -0.31256,
				"method": "rhf"
			},
			{
				"type": "occ",
				"energy": -0.30423,
				"method": "rhf"
			},
			{
				"type": "unocc",
				"energy": -0.0705,
				"method": "rhf"
			},
			{
				"type": "unocc",
				"energy": -0.0344,
				"method": "rhf"
			},
			{
				"type": "unocc",
				"energy": 0.00013,
				"method": "rhf"
			},
			{
				"type": "unocc",
				"energy": 0.06447,
				"method": "rhf"
			},
			{
				"type": "unocc",
				"energy": 0.13376,
				"method": "rhf"
			}
		],
		"cosmo_sigma_profile": { 
			"-0.025": 0.0,
			"-0.024": 0.0,
			"-0.023": 0.0,
			"-0.022": 0.0,
			"-0.021": 0.0,
			"-0.02": 0.0,
			"-0.019": 0.0,
			"-0.018": 0.0,
			"-0.017": 0.0,
			"-0.016": 0.0,
			"-0.015": 0.0,
			"-0.014": 0.0,
			"-0.013": 0.0,
			"-0.012": 0.0,
			"-0.011": 0.0,
			"-0.01": 0.0,
			"-0.009": 0.0,
			"-0.008": 0.117512559168,
			"-0.007": 1.8802099831,
			"-0.006": 2.92304001954,
			"-0.005": 3.88676054765,
			"-0.004": 5.84525621948,
			"-0.003": 6.94775952699,
			"-0.002": 10.6276129123,
			"-0.001": 17.2927157949,
			"0.0": 25.458286505,
			"0.001": 55.9030801435,
			"0.002": 33.2915950152,
			"0.003": 3.84110999007,
			"0.004": 0.0,
			"0.005": 0.0,
			"0.006": 0.0,
			"0.007": 0.0,
			"0.008": 0.0,
			"0.009": 0.0,
			"0.01": 0.0,
			"0.011": 0.0,
			"0.012": 0.0,
			"0.013": 0.0,
			"0.014": 0.0,
			"0.015": 0.0,
			"0.016": 0.0,
			"0.017": 0.0,
			"0.018": 0.0,
			"0.019": 0.0,
			"0.02": 0.0,
			"0.021": 0.0,
			"0.022": 0.0,
			"0.023": 0.0,
			"0.024": 0.0,
			"0.025": 0.0
		}
	}
}
