{
	 "smiles": "ClC1=CC=C(NC(=S)NN=CC2=C(NC3=C2C=CC=C3)C2=CC=C(Cl)C=C2)C=C1", 
	 "Tm": 489.15, 
	 "num_atms": 45, 
	 "gaussian": { 
		 "optdone": 1, 
		 "sigma_profile": "yes", 
		 "theory": "DFT", 
		 "functional": "B3LYP", 
		 "basiset": "6-31G**", 
		 "properties": { 
			 "R2extent": 24029.2839, 
			 "electric_dipole_moment_norm": 9.13468299231, 
			 "electric_quadrupole_moment_norm": 15.3686429573, 
			 "total_energy": -2385.56893364, 
			 "HOMO_LUMO_gap": 0.13235, 
			 "cosmo_polarized_energy": -24.07, 
			 "cosmo_cavitation_energy": 56.21, 
			 "cosmo_dispersion_energy": -39.94, 
			 "cosmo_repulsion_energy": 2.94, 
			 "cosmo_total_nonelectrostatic_energy": 19.21, 
			 "SMD_solvation_energy": 6.97 
		},
		"coords": [
			{
				"x": -8.8020237189,
				"y": -2.9007246467,
				"z": 1.3823297984,
				"element": "Cl" 
			},
			{
				"x": -7.2541135781,
				"y": -2.4587930036,
				"z": 0.6735823753,
				"element": "C" 
			},
			{
				"x": -6.1974449733,
				"y": -2.0863791186,
				"z": 1.5040390017,
				"element": "C" 
			},
			{
				"x": -4.9774711999,
				"y": -1.7397665819,
				"z": 0.9353461007,
				"element": "C" 
			},
			{
				"x": -4.7950752112,
				"y": -1.7587416355,
				"z": -0.4588791454,
				"element": "C" 
			},
			{
				"x": -3.5206017794,
				"y": -1.3780906818,
				"z": -0.918542941,
				"element": "N" 
			},
			{
				"x": -2.9540915009,
				"y": -1.3470049821,
				"z": -2.1530339122,
				"element": "C" 
			},
			{
				"x": -3.5949662504,
				"y": -1.7976396199,
				"z": -3.6387475838,
				"element": "S" 
			},
			{
				"x": -1.6571830523,
				"y": -0.8792901633,
				"z": -2.1253302532,
				"element": "N" 
			},
			{
				"x": -1.0519255482,
				"y": -0.4679240613,
				"z": -0.9787117582,
				"element": "N" 
			},
			{
				"x": 0.1929730024,
				"y": -0.1265697203,
				"z": -1.0602287623,
				"element": "C" 
			},
			{
				"x": 0.9383597926,
				"y": 0.3769245354,
				"z": 0.0663712489,
				"element": "C" 
			},
			{
				"x": 2.3222339359,
				"y": 0.56987139,
				"z": 0.0821053376,
				"element": "C" 
			},
			{
				"x": 2.66769344,
				"y": 1.1792310021,
				"z": 1.2720734371,
				"element": "N" 
			},
			{
				"x": 1.5449801879,
				"y": 1.3562253341,
				"z": 2.0612289299,
				"element": "C" 
			},
			{
				"x": 0.4303245639,
				"y": 0.875409628,
				"z": 1.3282911881,
				"element": "C" 
			},
			{
				"x": -0.8505136269,
				"y": 0.9894289897,
				"z": 1.8942377556,
				"element": "C" 
			},
			{
				"x": -0.977216144,
				"y": 1.5414983469,
				"z": 3.1634610509,
				"element": "C" 
			},
			{
				"x": 0.1490150204,
				"y": 1.9882627438,
				"z": 3.8827460981,
				"element": "C" 
			},
			{
				"x": 1.4265673281,
				"y": 1.9066627391,
				"z": 3.3400314569,
				"element": "C" 
			},
			{
				"x": 3.3518693826,
				"y": 0.2566537694,
				"z": -0.9138705523,
				"element": "C" 
			},
			{
				"x": 4.4105137023,
				"y": 1.1540914321,
				"z": -1.1499779519,
				"element": "C" 
			},
			{
				"x": 5.405892227,
				"y": 0.8661312149,
				"z": -2.0793421701,
				"element": "C" 
			},
			{
				"x": 5.3482546677,
				"y": -0.3327048604,
				"z": -2.7915127008,
				"element": "C" 
			},
			{
				"x": 6.5966205578,
				"y": -0.7008915635,
				"z": -3.9663222832,
				"element": "Cl" 
			},
			{
				"x": 4.3134058842,
				"y": -1.2433625261,
				"z": -2.5773646573,
				"element": "C" 
			},
			{
				"x": 3.3276891115,
				"y": -0.9491048715,
				"z": -1.6383254194,
				"element": "C" 
			},
			{
				"x": -5.8678906198,
				"y": -2.1340787956,
				"z": -1.280473507,
				"element": "C" 
			},
			{
				"x": -7.0914371485,
				"y": -2.4828324112,
				"z": -0.7091691648,
				"element": "C" 
			},
			{
				"x": -6.3263474308,
				"y": -2.0691662583,
				"z": 2.5804170155,
				"element": "H" 
			},
			{
				"x": -4.1523661773,
				"y": -1.4530311333,
				"z": 1.5830684214,
				"element": "H" 
			},
			{
				"x": -2.8744664608,
				"y": -1.0770585502,
				"z": -0.1938388151,
				"element": "H" 
			},
			{
				"x": -1.1787549355,
				"y": -0.859968258,
				"z": -3.0222239169,
				"element": "H" 
			},
			{
				"x": 0.7233220776,
				"y": -0.201971763,
				"z": -2.0163870154,
				"element": "H" 
			},
			{
				"x": 3.6194339189,
				"y": 1.2889840586,
				"z": 1.5862035224,
				"element": "H" 
			},
			{
				"x": -1.7208090324,
				"y": 0.6586207746,
				"z": 1.3404504425,
				"element": "H" 
			},
			{
				"x": -1.9620673023,
				"y": 1.6329681722,
				"z": 3.6116038853,
				"element": "H" 
			},
			{
				"x": 0.0170180457,
				"y": 2.4103419868,
				"z": 4.8743846495,
				"element": "H" 
			},
			{
				"x": 2.2954680573,
				"y": 2.2631707621,
				"z": 3.8854928187,
				"element": "H" 
			},
			{
				"x": 4.4378323434,
				"y": 2.1034791906,
				"z": -0.6230388279,
				"element": "H" 
			},
			{
				"x": 6.2122561523,
				"y": 1.5678735563,
				"z": -2.2612449249,
				"element": "H" 
			},
			{
				"x": 4.2899940415,
				"y": -2.1780033986,
				"z": -3.1265631273,
				"element": "H" 
			},
			{
				"x": 2.5490669548,
				"y": -1.6780686751,
				"z": -1.44058515,
				"element": "H" 
			},
			{
				"x": -5.7402879073,
				"y": -2.1543336744,
				"z": -2.3537528159,
				"element": "H" 
			},
			{
				"x": -7.9189307977,
				"y": -2.7728286727,
				"z": -1.3472971779,
				"element": "H" 
			}
		],
		 "valence_orbital": [ 
			{
				"type": "occ",
				"energy": -0.24257,
				"method": "rhf"
			},
			{
				"type": "occ",
				"energy": -0.2351,
				"method": "rhf"
			},
			{
				"type": "occ",
				"energy": -0.21319,
				"method": "rhf"
			},
			{
				"type": "occ",
				"energy": -0.21218,
				"method": "rhf"
			},
			{
				"type": "occ",
				"energy": -0.20283,
				"method": "rhf"
			},
			{
				"type": "unocc",
				"energy": -0.07048,
				"method": "rhf"
			},
			{
				"type": "unocc",
				"energy": -0.03977,
				"method": "rhf"
			},
			{
				"type": "unocc",
				"energy": -0.03698,
				"method": "rhf"
			},
			{
				"type": "unocc",
				"energy": -0.01278,
				"method": "rhf"
			},
			{
				"type": "unocc",
				"energy": -0.01138,
				"method": "rhf"
			}
		],
		"cosmo_sigma_profile": { 
			"-0.025": 0.0,
			"-0.024": 0.0,
			"-0.023": 0.0,
			"-0.022": 0.0,
			"-0.021": 0.0,
			"-0.02": 0.0,
			"-0.019": 0.0,
			"-0.018": 0.0,
			"-0.017": 0.0342696839844,
			"-0.016": 0.74580611497,
			"-0.015": 2.28556490169,
			"-0.014": 2.50125225848,
			"-0.013": 2.46395385959,
			"-0.012": 2.68112033094,
			"-0.011": 3.3979899662,
			"-0.01": 3.34298340077,
			"-0.009": 4.5894910144,
			"-0.008": 7.10186407934,
			"-0.007": 18.9238756703,
			"-0.006": 20.7210960864,
			"-0.005": 22.7348037177,
			"-0.004": 19.8468619628,
			"-0.003": 22.8676841913,
			"-0.002": 22.7040143915,
			"-0.001": 25.4035665703,
			"0.0": 31.4908469919,
			"0.001": 40.1956233687,
			"0.002": 48.7770561853,
			"0.003": 50.7965671012,
			"0.004": 40.5563160423,
			"0.005": 28.7099296552,
			"0.006": 13.4894900241,
			"0.007": 4.19484447032,
			"0.008": 3.79657718066,
			"0.009": 5.43158403749,
			"0.01": 6.0827098128,
			"0.011": 4.01819213412,
			"0.012": 0.15775458632,
			"0.013": 0.0,
			"0.014": 0.0,
			"0.015": 0.0,
			"0.016": 0.0,
			"0.017": 0.0,
			"0.018": 0.0,
			"0.019": 0.0,
			"0.02": 0.0,
			"0.021": 0.0,
			"0.022": 0.0,
			"0.023": 0.0,
			"0.024": 0.0,
			"0.025": 0.0
		}
	}
}
