{
	 "smiles": "CN1C(=O)C2=C(C=C(C=C2)C(O)=O)C1=O", 
	 "Tm": 447.15, 
	 "num_atms": 22, 
	 "gaussian": { 
		 "optdone": 1, 
		 "sigma_profile": "yes", 
		 "theory": "DFT", 
		 "functional": "B3LYP", 
		 "basiset": "6-31G**", 
		 "properties": { 
			 "R2extent": 4224.1902, 
			 "electric_dipole_moment_norm": 2.69691587003, 
			 "electric_quadrupole_moment_norm": 14.0234522458, 
			 "total_energy": -740.967613749, 
			 "HOMO_LUMO_gap": 0.17646, 
			 "cosmo_polarized_energy": -18.76, 
			 "cosmo_cavitation_energy": 27.89, 
			 "cosmo_dispersion_energy": -20.25, 
			 "cosmo_repulsion_energy": 1.55, 
			 "cosmo_total_nonelectrostatic_energy": 9.2, 
			 "SMD_solvation_energy": 7.4 
		},
		"coords": [
			{
				"x": -1.8531038574,
				"y": 0.778419259,
				"z": 2.5499166855,
				"element": "C" 
			},
			{
				"x": -1.2060163114,
				"y": 0.1356069731,
				"z": 1.4192840276,
				"element": "N" 
			},
			{
				"x": -1.2868314291,
				"y": 0.6155543737,
				"z": 0.1035370251,
				"element": "C" 
			},
			{
				"x": -1.8944861618,
				"y": 1.6064267025,
				"z": -0.2458955503,
				"element": "O" 
			},
			{
				"x": -0.4837721182,
				"y": -0.3398031295,
				"z": -0.7228513197,
				"element": "C" 
			},
			{
				"x": 0.0232111939,
				"y": -1.3248308051,
				"z": 0.1246176926,
				"element": "C" 
			},
			{
				"x": 0.8133830498,
				"y": -2.3576166289,
				"z": -0.3525621274,
				"element": "C" 
			},
			{
				"x": 1.09105393,
				"y": -2.3849015188,
				"z": -1.7309688134,
				"element": "C" 
			},
			{
				"x": 0.5934479362,
				"y": -1.3768638022,
				"z": -2.5760230822,
				"element": "C" 
			},
			{
				"x": -0.2088869929,
				"y": -0.3438006558,
				"z": -2.0836326475,
				"element": "C" 
			},
			{
				"x": 1.9515386358,
				"y": -3.4433795896,
				"z": -2.365480517,
				"element": "C" 
			},
			{
				"x": 2.104969991,
				"y": -4.6035667818,
				"z": -1.679231343,
				"element": "O" 
			},
			{
				"x": 2.4936915058,
				"y": -3.2921960417,
				"z": -3.4339713946,
				"element": "O" 
			},
			{
				"x": -0.4326648202,
				"y": -1.0313222988,
				"z": 1.5172925857,
				"element": "C" 
			},
			{
				"x": -0.2046761613,
				"y": -1.6499683506,
				"z": 2.5372936503,
				"element": "O" 
			},
			{
				"x": -2.9357554304,
				"y": 0.8103430876,
				"z": 2.4020630643,
				"element": "H" 
			},
			{
				"x": -1.4852817573,
				"y": 1.8009920768,
				"z": 2.6679777972,
				"element": "H" 
			},
			{
				"x": -1.6167532947,
				"y": 0.1935607571,
				"z": 3.4392931401,
				"element": "H" 
			},
			{
				"x": 1.2205562034,
				"y": -3.0860634463,
				"z": 0.343572156,
				"element": "H" 
			},
			{
				"x": 0.8559892455,
				"y": -1.4265476882,
				"z": -3.6271749485,
				"element": "H" 
			},
			{
				"x": -0.6001841481,
				"y": 0.4304885054,
				"z": -2.7352157195,
				"element": "H" 
			},
			{
				"x": 1.4959707914,
				"y": -4.644130998,
				"z": -0.9290403611,
				"element": "H" 
			}
		],
		 "valence_orbital": [ 
			{
				"type": "occ",
				"energy": -0.30104,
				"method": "rhf"
			},
			{
				"type": "occ",
				"energy": -0.29807,
				"method": "rhf"
			},
			{
				"type": "occ",
				"energy": -0.2904,
				"method": "rhf"
			},
			{
				"type": "occ",
				"energy": -0.28196,
				"method": "rhf"
			},
			{
				"type": "occ",
				"energy": -0.27959,
				"method": "rhf"
			},
			{
				"type": "unocc",
				"energy": -0.10313,
				"method": "rhf"
			},
			{
				"type": "unocc",
				"energy": -0.06821,
				"method": "rhf"
			},
			{
				"type": "unocc",
				"energy": -0.01961,
				"method": "rhf"
			},
			{
				"type": "unocc",
				"energy": 0.04431,
				"method": "rhf"
			},
			{
				"type": "unocc",
				"energy": 0.05837,
				"method": "rhf"
			}
		],
		"cosmo_sigma_profile": { 
			"-0.025": 0.0,
			"-0.024": 0.0,
			"-0.023": 0.0,
			"-0.022": 0.0,
			"-0.021": 0.0,
			"-0.02": 0.268371113249,
			"-0.019": 1.145013638,
			"-0.018": 0.941976810093,
			"-0.017": 1.12606629249,
			"-0.016": 0.583469084351,
			"-0.015": 0.721307462455,
			"-0.014": 1.33413583192,
			"-0.013": 1.36858398952,
			"-0.012": 1.09502593637,
			"-0.011": 1.76154416663,
			"-0.01": 1.16491549044,
			"-0.009": 1.45136437491,
			"-0.008": 4.15512667009,
			"-0.007": 6.47844081724,
			"-0.006": 13.3609494687,
			"-0.005": 14.6836870515,
			"-0.004": 18.3038502961,
			"-0.003": 20.5753804806,
			"-0.002": 19.0290938054,
			"-0.001": 16.5966367438,
			"0.0": 15.1269779915,
			"0.001": 7.60932660792,
			"0.002": 5.04676108216,
			"0.003": 4.74751333399,
			"0.004": 6.09696564083,
			"0.005": 4.73832483463,
			"0.006": 4.64361129686,
			"0.007": 5.23319604836,
			"0.008": 6.43700675128,
			"0.009": 8.2221971512,
			"0.01": 11.4770211635,
			"0.011": 14.5058647338,
			"0.012": 3.99575508314,
			"0.013": 0.415341320092,
			"0.014": 0.0,
			"0.015": 0.0,
			"0.016": 0.0,
			"0.017": 0.0,
			"0.018": 0.0,
			"0.019": 0.0,
			"0.02": 0.0,
			"0.021": 0.0,
			"0.022": 0.0,
			"0.023": 0.0,
			"0.024": 0.0,
			"0.025": 0.0
		}
	}
}
