{
	 "smiles": "CC(C)C1=NN(C)C(=C1)C(O)=O", 
	 "Tm": 432.15, 
	 "num_atms": 24, 
	 "gaussian": { 
		 "optdone": 1, 
		 "sigma_profile": "yes", 
		 "theory": "DFT", 
		 "functional": "B3LYP", 
		 "basiset": "6-31G**", 
		 "properties": { 
			 "R2extent": 2829.1203, 
			 "electric_dipole_moment_norm": 1.01011475586, 
			 "electric_quadrupole_moment_norm": 3.65249590691, 
			 "total_energy": -572.045610354, 
			 "HOMO_LUMO_gap": 0.20284, 
			 "cosmo_polarized_energy": -9.68, 
			 "cosmo_cavitation_energy": 27.79, 
			 "cosmo_dispersion_energy": -19.78, 
			 "cosmo_repulsion_energy": 1.61, 
			 "cosmo_total_nonelectrostatic_energy": 9.61, 
			 "SMD_solvation_energy": 5.15 
		},
		"coords": [
			{
				"x": 0.8724529231,
				"y": -2.2714332151,
				"z": 1.4448539963,
				"element": "C" 
			},
			{
				"x": 1.2714918981,
				"y": -0.8703979243,
				"z": 1.9442220891,
				"element": "C" 
			},
			{
				"x": 2.8019861379,
				"y": -0.7306417738,
				"z": 2.0419405013,
				"element": "C" 
			},
			{
				"x": 0.6716729565,
				"y": 0.214106692,
				"z": 1.0846394443,
				"element": "C" 
			},
			{
				"x": -0.195514704,
				"y": 1.0934403827,
				"z": 1.6129811032,
				"element": "N" 
			},
			{
				"x": -0.5472201375,
				"y": 1.9208145449,
				"z": 0.6174555908,
				"element": "N" 
			},
			{
				"x": -1.491255192,
				"y": 2.9978575843,
				"z": 0.8856006782,
				"element": "C" 
			},
			{
				"x": 0.0802827984,
				"y": 1.5917654807,
				"z": -0.5547688804,
				"element": "C" 
			},
			{
				"x": 0.8783702558,
				"y": 0.4868158357,
				"z": -0.2810295259,
				"element": "C" 
			},
			{
				"x": -0.1270671998,
				"y": 2.3353085519,
				"z": -1.7976387226,
				"element": "C" 
			},
			{
				"x": 0.6019239518,
				"y": 1.8225441456,
				"z": -2.8186455272,
				"element": "O" 
			},
			{
				"x": -0.8556497498,
				"y": 3.3023862029,
				"z": -1.9345092667,
				"element": "O" 
			},
			{
				"x": -0.2153260059,
				"y": -2.3844537094,
				"z": 1.4091884559,
				"element": "H" 
			},
			{
				"x": 1.2750472476,
				"y": -3.0466540193,
				"z": 2.1057355505,
				"element": "H" 
			},
			{
				"x": 1.262311301,
				"y": -2.4574943789,
				"z": 0.4375251418,
				"element": "H" 
			},
			{
				"x": 0.8483812029,
				"y": -0.7287621917,
				"z": 2.9457805525,
				"element": "H" 
			},
			{
				"x": 3.2184399965,
				"y": -1.4950889445,
				"z": 2.7067659643,
				"element": "H" 
			},
			{
				"x": 3.272979125,
				"y": -0.8514367058,
				"z": 1.0596489529,
				"element": "H" 
			},
			{
				"x": 3.0861279111,
				"y": 0.2517613279,
				"z": 2.4311149632,
				"element": "H" 
			},
			{
				"x": -1.0370083583,
				"y": 3.9683991821,
				"z": 0.6772660158,
				"element": "H" 
			},
			{
				"x": -1.7558665587,
				"y": 2.9194129771,
				"z": 1.9391772672,
				"element": "H" 
			},
			{
				"x": -2.3800133248,
				"y": 2.8952022442,
				"z": 0.2600763652,
				"element": "H" 
			},
			{
				"x": 1.5108994615,
				"y": -0.0298612924,
				"z": -0.9865633526,
				"element": "H" 
			},
			{
				"x": 0.4004540636,
				"y": 2.3769090035,
				"z": -3.590517357,
				"element": "H" 
			}
		],
		 "valence_orbital": [ 
			{
				"type": "occ",
				"energy": -0.32405,
				"method": "rhf"
			},
			{
				"type": "occ",
				"energy": -0.29109,
				"method": "rhf"
			},
			{
				"type": "occ",
				"energy": -0.28351,
				"method": "rhf"
			},
			{
				"type": "occ",
				"energy": -0.25521,
				"method": "rhf"
			},
			{
				"type": "occ",
				"energy": -0.2438,
				"method": "rhf"
			},
			{
				"type": "unocc",
				"energy": -0.04096,
				"method": "rhf"
			},
			{
				"type": "unocc",
				"energy": 0.04843,
				"method": "rhf"
			},
			{
				"type": "unocc",
				"energy": 0.0763,
				"method": "rhf"
			},
			{
				"type": "unocc",
				"energy": 0.09378,
				"method": "rhf"
			},
			{
				"type": "unocc",
				"energy": 0.10163,
				"method": "rhf"
			}
		],
		"cosmo_sigma_profile": { 
			"-0.025": 0.0,
			"-0.024": 0.0,
			"-0.023": 0.0,
			"-0.022": 0.0,
			"-0.021": 0.0,
			"-0.02": 0.0,
			"-0.019": 0.209411169745,
			"-0.018": 0.747886194397,
			"-0.017": 0.828804408395,
			"-0.016": 0.956110394966,
			"-0.015": 1.01875020301,
			"-0.014": 0.968047773645,
			"-0.013": 0.275964219705,
			"-0.012": 0.486970548683,
			"-0.011": 0.687957304917,
			"-0.01": 0.869549538733,
			"-0.009": 0.385199929595,
			"-0.008": 0.711772005251,
			"-0.007": 1.83155459398,
			"-0.006": 6.10196108561,
			"-0.005": 7.59908850095,
			"-0.004": 12.2700588658,
			"-0.003": 26.0625371114,
			"-0.002": 23.1894098964,
			"-0.001": 23.8878275753,
			"0.0": 20.6922792035,
			"0.001": 23.393379696,
			"0.002": 13.8836280122,
			"0.003": 11.1072271906,
			"0.004": 6.62947558848,
			"0.005": 5.17422966428,
			"0.006": 4.47680671213,
			"0.007": 4.74997040436,
			"0.008": 3.77189332804,
			"0.009": 2.98622822222,
			"0.01": 2.99504814651,
			"0.011": 4.21984658892,
			"0.012": 2.93608782115,
			"0.013": 1.10067544759,
			"0.014": 0.6557427829,
			"0.015": 0.435528546622,
			"0.016": 0.0,
			"0.017": 0.0,
			"0.018": 0.0,
			"0.019": 0.0,
			"0.02": 0.0,
			"0.021": 0.0,
			"0.022": 0.0,
			"0.023": 0.0,
			"0.024": 0.0,
			"0.025": 0.0
		}
	}
}
