{
	 "smiles": "COC1=CC=C2N=C(NN)N=NC2=C1", 
	 "Tm": 512.15, 
	 "num_atms": 23, 
	 "gaussian": { 
		 "optdone": 1, 
		 "sigma_profile": "yes", 
		 "theory": "DFT", 
		 "functional": "B3LYP", 
		 "basiset": "6-31G**", 
		 "properties": { 
			 "R2extent": 5137.9474, 
			 "electric_dipole_moment_norm": 2.26205917031, 
			 "electric_quadrupole_moment_norm": 13.8394401805, 
			 "total_energy": -659.182084568, 
			 "HOMO_LUMO_gap": 0.13057, 
			 "cosmo_polarized_energy": -12.95, 
			 "cosmo_cavitation_energy": 27.71, 
			 "cosmo_dispersion_energy": -20.95, 
			 "cosmo_repulsion_energy": 1.64, 
			 "cosmo_total_nonelectrostatic_energy": 8.4, 
			 "SMD_solvation_energy": 2.59 
		},
		"coords": [
			{
				"x": -1.351569122,
				"y": -6.1029823207,
				"z": 0.7596060287,
				"element": "C" 
			},
			{
				"x": -2.0558909475,
				"y": -5.229828409,
				"z": -0.1123191654,
				"element": "O" 
			},
			{
				"x": -1.9017417358,
				"y": -3.8906891983,
				"z": 0.073597995,
				"element": "C" 
			},
			{
				"x": -2.6434518776,
				"y": -3.0815405095,
				"z": -0.8444370964,
				"element": "C" 
			},
			{
				"x": -2.5976992575,
				"y": -1.7139392185,
				"z": -0.792177923,
				"element": "C" 
			},
			{
				"x": -1.7945597316,
				"y": -1.0685382208,
				"z": 0.1924532383,
				"element": "C" 
			},
			{
				"x": -1.7277254359,
				"y": 0.2746578486,
				"z": 0.2696084121,
				"element": "N" 
			},
			{
				"x": -0.9344960332,
				"y": 0.7409493257,
				"z": 1.231445877,
				"element": "C" 
			},
			{
				"x": -0.7958099754,
				"y": 2.0972351069,
				"z": 1.3358489349,
				"element": "N" 
			},
			{
				"x": -0.1763814175,
				"y": 2.7382333027,
				"z": 2.4214395783,
				"element": "N" 
			},
			{
				"x": -0.2224776268,
				"y": -0.003134605,
				"z": 2.1405204085,
				"element": "N" 
			},
			{
				"x": -0.2924206319,
				"y": -1.3040438145,
				"z": 2.0706001064,
				"element": "N" 
			},
			{
				"x": -1.0595665127,
				"y": -1.881245632,
				"z": 1.1064361813,
				"element": "C" 
			},
			{
				"x": -1.1183628537,
				"y": -3.3000820341,
				"z": 1.0405149624,
				"element": "C" 
			},
			{
				"x": -1.6076070791,
				"y": -7.1154358555,
				"z": 0.4451069503,
				"element": "H" 
			},
			{
				"x": -1.6560548214,
				"y": -5.9571559958,
				"z": 1.8036665717,
				"element": "H" 
			},
			{
				"x": -0.2667347102,
				"y": -5.9591268121,
				"z": 0.6792798541,
				"element": "H" 
			},
			{
				"x": -3.2459014246,
				"y": -3.5960467648,
				"z": -1.5865146497,
				"element": "H" 
			},
			{
				"x": -3.1582830493,
				"y": -1.0975035119,
				"z": -1.4869574973,
				"element": "H" 
			},
			{
				"x": -1.4424732182,
				"y": 2.6598216581,
				"z": 0.8028624108,
				"element": "H" 
			},
			{
				"x": -0.4664397861,
				"y": 2.2751001093,
				"z": 3.2828682074,
				"element": "H" 
			},
			{
				"x": 0.826727846,
				"y": 2.5762739433,
				"z": 2.349504584,
				"element": "H" 
			},
			{
				"x": -0.5378805981,
				"y": -3.860078392,
				"z": 1.7629460305,
				"element": "H" 
			}
		],
		 "valence_orbital": [ 
			{
				"type": "occ",
				"energy": -0.27828,
				"method": "rhf"
			},
			{
				"type": "occ",
				"energy": -0.27132,
				"method": "rhf"
			},
			{
				"type": "occ",
				"energy": -0.2624,
				"method": "rhf"
			},
			{
				"type": "occ",
				"energy": -0.22386,
				"method": "rhf"
			},
			{
				"type": "occ",
				"energy": -0.20998,
				"method": "rhf"
			},
			{
				"type": "unocc",
				"energy": -0.07941,
				"method": "rhf"
			},
			{
				"type": "unocc",
				"energy": -0.0111,
				"method": "rhf"
			},
			{
				"type": "unocc",
				"energy": 0.00726,
				"method": "rhf"
			},
			{
				"type": "unocc",
				"energy": 0.08327,
				"method": "rhf"
			},
			{
				"type": "unocc",
				"energy": 0.09229,
				"method": "rhf"
			}
		],
		"cosmo_sigma_profile": { 
			"-0.025": 0.0,
			"-0.024": 0.0,
			"-0.023": 0.0,
			"-0.022": 0.0,
			"-0.021": 0.0,
			"-0.02": 0.0,
			"-0.019": 0.0,
			"-0.018": 0.0,
			"-0.017": 0.0,
			"-0.016": 0.0,
			"-0.015": 0.0,
			"-0.014": 0.423782267135,
			"-0.013": 0.83331114968,
			"-0.012": 1.05789062145,
			"-0.011": 2.50682209555,
			"-0.01": 3.22936342995,
			"-0.009": 3.0338694089,
			"-0.008": 2.49158564353,
			"-0.007": 8.67325337139,
			"-0.006": 13.5906681313,
			"-0.005": 15.5180516302,
			"-0.004": 16.5929278651,
			"-0.003": 15.2641052534,
			"-0.002": 13.241371562,
			"-0.001": 12.3822366368,
			"0.0": 14.2398289357,
			"0.001": 19.3561246112,
			"0.002": 18.5619955382,
			"0.003": 10.2158641151,
			"0.004": 7.11187811162,
			"0.005": 5.97878871371,
			"0.006": 4.05804888781,
			"0.007": 5.06719996472,
			"0.008": 5.21859204903,
			"0.009": 5.16386619492,
			"0.01": 3.51078356103,
			"0.011": 2.68082143581,
			"0.012": 3.35961897659,
			"0.013": 3.59825442736,
			"0.014": 2.44054809922,
			"0.015": 0.929489372907,
			"0.016": 0.600640219369,
			"0.017": 0.0875166842375,
			"0.018": 0.0,
			"0.019": 0.0,
			"0.02": 0.0,
			"0.021": 0.0,
			"0.022": 0.0,
			"0.023": 0.0,
			"0.024": 0.0,
			"0.025": 0.0
		}
	}
}
