{
	 "smiles": "BrCC(=O)C1=CC=C(C=C1)S(=O)(=O)N1CCCCC1", 
	 "Tm": 382.15, 
	 "num_atms": 35, 
	 "gaussian": { 
		 "optdone": 1, 
		 "sigma_profile": "yes", 
		 "theory": "DFT", 
		 "functional": "B3LYP", 
		 "basiset": "6-31G**", 
		 "properties": { 
			 "R2extent": 10702.9036, 
			 "electric_dipole_moment_norm": 5.78466010151, 
			 "electric_quadrupole_moment_norm": 19.9737418803, 
			 "total_energy": -3754.97855386, 
			 "HOMO_LUMO_gap": 0.16583, 
			 "cosmo_polarized_energy": -17.44, 
			 "cosmo_cavitation_energy": 40.46, 
			 "cosmo_dispersion_energy": -29.46, 
			 "cosmo_repulsion_energy": 2.24, 
			 "cosmo_total_nonelectrostatic_energy": 13.24, 
			 "SMD_solvation_energy": 3.74 
		},
		"coords": [
			{
				"x": -2.8670990104,
				"y": 3.2978391036,
				"z": 3.3427389825,
				"element": "Br" 
			},
			{
				"x": -3.4252590211,
				"y": 2.1090354046,
				"z": 1.8626553803,
				"element": "C" 
			},
			{
				"x": -2.6543258203,
				"y": 2.4281011477,
				"z": 0.586202146,
				"element": "C" 
			},
			{
				"x": -3.2425661831,
				"y": 2.980881484,
				"z": -0.3281653294,
				"element": "O" 
			},
			{
				"x": -1.2194828246,
				"y": 2.0207538295,
				"z": 0.4551720101,
				"element": "C" 
			},
			{
				"x": -0.5752377667,
				"y": 2.3028002143,
				"z": -0.7605263936,
				"element": "C" 
			},
			{
				"x": 0.7477715325,
				"y": 1.927318934,
				"z": -0.964377523,
				"element": "C" 
			},
			{
				"x": 1.4314651881,
				"y": 1.2593146148,
				"z": 0.0573661712,
				"element": "C" 
			},
			{
				"x": 0.8130816663,
				"y": 0.9820005979,
				"z": 1.2788767769,
				"element": "C" 
			},
			{
				"x": -0.5123546027,
				"y": 1.3653337921,
				"z": 1.4749635708,
				"element": "C" 
			},
			{
				"x": 3.1294065786,
				"y": 0.7155042962,
				"z": -0.2186039205,
				"element": "S" 
			},
			{
				"x": 3.7480195958,
				"y": 0.5576108762,
				"z": 1.0988923414,
				"element": "O" 
			},
			{
				"x": 3.6959441357,
				"y": 1.5861718631,
				"z": -1.2499487516,
				"element": "O" 
			},
			{
				"x": 3.0346096984,
				"y": -0.8249988394,
				"z": -0.8909373415,
				"element": "N" 
			},
			{
				"x": 2.5508852633,
				"y": -0.9252114582,
				"z": -2.2803840209,
				"element": "C" 
			},
			{
				"x": 3.0195781855,
				"y": -2.2511934962,
				"z": -2.8900694375,
				"element": "C" 
			},
			{
				"x": 2.5870794652,
				"y": -3.4444404054,
				"z": -2.0277012906,
				"element": "C" 
			},
			{
				"x": 3.0658090311,
				"y": -3.261029496,
				"z": -0.5814311603,
				"element": "C" 
			},
			{
				"x": 2.5971528488,
				"y": -1.9198043263,
				"z": -0.005648376,
				"element": "C" 
			},
			{
				"x": -4.4796665212,
				"y": 2.3093221264,
				"z": 1.6908172953,
				"element": "H" 
			},
			{
				"x": -3.2713512502,
				"y": 1.0896650288,
				"z": 2.2161602123,
				"element": "H" 
			},
			{
				"x": -1.1338752228,
				"y": 2.8232166986,
				"z": -1.5308145439,
				"element": "H" 
			},
			{
				"x": 1.2609919385,
				"y": 2.1670614191,
				"z": -1.8889224654,
				"element": "H" 
			},
			{
				"x": 1.3768662783,
				"y": 0.5015331858,
				"z": 2.0705076472,
				"element": "H" 
			},
			{
				"x": -0.977387875,
				"y": 1.175142618,
				"z": 2.4357764605,
				"element": "H" 
			},
			{
				"x": 1.4489344268,
				"y": -0.8698316864,
				"z": -2.31126961,
				"element": "H" 
			},
			{
				"x": 2.9547854402,
				"y": -0.0803536972,
				"z": -2.8395500676,
				"element": "H" 
			},
			{
				"x": 4.1124539658,
				"y": -2.2306600068,
				"z": -2.9755335955,
				"element": "H" 
			},
			{
				"x": 2.6133689661,
				"y": -2.3351528067,
				"z": -3.9045161682,
				"element": "H" 
			},
			{
				"x": 1.4909531892,
				"y": -3.527129093,
				"z": -2.0420263819,
				"element": "H" 
			},
			{
				"x": 2.9781984773,
				"y": -4.3790907028,
				"z": -2.4442853854,
				"element": "H" 
			},
			{
				"x": 4.1611136194,
				"y": -3.2939700219,
				"z": -0.5452429853,
				"element": "H" 
			},
			{
				"x": 2.692725883,
				"y": -4.0686551467,
				"z": 0.0587306516,
				"element": "H" 
			},
			{
				"x": 1.4977691466,
				"y": -1.9207006012,
				"z": 0.0939233179,
				"element": "H" 
			},
			{
				"x": 3.0328415776,
				"y": -1.7507854505,
				"z": 0.9798717839,
				"element": "H" 
			}
		],
		 "valence_orbital": [ 
			{
				"type": "occ",
				"energy": -0.2958,
				"method": "rhf"
			},
			{
				"type": "occ",
				"energy": -0.28481,
				"method": "rhf"
			},
			{
				"type": "occ",
				"energy": -0.28214,
				"method": "rhf"
			},
			{
				"type": "occ",
				"energy": -0.27139,
				"method": "rhf"
			},
			{
				"type": "occ",
				"energy": -0.25901,
				"method": "rhf"
			},
			{
				"type": "unocc",
				"energy": -0.09318,
				"method": "rhf"
			},
			{
				"type": "unocc",
				"energy": -0.03423,
				"method": "rhf"
			},
			{
				"type": "unocc",
				"energy": -0.03161,
				"method": "rhf"
			},
			{
				"type": "unocc",
				"energy": 0.02263,
				"method": "rhf"
			},
			{
				"type": "unocc",
				"energy": 0.05283,
				"method": "rhf"
			}
		],
		"cosmo_sigma_profile": { 
			"-0.025": 0.0,
			"-0.024": 0.0,
			"-0.023": 0.0,
			"-0.022": 0.0,
			"-0.021": 0.0,
			"-0.02": 0.0,
			"-0.019": 0.0,
			"-0.018": 0.0,
			"-0.017": 0.0,
			"-0.016": 0.0,
			"-0.015": 0.0,
			"-0.014": 0.0,
			"-0.013": 0.0,
			"-0.012": 0.0,
			"-0.011": 0.0239036451512,
			"-0.01": 1.77318243173,
			"-0.009": 4.26175208299,
			"-0.008": 5.91621708335,
			"-0.007": 8.87239978863,
			"-0.006": 11.0044377388,
			"-0.005": 11.1728754906,
			"-0.004": 26.6269648778,
			"-0.003": 40.4842229015,
			"-0.002": 35.6412163352,
			"-0.001": 27.7326293503,
			"0.0": 29.9137052675,
			"0.001": 24.5442621405,
			"0.002": 12.1421022648,
			"0.003": 12.2945123129,
			"0.004": 12.2493014512,
			"0.005": 12.1377179326,
			"0.006": 5.88086323752,
			"0.007": 5.27900363215,
			"0.008": 5.75420947077,
			"0.009": 5.96166915293,
			"0.01": 10.0366388361,
			"0.011": 10.148989602,
			"0.012": 3.11018363791,
			"0.013": 0.0,
			"0.014": 0.0,
			"0.015": 0.0,
			"0.016": 0.0,
			"0.017": 0.0,
			"0.018": 0.0,
			"0.019": 0.0,
			"0.02": 0.0,
			"0.021": 0.0,
			"0.022": 0.0,
			"0.023": 0.0,
			"0.024": 0.0,
			"0.025": 0.0
		}
	}
}
