{
	 "smiles": "COC(=O)C1=CC=C(C=C1)C1=CC=C(C=C1)C(=O)OC", 
	 "Tm": 487.15, 
	 "num_atms": 34, 
	 "gaussian": { 
		 "optdone": 1, 
		 "sigma_profile": "yes", 
		 "theory": "DFT", 
		 "functional": "B3LYP", 
		 "basiset": "6-31G**", 
		 "properties": { 
			 "R2extent": 10743.4584, 
			 "electric_dipole_moment_norm": 1.05847154426, 
			 "electric_quadrupole_moment_norm": 31.8693249654, 
			 "total_energy": -919.069397952, 
			 "HOMO_LUMO_gap": 0.1708, 
			 "cosmo_polarized_energy": -12.67, 
			 "cosmo_cavitation_energy": 39.52, 
			 "cosmo_dispersion_energy": -28.58, 
			 "cosmo_repulsion_energy": 2.17, 
			 "cosmo_total_nonelectrostatic_energy": 13.11, 
			 "SMD_solvation_energy": 9.67 
		},
		"coords": [
			{
				"x": 6.1576708636,
				"y": -1.4125481956,
				"z": 2.7338337737,
				"element": "C" 
			},
			{
				"x": 4.9421375633,
				"y": -1.1704185944,
				"z": 2.0094372996,
				"element": "O" 
			},
			{
				"x": 3.811437311,
				"y": -1.2149950108,
				"z": 2.751790223,
				"element": "C" 
			},
			{
				"x": 3.811147555,
				"y": -1.4424211764,
				"z": 3.946472344,
				"element": "O" 
			},
			{
				"x": 2.5883405418,
				"y": -0.9564801521,
				"z": 1.9425077077,
				"element": "C" 
			},
			{
				"x": 2.6324083167,
				"y": -0.6988052489,
				"z": 0.5655937337,
				"element": "C" 
			},
			{
				"x": 1.4559557881,
				"y": -0.4638185303,
				"z": -0.1386640274,
				"element": "C" 
			},
			{
				"x": 0.2071882531,
				"y": -0.4799935797,
				"z": 0.5083051937,
				"element": "C" 
			},
			{
				"x": 0.1774275597,
				"y": -0.7401714484,
				"z": 1.8907573361,
				"element": "C" 
			},
			{
				"x": 1.3502370798,
				"y": -0.9746391536,
				"z": 2.5983274662,
				"element": "C" 
			},
			{
				"x": -1.0447576337,
				"y": -0.2295127003,
				"z": -0.2472360935,
				"element": "C" 
			},
			{
				"x": -1.083845241,
				"y": 0.7163993254,
				"z": -1.2881344777,
				"element": "C" 
			},
			{
				"x": -2.2565970156,
				"y": 0.9509762747,
				"z": -1.9957599184,
				"element": "C" 
			},
			{
				"x": -3.4255543807,
				"y": 0.2446159632,
				"z": -1.6828262714,
				"element": "C" 
			},
			{
				"x": -3.4005875968,
				"y": -0.7006759747,
				"z": -0.6484063534,
				"element": "C" 
			},
			{
				"x": -2.2245828425,
				"y": -0.9317611972,
				"z": 0.0578984274,
				"element": "C" 
			},
			{
				"x": -4.6520606239,
				"y": 0.5376209389,
				"z": -2.4750172585,
				"element": "C" 
			},
			{
				"x": -4.7104636415,
				"y": 1.3496088035,
				"z": -3.3784841743,
				"element": "O" 
			},
			{
				"x": -5.7126750435,
				"y": -0.2045699606,
				"z": -2.0802962693,
				"element": "O" 
			},
			{
				"x": -6.927599714,
				"y": 0.0321249852,
				"z": -2.8075083011,
				"element": "C" 
			},
			{
				"x": 6.1426992294,
				"y": -2.405510041,
				"z": 3.1902619687,
				"element": "H" 
			},
			{
				"x": 6.9584443451,
				"y": -1.3410441988,
				"z": 1.9978349758,
				"element": "H" 
			},
			{
				"x": 6.2917318322,
				"y": -0.6666631091,
				"z": 3.5213559654,
				"element": "H" 
			},
			{
				"x": 3.5873009999,
				"y": -0.6923389037,
				"z": 0.0527698389,
				"element": "H" 
			},
			{
				"x": 1.5007234701,
				"y": -0.2918548368,
				"z": -1.2096085394,
				"element": "H" 
			},
			{
				"x": -0.772193752,
				"y": -0.7306754935,
				"z": 2.4166774706,
				"element": "H" 
			},
			{
				"x": 1.3318118124,
				"y": -1.1666071719,
				"z": 3.6658166873,
				"element": "H" 
			},
			{
				"x": -0.1928362168,
				"y": 1.2901358907,
				"z": -1.5234774763,
				"element": "H" 
			},
			{
				"x": -2.2926637602,
				"y": 1.685920238,
				"z": -2.7928058842,
				"element": "H" 
			},
			{
				"x": -4.3003817224,
				"y": -1.2554648396,
				"z": -0.4087570923,
				"element": "H" 
			},
			{
				"x": -2.2109350617,
				"y": -1.6854866485,
				"z": 0.8390518219,
				"element": "H" 
			},
			{
				"x": -7.6683681585,
				"y": -0.6365424029,
				"z": -2.3691110083,
				"element": "H" 
			},
			{
				"x": -7.2414153645,
				"y": 1.0739407643,
				"z": -2.7043249907,
				"element": "H" 
			},
			{
				"x": -6.7904447519,
				"y": -0.189244615,
				"z": -3.8689740975,
				"element": "H" 
			}
		],
		 "valence_orbital": [ 
			{
				"type": "occ",
				"energy": -0.27487,
				"method": "rhf"
			},
			{
				"type": "occ",
				"energy": -0.27474,
				"method": "rhf"
			},
			{
				"type": "occ",
				"energy": -0.26363,
				"method": "rhf"
			},
			{
				"type": "occ",
				"energy": -0.26293,
				"method": "rhf"
			},
			{
				"type": "occ",
				"energy": -0.23873,
				"method": "rhf"
			},
			{
				"type": "unocc",
				"energy": -0.06793,
				"method": "rhf"
			},
			{
				"type": "unocc",
				"energy": -0.02934,
				"method": "rhf"
			},
			{
				"type": "unocc",
				"energy": -0.01542,
				"method": "rhf"
			},
			{
				"type": "unocc",
				"energy": -0.01086,
				"method": "rhf"
			},
			{
				"type": "unocc",
				"energy": 0.04235,
				"method": "rhf"
			}
		],
		"cosmo_sigma_profile": { 
			"-0.025": 0.0,
			"-0.024": 0.0,
			"-0.023": 0.0,
			"-0.022": 0.0,
			"-0.021": 0.0,
			"-0.02": 0.0,
			"-0.019": 0.0,
			"-0.018": 0.0,
			"-0.017": 0.0,
			"-0.016": 0.0,
			"-0.015": 0.0,
			"-0.014": 0.0,
			"-0.013": 0.0,
			"-0.012": 0.0,
			"-0.011": 0.0,
			"-0.01": 0.0,
			"-0.009": 0.0,
			"-0.008": 0.0,
			"-0.007": 4.79232631506,
			"-0.006": 23.284814512,
			"-0.005": 27.464147479,
			"-0.004": 28.4103958104,
			"-0.003": 29.2593054649,
			"-0.002": 22.1329265859,
			"-0.001": 20.0229076433,
			"0.0": 21.4517493116,
			"0.001": 27.3100522091,
			"0.002": 27.3772527361,
			"0.003": 33.0998694658,
			"0.004": 11.1271012881,
			"0.005": 8.15642744867,
			"0.006": 4.76781357657,
			"0.007": 3.27215355495,
			"0.008": 2.89174323564,
			"0.009": 2.69365082514,
			"0.01": 4.41051991844,
			"0.011": 5.42527475479,
			"0.012": 8.5910105666,
			"0.013": 0.396942493952,
			"0.014": 0.0,
			"0.015": 0.0,
			"0.016": 0.0,
			"0.017": 0.0,
			"0.018": 0.0,
			"0.019": 0.0,
			"0.02": 0.0,
			"0.021": 0.0,
			"0.022": 0.0,
			"0.023": 0.0,
			"0.024": 0.0,
			"0.025": 0.0
		}
	}
}
