{
	 "smiles": "CN1CC(=O)NC1=O", 
	 "Tm": 430.65, 
	 "num_atms": 14, 
	 "gaussian": { 
		 "optdone": 1, 
		 "sigma_profile": "yes", 
		 "theory": "DFT", 
		 "functional": "B3LYP", 
		 "basiset": "6-31G**", 
		 "properties": { 
			 "R2extent": 1215.616, 
			 "electric_dipole_moment_norm": 2.56832460565, 
			 "electric_quadrupole_moment_norm": 15.5478781176, 
			 "total_energy": -416.026823351, 
			 "HOMO_LUMO_gap": 0.24448, 
			 "cosmo_polarized_energy": -13.94, 
			 "cosmo_cavitation_energy": 18.12, 
			 "cosmo_dispersion_energy": -13.71, 
			 "cosmo_repulsion_energy": 1.16, 
			 "cosmo_total_nonelectrostatic_energy": 5.58, 
			 "SMD_solvation_energy": 4.73 
		},
		"coords": [
			{
				"x": 0.497838168,
				"y": 1.3939343453,
				"z": -2.3298637345,
				"element": "C" 
			},
			{
				"x": 0.8686734201,
				"y": 0.6963489141,
				"z": -1.1188806112,
				"element": "N" 
			},
			{
				"x": 1.0330709594,
				"y": -0.7394340212,
				"z": -1.0136806749,
				"element": "C" 
			},
			{
				"x": 1.4217155036,
				"y": -0.9437135564,
				"z": 0.4565830461,
				"element": "C" 
			},
			{
				"x": 1.6630235445,
				"y": -1.9907578574,
				"z": 1.0163031221,
				"element": "O" 
			},
			{
				"x": 1.4360400563,
				"y": 0.3243038014,
				"z": 0.9983335377,
				"element": "N" 
			},
			{
				"x": 1.1057321811,
				"y": 1.3386841555,
				"z": 0.0714361528,
				"element": "C" 
			},
			{
				"x": 1.051391837,
				"y": 2.5289425402,
				"z": 0.3099434405,
				"element": "O" 
			},
			{
				"x": 0.453886401,
				"y": 2.4589779261,
				"z": -2.0978775175,
				"element": "H" 
			},
			{
				"x": -0.483927978,
				"y": 1.0653362001,
				"z": -2.6922549414,
				"element": "H" 
			},
			{
				"x": 1.2365724943,
				"y": 1.2303991671,
				"z": -3.1240301559,
				"element": "H" 
			},
			{
				"x": 0.1105657063,
				"y": -1.2916275668,
				"z": -1.2371328456,
				"element": "H" 
			},
			{
				"x": 1.825645589,
				"y": -1.1267793836,
				"z": -1.6676415559,
				"element": "H" 
			},
			{
				"x": 1.6580721174,
				"y": 0.5303853355,
				"z": 1.9613627378,
				"element": "H" 
			}
		],
		 "valence_orbital": [ 
			{
				"type": "occ",
				"energy": -0.38594,
				"method": "rhf"
			},
			{
				"type": "occ",
				"energy": -0.29447,
				"method": "rhf"
			},
			{
				"type": "occ",
				"energy": -0.29031,
				"method": "rhf"
			},
			{
				"type": "occ",
				"energy": -0.26496,
				"method": "rhf"
			},
			{
				"type": "occ",
				"energy": -0.256,
				"method": "rhf"
			},
			{
				"type": "unocc",
				"energy": -0.01152,
				"method": "rhf"
			},
			{
				"type": "unocc",
				"energy": 0.06305,
				"method": "rhf"
			},
			{
				"type": "unocc",
				"energy": 0.07717,
				"method": "rhf"
			},
			{
				"type": "unocc",
				"energy": 0.09235,
				"method": "rhf"
			},
			{
				"type": "unocc",
				"energy": 0.11842,
				"method": "rhf"
			}
		],
		"cosmo_sigma_profile": { 
			"-0.025": 0.0,
			"-0.024": 0.0,
			"-0.023": 0.0,
			"-0.022": 0.0,
			"-0.021": 0.0,
			"-0.02": 0.0,
			"-0.019": 0.0,
			"-0.018": 0.0,
			"-0.017": 0.277156303218,
			"-0.016": 1.04138453035,
			"-0.015": 1.58838331129,
			"-0.014": 0.613533872507,
			"-0.013": 0.726594499577,
			"-0.012": 0.897630479448,
			"-0.011": 1.07843776418,
			"-0.01": 0.831723815852,
			"-0.009": 0.579232778886,
			"-0.008": 4.44459328421,
			"-0.007": 7.3860205844,
			"-0.006": 9.19095202758,
			"-0.005": 14.8694038885,
			"-0.004": 11.8812453621,
			"-0.003": 11.2249794079,
			"-0.002": 12.3825201133,
			"-0.001": 8.42524449618,
			"0.0": 5.56871180204,
			"0.001": 3.99557135469,
			"0.002": 3.25314367925,
			"0.003": 1.92322150943,
			"0.004": 2.35255962392,
			"0.005": 2.55340463319,
			"0.006": 3.14689140253,
			"0.007": 2.21173535249,
			"0.008": 1.54456863668,
			"0.009": 3.24867015196,
			"0.01": 3.23237342575,
			"0.011": 4.93662538664,
			"0.012": 9.08763626398,
			"0.013": 8.43660249988,
			"0.014": 0.663598451037,
			"0.015": 0.0,
			"0.016": 0.0,
			"0.017": 0.0,
			"0.018": 0.0,
			"0.019": 0.0,
			"0.02": 0.0,
			"0.021": 0.0,
			"0.022": 0.0,
			"0.023": 0.0,
			"0.024": 0.0,
			"0.025": 0.0
		}
	}
}
