{
	 "smiles": "NC1=NN=C(O1)C1=CC2=C(OCCO2)C=C1", 
	 "Tm": 521.15, 
	 "num_atms": 25, 
	 "gaussian": { 
		 "optdone": 1, 
		 "sigma_profile": "yes", 
		 "theory": "DFT", 
		 "functional": "B3LYP", 
		 "basiset": "6-31G**", 
		 "properties": { 
			 "R2extent": 5803.9813, 
			 "electric_dipole_moment_norm": 5.13920065964, 
			 "electric_quadrupole_moment_norm": 28.0070946655, 
			 "total_energy": -776.371478683, 
			 "HOMO_LUMO_gap": 0.17071, 
			 "cosmo_polarized_energy": -19.2, 
			 "cosmo_cavitation_energy": 29.71, 
			 "cosmo_dispersion_energy": -22.74, 
			 "cosmo_repulsion_energy": 1.76, 
			 "cosmo_total_nonelectrostatic_energy": 8.73, 
			 "SMD_solvation_energy": 3.84 
		},
		"coords": [
			{
				"x": 2.2742770568,
				"y": -3.0601523181,
				"z": -1.3823126658,
				"element": "N" 
			},
			{
				"x": 2.2197351515,
				"y": -2.4050470667,
				"z": -0.1811973735,
				"element": "C" 
			},
			{
				"x": 2.798157618,
				"y": -2.7183758991,
				"z": 0.9400380371,
				"element": "N" 
			},
			{
				"x": 2.4935931479,
				"y": -1.673519577,
				"z": 1.8192562755,
				"element": "N" 
			},
			{
				"x": 1.7531442014,
				"y": -0.8282501371,
				"z": 1.1733894984,
				"element": "C" 
			},
			{
				"x": 1.5352896408,
				"y": -1.2339391599,
				"z": -0.1322572348,
				"element": "O" 
			},
			{
				"x": 1.1585832918,
				"y": 0.4164621644,
				"z": 1.6363720052,
				"element": "C" 
			},
			{
				"x": 0.3758589239,
				"y": 1.2048235774,
				"z": 0.7825860157,
				"element": "C" 
			},
			{
				"x": -0.1833078982,
				"y": 2.3938451628,
				"z": 1.243182914,
				"element": "C" 
			},
			{
				"x": 0.0469137513,
				"y": 2.8131349609,
				"z": 2.5654360391,
				"element": "C" 
			},
			{
				"x": -0.4669126586,
				"y": 3.9862804095,
				"z": 3.0542506774,
				"element": "O" 
			},
			{
				"x": -0.9433769317,
				"y": 4.8777055253,
				"z": 2.0446206577,
				"element": "C" 
			},
			{
				"x": -1.7613484365,
				"y": 4.1149277611,
				"z": 1.0153704563,
				"element": "C" 
			},
			{
				"x": -0.9497307322,
				"y": 3.1315825451,
				"z": 0.3732475396,
				"element": "O" 
			},
			{
				"x": 0.816800001,
				"y": 2.017444843,
				"z": 3.4189012845,
				"element": "C" 
			},
			{
				"x": 1.3674496378,
				"y": 0.8269080752,
				"z": 2.9656534077,
				"element": "C" 
			},
			{
				"x": 2.6249403352,
				"y": -4.0044489743,
				"z": -1.2983986088,
				"element": "H" 
			},
			{
				"x": 1.44749456,
				"y": -2.9783937544,
				"z": -1.9581670259,
				"element": "H" 
			},
			{
				"x": 0.1872484384,
				"y": 0.9076277752,
				"z": -0.2426489485,
				"element": "H" 
			},
			{
				"x": -1.5484031438,
				"y": 5.6302459002,
				"z": 2.5564222946,
				"element": "H" 
			},
			{
				"x": -0.0940165875,
				"y": 5.3729345067,
				"z": 1.5548908683,
				"element": "H" 
			},
			{
				"x": -2.6193617256,
				"y": 3.6320124678,
				"z": 1.5029535078,
				"element": "H" 
			},
			{
				"x": -2.126422384,
				"y": 4.7785893929,
				"z": 0.2275826994,
				"element": "H" 
			},
			{
				"x": 0.9753321606,
				"y": 2.3604902623,
				"z": 4.4360423369,
				"element": "H" 
			},
			{
				"x": 1.9684625816,
				"y": 0.2084115567,
				"z": 3.6222853421,
				"element": "H" 
			}
		],
		 "valence_orbital": [ 
			{
				"type": "occ",
				"energy": -0.30613,
				"method": "rhf"
			},
			{
				"type": "occ",
				"energy": -0.26395,
				"method": "rhf"
			},
			{
				"type": "occ",
				"energy": -0.25409,
				"method": "rhf"
			},
			{
				"type": "occ",
				"energy": -0.23371,
				"method": "rhf"
			},
			{
				"type": "occ",
				"energy": -0.20232,
				"method": "rhf"
			},
			{
				"type": "unocc",
				"energy": -0.03161,
				"method": "rhf"
			},
			{
				"type": "unocc",
				"energy": -0.00012,
				"method": "rhf"
			},
			{
				"type": "unocc",
				"energy": 0.04362,
				"method": "rhf"
			},
			{
				"type": "unocc",
				"energy": 0.06931,
				"method": "rhf"
			},
			{
				"type": "unocc",
				"energy": 0.07651,
				"method": "rhf"
			}
		],
		"cosmo_sigma_profile": { 
			"-0.025": 0.0,
			"-0.024": 0.0,
			"-0.023": 0.0,
			"-0.022": 0.0,
			"-0.021": 0.0,
			"-0.02": 0.0,
			"-0.019": 0.0,
			"-0.018": 0.0,
			"-0.017": 0.0,
			"-0.016": 0.0919796506784,
			"-0.015": 1.9385434888,
			"-0.014": 2.93746567987,
			"-0.013": 2.5124905756,
			"-0.012": 2.43234750028,
			"-0.011": 2.36323184186,
			"-0.01": 1.73271255891,
			"-0.009": 1.89269716323,
			"-0.008": 2.66963469546,
			"-0.007": 10.462666974,
			"-0.006": 17.3489447558,
			"-0.005": 15.6820158991,
			"-0.004": 15.4464338889,
			"-0.003": 11.8063291065,
			"-0.002": 10.6717994251,
			"-0.001": 12.6425802014,
			"0.0": 13.123672517,
			"0.001": 13.4273460104,
			"0.002": 19.1302424632,
			"0.003": 20.0367662799,
			"0.004": 12.6656878305,
			"0.005": 6.0514660505,
			"0.006": 4.65285122712,
			"0.007": 4.85276172956,
			"0.008": 4.39690471609,
			"0.009": 5.9730821773,
			"0.01": 5.17068994185,
			"0.011": 3.03270159258,
			"0.012": 3.15679765126,
			"0.013": 3.88098740187,
			"0.014": 2.21749086549,
			"0.015": 2.15388411086,
			"0.016": 0.991794525208,
			"0.017": 0.0766563630133,
			"0.018": 0.0,
			"0.019": 0.0,
			"0.02": 0.0,
			"0.021": 0.0,
			"0.022": 0.0,
			"0.023": 0.0,
			"0.024": 0.0,
			"0.025": 0.0
		}
	}
}
