{
	 "smiles": "CC(CN1CC(=O)NC(=O)C1)N1CC(=O)NC(=O)C1", 
	 "Tm": 511.15, 
	 "num_atms": 35, 
	 "gaussian": { 
		 "optdone": 1, 
		 "sigma_profile": "yes", 
		 "theory": "DFT", 
		 "functional": "B3LYP", 
		 "basiset": "6-31G**", 
		 "properties": { 
			 "R2extent": 6080.0986, 
			 "electric_dipole_moment_norm": 2.43308990792, 
			 "electric_quadrupole_moment_norm": 19.9236745414, 
			 "total_energy": -948.736258426, 
			 "HOMO_LUMO_gap": 0.19956, 
			 "cosmo_polarized_energy": -24.87, 
			 "cosmo_cavitation_energy": 36.77, 
			 "cosmo_dispersion_energy": -25.57, 
			 "cosmo_repulsion_energy": 1.97, 
			 "cosmo_total_nonelectrostatic_energy": 13.17, 
			 "SMD_solvation_energy": 7.17 
		},
		"coords": [
			{
				"x": 2.7109587945,
				"y": 0.5158288575,
				"z": -0.4043920982,
				"element": "C" 
			},
			{
				"x": 1.6347351393,
				"y": -0.4063887771,
				"z": -1.0071623505,
				"element": "C" 
			},
			{
				"x": 1.5795869529,
				"y": -1.7854805692,
				"z": -0.2879295651,
				"element": "C" 
			},
			{
				"x": 0.6225829661,
				"y": -1.9228951469,
				"z": 0.8222060348,
				"element": "N" 
			},
			{
				"x": 0.6932030259,
				"y": -0.914457126,
				"z": 1.875584953,
				"element": "C" 
			},
			{
				"x": 1.9353403552,
				"y": -1.0240718831,
				"z": 2.7567310342,
				"element": "C" 
			},
			{
				"x": 2.4719983033,
				"y": -0.0873774041,
				"z": 3.3148004317,
				"element": "O" 
			},
			{
				"x": 2.4197633656,
				"y": -2.3282845037,
				"z": 2.8956456611,
				"element": "N" 
			},
			{
				"x": 1.8900188997,
				"y": -3.4902142176,
				"z": 2.3277062308,
				"element": "C" 
			},
			{
				"x": 2.3568038664,
				"y": -4.5842460191,
				"z": 2.5717979318,
				"element": "O" 
			},
			{
				"x": 0.6806498875,
				"y": -3.2549855561,
				"z": 1.4158343745,
				"element": "C" 
			},
			{
				"x": 0.3084440533,
				"y": 0.239993712,
				"z": -1.0714367205,
				"element": "N" 
			},
			{
				"x": 0.3335171092,
				"y": 1.5335230546,
				"z": -1.7513954202,
				"element": "C" 
			},
			{
				"x": -1.0208390873,
				"y": 2.2264825699,
				"z": -1.7462973773,
				"element": "C" 
			},
			{
				"x": -1.1457925315,
				"y": 3.4323225335,
				"z": -1.8256200668,
				"element": "O" 
			},
			{
				"x": -2.1207765586,
				"y": 1.3813812631,
				"z": -1.6811876725,
				"element": "N" 
			},
			{
				"x": -2.0886597557,
				"y": -0.0086305454,
				"z": -1.6791770682,
				"element": "C" 
			},
			{
				"x": -3.1090111115,
				"y": -0.667423741,
				"z": -1.7072120189,
				"element": "O" 
			},
			{
				"x": -0.7009917079,
				"y": -0.6275242818,
				"z": -1.6792861513,
				"element": "C" 
			},
			{
				"x": 3.6438148995,
				"y": -0.0453919047,
				"z": -0.300265403,
				"element": "H" 
			},
			{
				"x": 2.9301010415,
				"y": 1.3660006434,
				"z": -1.0545311201,
				"element": "H" 
			},
			{
				"x": 2.4428810573,
				"y": 0.9017662367,
				"z": 0.5824182542,
				"element": "H" 
			},
			{
				"x": 1.9775381951,
				"y": -0.6451262318,
				"z": -2.0350920261,
				"element": "H" 
			},
			{
				"x": 2.6146374919,
				"y": -2.0276176147,
				"z": 0.010461473,
				"element": "H" 
			},
			{
				"x": 1.2938124728,
				"y": -2.5519864556,
				"z": -1.0169008944,
				"element": "H" 
			},
			{
				"x": 0.6335179949,
				"y": 0.0861405997,
				"z": 1.4528188381,
				"element": "H" 
			},
			{
				"x": -0.183497303,
				"y": -1.0370330449,
				"z": 2.5276916749,
				"element": "H" 
			},
			{
				"x": 3.2295044875,
				"y": -2.4493243367,
				"z": 3.4970493811,
				"element": "H" 
			},
			{
				"x": -0.2219029788,
				"y": -3.4204579262,
				"z": 2.0208902105,
				"element": "H" 
			},
			{
				"x": 0.6965907777,
				"y": -4.0284211179,
				"z": 0.6442659244,
				"element": "H" 
			},
			{
				"x": 0.6579405273,
				"y": 1.4548232085,
				"z": -2.8103780668,
				"element": "H" 
			},
			{
				"x": 1.0150892742,
				"y": 2.2232912873,
				"z": -1.2561290835,
				"element": "H" 
			},
			{
				"x": -3.0366231413,
				"y": 1.8191643728,
				"z": -1.6912297473,
				"element": "H" 
			},
			{
				"x": -0.4594011264,
				"y": -0.889052067,
				"z": -2.7306856357,
				"element": "H" 
			},
			{
				"x": -0.7870356367,
				"y": -1.5499278682,
				"z": -1.1068939218,
				"element": "H" 
			}
		],
		 "valence_orbital": [ 
			{
				"type": "occ",
				"energy": -0.29403,
				"method": "rhf"
			},
			{
				"type": "occ",
				"energy": -0.27249,
				"method": "rhf"
			},
			{
				"type": "occ",
				"energy": -0.26874,
				"method": "rhf"
			},
			{
				"type": "occ",
				"energy": -0.24703,
				"method": "rhf"
			},
			{
				"type": "occ",
				"energy": -0.23793,
				"method": "rhf"
			},
			{
				"type": "unocc",
				"energy": -0.03837,
				"method": "rhf"
			},
			{
				"type": "unocc",
				"energy": -0.0335,
				"method": "rhf"
			},
			{
				"type": "unocc",
				"energy": 0.01673,
				"method": "rhf"
			},
			{
				"type": "unocc",
				"energy": 0.0231,
				"method": "rhf"
			},
			{
				"type": "unocc",
				"energy": 0.05144,
				"method": "rhf"
			}
		],
		"cosmo_sigma_profile": { 
			"-0.025": 0.0,
			"-0.024": 0.0,
			"-0.023": 0.0,
			"-0.022": 0.0,
			"-0.021": 0.0,
			"-0.02": 0.0,
			"-0.019": 0.0,
			"-0.018": 0.0,
			"-0.017": 0.0,
			"-0.016": 0.351958513883,
			"-0.015": 1.6903027151,
			"-0.014": 2.23029902538,
			"-0.013": 1.51458352844,
			"-0.012": 1.18876246823,
			"-0.011": 1.84173997555,
			"-0.01": 2.55028625745,
			"-0.009": 3.68846762911,
			"-0.008": 6.62594422503,
			"-0.007": 13.4240533095,
			"-0.006": 17.2120971705,
			"-0.005": 25.7968770404,
			"-0.004": 31.486836763,
			"-0.003": 23.9399906737,
			"-0.002": 20.2836877609,
			"-0.001": 14.7511771422,
			"0.0": 13.5678978809,
			"0.001": 10.2540371413,
			"0.002": 6.94565660065,
			"0.003": 5.72218684003,
			"0.004": 6.17047952912,
			"0.005": 8.35260426548,
			"0.006": 5.52118658446,
			"0.007": 4.54494472063,
			"0.008": 6.05577581614,
			"0.009": 5.71190884063,
			"0.01": 8.92109555896,
			"0.011": 14.7445585109,
			"0.012": 18.5379514586,
			"0.013": 4.53482387785,
			"0.014": 0.0,
			"0.015": 0.0,
			"0.016": 0.0,
			"0.017": 0.0,
			"0.018": 0.0,
			"0.019": 0.0,
			"0.02": 0.0,
			"0.021": 0.0,
			"0.022": 0.0,
			"0.023": 0.0,
			"0.024": 0.0,
			"0.025": 0.0
		}
	}
}
