{
	 "smiles": "CC1=CC(=CC(C)=C1N)C1=CC(C)=C(N)C(C)=C1", 
	 "Tm": 442.65, 
	 "num_atms": 38, 
	 "gaussian": { 
		 "optdone": 1, 
		 "sigma_profile": "yes", 
		 "theory": "DFT", 
		 "functional": "B3LYP", 
		 "basiset": "6-31G**", 
		 "properties": { 
			 "R2extent": 6427.5136, 
			 "electric_dipole_moment_norm": 1.86282833079, 
			 "electric_quadrupole_moment_norm": 18.1138627413, 
			 "total_energy": -731.304430804, 
			 "HOMO_LUMO_gap": 0.17428, 
			 "cosmo_polarized_energy": -14.3, 
			 "cosmo_cavitation_energy": 39.27, 
			 "cosmo_dispersion_energy": -28.39, 
			 "cosmo_repulsion_energy": 2.19, 
			 "cosmo_total_nonelectrostatic_energy": 13.07, 
			 "SMD_solvation_energy": 6.01 
		},
		"coords": [
			{
				"x": 0.3293425891,
				"y": 4.492279406,
				"z": 1.026345887,
				"element": "C" 
			},
			{
				"x": 0.9056239904,
				"y": 3.1104290911,
				"z": 0.8316388487,
				"element": "C" 
			},
			{
				"x": 0.1227332464,
				"y": 2.0767401294,
				"z": 0.3174688527,
				"element": "C" 
			},
			{
				"x": 0.6209462759,
				"y": 0.7794172288,
				"z": 0.1239314836,
				"element": "C" 
			},
			{
				"x": 1.9599033517,
				"y": 0.5498252626,
				"z": 0.4752287725,
				"element": "C" 
			},
			{
				"x": 2.781274416,
				"y": 1.5531527948,
				"z": 0.9892444053,
				"element": "C" 
			},
			{
				"x": 4.2106247942,
				"y": 1.2593281525,
				"z": 1.3763677587,
				"element": "C" 
			},
			{
				"x": 2.2521019909,
				"y": 2.8500109384,
				"z": 1.1667274123,
				"element": "C" 
			},
			{
				"x": 3.0435036484,
				"y": 3.858919432,
				"z": 1.7339084199,
				"element": "N" 
			},
			{
				"x": -0.2315779855,
				"y": -0.3028627509,
				"z": -0.4244706421,
				"element": "C" 
			},
			{
				"x": -1.5917763848,
				"y": -0.4019046658,
				"z": -0.0943301758,
				"element": "C" 
			},
			{
				"x": -2.4133978684,
				"y": -1.4088035715,
				"z": -0.6009173733,
				"element": "C" 
			},
			{
				"x": -3.8672170499,
				"y": -1.4935952201,
				"z": -0.2028317072,
				"element": "C" 
			},
			{
				"x": -1.8624087665,
				"y": -2.3683525087,
				"z": -1.4778497061,
				"element": "C" 
			},
			{
				"x": -2.6566596682,
				"y": -3.4210017183,
				"z": -1.9543140531,
				"element": "N" 
			},
			{
				"x": -0.494733184,
				"y": -2.3014850227,
				"z": -1.8215034035,
				"element": "C" 
			},
			{
				"x": 0.1045162537,
				"y": -3.3288170925,
				"z": -2.751578103,
				"element": "C" 
			},
			{
				"x": 0.2877269217,
				"y": -1.2746063811,
				"z": -1.2932333031,
				"element": "C" 
			},
			{
				"x": 0.4028194017,
				"y": 4.8187204445,
				"z": 2.0717340635,
				"element": "H" 
			},
			{
				"x": 0.847201522,
				"y": 5.24761109,
				"z": 0.4171227479,
				"element": "H" 
			},
			{
				"x": -0.7255522728,
				"y": 4.5200543104,
				"z": 0.742266922,
				"element": "H" 
			},
			{
				"x": -0.9034648206,
				"y": 2.2977991065,
				"z": 0.0350436883,
				"element": "H" 
			},
			{
				"x": 2.3710752346,
				"y": -0.4509456585,
				"z": 0.3702717802,
				"element": "H" 
			},
			{
				"x": 4.4493688174,
				"y": 0.2042503313,
				"z": 1.2212261564,
				"element": "H" 
			},
			{
				"x": 4.9292147499,
				"y": 1.8430912113,
				"z": 0.7823066432,
				"element": "H" 
			},
			{
				"x": 4.4015603017,
				"y": 1.4948086113,
				"z": 2.4311635334,
				"element": "H" 
			},
			{
				"x": 2.7533507955,
				"y": 4.8016920322,
				"z": 1.5151857583,
				"element": "H" 
			},
			{
				"x": 4.0389752991,
				"y": 3.7427221164,
				"z": 1.6051795432,
				"element": "H" 
			},
			{
				"x": -2.0213901833,
				"y": 0.3135917729,
				"z": 0.6021728639,
				"element": "H" 
			},
			{
				"x": -4.1231806466,
				"y": -0.7097345971,
				"z": 0.5143221209,
				"element": "H" 
			},
			{
				"x": -4.1056293499,
				"y": -2.4606812451,
				"z": 0.2580482539,
				"element": "H" 
			},
			{
				"x": -4.5404842122,
				"y": -1.3743548816,
				"z": -1.0645450812,
				"element": "H" 
			},
			{
				"x": -2.3326236397,
				"y": -3.8446409764,
				"z": -2.8124375619,
				"element": "H" 
			},
			{
				"x": -3.6468178325,
				"y": -3.2234505648,
				"z": -1.9942918834,
				"element": "H" 
			},
			{
				"x": -0.0138697073,
				"y": -4.347651275,
				"z": -2.360731609,
				"element": "H" 
			},
			{
				"x": 1.1728172245,
				"y": -3.1498300314,
				"z": -2.8963895985,
				"element": "H" 
			},
			{
				"x": -0.3631881036,
				"y": -3.3105699985,
				"z": -3.746951287,
				"element": "H" 
			},
			{
				"x": 1.3319908513,
				"y": -1.2165553025,
				"z": -1.5896304278,
				"element": "H" 
			}
		],
		 "valence_orbital": [ 
			{
				"type": "occ",
				"energy": -0.2829,
				"method": "rhf"
			},
			{
				"type": "occ",
				"energy": -0.22374,
				"method": "rhf"
			},
			{
				"type": "occ",
				"energy": -0.22282,
				"method": "rhf"
			},
			{
				"type": "occ",
				"energy": -0.2066,
				"method": "rhf"
			},
			{
				"type": "occ",
				"energy": -0.16922,
				"method": "rhf"
			},
			{
				"type": "unocc",
				"energy": 0.00506,
				"method": "rhf"
			},
			{
				"type": "unocc",
				"energy": 0.01641,
				"method": "rhf"
			},
			{
				"type": "unocc",
				"energy": 0.02112,
				"method": "rhf"
			},
			{
				"type": "unocc",
				"energy": 0.05602,
				"method": "rhf"
			},
			{
				"type": "unocc",
				"energy": 0.07705,
				"method": "rhf"
			}
		],
		"cosmo_sigma_profile": { 
			"-0.025": 0.0,
			"-0.024": 0.0,
			"-0.023": 0.0,
			"-0.022": 0.0,
			"-0.021": 0.0,
			"-0.02": 0.0,
			"-0.019": 0.0,
			"-0.018": 0.0,
			"-0.017": 0.0,
			"-0.016": 0.0,
			"-0.015": 0.0,
			"-0.014": 0.0,
			"-0.013": 0.0,
			"-0.012": 0.416890104095,
			"-0.011": 3.66566207061,
			"-0.01": 4.1686371503,
			"-0.009": 6.93922856155,
			"-0.008": 5.02645594381,
			"-0.007": 5.54659528744,
			"-0.006": 6.76918310843,
			"-0.005": 7.14024349902,
			"-0.004": 26.9888511902,
			"-0.003": 32.3973449592,
			"-0.002": 25.33669344,
			"-0.001": 26.0763597157,
			"0.0": 32.442528998,
			"0.001": 25.1628094034,
			"0.002": 13.1572611712,
			"0.003": 12.8987698043,
			"0.004": 11.2862039525,
			"0.005": 13.2894676405,
			"0.006": 17.2713386579,
			"0.007": 16.9820933418,
			"0.008": 7.34017361638,
			"0.009": 1.05253125678,
			"0.01": 1.13491489274,
			"0.011": 1.57966540419,
			"0.012": 1.1702022348,
			"0.013": 0.897447729851,
			"0.014": 1.39891122043,
			"0.015": 0.744825423928,
			"0.016": 0.0496468451061,
			"0.017": 0.0,
			"0.018": 0.0,
			"0.019": 0.0,
			"0.02": 0.0,
			"0.021": 0.0,
			"0.022": 0.0,
			"0.023": 0.0,
			"0.024": 0.0,
			"0.025": 0.0
		}
	}
}
