{
	 "smiles": "NS(=O)(=O)NCC1=CC=CC=C1", 
	 "Tm": 381.15, 
	 "num_atms": 22, 
	 "gaussian": { 
		 "optdone": 1, 
		 "sigma_profile": "yes", 
		 "theory": "DFT", 
		 "functional": "B3LYP", 
		 "basiset": "6-31G**", 
		 "properties": { 
			 "R2extent": 3370.975, 
			 "electric_dipole_moment_norm": 3.35968537069, 
			 "electric_quadrupole_moment_norm": 16.939610541, 
			 "total_energy": -930.840715539, 
			 "HOMO_LUMO_gap": 0.23719, 
			 "cosmo_polarized_energy": -16.84, 
			 "cosmo_cavitation_energy": 27.47, 
			 "cosmo_dispersion_energy": -20.58, 
			 "cosmo_repulsion_energy": 1.61, 
			 "cosmo_total_nonelectrostatic_energy": 8.5, 
			 "SMD_solvation_energy": 3.71 
		},
		"coords": [
			{
				"x": 3.2504013468,
				"y": -0.153886377,
				"z": 0.9423984966,
				"element": "N" 
			},
			{
				"x": 2.4331684173,
				"y": -1.3986548768,
				"z": 0.1532109509,
				"element": "S" 
			},
			{
				"x": 3.1935824643,
				"y": -1.622553762,
				"z": -1.0765142292,
				"element": "O" 
			},
			{
				"x": 2.1090636174,
				"y": -2.5109047237,
				"z": 1.046310273,
				"element": "O" 
			},
			{
				"x": 0.9727512608,
				"y": -0.6165706704,
				"z": -0.1121601169,
				"element": "N" 
			},
			{
				"x": 0.9188818341,
				"y": 0.3602496096,
				"z": -1.2198750279,
				"element": "C" 
			},
			{
				"x": -0.4470025093,
				"y": 1.00951481,
				"z": -1.2756513541,
				"element": "C" 
			},
			{
				"x": -1.1937619023,
				"y": 0.9855407725,
				"z": -2.4584130738,
				"element": "C" 
			},
			{
				"x": -2.4463818418,
				"y": 1.6007064113,
				"z": -2.5222507182,
				"element": "C" 
			},
			{
				"x": -2.9678156564,
				"y": 2.240457403,
				"z": -1.3979795566,
				"element": "C" 
			},
			{
				"x": -2.2313034795,
				"y": 2.2639109571,
				"z": -0.2101379006,
				"element": "C" 
			},
			{
				"x": -0.9796306095,
				"y": 1.6538070787,
				"z": -0.1497423077,
				"element": "C" 
			},
			{
				"x": 2.9800132138,
				"y": -0.1084205581,
				"z": 1.9217725151,
				"element": "H" 
			},
			{
				"x": 4.2506894783,
				"y": -0.3042986374,
				"z": 0.8402343165,
				"element": "H" 
			},
			{
				"x": 0.2450213215,
				"y": -1.3268522849,
				"z": -0.157623696,
				"element": "H" 
			},
			{
				"x": 1.1612911336,
				"y": -0.1055283717,
				"z": -2.1825167543,
				"element": "H" 
			},
			{
				"x": 1.6930682901,
				"y": 1.1065148946,
				"z": -1.0120751881,
				"element": "H" 
			},
			{
				"x": -0.7920070963,
				"y": 0.484090118,
				"z": -3.335427143,
				"element": "H" 
			},
			{
				"x": -3.0137534884,
				"y": 1.5749051067,
				"z": -3.4481489578,
				"element": "H" 
			},
			{
				"x": -3.9427718583,
				"y": 2.7170279529,
				"z": -1.4443011146,
				"element": "H" 
			},
			{
				"x": -2.6329926357,
				"y": 2.7600926391,
				"z": 0.6688399232,
				"element": "H" 
			},
			{
				"x": -0.4088113006,
				"y": 1.6665525084,
				"z": 0.7742506635,
				"element": "H" 
			}
		],
		 "valence_orbital": [ 
			{
				"type": "occ",
				"energy": -0.30712,
				"method": "rhf"
			},
			{
				"type": "occ",
				"energy": -0.29853,
				"method": "rhf"
			},
			{
				"type": "occ",
				"energy": -0.27241,
				"method": "rhf"
			},
			{
				"type": "occ",
				"energy": -0.25733,
				"method": "rhf"
			},
			{
				"type": "occ",
				"energy": -0.25161,
				"method": "rhf"
			},
			{
				"type": "unocc",
				"energy": -0.01442,
				"method": "rhf"
			},
			{
				"type": "unocc",
				"energy": -0.0082,
				"method": "rhf"
			},
			{
				"type": "unocc",
				"energy": 0.05085,
				"method": "rhf"
			},
			{
				"type": "unocc",
				"energy": 0.08128,
				"method": "rhf"
			},
			{
				"type": "unocc",
				"energy": 0.09382,
				"method": "rhf"
			}
		],
		"cosmo_sigma_profile": { 
			"-0.025": 0.0,
			"-0.024": 0.0,
			"-0.023": 0.0,
			"-0.022": 0.0,
			"-0.021": 0.0,
			"-0.02": 0.0,
			"-0.019": 0.0,
			"-0.018": 0.0,
			"-0.017": 0.0,
			"-0.016": 0.206090405632,
			"-0.015": 2.53176689172,
			"-0.014": 3.79917376723,
			"-0.013": 3.08392064982,
			"-0.012": 3.83592344665,
			"-0.011": 2.84542406369,
			"-0.01": 3.07370648893,
			"-0.009": 2.62903168136,
			"-0.008": 2.37470958533,
			"-0.007": 2.02333421612,
			"-0.006": 9.77050405992,
			"-0.005": 15.9528727899,
			"-0.004": 15.2379277957,
			"-0.003": 16.5795810841,
			"-0.002": 11.5689229631,
			"-0.001": 10.3948205345,
			"0.0": 9.29033244526,
			"0.001": 10.4928150921,
			"0.002": 9.98020583922,
			"0.003": 12.5896839911,
			"0.004": 12.6585318066,
			"0.005": 13.481727095,
			"0.006": 8.86170784706,
			"0.007": 2.81530097041,
			"0.008": 4.17252149632,
			"0.009": 3.94623901736,
			"0.01": 7.50093114363,
			"0.011": 12.0317555698,
			"0.012": 3.87050604544,
			"0.013": 0.0,
			"0.014": 0.0,
			"0.015": 0.0,
			"0.016": 0.0,
			"0.017": 0.0,
			"0.018": 0.0,
			"0.019": 0.0,
			"0.02": 0.0,
			"0.021": 0.0,
			"0.022": 0.0,
			"0.023": 0.0,
			"0.024": 0.0,
			"0.025": 0.0
		}
	}
}
