{
	 "smiles": "OCC1=NC=CC=C1", 
	 "Tm": 278.15, 
	 "num_atms": 15, 
	 "gaussian": { 
		 "optdone": 1, 
		 "sigma_profile": "yes", 
		 "theory": "DFT", 
		 "functional": "B3LYP", 
		 "basiset": "6-31G**", 
		 "properties": { 
			 "R2extent": 1495.2497, 
			 "electric_dipole_moment_norm": 3.82588719776, 
			 "electric_quadrupole_moment_norm": 6.3822735753, 
			 "total_energy": -362.82014157, 
			 "HOMO_LUMO_gap": 0.21302, 
			 "cosmo_polarized_energy": -7.78, 
			 "cosmo_cavitation_energy": 18.46, 
			 "cosmo_dispersion_energy": -14.21, 
			 "cosmo_repulsion_energy": 1.19, 
			 "cosmo_total_nonelectrostatic_energy": 5.44, 
			 "SMD_solvation_energy": 2.5 
		},
		"coords": [
			{
				"x": 1.445198264,
				"y": 1.2868903244,
				"z": 0.2354079849,
				"element": "O" 
			},
			{
				"x": 0.4950810201,
				"y": 0.4876655976,
				"z": -0.416554982,
				"element": "C" 
			},
			{
				"x": -0.9098541622,
				"y": 0.7031887645,
				"z": 0.1258745886,
				"element": "C" 
			},
			{
				"x": -1.0061044969,
				"y": 1.5994614919,
				"z": 1.1136974745,
				"element": "N" 
			},
			{
				"x": -2.2124157114,
				"y": 1.8445290115,
				"z": 1.6443087708,
				"element": "C" 
			},
			{
				"x": -3.3739656141,
				"y": 1.2090864303,
				"z": 1.21543643,
				"element": "C" 
			},
			{
				"x": -3.2713704536,
				"y": 0.2725163039,
				"z": 0.1826772167,
				"element": "C" 
			},
			{
				"x": -2.0225636746,
				"y": 0.0137949134,
				"z": -0.3720250071,
				"element": "C" 
			},
			{
				"x": 0.9359332737,
				"y": 1.7943783023,
				"z": 0.8947670968,
				"element": "H" 
			},
			{
				"x": 0.7522050852,
				"y": -0.5798724745,
				"z": -0.3124525201,
				"element": "H" 
			},
			{
				"x": 0.490340053,
				"y": 0.699335578,
				"z": -1.4990353336,
				"element": "H" 
			},
			{
				"x": -2.244130632,
				"y": 2.5804939743,
				"z": 2.4450430701,
				"element": "H" 
			},
			{
				"x": -4.3288869879,
				"y": 1.4404199557,
				"z": 1.6757623108,
				"element": "H" 
			},
			{
				"x": -4.1535025793,
				"y": -0.2460797347,
				"z": -0.1819359992,
				"element": "H" 
			},
			{
				"x": -1.904363384,
				"y": -0.7074084388,
				"z": -1.1759711011,
				"element": "H" 
			}
		],
		 "valence_orbital": [ 
			{
				"type": "occ",
				"energy": -0.3215,
				"method": "rhf"
			},
			{
				"type": "occ",
				"energy": -0.29694,
				"method": "rhf"
			},
			{
				"type": "occ",
				"energy": -0.27437,
				"method": "rhf"
			},
			{
				"type": "occ",
				"energy": -0.27276,
				"method": "rhf"
			},
			{
				"type": "occ",
				"energy": -0.24533,
				"method": "rhf"
			},
			{
				"type": "unocc",
				"energy": -0.03231,
				"method": "rhf"
			},
			{
				"type": "unocc",
				"energy": -0.01974,
				"method": "rhf"
			},
			{
				"type": "unocc",
				"energy": 0.08944,
				"method": "rhf"
			},
			{
				"type": "unocc",
				"energy": 0.12198,
				"method": "rhf"
			},
			{
				"type": "unocc",
				"energy": 0.12529,
				"method": "rhf"
			}
		],
		"cosmo_sigma_profile": { 
			"-0.025": 0.0,
			"-0.024": 0.0,
			"-0.023": 0.0,
			"-0.022": 0.0,
			"-0.021": 0.0,
			"-0.02": 0.0,
			"-0.019": 0.0,
			"-0.018": 0.0,
			"-0.017": 0.0,
			"-0.016": 0.0,
			"-0.015": 0.0,
			"-0.014": 0.0,
			"-0.013": 0.0,
			"-0.012": 0.0,
			"-0.011": 0.0,
			"-0.01": 0.0,
			"-0.009": 0.0,
			"-0.008": 0.22157394025,
			"-0.007": 6.47172060767,
			"-0.006": 11.0604587236,
			"-0.005": 15.3343400296,
			"-0.004": 13.2615857859,
			"-0.003": 10.1595121187,
			"-0.002": 7.86348359124,
			"-0.001": 9.34860983479,
			"0.0": 9.23492231271,
			"0.001": 10.7687153129,
			"0.002": 15.71786311,
			"0.003": 12.0552473011,
			"0.004": 3.75959305251,
			"0.005": 2.83244450595,
			"0.006": 3.25147840681,
			"0.007": 3.12799003926,
			"0.008": 1.60612210993,
			"0.009": 0.900015981806,
			"0.01": 1.79960055016,
			"0.011": 1.41621606451,
			"0.012": 1.24269679666,
			"0.013": 1.62511349344,
			"0.014": 2.32534633171,
			"0.015": 1.70847356284,
			"0.016": 0.0,
			"0.017": 0.0,
			"0.018": 0.0,
			"0.019": 0.0,
			"0.02": 0.0,
			"0.021": 0.0,
			"0.022": 0.0,
			"0.023": 0.0,
			"0.024": 0.0,
			"0.025": 0.0
		}
	}
}
