{
	 "smiles": "CCCCCCCCCCCCCCCCCCC", 
	 "Tm": 305.65, 
	 "num_atms": 59, 
	 "gaussian": { 
		 "optdone": 1, 
		 "sigma_profile": "yes", 
		 "theory": "DFT", 
		 "functional": "B3LYP", 
		 "basiset": "6-31G**", 
		 "properties": { 
			 "R2extent": 13504.8291, 
			 "electric_dipole_moment_norm": 0.078990379161, 
			 "electric_quadrupole_moment_norm": 0.764020824324, 
			 "total_energy": -748.188600376, 
			 "HOMO_LUMO_gap": 0.37001, 
			 "cosmo_polarized_energy": -1.22, 
			 "cosmo_cavitation_energy": 56.03, 
			 "cosmo_dispersion_energy": -36.67, 
			 "cosmo_repulsion_energy": 3.0, 
			 "cosmo_total_nonelectrostatic_energy": 22.36, 
			 "SMD_solvation_energy": 7.18 
		},
		"coords": [
			{
				"x": 3.6607229481,
				"y": 0.7073904209,
				"z": -3.5599063387,
				"element": "C" 
			},
			{
				"x": 2.2544240485,
				"y": 0.6783098434,
				"z": -4.1672638475,
				"element": "C" 
			},
			{
				"x": 1.9619062303,
				"y": 1.8970980145,
				"z": -5.0563315376,
				"element": "C" 
			},
			{
				"x": 0.5629089902,
				"y": 1.9177639361,
				"z": -5.7118803617,
				"element": "C" 
			},
			{
				"x": -0.5407035304,
				"y": 2.6564186533,
				"z": -4.9331036596,
				"element": "C" 
			},
			{
				"x": -0.9312558772,
				"y": 2.0591089553,
				"z": -3.5735004839,
				"element": "C" 
			},
			{
				"x": -2.1166944141,
				"y": 2.7922297368,
				"z": -2.9291366333,
				"element": "C" 
			},
			{
				"x": -2.6324977249,
				"y": 2.206155984,
				"z": -1.602380915,
				"element": "C" 
			},
			{
				"x": -1.6334780338,
				"y": 2.2539102415,
				"z": -0.421979698,
				"element": "C" 
			},
			{
				"x": -0.8013122781,
				"y": 0.9767551403,
				"z": -0.1920781555,
				"element": "C" 
			},
			{
				"x": -1.6100231124,
				"y": -0.1905128618,
				"z": 0.395101175,
				"element": "C" 
			},
			{
				"x": -0.8220586166,
				"y": -1.5018181754,
				"z": 0.5524431799,
				"element": "C" 
			},
			{
				"x": 0.3250673237,
				"y": -1.4495463173,
				"z": 1.5722224634,
				"element": "C" 
			},
			{
				"x": 1.0264363564,
				"y": -2.8037099066,
				"z": 1.7506858014,
				"element": "C" 
			},
			{
				"x": 2.2433921535,
				"y": -2.7801641275,
				"z": 2.6920604871,
				"element": "C" 
			},
			{
				"x": 1.9536664254,
				"y": -2.3978837235,
				"z": 4.1562150043,
				"element": "C" 
			},
			{
				"x": 0.9749097404,
				"y": -3.3160324616,
				"z": 4.9089611046,
				"element": "C" 
			},
			{
				"x": 1.4490772302,
				"y": -4.7670779744,
				"z": 5.0708761373,
				"element": "C" 
			},
			{
				"x": 0.4861913867,
				"y": -5.6203243337,
				"z": 5.9033488964,
				"element": "C" 
			},
			{
				"x": 4.4291334841,
				"y": 0.7438674771,
				"z": -4.3409510134,
				"element": "H" 
			},
			{
				"x": 3.7990890175,
				"y": 1.5880617552,
				"z": -2.9220101018,
				"element": "H" 
			},
			{
				"x": 3.8520381568,
				"y": -0.1795682617,
				"z": -2.9468466872,
				"element": "H" 
			},
			{
				"x": 1.5126489127,
				"y": 0.6082982659,
				"z": -3.3631070358,
				"element": "H" 
			},
			{
				"x": 2.1344460454,
				"y": -0.2338527385,
				"z": -4.7677643168,
				"element": "H" 
			},
			{
				"x": 2.1071250675,
				"y": 2.8189493879,
				"z": -4.4743883808,
				"element": "H" 
			},
			{
				"x": 2.7251141678,
				"y": 1.9242866261,
				"z": -5.8457406126,
				"element": "H" 
			},
			{
				"x": 0.6437695705,
				"y": 2.3985576456,
				"z": -6.694844307,
				"element": "H" 
			},
			{
				"x": 0.2404649515,
				"y": 0.8860280013,
				"z": -5.9126825298,
				"element": "H" 
			},
			{
				"x": -0.2321247646,
				"y": 3.7019539129,
				"z": -4.7878351931,
				"element": "H" 
			},
			{
				"x": -1.4383287059,
				"y": 2.6957138343,
				"z": -5.5661796295,
				"element": "H" 
			},
			{
				"x": -1.18505772,
				"y": 0.9965625177,
				"z": -3.700873931,
				"element": "H" 
			},
			{
				"x": -0.0693682058,
				"y": 2.0912790017,
				"z": -2.8970678961,
				"element": "H" 
			},
			{
				"x": -2.9489433065,
				"y": 2.8080165236,
				"z": -3.6468260232,
				"element": "H" 
			},
			{
				"x": -1.8404379538,
				"y": 3.8445599955,
				"z": -2.7680602073,
				"element": "H" 
			},
			{
				"x": -3.5357147041,
				"y": 2.7640408448,
				"z": -1.3258691021,
				"element": "H" 
			},
			{
				"x": -2.9656800509,
				"y": 1.1729018723,
				"z": -1.7694605706,
				"element": "H" 
			},
			{
				"x": -2.1807220715,
				"y": 2.4688230744,
				"z": 0.5055676452,
				"element": "H" 
			},
			{
				"x": -0.9556988233,
				"y": 3.1060590826,
				"z": -0.5668485968,
				"element": "H" 
			},
			{
				"x": 0.026717342,
				"y": 1.2191203426,
				"z": 0.4855930629,
				"element": "H" 
			},
			{
				"x": -0.3382669406,
				"y": 0.6544395788,
				"z": -1.1338828534,
				"element": "H" 
			},
			{
				"x": -2.0136797051,
				"y": 0.1101286515,
				"z": 1.3730605202,
				"element": "H" 
			},
			{
				"x": -2.4821253817,
				"y": -0.3852316694,
				"z": -0.2424560738,
				"element": "H" 
			},
			{
				"x": -0.4223088651,
				"y": -1.8033237928,
				"z": -0.4266711614,
				"element": "H" 
			},
			{
				"x": -1.5192602866,
				"y": -2.2971955409,
				"z": 0.8500235406,
				"element": "H" 
			},
			{
				"x": -0.0728662784,
				"y": -1.1030081921,
				"z": 2.5357780439,
				"element": "H" 
			},
			{
				"x": 1.0684790491,
				"y": -0.7023222959,
				"z": 1.26361989,
				"element": "H" 
			},
			{
				"x": 1.3597383704,
				"y": -3.1596034942,
				"z": 0.7661221041,
				"element": "H" 
			},
			{
				"x": 0.2957316042,
				"y": -3.5455182777,
				"z": 2.1011135351,
				"element": "H" 
			},
			{
				"x": 2.9832853812,
				"y": -2.0728194652,
				"z": 2.292747949,
				"element": "H" 
			},
			{
				"x": 2.7286215915,
				"y": -3.7639948384,
				"z": 2.6627695209,
				"element": "H" 
			},
			{
				"x": 2.9075538208,
				"y": -2.3789251243,
				"z": 4.7012165598,
				"element": "H" 
			},
			{
				"x": 1.5705650725,
				"y": -1.3702763099,
				"z": 4.1939467552,
				"element": "H" 
			},
			{
				"x": -0.0040043665,
				"y": -3.3105619849,
				"z": 4.4100404911,
				"element": "H" 
			},
			{
				"x": 0.8003840616,
				"y": -2.8905251233,
				"z": 5.9068605634,
				"element": "H" 
			},
			{
				"x": 2.4423655991,
				"y": -4.7708620322,
				"z": 5.5411134602,
				"element": "H" 
			},
			{
				"x": 1.5793807764,
				"y": -5.2301774238,
				"z": 4.0846105802,
				"element": "H" 
			},
			{
				"x": 0.8461735275,
				"y": -6.6495129338,
				"z": 6.0049843366,
				"element": "H" 
			},
			{
				"x": 0.3635063657,
				"y": -5.2094919723,
				"z": 6.9121629334,
				"element": "H" 
			},
			{
				"x": -0.5074230515,
				"y": -5.6603479648,
				"z": 5.4420821131,
				"element": "H" 
			}
		],
		 "valence_orbital": [ 
			{
				"type": "occ",
				"energy": -0.30341,
				"method": "rhf"
			},
			{
				"type": "occ",
				"energy": -0.30015,
				"method": "rhf"
			},
			{
				"type": "occ",
				"energy": -0.29734,
				"method": "rhf"
			},
			{
				"type": "occ",
				"energy": -0.29377,
				"method": "rhf"
			},
			{
				"type": "occ",
				"energy": -0.29096,
				"method": "rhf"
			},
			{
				"type": "unocc",
				"energy": 0.07905,
				"method": "rhf"
			},
			{
				"type": "unocc",
				"energy": 0.0817,
				"method": "rhf"
			},
			{
				"type": "unocc",
				"energy": 0.09533,
				"method": "rhf"
			},
			{
				"type": "unocc",
				"energy": 0.09643,
				"method": "rhf"
			},
			{
				"type": "unocc",
				"energy": 0.10487,
				"method": "rhf"
			}
		],
		"cosmo_sigma_profile": { 
			"-0.025": 0.0,
			"-0.024": 0.0,
			"-0.023": 0.0,
			"-0.022": 0.0,
			"-0.021": 0.0,
			"-0.02": 0.0,
			"-0.019": 0.0,
			"-0.018": 0.0,
			"-0.017": 0.0,
			"-0.016": 0.0,
			"-0.015": 0.0,
			"-0.014": 0.0,
			"-0.013": 0.0,
			"-0.012": 0.0,
			"-0.011": 0.0,
			"-0.01": 0.0,
			"-0.009": 0.0,
			"-0.008": 0.0,
			"-0.007": 0.0,
			"-0.006": 0.0,
			"-0.005": 0.0,
			"-0.004": 0.0,
			"-0.003": 2.70053229782,
			"-0.002": 43.3967099412,
			"-0.001": 108.92897551,
			"0.0": 120.084044733,
			"0.001": 101.256573597,
			"0.002": 48.9783583412,
			"0.003": 1.51979204392,
			"0.004": 0.0,
			"0.005": 0.0,
			"0.006": 0.0,
			"0.007": 0.0,
			"0.008": 0.0,
			"0.009": 0.0,
			"0.01": 0.0,
			"0.011": 0.0,
			"0.012": 0.0,
			"0.013": 0.0,
			"0.014": 0.0,
			"0.015": 0.0,
			"0.016": 0.0,
			"0.017": 0.0,
			"0.018": 0.0,
			"0.019": 0.0,
			"0.02": 0.0,
			"0.021": 0.0,
			"0.022": 0.0,
			"0.023": 0.0,
			"0.024": 0.0,
			"0.025": 0.0
		}
	}
}
