{
	 "smiles": "OC(=O)C1=CC(=CC(=C1)S(=O)(=O)NC1=CC=CC=C1)[N+]([O-])=O", 
	 "Tm": 450.15, 
	 "num_atms": 32, 
	 "gaussian": { 
		 "optdone": 1, 
		 "sigma_profile": "yes", 
		 "theory": "DFT", 
		 "functional": "B3LYP", 
		 "basiset": "6-31G**", 
		 "properties": { 
			 "R2extent": 8095.8077, 
			 "electric_dipole_moment_norm": 5.17699901584, 
			 "electric_quadrupole_moment_norm": 20.8130280997, 
			 "total_energy": -1460.2716626, 
			 "HOMO_LUMO_gap": 0.13063, 
			 "cosmo_polarized_energy": -27.92, 
			 "cosmo_cavitation_energy": 40.1, 
			 "cosmo_dispersion_energy": -27.55, 
			 "cosmo_repulsion_energy": 2.08, 
			 "cosmo_total_nonelectrostatic_energy": 14.62, 
			 "SMD_solvation_energy": 9.45 
		},
		"coords": [
			{
				"x": -3.8261099041,
				"y": -1.4558485255,
				"z": 2.1206290135,
				"element": "O" 
			},
			{
				"x": -2.6450800373,
				"y": -1.2915353461,
				"z": 2.7615571548,
				"element": "C" 
			},
			{
				"x": -2.4578466377,
				"y": -1.7986229496,
				"z": 3.8403666175,
				"element": "O" 
			},
			{
				"x": -1.5937531374,
				"y": -0.4610372064,
				"z": 2.0719506492,
				"element": "C" 
			},
			{
				"x": -1.8729491465,
				"y": 0.4112064511,
				"z": 1.0161015976,
				"element": "C" 
			},
			{
				"x": -0.8360563054,
				"y": 1.1548050129,
				"z": 0.4590784957,
				"element": "C" 
			},
			{
				"x": 0.4748087376,
				"y": 1.066163376,
				"z": 0.9134691628,
				"element": "C" 
			},
			{
				"x": 0.7327051676,
				"y": 0.1921251879,
				"z": 1.9707135449,
				"element": "C" 
			},
			{
				"x": -0.2828047327,
				"y": -0.5568093725,
				"z": 2.5607292373,
				"element": "C" 
			},
			{
				"x": 2.4251901909,
				"y": 0.0258796634,
				"z": 2.5818009976,
				"element": "S" 
			},
			{
				"x": 3.1067165672,
				"y": 1.2743063668,
				"z": 2.253202535,
				"element": "O" 
			},
			{
				"x": 2.3529579913,
				"y": -0.5140469,
				"z": 3.9368571885,
				"element": "O" 
			},
			{
				"x": 3.1315044567,
				"y": -1.2082666051,
				"z": 1.6725801146,
				"element": "N" 
			},
			{
				"x": 3.2495226927,
				"y": -1.1764301581,
				"z": 0.2516119519,
				"element": "C" 
			},
			{
				"x": 2.7472498332,
				"y": -2.246399665,
				"z": -0.5006354873,
				"element": "C" 
			},
			{
				"x": 2.9030294655,
				"y": -2.2579767458,
				"z": -1.886162855,
				"element": "C" 
			},
			{
				"x": 3.5317121902,
				"y": -1.1918706882,
				"z": -2.5315602058,
				"element": "C" 
			},
			{
				"x": 4.0221443001,
				"y": -0.1230079438,
				"z": -1.7784222367,
				"element": "C" 
			},
			{
				"x": 3.900988181,
				"y": -0.1137903285,
				"z": -0.3890872491,
				"element": "C" 
			},
			{
				"x": -1.1465671416,
				"y": 2.080140004,
				"z": -0.6493764525,
				"element": "N" 
			},
			{
				"x": -2.3151715876,
				"y": 2.1293436037,
				"z": -1.0296551237,
				"element": "O" 
			},
			{
				"x": -0.2189061718,
				"y": 2.731953937,
				"z": -1.1178590175,
				"element": "O" 
			},
			{
				"x": -3.7888636774,
				"y": -1.1220883168,
				"z": 1.2139028482,
				"element": "H" 
			},
			{
				"x": -2.871307123,
				"y": 0.5689511071,
				"z": 0.6234228561,
				"element": "H" 
			},
			{
				"x": 1.2538565541,
				"y": 1.6734225365,
				"z": 0.4709772719,
				"element": "H" 
			},
			{
				"x": -0.0813340768,
				"y": -1.202015537,
				"z": 3.4090880885,
				"element": "H" 
			},
			{
				"x": 2.895549144,
				"y": -2.1097143263,
				"z": 2.0753566271,
				"element": "H" 
			},
			{
				"x": 2.2418806384,
				"y": -3.0687099547,
				"z": -0.0000055858,
				"element": "H" 
			},
			{
				"x": 2.5212041615,
				"y": -3.0970610086,
				"z": -2.4601205344,
				"element": "H" 
			},
			{
				"x": 3.6435858004,
				"y": -1.1965637134,
				"z": -3.6112917919,
				"element": "H" 
			},
			{
				"x": 4.5220173017,
				"y": 0.7051248122,
				"z": -2.2718231161,
				"element": "H" 
			},
			{
				"x": 4.3074263051,
				"y": 0.6981732328,
				"z": 0.2017037033,
				"element": "H" 
			}
		],
		 "valence_orbital": [ 
			{
				"type": "occ",
				"energy": -0.31601,
				"method": "rhf"
			},
			{
				"type": "occ",
				"energy": -0.30989,
				"method": "rhf"
			},
			{
				"type": "occ",
				"energy": -0.30008,
				"method": "rhf"
			},
			{
				"type": "occ",
				"energy": -0.2724,
				"method": "rhf"
			},
			{
				"type": "occ",
				"energy": -0.25034,
				"method": "rhf"
			},
			{
				"type": "unocc",
				"energy": -0.11971,
				"method": "rhf"
			},
			{
				"type": "unocc",
				"energy": -0.09337,
				"method": "rhf"
			},
			{
				"type": "unocc",
				"energy": -0.05197,
				"method": "rhf"
			},
			{
				"type": "unocc",
				"energy": -0.02538,
				"method": "rhf"
			},
			{
				"type": "unocc",
				"energy": -0.02405,
				"method": "rhf"
			}
		],
		"cosmo_sigma_profile": { 
			"-0.025": 0.0,
			"-0.024": 0.0,
			"-0.023": 0.0,
			"-0.022": 0.0,
			"-0.021": 0.327439642335,
			"-0.02": 1.09591925999,
			"-0.019": 1.25540252757,
			"-0.018": 0.75226136961,
			"-0.017": 0.735719766094,
			"-0.016": 1.83348129437,
			"-0.015": 2.51505652046,
			"-0.014": 2.54730619173,
			"-0.013": 2.59143902133,
			"-0.012": 2.42003723658,
			"-0.011": 2.74300495137,
			"-0.01": 2.19534196694,
			"-0.009": 2.81754301559,
			"-0.008": 5.87919349636,
			"-0.007": 7.45376699472,
			"-0.006": 14.7051600978,
			"-0.005": 20.2084434235,
			"-0.004": 25.9447622001,
			"-0.003": 26.1101122484,
			"-0.002": 20.9972793872,
			"-0.001": 13.1114597437,
			"0.0": 13.317784002,
			"0.001": 13.9008837942,
			"0.002": 15.1093330284,
			"0.003": 16.4677739614,
			"0.004": 18.5685504045,
			"0.005": 15.2851113614,
			"0.006": 13.1896213524,
			"0.007": 12.9271201113,
			"0.008": 11.5964039369,
			"0.009": 13.1636829472,
			"0.01": 12.9797754391,
			"0.011": 6.40246174417,
			"0.012": 1.52140023705,
			"0.013": 0.0439111761519,
			"0.014": 0.0,
			"0.015": 0.0,
			"0.016": 0.0,
			"0.017": 0.0,
			"0.018": 0.0,
			"0.019": 0.0,
			"0.02": 0.0,
			"0.021": 0.0,
			"0.022": 0.0,
			"0.023": 0.0,
			"0.024": 0.0,
			"0.025": 0.0
		}
	}
}
