{
	 "smiles": "N#CC1=C(COC2=CC=CC=C2)C=CC=C1", 
	 "Tm": 336.15, 
	 "num_atms": 27, 
	 "gaussian": { 
		 "optdone": 1, 
		 "sigma_profile": "yes", 
		 "theory": "DFT", 
		 "functional": "B3LYP", 
		 "basiset": "6-31G**", 
		 "properties": { 
			 "R2extent": 5285.2151, 
			 "electric_dipole_moment_norm": 3.34978901425, 
			 "electric_quadrupole_moment_norm": 23.2777094204, 
			 "total_energy": -670.07000027, 
			 "HOMO_LUMO_gap": 0.17012, 
			 "cosmo_polarized_energy": -10.33, 
			 "cosmo_cavitation_energy": 32.44, 
			 "cosmo_dispersion_energy": -22.87, 
			 "cosmo_repulsion_energy": 1.76, 
			 "cosmo_total_nonelectrostatic_energy": 11.33, 
			 "SMD_solvation_energy": 6.73 
		},
		"coords": [
			{
				"x": 2.3973970999,
				"y": 4.38300363,
				"z": -0.8104891202,
				"element": "N" 
			},
			{
				"x": 2.6402932169,
				"y": 3.3751115835,
				"z": -0.2814818129,
				"element": "C" 
			},
			{
				"x": 2.9129155436,
				"y": 2.1250507646,
				"z": 0.3670679803,
				"element": "C" 
			},
			{
				"x": 1.8767934118,
				"y": 1.1787891558,
				"z": 0.5300136765,
				"element": "C" 
			},
			{
				"x": 0.4913637707,
				"y": 1.5004841666,
				"z": 0.016203336,
				"element": "C" 
			},
			{
				"x": -0.3730717544,
				"y": 0.4123927248,
				"z": 0.2867206591,
				"element": "O" 
			},
			{
				"x": -1.6837789485,
				"y": 0.5102153948,
				"z": -0.1035972158,
				"element": "C" 
			},
			{
				"x": -2.4854729284,
				"y": -0.6006405014,
				"z": 0.19415703,
				"element": "C" 
			},
			{
				"x": -3.8299615337,
				"y": -0.6002857935,
				"z": -0.1602964839,
				"element": "C" 
			},
			{
				"x": -4.3921693383,
				"y": 0.5020376749,
				"z": -0.8135420898,
				"element": "C" 
			},
			{
				"x": -3.5894685438,
				"y": 1.6019117128,
				"z": -1.1060222255,
				"element": "C" 
			},
			{
				"x": -2.2347816328,
				"y": 1.6181569339,
				"z": -0.756513807,
				"element": "C" 
			},
			{
				"x": 2.1718788951,
				"y": -0.0277611327,
				"z": 1.1645476306,
				"element": "C" 
			},
			{
				"x": 3.4627031989,
				"y": -0.2926468773,
				"z": 1.6274772423,
				"element": "C" 
			},
			{
				"x": 4.4828455765,
				"y": 0.6456923588,
				"z": 1.4639386013,
				"element": "C" 
			},
			{
				"x": 4.2096080201,
				"y": 1.8560831584,
				"z": 0.8334735769,
				"element": "C" 
			},
			{
				"x": 0.5316930725,
				"y": 1.7014214751,
				"z": -1.064802082,
				"element": "H" 
			},
			{
				"x": 0.1189321539,
				"y": 2.4174898324,
				"z": 0.4968032285,
				"element": "H" 
			},
			{
				"x": -2.0333464273,
				"y": -1.4469880361,
				"z": 0.7011491726,
				"element": "H" 
			},
			{
				"x": -4.4429581884,
				"y": -1.4657626041,
				"z": 0.0747659766,
				"element": "H" 
			},
			{
				"x": -5.4420474546,
				"y": 0.4999164653,
				"z": -1.0892123979,
				"element": "H" 
			},
			{
				"x": -4.0115835149,
				"y": 2.4650701449,
				"z": -1.6127971341,
				"element": "H" 
			},
			{
				"x": -1.6330252923,
				"y": 2.4867553165,
				"z": -0.9959942625,
				"element": "H" 
			},
			{
				"x": 1.3801096922,
				"y": -0.7556633702,
				"z": 1.2913256731,
				"element": "H" 
			},
			{
				"x": 3.6702719318,
				"y": -1.2387539307,
				"z": 2.1187193666,
				"element": "H" 
			},
			{
				"x": 5.4851187322,
				"y": 0.4374025094,
				"z": 1.8245802396,
				"element": "H" 
			},
			{
				"x": 4.9873412415,
				"y": 2.5998172433,
				"z": 0.6957052417,
				"element": "H" 
			}
		],
		 "valence_orbital": [ 
			{
				"type": "occ",
				"energy": -0.3259,
				"method": "rhf"
			},
			{
				"type": "occ",
				"energy": -0.27107,
				"method": "rhf"
			},
			{
				"type": "occ",
				"energy": -0.26448,
				"method": "rhf"
			},
			{
				"type": "occ",
				"energy": -0.25299,
				"method": "rhf"
			},
			{
				"type": "occ",
				"energy": -0.22491,
				"method": "rhf"
			},
			{
				"type": "unocc",
				"energy": -0.05479,
				"method": "rhf"
			},
			{
				"type": "unocc",
				"energy": -0.02229,
				"method": "rhf"
			},
			{
				"type": "unocc",
				"energy": -0.00326,
				"method": "rhf"
			},
			{
				"type": "unocc",
				"energy": 0.00982,
				"method": "rhf"
			},
			{
				"type": "unocc",
				"energy": 0.02932,
				"method": "rhf"
			}
		],
		"cosmo_sigma_profile": { 
			"-0.025": 0.0,
			"-0.024": 0.0,
			"-0.023": 0.0,
			"-0.022": 0.0,
			"-0.021": 0.0,
			"-0.02": 0.0,
			"-0.019": 0.0,
			"-0.018": 0.0,
			"-0.017": 0.0,
			"-0.016": 0.0,
			"-0.015": 0.0,
			"-0.014": 0.0,
			"-0.013": 0.0,
			"-0.012": 0.0,
			"-0.011": 0.0,
			"-0.01": 0.0,
			"-0.009": 0.0242517468377,
			"-0.008": 1.75578544806,
			"-0.007": 10.3214742103,
			"-0.006": 19.7932779635,
			"-0.005": 22.6771956045,
			"-0.004": 20.4246550515,
			"-0.003": 17.8897398564,
			"-0.002": 16.0388709524,
			"-0.001": 17.2280931352,
			"0.0": 15.7823880944,
			"0.001": 18.6077729828,
			"0.002": 21.1048076316,
			"0.003": 21.8485888686,
			"0.004": 13.9837297408,
			"0.005": 13.2812203767,
			"0.006": 11.0538492592,
			"0.007": 3.5342292592,
			"0.008": 2.97382570567,
			"0.009": 3.23548799886,
			"0.01": 3.15942597207,
			"0.011": 2.73482415058,
			"0.012": 2.46679344749,
			"0.013": 1.36507324502,
			"0.014": 0.0390331422808,
			"0.015": 0.0,
			"0.016": 0.0,
			"0.017": 0.0,
			"0.018": 0.0,
			"0.019": 0.0,
			"0.02": 0.0,
			"0.021": 0.0,
			"0.022": 0.0,
			"0.023": 0.0,
			"0.024": 0.0,
			"0.025": 0.0
		}
	}
}
