{
	 "smiles": "CC1=CC(C)=C(C#N)C(=O)N1N=CC1=CC=C(C=C1)[N+]([O-])=O", 
	 "Tm": 533.15, 
	 "num_atms": 34, 
	 "gaussian": { 
		 "optdone": 1, 
		 "sigma_profile": "yes", 
		 "theory": "DFT", 
		 "functional": "B3LYP", 
		 "basiset": "6-31G**", 
		 "properties": { 
			 "R2extent": 10989.3368, 
			 "electric_dipole_moment_norm": 6.75920257279, 
			 "electric_quadrupole_moment_norm": 41.0715908325, 
			 "total_energy": -1023.36827921, 
			 "HOMO_LUMO_gap": 0.12933, 
			 "cosmo_polarized_energy": -20.69, 
			 "cosmo_cavitation_energy": 41.11, 
			 "cosmo_dispersion_energy": -28.64, 
			 "cosmo_repulsion_energy": 2.13, 
			 "cosmo_total_nonelectrostatic_energy": 14.61, 
			 "SMD_solvation_energy": 11.06 
		},
		"coords": [
			{
				"x": 0.0300936974,
				"y": 1.7372620749,
				"z": 2.3454715523,
				"element": "C" 
			},
			{
				"x": 0.539010567,
				"y": 2.5615354253,
				"z": 1.2000292041,
				"element": "C" 
			},
			{
				"x": 1.0636648272,
				"y": 3.8109526734,
				"z": 1.3898137179,
				"element": "C" 
			},
			{
				"x": 1.5478478778,
				"y": 4.5985485505,
				"z": 0.3130116595,
				"element": "C" 
			},
			{
				"x": 2.1126596416,
				"y": 5.9631830818,
				"z": 0.5967530606,
				"element": "C" 
			},
			{
				"x": 1.4782837702,
				"y": 4.068598018,
				"z": -0.9614301097,
				"element": "C" 
			},
			{
				"x": 1.9431884997,
				"y": 4.7937765983,
				"z": -2.1020476389,
				"element": "C" 
			},
			{
				"x": 2.3323524024,
				"y": 5.4160466704,
				"z": -3.0051777003,
				"element": "N" 
			},
			{
				"x": 0.9313033487,
				"y": 2.7440316515,
				"z": -1.2361583017,
				"element": "C" 
			},
			{
				"x": 0.862117203,
				"y": 2.2590038348,
				"z": -2.3595507854,
				"element": "O" 
			},
			{
				"x": 0.4679215252,
				"y": 2.0265959705,
				"z": -0.081399915,
				"element": "N" 
			},
			{
				"x": -0.0839643159,
				"y": 0.7600831403,
				"z": -0.1146244984,
				"element": "N" 
			},
			{
				"x": -0.2429820042,
				"y": 0.0868517334,
				"z": -1.2027851453,
				"element": "C" 
			},
			{
				"x": -0.8414921138,
				"y": -1.2535041406,
				"z": -1.1217783548,
				"element": "C" 
			},
			{
				"x": -1.2477220621,
				"y": -1.8342467894,
				"z": 0.0947439327,
				"element": "C" 
			},
			{
				"x": -1.8079585649,
				"y": -3.1031129609,
				"z": 0.1180940435,
				"element": "C" 
			},
			{
				"x": -1.9614902842,
				"y": -3.793405943,
				"z": -1.086540507,
				"element": "C" 
			},
			{
				"x": -1.5705573362,
				"y": -3.2487897136,
				"z": -2.3070355122,
				"element": "C" 
			},
			{
				"x": -1.0100365397,
				"y": -1.9753239808,
				"z": -2.3160542306,
				"element": "C" 
			},
			{
				"x": -2.555632055,
				"y": -5.1398265108,
				"z": -1.0645483478,
				"element": "N" 
			},
			{
				"x": -2.6795231102,
				"y": -5.7258435412,
				"z": -2.1392133508,
				"element": "O" 
			},
			{
				"x": -2.8916734152,
				"y": -5.5958219444,
				"z": 0.0280181103,
				"element": "O" 
			},
			{
				"x": 0.1562338277,
				"y": 2.2953744718,
				"z": 3.2749151455,
				"element": "H" 
			},
			{
				"x": -1.0274079133,
				"y": 1.4905453263,
				"z": 2.2169090625,
				"element": "H" 
			},
			{
				"x": 0.5693774162,
				"y": 0.7890514291,
				"z": 2.4214562219,
				"element": "H" 
			},
			{
				"x": 1.1064737768,
				"y": 4.2029598496,
				"z": 2.3990249142,
				"element": "H" 
			},
			{
				"x": 1.3627308659,
				"y": 6.5858215129,
				"z": 1.0973733445,
				"element": "H" 
			},
			{
				"x": 2.9685353477,
				"y": 5.8831957234,
				"z": 1.2765352236,
				"element": "H" 
			},
			{
				"x": 2.4371055462,
				"y": 6.4711433353,
				"z": -0.3119012556,
				"element": "H" 
			},
			{
				"x": 0.0420768079,
				"y": 0.456535111,
				"z": -2.1804462667,
				"element": "H" 
			},
			{
				"x": -1.1166486976,
				"y": -1.2757367915,
				"z": 1.0141995015,
				"element": "H" 
			},
			{
				"x": -2.1279232755,
				"y": -3.5705359264,
				"z": 1.0408595656,
				"element": "H" 
			},
			{
				"x": -1.7087382438,
				"y": -3.8205961741,
				"z": -3.2158844205,
				"element": "H" 
			},
			{
				"x": -0.6983270168,
				"y": -1.5319517657,
				"z": -3.2572319194,
				"element": "H" 
			}
		],
		 "valence_orbital": [ 
			{
				"type": "occ",
				"energy": -0.29657,
				"method": "rhf"
			},
			{
				"type": "occ",
				"energy": -0.28799,
				"method": "rhf"
			},
			{
				"type": "occ",
				"energy": -0.27081,
				"method": "rhf"
			},
			{
				"type": "occ",
				"energy": -0.27057,
				"method": "rhf"
			},
			{
				"type": "occ",
				"energy": -0.23979,
				"method": "rhf"
			},
			{
				"type": "unocc",
				"energy": -0.11046,
				"method": "rhf"
			},
			{
				"type": "unocc",
				"energy": -0.07801,
				"method": "rhf"
			},
			{
				"type": "unocc",
				"energy": -0.04532,
				"method": "rhf"
			},
			{
				"type": "unocc",
				"energy": -0.03458,
				"method": "rhf"
			},
			{
				"type": "unocc",
				"energy": -0.01658,
				"method": "rhf"
			}
		],
		"cosmo_sigma_profile": { 
			"-0.025": 0.0,
			"-0.024": 0.0,
			"-0.023": 0.0,
			"-0.022": 0.0,
			"-0.021": 0.0,
			"-0.02": 0.0,
			"-0.019": 0.0,
			"-0.018": 0.0,
			"-0.017": 0.0,
			"-0.016": 0.0,
			"-0.015": 0.0,
			"-0.014": 0.0,
			"-0.013": 0.0,
			"-0.012": 0.0,
			"-0.011": 0.0,
			"-0.01": 0.0241823909712,
			"-0.009": 1.07230069028,
			"-0.008": 6.15145863523,
			"-0.007": 11.0059163837,
			"-0.006": 19.0027383162,
			"-0.005": 22.4393661412,
			"-0.004": 24.9561855728,
			"-0.003": 30.9603297591,
			"-0.002": 39.8434162363,
			"-0.001": 33.2698705105,
			"0.0": 24.1833606566,
			"0.001": 25.9958495255,
			"0.002": 11.4619938988,
			"0.003": 7.04639611282,
			"0.004": 5.45436844299,
			"0.005": 6.32231766462,
			"0.006": 7.00877384748,
			"0.007": 12.2401362816,
			"0.008": 12.5254499149,
			"0.009": 10.5174873774,
			"0.01": 7.30727458685,
			"0.011": 5.34741843068,
			"0.012": 4.75701026727,
			"0.013": 2.15554703481,
			"0.014": 0.164995918253,
			"0.015": 0.0,
			"0.016": 0.0,
			"0.017": 0.0,
			"0.018": 0.0,
			"0.019": 0.0,
			"0.02": 0.0,
			"0.021": 0.0,
			"0.022": 0.0,
			"0.023": 0.0,
			"0.024": 0.0,
			"0.025": 0.0
		}
	}
}
