{
	 "smiles": "COC1=CC(C=CCO)=CC=C1O", 
	 "Tm": 348.15, 
	 "num_atms": 25, 
	 "gaussian": { 
		 "optdone": 1, 
		 "sigma_profile": "yes", 
		 "theory": "DFT", 
		 "functional": "B3LYP", 
		 "basiset": "6-31G**", 
		 "properties": { 
			 "R2extent": 3885.4012, 
			 "electric_dipole_moment_norm": 3.5132311481, 
			 "electric_quadrupole_moment_norm": 12.8216538223, 
			 "total_energy": -613.9269453, 
			 "HOMO_LUMO_gap": 0.17321, 
			 "cosmo_polarized_energy": -12.57, 
			 "cosmo_cavitation_energy": 28.86, 
			 "cosmo_dispersion_energy": -21.21, 
			 "cosmo_repulsion_energy": 1.7, 
			 "cosmo_total_nonelectrostatic_energy": 9.35, 
			 "SMD_solvation_energy": 6.09 
		},
		"coords": [
			{
				"x": -1.9772671132,
				"y": -1.9270757003,
				"z": 2.6341053977,
				"element": "C" 
			},
			{
				"x": -2.4770035618,
				"y": -1.8355254354,
				"z": 1.3093882198,
				"element": "O" 
			},
			{
				"x": -1.5997910363,
				"y": -1.5025198884,
				"z": 0.303322907,
				"element": "C" 
			},
			{
				"x": -0.244656094,
				"y": -1.2501735257,
				"z": 0.4528211602,
				"element": "C" 
			},
			{
				"x": 0.5497965283,
				"y": -0.9174396681,
				"z": -0.6672586935,
				"element": "C" 
			},
			{
				"x": 1.9866860927,
				"y": -0.6343742964,
				"z": -0.5696134138,
				"element": "C" 
			},
			{
				"x": 2.7487024024,
				"y": -0.5827734658,
				"z": 0.5329618445,
				"element": "C" 
			},
			{
				"x": 4.228370534,
				"y": -0.295607719,
				"z": 0.5197722642,
				"element": "C" 
			},
			{
				"x": 4.8219312239,
				"y": -0.3187286725,
				"z": -0.7673805605,
				"element": "O" 
			},
			{
				"x": -0.0709871944,
				"y": -0.8577804609,
				"z": -1.9227794925,
				"element": "C" 
			},
			{
				"x": -1.4352888253,
				"y": -1.1114849749,
				"z": -2.0767719113,
				"element": "C" 
			},
			{
				"x": -2.2097399885,
				"y": -1.4346525355,
				"z": -0.9696222837,
				"element": "C" 
			},
			{
				"x": -3.5397556399,
				"y": -1.6865392048,
				"z": -1.1040234677,
				"element": "O" 
			},
			{
				"x": -2.827693435,
				"y": -2.1925739675,
				"z": 3.2638672666,
				"element": "H" 
			},
			{
				"x": -1.2071180615,
				"y": -2.7041561618,
				"z": 2.7177497381,
				"element": "H" 
			},
			{
				"x": -1.5607350596,
				"y": -0.9694683419,
				"z": 2.9707923516,
				"element": "H" 
			},
			{
				"x": 0.2101547276,
				"y": -1.3116856507,
				"z": 1.4342557474,
				"element": "H" 
			},
			{
				"x": 2.4793010159,
				"y": -0.4330883419,
				"z": -1.519875035,
				"element": "H" 
			},
			{
				"x": 2.3213671825,
				"y": -0.7467619821,
				"z": 1.5218916236,
				"element": "H" 
			},
			{
				"x": 4.7383151043,
				"y": -0.9920775002,
				"z": 1.2088652552,
				"element": "H" 
			},
			{
				"x": 4.4209962969,
				"y": 0.7115229648,
				"z": 0.9145414798,
				"element": "H" 
			},
			{
				"x": 4.6673148845,
				"y": -1.1991321512,
				"z": -1.1360317316,
				"element": "H" 
			},
			{
				"x": 0.5233409624,
				"y": -0.6037284483,
				"z": -2.7959855532,
				"element": "H" 
			},
			{
				"x": -1.9129979445,
				"y": -1.0626177045,
				"z": -3.0496938973,
				"element": "H" 
			},
			{
				"x": -3.8803430015,
				"y": -1.8871571668,
				"z": -0.2184992158,
				"element": "H" 
			}
		],
		 "valence_orbital": [ 
			{
				"type": "occ",
				"energy": -0.32698,
				"method": "rhf"
			},
			{
				"type": "occ",
				"energy": -0.27718,
				"method": "rhf"
			},
			{
				"type": "occ",
				"energy": -0.26343,
				"method": "rhf"
			},
			{
				"type": "occ",
				"energy": -0.23424,
				"method": "rhf"
			},
			{
				"type": "occ",
				"energy": -0.19439,
				"method": "rhf"
			},
			{
				"type": "unocc",
				"energy": -0.02118,
				"method": "rhf"
			},
			{
				"type": "unocc",
				"energy": 0.01103,
				"method": "rhf"
			},
			{
				"type": "unocc",
				"energy": 0.07132,
				"method": "rhf"
			},
			{
				"type": "unocc",
				"energy": 0.07719,
				"method": "rhf"
			},
			{
				"type": "unocc",
				"energy": 0.08457,
				"method": "rhf"
			}
		],
		"cosmo_sigma_profile": { 
			"-0.025": 0.0,
			"-0.024": 0.0,
			"-0.023": 0.0,
			"-0.022": 0.0,
			"-0.021": 0.0,
			"-0.02": 0.0,
			"-0.019": 0.0,
			"-0.018": 0.0,
			"-0.017": 0.0,
			"-0.016": 0.0154724796077,
			"-0.015": 0.588944567432,
			"-0.014": 1.0311113625,
			"-0.013": 1.66572712353,
			"-0.012": 2.01047540922,
			"-0.011": 0.647274185985,
			"-0.01": 0.979835718386,
			"-0.009": 1.2593492556,
			"-0.008": 1.97932058261,
			"-0.007": 4.15764262592,
			"-0.006": 11.5964928023,
			"-0.005": 19.9777836297,
			"-0.004": 23.5174567642,
			"-0.003": 22.6857419137,
			"-0.002": 13.924870061,
			"-0.001": 11.7226060194,
			"0.0": 8.23035390593,
			"0.001": 11.2731054777,
			"0.002": 13.4132742152,
			"0.003": 12.4469715951,
			"0.004": 14.2811189365,
			"0.005": 18.3362774219,
			"0.006": 11.1784795613,
			"0.007": 3.34910483107,
			"0.008": 3.25131188679,
			"0.009": 2.6188154394,
			"0.01": 2.54983710944,
			"0.011": 2.93278927113,
			"0.012": 2.663017383,
			"0.013": 1.6053272456,
			"0.014": 2.21748166059,
			"0.015": 0.220923077373,
			"0.016": 0.0,
			"0.017": 0.0,
			"0.018": 0.0,
			"0.019": 0.0,
			"0.02": 0.0,
			"0.021": 0.0,
			"0.022": 0.0,
			"0.023": 0.0,
			"0.024": 0.0,
			"0.025": 0.0
		}
	}
}
