{
	 "smiles": "NC1=CC(=C(Br)C=C1)[N+]([O-])=O", 
	 "Tm": 403.15, 
	 "num_atms": 16, 
	 "gaussian": { 
		 "optdone": 1, 
		 "sigma_profile": "yes", 
		 "theory": "DFT", 
		 "functional": "B3LYP", 
		 "basiset": "6-31G**", 
		 "properties": { 
			 "R2extent": 2762.7112, 
			 "electric_dipole_moment_norm": 6.24451485866, 
			 "electric_quadrupole_moment_norm": 11.0015641002, 
			 "total_energy": -3062.89627135, 
			 "HOMO_LUMO_gap": 0.1411, 
			 "cosmo_polarized_energy": -13.86, 
			 "cosmo_cavitation_energy": 23.34, 
			 "cosmo_dispersion_energy": -17.73, 
			 "cosmo_repulsion_energy": 1.43, 
			 "cosmo_total_nonelectrostatic_energy": 7.03, 
			 "SMD_solvation_energy": 5.18 
		},
		"coords": [
			{
				"x": 0.0798859824,
				"y": -1.4819704401,
				"z": -3.0901135361,
				"element": "N" 
			},
			{
				"x": -0.0988847712,
				"y": -0.8441612429,
				"z": -1.8717042055,
				"element": "C" 
			},
			{
				"x": -0.5049755577,
				"y": -1.5594940364,
				"z": -0.7381115684,
				"element": "C" 
			},
			{
				"x": -0.7544671512,
				"y": -0.9066265581,
				"z": 0.4678011881,
				"element": "C" 
			},
			{
				"x": -0.5853125009,
				"y": 0.4780419674,
				"z": 0.5962498996,
				"element": "C" 
			},
			{
				"x": -0.7992641481,
				"y": 1.4600785334,
				"z": 2.2090677546,
				"element": "Br" 
			},
			{
				"x": -0.1608417416,
				"y": 1.1844680885,
				"z": -0.5333387524,
				"element": "C" 
			},
			{
				"x": 0.0686865202,
				"y": 0.5474224224,
				"z": -1.7453649532,
				"element": "C" 
			},
			{
				"x": -1.2103236318,
				"y": -1.7717924532,
				"z": 1.5731994631,
				"element": "N" 
			},
			{
				"x": -0.8088200416,
				"y": -2.936591366,
				"z": 1.570123998,
				"element": "O" 
			},
			{
				"x": -1.975258096,
				"y": -1.2944237843,
				"z": 2.40375908,
				"element": "O" 
			},
			{
				"x": 0.2457974697,
				"y": -2.4773740535,
				"z": -3.0547695188,
				"element": "H" 
			},
			{
				"x": 0.6659490679,
				"y": -1.0079077631,
				"z": -3.7617646886,
				"element": "H" 
			},
			{
				"x": -0.6366337982,
				"y": -2.6345661805,
				"z": -0.7720432928,
				"element": "H" 
			},
			{
				"x": -0.0057393189,
				"y": 2.2539782785,
				"z": -0.4499894714,
				"element": "H" 
			},
			{
				"x": 0.3839017171,
				"y": 1.133218588,
				"z": -2.6045013961,
				"element": "H" 
			}
		],
		 "valence_orbital": [ 
			{
				"type": "occ",
				"energy": -0.30248,
				"method": "rhf"
			},
			{
				"type": "occ",
				"energy": -0.29335,
				"method": "rhf"
			},
			{
				"type": "occ",
				"energy": -0.28197,
				"method": "rhf"
			},
			{
				"type": "occ",
				"energy": -0.27091,
				"method": "rhf"
			},
			{
				"type": "occ",
				"energy": -0.22519,
				"method": "rhf"
			},
			{
				"type": "unocc",
				"energy": -0.08409,
				"method": "rhf"
			},
			{
				"type": "unocc",
				"energy": -0.02224,
				"method": "rhf"
			},
			{
				"type": "unocc",
				"energy": -0.00589,
				"method": "rhf"
			},
			{
				"type": "unocc",
				"energy": -0.00116,
				"method": "rhf"
			},
			{
				"type": "unocc",
				"energy": 0.06308,
				"method": "rhf"
			}
		],
		"cosmo_sigma_profile": { 
			"-0.025": 0.0,
			"-0.024": 0.0,
			"-0.023": 0.0,
			"-0.022": 0.0,
			"-0.021": 0.0,
			"-0.02": 0.0,
			"-0.019": 0.0,
			"-0.018": 0.0,
			"-0.017": 0.0,
			"-0.016": 0.0,
			"-0.015": 0.0,
			"-0.014": 0.740296738431,
			"-0.013": 3.12900601524,
			"-0.012": 3.46753144857,
			"-0.011": 3.61489473893,
			"-0.01": 3.74199483364,
			"-0.009": 2.77841907462,
			"-0.008": 4.20692456516,
			"-0.007": 7.18543051426,
			"-0.006": 7.92362321897,
			"-0.005": 7.87338889093,
			"-0.004": 7.54178842213,
			"-0.003": 7.12308244488,
			"-0.002": 8.86276392325,
			"-0.001": 9.09787598512,
			"0.0": 11.2113715071,
			"0.001": 18.4679832892,
			"0.002": 18.9398053399,
			"0.003": 11.1610803562,
			"0.004": 12.154330173,
			"0.005": 5.55609521189,
			"0.006": 6.52687595522,
			"0.007": 8.11505391396,
			"0.008": 11.7863331438,
			"0.009": 5.01624049607,
			"0.01": 2.38084035293,
			"0.011": 0.753611798414,
			"0.012": 0.468431700318,
			"0.013": 0.137565052841,
			"0.014": 0.0,
			"0.015": 0.0,
			"0.016": 0.0,
			"0.017": 0.0,
			"0.018": 0.0,
			"0.019": 0.0,
			"0.02": 0.0,
			"0.021": 0.0,
			"0.022": 0.0,
			"0.023": 0.0,
			"0.024": 0.0,
			"0.025": 0.0
		}
	}
}
