{
	 "smiles": "[O-][N+](=O)C1=CC(=C(C=C1C(=O)C[N+]#N)C(=O)C[N+]#N)[N+]([O-])=O", 
	 "Tm": 421.15, 
	 "num_atms": 28, 
	 "gaussian": { 
		 "optdone": 1, 
		 "sigma_profile": "yes", 
		 "theory": "DFT", 
		 "functional": "B3LYP", 
		 "basiset": "6-31G**", 
		 "properties": { 
			 "R2extent": 7449.6014, 
			 "electric_dipole_moment_norm": 10.1365189187, 
			 "electric_quadrupole_moment_norm": 111.587569656, 
			 "total_energy": -1163.54103274, 
			 "HOMO_LUMO_gap": 0.16805, 
			 "cosmo_polarized_energy": -47.15, 
			 "cosmo_cavitation_energy": 37.66, 
			 "cosmo_dispersion_energy": -25.43, 
			 "cosmo_repulsion_energy": 1.96, 
			 "cosmo_total_nonelectrostatic_energy": 14.19, 
			 "SMD_solvation_energy": 7.13 
		},
		"coords": [
			{
				"x": 0.4005445889,
				"y": 3.2036552729,
				"z": -2.3814949486,
				"element": "O" 
			},
			{
				"x": -0.1653462658,
				"y": 2.9490685101,
				"z": -1.3420948529,
				"element": "N" 
			},
			{
				"x": -0.8877339815,
				"y": 3.7267835029,
				"z": -0.6965191053,
				"element": "O" 
			},
			{
				"x": -0.0075563194,
				"y": 1.5964168716,
				"z": -0.7660506436,
				"element": "C" 
			},
			{
				"x": 0.7711251927,
				"y": 0.675985368,
				"z": -1.4522962587,
				"element": "C" 
			},
			{
				"x": 0.8645372915,
				"y": -0.6161683128,
				"z": -0.94943604,
				"element": "C" 
			},
			{
				"x": 0.168440957,
				"y": -1.0230326617,
				"z": 0.2026036197,
				"element": "C" 
			},
			{
				"x": -0.5837563961,
				"y": -0.0487636301,
				"z": 0.8835575513,
				"element": "C" 
			},
			{
				"x": -0.6675988192,
				"y": 1.2700822699,
				"z": 0.4243746111,
				"element": "C" 
			},
			{
				"x": -1.5673650886,
				"y": 2.2210062049,
				"z": 1.1804605963,
				"element": "C" 
			},
			{
				"x": -2.7390274688,
				"y": 2.0200380256,
				"z": 1.3352290874,
				"element": "O" 
			},
			{
				"x": -0.8950487119,
				"y": 3.421377421,
				"z": 1.9662836786,
				"element": "C" 
			},
			{
				"x": -1.759160856,
				"y": 4.5692409165,
				"z": 1.8164011017,
				"element": "N" 
			},
			{
				"x": -2.4628178295,
				"y": 5.4072498371,
				"z": 1.662152505,
				"element": "N" 
			},
			{
				"x": 0.1440026972,
				"y": -2.382660313,
				"z": 0.8716375408,
				"element": "C" 
			},
			{
				"x": 0.10455595,
				"y": -2.4722377099,
				"z": 2.0725886569,
				"element": "O" 
			},
			{
				"x": 0.0068803451,
				"y": -3.7206183868,
				"z": 0.0549497172,
				"element": "C" 
			},
			{
				"x": -0.877845103,
				"y": -4.5932813439,
				"z": 0.8479328457,
				"element": "N" 
			},
			{
				"x": -1.513652628,
				"y": -5.24761161,
				"z": 1.4701922444,
				"element": "N" 
			},
			{
				"x": 1.7849713976,
				"y": -1.5365998472,
				"z": -1.6559966403,
				"element": "N" 
			},
			{
				"x": 2.3406974103,
				"y": -1.1367607044,
				"z": -2.6558356167,
				"element": "O" 
			},
			{
				"x": 1.9236105252,
				"y": -2.6538016314,
				"z": -1.1435597159,
				"element": "O" 
			},
			{
				"x": 1.2989955068,
				"y": 0.9559158799,
				"z": -2.3581293408,
				"element": "H" 
			},
			{
				"x": -1.1113076179,
				"y": -0.3356408047,
				"z": 1.7868832719,
				"element": "H" 
			},
			{
				"x": 0.0888344591,
				"y": 3.7353467585,
				"z": 1.6115355047,
				"element": "H" 
			},
			{
				"x": -0.8762774631,
				"y": 3.2025236178,
				"z": 3.0417534653,
				"element": "H" 
			},
			{
				"x": -0.449015942,
				"y": -3.6630485644,
				"z": -0.9369570836,
				"element": "H" 
			},
			{
				"x": 0.9537141696,
				"y": -4.2671649361,
				"z": 0.0097342484,
				"element": "H" 
			}
		],
		 "valence_orbital": [ 
			{
				"type": "occ",
				"energy": -0.56803,
				"method": "rhf"
			},
			{
				"type": "occ",
				"energy": -0.5652,
				"method": "rhf"
			},
			{
				"type": "occ",
				"energy": -0.56192,
				"method": "rhf"
			},
			{
				"type": "occ",
				"energy": -0.55783,
				"method": "rhf"
			},
			{
				"type": "occ",
				"energy": -0.55619,
				"method": "rhf"
			},
			{
				"type": "unocc",
				"energy": -0.38814,
				"method": "rhf"
			},
			{
				"type": "unocc",
				"energy": -0.38055,
				"method": "rhf"
			},
			{
				"type": "unocc",
				"energy": -0.37542,
				"method": "rhf"
			},
			{
				"type": "unocc",
				"energy": -0.37433,
				"method": "rhf"
			},
			{
				"type": "unocc",
				"energy": -0.37049,
				"method": "rhf"
			}
		],
		"cosmo_sigma_profile": { 
			"-0.025": 0.0,
			"-0.024": 0.0,
			"-0.023": 0.0,
			"-0.022": 0.0,
			"-0.021": 0.0,
			"-0.02": 0.0,
			"-0.019": 0.0,
			"-0.018": 0.0,
			"-0.017": 0.630446350914,
			"-0.016": 2.73925472568,
			"-0.015": 5.64521002837,
			"-0.014": 7.19474241345,
			"-0.013": 9.6330619301,
			"-0.012": 9.54193690826,
			"-0.011": 8.36331092082,
			"-0.01": 7.45404411347,
			"-0.009": 8.06905370303,
			"-0.008": 6.54752117257,
			"-0.007": 7.17468954173,
			"-0.006": 8.49708845735,
			"-0.005": 8.18529920792,
			"-0.004": 10.3902994381,
			"-0.003": 13.1525370094,
			"-0.002": 11.748675286,
			"-0.001": 14.0519543629,
			"0.0": 12.6350456994,
			"0.001": 13.1638169818,
			"0.002": 16.0216165723,
			"0.003": 14.6765252326,
			"0.004": 13.1134073221,
			"0.005": 9.57486478857,
			"0.006": 7.8773143762,
			"0.007": 7.11932767711,
			"0.008": 9.90148907046,
			"0.009": 10.1077142257,
			"0.01": 14.9042549154,
			"0.011": 19.131602781,
			"0.012": 12.818563995,
			"0.013": 4.40755954846,
			"0.014": 0.0119072619629,
			"0.015": 0.0,
			"0.016": 0.0,
			"0.017": 0.0,
			"0.018": 0.0,
			"0.019": 0.0,
			"0.02": 0.0,
			"0.021": 0.0,
			"0.022": 0.0,
			"0.023": 0.0,
			"0.024": 0.0,
			"0.025": 0.0
		}
	}
}
