{
	 "smiles": "CCCCC(NC(=O)NCC)C(O)=O", 
	 "Tm": 370.15, 
	 "num_atms": 32, 
	 "gaussian": { 
		 "optdone": 1, 
		 "sigma_profile": "yes", 
		 "theory": "DFT", 
		 "functional": "B3LYP", 
		 "basiset": "6-31G**", 
		 "properties": { 
			 "R2extent": 4058.2705, 
			 "electric_dipole_moment_norm": 5.06132389598, 
			 "electric_quadrupole_moment_norm": 17.9659338485, 
			 "total_energy": -689.035703013, 
			 "HOMO_LUMO_gap": 0.23515, 
			 "cosmo_polarized_energy": -17.7, 
			 "cosmo_cavitation_energy": 34.57, 
			 "cosmo_dispersion_energy": -23.92, 
			 "cosmo_repulsion_energy": 1.97, 
			 "cosmo_total_nonelectrostatic_energy": 12.63, 
			 "SMD_solvation_energy": 6.69 
		},
		"coords": [
			{
				"x": 1.8204153348,
				"y": -3.8798392887,
				"z": -0.118628217,
				"element": "C" 
			},
			{
				"x": 2.1751291515,
				"y": -2.4977556306,
				"z": 0.4422546614,
				"element": "C" 
			},
			{
				"x": 1.0443359417,
				"y": -1.4594948026,
				"z": 0.3470855377,
				"element": "C" 
			},
			{
				"x": 0.6569405551,
				"y": -1.0835066829,
				"z": -1.0876623723,
				"element": "C" 
			},
			{
				"x": -0.3957088275,
				"y": 0.0538909223,
				"z": -1.1551235744,
				"element": "C" 
			},
			{
				"x": 0.0828110917,
				"y": 1.3108525668,
				"z": -0.5993921034,
				"element": "N" 
			},
			{
				"x": -0.4935414209,
				"y": 1.98049332,
				"z": 0.4778680554,
				"element": "C" 
			},
			{
				"x": -0.4221391038,
				"y": 3.1994168799,
				"z": 0.5854379039,
				"element": "O" 
			},
			{
				"x": -1.1284148307,
				"y": 1.1841219814,
				"z": 1.412485876,
				"element": "N" 
			},
			{
				"x": -1.6365112617,
				"y": 1.8045182973,
				"z": 2.639326069,
				"element": "C" 
			},
			{
				"x": -3.0050353557,
				"y": 2.4568233749,
				"z": 2.4404256727,
				"element": "C" 
			},
			{
				"x": -0.7885730066,
				"y": 0.281839766,
				"z": -2.6136950118,
				"element": "C" 
			},
			{
				"x": -1.5260166082,
				"y": -0.7395333692,
				"z": -3.1001730391,
				"element": "O" 
			},
			{
				"x": -0.457530251,
				"y": 1.2370512647,
				"z": -3.2804528844,
				"element": "O" 
			},
			{
				"x": 1.6080443053,
				"y": -3.8453844812,
				"z": -1.1921518907,
				"element": "H" 
			},
			{
				"x": 0.9369179153,
				"y": -4.2943983584,
				"z": 0.3810273129,
				"element": "H" 
			},
			{
				"x": 2.6447072285,
				"y": -4.5850807219,
				"z": 0.0280689022,
				"element": "H" 
			},
			{
				"x": 2.4609218938,
				"y": -2.602140005,
				"z": 1.4963370526,
				"element": "H" 
			},
			{
				"x": 3.0620822887,
				"y": -2.10703167,
				"z": -0.0741422516,
				"element": "H" 
			},
			{
				"x": 0.1582336195,
				"y": -1.8512391222,
				"z": 0.8715084975,
				"element": "H" 
			},
			{
				"x": 1.3553460008,
				"y": -0.5490248441,
				"z": 0.8733535939,
				"element": "H" 
			},
			{
				"x": 0.2572445838,
				"y": -1.953225557,
				"z": -1.6191891175,
				"element": "H" 
			},
			{
				"x": 1.5505298977,
				"y": -0.7517227457,
				"z": -1.6324072692,
				"element": "H" 
			},
			{
				"x": -1.2990909549,
				"y": -0.2639721177,
				"z": -0.6223970204,
				"element": "H" 
			},
			{
				"x": 0.3901151123,
				"y": 1.9709078239,
				"z": -1.3061177281,
				"element": "H" 
			},
			{
				"x": -0.8290056417,
				"y": 0.2235521682,
				"z": 1.4816282074,
				"element": "H" 
			},
			{
				"x": -0.9186167864,
				"y": 2.5544844816,
				"z": 2.9891512593,
				"element": "H" 
			},
			{
				"x": -1.6971797494,
				"y": 1.0161960459,
				"z": 3.3966848782,
				"element": "H" 
			},
			{
				"x": -3.3551676222,
				"y": 2.9020915712,
				"z": 3.377935987,
				"element": "H" 
			},
			{
				"x": -2.93346674,
				"y": 3.2477550375,
				"z": 1.6902108749,
				"element": "H" 
			},
			{
				"x": -3.7458685104,
				"y": 1.7228561085,
				"z": 2.107514248,
				"element": "H" 
			},
			{
				"x": -1.7001082493,
				"y": -0.5348022128,
				"z": -4.0347721102,
				"element": "H" 
			}
		],
		 "valence_orbital": [ 
			{
				"type": "occ",
				"energy": -0.33182,
				"method": "rhf"
			},
			{
				"type": "occ",
				"energy": -0.292,
				"method": "rhf"
			},
			{
				"type": "occ",
				"energy": -0.25798,
				"method": "rhf"
			},
			{
				"type": "occ",
				"energy": -0.24709,
				"method": "rhf"
			},
			{
				"type": "occ",
				"energy": -0.2408,
				"method": "rhf"
			},
			{
				"type": "unocc",
				"energy": -0.00565,
				"method": "rhf"
			},
			{
				"type": "unocc",
				"energy": 0.05187,
				"method": "rhf"
			},
			{
				"type": "unocc",
				"energy": 0.06679,
				"method": "rhf"
			},
			{
				"type": "unocc",
				"energy": 0.07452,
				"method": "rhf"
			},
			{
				"type": "unocc",
				"energy": 0.08766,
				"method": "rhf"
			}
		],
		"cosmo_sigma_profile": { 
			"-0.025": 0.0,
			"-0.024": 0.0,
			"-0.023": 0.0,
			"-0.022": 0.0,
			"-0.021": 0.0,
			"-0.02": 0.0,
			"-0.019": 0.478777049166,
			"-0.018": 0.740859646649,
			"-0.017": 1.007400149,
			"-0.016": 0.810784600324,
			"-0.015": 0.900333054329,
			"-0.014": 0.578115140382,
			"-0.013": 0.405637577036,
			"-0.012": 0.550249601511,
			"-0.011": 2.24120220919,
			"-0.01": 2.89738988001,
			"-0.009": 2.39786240262,
			"-0.008": 3.8237167319,
			"-0.007": 4.07798759909,
			"-0.006": 5.85606694227,
			"-0.005": 7.45601742528,
			"-0.004": 12.7643900485,
			"-0.003": 22.305872727,
			"-0.002": 36.7492427306,
			"-0.001": 35.8765000053,
			"0.0": 31.1913473523,
			"0.001": 25.1388130782,
			"0.002": 12.5489187601,
			"0.003": 7.12322670008,
			"0.004": 5.94970770306,
			"0.005": 4.47608617286,
			"0.006": 5.53333448919,
			"0.007": 5.50875125615,
			"0.008": 3.4437284347,
			"0.009": 4.3668860163,
			"0.01": 3.98663416294,
			"0.011": 5.56524730294,
			"0.012": 1.87989651233,
			"0.013": 1.93331334385,
			"0.014": 4.40915092236,
			"0.015": 3.3015893968,
			"0.016": 0.0236739095333,
			"0.017": 0.0,
			"0.018": 0.0,
			"0.019": 0.0,
			"0.02": 0.0,
			"0.021": 0.0,
			"0.022": 0.0,
			"0.023": 0.0,
			"0.024": 0.0,
			"0.025": 0.0
		}
	}
}
