{
	 "smiles": "CCC1=CC=CC=C1Br", 
	 "Tm": 205.15, 
	 "num_atms": 18, 
	 "gaussian": { 
		 "optdone": 1, 
		 "sigma_profile": "yes", 
		 "theory": "DFT", 
		 "functional": "B3LYP", 
		 "basiset": "6-31G**", 
		 "properties": { 
			 "R2extent": 1889.5817, 
			 "electric_dipole_moment_norm": 1.606288847, 
			 "electric_quadrupole_moment_norm": 5.40966647863, 
			 "total_energy": -2881.69041977, 
			 "HOMO_LUMO_gap": 0.22787, 
			 "cosmo_polarized_energy": -3.42, 
			 "cosmo_cavitation_energy": 23.04, 
			 "cosmo_dispersion_energy": -17.28, 
			 "cosmo_repulsion_energy": 1.41, 
			 "cosmo_total_nonelectrostatic_energy": 7.18, 
			 "SMD_solvation_energy": 2.94 
		},
		"coords": [
			{
				"x": -2.933543257,
				"y": 1.8219018728,
				"z": 0.1579467898,
				"element": "C" 
			},
			{
				"x": -2.0286974901,
				"y": 1.2465638672,
				"z": -0.9467421943,
				"element": "C" 
			},
			{
				"x": -0.5702141082,
				"y": 1.1937948892,
				"z": -0.5485239678,
				"element": "C" 
			},
			{
				"x": 0.2926696871,
				"y": 2.2411415233,
				"z": -0.9098062358,
				"element": "C" 
			},
			{
				"x": 1.6373370987,
				"y": 2.2535750756,
				"z": -0.5446161728,
				"element": "C" 
			},
			{
				"x": 2.1618946845,
				"y": 1.1981883518,
				"z": 0.2016775495,
				"element": "C" 
			},
			{
				"x": 1.3352044564,
				"y": 0.1400705941,
				"z": 0.5764766367,
				"element": "C" 
			},
			{
				"x": -0.0082662757,
				"y": 0.1509287855,
				"z": 0.2022757758,
				"element": "C" 
			},
			{
				"x": -1.0835962939,
				"y": -1.3443334061,
				"z": 0.7547876763,
				"element": "Br" 
			},
			{
				"x": -2.6288785903,
				"y": 2.8390333291,
				"z": 0.4246133669,
				"element": "H" 
			},
			{
				"x": -3.9755698488,
				"y": 1.8550139543,
				"z": -0.1764402881,
				"element": "H" 
			},
			{
				"x": -2.886691863,
				"y": 1.2068736419,
				"z": 1.0610511461,
				"element": "H" 
			},
			{
				"x": -2.1211397769,
				"y": 1.8625053194,
				"z": -1.8482529246,
				"element": "H" 
			},
			{
				"x": -2.3750273434,
				"y": 0.2425003316,
				"z": -1.2110435916,
				"element": "H" 
			},
			{
				"x": -0.112567219,
				"y": 3.0624505034,
				"z": -1.4958370601,
				"element": "H" 
			},
			{
				"x": 2.2727155778,
				"y": 3.0813422148,
				"z": -0.8451269188,
				"element": "H" 
			},
			{
				"x": 3.2084597931,
				"y": 1.1910596583,
				"z": 0.4911541433,
				"element": "H" 
			},
			{
				"x": 1.7251107685,
				"y": -0.6908105062,
				"z": 1.1534062696,
				"element": "H" 
			}
		],
		 "valence_orbital": [ 
			{
				"type": "occ",
				"energy": -0.33667,
				"method": "rhf"
			},
			{
				"type": "occ",
				"energy": -0.30826,
				"method": "rhf"
			},
			{
				"type": "occ",
				"energy": -0.28303,
				"method": "rhf"
			},
			{
				"type": "occ",
				"energy": -0.25284,
				"method": "rhf"
			},
			{
				"type": "occ",
				"energy": -0.23853,
				"method": "rhf"
			},
			{
				"type": "unocc",
				"energy": -0.01066,
				"method": "rhf"
			},
			{
				"type": "unocc",
				"energy": -0.00948,
				"method": "rhf"
			},
			{
				"type": "unocc",
				"energy": 0.0103,
				"method": "rhf"
			},
			{
				"type": "unocc",
				"energy": 0.10065,
				"method": "rhf"
			},
			{
				"type": "unocc",
				"energy": 0.11449,
				"method": "rhf"
			}
		],
		"cosmo_sigma_profile": { 
			"-0.025": 0.0,
			"-0.024": 0.0,
			"-0.023": 0.0,
			"-0.022": 0.0,
			"-0.021": 0.0,
			"-0.02": 0.0,
			"-0.019": 0.0,
			"-0.018": 0.0,
			"-0.017": 0.0,
			"-0.016": 0.0,
			"-0.015": 0.0,
			"-0.014": 0.0,
			"-0.013": 0.0,
			"-0.012": 0.0,
			"-0.011": 0.0,
			"-0.01": 0.0,
			"-0.009": 0.0,
			"-0.008": 0.0,
			"-0.007": 1.02270141342,
			"-0.006": 7.11719303756,
			"-0.005": 9.21526436213,
			"-0.004": 12.6968638802,
			"-0.003": 13.7101012022,
			"-0.002": 17.776379648,
			"-0.001": 19.5275448011,
			"0.0": 19.1867821222,
			"0.001": 20.9910757222,
			"0.002": 16.1755665433,
			"0.003": 18.0087684004,
			"0.004": 17.7869333807,
			"0.005": 12.4896813464,
			"0.006": 0.269620325293,
			"0.007": 0.0,
			"0.008": 0.0,
			"0.009": 0.0,
			"0.01": 0.0,
			"0.011": 0.0,
			"0.012": 0.0,
			"0.013": 0.0,
			"0.014": 0.0,
			"0.015": 0.0,
			"0.016": 0.0,
			"0.017": 0.0,
			"0.018": 0.0,
			"0.019": 0.0,
			"0.02": 0.0,
			"0.021": 0.0,
			"0.022": 0.0,
			"0.023": 0.0,
			"0.024": 0.0,
			"0.025": 0.0
		}
	}
}
