{
	 "smiles": "OC(=O)C=CC1=CC(OCC2=CC=CC=C2)=CC=C1", 
	 "Tm": 425.15, 
	 "num_atms": 33, 
	 "gaussian": { 
		 "optdone": 1, 
		 "sigma_profile": "yes", 
		 "theory": "DFT", 
		 "functional": "B3LYP", 
		 "basiset": "6-31G**", 
		 "properties": { 
			 "R2extent": 5037.2436, 
			 "electric_dipole_moment_norm": 1.84270214902, 
			 "electric_quadrupole_moment_norm": 14.5501177329, 
			 "total_energy": -843.798871706, 
			 "HOMO_LUMO_gap": 0.16429, 
			 "cosmo_polarized_energy": -12.56, 
			 "cosmo_cavitation_energy": 36.27, 
			 "cosmo_dispersion_energy": -24.89, 
			 "cosmo_repulsion_energy": 1.89, 
			 "cosmo_total_nonelectrostatic_energy": 13.26, 
			 "SMD_solvation_energy": 7.06 
		},
		"coords": [
			{
				"x": 0.2927000087,
				"y": 0.178714877,
				"z": 2.5826779376,
				"element": "O" 
			},
			{
				"x": 0.9276866391,
				"y": 1.2036708837,
				"z": 3.1917824046,
				"element": "C" 
			},
			{
				"x": 1.938810657,
				"y": 1.0486964763,
				"z": 3.8518754821,
				"element": "O" 
			},
			{
				"x": 0.2657807281,
				"y": 2.5210517755,
				"z": 3.038545122,
				"element": "C" 
			},
			{
				"x": -0.5448559783,
				"y": 2.9936214589,
				"z": 2.0692544181,
				"element": "C" 
			},
			{
				"x": -0.9950489627,
				"y": 2.4188385313,
				"z": 0.7905192595,
				"element": "C" 
			},
			{
				"x": -0.2033258311,
				"y": 1.5371352513,
				"z": 0.0326593744,
				"element": "C" 
			},
			{
				"x": -0.6795343442,
				"y": 1.0263979483,
				"z": -1.1742823444,
				"element": "C" 
			},
			{
				"x": 0.0126337478,
				"y": 0.1553014073,
				"z": -1.9770106733,
				"element": "O" 
			},
			{
				"x": 1.3583166653,
				"y": -0.1787847439,
				"z": -1.6454085013,
				"element": "C" 
			},
			{
				"x": 1.49713676,
				"y": -1.1369497632,
				"z": -0.4760136101,
				"element": "C" 
			},
			{
				"x": 0.5155575431,
				"y": -2.1010740506,
				"z": -0.2181854711,
				"element": "C" 
			},
			{
				"x": 0.6595393633,
				"y": -2.98661337,
				"z": 0.8499094695,
				"element": "C" 
			},
			{
				"x": 1.7908924224,
				"y": -2.9242514863,
				"z": 1.6698224633,
				"element": "C" 
			},
			{
				"x": 2.779145422,
				"y": -1.9696357073,
				"z": 1.4125711578,
				"element": "C" 
			},
			{
				"x": 2.6286459735,
				"y": -1.0802858301,
				"z": 0.3456692087,
				"element": "C" 
			},
			{
				"x": -1.945964362,
				"y": 1.4004295471,
				"z": -1.6482572679,
				"element": "C" 
			},
			{
				"x": -2.7188757029,
				"y": 2.2931408049,
				"z": -0.9136957722,
				"element": "C" 
			},
			{
				"x": -2.2464547014,
				"y": 2.8141592525,
				"z": 0.2916396615,
				"element": "C" 
			},
			{
				"x": 0.8479777784,
				"y": -0.6126289121,
				"z": 2.701964822,
				"element": "H" 
			},
			{
				"x": 0.5200815517,
				"y": 3.1896348872,
				"z": 3.8557405237,
				"element": "H" 
			},
			{
				"x": -0.9369880025,
				"y": 3.9948383912,
				"z": 2.2502054492,
				"element": "H" 
			},
			{
				"x": 0.7669567088,
				"y": 1.2479325775,
				"z": 0.405675716,
				"element": "H" 
			},
			{
				"x": 1.9461533834,
				"y": 0.7311981667,
				"z": -1.4647677316,
				"element": "H" 
			},
			{
				"x": 1.74642733,
				"y": -0.6424340641,
				"z": -2.5589137901,
				"element": "H" 
			},
			{
				"x": -0.3683992147,
				"y": -2.1392617082,
				"z": -0.8468974991,
				"element": "H" 
			},
			{
				"x": -0.1127572274,
				"y": -3.7249632001,
				"z": 1.0456260914,
				"element": "H" 
			},
			{
				"x": 1.9030835913,
				"y": -3.6154562247,
				"z": 2.5001992089,
				"element": "H" 
			},
			{
				"x": 3.6576478529,
				"y": -1.9072635356,
				"z": 2.0477648282,
				"element": "H" 
			},
			{
				"x": 3.3924868522,
				"y": -0.3280901776,
				"z": 0.1621769068,
				"element": "H" 
			},
			{
				"x": -2.2902435253,
				"y": 0.9927980888,
				"z": -2.5930382783,
				"element": "H" 
			},
			{
				"x": -3.6937999546,
				"y": 2.5916506629,
				"z": -1.2877574859,
				"element": "H" 
			},
			{
				"x": -2.8541131723,
				"y": 3.5132817859,
				"z": 0.85894892,
				"element": "H" 
			}
		],
		 "valence_orbital": [ 
			{
				"type": "occ",
				"energy": -0.26567,
				"method": "rhf"
			},
			{
				"type": "occ",
				"energy": -0.26098,
				"method": "rhf"
			},
			{
				"type": "occ",
				"energy": -0.25633,
				"method": "rhf"
			},
			{
				"type": "occ",
				"energy": -0.23905,
				"method": "rhf"
			},
			{
				"type": "occ",
				"energy": -0.22143,
				"method": "rhf"
			},
			{
				"type": "unocc",
				"energy": -0.05714,
				"method": "rhf"
			},
			{
				"type": "unocc",
				"energy": -0.0157,
				"method": "rhf"
			},
			{
				"type": "unocc",
				"energy": -0.01365,
				"method": "rhf"
			},
			{
				"type": "unocc",
				"energy": 0.00715,
				"method": "rhf"
			},
			{
				"type": "unocc",
				"energy": 0.01858,
				"method": "rhf"
			}
		],
		"cosmo_sigma_profile": { 
			"-0.025": 0.0,
			"-0.024": 0.0,
			"-0.023": 0.0,
			"-0.022": 0.0,
			"-0.021": 0.0,
			"-0.02": 0.0,
			"-0.019": 0.0,
			"-0.018": 0.0,
			"-0.017": 0.0,
			"-0.016": 0.0,
			"-0.015": 0.0,
			"-0.014": 0.0,
			"-0.013": 0.0,
			"-0.012": 0.0,
			"-0.011": 0.021557407031,
			"-0.01": 0.720449593172,
			"-0.009": 0.528572151526,
			"-0.008": 0.568929818873,
			"-0.007": 7.13383084674,
			"-0.006": 24.8535316719,
			"-0.005": 25.6608548657,
			"-0.004": 26.0473869355,
			"-0.003": 21.5372698299,
			"-0.002": 21.1722203735,
			"-0.001": 17.0489926014,
			"0.0": 18.2233063662,
			"0.001": 17.4631922344,
			"0.002": 20.8012130718,
			"0.003": 19.4667606405,
			"0.004": 19.7265538379,
			"0.005": 16.9733456647,
			"0.006": 5.33582795819,
			"0.007": 4.35961488967,
			"0.008": 4.19143630436,
			"0.009": 4.32765329435,
			"0.01": 3.7546782594,
			"0.011": 2.48556949247,
			"0.012": 5.24002453422,
			"0.013": 2.16414392482,
			"0.014": 0.0611717587705,
			"0.015": 0.0,
			"0.016": 0.0,
			"0.017": 0.0,
			"0.018": 0.0,
			"0.019": 0.0,
			"0.02": 0.0,
			"0.021": 0.0,
			"0.022": 0.0,
			"0.023": 0.0,
			"0.024": 0.0,
			"0.025": 0.0
		}
	}
}
