{
	 "smiles": "COC(=O)CCOC1=C(Cl)C=C(Cl)C=C1", 
	 "Tm": 309.15, 
	 "num_atms": 25, 
	 "gaussian": { 
		 "optdone": 1, 
		 "sigma_profile": "yes", 
		 "theory": "DFT", 
		 "functional": "B3LYP", 
		 "basiset": "6-31G**", 
		 "properties": { 
			 "R2extent": 4905.5063, 
			 "electric_dipole_moment_norm": 2.5032479262, 
			 "electric_quadrupole_moment_norm": 8.26625500393, 
			 "total_energy": -1533.13976676, 
			 "HOMO_LUMO_gap": 0.21447, 
			 "cosmo_polarized_energy": -9.66, 
			 "cosmo_cavitation_energy": 33.07, 
			 "cosmo_dispersion_energy": -22.82, 
			 "cosmo_repulsion_energy": 1.82, 
			 "cosmo_total_nonelectrostatic_energy": 12.07, 
			 "SMD_solvation_energy": 6.44 
		},
		"coords": [
			{
				"x": 0.2903443952,
				"y": 3.0145657708,
				"z": -0.8611440524,
				"element": "C" 
			},
			{
				"x": 0.6853966944,
				"y": 2.0090391304,
				"z": -1.8107169714,
				"element": "O" 
			},
			{
				"x": 2.0116608765,
				"y": 1.754914613,
				"z": -1.87231676,
				"element": "C" 
			},
			{
				"x": 2.8384747561,
				"y": 2.339924923,
				"z": -1.2063833057,
				"element": "O" 
			},
			{
				"x": 2.3034284197,
				"y": 0.6473198119,
				"z": -2.8662259988,
				"element": "C" 
			},
			{
				"x": 1.6623694259,
				"y": -0.6925343883,
				"z": -2.4893346462,
				"element": "C" 
			},
			{
				"x": 2.2770586565,
				"y": -1.2304189182,
				"z": -1.3040282637,
				"element": "O" 
			},
			{
				"x": 1.5789518632,
				"y": -1.174852867,
				"z": -0.1293264962,
				"element": "C" 
			},
			{
				"x": 0.4965601981,
				"y": -2.0296896775,
				"z": 0.1402689714,
				"element": "C" 
			},
			{
				"x": -0.0324567716,
				"y": -3.1838422209,
				"z": -1.067847178,
				"element": "Cl" 
			},
			{
				"x": -0.1571297825,
				"y": -1.9991007401,
				"z": 1.3718132626,
				"element": "C" 
			},
			{
				"x": 0.2865379314,
				"y": -1.1103818246,
				"z": 2.349191817,
				"element": "C" 
			},
			{
				"x": -0.5329428547,
				"y": -1.0705147283,
				"z": 3.9020247552,
				"element": "Cl" 
			},
			{
				"x": 1.3685412082,
				"y": -0.2622801579,
				"z": 2.1161727659,
				"element": "C" 
			},
			{
				"x": 2.0044540759,
				"y": -0.3003667031,
				"z": 0.8770349491,
				"element": "C" 
			},
			{
				"x": 0.5285142823,
				"y": 2.6915498027,
				"z": 0.1554060557,
				"element": "H" 
			},
			{
				"x": -0.786768475,
				"y": 3.127015607,
				"z": -0.9823547372,
				"element": "H" 
			},
			{
				"x": 0.8027741208,
				"y": 3.9576745674,
				"z": -1.0641759541,
				"element": "H" 
			},
			{
				"x": 1.9125493295,
				"y": 0.9474326355,
				"z": -3.846089006,
				"element": "H" 
			},
			{
				"x": 3.3871389957,
				"y": 0.5383200956,
				"z": -2.9386413562,
				"element": "H" 
			},
			{
				"x": 1.8341213137,
				"y": -1.4201380905,
				"z": -3.2873483855,
				"element": "H" 
			},
			{
				"x": 0.5842819029,
				"y": -0.578587026,
				"z": -2.3488344431,
				"element": "H" 
			},
			{
				"x": -0.98878959,
				"y": -2.6658837353,
				"z": 1.5636724829,
				"element": "H" 
			},
			{
				"x": 1.7064881813,
				"y": 0.4179732923,
				"z": 2.889562512,
				"element": "H" 
			},
			{
				"x": 2.8411408465,
				"y": 0.3551608283,
				"z": 0.6609199824,
				"element": "H" 
			}
		],
		 "valence_orbital": [ 
			{
				"type": "occ",
				"energy": -0.31,
				"method": "rhf"
			},
			{
				"type": "occ",
				"energy": -0.29664,
				"method": "rhf"
			},
			{
				"type": "occ",
				"energy": -0.27655,
				"method": "rhf"
			},
			{
				"type": "occ",
				"energy": -0.2649,
				"method": "rhf"
			},
			{
				"type": "occ",
				"energy": -0.24237,
				"method": "rhf"
			},
			{
				"type": "unocc",
				"energy": -0.0279,
				"method": "rhf"
			},
			{
				"type": "unocc",
				"energy": -0.02127,
				"method": "rhf"
			},
			{
				"type": "unocc",
				"energy": -4e-05,
				"method": "rhf"
			},
			{
				"type": "unocc",
				"energy": 0.00464,
				"method": "rhf"
			},
			{
				"type": "unocc",
				"energy": 0.04685,
				"method": "rhf"
			}
		],
		"cosmo_sigma_profile": { 
			"-0.025": 0.0,
			"-0.024": 0.0,
			"-0.023": 0.0,
			"-0.022": 0.0,
			"-0.021": 0.0,
			"-0.02": 0.0,
			"-0.019": 0.0,
			"-0.018": 0.0,
			"-0.017": 0.0,
			"-0.016": 0.0,
			"-0.015": 0.0,
			"-0.014": 0.0,
			"-0.013": 0.0,
			"-0.012": 0.0,
			"-0.011": 0.0,
			"-0.01": 0.0,
			"-0.009": 0.315557969695,
			"-0.008": 2.6932113944,
			"-0.007": 7.86561091073,
			"-0.006": 15.5619253224,
			"-0.005": 18.3559117297,
			"-0.004": 20.4383846972,
			"-0.003": 21.6548686289,
			"-0.002": 16.2464573063,
			"-0.001": 19.7561240496,
			"0.0": 22.0344590104,
			"0.001": 30.8767985458,
			"0.002": 20.9240675797,
			"0.003": 18.7859640635,
			"0.004": 19.6679244467,
			"0.005": 9.39853093594,
			"0.006": 3.51871974213,
			"0.007": 3.24995371227,
			"0.008": 3.05219381094,
			"0.009": 2.79094339607,
			"0.01": 3.07091857629,
			"0.011": 3.1844714634,
			"0.012": 3.42911544099,
			"0.013": 0.683285690959,
			"0.014": 0.0,
			"0.015": 0.0,
			"0.016": 0.0,
			"0.017": 0.0,
			"0.018": 0.0,
			"0.019": 0.0,
			"0.02": 0.0,
			"0.021": 0.0,
			"0.022": 0.0,
			"0.023": 0.0,
			"0.024": 0.0,
			"0.025": 0.0
		}
	}
}
