{
	 "smiles": "CC(=CC=C(C)C(O)=O)C(O)=O", 
	 "Tm": 494.15, 
	 "num_atms": 22, 
	 "gaussian": { 
		 "optdone": 1, 
		 "sigma_profile": "yes", 
		 "theory": "DFT", 
		 "functional": "B3LYP", 
		 "basiset": "6-31G**", 
		 "properties": { 
			 "R2extent": 2758.5925, 
			 "electric_dipole_moment_norm": 2.7272677353, 
			 "electric_quadrupole_moment_norm": 23.8201952324, 
			 "total_energy": -611.758943447, 
			 "HOMO_LUMO_gap": 0.1781, 
			 "cosmo_polarized_energy": -20.31, 
			 "cosmo_cavitation_energy": 26.02, 
			 "cosmo_dispersion_energy": -18.6, 
			 "cosmo_repulsion_energy": 1.49, 
			 "cosmo_total_nonelectrostatic_energy": 8.92, 
			 "SMD_solvation_energy": 6.92 
		},
		"coords": [
			{
				"x": 0.6851845487,
				"y": 0.576976701,
				"z": -0.2883204032,
				"element": "C" 
			},
			{
				"x": -0.7660684111,
				"y": 0.221659486,
				"z": -0.4854762932,
				"element": "C" 
			},
			{
				"x": -1.3539081602,
				"y": -0.9225542157,
				"z": -0.0667221119,
				"element": "C" 
			},
			{
				"x": -0.7657777054,
				"y": -2.0598227869,
				"z": 0.6455227717,
				"element": "C" 
			},
			{
				"x": -0.0138920256,
				"y": -2.1217686922,
				"z": 1.7682251923,
				"element": "C" 
			},
			{
				"x": 0.5195090468,
				"y": -3.4351460958,
				"z": 2.2804426715,
				"element": "C" 
			},
			{
				"x": 0.3794065516,
				"y": -0.9494900981,
				"z": 2.6312803208,
				"element": "C" 
			},
			{
				"x": -0.3967157507,
				"y": 0.1604793307,
				"z": 2.6096321316,
				"element": "O" 
			},
			{
				"x": 1.3455224163,
				"y": -0.995094699,
				"z": 3.3585438864,
				"element": "O" 
			},
			{
				"x": -1.6666508963,
				"y": 1.1705141817,
				"z": -1.2433754957,
				"element": "C" 
			},
			{
				"x": -1.1353672878,
				"y": 2.3731290792,
				"z": -1.5765204103,
				"element": "O" 
			},
			{
				"x": -2.8078672561,
				"y": 0.9140875945,
				"z": -1.5512211897,
				"element": "O" 
			},
			{
				"x": 1.1353451629,
				"y": 0.9220515395,
				"z": -1.2274825913,
				"element": "H" 
			},
			{
				"x": 0.8187460117,
				"y": 1.3595810801,
				"z": 0.4693155939,
				"element": "H" 
			},
			{
				"x": 1.2598388811,
				"y": -0.2884473268,
				"z": 0.0466566465,
				"element": "H" 
			},
			{
				"x": -2.3882538538,
				"y": -1.0527524692,
				"z": -0.3850308278,
				"element": "H" 
			},
			{
				"x": -1.0257590826,
				"y": -3.0197314789,
				"z": 0.1962437451,
				"element": "H" 
			},
			{
				"x": 0.2490666292,
				"y": -4.2601839869,
				"z": 1.6177881354,
				"element": "H" 
			},
			{
				"x": 1.6084907826,
				"y": -3.3857547401,
				"z": 2.3707278145,
				"element": "H" 
			},
			{
				"x": 0.1380572379,
				"y": -3.649215161,
				"z": 3.2850663986,
				"element": "H" 
			},
			{
				"x": -1.1315185111,
				"y": 0.0495265369,
				"z": 1.985694611,
				"element": "H" 
			},
			{
				"x": -0.2365883281,
				"y": 2.466356221,
				"z": -1.232390596,
				"element": "H" 
			}
		],
		 "valence_orbital": [ 
			{
				"type": "occ",
				"energy": -0.3237,
				"method": "rhf"
			},
			{
				"type": "occ",
				"energy": -0.31368,
				"method": "rhf"
			},
			{
				"type": "occ",
				"energy": -0.28461,
				"method": "rhf"
			},
			{
				"type": "occ",
				"energy": -0.28217,
				"method": "rhf"
			},
			{
				"type": "occ",
				"energy": -0.26636,
				"method": "rhf"
			},
			{
				"type": "unocc",
				"energy": -0.08826,
				"method": "rhf"
			},
			{
				"type": "unocc",
				"energy": -0.03038,
				"method": "rhf"
			},
			{
				"type": "unocc",
				"energy": 0.04328,
				"method": "rhf"
			},
			{
				"type": "unocc",
				"energy": 0.05461,
				"method": "rhf"
			},
			{
				"type": "unocc",
				"energy": 0.06591,
				"method": "rhf"
			}
		],
		"cosmo_sigma_profile": { 
			"-0.025": 0.0,
			"-0.024": 0.0,
			"-0.023": 0.0,
			"-0.022": 0.0,
			"-0.021": 0.0,
			"-0.02": 0.0,
			"-0.019": 0.0,
			"-0.018": 0.390156991582,
			"-0.017": 0.69227641306,
			"-0.016": 0.786957299061,
			"-0.015": 1.83357683495,
			"-0.014": 1.78994140478,
			"-0.013": 1.47878426226,
			"-0.012": 2.72135662163,
			"-0.011": 2.50439565383,
			"-0.01": 2.20282821863,
			"-0.009": 2.72279813349,
			"-0.008": 4.11406064791,
			"-0.007": 8.29189225893,
			"-0.006": 8.85810854334,
			"-0.005": 14.8727090719,
			"-0.004": 14.139782083,
			"-0.003": 15.4179929909,
			"-0.002": 15.377383705,
			"-0.001": 17.3220460885,
			"0.0": 13.9797339068,
			"0.001": 8.00421200819,
			"0.002": 4.02020784334,
			"0.003": 3.82414340428,
			"0.004": 4.84195972885,
			"0.005": 3.33639126703,
			"0.006": 4.07395519016,
			"0.007": 5.25982676248,
			"0.008": 5.7251437211,
			"0.009": 6.05506970336,
			"0.01": 9.35223024334,
			"0.011": 10.4345637874,
			"0.012": 8.57368444735,
			"0.013": 2.93243751098,
			"0.014": 0.0923253106487,
			"0.015": 0.0,
			"0.016": 0.0,
			"0.017": 0.0,
			"0.018": 0.0,
			"0.019": 0.0,
			"0.02": 0.0,
			"0.021": 0.0,
			"0.022": 0.0,
			"0.023": 0.0,
			"0.024": 0.0,
			"0.025": 0.0
		}
	}
}
