{
	 "smiles": "FC(F)(F)C1=CC(=NO1)C1=CC=C(S1)S(Cl)(=O)=O", 
	 "Tm": 379.15, 
	 "num_atms": 21, 
	 "gaussian": { 
		 "optdone": 1, 
		 "sigma_profile": "yes", 
		 "theory": "DFT", 
		 "functional": "B3LYP", 
		 "basiset": "6-31G**", 
		 "properties": { 
			 "R2extent": 10077.1434, 
			 "electric_dipole_moment_norm": 5.4400704784, 
			 "electric_quadrupole_moment_norm": 15.5667905376, 
			 "total_energy": -2143.02034848, 
			 "HOMO_LUMO_gap": 0.16323, 
			 "cosmo_polarized_energy": -13.08, 
			 "cosmo_cavitation_energy": 34.4, 
			 "cosmo_dispersion_energy": -25.29, 
			 "cosmo_repulsion_energy": 1.8, 
			 "cosmo_total_nonelectrostatic_energy": 10.91, 
			 "SMD_solvation_energy": 5.43 
		},
		"coords": [
			{
				"x": -2.089604957,
				"y": 2.6042829689,
				"z": -5.7775281504,
				"element": "F" 
			},
			{
				"x": -0.8760447255,
				"y": 2.3641429404,
				"z": -5.2543027173,
				"element": "C" 
			},
			{
				"x": -0.1299060184,
				"y": 1.7694805913,
				"z": -6.1997632575,
				"element": "F" 
			},
			{
				"x": -0.3063071902,
				"y": 3.5420988497,
				"z": -4.9391835019,
				"element": "F" 
			},
			{
				"x": -0.972050114,
				"y": 1.5152859282,
				"z": -4.0221440818,
				"element": "C" 
			},
			{
				"x": -0.5990185939,
				"y": 1.7400384322,
				"z": -2.7378709141,
				"element": "C" 
			},
			{
				"x": -0.9733827173,
				"y": 0.5274221602,
				"z": -2.0766188733,
				"element": "C" 
			},
			{
				"x": -1.5205439984,
				"y": -0.3304935616,
				"z": -2.9201682755,
				"element": "N" 
			},
			{
				"x": -1.5217817065,
				"y": 0.2940678159,
				"z": -4.1557828056,
				"element": "O" 
			},
			{
				"x": -0.8175269821,
				"y": 0.1787467471,
				"z": -0.6715411019,
				"element": "C" 
			},
			{
				"x": -0.2628657154,
				"y": 0.9542719145,
				"z": 0.3269121294,
				"element": "C" 
			},
			{
				"x": -0.2754218451,
				"y": 0.3196171349,
				"z": 1.5924661657,
				"element": "C" 
			},
			{
				"x": -0.8494722055,
				"y": -0.9267263168,
				"z": 1.5239582511,
				"element": "C" 
			},
			{
				"x": -1.3809168336,
				"y": -1.3573594751,
				"z": -0.0730542857,
				"element": "S" 
			},
			{
				"x": -1.0398706072,
				"y": -2.0180119395,
				"z": 2.890809448,
				"element": "S" 
			},
			{
				"x": 0.7442589986,
				"y": -3.172676247,
				"z": 2.7863123676,
				"element": "Cl" 
			},
			{
				"x": -0.9451593545,
				"y": -1.2407570662,
				"z": 4.1182254403,
				"element": "O" 
			},
			{
				"x": -2.1330133133,
				"y": -2.9380777079,
				"z": 2.6111915675,
				"element": "O" 
			},
			{
				"x": -0.1352574602,
				"y": 2.6227694443,
				"z": -2.3287223816,
				"element": "H" 
			},
			{
				"x": 0.135405556,
				"y": 1.9476968917,
				"z": 0.1585131649,
				"element": "H" 
			},
			{
				"x": 0.1084797834,
				"y": 0.748380495,
				"z": 2.5095918122,
				"element": "H" 
			}
		],
		 "valence_orbital": [ 
			{
				"type": "occ",
				"energy": -0.33724,
				"method": "rhf"
			},
			{
				"type": "occ",
				"energy": -0.32117,
				"method": "rhf"
			},
			{
				"type": "occ",
				"energy": -0.3142,
				"method": "rhf"
			},
			{
				"type": "occ",
				"energy": -0.29943,
				"method": "rhf"
			},
			{
				"type": "occ",
				"energy": -0.27465,
				"method": "rhf"
			},
			{
				"type": "unocc",
				"energy": -0.11142,
				"method": "rhf"
			},
			{
				"type": "unocc",
				"energy": -0.07699,
				"method": "rhf"
			},
			{
				"type": "unocc",
				"energy": -0.04988,
				"method": "rhf"
			},
			{
				"type": "unocc",
				"energy": -0.01321,
				"method": "rhf"
			},
			{
				"type": "unocc",
				"energy": -0.00924,
				"method": "rhf"
			}
		],
		"cosmo_sigma_profile": { 
			"-0.025": 0.0,
			"-0.024": 0.0,
			"-0.023": 0.0,
			"-0.022": 0.0,
			"-0.021": 0.0,
			"-0.02": 0.0,
			"-0.019": 0.0,
			"-0.018": 0.0,
			"-0.017": 0.0,
			"-0.016": 0.0,
			"-0.015": 0.0,
			"-0.014": 0.0,
			"-0.013": 0.0,
			"-0.012": 0.61488253407,
			"-0.011": 3.15982282067,
			"-0.01": 4.18941693472,
			"-0.009": 4.51151796235,
			"-0.008": 5.52066399404,
			"-0.007": 4.79442364611,
			"-0.006": 5.70743752026,
			"-0.005": 7.85904996368,
			"-0.004": 12.6442967837,
			"-0.003": 16.7432549473,
			"-0.002": 27.6112640374,
			"-0.001": 29.1245758354,
			"0.0": 28.2487920967,
			"0.001": 33.3450321476,
			"0.002": 35.4554961476,
			"0.003": 17.7612156034,
			"0.004": 8.02393201775,
			"0.005": 7.90233361923,
			"0.006": 5.23936296874,
			"0.007": 10.6583260509,
			"0.008": 10.1420230553,
			"0.009": 2.99143523384,
			"0.01": 0.754995743415,
			"0.011": 0.391903053895,
			"0.012": 0.0,
			"0.013": 0.0,
			"0.014": 0.0,
			"0.015": 0.0,
			"0.016": 0.0,
			"0.017": 0.0,
			"0.018": 0.0,
			"0.019": 0.0,
			"0.02": 0.0,
			"0.021": 0.0,
			"0.022": 0.0,
			"0.023": 0.0,
			"0.024": 0.0,
			"0.025": 0.0
		}
	}
}
