{
	 "smiles": "NC(=S)C1=CN(N=C1)C1=CC=CC=C1", 
	 "Tm": 455.15, 
	 "num_atms": 23, 
	 "gaussian": { 
		 "optdone": 1, 
		 "sigma_profile": "yes", 
		 "theory": "DFT", 
		 "functional": "B3LYP", 
		 "basiset": "6-31G**", 
		 "properties": { 
			 "R2extent": 4479.8733, 
			 "electric_dipole_moment_norm": 6.39151693419, 
			 "electric_quadrupole_moment_norm": 22.989192963, 
			 "total_energy": -948.916253579, 
			 "HOMO_LUMO_gap": 0.14774, 
			 "cosmo_polarized_energy": -20.97, 
			 "cosmo_cavitation_energy": 29.3, 
			 "cosmo_dispersion_energy": -22.21, 
			 "cosmo_repulsion_energy": 1.68, 
			 "cosmo_total_nonelectrostatic_energy": 8.76, 
			 "SMD_solvation_energy": 3.75 
		},
		"coords": [
			{
				"x": 3.9966552332,
				"y": -1.4075734597,
				"z": -1.2833279376,
				"element": "N" 
			},
			{
				"x": 2.9199772831,
				"y": -1.3298312376,
				"z": -2.0997606387,
				"element": "C" 
			},
			{
				"x": 3.0344513383,
				"y": -1.7479777119,
				"z": -3.7153233029,
				"element": "S" 
			},
			{
				"x": 1.672469506,
				"y": -0.8649154662,
				"z": -1.4906530815,
				"element": "C" 
			},
			{
				"x": 1.4155319208,
				"y": -0.4835709001,
				"z": -0.1784915092,
				"element": "C" 
			},
			{
				"x": 0.1040713213,
				"y": -0.1319274476,
				"z": -0.1076977393,
				"element": "N" 
			},
			{
				"x": -0.5172194811,
				"y": -0.2643261729,
				"z": -1.3168595992,
				"element": "N" 
			},
			{
				"x": 0.4172397615,
				"y": -0.7010026347,
				"z": -2.1404110547,
				"element": "C" 
			},
			{
				"x": -0.6351132547,
				"y": 0.3274574931,
				"z": 1.0188295495,
				"element": "C" 
			},
			{
				"x": -1.991575474,
				"y": 0.635911665,
				"z": 0.8612920625,
				"element": "C" 
			},
			{
				"x": -2.7246937114,
				"y": 1.0861600915,
				"z": 1.9567217508,
				"element": "C" 
			},
			{
				"x": -2.1223742101,
				"y": 1.2328691025,
				"z": 3.2077487462,
				"element": "C" 
			},
			{
				"x": -0.7699939005,
				"y": 0.9232614405,
				"z": 3.3559717974,
				"element": "C" 
			},
			{
				"x": -0.0225037706,
				"y": 0.4714496565,
				"z": 2.2693305795,
				"element": "C" 
			},
			{
				"x": 4.8703522994,
				"y": -1.7247836917,
				"z": -1.6755993206,
				"element": "H" 
			},
			{
				"x": 3.9640081971,
				"y": -1.1636345507,
				"z": -0.3059444791,
				"element": "H" 
			},
			{
				"x": 2.0559842784,
				"y": -0.4384315771,
				"z": 0.6881532785,
				"element": "H" 
			},
			{
				"x": 0.1960420119,
				"y": -0.8947833584,
				"z": -3.1801183423,
				"element": "H" 
			},
			{
				"x": -2.4459423808,
				"y": 0.5176986313,
				"z": -0.1138587765,
				"element": "H" 
			},
			{
				"x": -3.7764312342,
				"y": 1.3235433879,
				"z": 1.8271828442,
				"element": "H" 
			},
			{
				"x": -2.6994288234,
				"y": 1.584225871,
				"z": 4.0573493655,
				"element": "H" 
			},
			{
				"x": -0.2868941093,
				"y": 1.0320454843,
				"z": 4.3223855206,
				"element": "H" 
			},
			{
				"x": 1.0267871992,
				"y": 0.237235385,
				"z": 2.4095802868,
				"element": "H" 
			}
		],
		 "valence_orbital": [ 
			{
				"type": "occ",
				"energy": -0.27206,
				"method": "rhf"
			},
			{
				"type": "occ",
				"energy": -0.26473,
				"method": "rhf"
			},
			{
				"type": "occ",
				"energy": -0.24372,
				"method": "rhf"
			},
			{
				"type": "occ",
				"energy": -0.22003,
				"method": "rhf"
			},
			{
				"type": "occ",
				"energy": -0.20776,
				"method": "rhf"
			},
			{
				"type": "unocc",
				"energy": -0.06002,
				"method": "rhf"
			},
			{
				"type": "unocc",
				"energy": -0.02493,
				"method": "rhf"
			},
			{
				"type": "unocc",
				"energy": -0.01628,
				"method": "rhf"
			},
			{
				"type": "unocc",
				"energy": 0.02954,
				"method": "rhf"
			},
			{
				"type": "unocc",
				"energy": 0.0469,
				"method": "rhf"
			}
		],
		"cosmo_sigma_profile": { 
			"-0.025": 0.0,
			"-0.024": 0.0,
			"-0.023": 0.0,
			"-0.022": 0.0,
			"-0.021": 0.0,
			"-0.02": 0.0,
			"-0.019": 0.0,
			"-0.018": 0.000738501047218,
			"-0.017": 0.946467195274,
			"-0.016": 1.34025802266,
			"-0.015": 2.09459029985,
			"-0.014": 2.87203345184,
			"-0.013": 2.9083973547,
			"-0.012": 3.2665634265,
			"-0.011": 4.63615339945,
			"-0.01": 2.22339020555,
			"-0.009": 2.70588382662,
			"-0.008": 3.48573103651,
			"-0.007": 4.60077572951,
			"-0.006": 10.9675501071,
			"-0.005": 12.346225753,
			"-0.004": 12.7068126796,
			"-0.003": 10.5863825441,
			"-0.002": 11.4972539882,
			"-0.001": 10.9952360041,
			"0.0": 14.5174357865,
			"0.001": 17.7356847162,
			"0.002": 20.6763317372,
			"0.003": 15.9000335039,
			"0.004": 18.2482338557,
			"0.005": 10.5925283801,
			"0.006": 6.07511441704,
			"0.007": 5.36458414994,
			"0.008": 6.51277683619,
			"0.009": 7.99014518863,
			"0.01": 8.89129814454,
			"0.011": 4.219451955,
			"0.012": 1.49832927667,
			"0.013": 0.0345068969669,
			"0.014": 0.0,
			"0.015": 0.0,
			"0.016": 0.0,
			"0.017": 0.0,
			"0.018": 0.0,
			"0.019": 0.0,
			"0.02": 0.0,
			"0.021": 0.0,
			"0.022": 0.0,
			"0.023": 0.0,
			"0.024": 0.0,
			"0.025": 0.0
		}
	}
}
