{
	 "smiles": "ClS(=O)(=O)C1=CC=C(I)C=C1", 
	 "Tm": 356.65, 
	 "num_atms": 15, 
	 "gaussian": { 
		 "optdone": 1, 
		 "sigma_profile": "no", 
		 "theory": "DFT", 
		 "functional": "B3LYP", 
		 "basiset": "6-31G**", 
		 "properties": { 
			 "R2extent": 2920.7117, 
			 "electric_dipole_moment_norm": 4.09414299335, 
			 "electric_quadrupole_moment_norm": 11.4458432822, 
			 "total_energy": -1251.18933311, 
			 "HOMO_LUMO_gap": 0.17323, 
			 "cosmo_polarized_energy": -101791.48, 
			 "cosmo_cavitation_energy": 26.38, 
			 "cosmo_dispersion_energy": -21.31, 
			 "cosmo_repulsion_energy": 1.64, 
			 "cosmo_total_nonelectrostatic_energy": 6.71, 
			 "SMD_solvation_energy": 2.34 
		},
		"coords": [
			{
				"x": -2.6813498269,
				"y": 0.9341361724,
				"z": -2.3806617954,
				"element": "Cl" 
			},
			{
				"x": -2.6074966632,
				"y": 0.3095335098,
				"z": -0.3425354466,
				"element": "S" 
			},
			{
				"x": -3.0760544004,
				"y": -1.070157924,
				"z": -0.3232228149,
				"element": "O" 
			},
			{
				"x": -3.2486471077,
				"y": 1.3659926095,
				"z": 0.4296513343,
				"element": "O" 
			},
			{
				"x": -0.847963211,
				"y": 0.338333932,
				"z": -0.0324742039,
				"element": "C" 
			},
			{
				"x": -0.1035540285,
				"y": -0.8174348639,
				"z": -0.2678901206,
				"element": "C" 
			},
			{
				"x": 1.266103631,
				"y": -0.7977068298,
				"z": -0.0099085487,
				"element": "C" 
			},
			{
				"x": 1.8584218527,
				"y": 0.3733369831,
				"z": 0.4739874588,
				"element": "C" 
			},
			{
				"x": 3.9349835107,
				"y": 0.4002027945,
				"z": 0.8624089895,
				"element": "I" 
			},
			{
				"x": 1.1014882699,
				"y": 1.5257485848,
				"z": 0.7091974566,
				"element": "C" 
			},
			{
				"x": -0.2685081842,
				"y": 1.5106223432,
				"z": 0.4526434329,
				"element": "C" 
			},
			{
				"x": -0.5866631813,
				"y": -1.7160681567,
				"z": -0.6350368182,
				"element": "H" 
			},
			{
				"x": 1.8608677769,
				"y": -1.6871907527,
				"z": -0.1820758477,
				"element": "H" 
			},
			{
				"x": 1.5694606988,
				"y": 2.4257050636,
				"z": 1.0908417734,
				"element": "H" 
			},
			{
				"x": -0.8774891369,
				"y": 2.3889465341,
				"z": 0.6354751505,
				"element": "H" 
			}
		],
		 "valence_orbital": [ 
			{
				"type": "occ",
				"energy": -0.32236,
				"method": "rhf"
			},
			{
				"type": "occ",
				"energy": -0.31841,
				"method": "rhf"
			},
			{
				"type": "occ",
				"energy": -0.30046,
				"method": "rhf"
			},
			{
				"type": "occ",
				"energy": -0.29117,
				"method": "rhf"
			},
			{
				"type": "occ",
				"energy": -0.27037,
				"method": "rhf"
			},
			{
				"type": "unocc",
				"energy": -0.09714,
				"method": "rhf"
			},
			{
				"type": "unocc",
				"energy": -0.0619,
				"method": "rhf"
			},
			{
				"type": "unocc",
				"energy": -0.05519,
				"method": "rhf"
			},
			{
				"type": "unocc",
				"energy": -0.05013,
				"method": "rhf"
			},
			{
				"type": "unocc",
				"energy": 0.02928,
				"method": "rhf"
			}
		],
		"cosmo_sigma_profile": { 
			"0.0": 0.0,
			"0.0": 0.0,
			"0.0": 0.0,
			"0.0": 0.0,
			"0.0": 0.0,
			"0.0": 0.0,
			"0.0": 0.0,
			"0.0": 0.0,
			"0.0": 0.0,
			"0.0": 0.0,
			"0.0": 0.0,
			"0.0": 0.0,
			"0.0": 0.0,
			"0.0": 0.0,
			"0.0": 0.0,
			"0.0": 0.0,
			"0.0": 0.0,
			"0.0": 0.0,
			"0.0": 0.0,
			"0.0": 0.0,
			"0.0": 0.0,
			"0.0": 0.0,
			"0.0": 0.0,
			"0.0": 0.0,
			"0.0": 0.0,
			"0.0": 0.0,
			"0.0": 0.0,
			"0.0": 0.0,
			"0.0": 0.0,
			"0.0": 0.0,
			"0.0": 0.0,
			"0.0": 0.0,
			"0.0": 0.0,
			"0.0": 0.0,
			"0.0": 0.0,
			"0.0": 0.0,
			"0.0": 0.0,
			"0.0": 0.0,
			"0.0": 0.0,
			"0.0": 0.0,
			"0.0": 0.0,
			"0.0": 0.0,
			"0.0": 0.0,
			"0.0": 0.0,
			"0.0": 0.0,
			"0.0": 0.0,
			"0.0": 0.0,
			"0.0": 0.0,
			"0.0": 0.0,
			"0.0": 0.0,
			"0.0": 0.0
		}
	}
}
