{
	 "smiles": "NC(CSC1=NC=CC=C1)=NO", 
	 "Tm": 373.15, 
	 "num_atms": 21, 
	 "gaussian": { 
		 "optdone": 1, 
		 "sigma_profile": "yes", 
		 "theory": "DFT", 
		 "functional": "B3LYP", 
		 "basiset": "6-31G**", 
		 "properties": { 
			 "R2extent": 2910.4917, 
			 "electric_dipole_moment_norm": 3.4799523172, 
			 "electric_quadrupole_moment_norm": 10.2302841759, 
			 "total_energy": -909.776510507, 
			 "HOMO_LUMO_gap": 0.1601, 
			 "cosmo_polarized_energy": -12.86, 
			 "cosmo_cavitation_energy": 26.61, 
			 "cosmo_dispersion_energy": -20.02, 
			 "cosmo_repulsion_energy": 1.57, 
			 "cosmo_total_nonelectrostatic_energy": 8.15, 
			 "SMD_solvation_energy": 3.86 
		},
		"coords": [
			{
				"x": -1.3204413834,
				"y": 2.2683402528,
				"z": 1.3896640173,
				"element": "N" 
			},
			{
				"x": -1.3142119445,
				"y": 0.9862433191,
				"z": 1.9119194312,
				"element": "C" 
			},
			{
				"x": -0.1436005368,
				"y": 0.1243297746,
				"z": 1.5154709075,
				"element": "C" 
			},
			{
				"x": -0.485396135,
				"y": -1.0066638702,
				"z": 0.1007660706,
				"element": "S" 
			},
			{
				"x": -0.1102275781,
				"y": 0.0000823379,
				"z": -1.3211063375,
				"element": "C" 
			},
			{
				"x": 0.0463318872,
				"y": 1.3221214514,
				"z": -1.1937789262,
				"element": "N" 
			},
			{
				"x": 0.3365223581,
				"y": 2.0340583117,
				"z": -2.2965155887,
				"element": "C" 
			},
			{
				"x": 0.4629174889,
				"y": 1.4765170328,
				"z": -3.5625394565,
				"element": "C" 
			},
			{
				"x": 0.2832115185,
				"y": 0.0942643686,
				"z": -3.6894536921,
				"element": "C" 
			},
			{
				"x": -0.0002912311,
				"y": -0.6595934835,
				"z": -2.5600844277,
				"element": "C" 
			},
			{
				"x": -2.2482685612,
				"y": 0.6275835601,
				"z": 2.7239597056,
				"element": "N" 
			},
			{
				"x": -2.0119463095,
				"y": -0.6904440969,
				"z": 3.2133984246,
				"element": "O" 
			},
			{
				"x": -0.9307824493,
				"y": 2.3086280138,
				"z": 0.4505730415,
				"element": "H" 
			},
			{
				"x": -2.2038366629,
				"y": 2.7492121195,
				"z": 1.5040035608,
				"element": "H" 
			},
			{
				"x": 0.1107887052,
				"y": -0.5475266982,
				"z": 2.335024788,
				"element": "H" 
			},
			{
				"x": 0.7174859809,
				"y": 0.7405989066,
				"z": 1.2540634004,
				"element": "H" 
			},
			{
				"x": 0.465700795,
				"y": 3.1038648211,
				"z": -2.1457596557,
				"element": "H" 
			},
			{
				"x": 0.692602731,
				"y": 2.1005109465,
				"z": -4.4193315153,
				"element": "H" 
			},
			{
				"x": 0.3737670365,
				"y": -0.3889758479,
				"z": -4.6580327309,
				"element": "H" 
			},
			{
				"x": -0.1259928399,
				"y": -1.735834386,
				"z": -2.6185893975,
				"element": "H" 
			},
			{
				"x": -2.7615328694,
				"y": -0.8077168338,
				"z": 3.8093483806,
				"element": "H" 
			}
		],
		 "valence_orbital": [ 
			{
				"type": "occ",
				"energy": -0.29552,
				"method": "rhf"
			},
			{
				"type": "occ",
				"energy": -0.27759,
				"method": "rhf"
			},
			{
				"type": "occ",
				"energy": -0.26101,
				"method": "rhf"
			},
			{
				"type": "occ",
				"energy": -0.22332,
				"method": "rhf"
			},
			{
				"type": "occ",
				"energy": -0.19724,
				"method": "rhf"
			},
			{
				"type": "unocc",
				"energy": -0.03714,
				"method": "rhf"
			},
			{
				"type": "unocc",
				"energy": -0.02199,
				"method": "rhf"
			},
			{
				"type": "unocc",
				"energy": 0.01188,
				"method": "rhf"
			},
			{
				"type": "unocc",
				"energy": 0.04969,
				"method": "rhf"
			},
			{
				"type": "unocc",
				"energy": 0.08298,
				"method": "rhf"
			}
		],
		"cosmo_sigma_profile": { 
			"-0.025": 0.0,
			"-0.024": 0.0,
			"-0.023": 0.0,
			"-0.022": 0.0,
			"-0.021": 0.0,
			"-0.02": 0.0,
			"-0.019": 0.0,
			"-0.018": 0.0,
			"-0.017": 0.184201321403,
			"-0.016": 0.857057579185,
			"-0.015": 1.30354378435,
			"-0.014": 0.741650111787,
			"-0.013": 0.255828956839,
			"-0.012": 1.40306024866,
			"-0.011": 2.05425762957,
			"-0.01": 1.4679598228,
			"-0.009": 2.09226229139,
			"-0.008": 3.27853787813,
			"-0.007": 10.4915031642,
			"-0.006": 13.5114073757,
			"-0.005": 14.6102108727,
			"-0.004": 11.0341712043,
			"-0.003": 12.2899626093,
			"-0.002": 11.9022762927,
			"-0.001": 9.89102858523,
			"0.0": 11.2570099181,
			"0.001": 18.0898814424,
			"0.002": 22.1099710042,
			"0.003": 12.3049839266,
			"0.004": 6.89314009544,
			"0.005": 8.19515287385,
			"0.006": 7.01166596874,
			"0.007": 7.97023696849,
			"0.008": 6.27078423891,
			"0.009": 6.14506797392,
			"0.01": 3.53341543976,
			"0.011": 1.91125137406,
			"0.012": 1.49674142421,
			"0.013": 1.92738243724,
			"0.014": 0.839834046179,
			"0.015": 0.44838987565,
			"0.016": 0.0,
			"0.017": 0.0,
			"0.018": 0.0,
			"0.019": 0.0,
			"0.02": 0.0,
			"0.021": 0.0,
			"0.022": 0.0,
			"0.023": 0.0,
			"0.024": 0.0,
			"0.025": 0.0
		}
	}
}
