{
	 "smiles": "NCCN1C(=O)CC2=C1C=CC=C2", 
	 "Tm": 362.15, 
	 "num_atms": 25, 
	 "gaussian": { 
		 "optdone": 1, 
		 "sigma_profile": "yes", 
		 "theory": "DFT", 
		 "functional": "B3LYP", 
		 "basiset": "6-31G**", 
		 "properties": { 
			 "R2extent": 2738.7516, 
			 "electric_dipole_moment_norm": 2.7848066019, 
			 "electric_quadrupole_moment_norm": 13.500161502, 
			 "total_energy": -573.043926014, 
			 "HOMO_LUMO_gap": 0.19736, 
			 "cosmo_polarized_energy": -12.47, 
			 "cosmo_cavitation_energy": 27.91, 
			 "cosmo_dispersion_energy": -20.01, 
			 "cosmo_repulsion_energy": 1.59, 
			 "cosmo_total_nonelectrostatic_energy": 9.49, 
			 "SMD_solvation_energy": 3.49 
		},
		"coords": [
			{
				"x": 0.6520842347,
				"y": -0.4759966153,
				"z": 3.112468566,
				"element": "N" 
			},
			{
				"x": 0.4471389215,
				"y": -1.2833074851,
				"z": 1.9149827269,
				"element": "C" 
			},
			{
				"x": -0.8231172711,
				"y": -0.9723847457,
				"z": 1.0955903906,
				"element": "C" 
			},
			{
				"x": -0.8890232036,
				"y": 0.4024838148,
				"z": 0.6229098867,
				"element": "N" 
			},
			{
				"x": -1.6268061015,
				"y": 1.3830176568,
				"z": 1.2767676611,
				"element": "C" 
			},
			{
				"x": -2.266416743,
				"y": 1.2127685574,
				"z": 2.3002914571,
				"element": "O" 
			},
			{
				"x": -1.4773403694,
				"y": 2.6779284406,
				"z": 0.4658760976,
				"element": "C" 
			},
			{
				"x": -0.57935377,
				"y": 2.2774811494,
				"z": -0.6748717222,
				"element": "C" 
			},
			{
				"x": -0.2621442198,
				"y": 0.9144512474,
				"z": -0.5273240891,
				"element": "C" 
			},
			{
				"x": 0.5531378939,
				"y": 0.2512097426,
				"z": -1.4396836043,
				"element": "C" 
			},
			{
				"x": 1.0538102638,
				"y": 0.9870721946,
				"z": -2.5221143065,
				"element": "C" 
			},
			{
				"x": 0.7486361911,
				"y": 2.3393012093,
				"z": -2.6805283592,
				"element": "C" 
			},
			{
				"x": -0.0746578661,
				"y": 2.9919434871,
				"z": -1.7502897424,
				"element": "C" 
			},
			{
				"x": 0.8036126073,
				"y": 0.4948902007,
				"z": 2.8505697594,
				"element": "H" 
			},
			{
				"x": -0.1918294088,
				"y": -0.4775939236,
				"z": 3.6817679146,
				"element": "H" 
			},
			{
				"x": 1.332942526,
				"y": -1.1760587237,
				"z": 1.2777462163,
				"element": "H" 
			},
			{
				"x": 0.3997326304,
				"y": -2.3409522404,
				"z": 2.2049736807,
				"element": "H" 
			},
			{
				"x": -1.7094295915,
				"y": -1.1200082375,
				"z": 1.7199827627,
				"element": "H" 
			},
			{
				"x": -0.900122185,
				"y": -1.6458053159,
				"z": 0.2328065849,
				"element": "H" 
			},
			{
				"x": -2.4689999057,
				"y": 3.0206440331,
				"z": 0.1491417768,
				"element": "H" 
			},
			{
				"x": -1.0595604354,
				"y": 3.4627480457,
				"z": 1.1066371246,
				"element": "H" 
			},
			{
				"x": 0.7991342261,
				"y": -0.7990341607,
				"z": -1.3233139754,
				"element": "H" 
			},
			{
				"x": 1.6925823044,
				"y": 0.4910445302,
				"z": -3.2471195164,
				"element": "H" 
			},
			{
				"x": 1.1495282115,
				"y": 2.8893837871,
				"z": -3.5261203917,
				"element": "H" 
			},
			{
				"x": -0.3143389399,
				"y": 4.044673351,
				"z": -1.8742468987,
				"element": "H" 
			}
		],
		 "valence_orbital": [ 
			{
				"type": "occ",
				"energy": -0.30616,
				"method": "rhf"
			},
			{
				"type": "occ",
				"energy": -0.25944,
				"method": "rhf"
			},
			{
				"type": "occ",
				"energy": -0.25592,
				"method": "rhf"
			},
			{
				"type": "occ",
				"energy": -0.23766,
				"method": "rhf"
			},
			{
				"type": "occ",
				"energy": -0.21339,
				"method": "rhf"
			},
			{
				"type": "unocc",
				"energy": -0.01603,
				"method": "rhf"
			},
			{
				"type": "unocc",
				"energy": -0.00622,
				"method": "rhf"
			},
			{
				"type": "unocc",
				"energy": 0.0299,
				"method": "rhf"
			},
			{
				"type": "unocc",
				"energy": 0.0827,
				"method": "rhf"
			},
			{
				"type": "unocc",
				"energy": 0.09177,
				"method": "rhf"
			}
		],
		"cosmo_sigma_profile": { 
			"-0.025": 0.0,
			"-0.024": 0.0,
			"-0.023": 0.0,
			"-0.022": 0.0,
			"-0.021": 0.0,
			"-0.02": 0.0,
			"-0.019": 0.0,
			"-0.018": 0.0,
			"-0.017": 0.0,
			"-0.016": 0.0,
			"-0.015": 0.0,
			"-0.014": 0.0,
			"-0.013": 0.0,
			"-0.012": 0.0,
			"-0.011": 0.0,
			"-0.01": 0.0716226212416,
			"-0.009": 1.31637607449,
			"-0.008": 2.46597975021,
			"-0.007": 6.34418642642,
			"-0.006": 14.9753897477,
			"-0.005": 20.7760393439,
			"-0.004": 25.1938975086,
			"-0.003": 25.2558130959,
			"-0.002": 17.878338526,
			"-0.001": 13.7541328241,
			"0.0": 10.6942599036,
			"0.001": 9.27059608771,
			"0.002": 9.42046524747,
			"0.003": 9.03704763424,
			"0.004": 10.4035235683,
			"0.005": 9.96005538352,
			"0.006": 8.10111300301,
			"0.007": 2.811689243,
			"0.008": 2.01239480803,
			"0.009": 2.01867545316,
			"0.01": 1.89859361654,
			"0.011": 1.75427262915,
			"0.012": 3.48943908761,
			"0.013": 5.21850552703,
			"0.014": 2.67008365873,
			"0.015": 0.761929059205,
			"0.016": 0.609290092372,
			"0.017": 0.576786693571,
			"0.018": 0.743808380303,
			"0.019": 0.610194826344,
			"0.02": 0.235220074659,
			"0.021": 0.0,
			"0.022": 0.0,
			"0.023": 0.0,
			"0.024": 0.0,
			"0.025": 0.0
		}
	}
}
