{
	 "smiles": "NCC(O)C1=C(F)C=CC=C1", 
	 "Tm": 336.15, 
	 "num_atms": 21, 
	 "gaussian": { 
		 "optdone": 1, 
		 "sigma_profile": "yes", 
		 "theory": "DFT", 
		 "functional": "B3LYP", 
		 "basiset": "6-31G**", 
		 "properties": { 
			 "R2extent": 2433.1226, 
			 "electric_dipole_moment_norm": 2.80660262061, 
			 "electric_quadrupole_moment_norm": 6.79678234461, 
			 "total_energy": -540.677405713, 
			 "HOMO_LUMO_gap": 0.21396, 
			 "cosmo_polarized_energy": -10.31, 
			 "cosmo_cavitation_energy": 24.34, 
			 "cosmo_dispersion_energy": -17.56, 
			 "cosmo_repulsion_energy": 1.41, 
			 "cosmo_total_nonelectrostatic_energy": 8.19, 
			 "SMD_solvation_energy": 3.11 
		},
		"coords": [
			{
				"x": -2.4797420903,
				"y": -1.9445469429,
				"z": -1.6438166916,
				"element": "N" 
			},
			{
				"x": -1.1959439832,
				"y": -1.922352543,
				"z": -2.3313951825,
				"element": "C" 
			},
			{
				"x": -0.6277145527,
				"y": -0.5315126787,
				"z": -2.7041222767,
				"element": "C" 
			},
			{
				"x": 0.602583875,
				"y": -0.793058484,
				"z": -3.3739555181,
				"element": "O" 
			},
			{
				"x": -0.4328008067,
				"y": 0.3643706058,
				"z": -1.4922523834,
				"element": "C" 
			},
			{
				"x": -1.4492140134,
				"y": 1.2072016127,
				"z": -1.0385287321,
				"element": "C" 
			},
			{
				"x": -2.6247971835,
				"y": 1.2351038558,
				"z": -1.7200910395,
				"element": "F" 
			},
			{
				"x": -1.3138269854,
				"y": 2.0300546852,
				"z": 0.0726615367,
				"element": "C" 
			},
			{
				"x": -0.1078592364,
				"y": 2.0122183878,
				"z": 0.7749443407,
				"element": "C" 
			},
			{
				"x": 0.9328333685,
				"y": 1.1813217326,
				"z": 0.353518226,
				"element": "C" 
			},
			{
				"x": 0.7669942061,
				"y": 0.3682910345,
				"z": -0.7684434754,
				"element": "C" 
			},
			{
				"x": -3.1735047596,
				"y": -1.4150956767,
				"z": -2.1659795274,
				"element": "H" 
			},
			{
				"x": -2.4017402739,
				"y": -1.4930225133,
				"z": -0.7361946845,
				"element": "H" 
			},
			{
				"x": -0.4522952043,
				"y": -2.4327355096,
				"z": -1.7088693653,
				"element": "H" 
			},
			{
				"x": -1.2762107282,
				"y": -2.4954046513,
				"z": -3.2619098859,
				"element": "H" 
			},
			{
				"x": -1.3428989513,
				"y": -0.0444922121,
				"z": -3.3845706964,
				"element": "H" 
			},
			{
				"x": 0.9663839279,
				"y": 0.0514691155,
				"z": -3.6707562298,
				"element": "H" 
			},
			{
				"x": -2.1421328196,
				"y": 2.6656117243,
				"z": 0.3671505757,
				"element": "H" 
			},
			{
				"x": 0.0153256412,
				"y": 2.6481066686,
				"z": 1.6463821211,
				"element": "H" 
			},
			{
				"x": 1.8726228065,
				"y": 1.1677856391,
				"z": 0.8970712051,
				"element": "H" 
			},
			{
				"x": 1.5721377633,
				"y": -0.2732138503,
				"z": -1.1128423168,
				"element": "H" 
			}
		],
		 "valence_orbital": [ 
			{
				"type": "occ",
				"energy": -0.33471,
				"method": "rhf"
			},
			{
				"type": "occ",
				"energy": -0.28329,
				"method": "rhf"
			},
			{
				"type": "occ",
				"energy": -0.25832,
				"method": "rhf"
			},
			{
				"type": "occ",
				"energy": -0.24829,
				"method": "rhf"
			},
			{
				"type": "occ",
				"energy": -0.23036,
				"method": "rhf"
			},
			{
				"type": "unocc",
				"energy": -0.0164,
				"method": "rhf"
			},
			{
				"type": "unocc",
				"energy": -0.00466,
				"method": "rhf"
			},
			{
				"type": "unocc",
				"energy": 0.07869,
				"method": "rhf"
			},
			{
				"type": "unocc",
				"energy": 0.08285,
				"method": "rhf"
			},
			{
				"type": "unocc",
				"energy": 0.09785,
				"method": "rhf"
			}
		],
		"cosmo_sigma_profile": { 
			"-0.025": 0.0,
			"-0.024": 0.0,
			"-0.023": 0.0,
			"-0.022": 0.0,
			"-0.021": 0.0,
			"-0.02": 0.0,
			"-0.019": 0.0,
			"-0.018": 0.0,
			"-0.017": 0.0,
			"-0.016": 0.547563186707,
			"-0.015": 0.952422303555,
			"-0.014": 0.697724184235,
			"-0.013": 0.779204978063,
			"-0.012": 1.20534423407,
			"-0.011": 0.474949109277,
			"-0.01": 0.445555074186,
			"-0.009": 1.76748326984,
			"-0.008": 3.61451746152,
			"-0.007": 5.04232579003,
			"-0.006": 8.67324065457,
			"-0.005": 12.3874268473,
			"-0.004": 15.9263509964,
			"-0.003": 16.1981913768,
			"-0.002": 14.1500581363,
			"-0.001": 12.558232038,
			"0.0": 13.0722520219,
			"0.001": 13.1279581862,
			"0.002": 11.6356935761,
			"0.003": 11.7748975657,
			"0.004": 15.5729401366,
			"0.005": 10.5246511294,
			"0.006": 2.45757858127,
			"0.007": 1.91778825412,
			"0.008": 1.66662844619,
			"0.009": 1.66519154934,
			"0.01": 2.09174044599,
			"0.011": 1.61793148138,
			"0.012": 2.02346713661,
			"0.013": 2.37263956827,
			"0.014": 1.61572590273,
			"0.015": 0.349628566641,
			"0.016": 0.499631948469,
			"0.017": 1.07015940927,
			"0.018": 0.518549668269,
			"0.019": 0.562084912288,
			"0.02": 0.127666759408,
			"0.021": 0.0,
			"0.022": 0.0,
			"0.023": 0.0,
			"0.024": 0.0,
			"0.025": 0.0
		}
	}
}
