{
	 "smiles": "CC1=CC(CC#N)=CC(C)=C1", 
	 "Tm": 317.15, 
	 "num_atms": 22, 
	 "gaussian": { 
		 "optdone": 1, 
		 "sigma_profile": "yes", 
		 "theory": "DFT", 
		 "functional": "B3LYP", 
		 "basiset": "6-31G**", 
		 "properties": { 
			 "R2extent": 2519.1252, 
			 "electric_dipole_moment_norm": 4.33629490925, 
			 "electric_quadrupole_moment_norm": 20.5766820292, 
			 "total_energy": -442.4441043, 
			 "HOMO_LUMO_gap": 0.23046, 
			 "cosmo_polarized_energy": -10.11, 
			 "cosmo_cavitation_energy": 26.58, 
			 "cosmo_dispersion_energy": -18.39, 
			 "cosmo_repulsion_energy": 1.51, 
			 "cosmo_total_nonelectrostatic_energy": 9.69, 
			 "SMD_solvation_energy": 6.11 
		},
		"coords": [
			{
				"x": -1.9272984758,
				"y": -1.3631217481,
				"z": 2.1630031335,
				"element": "C" 
			},
			{
				"x": -1.2527055879,
				"y": -0.4545563307,
				"z": 1.1617846002,
				"element": "C" 
			},
			{
				"x": -1.8527313503,
				"y": 0.7471384114,
				"z": 0.7680720101,
				"element": "C" 
			},
			{
				"x": -1.2193671601,
				"y": 1.601171231,
				"z": -0.1380407857,
				"element": "C" 
			},
			{
				"x": -1.8953146344,
				"y": 2.8961210584,
				"z": -0.571714636,
				"element": "C" 
			},
			{
				"x": -2.7486760545,
				"y": 2.7266009337,
				"z": -1.7562625015,
				"element": "C" 
			},
			{
				"x": -3.4203913036,
				"y": 2.586466723,
				"z": -2.692482047,
				"element": "N" 
			},
			{
				"x": 0.0286122372,
				"y": 1.2511705008,
				"z": -0.659206548,
				"element": "C" 
			},
			{
				"x": 0.6536443909,
				"y": 0.0561528954,
				"z": -0.2845307688,
				"element": "C" 
			},
			{
				"x": 2.0157201273,
				"y": -0.3067740461,
				"z": -0.8286472661,
				"element": "C" 
			},
			{
				"x": -0.0035599131,
				"y": -0.783463545,
				"z": 0.622420028,
				"element": "C" 
			},
			{
				"x": -3.0168707168,
				"y": -1.2826822157,
				"z": 2.1063790338,
				"element": "H" 
			},
			{
				"x": -1.6342668418,
				"y": -1.1078920057,
				"z": 3.1891773427,
				"element": "H" 
			},
			{
				"x": -1.6554241517,
				"y": -2.4099811884,
				"z": 1.9987201874,
				"element": "H" 
			},
			{
				"x": -2.8282853763,
				"y": 1.0150840611,
				"z": 1.1679282444,
				"element": "H" 
			},
			{
				"x": -2.51687566,
				"y": 3.2946914694,
				"z": 0.2381434838,
				"element": "H" 
			},
			{
				"x": -1.145939716,
				"y": 3.6620425018,
				"z": -0.8017355257,
				"element": "H" 
			},
			{
				"x": 0.518623363,
				"y": 1.9117345939,
				"z": -1.3711928306,
				"element": "H" 
			},
			{
				"x": 2.1466966317,
				"y": -1.391377567,
				"z": -0.8860947939,
				"element": "H" 
			},
			{
				"x": 2.8152487718,
				"y": 0.0841100339,
				"z": -0.1867693928,
				"element": "H" 
			},
			{
				"x": 2.170502548,
				"y": 0.107101471,
				"z": -1.82944397,
				"element": "H" 
			},
			{
				"x": 0.4689588724,
				"y": -1.7190372381,
				"z": 0.9148930021,
				"element": "H" 
			}
		],
		 "valence_orbital": [ 
			{
				"type": "occ",
				"energy": -0.34417,
				"method": "rhf"
			},
			{
				"type": "occ",
				"energy": -0.3186,
				"method": "rhf"
			},
			{
				"type": "occ",
				"energy": -0.31685,
				"method": "rhf"
			},
			{
				"type": "occ",
				"energy": -0.24921,
				"method": "rhf"
			},
			{
				"type": "occ",
				"energy": -0.2442,
				"method": "rhf"
			},
			{
				"type": "unocc",
				"energy": -0.01374,
				"method": "rhf"
			},
			{
				"type": "unocc",
				"energy": -0.0091,
				"method": "rhf"
			},
			{
				"type": "unocc",
				"energy": 0.04382,
				"method": "rhf"
			},
			{
				"type": "unocc",
				"energy": 0.04643,
				"method": "rhf"
			},
			{
				"type": "unocc",
				"energy": 0.09101,
				"method": "rhf"
			}
		],
		"cosmo_sigma_profile": { 
			"-0.025": 0.0,
			"-0.024": 0.0,
			"-0.023": 0.0,
			"-0.022": 0.0,
			"-0.021": 0.0,
			"-0.02": 0.0,
			"-0.019": 0.0,
			"-0.018": 0.0,
			"-0.017": 0.0,
			"-0.016": 0.0,
			"-0.015": 0.0,
			"-0.014": 0.0,
			"-0.013": 0.0,
			"-0.012": 0.0,
			"-0.011": 0.0,
			"-0.01": 0.0,
			"-0.009": 0.997928586936,
			"-0.008": 6.30876966209,
			"-0.007": 6.48544518312,
			"-0.006": 7.2222451532,
			"-0.005": 11.187010868,
			"-0.004": 22.294657151,
			"-0.003": 17.2493875286,
			"-0.002": 18.7611901609,
			"-0.001": 18.135980107,
			"0.0": 23.2810444913,
			"0.001": 13.5691941041,
			"0.002": 9.92275120991,
			"0.003": 8.30435676242,
			"0.004": 9.31829937999,
			"0.005": 9.56467859348,
			"0.006": 7.92381021471,
			"0.007": 2.09812379103,
			"0.008": 3.47077955585,
			"0.009": 3.53327090901,
			"0.01": 3.23842092525,
			"0.011": 3.25840239748,
			"0.012": 2.39220616062,
			"0.013": 2.22955733481,
			"0.014": 0.468123718223,
			"0.015": 0.0,
			"0.016": 0.0,
			"0.017": 0.0,
			"0.018": 0.0,
			"0.019": 0.0,
			"0.02": 0.0,
			"0.021": 0.0,
			"0.022": 0.0,
			"0.023": 0.0,
			"0.024": 0.0,
			"0.025": 0.0
		}
	}
}
