{
	 "smiles": "CC1=CC2=C(C(C)=C1)C(=CC(=N2)C1CC1)C(O)=O", 
	 "Tm": 491.15, 
	 "num_atms": 33, 
	 "gaussian": { 
		 "optdone": 1, 
		 "sigma_profile": "yes", 
		 "theory": "DFT", 
		 "functional": "B3LYP", 
		 "basiset": "6-31G**", 
		 "properties": { 
			 "R2extent": 4986.7985, 
			 "electric_dipole_moment_norm": 1.26727142318, 
			 "electric_quadrupole_moment_norm": 15.2790845079, 
			 "total_energy": -785.841824727, 
			 "HOMO_LUMO_gap": 0.15872, 
			 "cosmo_polarized_energy": -11.72, 
			 "cosmo_cavitation_energy": 36.03, 
			 "cosmo_dispersion_energy": -25.84, 
			 "cosmo_repulsion_energy": 1.99, 
			 "cosmo_total_nonelectrostatic_energy": 12.18, 
			 "SMD_solvation_energy": 5.56 
		},
		"coords": [
			{
				"x": -1.3577392815,
				"y": 1.0305562095,
				"z": 3.9618507112,
				"element": "C" 
			},
			{
				"x": -0.7790808402,
				"y": 0.5066274506,
				"z": 2.6710019492,
				"element": "C" 
			},
			{
				"x": -0.7953115961,
				"y": 1.2456766012,
				"z": 1.511891714,
				"element": "C" 
			},
			{
				"x": -0.2482612806,
				"y": 0.7341477992,
				"z": 0.3058436646,
				"element": "C" 
			},
			{
				"x": 0.2987634692,
				"y": -0.5961575839,
				"z": 0.267741474,
				"element": "C" 
			},
			{
				"x": 0.3689153814,
				"y": -1.3382920098,
				"z": 1.4972520877,
				"element": "C" 
			},
			{
				"x": 1.052389369,
				"y": -2.6806315139,
				"z": 1.6225972849,
				"element": "C" 
			},
			{
				"x": -0.1700683348,
				"y": -0.7750380203,
				"z": 2.6383123456,
				"element": "C" 
			},
			{
				"x": 0.7782083657,
				"y": -1.0211214723,
				"z": -1.0132291372,
				"element": "C" 
			},
			{
				"x": 0.782618346,
				"y": -0.1324407775,
				"z": -2.0710599926,
				"element": "C" 
			},
			{
				"x": 0.2457946429,
				"y": 1.170316072,
				"z": -1.9148946423,
				"element": "C" 
			},
			{
				"x": -0.272866788,
				"y": 1.5711698394,
				"z": -0.7684595915,
				"element": "N" 
			},
			{
				"x": 0.2369858535,
				"y": 2.1165142676,
				"z": -3.0625727463,
				"element": "C" 
			},
			{
				"x": 0.4108208137,
				"y": 3.6043475416,
				"z": -2.8060513567,
				"element": "C" 
			},
			{
				"x": -0.9254187579,
				"y": 3.0816762372,
				"z": -3.2281277409,
				"element": "C" 
			},
			{
				"x": 1.1368346363,
				"y": -2.4329534209,
				"z": -1.3641550405,
				"element": "C" 
			},
			{
				"x": 2.3157506905,
				"y": -2.511553336,
				"z": -2.0293363882,
				"element": "O" 
			},
			{
				"x": 0.4388941824,
				"y": -3.4045581581,
				"z": -1.1669361589,
				"element": "O" 
			},
			{
				"x": -2.175097525,
				"y": 0.3912078353,
				"z": 4.3160507023,
				"element": "H" 
			},
			{
				"x": -1.7505565771,
				"y": 2.0433459089,
				"z": 3.8413809053,
				"element": "H" 
			},
			{
				"x": -0.6021198587,
				"y": 1.0518786828,
				"z": 4.755896827,
				"element": "H" 
			},
			{
				"x": -1.2102035199,
				"y": 2.2480962068,
				"z": 1.4779103665,
				"element": "H" 
			},
			{
				"x": 2.03819584,
				"y": -2.6799773413,
				"z": 1.1439939056,
				"element": "H" 
			},
			{
				"x": 0.4726802167,
				"y": -3.4818211398,
				"z": 1.158399139,
				"element": "H" 
			},
			{
				"x": 1.2012529002,
				"y": -2.9237907688,
				"z": 2.6776861351,
				"element": "H" 
			},
			{
				"x": -0.1090135487,
				"y": -1.3379986638,
				"z": 3.5672474999,
				"element": "H" 
			},
			{
				"x": 1.161866317,
				"y": -0.4455044783,
				"z": -3.0377190645,
				"element": "H" 
			},
			{
				"x": 0.6785418128,
				"y": 1.7243495026,
				"z": -3.9743717744,
				"element": "H" 
			},
			{
				"x": 1.0041558777,
				"y": 4.1695426974,
				"z": -3.5184369339,
				"element": "H" 
			},
			{
				"x": 0.5270951289,
				"y": 3.8928977442,
				"z": -1.766450728,
				"element": "H" 
			},
			{
				"x": -1.6993394994,
				"y": 3.0216873399,
				"z": -2.4698824606,
				"element": "H" 
			},
			{
				"x": -1.2728424932,
				"y": 3.2786639359,
				"z": -4.2378204412,
				"element": "H" 
			},
			{
				"x": 2.4107560576,
				"y": -3.4438631876,
				"z": -2.2902525146,
				"element": "H" 
			}
		],
		 "valence_orbital": [ 
			{
				"type": "occ",
				"energy": -0.2885,
				"method": "rhf"
			},
			{
				"type": "occ",
				"energy": -0.28282,
				"method": "rhf"
			},
			{
				"type": "occ",
				"energy": -0.25307,
				"method": "rhf"
			},
			{
				"type": "occ",
				"energy": -0.23461,
				"method": "rhf"
			},
			{
				"type": "occ",
				"energy": -0.22122,
				"method": "rhf"
			},
			{
				"type": "unocc",
				"energy": -0.0625,
				"method": "rhf"
			},
			{
				"type": "unocc",
				"energy": -0.01527,
				"method": "rhf"
			},
			{
				"type": "unocc",
				"energy": 0.00496,
				"method": "rhf"
			},
			{
				"type": "unocc",
				"energy": 0.03116,
				"method": "rhf"
			},
			{
				"type": "unocc",
				"energy": 0.07115,
				"method": "rhf"
			}
		],
		"cosmo_sigma_profile": { 
			"-0.025": 0.0,
			"-0.024": 0.0,
			"-0.023": 0.0,
			"-0.022": 0.0,
			"-0.021": 0.0,
			"-0.02": 0.0,
			"-0.019": 0.0615828964169,
			"-0.018": 1.08096321462,
			"-0.017": 0.85448450797,
			"-0.016": 0.702884961439,
			"-0.015": 0.830531214861,
			"-0.014": 0.563246787266,
			"-0.013": 1.02457948981,
			"-0.012": 0.914504347188,
			"-0.011": 0.505810639397,
			"-0.01": 0.910915794365,
			"-0.009": 0.384862908685,
			"-0.008": 0.902029050424,
			"-0.007": 3.20762837751,
			"-0.006": 5.12296359841,
			"-0.005": 15.4602873881,
			"-0.004": 26.0329225964,
			"-0.003": 23.1028621859,
			"-0.002": 23.8355786984,
			"-0.001": 23.6458467906,
			"0.0": 30.2129995682,
			"0.001": 27.2089123888,
			"0.002": 19.983788645,
			"0.003": 23.5378502775,
			"0.004": 19.6628380174,
			"0.005": 8.63655190068,
			"0.006": 4.94233087275,
			"0.007": 4.93395047778,
			"0.008": 4.53996641161,
			"0.009": 3.6528077079,
			"0.01": 3.39197601575,
			"0.011": 4.32378541265,
			"0.012": 1.46477996022,
			"0.013": 0.0,
			"0.014": 0.0,
			"0.015": 0.0,
			"0.016": 0.0,
			"0.017": 0.0,
			"0.018": 0.0,
			"0.019": 0.0,
			"0.02": 0.0,
			"0.021": 0.0,
			"0.022": 0.0,
			"0.023": 0.0,
			"0.024": 0.0,
			"0.025": 0.0
		}
	}
}
