{
	 "smiles": "ClC1=CC(C2=NN=NN2)=C(Cl)C=C1", 
	 "Tm": 430.15, 
	 "num_atms": 17, 
	 "gaussian": { 
		 "optdone": 1, 
		 "sigma_profile": "yes", 
		 "theory": "DFT", 
		 "functional": "B3LYP", 
		 "basiset": "6-31G**", 
		 "properties": { 
			 "R2extent": 3545.069, 
			 "electric_dipole_moment_norm": 5.58408301693, 
			 "electric_quadrupole_moment_norm": 12.6985124483, 
			 "total_energy": -1408.49155209, 
			 "HOMO_LUMO_gap": 0.19039, 
			 "cosmo_polarized_energy": -13.85, 
			 "cosmo_cavitation_energy": 25.68, 
			 "cosmo_dispersion_energy": -19.6, 
			 "cosmo_repulsion_energy": 1.53, 
			 "cosmo_total_nonelectrostatic_energy": 7.6, 
			 "SMD_solvation_energy": 2.05 
		},
		"coords": [
			{
				"x": 1.8846485758,
				"y": 0.295510785,
				"z": 2.5566257057,
				"element": "Cl" 
			},
			{
				"x": 1.2956108932,
				"y": 0.4854313541,
				"z": 0.9190702908,
				"element": "C" 
			},
			{
				"x": 0.2717776481,
				"y": -0.3319688955,
				"z": 0.4628578154,
				"element": "C" 
			},
			{
				"x": -0.2226740612,
				"y": -0.2021865165,
				"z": -0.8500326238,
				"element": "C" 
			},
			{
				"x": -1.3061950556,
				"y": -1.1207980538,
				"z": -1.2211901158,
				"element": "C" 
			},
			{
				"x": -1.8157809157,
				"y": -2.0322014158,
				"z": -0.3989619427,
				"element": "N" 
			},
			{
				"x": -2.7820005695,
				"y": -2.6802417881,
				"z": -1.0865089249,
				"element": "N" 
			},
			{
				"x": -2.8929787835,
				"y": -2.2126766262,
				"z": -2.2896274619,
				"element": "N" 
			},
			{
				"x": -1.973128966,
				"y": -1.2322576768,
				"z": -2.3928849904,
				"element": "N" 
			},
			{
				"x": 0.3576814121,
				"y": 0.7799569546,
				"z": -1.67199841,
				"element": "C" 
			},
			{
				"x": -0.1656243472,
				"y": 1.048488847,
				"z": -3.3347415791,
				"element": "Cl" 
			},
			{
				"x": 1.3869131181,
				"y": 1.5980624481,
				"z": -1.2058518214,
				"element": "C" 
			},
			{
				"x": 1.8636226921,
				"y": 1.4570772543,
				"z": 0.0929471265,
				"element": "C" 
			},
			{
				"x": -0.1690529921,
				"y": -1.0858646474,
				"z": 1.1036948588,
				"element": "H" 
			},
			{
				"x": -1.8647016913,
				"y": -0.709891497,
				"z": -3.2500744715,
				"element": "H" 
			},
			{
				"x": 1.8120597405,
				"y": 2.3453823192,
				"z": -1.8659521925,
				"element": "H" 
			},
			{
				"x": 2.6632233023,
				"y": 2.0912771549,
				"z": 0.4580287368,
				"element": "H" 
			}
		],
		 "valence_orbital": [ 
			{
				"type": "occ",
				"energy": -0.32845,
				"method": "rhf"
			},
			{
				"type": "occ",
				"energy": -0.30639,
				"method": "rhf"
			},
			{
				"type": "occ",
				"energy": -0.29207,
				"method": "rhf"
			},
			{
				"type": "occ",
				"energy": -0.27754,
				"method": "rhf"
			},
			{
				"type": "occ",
				"energy": -0.26616,
				"method": "rhf"
			},
			{
				"type": "unocc",
				"energy": -0.07577,
				"method": "rhf"
			},
			{
				"type": "unocc",
				"energy": -0.04595,
				"method": "rhf"
			},
			{
				"type": "unocc",
				"energy": -0.01031,
				"method": "rhf"
			},
			{
				"type": "unocc",
				"energy": -0.00883,
				"method": "rhf"
			},
			{
				"type": "unocc",
				"energy": 0.01551,
				"method": "rhf"
			}
		],
		"cosmo_sigma_profile": { 
			"-0.025": 0.0,
			"-0.024": 0.0,
			"-0.023": 0.0,
			"-0.022": 0.0,
			"-0.021": 0.0,
			"-0.02": 0.0,
			"-0.019": 0.0,
			"-0.018": 0.373251114001,
			"-0.017": 0.547703359942,
			"-0.016": 0.59654962281,
			"-0.015": 0.644588920684,
			"-0.014": 1.12522679886,
			"-0.013": 0.662276701366,
			"-0.012": 0.783333114663,
			"-0.011": 0.98243385837,
			"-0.01": 0.871360434494,
			"-0.009": 3.81249028769,
			"-0.008": 6.58986900444,
			"-0.007": 6.29712009634,
			"-0.006": 7.09992238727,
			"-0.005": 8.46735149588,
			"-0.004": 11.5163550049,
			"-0.003": 11.7321214125,
			"-0.002": 14.1525887791,
			"-0.001": 21.3414771034,
			"0.0": 25.4288948216,
			"0.001": 16.8680356128,
			"0.002": 13.1774839824,
			"0.003": 14.4769742649,
			"0.004": 10.9218797195,
			"0.005": 3.2281326428,
			"0.006": 3.51703915411,
			"0.007": 4.57262132909,
			"0.008": 4.42482304438,
			"0.009": 4.54689370499,
			"0.01": 5.51438679028,
			"0.011": 3.82938552854,
			"0.012": 2.75072300108,
			"0.013": 1.62135661006,
			"0.014": 0.293268001524,
			"0.015": 0.0,
			"0.016": 0.0,
			"0.017": 0.0,
			"0.018": 0.0,
			"0.019": 0.0,
			"0.02": 0.0,
			"0.021": 0.0,
			"0.022": 0.0,
			"0.023": 0.0,
			"0.024": 0.0,
			"0.025": 0.0
		}
	}
}
