{
	 "smiles": "CC1=CC=CC2=C1N=CC=N2", 
	 "Tm": 293.65, 
	 "num_atms": 19, 
	 "gaussian": { 
		 "optdone": 1, 
		 "sigma_profile": "yes", 
		 "theory": "DFT", 
		 "functional": "B3LYP", 
		 "basiset": "6-31G**", 
		 "properties": { 
			 "R2extent": 1995.8558, 
			 "electric_dipole_moment_norm": 0.688196781451, 
			 "electric_quadrupole_moment_norm": 7.07794013962, 
			 "total_energy": -457.285866722, 
			 "HOMO_LUMO_gap": 0.16798, 
			 "cosmo_polarized_energy": -6.41, 
			 "cosmo_cavitation_energy": 22.68, 
			 "cosmo_dispersion_energy": -17.1, 
			 "cosmo_repulsion_energy": 1.35, 
			 "cosmo_total_nonelectrostatic_energy": 6.93, 
			 "SMD_solvation_energy": 1.34 
		},
		"coords": [
			{
				"x": -1.6093657885,
				"y": -1.989352455,
				"z": -0.0160254075,
				"element": "C" 
			},
			{
				"x": -0.4660431697,
				"y": -1.0879977363,
				"z": -0.4006047556,
				"element": "C" 
			},
			{
				"x": -0.5660505106,
				"y": -0.1664202632,
				"z": -1.4243474316,
				"element": "C" 
			},
			{
				"x": 0.5143409296,
				"y": 0.6801209804,
				"z": -1.7823895331,
				"element": "C" 
			},
			{
				"x": 1.7137336265,
				"y": 0.6117553795,
				"z": -1.114271243,
				"element": "C" 
			},
			{
				"x": 1.8678419816,
				"y": -0.318666612,
				"z": -0.0542664777,
				"element": "C" 
			},
			{
				"x": 0.7758253006,
				"y": -1.1722284108,
				"z": 0.3053900255,
				"element": "C" 
			},
			{
				"x": 0.9020615484,
				"y": -2.0734840084,
				"z": 1.3206082851,
				"element": "N" 
			},
			{
				"x": 2.0643798481,
				"y": -2.1120607238,
				"z": 1.938786546,
				"element": "C" 
			},
			{
				"x": 3.1454229718,
				"y": -1.2650053455,
				"z": 1.5806032217,
				"element": "C" 
			},
			{
				"x": 3.0597317559,
				"y": -0.3833594187,
				"z": 0.6062404896,
				"element": "N" 
			},
			{
				"x": -1.8952224249,
				"y": -1.839452412,
				"z": 1.0299803385,
				"element": "H" 
			},
			{
				"x": -2.4820631406,
				"y": -1.8025022461,
				"z": -0.6471392761,
				"element": "H" 
			},
			{
				"x": -1.3291677796,
				"y": -3.043448765,
				"z": -0.1091892324,
				"element": "H" 
			},
			{
				"x": -1.5003098004,
				"y": -0.0855833339,
				"z": -1.9739415937,
				"element": "H" 
			},
			{
				"x": 0.3831535934,
				"y": 1.3879743416,
				"z": -2.5957814164,
				"element": "H" 
			},
			{
				"x": 2.5577910804,
				"y": 1.2456800396,
				"z": -1.3650190769,
				"element": "H" 
			},
			{
				"x": 2.1779316917,
				"y": -2.8280077008,
				"z": 2.751872966,
				"element": "H" 
			},
			{
				"x": 4.0906082863,
				"y": -1.3293613095,
				"z": 2.1181935716,
				"element": "H" 
			}
		],
		 "valence_orbital": [ 
			{
				"type": "occ",
				"energy": -0.332,
				"method": "rhf"
			},
			{
				"type": "occ",
				"energy": -0.30494,
				"method": "rhf"
			},
			{
				"type": "occ",
				"energy": -0.25783,
				"method": "rhf"
			},
			{
				"type": "occ",
				"energy": -0.24431,
				"method": "rhf"
			},
			{
				"type": "occ",
				"energy": -0.23645,
				"method": "rhf"
			},
			{
				"type": "unocc",
				"energy": -0.06847,
				"method": "rhf"
			},
			{
				"type": "unocc",
				"energy": -0.02267,
				"method": "rhf"
			},
			{
				"type": "unocc",
				"energy": 0.01342,
				"method": "rhf"
			},
			{
				"type": "unocc",
				"energy": 0.08095,
				"method": "rhf"
			},
			{
				"type": "unocc",
				"energy": 0.0986,
				"method": "rhf"
			}
		],
		"cosmo_sigma_profile": { 
			"-0.025": 0.0,
			"-0.024": 0.0,
			"-0.023": 0.0,
			"-0.022": 0.0,
			"-0.021": 0.0,
			"-0.02": 0.0,
			"-0.019": 0.0,
			"-0.018": 0.0,
			"-0.017": 0.0,
			"-0.016": 0.0,
			"-0.015": 0.0,
			"-0.014": 0.0,
			"-0.013": 0.0,
			"-0.012": 0.0,
			"-0.011": 0.0,
			"-0.01": 0.0,
			"-0.009": 0.0,
			"-0.008": 0.987672801848,
			"-0.007": 6.69674791915,
			"-0.006": 10.264457376,
			"-0.005": 11.871585797,
			"-0.004": 12.6373999561,
			"-0.003": 11.9474596246,
			"-0.002": 14.3783474003,
			"-0.001": 17.0996669613,
			"0.0": 19.4814708052,
			"0.001": 17.9385351125,
			"0.002": 14.7210810917,
			"0.003": 13.6004404363,
			"0.004": 9.56836612082,
			"0.005": 2.99681310686,
			"0.006": 2.92810889289,
			"0.007": 2.84758673071,
			"0.008": 2.58478362782,
			"0.009": 1.76109335795,
			"0.01": 1.72246743632,
			"0.011": 1.3967356682,
			"0.012": 1.40795334044,
			"0.013": 1.85087914905,
			"0.014": 0.753923578387,
			"0.015": 0.497143820456,
			"0.016": 0.0716747361425,
			"0.017": 0.0,
			"0.018": 0.0,
			"0.019": 0.0,
			"0.02": 0.0,
			"0.021": 0.0,
			"0.022": 0.0,
			"0.023": 0.0,
			"0.024": 0.0,
			"0.025": 0.0
		}
	}
}
