{
	 "smiles": "OC(=O)C=C/C(=O)NC1=C(Cl)C=CC(Cl)=C1", 
	 "Tm": 415.15, 
	 "num_atms": 23, 
	 "gaussian": { 
		 "optdone": 1, 
		 "sigma_profile": "yes", 
		 "theory": "DFT", 
		 "functional": "B3LYP", 
		 "basiset": "6-31G**", 
		 "properties": { 
			 "R2extent": 4996.0689, 
			 "electric_dipole_moment_norm": 4.04763823853, 
			 "electric_quadrupole_moment_norm": 22.5447710494, 
			 "total_energy": -1586.07623977, 
			 "HOMO_LUMO_gap": 0.16796, 
			 "cosmo_polarized_energy": -22.58, 
			 "cosmo_cavitation_energy": 32.42, 
			 "cosmo_dispersion_energy": -22.4, 
			 "cosmo_repulsion_energy": 1.79, 
			 "cosmo_total_nonelectrostatic_energy": 11.81, 
			 "SMD_solvation_energy": 6.69 
		},
		"coords": [
			{
				"x": 0.8430023151,
				"y": -3.1908351703,
				"z": 1.3238126849,
				"element": "O" 
			},
			{
				"x": 1.2348528478,
				"y": -1.9860194814,
				"z": 0.8355127893,
				"element": "C" 
			},
			{
				"x": 1.8595490373,
				"y": -1.2219260709,
				"z": 1.5343213711,
				"element": "O" 
			},
			{
				"x": 0.8423561472,
				"y": -1.6995374585,
				"z": -0.5730123765,
				"element": "C" 
			},
			{
				"x": 1.2006746076,
				"y": -0.5805897353,
				"z": -1.2157848729,
				"element": "C" 
			},
			{
				"x": 2.1740865001,
				"y": 0.4675799663,
				"z": -0.7424864564,
				"element": "C" 
			},
			{
				"x": 3.3046762778,
				"y": 0.4397920602,
				"z": -1.201218824,
				"element": "O" 
			},
			{
				"x": 1.7751001565,
				"y": 1.4806976774,
				"z": 0.1035525611,
				"element": "N" 
			},
			{
				"x": 0.5798298087,
				"y": 1.6356680225,
				"z": 0.8199385417,
				"element": "C" 
			},
			{
				"x": 0.6042269551,
				"y": 2.1008026411,
				"z": 2.1489609332,
				"element": "C" 
			},
			{
				"x": 2.1362582522,
				"y": 2.460035567,
				"z": 2.9219417239,
				"element": "Cl" 
			},
			{
				"x": -0.5738424355,
				"y": 2.2912083377,
				"z": 2.8656261399,
				"element": "C" 
			},
			{
				"x": -1.8089412034,
				"y": 2.0173940955,
				"z": 2.2813731647,
				"element": "C" 
			},
			{
				"x": -1.836885545,
				"y": 1.5765652412,
				"z": 0.9601197298,
				"element": "C" 
			},
			{
				"x": -3.3808079346,
				"y": 1.2564989434,
				"z": 0.1860420652,
				"element": "Cl" 
			},
			{
				"x": -0.6688673565,
				"y": 1.407189229,
				"z": 0.2236150282,
				"element": "C" 
			},
			{
				"x": 0.3668642834,
				"y": -3.6973912564,
				"z": 0.6514379766,
				"element": "H" 
			},
			{
				"x": 0.2426607105,
				"y": -2.4358531634,
				"z": -1.105309552,
				"element": "H" 
			},
			{
				"x": 0.9041223824,
				"y": -0.4586372941,
				"z": -2.2557340154,
				"element": "H" 
			},
			{
				"x": 2.5707205497,
				"y": 2.0113459364,
				"z": 0.4420920101,
				"element": "H" 
			},
			{
				"x": -0.5199216446,
				"y": 2.6444106392,
				"z": 3.8891971615,
				"element": "H" 
			},
			{
				"x": -2.7281689593,
				"y": 2.1526825876,
				"z": 2.8386953778,
				"element": "H" 
			},
			{
				"x": -0.7267457527,
				"y": 1.1132186856,
				"z": -0.8157931619,
				"element": "H" 
			}
		],
		 "valence_orbital": [ 
			{
				"type": "occ",
				"energy": -0.30926,
				"method": "rhf"
			},
			{
				"type": "occ",
				"energy": -0.28538,
				"method": "rhf"
			},
			{
				"type": "occ",
				"energy": -0.27115,
				"method": "rhf"
			},
			{
				"type": "occ",
				"energy": -0.26074,
				"method": "rhf"
			},
			{
				"type": "occ",
				"energy": -0.24039,
				"method": "rhf"
			},
			{
				"type": "unocc",
				"energy": -0.07243,
				"method": "rhf"
			},
			{
				"type": "unocc",
				"energy": -0.03549,
				"method": "rhf"
			},
			{
				"type": "unocc",
				"energy": -0.0305,
				"method": "rhf"
			},
			{
				"type": "unocc",
				"energy": 0.0079,
				"method": "rhf"
			},
			{
				"type": "unocc",
				"energy": 0.01118,
				"method": "rhf"
			}
		],
		"cosmo_sigma_profile": { 
			"-0.025": 0.0,
			"-0.024": 0.0,
			"-0.023": 0.0,
			"-0.022": 0.0,
			"-0.021": 0.0,
			"-0.02": 0.435621716965,
			"-0.019": 1.42038861485,
			"-0.018": 1.61550987304,
			"-0.017": 0.727665275591,
			"-0.016": 1.09755511896,
			"-0.015": 1.03237478186,
			"-0.014": 1.39804407599,
			"-0.013": 0.656025023333,
			"-0.012": 2.36301262297,
			"-0.011": 2.02754872401,
			"-0.01": 4.31758946253,
			"-0.009": 7.21674136407,
			"-0.008": 10.001352135,
			"-0.007": 9.76773737197,
			"-0.006": 9.23153699408,
			"-0.005": 8.0780588271,
			"-0.004": 9.58944430354,
			"-0.003": 10.4103034832,
			"-0.002": 11.7416800636,
			"-0.001": 17.4265245723,
			"0.0": 20.8720618281,
			"0.001": 25.0572632713,
			"0.002": 21.2985537396,
			"0.003": 16.3766288374,
			"0.004": 18.3361465628,
			"0.005": 7.21680212155,
			"0.006": 6.77555686446,
			"0.007": 5.39242456183,
			"0.008": 4.44008066555,
			"0.009": 5.26327145333,
			"0.01": 6.14743850733,
			"0.011": 6.75355818501,
			"0.012": 7.5175136731,
			"0.013": 2.5603516911,
			"0.014": 0.017076844594,
			"0.015": 0.0,
			"0.016": 0.0,
			"0.017": 0.0,
			"0.018": 0.0,
			"0.019": 0.0,
			"0.02": 0.0,
			"0.021": 0.0,
			"0.022": 0.0,
			"0.023": 0.0,
			"0.024": 0.0,
			"0.025": 0.0
		}
	}
}
