{
	 "smiles": "ClC1=CC=C(OCCCCBr)C=C1", 
	 "Tm": 303.65, 
	 "num_atms": 25, 
	 "gaussian": { 
		 "optdone": 1, 
		 "sigma_profile": "yes", 
		 "theory": "DFT", 
		 "functional": "B3LYP", 
		 "basiset": "6-31G**", 
		 "properties": { 
			 "R2extent": 7456.3681, 
			 "electric_dipole_moment_norm": 0.920076551163, 
			 "electric_quadrupole_moment_norm": 17.7472364164, 
			 "total_energy": -3495.11942145, 
			 "HOMO_LUMO_gap": 0.20594, 
			 "cosmo_polarized_energy": -7.92, 
			 "cosmo_cavitation_energy": 32.08, 
			 "cosmo_dispersion_energy": -23.49, 
			 "cosmo_repulsion_energy": 1.88, 
			 "cosmo_total_nonelectrostatic_energy": 10.47, 
			 "SMD_solvation_energy": 3.89 
		},
		"coords": [
			{
				"x": 1.3838979394,
				"y": -4.1813583796,
				"z": -2.4703162849,
				"element": "Cl" 
			},
			{
				"x": 0.8897997483,
				"y": -2.6228129979,
				"z": -1.8191174931,
				"element": "C" 
			},
			{
				"x": 1.4464042167,
				"y": -1.4500412658,
				"z": -2.3348928696,
				"element": "C" 
			},
			{
				"x": 1.0553196778,
				"y": -0.2216247163,
				"z": -1.8163036337,
				"element": "C" 
			},
			{
				"x": 0.1087077826,
				"y": -0.1501091295,
				"z": -0.7824681335,
				"element": "C" 
			},
			{
				"x": -0.2093436791,
				"y": 1.1121445956,
				"z": -0.3684522026,
				"element": "O" 
			},
			{
				"x": -1.1305114285,
				"y": 1.3050283047,
				"z": 0.7107805812,
				"element": "C" 
			},
			{
				"x": -0.4936667551,
				"y": 1.1202703171,
				"z": 2.0898429761,
				"element": "C" 
			},
			{
				"x": 0.7950816495,
				"y": 1.9275951762,
				"z": 2.3066000018,
				"element": "C" 
			},
			{
				"x": 0.6989907026,
				"y": 3.4245558398,
				"z": 2.0512375874,
				"element": "C" 
			},
			{
				"x": -0.6574388558,
				"y": 4.3174740262,
				"z": 3.2013081355,
				"element": "Br" 
			},
			{
				"x": -0.4415067795,
				"y": -1.3324108468,
				"z": -0.2718646013,
				"element": "C" 
			},
			{
				"x": -0.049031773,
				"y": -2.568001165,
				"z": -0.7944693087,
				"element": "C" 
			},
			{
				"x": 2.1767636531,
				"y": -1.5004103697,
				"z": -3.134950101,
				"element": "H" 
			},
			{
				"x": 1.4695975571,
				"y": 0.7031055075,
				"z": -2.2041479731,
				"element": "H" 
			},
			{
				"x": -2.0049909333,
				"y": 0.6538401833,
				"z": 0.5912485305,
				"element": "H" 
			},
			{
				"x": -1.4787281034,
				"y": 2.3342380328,
				"z": 0.5893157954,
				"element": "H" 
			},
			{
				"x": -1.2412705597,
				"y": 1.412540752,
				"z": 2.8364270664,
				"element": "H" 
			},
			{
				"x": -0.2680451717,
				"y": 0.0626122665,
				"z": 2.2634703269,
				"element": "H" 
			},
			{
				"x": 1.5735693038,
				"y": 1.5533587721,
				"z": 1.6282122111,
				"element": "H" 
			},
			{
				"x": 1.1549448202,
				"y": 1.755437655,
				"z": 3.3264252799,
				"element": "H" 
			},
			{
				"x": 1.6344637183,
				"y": 3.9329715233,
				"z": 2.2808851852,
				"element": "H" 
			},
			{
				"x": 0.4037946719,
				"y": 3.6600778258,
				"z": 1.0295329751,
				"element": "H" 
			},
			{
				"x": -1.1718829669,
				"y": -1.3137027352,
				"z": 0.5276993593,
				"element": "H" 
			},
			{
				"x": -0.4752184353,
				"y": -3.4833791722,
				"z": -0.3987034103,
				"element": "H" 
			}
		],
		 "valence_orbital": [ 
			{
				"type": "occ",
				"energy": -0.30427,
				"method": "rhf"
			},
			{
				"type": "occ",
				"energy": -0.27629,
				"method": "rhf"
			},
			{
				"type": "occ",
				"energy": -0.27505,
				"method": "rhf"
			},
			{
				"type": "occ",
				"energy": -0.26567,
				"method": "rhf"
			},
			{
				"type": "occ",
				"energy": -0.22254,
				"method": "rhf"
			},
			{
				"type": "unocc",
				"energy": -0.0166,
				"method": "rhf"
			},
			{
				"type": "unocc",
				"energy": -0.00234,
				"method": "rhf"
			},
			{
				"type": "unocc",
				"energy": 0.00101,
				"method": "rhf"
			},
			{
				"type": "unocc",
				"energy": 0.03118,
				"method": "rhf"
			},
			{
				"type": "unocc",
				"energy": 0.07791,
				"method": "rhf"
			}
		],
		"cosmo_sigma_profile": { 
			"-0.025": 0.0,
			"-0.024": 0.0,
			"-0.023": 0.0,
			"-0.022": 0.0,
			"-0.021": 0.0,
			"-0.02": 0.0,
			"-0.019": 0.0,
			"-0.018": 0.0,
			"-0.017": 0.0,
			"-0.016": 0.0,
			"-0.015": 0.0,
			"-0.014": 0.0,
			"-0.013": 0.0,
			"-0.012": 0.0,
			"-0.011": 0.0,
			"-0.01": 0.0,
			"-0.009": 0.0,
			"-0.008": 0.800007464919,
			"-0.007": 8.17319152003,
			"-0.006": 13.9282987107,
			"-0.005": 15.8547216714,
			"-0.004": 21.4644847273,
			"-0.003": 21.8280921185,
			"-0.002": 21.7564228466,
			"-0.001": 19.9133881165,
			"0.0": 15.7420581931,
			"0.001": 15.2640144507,
			"0.002": 19.6940425635,
			"0.003": 22.3811220568,
			"0.004": 25.901501471,
			"0.005": 18.5521341168,
			"0.006": 11.0069249139,
			"0.007": 5.04855482299,
			"0.008": 1.00866269346,
			"0.009": 0.810915975259,
			"0.01": 0.371699800595,
			"0.011": 0.0,
			"0.012": 0.0,
			"0.013": 0.0,
			"0.014": 0.0,
			"0.015": 0.0,
			"0.016": 0.0,
			"0.017": 0.0,
			"0.018": 0.0,
			"0.019": 0.0,
			"0.02": 0.0,
			"0.021": 0.0,
			"0.022": 0.0,
			"0.023": 0.0,
			"0.024": 0.0,
			"0.025": 0.0
		}
	}
}
