{
	 "smiles": "NC(C(N)=O)C1=CC=C(Br)C=C1", 
	 "Tm": 393.15, 
	 "num_atms": 21, 
	 "gaussian": { 
		 "optdone": 1, 
		 "sigma_profile": "yes", 
		 "theory": "DFT", 
		 "functional": "B3LYP", 
		 "basiset": "6-31G**", 
		 "properties": { 
			 "R2extent": 4554.5778, 
			 "electric_dipole_moment_norm": 4.11532941573, 
			 "electric_quadrupole_moment_norm": 11.6708085495, 
			 "total_energy": -3066.42290648, 
			 "HOMO_LUMO_gap": 0.21374, 
			 "cosmo_polarized_energy": -14.81, 
			 "cosmo_cavitation_energy": 27.36, 
			 "cosmo_dispersion_energy": -20.25, 
			 "cosmo_repulsion_energy": 1.65, 
			 "cosmo_total_nonelectrostatic_energy": 8.75, 
			 "SMD_solvation_energy": 3.93 
		},
		"coords": [
			{
				"x": 1.8045873447,
				"y": 0.6880360713,
				"z": -1.8093546387,
				"element": "N" 
			},
			{
				"x": 0.9093263786,
				"y": -0.3933510197,
				"z": -1.3820055257,
				"element": "C" 
			},
			{
				"x": 1.6781056297,
				"y": -1.4529207298,
				"z": -0.5535349938,
				"element": "C" 
			},
			{
				"x": 2.8208438421,
				"y": -0.9945382703,
				"z": 0.0179282318,
				"element": "N" 
			},
			{
				"x": 1.2497850087,
				"y": -2.5918885391,
				"z": -0.4372429646,
				"element": "O" 
			},
			{
				"x": -0.2440636911,
				"y": 0.1385733777,
				"z": -0.5396045963,
				"element": "C" 
			},
			{
				"x": -0.1894519429,
				"y": 1.3900447717,
				"z": 0.0836614971,
				"element": "C" 
			},
			{
				"x": -1.2545955494,
				"y": 1.8498320771,
				"z": 0.8611983819,
				"element": "C" 
			},
			{
				"x": -2.3764734754,
				"y": 1.0417604028,
				"z": 1.022999003,
				"element": "C" 
			},
			{
				"x": -3.8425739551,
				"y": 1.6657790912,
				"z": 2.081559353,
				"element": "Br" 
			},
			{
				"x": -2.4480960467,
				"y": -0.2160752711,
				"z": 0.424610026,
				"element": "C" 
			},
			{
				"x": -1.3811909684,
				"y": -0.6592638044,
				"z": -0.3537986532,
				"element": "C" 
			},
			{
				"x": 2.4633517132,
				"y": 0.3345956898,
				"z": -2.4988684613,
				"element": "H" 
			},
			{
				"x": 1.2668376252,
				"y": 1.4216838377,
				"z": -2.2645899035,
				"element": "H" 
			},
			{
				"x": 0.4786834912,
				"y": -0.9640006916,
				"z": -2.2174695693,
				"element": "H" 
			},
			{
				"x": 3.3276869199,
				"y": -1.599601889,
				"z": 0.644998172,
				"element": "H" 
			},
			{
				"x": 3.0656716282,
				"y": -0.020131229,
				"z": -0.0836734353,
				"element": "H" 
			},
			{
				"x": 0.6923883419,
				"y": 2.011371158,
				"z": -0.0328873386,
				"element": "H" 
			},
			{
				"x": -1.2091716459,
				"y": 2.8229430169,
				"z": 1.3370668833,
				"element": "H" 
			},
			{
				"x": -3.3250852153,
				"y": -0.8379582483,
				"z": 0.5634505868,
				"element": "H" 
			},
			{
				"x": -1.4204654332,
				"y": -1.6439898018,
				"z": -0.8091420547,
				"element": "H" 
			}
		],
		 "valence_orbital": [ 
			{
				"type": "occ",
				"energy": -0.27379,
				"method": "rhf"
			},
			{
				"type": "occ",
				"energy": -0.2676,
				"method": "rhf"
			},
			{
				"type": "occ",
				"energy": -0.26009,
				"method": "rhf"
			},
			{
				"type": "occ",
				"energy": -0.2518,
				"method": "rhf"
			},
			{
				"type": "occ",
				"energy": -0.23211,
				"method": "rhf"
			},
			{
				"type": "unocc",
				"energy": -0.01837,
				"method": "rhf"
			},
			{
				"type": "unocc",
				"energy": -0.01289,
				"method": "rhf"
			},
			{
				"type": "unocc",
				"energy": 0.01001,
				"method": "rhf"
			},
			{
				"type": "unocc",
				"energy": 0.03672,
				"method": "rhf"
			},
			{
				"type": "unocc",
				"energy": 0.068,
				"method": "rhf"
			}
		],
		"cosmo_sigma_profile": { 
			"-0.025": 0.0,
			"-0.024": 0.0,
			"-0.023": 0.0,
			"-0.022": 0.0,
			"-0.021": 0.0,
			"-0.02": 0.0,
			"-0.019": 0.0,
			"-0.018": 0.0,
			"-0.017": 0.0,
			"-0.016": 0.0,
			"-0.015": 0.0,
			"-0.014": 0.564267949829,
			"-0.013": 1.25765897043,
			"-0.012": 1.70324136037,
			"-0.011": 3.29814581305,
			"-0.01": 5.11079394782,
			"-0.009": 4.93261202339,
			"-0.008": 4.41579114082,
			"-0.007": 6.54092496155,
			"-0.006": 9.26628598438,
			"-0.005": 14.801269866,
			"-0.004": 14.6519098782,
			"-0.003": 10.8393923553,
			"-0.002": 11.7334378615,
			"-0.001": 9.60209022224,
			"0.0": 11.3815172285,
			"0.001": 13.6581571915,
			"0.002": 18.177688677,
			"0.003": 21.9462759734,
			"0.004": 22.2567608854,
			"0.005": 10.9436201612,
			"0.006": 2.00798809717,
			"0.007": 1.94728741981,
			"0.008": 2.21358293505,
			"0.009": 1.82060883158,
			"0.01": 1.93257157202,
			"0.011": 1.21626604799,
			"0.012": 2.38187908864,
			"0.013": 2.93033980998,
			"0.014": 5.19811467104,
			"0.015": 1.25156180187,
			"0.016": 0.0,
			"0.017": 0.0,
			"0.018": 0.0,
			"0.019": 0.0,
			"0.02": 0.0,
			"0.021": 0.0,
			"0.022": 0.0,
			"0.023": 0.0,
			"0.024": 0.0,
			"0.025": 0.0
		}
	}
}
