{
	 "smiles": "OC(CCN1CCCCC1)(C1CC2CC1C=C2)C1=CC=CC=C1", 
	 "Tm": 387.15, 
	 "num_atms": 52, 
	 "gaussian": { 
		 "optdone": 1, 
		 "sigma_profile": "yes", 
		 "theory": "DFT", 
		 "functional": "B3LYP", 
		 "basiset": "6-31G**", 
		 "properties": { 
			 "R2extent": 8909.8837, 
			 "electric_dipole_moment_norm": 1.35917117759, 
			 "electric_quadrupole_moment_norm": 6.54439396889, 
			 "total_energy": -947.631978867, 
			 "HOMO_LUMO_gap": 0.18527, 
			 "cosmo_polarized_energy": -9.91, 
			 "cosmo_cavitation_energy": 47.76, 
			 "cosmo_dispersion_energy": -32.74, 
			 "cosmo_repulsion_energy": 2.51, 
			 "cosmo_total_nonelectrostatic_energy": 17.54, 
			 "SMD_solvation_energy": 4.42 
		},
		"coords": [
			{
				"x": 0.6088379618,
				"y": 1.6558552572,
				"z": -0.8174671358,
				"element": "O" 
			},
			{
				"x": 0.7016069695,
				"y": 0.3261942863,
				"z": -0.2744681282,
				"element": "C" 
			},
			{
				"x": 0.7043029915,
				"y": -0.5904639805,
				"z": -1.5131215849,
				"element": "C" 
			},
			{
				"x": -0.5312442283,
				"y": -0.4196059074,
				"z": -2.4132459497,
				"element": "C" 
			},
			{
				"x": -0.4617356067,
				"y": -1.3044815169,
				"z": -3.5807974109,
				"element": "N" 
			},
			{
				"x": -0.8702908777,
				"y": -2.6836876066,
				"z": -3.3182792381,
				"element": "C" 
			},
			{
				"x": -2.3921053587,
				"y": -2.848627057,
				"z": -3.0546745898,
				"element": "C" 
			},
			{
				"x": -3.202812082,
				"y": -1.7904617527,
				"z": -3.837776573,
				"element": "C" 
			},
			{
				"x": -2.4753146456,
				"y": -1.4077056394,
				"z": -5.1324728692,
				"element": "C" 
			},
			{
				"x": -1.080357447,
				"y": -0.801967531,
				"z": -4.8203734666,
				"element": "C" 
			},
			{
				"x": 2.0136638586,
				"y": 0.2782107237,
				"z": 0.5768611501,
				"element": "C" 
			},
			{
				"x": 2.4625891457,
				"y": -1.076386112,
				"z": 1.2161168954,
				"element": "C" 
			},
			{
				"x": 3.9975302941,
				"y": -1.1323053313,
				"z": 0.907599441,
				"element": "C" 
			},
			{
				"x": 3.9875666964,
				"y": -0.6215323211,
				"z": -0.5506184206,
				"element": "C" 
			},
			{
				"x": 3.3340413203,
				"y": 0.7304022231,
				"z": -0.1732366743,
				"element": "C" 
			},
			{
				"x": 4.2718820344,
				"y": 1.1611746952,
				"z": 0.9496418266,
				"element": "C" 
			},
			{
				"x": 4.6537155486,
				"y": 0.0543002653,
				"z": 1.6020324655,
				"element": "C" 
			},
			{
				"x": -0.5131468735,
				"y": 0.0440769968,
				"z": 0.637477755,
				"element": "C" 
			},
			{
				"x": -1.3670282498,
				"y": 1.0845801543,
				"z": 1.0273741956,
				"element": "C" 
			},
			{
				"x": -2.4473818351,
				"y": 0.8546388532,
				"z": 1.881949737,
				"element": "C" 
			},
			{
				"x": -2.7058768631,
				"y": -0.4288645467,
				"z": 2.3607334399,
				"element": "C" 
			},
			{
				"x": -1.8754981084,
				"y": -1.4801563825,
				"z": 1.9686020209,
				"element": "C" 
			},
			{
				"x": -0.7946429886,
				"y": -1.245575047,
				"z": 1.1183328531,
				"element": "C" 
			},
			{
				"x": 0.842520609,
				"y": 2.27912665,
				"z": -0.1164118077,
				"element": "H" 
			},
			{
				"x": 0.7906077402,
				"y": -1.6332978252,
				"z": -1.1910482727,
				"element": "H" 
			},
			{
				"x": 1.5882657235,
				"y": -0.3678677825,
				"z": -2.1162019302,
				"element": "H" 
			},
			{
				"x": -1.4463910943,
				"y": -0.5611563507,
				"z": -1.8150408469,
				"element": "H" 
			},
			{
				"x": -0.5477286059,
				"y": 0.6146812328,
				"z": -2.7642506838,
				"element": "H" 
			},
			{
				"x": -0.5832701479,
				"y": -3.2805717026,
				"z": -4.1936775068,
				"element": "H" 
			},
			{
				"x": -0.291194725,
				"y": -3.0848592894,
				"z": -2.4796665056,
				"element": "H" 
			},
			{
				"x": -2.6949507832,
				"y": -3.8599968081,
				"z": -3.354512022,
				"element": "H" 
			},
			{
				"x": -2.6110215603,
				"y": -2.766826304,
				"z": -1.9841446307,
				"element": "H" 
			},
			{
				"x": -3.3310891559,
				"y": -0.8909333823,
				"z": -3.2230948954,
				"element": "H" 
			},
			{
				"x": -4.2112885586,
				"y": -2.1612221489,
				"z": -4.0522843194,
				"element": "H" 
			},
			{
				"x": -2.3638802898,
				"y": -2.3029956811,
				"z": -5.758430907,
				"element": "H" 
			},
			{
				"x": -3.0648884278,
				"y": -0.6955231003,
				"z": -5.7212111156,
				"element": "H" 
			},
			{
				"x": -1.1608100199,
				"y": 0.2867032404,
				"z": -4.738756527,
				"element": "H" 
			},
			{
				"x": -0.4055332802,
				"y": -1.0022133656,
				"z": -5.6663515374,
				"element": "H" 
			},
			{
				"x": 1.8244940515,
				"y": 0.9956868488,
				"z": 1.3867922558,
				"element": "H" 
			},
			{
				"x": 1.9793287457,
				"y": -1.9314421534,
				"z": 0.7352056011,
				"element": "H" 
			},
			{
				"x": 2.2391773812,
				"y": -1.1313709633,
				"z": 2.2841779223,
				"element": "H" 
			},
			{
				"x": 4.4485484523,
				"y": -2.1101137003,
				"z": 1.0925611342,
				"element": "H" 
			},
			{
				"x": 3.3890493744,
				"y": -1.2411543996,
				"z": -1.224132184,
				"element": "H" 
			},
			{
				"x": 4.9917647272,
				"y": -0.4961152155,
				"z": -0.9648368088,
				"element": "H" 
			},
			{
				"x": 3.1620611255,
				"y": 1.4526678995,
				"z": -0.9714018229,
				"element": "H" 
			},
			{
				"x": 4.471824248,
				"y": 2.1911256429,
				"z": 1.2277160244,
				"element": "H" 
			},
			{
				"x": 5.2390732038,
				"y": -0.0045288746,
				"z": 2.5136192326,
				"element": "H" 
			},
			{
				"x": -1.2034662813,
				"y": 2.081151587,
				"z": 0.6333240343,
				"element": "H" 
			},
			{
				"x": -3.0921944067,
				"y": 1.6824026179,
				"z": 2.164710239,
				"element": "H" 
			},
			{
				"x": -3.5472311704,
				"y": -0.6108184124,
				"z": 3.0231861704,
				"element": "H" 
			},
			{
				"x": -2.0690986606,
				"y": -2.4891382115,
				"z": 2.3225462732,
				"element": "H" 
			},
			{
				"x": -0.1729798709,
				"y": -2.0845127709,
				"z": 0.8254256975,
				"element": "H" 
			}
		],
		 "valence_orbital": [ 
			{
				"type": "occ",
				"energy": -0.26727,
				"method": "rhf"
			},
			{
				"type": "occ",
				"energy": -0.24679,
				"method": "rhf"
			},
			{
				"type": "occ",
				"energy": -0.24443,
				"method": "rhf"
			},
			{
				"type": "occ",
				"energy": -0.23025,
				"method": "rhf"
			},
			{
				"type": "occ",
				"energy": -0.18626,
				"method": "rhf"
			},
			{
				"type": "unocc",
				"energy": -0.00099,
				"method": "rhf"
			},
			{
				"type": "unocc",
				"energy": 0.00203,
				"method": "rhf"
			},
			{
				"type": "unocc",
				"energy": 0.02161,
				"method": "rhf"
			},
			{
				"type": "unocc",
				"energy": 0.07157,
				"method": "rhf"
			},
			{
				"type": "unocc",
				"energy": 0.08079,
				"method": "rhf"
			}
		],
		"cosmo_sigma_profile": { 
			"-0.025": 0.0,
			"-0.024": 0.0,
			"-0.023": 0.0,
			"-0.022": 0.0,
			"-0.021": 0.0,
			"-0.02": 0.0,
			"-0.019": 0.0,
			"-0.018": 0.0,
			"-0.017": 0.0,
			"-0.016": 0.0,
			"-0.015": 0.252260682155,
			"-0.014": 0.49786420635,
			"-0.013": 1.17092138152,
			"-0.012": 0.670631890785,
			"-0.011": 0.829551361787,
			"-0.01": 1.25605395521,
			"-0.009": 1.24217856503,
			"-0.008": 1.25774110123,
			"-0.007": 1.90350729208,
			"-0.006": 4.35963279042,
			"-0.005": 13.7012319563,
			"-0.004": 18.4156248075,
			"-0.003": 28.6896811191,
			"-0.002": 48.1722327186,
			"-0.001": 57.7222733021,
			"0.0": 52.8308938086,
			"0.001": 42.6819731542,
			"0.002": 23.2404655284,
			"0.003": 14.7594444216,
			"0.004": 15.2061202415,
			"0.005": 12.4793741422,
			"0.006": 11.6966502959,
			"0.007": 5.46860898775,
			"0.008": 2.54316376253,
			"0.009": 2.09766841736,
			"0.01": 1.83629320009,
			"0.011": 2.70432088606,
			"0.012": 1.24813352384,
			"0.013": 1.26307721894,
			"0.014": 0.350831816339,
			"0.015": 0.478069461576,
			"0.016": 0.256558560925,
			"0.017": 0.0,
			"0.018": 0.0,
			"0.019": 0.0,
			"0.02": 0.0,
			"0.021": 0.0,
			"0.022": 0.0,
			"0.023": 0.0,
			"0.024": 0.0,
			"0.025": 0.0
		}
	}
}
