{
	 "smiles": "CC1=C(C=CC=C1N)C(=O)N1CCOCC1", 
	 "Tm": 380.15, 
	 "num_atms": 32, 
	 "gaussian": { 
		 "optdone": 1, 
		 "sigma_profile": "yes", 
		 "theory": "DFT", 
		 "functional": "B3LYP", 
		 "basiset": "6-31G**", 
		 "properties": { 
			 "R2extent": 4429.1207, 
			 "electric_dipole_moment_norm": 4.53293619743, 
			 "electric_quadrupole_moment_norm": 16.0050176101, 
			 "total_energy": -726.866482839, 
			 "HOMO_LUMO_gap": 0.19476, 
			 "cosmo_polarized_energy": -18.02, 
			 "cosmo_cavitation_energy": 33.29, 
			 "cosmo_dispersion_energy": -23.82, 
			 "cosmo_repulsion_energy": 1.86, 
			 "cosmo_total_nonelectrostatic_energy": 11.33, 
			 "SMD_solvation_energy": 5.54 
		},
		"coords": [
			{
				"x": -0.9869679752,
				"y": 0.9293330791,
				"z": 0.9937571349,
				"element": "C" 
			},
			{
				"x": 0.4981596314,
				"y": 0.6795826241,
				"z": 0.8727267115,
				"element": "C" 
			},
			{
				"x": 1.0683713912,
				"y": -0.6007932553,
				"z": 0.9826464717,
				"element": "C" 
			},
			{
				"x": 2.458884748,
				"y": -0.7779694785,
				"z": 0.9514681461,
				"element": "C" 
			},
			{
				"x": 3.2920704549,
				"y": 0.3218822159,
				"z": 0.7692026434,
				"element": "C" 
			},
			{
				"x": 2.7483725664,
				"y": 1.5959447791,
				"z": 0.6347054642,
				"element": "C" 
			},
			{
				"x": 1.3601783493,
				"y": 1.78906796,
				"z": 0.6959139775,
				"element": "C" 
			},
			{
				"x": 0.8309031088,
				"y": 3.0827432259,
				"z": 0.6493250044,
				"element": "N" 
			},
			{
				"x": 0.2437986089,
				"y": -1.8428150124,
				"z": 1.2283224289,
				"element": "C" 
			},
			{
				"x": 0.3578396641,
				"y": -2.4835758141,
				"z": 2.2705864044,
				"element": "O" 
			},
			{
				"x": -0.6191702324,
				"y": -2.2510862717,
				"z": 0.2389551053,
				"element": "N" 
			},
			{
				"x": -0.6515951662,
				"y": -1.722529517,
				"z": -1.1273945278,
				"element": "C" 
			},
			{
				"x": -0.8388969328,
				"y": -2.8743246645,
				"z": -2.1132505755,
				"element": "C" 
			},
			{
				"x": -2.0436844081,
				"y": -3.6022661829,
				"z": -1.8930310137,
				"element": "O" 
			},
			{
				"x": -2.512422015,
				"y": -3.5819508704,
				"z": -0.5454025841,
				"element": "C" 
			},
			{
				"x": -1.3899094339,
				"y": -3.4775936181,
				"z": 0.4794246502,
				"element": "C" 
			},
			{
				"x": -1.5361908972,
				"y": 0.0194631512,
				"z": 1.2380213363,
				"element": "H" 
			},
			{
				"x": -1.4161603234,
				"y": 1.3289319619,
				"z": 0.0628601622,
				"element": "H" 
			},
			{
				"x": -1.1897504475,
				"y": 1.6668443696,
				"z": 1.7795718324,
				"element": "H" 
			},
			{
				"x": 2.8704860087,
				"y": -1.77351789,
				"z": 1.0786101864,
				"element": "H" 
			},
			{
				"x": 4.3696245639,
				"y": 0.1899606584,
				"z": 0.7326858035,
				"element": "H" 
			},
			{
				"x": 3.398695283,
				"y": 2.4566507807,
				"z": 0.4961151123,
				"element": "H" 
			},
			{
				"x": 1.4609497105,
				"y": 3.7827510802,
				"z": 0.2823674701,
				"element": "H" 
			},
			{
				"x": -0.0939923964,
				"y": 3.1666584738,
				"z": 0.251624723,
				"element": "H" 
			},
			{
				"x": 0.2847832543,
				"y": -1.2026521681,
				"z": -1.340593099,
				"element": "H" 
			},
			{
				"x": -1.4691195456,
				"y": -0.9985994897,
				"z": -1.2524839099,
				"element": "H" 
			},
			{
				"x": -0.8836942594,
				"y": -2.4839554626,
				"z": -3.1358458543,
				"element": "H" 
			},
			{
				"x": 0.028868438,
				"y": -3.5489208652,
				"z": -2.0486716613,
				"element": "H" 
			},
			{
				"x": -3.2164747157,
				"y": -2.746679611,
				"z": -0.4035163619,
				"element": "H" 
			},
			{
				"x": -3.0686775669,
				"y": -4.5120377582,
				"z": -0.3920631463,
				"element": "H" 
			},
			{
				"x": -1.7947332499,
				"y": -3.4479453982,
				"z": 1.4945166291,
				"element": "H" 
			},
			{
				"x": -0.7368462156,
				"y": -4.3592010321,
				"z": 0.424445336,
				"element": "H" 
			}
		],
		 "valence_orbital": [ 
			{
				"type": "occ",
				"energy": -0.25606,
				"method": "rhf"
			},
			{
				"type": "occ",
				"energy": -0.25292,
				"method": "rhf"
			},
			{
				"type": "occ",
				"energy": -0.23789,
				"method": "rhf"
			},
			{
				"type": "occ",
				"energy": -0.23066,
				"method": "rhf"
			},
			{
				"type": "occ",
				"energy": -0.2043,
				"method": "rhf"
			},
			{
				"type": "unocc",
				"energy": -0.00954,
				"method": "rhf"
			},
			{
				"type": "unocc",
				"energy": 0.01228,
				"method": "rhf"
			},
			{
				"type": "unocc",
				"energy": 0.0402,
				"method": "rhf"
			},
			{
				"type": "unocc",
				"energy": 0.06793,
				"method": "rhf"
			},
			{
				"type": "unocc",
				"energy": 0.08355,
				"method": "rhf"
			}
		],
		"cosmo_sigma_profile": { 
			"-0.025": 0.0,
			"-0.024": 0.0,
			"-0.023": 0.0,
			"-0.022": 0.0,
			"-0.021": 0.0,
			"-0.02": 0.0,
			"-0.019": 0.0,
			"-0.018": 0.0,
			"-0.017": 0.0,
			"-0.016": 0.0,
			"-0.015": 0.0,
			"-0.014": 0.0,
			"-0.013": 0.130713043692,
			"-0.012": 1.65286825642,
			"-0.011": 2.85476801467,
			"-0.01": 2.93302761007,
			"-0.009": 2.73294153564,
			"-0.008": 3.24158976796,
			"-0.007": 2.95354738828,
			"-0.006": 7.90579407237,
			"-0.005": 21.6667731721,
			"-0.004": 36.0225221477,
			"-0.003": 29.3647059985,
			"-0.002": 23.5618056515,
			"-0.001": 18.9030822238,
			"0.0": 14.0033011485,
			"0.001": 9.43859989409,
			"0.002": 9.04037041637,
			"0.003": 8.70913564916,
			"0.004": 8.64882351254,
			"0.005": 10.0159259888,
			"0.006": 9.84784230868,
			"0.007": 5.41098802063,
			"0.008": 4.00013190883,
			"0.009": 3.14634318521,
			"0.01": 3.82665315579,
			"0.011": 3.92883588076,
			"0.012": 3.63121267494,
			"0.013": 5.27448758219,
			"0.014": 6.14430043922,
			"0.015": 1.79818469729,
			"0.016": 0.162802657316,
			"0.017": 0.0,
			"0.018": 0.0,
			"0.019": 0.0,
			"0.02": 0.0,
			"0.021": 0.0,
			"0.022": 0.0,
			"0.023": 0.0,
			"0.024": 0.0,
			"0.025": 0.0
		}
	}
}
