{
	 "smiles": "C=CC1=CC2=C(OCCOCCOCCOCCO2)C=C1", 
	 "Tm": 312.15, 
	 "num_atms": 43, 
	 "gaussian": { 
		 "optdone": 1, 
		 "sigma_profile": "yes", 
		 "theory": "DFT", 
		 "functional": "B3LYP", 
		 "basiset": "6-31G**", 
		 "properties": { 
			 "R2extent": 6405.7196, 
			 "electric_dipole_moment_norm": 4.50463133453, 
			 "electric_quadrupole_moment_norm": 9.91708807261, 
			 "total_energy": -998.981466566, 
			 "HOMO_LUMO_gap": 0.18071, 
			 "cosmo_polarized_energy": -14.78, 
			 "cosmo_cavitation_energy": 42.32, 
			 "cosmo_dispersion_energy": -29.12, 
			 "cosmo_repulsion_energy": 2.21, 
			 "cosmo_total_nonelectrostatic_energy": 15.41, 
			 "SMD_solvation_energy": 7.67 
		},
		"coords": [
			{
				"x": -2.3844058739,
				"y": -2.130227166,
				"z": -4.5605681895,
				"element": "C" 
			},
			{
				"x": -1.1862005445,
				"y": -1.570572745,
				"z": -4.3506210045,
				"element": "C" 
			},
			{
				"x": -0.8282144991,
				"y": -0.5610088242,
				"z": -3.3420187158,
				"element": "C" 
			},
			{
				"x": -1.7504712632,
				"y": -0.0327455834,
				"z": -2.4274015099,
				"element": "C" 
			},
			{
				"x": -1.3979303235,
				"y": 0.9246321445,
				"z": -1.4749787545,
				"element": "C" 
			},
			{
				"x": -0.0588850311,
				"y": 1.3793435331,
				"z": -1.4174449898,
				"element": "C" 
			},
			{
				"x": 0.3328307636,
				"y": 2.3849309578,
				"z": -0.5541599989,
				"element": "O" 
			},
			{
				"x": 1.0378915853,
				"y": 1.9966042583,
				"z": 0.6444150673,
				"element": "C" 
			},
			{
				"x": 2.4980846498,
				"y": 1.5885241522,
				"z": 0.4368833215,
				"element": "C" 
			},
			{
				"x": 3.097757693,
				"y": 1.4389385561,
				"z": 1.7257503818,
				"element": "O" 
			},
			{
				"x": 3.4107033946,
				"y": 0.1226936273,
				"z": 2.1438041261,
				"element": "C" 
			},
			{
				"x": 2.2233462089,
				"y": -0.7010865519,
				"z": 2.6346793486,
				"element": "C" 
			},
			{
				"x": 1.4786124543,
				"y": -1.1395442513,
				"z": 1.5107093288,
				"element": "O" 
			},
			{
				"x": 0.3594210322,
				"y": -1.9621425999,
				"z": 1.7885555405,
				"element": "C" 
			},
			{
				"x": -0.8758014429,
				"y": -1.2053161187,
				"z": 2.270330547,
				"element": "C" 
			},
			{
				"x": -1.2087689935,
				"y": -0.2489654536,
				"z": 1.2863679662,
				"element": "O" 
			},
			{
				"x": -2.3742408499,
				"y": 0.5119573273,
				"z": 1.5382258587,
				"element": "C" 
			},
			{
				"x": -2.3632713878,
				"y": 1.7393830609,
				"z": 0.6357817241,
				"element": "C" 
			},
			{
				"x": -2.4577425432,
				"y": 1.417026719,
				"z": -0.7499900858,
				"element": "O" 
			},
			{
				"x": 0.8588125207,
				"y": 0.8628406853,
				"z": -2.3372251571,
				"element": "C" 
			},
			{
				"x": 0.4928544245,
				"y": -0.091380664,
				"z": -3.2808677889,
				"element": "C" 
			},
			{
				"x": -2.5248348988,
				"y": -2.8692505123,
				"z": -5.3426163105,
				"element": "H" 
			},
			{
				"x": -3.2620896675,
				"y": -1.8778453323,
				"z": -3.9726768539,
				"element": "H" 
			},
			{
				"x": -0.3582356514,
				"y": -1.880832809,
				"z": -4.9879384521,
				"element": "H" 
			},
			{
				"x": -2.7883473709,
				"y": -0.347916664,
				"z": -2.4353984101,
				"element": "H" 
			},
			{
				"x": 0.5088168496,
				"y": 1.1808235167,
				"z": 1.1379769755,
				"element": "H" 
			},
			{
				"x": 1.0179453033,
				"y": 2.8863957811,
				"z": 1.2808171605,
				"element": "H" 
			},
			{
				"x": 2.5670828914,
				"y": 0.659229984,
				"z": -0.1365102762,
				"element": "H" 
			},
			{
				"x": 3.0412423445,
				"y": 2.3775746839,
				"z": -0.0987683394,
				"element": "H" 
			},
			{
				"x": 4.113822737,
				"y": 0.2389144817,
				"z": 2.9765429155,
				"element": "H" 
			},
			{
				"x": 3.9187608921,
				"y": -0.4375395096,
				"z": 1.3444482123,
				"element": "H" 
			},
			{
				"x": 1.6163518398,
				"y": -0.0856491554,
				"z": 3.3158448534,
				"element": "H" 
			},
			{
				"x": 2.5980571711,
				"y": -1.5691523608,
				"z": 3.2051819388,
				"element": "H" 
			},
			{
				"x": 0.1163877952,
				"y": -2.4550034605,
				"z": 0.8424610235,
				"element": "H" 
			},
			{
				"x": 0.6141378355,
				"y": -2.7386914591,
				"z": 2.5285886131,
				"element": "H" 
			},
			{
				"x": -1.6927422353,
				"y": -1.9317547445,
				"z": 2.4198233231,
				"element": "H" 
			},
			{
				"x": -0.6954937111,
				"y": -0.7131732892,
				"z": 3.2408155257,
				"element": "H" 
			},
			{
				"x": -2.4057688465,
				"y": 0.8545153836,
				"z": 2.5869958937,
				"element": "H" 
			},
			{
				"x": -3.2765821493,
				"y": -0.0922559577,
				"z": 1.3531014442,
				"element": "H" 
			},
			{
				"x": -3.2614489776,
				"y": 2.3293094647,
				"z": 0.8462827418,
				"element": "H" 
			},
			{
				"x": -1.4905058196,
				"y": 2.3610164164,
				"z": 0.8357045903,
				"element": "H" 
			},
			{
				"x": 1.8705455676,
				"y": 1.2544591826,
				"z": -2.318813106,
				"element": "H" 
			},
			{
				"x": 1.2323161265,
				"y": -0.4664587041,
				"z": -3.9830904791,
				"element": "H" 
			}
		],
		 "valence_orbital": [ 
			{
				"type": "occ",
				"energy": -0.26601,
				"method": "rhf"
			},
			{
				"type": "occ",
				"energy": -0.26162,
				"method": "rhf"
			},
			{
				"type": "occ",
				"energy": -0.24388,
				"method": "rhf"
			},
			{
				"type": "occ",
				"energy": -0.22014,
				"method": "rhf"
			},
			{
				"type": "occ",
				"energy": -0.20205,
				"method": "rhf"
			},
			{
				"type": "unocc",
				"energy": -0.02134,
				"method": "rhf"
			},
			{
				"type": "unocc",
				"energy": 0.01561,
				"method": "rhf"
			},
			{
				"type": "unocc",
				"energy": 0.06852,
				"method": "rhf"
			},
			{
				"type": "unocc",
				"energy": 0.07191,
				"method": "rhf"
			},
			{
				"type": "unocc",
				"energy": 0.08501,
				"method": "rhf"
			}
		],
		"cosmo_sigma_profile": { 
			"-0.025": 0.0,
			"-0.024": 0.0,
			"-0.023": 0.0,
			"-0.022": 0.0,
			"-0.021": 0.0,
			"-0.02": 0.0,
			"-0.019": 0.0,
			"-0.018": 0.0,
			"-0.017": 0.0,
			"-0.016": 0.0,
			"-0.015": 0.0,
			"-0.014": 0.0,
			"-0.013": 0.0,
			"-0.012": 0.0,
			"-0.011": 0.0,
			"-0.01": 0.0,
			"-0.009": 0.0,
			"-0.008": 0.0,
			"-0.007": 0.904033493071,
			"-0.006": 8.5351982689,
			"-0.005": 30.8789622565,
			"-0.004": 56.908608903,
			"-0.003": 44.3814025685,
			"-0.002": 28.6973230182,
			"-0.001": 19.4991298486,
			"0.0": 15.1102916403,
			"0.001": 13.0990598638,
			"0.002": 12.8447086198,
			"0.003": 15.2173520613,
			"0.004": 19.7907192295,
			"0.005": 20.0088981281,
			"0.006": 12.7319491026,
			"0.007": 7.57454526216,
			"0.008": 6.8860593579,
			"0.009": 4.62953401873,
			"0.01": 6.11765311833,
			"0.011": 4.40533073733,
			"0.012": 2.24719430926,
			"0.013": 1.43067331189,
			"0.014": 0.125154497221,
			"0.015": 0.0,
			"0.016": 0.0,
			"0.017": 0.0,
			"0.018": 0.0,
			"0.019": 0.0,
			"0.02": 0.0,
			"0.021": 0.0,
			"0.022": 0.0,
			"0.023": 0.0,
			"0.024": 0.0,
			"0.025": 0.0
		}
	}
}
