{
	 "smiles": "CCOC1=CC=C(C=C1)C1=C(C)SC(N)=N1", 
	 "Tm": 372.15, 
	 "num_atms": 30, 
	 "gaussian": { 
		 "optdone": 1, 
		 "sigma_profile": "yes", 
		 "theory": "DFT", 
		 "functional": "B3LYP", 
		 "basiset": "6-31G**", 
		 "properties": { 
			 "R2extent": 6499.1387, 
			 "electric_dipole_moment_norm": 1.02781816485, 
			 "electric_quadrupole_moment_norm": 19.0677484552, 
			 "total_energy": -1048.63286554, 
			 "HOMO_LUMO_gap": 0.17537, 
			 "cosmo_polarized_energy": -13.25, 
			 "cosmo_cavitation_energy": 35.04, 
			 "cosmo_dispersion_energy": -26.23, 
			 "cosmo_repulsion_energy": 2.03, 
			 "cosmo_total_nonelectrostatic_energy": 10.84, 
			 "SMD_solvation_energy": 4.58 
		},
		"coords": [
			{
				"x": -0.7298426231,
				"y": -5.1682119136,
				"z": -2.1407617788,
				"element": "C" 
			},
			{
				"x": -0.8963325279,
				"y": -3.6724762883,
				"z": -1.9354686115,
				"element": "C" 
			},
			{
				"x": 0.2011135953,
				"y": -3.2220679629,
				"z": -1.1442420798,
				"element": "O" 
			},
			{
				"x": 0.2732756931,
				"y": -1.8997893306,
				"z": -0.8145384269,
				"element": "C" 
			},
			{
				"x": 1.3828984727,
				"y": -1.5213241731,
				"z": -0.0415514458,
				"element": "C" 
			},
			{
				"x": 1.5474873291,
				"y": -0.2018329301,
				"z": 0.3485177255,
				"element": "C" 
			},
			{
				"x": 0.6102182948,
				"y": 0.7891307816,
				"z": -0.0072030125,
				"element": "C" 
			},
			{
				"x": -0.4777818666,
				"y": 0.3991853846,
				"z": -0.7992238923,
				"element": "C" 
			},
			{
				"x": -0.6569561254,
				"y": -0.9280642447,
				"z": -1.1988648767,
				"element": "C" 
			},
			{
				"x": 0.8208214948,
				"y": 2.1827048332,
				"z": 0.4350484283,
				"element": "C" 
			},
			{
				"x": -0.1509579054,
				"y": 3.1008287871,
				"z": 0.7533623684,
				"element": "C" 
			},
			{
				"x": -1.6433787462,
				"y": 2.9720117935,
				"z": 0.8229424283,
				"element": "C" 
			},
			{
				"x": 0.6185665829,
				"y": 4.6178984122,
				"z": 1.2194393355,
				"element": "S" 
			},
			{
				"x": 2.1901567999,
				"y": 3.8463018007,
				"z": 0.9899069375,
				"element": "C" 
			},
			{
				"x": 3.361798346,
				"y": 4.56086448,
				"z": 1.1385306468,
				"element": "N" 
			},
			{
				"x": 2.1362598937,
				"y": 2.6129956531,
				"z": 0.5944942995,
				"element": "N" 
			},
			{
				"x": -1.5532528059,
				"y": -5.5595749873,
				"z": -2.7461474551,
				"element": "H" 
			},
			{
				"x": 0.2116161444,
				"y": -5.3839853081,
				"z": -2.6536085109,
				"element": "H" 
			},
			{
				"x": -0.7257772195,
				"y": -5.690758421,
				"z": -1.1800963928,
				"element": "H" 
			},
			{
				"x": -1.8437951325,
				"y": -3.4506979729,
				"z": -1.4235320992,
				"element": "H" 
			},
			{
				"x": -0.9055941705,
				"y": -3.1441654813,
				"z": -2.8996584839,
				"element": "H" 
			},
			{
				"x": 2.1020387584,
				"y": -2.2847483927,
				"z": 0.2377849007,
				"element": "H" 
			},
			{
				"x": 2.4124174459,
				"y": 0.0873860551,
				"z": 0.9353940528,
				"element": "H" 
			},
			{
				"x": -1.187204725,
				"y": 1.1430549203,
				"z": -1.1457076984,
				"element": "H" 
			},
			{
				"x": -1.5088494874,
				"y": -1.1832059854,
				"z": -1.8178501093,
				"element": "H" 
			},
			{
				"x": -1.9258023262,
				"y": 1.9209948147,
				"z": 0.9233878826,
				"element": "H" 
			},
			{
				"x": -2.0471283257,
				"y": 3.5104765929,
				"z": 1.6870348946,
				"element": "H" 
			},
			{
				"x": -2.1441244735,
				"y": 3.3696671479,
				"z": -0.0694590027,
				"element": "H" 
			},
			{
				"x": 4.1777025703,
				"y": 3.9615722616,
				"z": 1.1313089699,
				"element": "H" 
			},
			{
				"x": 3.3762070393,
				"y": 5.2489296734,
				"z": 1.8787610064,
				"element": "H" 
			}
		],
		 "valence_orbital": [ 
			{
				"type": "occ",
				"energy": -0.26643,
				"method": "rhf"
			},
			{
				"type": "occ",
				"energy": -0.26362,
				"method": "rhf"
			},
			{
				"type": "occ",
				"energy": -0.24316,
				"method": "rhf"
			},
			{
				"type": "occ",
				"energy": -0.22249,
				"method": "rhf"
			},
			{
				"type": "occ",
				"energy": -0.18744,
				"method": "rhf"
			},
			{
				"type": "unocc",
				"energy": -0.01207,
				"method": "rhf"
			},
			{
				"type": "unocc",
				"energy": 0.00471,
				"method": "rhf"
			},
			{
				"type": "unocc",
				"energy": 0.01421,
				"method": "rhf"
			},
			{
				"type": "unocc",
				"energy": 0.02651,
				"method": "rhf"
			},
			{
				"type": "unocc",
				"energy": 0.07692,
				"method": "rhf"
			}
		],
		"cosmo_sigma_profile": { 
			"-0.025": 0.0,
			"-0.024": 0.0,
			"-0.023": 0.0,
			"-0.022": 0.0,
			"-0.021": 0.0,
			"-0.02": 0.0,
			"-0.019": 0.0,
			"-0.018": 0.0,
			"-0.017": 0.0,
			"-0.016": 0.0,
			"-0.015": 0.0,
			"-0.014": 1.35561262515,
			"-0.013": 2.39400218451,
			"-0.012": 2.7244214272,
			"-0.011": 2.68452317109,
			"-0.01": 3.06390498415,
			"-0.009": 2.12347060524,
			"-0.008": 1.39426770707,
			"-0.007": 1.42128702163,
			"-0.006": 5.13830635487,
			"-0.005": 13.9970119271,
			"-0.004": 26.7173828828,
			"-0.003": 28.0210630941,
			"-0.002": 23.9346085678,
			"-0.001": 21.9061873915,
			"0.0": 19.4868094097,
			"0.001": 15.5777988449,
			"0.002": 15.2282129504,
			"0.003": 20.0261364019,
			"0.004": 23.1533364842,
			"0.005": 19.9356414098,
			"0.006": 9.44863526861,
			"0.007": 4.89096205713,
			"0.008": 3.44495856135,
			"0.009": 3.91357716467,
			"0.01": 3.64224032423,
			"0.011": 1.5753802048,
			"0.012": 0.857742851903,
			"0.013": 1.17408587629,
			"0.014": 0.526204126015,
			"0.015": 0.118585888989,
			"0.016": 0.0,
			"0.017": 0.0,
			"0.018": 0.0,
			"0.019": 0.0,
			"0.02": 0.0,
			"0.021": 0.0,
			"0.022": 0.0,
			"0.023": 0.0,
			"0.024": 0.0,
			"0.025": 0.0
		}
	}
}
