{
	 "smiles": "CC1=NC(OC2=CC=C(Br)C=C2)=CN=C1", 
	 "Tm": 332.35, 
	 "num_atms": 24, 
	 "gaussian": { 
		 "optdone": 1, 
		 "sigma_profile": "yes", 
		 "theory": "DFT", 
		 "functional": "B3LYP", 
		 "basiset": "6-31G**", 
		 "properties": { 
			 "R2extent": 8001.3055, 
			 "electric_dipole_moment_norm": 1.47022318374, 
			 "electric_quadrupole_moment_norm": 13.575307426, 
			 "total_energy": -3180.71382976, 
			 "HOMO_LUMO_gap": 0.18304, 
			 "cosmo_polarized_energy": -8.24, 
			 "cosmo_cavitation_energy": 31.55, 
			 "cosmo_dispersion_energy": -23.15, 
			 "cosmo_repulsion_energy": 1.83, 
			 "cosmo_total_nonelectrostatic_energy": 10.23, 
			 "SMD_solvation_energy": 2.44 
		},
		"coords": [
			{
				"x": -2.8236713754,
				"y": 2.6853262954,
				"z": 0.5134242197,
				"element": "C" 
			},
			{
				"x": -1.3704545147,
				"y": 2.38083476,
				"z": 0.2577562714,
				"element": "C" 
			},
			{
				"x": -0.9411544232,
				"y": 1.130636886,
				"z": 0.5099995713,
				"element": "N" 
			},
			{
				"x": 0.3377501492,
				"y": 0.8765978337,
				"z": 0.2836300914,
				"element": "C" 
			},
			{
				"x": 0.8619180503,
				"y": -0.355647775,
				"z": 0.5403273221,
				"element": "O" 
			},
			{
				"x": 0.0539717705,
				"y": -1.435296734,
				"z": 0.8763003104,
				"element": "C" 
			},
			{
				"x": 0.4128257619,
				"y": -2.155332982,
				"z": 2.0136385056,
				"element": "C" 
			},
			{
				"x": -0.2910347486,
				"y": -3.3105341093,
				"z": 2.3547460642,
				"element": "C" 
			},
			{
				"x": -1.3503604469,
				"y": -3.7245476546,
				"z": 1.5502756683,
				"element": "C" 
			},
			{
				"x": -2.3243889264,
				"y": -5.3028932148,
				"z": 2.0133624253,
				"element": "Br" 
			},
			{
				"x": -1.7104463396,
				"y": -3.0069478442,
				"z": 0.4094814031,
				"element": "C" 
			},
			{
				"x": -1.002140607,
				"y": -1.8566247424,
				"z": 0.0671256577,
				"element": "C" 
			},
			{
				"x": 1.2305659736,
				"y": 1.8473082631,
				"z": -0.2007678826,
				"element": "C" 
			},
			{
				"x": 0.8117484967,
				"y": 3.0838861269,
				"z": -0.4504734229,
				"element": "N" 
			},
			{
				"x": -0.481777414,
				"y": 3.3492992531,
				"z": -0.2218813944,
				"element": "C" 
			},
			{
				"x": -2.9351712167,
				"y": 3.4814555345,
				"z": 1.2577367705,
				"element": "H" 
			},
			{
				"x": -3.3241702994,
				"y": 3.0238293429,
				"z": -0.4005011947,
				"element": "H" 
			},
			{
				"x": -3.3289406989,
				"y": 1.7906321135,
				"z": 0.880166598,
				"element": "H" 
			},
			{
				"x": 1.2432425194,
				"y": -1.809592629,
				"z": 2.6198851308,
				"element": "H" 
			},
			{
				"x": -0.0185637996,
				"y": -3.8784778792,
				"z": 3.2367115307,
				"element": "H" 
			},
			{
				"x": -2.5338427866,
				"y": -3.344761579,
				"z": -0.2091693883,
				"element": "H" 
			},
			{
				"x": -1.2715675194,
				"y": -1.2922493277,
				"z": -0.817415725,
				"element": "H" 
			},
			{
				"x": 2.2745706452,
				"y": 1.6024493557,
				"z": -0.3762550792,
				"element": "H" 
			},
			{
				"x": -0.8209082505,
				"y": 4.3618507066,
				"z": -0.4285034535,
				"element": "H" 
			}
		],
		 "valence_orbital": [ 
			{
				"type": "occ",
				"energy": -0.28807,
				"method": "rhf"
			},
			{
				"type": "occ",
				"energy": -0.26906,
				"method": "rhf"
			},
			{
				"type": "occ",
				"energy": -0.25664,
				"method": "rhf"
			},
			{
				"type": "occ",
				"energy": -0.25544,
				"method": "rhf"
			},
			{
				"type": "occ",
				"energy": -0.23133,
				"method": "rhf"
			},
			{
				"type": "unocc",
				"energy": -0.04829,
				"method": "rhf"
			},
			{
				"type": "unocc",
				"energy": -0.02327,
				"method": "rhf"
			},
			{
				"type": "unocc",
				"energy": -0.01767,
				"method": "rhf"
			},
			{
				"type": "unocc",
				"energy": -0.00684,
				"method": "rhf"
			},
			{
				"type": "unocc",
				"energy": 0.00598,
				"method": "rhf"
			}
		],
		"cosmo_sigma_profile": { 
			"-0.025": 0.0,
			"-0.024": 0.0,
			"-0.023": 0.0,
			"-0.022": 0.0,
			"-0.021": 0.0,
			"-0.02": 0.0,
			"-0.019": 0.0,
			"-0.018": 0.0,
			"-0.017": 0.0,
			"-0.016": 0.0,
			"-0.015": 0.0,
			"-0.014": 0.0,
			"-0.013": 0.0,
			"-0.012": 0.0,
			"-0.011": 0.0,
			"-0.01": 0.0,
			"-0.009": 0.0,
			"-0.008": 2.10301493687,
			"-0.007": 10.1913189728,
			"-0.006": 12.1858160306,
			"-0.005": 16.5612489945,
			"-0.004": 17.233807648,
			"-0.003": 17.3750282398,
			"-0.002": 20.3984813534,
			"-0.001": 25.4014252087,
			"0.0": 21.4490392423,
			"0.001": 19.9260116834,
			"0.002": 23.9571851033,
			"0.003": 23.3415278585,
			"0.004": 16.9890175116,
			"0.005": 10.5287939251,
			"0.006": 4.07354757607,
			"0.007": 3.86505844146,
			"0.008": 2.21372358693,
			"0.009": 1.71959585509,
			"0.01": 2.00176950376,
			"0.011": 1.66982679101,
			"0.012": 1.46344591434,
			"0.013": 0.582706901013,
			"0.014": 0.738771470855,
			"0.015": 0.922924046054,
			"0.016": 0.0379816786596,
			"0.017": 0.0,
			"0.018": 0.0,
			"0.019": 0.0,
			"0.02": 0.0,
			"0.021": 0.0,
			"0.022": 0.0,
			"0.023": 0.0,
			"0.024": 0.0,
			"0.025": 0.0
		}
	}
}
