{
	 "smiles": "NC(CO)CO", 
	 "Tm": 327.15, 
	 "num_atms": 15, 
	 "gaussian": { 
		 "optdone": 1, 
		 "sigma_profile": "yes", 
		 "theory": "DFT", 
		 "functional": "B3LYP", 
		 "basiset": "6-31G**", 
		 "properties": { 
			 "R2extent": 749.3071, 
			 "electric_dipole_moment_norm": 1.7302683578, 
			 "electric_quadrupole_moment_norm": 9.06764061871, 
			 "total_energy": -324.915860704, 
			 "HOMO_LUMO_gap": 0.28216, 
			 "cosmo_polarized_energy": -11.55, 
			 "cosmo_cavitation_energy": 17.32, 
			 "cosmo_dispersion_energy": -13.11, 
			 "cosmo_repulsion_energy": 1.16, 
			 "cosmo_total_nonelectrostatic_energy": 5.37, 
			 "SMD_solvation_energy": 2.02 
		},
		"coords": [
			{
				"x": -1.9263800242,
				"y": -1.8219736275,
				"z": -0.4547233156,
				"element": "N" 
			},
			{
				"x": -1.0199136393,
				"y": -0.6807066141,
				"z": -0.6282472472,
				"element": "C" 
			},
			{
				"x": -0.6982521978,
				"y": -0.0654619196,
				"z": 0.731622226,
				"element": "C" 
			},
			{
				"x": 0.2677933831,
				"y": -0.9064993309,
				"z": 1.3785913757,
				"element": "O" 
			},
			{
				"x": 0.2799795725,
				"y": -1.0507912008,
				"z": -1.3841993293,
				"element": "C" 
			},
			{
				"x": 1.297973655,
				"y": -0.0656508968,
				"z": -1.2904133346,
				"element": "O" 
			},
			{
				"x": -2.1303289594,
				"y": -2.2460407777,
				"z": -1.3574001386,
				"element": "H" 
			},
			{
				"x": -1.4486706897,
				"y": -2.5338512983,
				"z": 0.0957604051,
				"element": "H" 
			},
			{
				"x": -1.5585560963,
				"y": 0.0881166347,
				"z": -1.197493919,
				"element": "H" 
			},
			{
				"x": -0.2926899248,
				"y": 0.9451286466,
				"z": 0.5884281871,
				"element": "H" 
			},
			{
				"x": -1.6238698212,
				"y": 0.0029143921,
				"z": 1.3170416555,
				"element": "H" 
			},
			{
				"x": 0.3628983268,
				"y": -0.6123006916,
				"z": 2.2923700461,
				"element": "H" 
			},
			{
				"x": 0.6317506356,
				"y": -2.0221789282,
				"z": -1.0061684966,
				"element": "H" 
			},
			{
				"x": 0.0590865032,
				"y": -1.1756859774,
				"z": -2.4506659135,
				"element": "H" 
			},
			{
				"x": 1.6286792766,
				"y": -0.1260184105,
				"z": -0.382802201,
				"element": "H" 
			}
		],
		 "valence_orbital": [ 
			{
				"type": "occ",
				"energy": -0.33872,
				"method": "rhf"
			},
			{
				"type": "occ",
				"energy": -0.32179,
				"method": "rhf"
			},
			{
				"type": "occ",
				"energy": -0.28055,
				"method": "rhf"
			},
			{
				"type": "occ",
				"energy": -0.27181,
				"method": "rhf"
			},
			{
				"type": "occ",
				"energy": -0.22554,
				"method": "rhf"
			},
			{
				"type": "unocc",
				"energy": 0.05662,
				"method": "rhf"
			},
			{
				"type": "unocc",
				"energy": 0.09352,
				"method": "rhf"
			},
			{
				"type": "unocc",
				"energy": 0.11951,
				"method": "rhf"
			},
			{
				"type": "unocc",
				"energy": 0.12422,
				"method": "rhf"
			},
			{
				"type": "unocc",
				"energy": 0.14526,
				"method": "rhf"
			}
		],
		"cosmo_sigma_profile": { 
			"-0.025": 0.0,
			"-0.024": 0.0,
			"-0.023": 0.0,
			"-0.022": 0.0,
			"-0.021": 0.0,
			"-0.02": 0.0,
			"-0.019": 0.0,
			"-0.018": 0.0,
			"-0.017": 0.0294169959251,
			"-0.016": 0.689798905781,
			"-0.015": 0.996315117197,
			"-0.014": 1.24404066682,
			"-0.013": 1.14385320495,
			"-0.012": 0.314798311894,
			"-0.011": 1.25405855963,
			"-0.01": 2.10079150715,
			"-0.009": 2.85958357502,
			"-0.008": 3.94960960367,
			"-0.007": 4.14067692822,
			"-0.006": 4.86782699543,
			"-0.005": 5.89481115065,
			"-0.004": 11.2923491141,
			"-0.003": 15.8085424211,
			"-0.002": 13.0540148919,
			"-0.001": 8.86606626421,
			"0.0": 5.68295477355,
			"0.001": 4.02623539892,
			"0.002": 4.71108873573,
			"0.003": 3.54119254824,
			"0.004": 3.42250548569,
			"0.005": 3.71195124031,
			"0.006": 3.28809912847,
			"0.007": 2.91628710409,
			"0.008": 3.12265535775,
			"0.009": 2.76361782911,
			"0.01": 2.38192308904,
			"0.011": 2.53024580671,
			"0.012": 3.00568007208,
			"0.013": 2.27646109653,
			"0.014": 2.52467886882,
			"0.015": 1.70220237587,
			"0.016": 0.690742088859,
			"0.017": 0.770978504553,
			"0.018": 0.509220308977,
			"0.019": 0.504964907731,
			"0.02": 0.146353344269,
			"0.021": 0.0,
			"0.022": 0.0,
			"0.023": 0.0,
			"0.024": 0.0,
			"0.025": 0.0
		}
	}
}
