{
	 "smiles": "CC1=C(C)C2=C(C=C1)C(=O)C(=O)N2", 
	 "Tm": 503.15, 
	 "num_atms": 22, 
	 "gaussian": { 
		 "optdone": 1, 
		 "sigma_profile": "yes", 
		 "theory": "DFT", 
		 "functional": "B3LYP", 
		 "basiset": "6-31G**", 
		 "properties": { 
			 "R2extent": 3655.3235, 
			 "electric_dipole_moment_norm": 6.9469007219, 
			 "electric_quadrupole_moment_norm": 25.6068063903, 
			 "total_energy": -591.702416697, 
			 "HOMO_LUMO_gap": 0.14188, 
			 "cosmo_polarized_energy": -15.89, 
			 "cosmo_cavitation_energy": 26.21, 
			 "cosmo_dispersion_energy": -19.18, 
			 "cosmo_repulsion_energy": 1.5, 
			 "cosmo_total_nonelectrostatic_energy": 8.52, 
			 "SMD_solvation_energy": 5.8 
		},
		"coords": [
			{
				"x": -0.6002458844,
				"y": 1.3670310856,
				"z": 1.047394644,
				"element": "C" 
			},
			{
				"x": 0.1895151094,
				"y": 0.3363502682,
				"z": 0.2786732958,
				"element": "C" 
			},
			{
				"x": -0.3671752517,
				"y": -0.9492085837,
				"z": 0.0553840012,
				"element": "C" 
			},
			{
				"x": -1.7394411413,
				"y": -1.3049898902,
				"z": 0.5747334063,
				"element": "C" 
			},
			{
				"x": 0.4150698271,
				"y": -1.8530603305,
				"z": -0.6612903759,
				"element": "C" 
			},
			{
				"x": 1.6966907735,
				"y": -1.5183483899,
				"z": -1.1454254614,
				"element": "C" 
			},
			{
				"x": 2.2304734528,
				"y": -0.2555281413,
				"z": -0.9200232575,
				"element": "C" 
			},
			{
				"x": 1.4663790657,
				"y": 0.6656698453,
				"z": -0.2052678155,
				"element": "C" 
			},
			{
				"x": 2.2422811974,
				"y": -2.6864867163,
				"z": -1.8497104054,
				"element": "C" 
			},
			{
				"x": 3.3035621251,
				"y": -2.8421757417,
				"z": -2.4151319287,
				"element": "O" 
			},
			{
				"x": 1.1274894234,
				"y": -3.7836609308,
				"z": -1.7349946315,
				"element": "C" 
			},
			{
				"x": 1.1421418577,
				"y": -4.9128070277,
				"z": -2.1711557754,
				"element": "O" 
			},
			{
				"x": 0.1069672419,
				"y": -3.1788398031,
				"z": -1.0183365504,
				"element": "N" 
			},
			{
				"x": -1.5555595582,
				"y": 1.5898876612,
				"z": 0.557018532,
				"element": "H" 
			},
			{
				"x": -0.0441854221,
				"y": 2.3026283679,
				"z": 1.1390103765,
				"element": "H" 
			},
			{
				"x": -0.8404318787,
				"y": 1.0177210106,
				"z": 2.0588463286,
				"element": "H" 
			},
			{
				"x": -2.0293083726,
				"y": -2.3274292146,
				"z": 0.3203100797,
				"element": "H" 
			},
			{
				"x": -2.5091238386,
				"y": -0.6412870314,
				"z": 0.1644742939,
				"element": "H" 
			},
			{
				"x": -1.791371958,
				"y": -1.218237722,
				"z": 1.6661014234,
				"element": "H" 
			},
			{
				"x": 3.2179550209,
				"y": -0.0076249107,
				"z": -1.2968277712,
				"element": "H" 
			},
			{
				"x": 1.8580991997,
				"y": 1.6601555221,
				"z": -0.0139700556,
				"element": "H" 
			},
			{
				"x": -0.7490809892,
				"y": -3.6621593271,
				"z": -0.793412353,
				"element": "H" 
			}
		],
		 "valence_orbital": [ 
			{
				"type": "occ",
				"energy": -0.31977,
				"method": "rhf"
			},
			{
				"type": "occ",
				"energy": -0.30381,
				"method": "rhf"
			},
			{
				"type": "occ",
				"energy": -0.26089,
				"method": "rhf"
			},
			{
				"type": "occ",
				"energy": -0.24091,
				"method": "rhf"
			},
			{
				"type": "occ",
				"energy": -0.23289,
				"method": "rhf"
			},
			{
				"type": "unocc",
				"energy": -0.09101,
				"method": "rhf"
			},
			{
				"type": "unocc",
				"energy": -0.0166,
				"method": "rhf"
			},
			{
				"type": "unocc",
				"energy": 0.01305,
				"method": "rhf"
			},
			{
				"type": "unocc",
				"energy": 0.05512,
				"method": "rhf"
			},
			{
				"type": "unocc",
				"energy": 0.08564,
				"method": "rhf"
			}
		],
		"cosmo_sigma_profile": { 
			"-0.025": 0.0,
			"-0.024": 0.0,
			"-0.023": 0.0,
			"-0.022": 0.0,
			"-0.021": 0.0,
			"-0.02": 0.0,
			"-0.019": 0.0,
			"-0.018": 0.0,
			"-0.017": 0.0103523948451,
			"-0.016": 0.754778940808,
			"-0.015": 1.24827707651,
			"-0.014": 1.21582466994,
			"-0.013": 1.37608459534,
			"-0.012": 0.953772267454,
			"-0.011": 0.870991023422,
			"-0.01": 1.21237496248,
			"-0.009": 1.16853650022,
			"-0.008": 1.29439146386,
			"-0.007": 3.84368616077,
			"-0.006": 7.37616157484,
			"-0.005": 17.0563641213,
			"-0.004": 17.1465398809,
			"-0.003": 17.5225037224,
			"-0.002": 17.906946994,
			"-0.001": 23.169720426,
			"0.0": 18.3103028506,
			"0.001": 11.6839289448,
			"0.002": 10.5710823235,
			"0.003": 10.2750181075,
			"0.004": 5.9740402396,
			"0.005": 2.74403056517,
			"0.006": 1.95589340396,
			"0.007": 2.41067210857,
			"0.008": 2.99581963917,
			"0.009": 4.72650815129,
			"0.01": 6.94157933794,
			"0.011": 9.32149916841,
			"0.012": 5.96076434362,
			"0.013": 1.05100681882,
			"0.014": 0.0,
			"0.015": 0.0,
			"0.016": 0.0,
			"0.017": 0.0,
			"0.018": 0.0,
			"0.019": 0.0,
			"0.02": 0.0,
			"0.021": 0.0,
			"0.022": 0.0,
			"0.023": 0.0,
			"0.024": 0.0,
			"0.0": 0.0
		}
	}
}
