{
	 "smiles": "C=CN1CCCC1=O", 
	 "Tm": 286.65, 
	 "num_atms": 17, 
	 "gaussian": { 
		 "optdone": 1, 
		 "sigma_profile": "yes", 
		 "theory": "DFT", 
		 "functional": "B3LYP", 
		 "basiset": "6-31G**", 
		 "properties": { 
			 "R2extent": 1274.4915, 
			 "electric_dipole_moment_norm": 3.60911620899, 
			 "electric_quadrupole_moment_norm": 4.51282965998, 
			 "total_energy": -364.037749905, 
			 "HOMO_LUMO_gap": 0.21712, 
			 "cosmo_polarized_energy": -8.82, 
			 "cosmo_cavitation_energy": 19.91, 
			 "cosmo_dispersion_energy": -14.81, 
			 "cosmo_repulsion_energy": 1.23, 
			 "cosmo_total_nonelectrostatic_energy": 6.33, 
			 "SMD_solvation_energy": 4.57 
		},
		"coords": [
			{
				"x": -2.2380374702,
				"y": 1.0285724099,
				"z": -2.0860502347,
				"element": "C" 
			},
			{
				"x": -1.4368552304,
				"y": 0.4983045353,
				"z": -1.1543067579,
				"element": "C" 
			},
			{
				"x": -0.1396545562,
				"y": 0.9145480526,
				"z": -0.8687355373,
				"element": "N" 
			},
			{
				"x": 0.544814762,
				"y": 1.9991887927,
				"z": -1.5645004399,
				"element": "C" 
			},
			{
				"x": 1.8044070922,
				"y": 2.2431494982,
				"z": -0.7047012512,
				"element": "C" 
			},
			{
				"x": 2.0415184706,
				"y": 0.9019605311,
				"z": 0.0070025396,
				"element": "C" 
			},
			{
				"x": 0.6660727515,
				"y": 0.2419556662,
				"z": 0.0436538117,
				"element": "C" 
			},
			{
				"x": 0.3166178936,
				"y": -0.7120541682,
				"z": 0.7146562717,
				"element": "O" 
			},
			{
				"x": -1.9385535926,
				"y": 1.8495188957,
				"z": -2.7284245162,
				"element": "H" 
			},
			{
				"x": -3.23654262,
				"y": 0.6318103366,
				"z": -2.2228638586,
				"element": "H" 
			},
			{
				"x": -1.7435588822,
				"y": -0.3304734387,
				"z": -0.523972029,
				"element": "H" 
			},
			{
				"x": 0.7917587111,
				"y": 1.6971907727,
				"z": -2.5920874608,
				"element": "H" 
			},
			{
				"x": -0.100815579,
				"y": 2.8816035712,
				"z": -1.6235643628,
				"element": "H" 
			},
			{
				"x": 2.6526854281,
				"y": 2.5717950724,
				"z": -1.3092915769,
				"element": "H" 
			},
			{
				"x": 1.5984649121,
				"y": 3.0258944288,
				"z": 0.0318106133,
				"element": "H" 
			},
			{
				"x": 2.713618059,
				"y": 0.24548824,
				"z": -0.5596680612,
				"element": "H" 
			},
			{
				"x": 2.4485598505,
				"y": 0.9898468037,
				"z": 1.0164428501,
				"element": "H" 
			}
		],
		 "valence_orbital": [ 
			{
				"type": "occ",
				"energy": -0.36692,
				"method": "rhf"
			},
			{
				"type": "occ",
				"energy": -0.34168,
				"method": "rhf"
			},
			{
				"type": "occ",
				"energy": -0.31252,
				"method": "rhf"
			},
			{
				"type": "occ",
				"energy": -0.2525,
				"method": "rhf"
			},
			{
				"type": "occ",
				"energy": -0.21975,
				"method": "rhf"
			},
			{
				"type": "unocc",
				"energy": -0.00263,
				"method": "rhf"
			},
			{
				"type": "unocc",
				"energy": 0.06409,
				"method": "rhf"
			},
			{
				"type": "unocc",
				"energy": 0.07991,
				"method": "rhf"
			},
			{
				"type": "unocc",
				"energy": 0.10868,
				"method": "rhf"
			},
			{
				"type": "unocc",
				"energy": 0.11718,
				"method": "rhf"
			}
		],
		"cosmo_sigma_profile": { 
			"-0.025": 0.0,
			"-0.024": 0.0,
			"-0.023": 0.0,
			"-0.022": 0.0,
			"-0.021": 0.0,
			"-0.02": 0.0,
			"-0.019": 0.0,
			"-0.018": 0.0,
			"-0.017": 0.0,
			"-0.016": 0.0,
			"-0.015": 0.0,
			"-0.014": 0.0,
			"-0.013": 0.0,
			"-0.012": 0.0,
			"-0.011": 0.0,
			"-0.01": 0.0,
			"-0.009": 0.0,
			"-0.008": 0.0,
			"-0.007": 0.00576320101383,
			"-0.006": 4.35887877014,
			"-0.005": 18.0588964154,
			"-0.004": 24.7466416981,
			"-0.003": 20.8662875441,
			"-0.002": 15.4891177738,
			"-0.001": 12.2601196544,
			"0.0": 8.61962085289,
			"0.001": 7.42908917367,
			"0.002": 6.00522051182,
			"0.003": 5.72606440264,
			"0.004": 4.89444739089,
			"0.005": 4.52356003291,
			"0.006": 3.90277622319,
			"0.007": 3.65871859652,
			"0.008": 1.26597400426,
			"0.009": 0.956579138848,
			"0.01": 1.74628678545,
			"0.011": 1.8621269873,
			"0.012": 2.74777075737,
			"0.013": 5.47877414036,
			"0.014": 2.11726668086,
			"0.015": 0.192067899957,
			"0.016": 0.0,
			"0.017": 0.0,
			"0.018": 0.0,
			"0.019": 0.0,
			"0.02": 0.0,
			"0.021": 0.0,
			"0.022": 0.0,
			"0.023": 0.0,
			"0.024": 0.0,
			"0.025": 0.0
		}
	}
}
