{
	 "smiles": "CCCCCCCCCCCCCCCC", 
	 "Tm": 291.25, 
	 "num_atms": 50, 
	 "gaussian": { 
		 "optdone": 1, 
		 "sigma_profile": "yes", 
		 "theory": "DFT", 
		 "functional": "B3LYP", 
		 "basiset": "6-31G**", 
		 "properties": { 
			 "R2extent": 9498.8979, 
			 "electric_dipole_moment_norm": 0.0224650840194, 
			 "electric_quadrupole_moment_norm": 0.362278994699, 
			 "total_energy": -630.246447156, 
			 "HOMO_LUMO_gap": 0.35786, 
			 "cosmo_polarized_energy": -1.08, 
			 "cosmo_cavitation_energy": 47.83, 
			 "cosmo_dispersion_energy": -31.96, 
			 "cosmo_repulsion_energy": 2.61, 
			 "cosmo_total_nonelectrostatic_energy": 18.49, 
			 "SMD_solvation_energy": 6.24 
		},
		"coords": [
			{
				"x": 0.7359004665,
				"y": -1.5245524783,
				"z": -6.4494053735,
				"element": "C" 
			},
			{
				"x": -0.5616432855,
				"y": -2.2842031875,
				"z": -6.1475939329,
				"element": "C" 
			},
			{
				"x": -0.8329902437,
				"y": -2.5149922512,
				"z": -4.6516294338,
				"element": "C" 
			},
			{
				"x": -1.0980534607,
				"y": -1.2381542348,
				"z": -3.8410676136,
				"element": "C" 
			},
			{
				"x": -1.4246202868,
				"y": -1.5220195801,
				"z": -2.3679089866,
				"element": "C" 
			},
			{
				"x": -1.792211432,
				"y": -0.2792467859,
				"z": -1.5380857157,
				"element": "C" 
			},
			{
				"x": -0.6894404327,
				"y": 0.7877294862,
				"z": -1.3993692184,
				"element": "C" 
			},
			{
				"x": 0.6188406636,
				"y": 0.3245791202,
				"z": -0.7328025171,
				"element": "C" 
			},
			{
				"x": 0.4644987958,
				"y": -0.1241771066,
				"z": 0.7278773038,
				"element": "C" 
			},
			{
				"x": 1.7725928372,
				"y": -0.5882118885,
				"z": 1.394288111,
				"element": "C" 
			},
			{
				"x": 2.876147275,
				"y": 0.4779531583,
				"z": 1.5332927946,
				"element": "C" 
			},
			{
				"x": 2.511747288,
				"y": 1.7158873209,
				"z": 2.3723775173,
				"element": "C" 
			},
			{
				"x": 2.2014618297,
				"y": 1.4135771269,
				"z": 3.8462332616,
				"element": "C" 
			},
			{
				"x": 2.0240738715,
				"y": 2.663949548,
				"z": 4.7261870915,
				"element": "C" 
			},
			{
				"x": 0.8368449059,
				"y": 3.5760752813,
				"z": 4.3686256903,
				"element": "C" 
			},
			{
				"x": -0.5373061391,
				"y": 2.912168996,
				"z": 4.5163832001,
				"element": "C" 
			},
			{
				"x": 0.7212898667,
				"y": -0.5096648081,
				"z": -6.0390452839,
				"element": "H" 
			},
			{
				"x": 0.9001809867,
				"y": -1.4383010043,
				"z": -7.5286688158,
				"element": "H" 
			},
			{
				"x": 1.6034107836,
				"y": -2.0414686152,
				"z": -6.0222591283,
				"element": "H" 
			},
			{
				"x": -0.5274026723,
				"y": -3.258609965,
				"z": -6.6517421647,
				"element": "H" 
			},
			{
				"x": -1.4114784187,
				"y": -1.7454329015,
				"z": -6.5891194444,
				"element": "H" 
			},
			{
				"x": 0.0177490326,
				"y": -3.0543622598,
				"z": -4.2100162809,
				"element": "H" 
			},
			{
				"x": -1.6993145985,
				"y": -3.1828949581,
				"z": -4.5490254869,
				"element": "H" 
			},
			{
				"x": -0.2275040002,
				"y": -0.5741174317,
				"z": -3.9045087685,
				"element": "H" 
			},
			{
				"x": -1.9346345643,
				"y": -0.6883139242,
				"z": -4.2973825041,
				"element": "H" 
			},
			{
				"x": -0.5763620237,
				"y": -2.044064219,
				"z": -1.9043384613,
				"element": "H" 
			},
			{
				"x": -2.2658935076,
				"y": -2.2272483155,
				"z": -2.3229809614,
				"element": "H" 
			},
			{
				"x": -2.6739893313,
				"y": 0.1963979673,
				"z": -1.9891461315,
				"element": "H" 
			},
			{
				"x": -2.1105868689,
				"y": -0.6059085476,
				"z": -0.5400643678,
				"element": "H" 
			},
			{
				"x": -0.4523451968,
				"y": 1.194133896,
				"z": -2.3907412758,
				"element": "H" 
			},
			{
				"x": -1.097604811,
				"y": 1.630316138,
				"z": -0.8241970412,
				"element": "H" 
			},
			{
				"x": 1.3358747893,
				"y": 1.1533566511,
				"z": -0.7857727934,
				"element": "H" 
			},
			{
				"x": 1.0670496572,
				"y": -0.4929526088,
				"z": -1.3145036967,
				"element": "H" 
			},
			{
				"x": 0.0166255292,
				"y": 0.6937535285,
				"z": 1.3095447358,
				"element": "H" 
			},
			{
				"x": -0.2530795185,
				"y": -0.9524549332,
				"z": 0.7809300571,
				"element": "H" 
			},
			{
				"x": 2.1799080592,
				"y": -1.4306684232,
				"z": 0.8183214712,
				"element": "H" 
			},
			{
				"x": 1.5356382366,
				"y": -0.9948648498,
				"z": 2.3855654949,
				"element": "H" 
			},
			{
				"x": 3.7596853998,
				"y": -0.0001750742,
				"z": 1.9783501808,
				"element": "H" 
			},
			{
				"x": 3.1898664057,
				"y": 0.8096230541,
				"z": 0.5354512998,
				"element": "H" 
			},
			{
				"x": 3.3530063047,
				"y": 2.4216931242,
				"z": 2.3283620678,
				"element": "H" 
			},
			{
				"x": 1.6633749986,
				"y": 2.236784869,
				"z": 1.910683002,
				"element": "H" 
			},
			{
				"x": 3.0231966454,
				"y": 0.8136891309,
				"z": 4.2617840017,
				"element": "H" 
			},
			{
				"x": 1.3071393117,
				"y": 0.7823863585,
				"z": 3.9194325382,
				"element": "H" 
			},
			{
				"x": 2.9480641985,
				"y": 3.2571491377,
				"z": 4.6839317396,
				"element": "H" 
			},
			{
				"x": 1.9165753838,
				"y": 2.3448889918,
				"z": 5.7722220382,
				"element": "H" 
			},
			{
				"x": 0.8761459591,
				"y": 4.4603190681,
				"z": 5.0177573908,
				"element": "H" 
			},
			{
				"x": 0.9518829658,
				"y": 3.9538640292,
				"z": 3.3446752218,
				"element": "H" 
			},
			{
				"x": -1.3434887114,
				"y": 3.6244677142,
				"z": 4.3117088674,
				"element": "H" 
			},
			{
				"x": -0.6833939359,
				"y": 2.5285016931,
				"z": 5.5330807243,
				"element": "H" 
			},
			{
				"x": -0.6621290075,
				"y": 2.0709149626,
				"z": 3.8264095965,
				"element": "H" 
			}
		],
		 "valence_orbital": [ 
			{
				"type": "occ",
				"energy": -0.30591,
				"method": "rhf"
			},
			{
				"type": "occ",
				"energy": -0.3022,
				"method": "rhf"
			},
			{
				"type": "occ",
				"energy": -0.30036,
				"method": "rhf"
			},
			{
				"type": "occ",
				"energy": -0.29722,
				"method": "rhf"
			},
			{
				"type": "occ",
				"energy": -0.29079,
				"method": "rhf"
			},
			{
				"type": "unocc",
				"energy": 0.06707,
				"method": "rhf"
			},
			{
				"type": "unocc",
				"energy": 0.08303,
				"method": "rhf"
			},
			{
				"type": "unocc",
				"energy": 0.0981,
				"method": "rhf"
			},
			{
				"type": "unocc",
				"energy": 0.10344,
				"method": "rhf"
			},
			{
				"type": "unocc",
				"energy": 0.10597,
				"method": "rhf"
			}
		],
		"cosmo_sigma_profile": { 
			"-0.025": 0.0,
			"-0.024": 0.0,
			"-0.023": 0.0,
			"-0.022": 0.0,
			"-0.021": 0.0,
			"-0.02": 0.0,
			"-0.019": 0.0,
			"-0.018": 0.0,
			"-0.017": 0.0,
			"-0.016": 0.0,
			"-0.015": 0.0,
			"-0.014": 0.0,
			"-0.013": 0.0,
			"-0.012": 0.0,
			"-0.011": 0.0,
			"-0.01": 0.0,
			"-0.009": 0.0,
			"-0.008": 0.0,
			"-0.007": 0.0,
			"-0.006": 0.0,
			"-0.005": 0.0,
			"-0.004": 0.0,
			"-0.003": 2.29838393511,
			"-0.002": 40.9209503351,
			"-0.001": 89.3439879858,
			"0.0": 98.0974152403,
			"0.001": 91.8951392559,
			"0.002": 41.0719151032,
			"0.003": 0.986693688637,
			"0.004": 0.0,
			"0.005": 0.0,
			"0.006": 0.0,
			"0.007": 0.0,
			"0.008": 0.0,
			"0.009": 0.0,
			"0.01": 0.0,
			"0.011": 0.0,
			"0.012": 0.0,
			"0.013": 0.0,
			"0.014": 0.0,
			"0.015": 0.0,
			"0.016": 0.0,
			"0.017": 0.0,
			"0.018": 0.0,
			"0.019": 0.0,
			"0.02": 0.0,
			"0.021": 0.0,
			"0.022": 0.0,
			"0.023": 0.0,
			"0.024": 0.0,
			"0.025": 0.0
		}
	}
}
