{
	 "smiles": "NNC(=S)NCC(F)(F)F", 
	 "Tm": 432.15, 
	 "num_atms": 16, 
	 "gaussian": { 
		 "optdone": 1, 
		 "sigma_profile": "yes", 
		 "theory": "DFT", 
		 "functional": "B3LYP", 
		 "basiset": "6-31G**", 
		 "properties": { 
			 "R2extent": 2435.663, 
			 "electric_dipole_moment_norm": 3.57951775104, 
			 "electric_quadrupole_moment_norm": 5.01962561851, 
			 "total_energy": -979.882720138, 
			 "HOMO_LUMO_gap": 0.20781, 
			 "cosmo_polarized_energy": -17.03, 
			 "cosmo_cavitation_energy": 23.24, 
			 "cosmo_dispersion_energy": -16.86, 
			 "cosmo_repulsion_energy": 1.3, 
			 "cosmo_total_nonelectrostatic_energy": 7.68, 
			 "SMD_solvation_energy": 4.29 
		},
		"coords": [
			{
				"x": -2.7558857247,
				"y": 0.0653625024,
				"z": -0.380381841,
				"element": "N" 
			},
			{
				"x": -1.4610966943,
				"y": 0.3934361731,
				"z": 0.0493746243,
				"element": "N" 
			},
			{
				"x": -0.3407757425,
				"y": -0.3074437075,
				"z": -0.2914137847,
				"element": "C" 
			},
			{
				"x": -0.3747858109,
				"y": -1.5694697561,
				"z": -1.3980535967,
				"element": "S" 
			},
			{
				"x": 0.7811410157,
				"y": 0.1118811629,
				"z": 0.3776578111,
				"element": "N" 
			},
			{
				"x": 2.1208475602,
				"y": -0.3318054412,
				"z": 0.0716791034,
				"element": "C" 
			},
			{
				"x": 2.9110040826,
				"y": 0.7391722404,
				"z": -0.6633315744,
				"element": "C" 
			},
			{
				"x": 2.3731323681,
				"y": 1.0466223108,
				"z": -1.8538851689,
				"element": "F" 
			},
			{
				"x": 4.180576843,
				"y": 0.3363398979,
				"z": -0.8602646239,
				"element": "F" 
			},
			{
				"x": 2.9504800172,
				"y": 1.8841161274,
				"z": 0.069066725,
				"element": "F" 
			},
			{
				"x": -2.8069075263,
				"y": 0.2709533358,
				"z": -1.3778722522,
				"element": "H" 
			},
			{
				"x": -2.8560545311,
				"y": -0.9490264882,
				"z": -0.3108655611,
				"element": "H" 
			},
			{
				"x": -1.447975146,
				"y": 1.0012196383,
				"z": 0.857558796,
				"element": "H" 
			},
			{
				"x": 0.7201982931,
				"y": 0.9744141002,
				"z": 0.9042323833,
				"element": "H" 
			},
			{
				"x": 2.0523841374,
				"y": -1.2223934755,
				"z": -0.5555154631,
				"element": "H" 
			},
			{
				"x": 2.6671168583,
				"y": -0.5766786208,
				"z": 0.9884144229,
				"element": "H" 
			}
		],
		 "valence_orbital": [ 
			{
				"type": "occ",
				"energy": -0.37599,
				"method": "rhf"
			},
			{
				"type": "occ",
				"energy": -0.29285,
				"method": "rhf"
			},
			{
				"type": "occ",
				"energy": -0.27368,
				"method": "rhf"
			},
			{
				"type": "occ",
				"energy": -0.23096,
				"method": "rhf"
			},
			{
				"type": "occ",
				"energy": -0.21952,
				"method": "rhf"
			},
			{
				"type": "unocc",
				"energy": -0.01171,
				"method": "rhf"
			},
			{
				"type": "unocc",
				"energy": 0.04427,
				"method": "rhf"
			},
			{
				"type": "unocc",
				"energy": 0.08562,
				"method": "rhf"
			},
			{
				"type": "unocc",
				"energy": 0.08976,
				"method": "rhf"
			},
			{
				"type": "unocc",
				"energy": 0.1043,
				"method": "rhf"
			}
		],
		"cosmo_sigma_profile": { 
			"-0.025": 0.0,
			"-0.024": 0.0,
			"-0.023": 0.0,
			"-0.022": 0.0,
			"-0.021": 0.0,
			"-0.02": 0.0,
			"-0.019": 0.00120871198165,
			"-0.018": 1.31087011624,
			"-0.017": 1.55101518456,
			"-0.016": 1.66818814544,
			"-0.015": 1.76025047535,
			"-0.014": 1.4384545745,
			"-0.013": 1.51358091886,
			"-0.012": 1.70996786212,
			"-0.011": 2.45615865433,
			"-0.01": 2.83751515302,
			"-0.009": 5.03990724506,
			"-0.008": 7.1937415354,
			"-0.007": 5.4287243607,
			"-0.006": 7.33308596184,
			"-0.005": 6.28382085793,
			"-0.004": 6.25541013348,
			"-0.003": 3.97696728122,
			"-0.002": 7.06116157601,
			"-0.001": 7.90460842496,
			"0.0": 8.04734249511,
			"0.001": 10.1350080718,
			"0.002": 21.9299088661,
			"0.003": 27.942096097,
			"0.004": 6.3925843334,
			"0.005": 5.13742557699,
			"0.006": 5.09747565294,
			"0.007": 4.54135611489,
			"0.008": 5.94197566765,
			"0.009": 6.83361165845,
			"0.01": 7.25016088896,
			"0.011": 1.5167683777,
			"0.012": 0.240364668706,
			"0.013": 0.981144064867,
			"0.014": 0.737580250008,
			"0.015": 0.536802178574,
			"0.016": 0.336405947703,
			"0.017": 0.0364641601417,
			"0.018": 0.0,
			"0.019": 0.0,
			"0.02": 0.0,
			"0.021": 0.0,
			"0.022": 0.0,
			"0.023": 0.0,
			"0.024": 0.0,
			"0.025": 0.0
		}
	}
}
