{
	 "smiles": "CCN(CC)C1=CC=C2C(C)=CC(=O)OC2=C1", 
	 "Tm": 345.15, 
	 "num_atms": 34, 
	 "gaussian": { 
		 "optdone": 1, 
		 "sigma_profile": "yes", 
		 "theory": "DFT", 
		 "functional": "B3LYP", 
		 "basiset": "6-31G**", 
		 "properties": { 
			 "R2extent": 5612.204, 
			 "electric_dipole_moment_norm": 6.95575245822, 
			 "electric_quadrupole_moment_norm": 27.6638704937, 
			 "total_energy": -748.951144439, 
			 "HOMO_LUMO_gap": 0.14896, 
			 "cosmo_polarized_energy": -13.91, 
			 "cosmo_cavitation_energy": 35.79, 
			 "cosmo_dispersion_energy": -25.87, 
			 "cosmo_repulsion_energy": 1.98, 
			 "cosmo_total_nonelectrostatic_energy": 11.9, 
			 "SMD_solvation_energy": 6.34 
		},
		"coords": [
			{
				"x": 2.041460489,
				"y": -4.630242316,
				"z": 1.1499513297,
				"element": "C" 
			},
			{
				"x": 1.1609053556,
				"y": -3.3812039491,
				"z": 1.1611982227,
				"element": "C" 
			},
			{
				"x": 0.9482224879,
				"y": -2.7533848489,
				"z": -0.1502353549,
				"element": "N" 
			},
			{
				"x": 0.9379705114,
				"y": -3.5999610406,
				"z": -1.3453233133,
				"element": "C" 
			},
			{
				"x": -0.4115447806,
				"y": -4.2708454368,
				"z": -1.6361640207,
				"element": "C" 
			},
			{
				"x": 0.3440210782,
				"y": -1.5037359177,
				"z": -0.1928300782,
				"element": "C" 
			},
			{
				"x": 0.047453135,
				"y": -0.7792306315,
				"z": 0.9969613819,
				"element": "C" 
			},
			{
				"x": -0.5091122333,
				"y": 0.4863325346,
				"z": 0.94542065,
				"element": "C" 
			},
			{
				"x": -0.8241418215,
				"y": 1.1186744464,
				"z": -0.27120506,
				"element": "C" 
			},
			{
				"x": -1.4100684934,
				"y": 2.4351505427,
				"z": -0.4037935578,
				"element": "C" 
			},
			{
				"x": -1.7221124826,
				"y": 3.2521562798,
				"z": 0.8215915855,
				"element": "C" 
			},
			{
				"x": -1.6691144355,
				"y": 2.9126804189,
				"z": -1.6510759178,
				"element": "C" 
			},
			{
				"x": -1.3868404722,
				"y": 2.1608540523,
				"z": -2.8613670613,
				"element": "C" 
			},
			{
				"x": -1.5925861285,
				"y": 2.5235918097,
				"z": -3.9976347254,
				"element": "O" 
			},
			{
				"x": -0.8221409574,
				"y": 0.894237985,
				"z": -2.6815506183,
				"element": "O" 
			},
			{
				"x": -0.5476128235,
				"y": 0.3865875119,
				"z": -1.4443109332,
				"element": "C" 
			},
			{
				"x": 0.010720261,
				"y": -0.8854740272,
				"z": -1.4173440068,
				"element": "C" 
			},
			{
				"x": 1.5757178458,
				"y": -5.4772912406,
				"z": 0.6386537582,
				"element": "H" 
			},
			{
				"x": 2.2207215301,
				"y": -4.9350415542,
				"z": 2.1854929198,
				"element": "H" 
			},
			{
				"x": 3.0134004117,
				"y": -4.4338808233,
				"z": 0.6869288827,
				"element": "H" 
			},
			{
				"x": 1.6512539518,
				"y": -2.643002057,
				"z": 1.8035587325,
				"element": "H" 
			},
			{
				"x": 0.1979546813,
				"y": -3.6224972007,
				"z": 1.641049945,
				"element": "H" 
			},
			{
				"x": 1.7114415277,
				"y": -4.3598312057,
				"z": -1.2281315153,
				"element": "H" 
			},
			{
				"x": 1.256044516,
				"y": -2.9990308979,
				"z": -2.2011617624,
				"element": "H" 
			},
			{
				"x": -1.2013358737,
				"y": -3.5271703958,
				"z": -1.7744622243,
				"element": "H" 
			},
			{
				"x": -0.7089197585,
				"y": -4.9306389299,
				"z": -0.8142598155,
				"element": "H" 
			},
			{
				"x": -0.3486381227,
				"y": -4.8750181275,
				"z": -2.5474714671,
				"element": "H" 
			},
			{
				"x": 0.2424493905,
				"y": -1.210835642,
				"z": 1.9686279108,
				"element": "H" 
			},
			{
				"x": -0.7153517985,
				"y": 0.9994111828,
				"z": 1.8795043846,
				"element": "H" 
			},
			{
				"x": -0.8178752975,
				"y": 3.4359263093,
				"z": 1.4130922853,
				"element": "H" 
			},
			{
				"x": -2.4318291126,
				"y": 2.7294465582,
				"z": 1.4731438438,
				"element": "H" 
			},
			{
				"x": -2.1549418681,
				"y": 4.2171458691,
				"z": 0.549824358,
				"element": "H" 
			},
			{
				"x": -2.1063860962,
				"y": 3.8918598407,
				"z": -1.8090165858,
				"element": "H" 
			},
			{
				"x": 0.1764153833,
				"y": -1.362839099,
				"z": -2.3728621721,
				"element": "H" 
			}
		],
		 "valence_orbital": [ 
			{
				"type": "occ",
				"energy": -0.3102,
				"method": "rhf"
			},
			{
				"type": "occ",
				"energy": -0.26123,
				"method": "rhf"
			},
			{
				"type": "occ",
				"energy": -0.25622,
				"method": "rhf"
			},
			{
				"type": "occ",
				"energy": -0.23344,
				"method": "rhf"
			},
			{
				"type": "occ",
				"energy": -0.1958,
				"method": "rhf"
			},
			{
				"type": "unocc",
				"energy": -0.04684,
				"method": "rhf"
			},
			{
				"type": "unocc",
				"energy": 0.00057,
				"method": "rhf"
			},
			{
				"type": "unocc",
				"energy": 0.02155,
				"method": "rhf"
			},
			{
				"type": "unocc",
				"energy": 0.0675,
				"method": "rhf"
			},
			{
				"type": "unocc",
				"energy": 0.0914,
				"method": "rhf"
			}
		],
		"cosmo_sigma_profile": { 
			"-0.025": 0.0,
			"-0.024": 0.0,
			"-0.023": 0.0,
			"-0.022": 0.0,
			"-0.021": 0.0,
			"-0.02": 0.0,
			"-0.019": 0.0,
			"-0.018": 0.0,
			"-0.017": 0.0,
			"-0.016": 0.0,
			"-0.015": 0.0,
			"-0.014": 0.0,
			"-0.013": 0.0,
			"-0.012": 0.0,
			"-0.011": 0.0,
			"-0.01": 0.0,
			"-0.009": 0.0,
			"-0.008": 0.260447528917,
			"-0.007": 2.34084257497,
			"-0.006": 8.91441805869,
			"-0.005": 17.994624131,
			"-0.004": 26.1961838535,
			"-0.003": 36.4518657868,
			"-0.002": 35.6046059068,
			"-0.001": 29.7731549061,
			"0.0": 26.887191016,
			"0.001": 20.9997024816,
			"0.002": 15.6752421555,
			"0.003": 13.277051617,
			"0.004": 12.6874066282,
			"0.005": 7.41967936049,
			"0.006": 2.9005319201,
			"0.007": 3.3242008868,
			"0.008": 1.48630623129,
			"0.009": 1.74976224706,
			"0.01": 2.908495684,
			"0.011": 3.08137413342,
			"0.012": 4.56368333207,
			"0.013": 5.7791409657,
			"0.014": 2.21720316282,
			"0.015": 0.053878513257,
			"0.016": 0.0,
			"0.017": 0.0,
			"0.018": 0.0,
			"0.019": 0.0,
			"0.02": 0.0,
			"0.021": 0.0,
			"0.022": 0.0,
			"0.023": 0.0,
			"0.024": 0.0,
			"0.025": 0.0
		}
	}
}
