{
	 "smiles": "COC1=CC2=C(NC3=C2CC2(CC3)OCCO2)C=C1", 
	 "Tm": 423.15, 
	 "num_atms": 36, 
	 "gaussian": { 
		 "optdone": 1, 
		 "sigma_profile": "yes", 
		 "theory": "DFT", 
		 "functional": "B3LYP", 
		 "basiset": "6-31G**", 
		 "properties": { 
			 "R2extent": 6270.6925, 
			 "electric_dipole_moment_norm": 2.78964303451, 
			 "electric_quadrupole_moment_norm": 13.3937467678, 
			 "total_energy": -862.252045259, 
			 "HOMO_LUMO_gap": 0.18845, 
			 "cosmo_polarized_energy": -14.82, 
			 "cosmo_cavitation_energy": 37.34, 
			 "cosmo_dispersion_energy": -27.46, 
			 "cosmo_repulsion_energy": 2.1, 
			 "cosmo_total_nonelectrostatic_energy": 11.98, 
			 "SMD_solvation_energy": 5.8 
		},
		"coords": [
			{
				"x": -1.538602637,
				"y": -1.940258311,
				"z": 4.9548908825,
				"element": "C" 
			},
			{
				"x": -0.453431749,
				"y": -1.0407827925,
				"z": 5.0696787941,
				"element": "O" 
			},
			{
				"x": -0.0090143626,
				"y": -0.4221861713,
				"z": 3.9265361992,
				"element": "C" 
			},
			{
				"x": -0.5538260377,
				"y": -0.6195217017,
				"z": 2.6607013688,
				"element": "C" 
			},
			{
				"x": 0.0027535361,
				"y": 0.0813812156,
				"z": 1.5720580041,
				"element": "C" 
			},
			{
				"x": 1.0931840388,
				"y": 0.9645228957,
				"z": 1.7903542326,
				"element": "C" 
			},
			{
				"x": 1.4339777771,
				"y": 1.514589632,
				"z": 0.5652006895,
				"element": "N" 
			},
			{
				"x": 0.5937942159,
				"y": 1.0056473166,
				"z": -0.4076173237,
				"element": "C" 
			},
			{
				"x": -0.2927542995,
				"y": 0.1256789944,
				"z": 0.1654675863,
				"element": "C" 
			},
			{
				"x": -1.3439713563,
				"y": -0.600204289,
				"z": -0.6240330878,
				"element": "C" 
			},
			{
				"x": -1.0765095891,
				"y": -0.499065032,
				"z": -2.1349280271,
				"element": "C" 
			},
			{
				"x": -0.6405434208,
				"y": 0.9151902572,
				"z": -2.5529948195,
				"element": "C" 
			},
			{
				"x": 0.6712838804,
				"y": 1.335660674,
				"z": -1.8642481725,
				"element": "C" 
			},
			{
				"x": -2.2534552238,
				"y": -0.8481365024,
				"z": -2.8737097004,
				"element": "O" 
			},
			{
				"x": -2.0110470054,
				"y": -2.0755467089,
				"z": -3.5548505846,
				"element": "C" 
			},
			{
				"x": -0.4922038839,
				"y": -2.0822410619,
				"z": -3.6998000949,
				"element": "C" 
			},
			{
				"x": -0.0724232585,
				"y": -1.4547856464,
				"z": -2.4936161328,
				"element": "O" 
			},
			{
				"x": 1.6357889974,
				"y": 1.1606971476,
				"z": 3.0639573265,
				"element": "C" 
			},
			{
				"x": 1.0774336578,
				"y": 0.4621890471,
				"z": 4.1240780013,
				"element": "C" 
			},
			{
				"x": -2.4428833606,
				"y": -1.4432171714,
				"z": 4.5773697054,
				"element": "H" 
			},
			{
				"x": -1.7315855005,
				"y": -2.3160822462,
				"z": 5.9615901788,
				"element": "H" 
			},
			{
				"x": -1.3001690218,
				"y": -2.7859210743,
				"z": 4.2951239173,
				"element": "H" 
			},
			{
				"x": -1.3865812252,
				"y": -1.294477032,
				"z": 2.5017830252,
				"element": "H" 
			},
			{
				"x": 2.1769605804,
				"y": 2.1749298703,
				"z": 0.4061617114,
				"element": "H" 
			},
			{
				"x": -2.3435078469,
				"y": -0.184892438,
				"z": -0.4386258675,
				"element": "H" 
			},
			{
				"x": -1.3863962137,
				"y": -1.6636187436,
				"z": -0.3606159387,
				"element": "H" 
			},
			{
				"x": -0.5305321448,
				"y": 0.9394850443,
				"z": -3.6415752131,
				"element": "H" 
			},
			{
				"x": -1.4463706543,
				"y": 1.6101286861,
				"z": -2.291755227,
				"element": "H" 
			},
			{
				"x": 1.5108515593,
				"y": 0.8005518459,
				"z": -2.3288435616,
				"element": "H" 
			},
			{
				"x": 0.8516961849,
				"y": 2.4069969939,
				"z": -2.0224416267,
				"element": "H" 
			},
			{
				"x": -2.3584008075,
				"y": -2.932617997,
				"z": -2.9598507399,
				"element": "H" 
			},
			{
				"x": -2.5487357659,
				"y": -2.0614228436,
				"z": -4.5074718709,
				"element": "H" 
			},
			{
				"x": -0.0495904593,
				"y": -3.0809669639,
				"z": -3.7422268575,
				"element": "H" 
			},
			{
				"x": -0.1727388352,
				"y": -1.5108631237,
				"z": -4.5844705498,
				"element": "H" 
			},
			{
				"x": 2.4701811663,
				"y": 1.8372665715,
				"z": 3.2275131546,
				"element": "H" 
			},
			{
				"x": 1.4609690648,
				"y": 0.5765916585,
				"z": 5.1323106184,
				"element": "H" 
			}
		],
		 "valence_orbital": [ 
			{
				"type": "occ",
				"energy": -0.26842,
				"method": "rhf"
			},
			{
				"type": "occ",
				"energy": -0.258,
				"method": "rhf"
			},
			{
				"type": "occ",
				"energy": -0.24689,
				"method": "rhf"
			},
			{
				"type": "occ",
				"energy": -0.18822,
				"method": "rhf"
			},
			{
				"type": "occ",
				"energy": -0.18614,
				"method": "rhf"
			},
			{
				"type": "unocc",
				"energy": 0.00231,
				"method": "rhf"
			},
			{
				"type": "unocc",
				"energy": 0.0472,
				"method": "rhf"
			},
			{
				"type": "unocc",
				"energy": 0.07577,
				"method": "rhf"
			},
			{
				"type": "unocc",
				"energy": 0.08404,
				"method": "rhf"
			},
			{
				"type": "unocc",
				"energy": 0.08784,
				"method": "rhf"
			}
		],
		"cosmo_sigma_profile": { 
			"-0.025": 0.0,
			"-0.024": 0.0,
			"-0.023": 0.0,
			"-0.022": 0.0,
			"-0.021": 0.0,
			"-0.02": 0.0,
			"-0.019": 0.0,
			"-0.018": 0.0,
			"-0.017": 0.0,
			"-0.016": 0.0,
			"-0.015": 0.739645577043,
			"-0.014": 1.37885631616,
			"-0.013": 1.31280655832,
			"-0.012": 1.26807115462,
			"-0.011": 1.06653100507,
			"-0.01": 1.14450447914,
			"-0.009": 1.28603131125,
			"-0.008": 1.5839585718,
			"-0.007": 1.63523049342,
			"-0.006": 8.14402571631,
			"-0.005": 20.6491138022,
			"-0.004": 36.6023195212,
			"-0.003": 36.7660310852,
			"-0.002": 29.6138625745,
			"-0.001": 22.197581133,
			"0.0": 15.2452600685,
			"0.001": 11.9643902307,
			"0.002": 9.17584144779,
			"0.003": 9.93578486688,
			"0.004": 11.3030312012,
			"0.005": 16.4525704686,
			"0.006": 19.816912855,
			"0.007": 14.0268494193,
			"0.008": 4.07445870962,
			"0.009": 3.70582716794,
			"0.01": 4.30786965238,
			"0.011": 4.45834535465,
			"0.012": 2.49712330964,
			"0.013": 1.35298828516,
			"0.014": 0.00131548453191,
			"0.015": 0.0,
			"0.016": 0.0,
			"0.017": 0.0,
			"0.018": 0.0,
			"0.019": 0.0,
			"0.02": 0.0,
			"0.021": 0.0,
			"0.022": 0.0,
			"0.023": 0.0,
			"0.024": 0.0,
			"0.025": 0.0
		}
	}
}
