{
	 "smiles": "CC1=C(C)C=C(C=C1)C(=O)C1=C(C=CC=C1)C(O)=O", 
	 "Tm": 440.15, 
	 "num_atms": 33, 
	 "gaussian": { 
		 "optdone": 1, 
		 "sigma_profile": "yes", 
		 "theory": "DFT", 
		 "functional": "B3LYP", 
		 "basiset": "6-31G**", 
		 "properties": { 
			 "R2extent": 6263.1477, 
			 "electric_dipole_moment_norm": 5.92620495849, 
			 "electric_quadrupole_moment_norm": 29.5740593654, 
			 "total_energy": -843.829916339, 
			 "HOMO_LUMO_gap": 0.17605, 
			 "cosmo_polarized_energy": -21.52, 
			 "cosmo_cavitation_energy": 37.13, 
			 "cosmo_dispersion_energy": -25.34, 
			 "cosmo_repulsion_energy": 1.95, 
			 "cosmo_total_nonelectrostatic_energy": 13.75, 
			 "SMD_solvation_energy": 7.72 
		},
		"coords": [
			{
				"x": 3.0387764559,
				"y": 1.6991503988,
				"z": 1.6835923211,
				"element": "C" 
			},
			{
				"x": 2.2274708286,
				"y": 1.321237682,
				"z": 0.4689419665,
				"element": "C" 
			},
			{
				"x": 0.8573207024,
				"y": 1.0008004152,
				"z": 0.5857562079,
				"element": "C" 
			},
			{
				"x": 0.1648732718,
				"y": 1.0394564106,
				"z": 1.9274478259,
				"element": "C" 
			},
			{
				"x": 0.1451280054,
				"y": 0.645040161,
				"z": -0.5625177936,
				"element": "C" 
			},
			{
				"x": 0.7531950632,
				"y": 0.6048668298,
				"z": -1.8251210001,
				"element": "C" 
			},
			{
				"x": 2.1077469121,
				"y": 0.9420897086,
				"z": -1.934417516,
				"element": "C" 
			},
			{
				"x": 2.8283568399,
				"y": 1.2858496821,
				"z": -0.7974159471,
				"element": "C" 
			},
			{
				"x": 0.0028846685,
				"y": 0.2794079649,
				"z": -3.0721968169,
				"element": "C" 
			},
			{
				"x": 0.4358326716,
				"y": 0.5776630167,
				"z": -4.1759901457,
				"element": "O" 
			},
			{
				"x": -1.384413539,
				"y": -0.3286814155,
				"z": -2.9874281889,
				"element": "C" 
			},
			{
				"x": -1.6760770566,
				"y": -1.5621197168,
				"z": -2.3700907965,
				"element": "C" 
			},
			{
				"x": -2.9932763551,
				"y": -2.0459389628,
				"z": -2.3797227016,
				"element": "C" 
			},
			{
				"x": -4.0184125134,
				"y": -1.3168628506,
				"z": -2.979963552,
				"element": "C" 
			},
			{
				"x": -3.7295590903,
				"y": -0.0966737451,
				"z": -3.5912417021,
				"element": "C" 
			},
			{
				"x": -2.4201661523,
				"y": 0.3833941082,
				"z": -3.6024050599,
				"element": "C" 
			},
			{
				"x": -0.5670734925,
				"y": -2.4104432549,
				"z": -1.8182925618,
				"element": "C" 
			},
			{
				"x": -0.8899500733,
				"y": -3.2042978826,
				"z": -0.760613381,
				"element": "O" 
			},
			{
				"x": 0.5486851584,
				"y": -2.4348997294,
				"z": -2.2778322182,
				"element": "O" 
			},
			{
				"x": 3.0490260406,
				"y": 0.8934257647,
				"z": 2.4277048984,
				"element": "H" 
			},
			{
				"x": 4.074894542,
				"y": 1.9181218458,
				"z": 1.4139658415,
				"element": "H" 
			},
			{
				"x": 2.6279012329,
				"y": 2.5841469187,
				"z": 2.1847442787,
				"element": "H" 
			},
			{
				"x": 0.6202563155,
				"y": 0.3390090827,
				"z": 2.6380253662,
				"element": "H" 
			},
			{
				"x": -0.8923735018,
				"y": 0.77744729,
				"z": 1.8333712991,
				"element": "H" 
			},
			{
				"x": 0.221658644,
				"y": 2.0342316281,
				"z": 2.3857116092,
				"element": "H" 
			},
			{
				"x": -0.9117721249,
				"y": 0.411357545,
				"z": -0.4682615314,
				"element": "H" 
			},
			{
				"x": 2.5729855501,
				"y": 0.9211387173,
				"z": -2.9137952587,
				"element": "H" 
			},
			{
				"x": 3.8831016314,
				"y": 1.5335144243,
				"z": -0.8860670384,
				"element": "H" 
			},
			{
				"x": -3.2127601514,
				"y": -3.0251651978,
				"z": -1.9616824988,
				"element": "H" 
			},
			{
				"x": -5.0306830695,
				"y": -1.7092758782,
				"z": -2.9862594584,
				"element": "H" 
			},
			{
				"x": -4.5191839892,
				"y": 0.4748287832,
				"z": -4.069880989,
				"element": "H" 
			},
			{
				"x": -2.1835388277,
				"y": 1.321422061,
				"z": -4.0942313663,
				"element": "H" 
			},
			{
				"x": -1.7647545972,
				"y": -2.9638418048,
				"z": -0.4246340919,
				"element": "H" 
			}
		],
		 "valence_orbital": [ 
			{
				"type": "occ",
				"energy": -0.27666,
				"method": "rhf"
			},
			{
				"type": "occ",
				"energy": -0.26684,
				"method": "rhf"
			},
			{
				"type": "occ",
				"energy": -0.24994,
				"method": "rhf"
			},
			{
				"type": "occ",
				"energy": -0.24688,
				"method": "rhf"
			},
			{
				"type": "occ",
				"energy": -0.23751,
				"method": "rhf"
			},
			{
				"type": "unocc",
				"energy": -0.06146,
				"method": "rhf"
			},
			{
				"type": "unocc",
				"energy": -0.04629,
				"method": "rhf"
			},
			{
				"type": "unocc",
				"energy": -0.02537,
				"method": "rhf"
			},
			{
				"type": "unocc",
				"energy": 0.00022,
				"method": "rhf"
			},
			{
				"type": "unocc",
				"energy": 0.03765,
				"method": "rhf"
			}
		],
		"cosmo_sigma_profile": { 
			"-0.025": 0.0,
			"-0.024": 0.0,
			"-0.023": 0.0,
			"-0.022": 0.0,
			"-0.021": 0.0,
			"-0.02": 0.0,
			"-0.019": 0.0795398132298,
			"-0.018": 0.891405854252,
			"-0.017": 1.06017588655,
			"-0.016": 1.1364394943,
			"-0.015": 0.832791931273,
			"-0.014": 0.714573709513,
			"-0.013": 0.909812311776,
			"-0.012": 1.36665572375,
			"-0.011": 1.20740142033,
			"-0.01": 1.167731715,
			"-0.009": 1.49518981467,
			"-0.008": 2.35852118024,
			"-0.007": 8.25682130708,
			"-0.006": 13.5956660572,
			"-0.005": 19.4783511322,
			"-0.004": 26.5092413221,
			"-0.003": 22.1046790352,
			"-0.002": 21.076133512,
			"-0.001": 25.6430496911,
			"0.0": 24.0012390292,
			"0.001": 18.8871747718,
			"0.002": 18.1261415063,
			"0.003": 17.3717432196,
			"0.004": 12.1475067579,
			"0.005": 8.16947134269,
			"0.006": 5.34945254771,
			"0.007": 6.00473185321,
			"0.008": 5.87379747086,
			"0.009": 6.27482271567,
			"0.01": 7.63654211292,
			"0.011": 8.11823410603,
			"0.012": 6.4350349484,
			"0.013": 1.35778000611,
			"0.014": 0.0,
			"0.015": 0.0,
			"0.016": 0.0,
			"0.017": 0.0,
			"0.018": 0.0,
			"0.019": 0.0,
			"0.02": 0.0,
			"0.021": 0.0,
			"0.022": 0.0,
			"0.023": 0.0,
			"0.024": 0.0,
			"0.025": 0.0
		}
	}
}
