{
	 "smiles": "CC1=C(C=NN1C1=CC=C(Cl)C=C1)C(Cl)=O", 
	 "Tm": 388.15, 
	 "num_atms": 24, 
	 "gaussian": { 
		 "optdone": 1, 
		 "sigma_profile": "yes", 
		 "theory": "DFT", 
		 "functional": "B3LYP", 
		 "basiset": "6-31G**", 
		 "properties": { 
			 "R2extent": 7037.6956, 
			 "electric_dipole_moment_norm": 3.46565253452, 
			 "electric_quadrupole_moment_norm": 28.8844936104, 
			 "total_energy": -1529.10054002, 
			 "HOMO_LUMO_gap": 0.18836, 
			 "cosmo_polarized_energy": -10.83, 
			 "cosmo_cavitation_energy": 32.57, 
			 "cosmo_dispersion_energy": -23.79, 
			 "cosmo_repulsion_energy": 1.84, 
			 "cosmo_total_nonelectrostatic_energy": 10.62, 
			 "SMD_solvation_energy": 5.17 
		},
		"coords": [
			{
				"x": 2.1506291556,
				"y": -2.0323051885,
				"z": -1.2533037285,
				"element": "C" 
			},
			{
				"x": 2.1464556988,
				"y": -0.8100965149,
				"z": -0.3943570221,
				"element": "C" 
			},
			{
				"x": 3.2157560845,
				"y": 0.0036589844,
				"z": 0.0102542983,
				"element": "C" 
			},
			{
				"x": 2.6200428042,
				"y": 1.0586120616,
				"z": 0.7526809882,
				"element": "C" 
			},
			{
				"x": 1.3109127313,
				"y": 0.9291891687,
				"z": 0.8191553094,
				"element": "N" 
			},
			{
				"x": 1.0320701431,
				"y": -0.2234917835,
				"z": 0.1227544518,
				"element": "N" 
			},
			{
				"x": -0.3331284907,
				"y": -0.614248792,
				"z": -0.001985075,
				"element": "C" 
			},
			{
				"x": -1.2945636103,
				"y": 0.3735042611,
				"z": -0.2399985626,
				"element": "C" 
			},
			{
				"x": -2.6366563781,
				"y": 0.0231207235,
				"z": -0.3519736614,
				"element": "C" 
			},
			{
				"x": -3.0089580011,
				"y": -1.3169530188,
				"z": -0.2301419459,
				"element": "C" 
			},
			{
				"x": -4.6984636223,
				"y": -1.7614097685,
				"z": -0.3821523542,
				"element": "Cl" 
			},
			{
				"x": -2.0588390703,
				"y": -2.3061185441,
				"z": 0.0187877699,
				"element": "C" 
			},
			{
				"x": -0.7163814737,
				"y": -1.950176746,
				"z": 0.1434424281,
				"element": "C" 
			},
			{
				"x": 4.6057186848,
				"y": -0.2347001691,
				"z": -0.3216283809,
				"element": "C" 
			},
			{
				"x": 5.7356309306,
				"y": 1.0514494753,
				"z": 0.3472375799,
				"element": "Cl" 
			},
			{
				"x": 5.0675473119,
				"y": -1.1390821304,
				"z": -0.9580190948,
				"element": "O" 
			},
			{
				"x": 2.2390134763,
				"y": -2.9446838249,
				"z": -0.6518508449,
				"element": "H" 
			},
			{
				"x": 3.0179488862,
				"y": -2.0036351442,
				"z": -1.9131862555,
				"element": "H" 
			},
			{
				"x": 1.2358376138,
				"y": -2.1054805765,
				"z": -1.8462687072,
				"element": "H" 
			},
			{
				"x": 3.1126432086,
				"y": 1.8917945545,
				"z": 1.2328230383,
				"element": "H" 
			},
			{
				"x": -0.9822036252,
				"y": 1.407416207,
				"z": -0.325111177,
				"element": "H" 
			},
			{
				"x": -3.3885676154,
				"y": 0.7815831452,
				"z": -0.5377970002,
				"element": "H" 
			},
			{
				"x": -2.3648370609,
				"y": -3.3399345171,
				"z": 0.1310349246,
				"element": "H" 
			},
			{
				"x": 0.0196922182,
				"y": -2.7103118628,
				"z": 0.3772030216,
				"element": "H" 
			}
		],
		 "valence_orbital": [ 
			{
				"type": "occ",
				"energy": -0.30037,
				"method": "rhf"
			},
			{
				"type": "occ",
				"energy": -0.29061,
				"method": "rhf"
			},
			{
				"type": "occ",
				"energy": -0.28559,
				"method": "rhf"
			},
			{
				"type": "occ",
				"energy": -0.27203,
				"method": "rhf"
			},
			{
				"type": "occ",
				"energy": -0.25366,
				"method": "rhf"
			},
			{
				"type": "unocc",
				"energy": -0.0653,
				"method": "rhf"
			},
			{
				"type": "unocc",
				"energy": -0.03749,
				"method": "rhf"
			},
			{
				"type": "unocc",
				"energy": -0.03678,
				"method": "rhf"
			},
			{
				"type": "unocc",
				"energy": 0.00331,
				"method": "rhf"
			},
			{
				"type": "unocc",
				"energy": 0.01501,
				"method": "rhf"
			}
		],
		"cosmo_sigma_profile": { 
			"-0.025": 0.0,
			"-0.024": 0.0,
			"-0.023": 0.0,
			"-0.022": 0.0,
			"-0.021": 0.0,
			"-0.02": 0.0,
			"-0.019": 0.0,
			"-0.018": 0.0,
			"-0.017": 0.0,
			"-0.016": 0.0,
			"-0.015": 0.0,
			"-0.014": 0.0,
			"-0.013": 0.0,
			"-0.012": 0.13517322524,
			"-0.011": 1.03923402821,
			"-0.01": 1.4245000241,
			"-0.009": 1.63715848995,
			"-0.008": 5.29909010617,
			"-0.007": 8.36913903578,
			"-0.006": 12.0514625343,
			"-0.005": 11.8552829809,
			"-0.004": 15.9010429369,
			"-0.003": 19.2196702476,
			"-0.002": 23.4913701695,
			"-0.001": 20.0918562449,
			"0.0": 21.1300028537,
			"0.001": 24.5757186249,
			"0.002": 27.1035212319,
			"0.003": 17.1621608165,
			"0.004": 20.1571970883,
			"0.005": 13.0912642145,
			"0.006": 5.97997154977,
			"0.007": 3.12083918591,
			"0.008": 4.34495248905,
			"0.009": 4.73461886647,
			"0.01": 2.4665107117,
			"0.011": 1.03078390541,
			"0.012": 0.744966173947,
			"0.013": 0.688210154978,
			"0.014": 0.0773126164796,
			"0.015": 0.0,
			"0.016": 0.0,
			"0.017": 0.0,
			"0.018": 0.0,
			"0.019": 0.0,
			"0.02": 0.0,
			"0.021": 0.0,
			"0.022": 0.0,
			"0.023": 0.0,
			"0.024": 0.0,
			"0.025": 0.0
		}
	}
}
