{
	 "smiles": "NC1=CC(Cl)=C(C=C1)C(O)=O", 
	 "Tm": 485.15, 
	 "num_atms": 17, 
	 "gaussian": { 
		 "optdone": 1, 
		 "sigma_profile": "yes", 
		 "theory": "DFT", 
		 "functional": "B3LYP", 
		 "basiset": "6-31G**", 
		 "properties": { 
			 "R2extent": 2332.0987, 
			 "electric_dipole_moment_norm": 5.15566529267, 
			 "electric_quadrupole_moment_norm": 14.6464229834, 
			 "total_energy": -935.76946592, 
			 "HOMO_LUMO_gap": 0.18504, 
			 "cosmo_polarized_energy": -16.3, 
			 "cosmo_cavitation_energy": 23.34, 
			 "cosmo_dispersion_energy": -17.7, 
			 "cosmo_repulsion_energy": 1.43, 
			 "cosmo_total_nonelectrostatic_energy": 7.07, 
			 "SMD_solvation_energy": 4.93 
		},
		"coords": [
			{
				"x": 1.8399631633,
				"y": -3.4236898578,
				"z": -0.2927361943,
				"element": "N" 
			},
			{
				"x": 1.5093547186,
				"y": -2.094592972,
				"z": -0.117905731,
				"element": "C" 
			},
			{
				"x": 0.8607853417,
				"y": -1.3796855133,
				"z": -1.1394698706,
				"element": "C" 
			},
			{
				"x": 0.5669653239,
				"y": -0.0289894785,
				"z": -0.99082827,
				"element": "C" 
			},
			{
				"x": -0.2458830583,
				"y": 0.7259805898,
				"z": -2.3463677768,
				"element": "Cl" 
			},
			{
				"x": 0.9061231067,
				"y": 0.672492606,
				"z": 0.1865801897,
				"element": "C" 
			},
			{
				"x": 1.5562145304,
				"y": -0.0665728085,
				"z": 1.1966382242,
				"element": "C" 
			},
			{
				"x": 1.8550404928,
				"y": -1.4099567601,
				"z": 1.0631169988,
				"element": "C" 
			},
			{
				"x": 0.6173299417,
				"y": 2.1097210006,
				"z": 0.4048481555,
				"element": "C" 
			},
			{
				"x": 1.0487399756,
				"y": 2.5372759427,
				"z": 1.628823057,
				"element": "O" 
			},
			{
				"x": 0.0692933935,
				"y": 2.8746136718,
				"z": -0.3621651878,
				"element": "O" 
			},
			{
				"x": 1.3427533244,
				"y": -3.9345871398,
				"z": -1.0068201274,
				"element": "H" 
			},
			{
				"x": 2.0326114563,
				"y": -3.9626322865,
				"z": 0.5381815402,
				"element": "H" 
			},
			{
				"x": 0.5856479149,
				"y": -1.87999158,
				"z": -2.0619288602,
				"element": "H" 
			},
			{
				"x": 1.8255127241,
				"y": 0.4491718193,
				"z": 2.1099988486,
				"element": "H" 
			},
			{
				"x": 2.3603452312,
				"y": -1.9384973913,
				"z": 1.866570977,
				"element": "H" 
			},
			{
				"x": 0.8110024192,
				"y": 3.4778401574,
				"z": 1.6594640271,
				"element": "H" 
			}
		],
		 "valence_orbital": [ 
			{
				"type": "occ",
				"energy": -0.30971,
				"method": "rhf"
			},
			{
				"type": "occ",
				"energy": -0.30727,
				"method": "rhf"
			},
			{
				"type": "occ",
				"energy": -0.25787,
				"method": "rhf"
			},
			{
				"type": "occ",
				"energy": -0.25112,
				"method": "rhf"
			},
			{
				"type": "occ",
				"energy": -0.22346,
				"method": "rhf"
			},
			{
				"type": "unocc",
				"energy": -0.03842,
				"method": "rhf"
			},
			{
				"type": "unocc",
				"energy": -0.01437,
				"method": "rhf"
			},
			{
				"type": "unocc",
				"energy": 0.03627,
				"method": "rhf"
			},
			{
				"type": "unocc",
				"energy": 0.0584,
				"method": "rhf"
			},
			{
				"type": "unocc",
				"energy": 0.07209,
				"method": "rhf"
			}
		],
		"cosmo_sigma_profile": { 
			"-0.025": 0.0,
			"-0.024": 0.0,
			"-0.023": 0.0,
			"-0.022": 0.0,
			"-0.021": 0.0,
			"-0.02": 0.0,
			"-0.019": 0.0,
			"-0.018": 0.248284019549,
			"-0.017": 0.706978638621,
			"-0.016": 1.17926124901,
			"-0.015": 0.534194661086,
			"-0.014": 1.47423221767,
			"-0.013": 4.69073350618,
			"-0.012": 3.81309963074,
			"-0.011": 3.82978722821,
			"-0.01": 3.97026073457,
			"-0.009": 3.27169548863,
			"-0.008": 3.69497787762,
			"-0.007": 4.70238179709,
			"-0.006": 6.63487402749,
			"-0.005": 6.57331919228,
			"-0.004": 4.57373864323,
			"-0.003": 4.85464036868,
			"-0.002": 8.54120866069,
			"-0.001": 9.65425345364,
			"0.0": 10.7198150682,
			"0.001": 15.3206319409,
			"0.002": 17.3977974813,
			"0.003": 21.11277718,
			"0.004": 15.2377077493,
			"0.005": 7.15350810431,
			"0.006": 4.50209055648,
			"0.007": 4.99893807273,
			"0.008": 2.58395757964,
			"0.009": 2.32886687213,
			"0.01": 3.42033270782,
			"0.011": 2.83615422644,
			"0.012": 5.61361790725,
			"0.013": 2.18334500045,
			"0.014": 0.0,
			"0.015": 0.0,
			"0.016": 0.0,
			"0.017": 0.0,
			"0.018": 0.0,
			"0.019": 0.0,
			"0.02": 0.0,
			"0.021": 0.0,
			"0.022": 0.0,
			"0.023": 0.0,
			"0.024": 0.0,
			"0.025": 0.0
		}
	}
}
