{
	 "smiles": "NNC1=C(F)C=C(C=C1F)C(=O)NC1CC1", 
	 "Tm": 478.15, 
	 "num_atms": 27, 
	 "gaussian": { 
		 "optdone": 1, 
		 "sigma_profile": "yes", 
		 "theory": "DFT", 
		 "functional": "B3LYP", 
		 "basiset": "6-31G**", 
		 "properties": { 
			 "R2extent": 6277.5631, 
			 "electric_dipole_moment_norm": 2.482147129, 
			 "electric_quadrupole_moment_norm": 9.2871599071, 
			 "total_energy": -826.784132253, 
			 "HOMO_LUMO_gap": 0.18007, 
			 "cosmo_polarized_energy": -16.13, 
			 "cosmo_cavitation_energy": 32.33, 
			 "cosmo_dispersion_energy": -23.1, 
			 "cosmo_repulsion_energy": 1.77, 
			 "cosmo_total_nonelectrostatic_energy": 11.0, 
			 "SMD_solvation_energy": 6.38 
		},
		"coords": [
			{
				"x": 1.6525607294,
				"y": 6.0227929116,
				"z": 0.1402809968,
				"element": "N" 
			},
			{
				"x": 1.903630553,
				"y": 5.0075772455,
				"z": 1.1015180213,
				"element": "N" 
			},
			{
				"x": 1.370359347,
				"y": 3.7318021411,
				"z": 0.9599650379,
				"element": "C" 
			},
			{
				"x": 2.1145552372,
				"y": 2.603217769,
				"z": 1.345351322,
				"element": "C" 
			},
			{
				"x": 3.3790352891,
				"y": 2.8312439357,
				"z": 1.7841718457,
				"element": "F" 
			},
			{
				"x": 1.6348542966,
				"y": 1.3085242044,
				"z": 1.2857117243,
				"element": "C" 
			},
			{
				"x": 0.3342519981,
				"y": 1.0828988968,
				"z": 0.8084135477,
				"element": "C" 
			},
			{
				"x": -0.4382187621,
				"y": 2.1770407775,
				"z": 0.4007221812,
				"element": "C" 
			},
			{
				"x": 0.0710839728,
				"y": 3.4590383278,
				"z": 0.4961459366,
				"element": "C" 
			},
			{
				"x": -0.7165639772,
				"y": 4.5040546637,
				"z": 0.1384417029,
				"element": "F" 
			},
			{
				"x": -0.2841121856,
				"y": -0.2785320624,
				"z": 0.6829552339,
				"element": "C" 
			},
			{
				"x": -1.2570840126,
				"y": -0.4807794769,
				"z": -0.0347736408,
				"element": "O" 
			},
			{
				"x": 0.3103727912,
				"y": -1.2815410798,
				"z": 1.4162596396,
				"element": "N" 
			},
			{
				"x": -0.2626184324,
				"y": -2.5992542033,
				"z": 1.4471863827,
				"element": "C" 
			},
			{
				"x": 0.0693841246,
				"y": -3.5587931448,
				"z": 0.3367425362,
				"element": "C" 
			},
			{
				"x": 0.6669832989,
				"y": -3.7550393521,
				"z": 1.7092240333,
				"element": "C" 
			},
			{
				"x": 0.7266412675,
				"y": 6.3979711106,
				"z": 0.3224911045,
				"element": "H" 
			},
			{
				"x": 1.6260636918,
				"y": 5.6182418983,
				"z": -0.7970049299,
				"element": "H" 
			},
			{
				"x": 2.8788316961,
				"y": 4.9984658681,
				"z": 1.3682317579,
				"element": "H" 
			},
			{
				"x": 2.3013789111,
				"y": 0.4996913534,
				"z": 1.5634386541,
				"element": "H" 
			},
			{
				"x": -1.4398370834,
				"y": 2.0141466035,
				"z": 0.0205778867,
				"element": "H" 
			},
			{
				"x": 0.8731255529,
				"y": -1.0086621524,
				"z": 2.2096111245,
				"element": "H" 
			},
			{
				"x": -1.2700740839,
				"y": -2.6540588539,
				"z": 1.8564268505,
				"element": "H" 
			},
			{
				"x": 0.7210612166,
				"y": -3.1934691044,
				"z": -0.4495070934,
				"element": "H" 
			},
			{
				"x": -0.7129289645,
				"y": -4.2329227216,
				"z": 0.0039275808,
				"element": "H" 
			},
			{
				"x": 1.7229239222,
				"y": -3.5315720666,
				"z": 1.8322929475,
				"element": "H" 
			},
			{
				"x": 0.3046396056,
				"y": -4.5679834889,
				"z": 2.3303976155,
				"element": "H" 
			}
		],
		 "valence_orbital": [ 
			{
				"type": "occ",
				"energy": -0.27238,
				"method": "rhf"
			},
			{
				"type": "occ",
				"energy": -0.26074,
				"method": "rhf"
			},
			{
				"type": "occ",
				"energy": -0.25789,
				"method": "rhf"
			},
			{
				"type": "occ",
				"energy": -0.24667,
				"method": "rhf"
			},
			{
				"type": "occ",
				"energy": -0.21946,
				"method": "rhf"
			},
			{
				"type": "unocc",
				"energy": -0.03939,
				"method": "rhf"
			},
			{
				"type": "unocc",
				"energy": -0.00955,
				"method": "rhf"
			},
			{
				"type": "unocc",
				"energy": 0.05531,
				"method": "rhf"
			},
			{
				"type": "unocc",
				"energy": 0.06322,
				"method": "rhf"
			},
			{
				"type": "unocc",
				"energy": 0.08131,
				"method": "rhf"
			}
		],
		"cosmo_sigma_profile": { 
			"-0.025": 0.0,
			"-0.024": 0.0,
			"-0.023": 0.0,
			"-0.022": 0.0,
			"-0.021": 0.0,
			"-0.02": 0.0,
			"-0.019": 0.0,
			"-0.018": 0.0,
			"-0.017": 0.0,
			"-0.016": 0.0,
			"-0.015": 0.0171271808618,
			"-0.014": 0.727844020798,
			"-0.013": 1.09060638528,
			"-0.012": 1.69767965971,
			"-0.011": 3.39066985636,
			"-0.01": 4.52361614136,
			"-0.009": 5.63647716768,
			"-0.008": 5.34594147609,
			"-0.007": 5.97055100024,
			"-0.006": 6.95082038015,
			"-0.005": 15.6705907965,
			"-0.004": 18.020932019,
			"-0.003": 13.9816982167,
			"-0.002": 15.9274646985,
			"-0.001": 18.4580557781,
			"0.0": 25.5614704507,
			"0.001": 23.8801671695,
			"0.002": 18.4965892971,
			"0.003": 18.3288952826,
			"0.004": 16.5238792016,
			"0.005": 4.59336461786,
			"0.006": 3.58620409567,
			"0.007": 2.77709542543,
			"0.008": 2.98757223589,
			"0.009": 2.48534524867,
			"0.01": 3.38397713645,
			"0.011": 2.87409582439,
			"0.012": 3.01682964855,
			"0.013": 4.75465456477,
			"0.014": 4.43269235273,
			"0.015": 0.802102843707,
			"0.016": 0.664136715524,
			"0.017": 0.282632758425,
			"0.018": 0.0,
			"0.019": 0.0,
			"0.02": 0.0,
			"0.021": 0.0,
			"0.022": 0.0,
			"0.023": 0.0,
			"0.024": 0.0,
			"0.025": 0.0
		}
	}
}
