{
	 "smiles": "[O-][N+](=O)C1=CC=CC(NC(=O)C2=CC=CC=C2)=C1", 
	 "Tm": 428.15, 
	 "num_atms": 28, 
	 "gaussian": { 
		 "optdone": 1, 
		 "sigma_profile": "yes", 
		 "theory": "DFT", 
		 "functional": "B3LYP", 
		 "basiset": "6-31G**", 
		 "properties": { 
			 "R2extent": 7315.563, 
			 "electric_dipole_moment_norm": 4.45934491714, 
			 "electric_quadrupole_moment_norm": 23.906856126, 
			 "total_energy": -836.506398225, 
			 "HOMO_LUMO_gap": 0.15382, 
			 "cosmo_polarized_energy": -15.4, 
			 "cosmo_cavitation_energy": 33.77, 
			 "cosmo_dispersion_energy": -24.73, 
			 "cosmo_repulsion_energy": 1.87, 
			 "cosmo_total_nonelectrostatic_energy": 10.91, 
			 "SMD_solvation_energy": 8.39 
		},
		"coords": [
			{
				"x": 3.3170528716,
				"y": 4.4266895139,
				"z": -3.1944455846,
				"element": "O" 
			},
			{
				"x": 2.623480166,
				"y": 3.4121591476,
				"z": -3.1510618756,
				"element": "N" 
			},
			{
				"x": 2.5319978447,
				"y": 2.5866268307,
				"z": -4.060281685,
				"element": "O" 
			},
			{
				"x": 1.8469531778,
				"y": 3.1678882764,
				"z": -1.9235684183,
				"element": "C" 
			},
			{
				"x": 1.9261424659,
				"y": 4.083320235,
				"z": -0.8774246636,
				"element": "C" 
			},
			{
				"x": 1.1769860625,
				"y": 3.8190053827,
				"z": 0.2672178276,
				"element": "C" 
			},
			{
				"x": 0.3750938136,
				"y": 2.6817925915,
				"z": 0.3701539663,
				"element": "C" 
			},
			{
				"x": 0.3122359327,
				"y": 1.772335246,
				"z": -0.7021703539,
				"element": "C" 
			},
			{
				"x": -0.4767421046,
				"y": 0.6090339198,
				"z": -0.6892941215,
				"element": "N" 
			},
			{
				"x": -1.250825542,
				"y": 0.103065384,
				"z": 0.339581641,
				"element": "C" 
			},
			{
				"x": -1.3196878013,
				"y": 0.620841837,
				"z": 1.4482360806,
				"element": "O" 
			},
			{
				"x": -1.9990608737,
				"y": -1.1569403139,
				"z": 0.0096166791,
				"element": "C" 
			},
			{
				"x": -2.3745090012,
				"y": -1.9739373101,
				"z": 1.0853393278,
				"element": "C" 
			},
			{
				"x": -3.0715390452,
				"y": -3.1580864097,
				"z": 0.8599905548,
				"element": "C" 
			},
			{
				"x": -3.4160542897,
				"y": -3.5317000886,
				"z": -0.4417549355,
				"element": "C" 
			},
			{
				"x": -3.0665041947,
				"y": -2.7125404036,
				"z": -1.5167031331,
				"element": "C" 
			},
			{
				"x": -2.3609407112,
				"y": -1.5301129135,
				"z": -1.2935641508,
				"element": "C" 
			},
			{
				"x": 1.0595352764,
				"y": 2.0247261468,
				"z": -1.860397657,
				"element": "C" 
			},
			{
				"x": 2.5534635096,
				"y": 4.9597169596,
				"z": -0.9731107178,
				"element": "H" 
			},
			{
				"x": 1.2157079363,
				"y": 4.5109557217,
				"z": 1.1026245976,
				"element": "H" 
			},
			{
				"x": -0.1970117172,
				"y": 2.4802766368,
				"z": 1.2642060937,
				"element": "H" 
			},
			{
				"x": -0.3949881725,
				"y": 0.0290634377,
				"z": -1.5113187427,
				"element": "H" 
			},
			{
				"x": -2.1090586151,
				"y": -1.6586730217,
				"z": 2.0885667636,
				"element": "H" 
			},
			{
				"x": -3.3491519433,
				"y": -3.7894639363,
				"z": 1.6987653409,
				"element": "H" 
			},
			{
				"x": -3.9628631796,
				"y": -4.4535127473,
				"z": -0.6172718637,
				"element": "H" 
			},
			{
				"x": -3.3509238013,
				"y": -2.9877693709,
				"z": -2.5278506672,
				"element": "H" 
			},
			{
				"x": -2.1358670912,
				"y": -0.8860419317,
				"z": -2.1396279957,
				"element": "H" 
			},
			{
				"x": 1.0413790267,
				"y": 1.3530811801,
				"z": -2.7111523071,
				"element": "H" 
			}
		],
		 "valence_orbital": [ 
			{
				"type": "occ",
				"energy": -0.28062,
				"method": "rhf"
			},
			{
				"type": "occ",
				"energy": -0.27752,
				"method": "rhf"
			},
			{
				"type": "occ",
				"energy": -0.27237,
				"method": "rhf"
			},
			{
				"type": "occ",
				"energy": -0.26453,
				"method": "rhf"
			},
			{
				"type": "occ",
				"energy": -0.24264,
				"method": "rhf"
			},
			{
				"type": "unocc",
				"energy": -0.08882,
				"method": "rhf"
			},
			{
				"type": "unocc",
				"energy": -0.05762,
				"method": "rhf"
			},
			{
				"type": "unocc",
				"energy": -0.02272,
				"method": "rhf"
			},
			{
				"type": "unocc",
				"energy": -0.01728,
				"method": "rhf"
			},
			{
				"type": "unocc",
				"energy": 0.00423,
				"method": "rhf"
			}
		],
		"cosmo_sigma_profile": { 
			"-0.025": 0.0,
			"-0.024": 0.0,
			"-0.023": 0.0,
			"-0.022": 0.0,
			"-0.021": 0.0,
			"-0.02": 0.0,
			"-0.019": 0.0,
			"-0.018": 0.0,
			"-0.017": 0.00811253408772,
			"-0.016": 0.905774275485,
			"-0.015": 1.50160174782,
			"-0.014": 0.98197025002,
			"-0.013": 1.5145423605,
			"-0.012": 1.60508350749,
			"-0.011": 1.27106702401,
			"-0.01": 1.28831506108,
			"-0.009": 2.30549552706,
			"-0.008": 2.52326879279,
			"-0.007": 7.53478596703,
			"-0.006": 14.7784654434,
			"-0.005": 18.2931663524,
			"-0.004": 18.3766414263,
			"-0.003": 14.2828201467,
			"-0.002": 16.3854461151,
			"-0.001": 19.4192425995,
			"0.0": 23.7827315532,
			"0.001": 23.9924339684,
			"0.002": 21.3717464366,
			"0.003": 15.9602038092,
			"0.004": 16.6417412869,
			"0.005": 6.96361006838,
			"0.006": 5.20618951126,
			"0.007": 9.72066072323,
			"0.008": 9.40788180221,
			"0.009": 5.9533508418,
			"0.01": 4.1827343649,
			"0.011": 2.29157593057,
			"0.012": 2.49811097085,
			"0.013": 1.23156447195,
			"0.014": 0.0,
			"0.015": 0.0,
			"0.016": 0.0,
			"0.017": 0.0,
			"0.018": 0.0,
			"0.019": 0.0,
			"0.02": 0.0,
			"0.021": 0.0,
			"0.022": 0.0,
			"0.023": 0.0,
			"0.024": 0.0,
			"0.025": 0.0
		}
	}
}
