{
	 "smiles": "CCCNC(=O)NC1=CC=C(CC(O)=O)C=C1", 
	 "Tm": 448.15, 
	 "num_atms": 33, 
	 "gaussian": { 
		 "optdone": 1, 
		 "sigma_profile": "yes", 
		 "theory": "DFT", 
		 "functional": "B3LYP", 
		 "basiset": "6-31G**", 
		 "properties": { 
			 "R2extent": 7144.1432, 
			 "electric_dipole_moment_norm": 3.17127424863, 
			 "electric_quadrupole_moment_norm": 20.1005966076, 
			 "total_energy": -802.148589048, 
			 "HOMO_LUMO_gap": 0.20094, 
			 "cosmo_polarized_energy": -18.86, 
			 "cosmo_cavitation_energy": 37.41, 
			 "cosmo_dispersion_energy": -26.46, 
			 "cosmo_repulsion_energy": 2.11, 
			 "cosmo_total_nonelectrostatic_energy": 13.06, 
			 "SMD_solvation_energy": 7.58 
		},
		"coords": [
			{
				"x": 0.2009681696,
				"y": -2.7295411084,
				"z": -5.5861140854,
				"element": "C" 
			},
			{
				"x": -0.0310389992,
				"y": -2.5046610997,
				"z": -4.0890164031,
				"element": "C" 
			},
			{
				"x": 0.9646868157,
				"y": -1.5014827571,
				"z": -3.4909700108,
				"element": "C" 
			},
			{
				"x": 0.7743948698,
				"y": -1.2482929755,
				"z": -2.0660233435,
				"element": "N" 
			},
			{
				"x": 1.2708426991,
				"y": -2.1419386832,
				"z": -1.1478979199,
				"element": "C" 
			},
			{
				"x": 1.9950138102,
				"y": -3.0862166693,
				"z": -1.4442694798,
				"element": "O" 
			},
			{
				"x": 0.9175409085,
				"y": -1.931925054,
				"z": 0.1873820425,
				"element": "N" 
			},
			{
				"x": 0.1876186665,
				"y": -0.9051832327,
				"z": 0.8127895355,
				"element": "C" 
			},
			{
				"x": -0.6116225638,
				"y": -1.2257888415,
				"z": 1.9215790736,
				"element": "C" 
			},
			{
				"x": -1.3185418497,
				"y": -0.2348532231,
				"z": 2.5972613414,
				"element": "C" 
			},
			{
				"x": -1.2716109409,
				"y": 1.0991753935,
				"z": 2.1780927112,
				"element": "C" 
			},
			{
				"x": -2.067140322,
				"y": 2.1758197057,
				"z": 2.9004452084,
				"element": "C" 
			},
			{
				"x": -1.1525759037,
				"y": 3.2441480256,
				"z": 3.4727274828,
				"element": "C" 
			},
			{
				"x": -0.9117702099,
				"y": 3.05713064,
				"z": 4.7907593937,
				"element": "O" 
			},
			{
				"x": -0.660446316,
				"y": 4.1518937447,
				"z": 2.8382691996,
				"element": "O" 
			},
			{
				"x": -0.4660887771,
				"y": 1.4181663036,
				"z": 1.0778143245,
				"element": "C" 
			},
			{
				"x": 0.2665359519,
				"y": 0.439688115,
				"z": 0.4096491954,
				"element": "C" 
			},
			{
				"x": 0.0954290677,
				"y": -1.7968768131,
				"z": -6.1527431152,
				"element": "H" 
			},
			{
				"x": 1.2067974895,
				"y": -3.1204978602,
				"z": -5.7755734056,
				"element": "H" 
			},
			{
				"x": -0.5162102971,
				"y": -3.4480030155,
				"z": -5.9947618546,
				"element": "H" 
			},
			{
				"x": -1.0549549622,
				"y": -2.1442993226,
				"z": -3.919908977,
				"element": "H" 
			},
			{
				"x": 0.0690217245,
				"y": -3.4503886233,
				"z": -3.5453089201,
				"element": "H" 
			},
			{
				"x": 0.8966016691,
				"y": -0.5395023366,
				"z": -4.0130154137,
				"element": "H" 
			},
			{
				"x": 1.9840252955,
				"y": -1.8753278239,
				"z": -3.6144550306,
				"element": "H" 
			},
			{
				"x": -0.0278794113,
				"y": -0.6970156414,
				"z": -1.7950181974,
				"element": "H" 
			},
			{
				"x": 1.1821727219,
				"y": -2.7236578537,
				"z": 0.7562614514,
				"element": "H" 
			},
			{
				"x": -0.6800349142,
				"y": -2.2600050285,
				"z": 2.2483551936,
				"element": "H" 
			},
			{
				"x": -1.9271526443,
				"y": -0.5088890826,
				"z": 3.4550633852,
				"element": "H" 
			},
			{
				"x": -2.6616482004,
				"y": 1.7328872462,
				"z": 3.7022333616,
				"element": "H" 
			},
			{
				"x": -2.743623208,
				"y": 2.6806144922,
				"z": 2.2030398352,
				"element": "H" 
			},
			{
				"x": -0.2929308402,
				"y": 3.7591627106,
				"z": 5.0555882236,
				"element": "H" 
			},
			{
				"x": -0.3849397076,
				"y": 2.454073424,
				"z": 0.7617204974,
				"element": "H" 
			},
			{
				"x": 0.9245602081,
				"y": 0.7211872448,
				"z": -0.4046553001,
				"element": "H" 
			}
		],
		 "valence_orbital": [ 
			{
				"type": "occ",
				"energy": -0.27899,
				"method": "rhf"
			},
			{
				"type": "occ",
				"energy": -0.26215,
				"method": "rhf"
			},
			{
				"type": "occ",
				"energy": -0.26098,
				"method": "rhf"
			},
			{
				"type": "occ",
				"energy": -0.24594,
				"method": "rhf"
			},
			{
				"type": "occ",
				"energy": -0.21932,
				"method": "rhf"
			},
			{
				"type": "unocc",
				"energy": -0.01838,
				"method": "rhf"
			},
			{
				"type": "unocc",
				"energy": -0.01552,
				"method": "rhf"
			},
			{
				"type": "unocc",
				"energy": 0.01047,
				"method": "rhf"
			},
			{
				"type": "unocc",
				"energy": 0.06534,
				"method": "rhf"
			},
			{
				"type": "unocc",
				"energy": 0.07468,
				"method": "rhf"
			}
		],
		"cosmo_sigma_profile": { 
			"-0.025": 0.0,
			"-0.024": 0.0,
			"-0.023": 0.0,
			"-0.022": 0.0,
			"-0.021": 0.0,
			"-0.02": 0.0,
			"-0.019": 0.0271881013797,
			"-0.018": 0.715742540646,
			"-0.017": 1.20115250495,
			"-0.016": 0.726810176108,
			"-0.015": 0.777584720016,
			"-0.014": 1.08480748089,
			"-0.013": 1.96825298657,
			"-0.012": 1.96402552646,
			"-0.011": 2.65374936365,
			"-0.01": 3.27940003811,
			"-0.009": 2.57011300013,
			"-0.008": 3.18718145299,
			"-0.007": 5.96325695311,
			"-0.006": 11.5516365281,
			"-0.005": 14.6844886316,
			"-0.004": 19.5125124134,
			"-0.003": 24.3774818529,
			"-0.002": 24.4725866532,
			"-0.001": 24.400823307,
			"0.0": 26.0984013767,
			"0.001": 25.4265118946,
			"0.002": 16.8703479828,
			"0.003": 13.8065328397,
			"0.004": 14.8857667034,
			"0.005": 11.1859016284,
			"0.006": 4.89179780281,
			"0.007": 3.66443635538,
			"0.008": 4.12175869549,
			"0.009": 4.71046035371,
			"0.01": 2.97380766459,
			"0.011": 4.82203668656,
			"0.012": 6.10045931048,
			"0.013": 1.88980258914,
			"0.014": 5.56204712599,
			"0.015": 2.206832772,
			"0.016": 0.0,
			"0.017": 0.0,
			"0.018": 0.0,
			"0.019": 0.0,
			"0.02": 0.0,
			"0.021": 0.0,
			"0.022": 0.0,
			"0.023": 0.0,
			"0.024": 0.0,
			"0.025": 0.0
		}
	}
}
