{
	 "smiles": "C(COC1=CC=CC=C1)OC1=CC=CC=C1", 
	 "Tm": 369.65, 
	 "num_atms": 30, 
	 "gaussian": { 
		 "optdone": 1, 
		 "sigma_profile": "yes", 
		 "theory": "DFT", 
		 "functional": "B3LYP", 
		 "basiset": "6-31G**", 
		 "properties": { 
			 "R2extent": 5058.375, 
			 "electric_dipole_moment_norm": 1.69702708582, 
			 "electric_quadrupole_moment_norm": 6.89691144354, 
			 "total_energy": -692.353156146, 
			 "HOMO_LUMO_gap": 0.2133, 
			 "cosmo_polarized_energy": -9.11, 
			 "cosmo_cavitation_energy": 33.69, 
			 "cosmo_dispersion_energy": -24.25, 
			 "cosmo_repulsion_energy": 1.89, 
			 "cosmo_total_nonelectrostatic_energy": 11.33, 
			 "SMD_solvation_energy": 6.04 
		},
		"coords": [
			{
				"x": -1.3389260475,
				"y": -0.0509388169,
				"z": -1.5325288646,
				"element": "C" 
			},
			{
				"x": -0.7263438087,
				"y": 1.300168472,
				"z": -1.2022963099,
				"element": "C" 
			},
			{
				"x": 0.3592474142,
				"y": 1.1164424492,
				"z": -0.3051740631,
				"element": "O" 
			},
			{
				"x": 1.0136753254,
				"y": 2.220858608,
				"z": 0.1721645951,
				"element": "C" 
			},
			{
				"x": 2.0309319617,
				"y": 1.9677209548,
				"z": 1.1037534714,
				"element": "C" 
			},
			{
				"x": 2.7594323824,
				"y": 3.0235763054,
				"z": 1.6399451824,
				"element": "C" 
			},
			{
				"x": 2.4864475193,
				"y": 4.3421706107,
				"z": 1.2590689389,
				"element": "C" 
			},
			{
				"x": 1.4739982166,
				"y": 4.5868300062,
				"z": 0.334592988,
				"element": "C" 
			},
			{
				"x": 0.732108005,
				"y": 3.5358231222,
				"z": -0.2152204096,
				"element": "C" 
			},
			{
				"x": -2.1338664789,
				"y": -0.5710010786,
				"z": -0.4731957642,
				"element": "O" 
			},
			{
				"x": -1.6681337863,
				"y": -1.5924167156,
				"z": 0.3179661005,
				"element": "C" 
			},
			{
				"x": -2.6566545653,
				"y": -2.3329857203,
				"z": 0.980209073,
				"element": "C" 
			},
			{
				"x": -2.2954904374,
				"y": -3.3854528241,
				"z": 1.8163296618,
				"element": "C" 
			},
			{
				"x": -0.9495928052,
				"y": -3.7196195269,
				"z": 1.9941505691,
				"element": "C" 
			},
			{
				"x": 0.0281318536,
				"y": -2.9759631114,
				"z": 1.3349130347,
				"element": "C" 
			},
			{
				"x": -0.317292876,
				"y": -1.9084297581,
				"z": 0.5011131379,
				"element": "C" 
			},
			{
				"x": -2.0207963978,
				"y": 0.091295595,
				"z": -2.3795291714,
				"element": "H" 
			},
			{
				"x": -0.5629550213,
				"y": -0.7616374631,
				"z": -1.8370993947,
				"element": "H" 
			},
			{
				"x": -1.4931116026,
				"y": 1.9466709582,
				"z": -0.7549095964,
				"element": "H" 
			},
			{
				"x": -0.3781428618,
				"y": 1.7697868011,
				"z": -2.1349531303,
				"element": "H" 
			},
			{
				"x": 2.2260757001,
				"y": 0.9401829356,
				"z": 1.3927449517,
				"element": "H" 
			},
			{
				"x": 3.544362686,
				"y": 2.8164009313,
				"z": 2.3618468999,
				"element": "H" 
			},
			{
				"x": 3.056251854,
				"y": 5.1645786777,
				"z": 1.6801342321,
				"element": "H" 
			},
			{
				"x": 1.249702431,
				"y": 5.6051938482,
				"z": 0.0295492727,
				"element": "H" 
			},
			{
				"x": -0.0496637438,
				"y": 3.7527021606,
				"z": -0.933361395,
				"element": "H" 
			},
			{
				"x": -3.6966741712,
				"y": -2.0670403781,
				"z": 0.8210420252,
				"element": "H" 
			},
			{
				"x": -3.0703657592,
				"y": -3.952927191,
				"z": 2.3242933008,
				"element": "H" 
			},
			{
				"x": -0.6690269663,
				"y": -4.5441465433,
				"z": 2.6423146671,
				"element": "H" 
			},
			{
				"x": 1.0788716467,
				"y": -3.2153549356,
				"z": 1.4746588248,
				"element": "H" 
			},
			{
				"x": 0.4555003333,
				"y": -1.3089883733,
				"z": 0.0367771722,
				"element": "H" 
			}
		],
		 "valence_orbital": [ 
			{
				"type": "occ",
				"energy": -0.3047,
				"method": "rhf"
			},
			{
				"type": "occ",
				"energy": -0.25044,
				"method": "rhf"
			},
			{
				"type": "occ",
				"energy": -0.24328,
				"method": "rhf"
			},
			{
				"type": "occ",
				"energy": -0.22119,
				"method": "rhf"
			},
			{
				"type": "occ",
				"energy": -0.21443,
				"method": "rhf"
			},
			{
				"type": "unocc",
				"energy": -0.00113,
				"method": "rhf"
			},
			{
				"type": "unocc",
				"energy": 0.00521,
				"method": "rhf"
			},
			{
				"type": "unocc",
				"energy": 0.01269,
				"method": "rhf"
			},
			{
				"type": "unocc",
				"energy": 0.01799,
				"method": "rhf"
			},
			{
				"type": "unocc",
				"energy": 0.08973,
				"method": "rhf"
			}
		],
		"cosmo_sigma_profile": { 
			"-0.025": 0.0,
			"-0.024": 0.0,
			"-0.023": 0.0,
			"-0.022": 0.0,
			"-0.021": 0.0,
			"-0.02": 0.0,
			"-0.019": 0.0,
			"-0.018": 0.0,
			"-0.017": 0.0,
			"-0.016": 0.0,
			"-0.015": 0.0,
			"-0.014": 0.0,
			"-0.013": 0.0,
			"-0.012": 0.0,
			"-0.011": 0.0,
			"-0.01": 0.0,
			"-0.009": 0.0,
			"-0.008": 0.0,
			"-0.007": 2.03540692005,
			"-0.006": 18.7262947652,
			"-0.005": 29.2853716256,
			"-0.004": 26.0450353186,
			"-0.003": 24.8026058406,
			"-0.002": 16.9620135747,
			"-0.001": 15.1566393264,
			"0.0": 12.4530600368,
			"0.001": 15.515190173,
			"0.002": 15.0106145963,
			"0.003": 17.2887935736,
			"0.004": 22.1333974091,
			"0.005": 23.1617598123,
			"0.006": 21.4277160602,
			"0.007": 4.84356123185,
			"0.008": 1.29647905721,
			"0.009": 0.996481041316,
			"0.01": 1.32806352358,
			"0.011": 0.296233528691,
			"0.012": 0.0,
			"0.013": 0.0,
			"0.014": 0.0,
			"0.015": 0.0,
			"0.016": 0.0,
			"0.017": 0.0,
			"0.018": 0.0,
			"0.019": 0.0,
			"0.02": 0.0,
			"0.021": 0.0,
			"0.022": 0.0,
			"0.023": 0.0,
			"0.024": 0.0,
			"0.025": 0.0
		}
	}
}
