{
	 "smiles": "CC(C)N(CCCl)C(C)C", 
	 "Tm": 405.15, 
	 "num_atms": 28, 
	 "gaussian": { 
		 "optdone": 1, 
		 "sigma_profile": "yes", 
		 "theory": "DFT", 
		 "functional": "B3LYP", 
		 "basiset": "6-31G**", 
		 "properties": { 
			 "R2extent": 2557.4006, 
			 "electric_dipole_moment_norm": 1.89358613747, 
			 "electric_quadrupole_moment_norm": 6.90417260575, 
			 "total_energy": -830.641384005, 
			 "HOMO_LUMO_gap": 0.22519, 
			 "cosmo_polarized_energy": -4.83, 
			 "cosmo_cavitation_energy": 28.38, 
			 "cosmo_dispersion_energy": -20.27, 
			 "cosmo_repulsion_energy": 1.62, 
			 "cosmo_total_nonelectrostatic_energy": 9.74, 
			 "SMD_solvation_energy": 3.61 
		},
		"coords": [
			{
				"x": 2.3964059343,
				"y": 0.8399579245,
				"z": -0.6716093629,
				"element": "C" 
			},
			{
				"x": 1.1559857316,
				"y": 0.2881763455,
				"z": 0.0528384435,
				"element": "C" 
			},
			{
				"x": 1.3810342721,
				"y": 0.4815922322,
				"z": 1.5633007454,
				"element": "C" 
			},
			{
				"x": 0.8965832693,
				"y": -1.1261402135,
				"z": -0.2826049149,
				"element": "N" 
			},
			{
				"x": 1.1902278863,
				"y": -1.5489214356,
				"z": -1.6424776656,
				"element": "C" 
			},
			{
				"x": 0.4027525728,
				"y": -0.9396714206,
				"z": -2.8192223714,
				"element": "C" 
			},
			{
				"x": -1.27168617,
				"y": -1.6309108258,
				"z": -3.0447874585,
				"element": "Cl" 
			},
			{
				"x": -0.2836908469,
				"y": -1.7979257379,
				"z": 0.3279248242,
				"element": "C" 
			},
			{
				"x": -1.5301009391,
				"y": -0.9145809818,
				"z": 0.5197774082,
				"element": "C" 
			},
			{
				"x": 0.0872212746,
				"y": -2.5545958542,
				"z": 1.6179212089,
				"element": "C" 
			},
			{
				"x": 2.5891137703,
				"y": 1.8583772029,
				"z": -0.3221245621,
				"element": "H" 
			},
			{
				"x": 3.2807274957,
				"y": 0.2340946829,
				"z": -0.4449185646,
				"element": "H" 
			},
			{
				"x": 2.2840158763,
				"y": 0.8909801648,
				"z": -1.7577213845,
				"element": "H" 
			},
			{
				"x": 0.3010396314,
				"y": 0.9277512939,
				"z": -0.2365843135,
				"element": "H" 
			},
			{
				"x": 0.509627953,
				"y": 0.213345054,
				"z": 2.1612575694,
				"element": "H" 
			},
			{
				"x": 2.2263976967,
				"y": -0.1271704189,
				"z": 1.9004295258,
				"element": "H" 
			},
			{
				"x": 1.6057960634,
				"y": 1.5330676015,
				"z": 1.771039297,
				"element": "H" 
			},
			{
				"x": 1.0965071149,
				"y": -2.6386006118,
				"z": -1.6932756186,
				"element": "H" 
			},
			{
				"x": 2.2428049978,
				"y": -1.3360354623,
				"z": -1.8633276326,
				"element": "H" 
			},
			{
				"x": 0.2661083506,
				"y": 0.1368975571,
				"z": -2.7111482615,
				"element": "H" 
			},
			{
				"x": 0.922394714,
				"y": -1.1383631064,
				"z": -3.7591516146,
				"element": "H" 
			},
			{
				"x": -0.578532562,
				"y": -2.5658716362,
				"z": -0.3931998743,
				"element": "H" 
			},
			{
				"x": -2.3666389302,
				"y": -1.537165598,
				"z": 0.8540562776,
				"element": "H" 
			},
			{
				"x": -1.8283037146,
				"y": -0.4395174625,
				"z": -0.4183895249,
				"element": "H" 
			},
			{
				"x": -1.3874010129,
				"y": -0.1343621489,
				"z": 1.2731767856,
				"element": "H" 
			},
			{
				"x": -0.7459302163,
				"y": -3.1937113081,
				"z": 1.9330319447,
				"element": "H" 
			},
			{
				"x": 0.9603255333,
				"y": -3.1902935003,
				"z": 1.4437254578,
				"element": "H" 
			},
			{
				"x": 0.3221142539,
				"y": -1.8847023365,
				"z": 2.4487636364,
				"element": "H" 
			}
		],
		 "valence_orbital": [ 
			{
				"type": "occ",
				"energy": -0.3248,
				"method": "rhf"
			},
			{
				"type": "occ",
				"energy": -0.31703,
				"method": "rhf"
			},
			{
				"type": "occ",
				"energy": -0.29404,
				"method": "rhf"
			},
			{
				"type": "occ",
				"energy": -0.29042,
				"method": "rhf"
			},
			{
				"type": "occ",
				"energy": -0.19931,
				"method": "rhf"
			},
			{
				"type": "unocc",
				"energy": 0.02588,
				"method": "rhf"
			},
			{
				"type": "unocc",
				"energy": 0.07535,
				"method": "rhf"
			},
			{
				"type": "unocc",
				"energy": 0.09687,
				"method": "rhf"
			},
			{
				"type": "unocc",
				"energy": 0.10822,
				"method": "rhf"
			},
			{
				"type": "unocc",
				"energy": 0.1155,
				"method": "rhf"
			}
		],
		"cosmo_sigma_profile": { 
			"-0.025": 0.0,
			"-0.024": 0.0,
			"-0.023": 0.0,
			"-0.022": 0.0,
			"-0.021": 0.0,
			"-0.02": 0.0,
			"-0.019": 0.0,
			"-0.018": 0.0,
			"-0.017": 0.0,
			"-0.016": 0.0,
			"-0.015": 0.0,
			"-0.014": 0.0,
			"-0.013": 0.0,
			"-0.012": 0.0,
			"-0.011": 0.0,
			"-0.01": 0.0,
			"-0.009": 0.0,
			"-0.008": 0.0,
			"-0.007": 0.816754571288,
			"-0.006": 4.62949962451,
			"-0.005": 8.65165470064,
			"-0.004": 10.8994811194,
			"-0.003": 22.0259893923,
			"-0.002": 27.0579987468,
			"-0.001": 31.3142145302,
			"0.0": 29.5619364679,
			"0.001": 29.5958554082,
			"0.002": 19.0565801978,
			"0.003": 7.34246320499,
			"0.004": 6.09219596694,
			"0.005": 7.28905972456,
			"0.006": 6.15234392245,
			"0.007": 6.59487655258,
			"0.008": 1.43706323452,
			"0.009": 0.432969768292,
			"0.01": 0.86571633197,
			"0.011": 0.44046384387,
			"0.012": 0.470431290245,
			"0.013": 0.192078581623,
			"0.014": 0.0,
			"0.015": 0.0,
			"0.016": 0.0,
			"0.017": 0.0,
			"0.018": 0.0,
			"0.019": 0.0,
			"0.02": 0.0,
			"0.021": 0.0,
			"0.022": 0.0,
			"0.023": 0.0,
			"0.024": 0.0,
			"0.025": 0.0
		}
	}
}
