{
	 "smiles": "ClC1=CC=CC=C1C=O", 
	 "Tm": 283.85, 
	 "num_atms": 14, 
	 "gaussian": { 
		 "optdone": 1, 
		 "sigma_profile": "yes", 
		 "theory": "DFT", 
		 "functional": "B3LYP", 
		 "basiset": "6-31G**", 
		 "properties": { 
			 "R2extent": 1552.4916, 
			 "electric_dipole_moment_norm": 4.42643214, 
			 "electric_quadrupole_moment_norm": 6.26139664851, 
			 "total_energy": -805.158008219, 
			 "HOMO_LUMO_gap": 0.18224, 
			 "cosmo_polarized_energy": -9.18, 
			 "cosmo_cavitation_energy": 20.2, 
			 "cosmo_dispersion_energy": -15.12, 
			 "cosmo_repulsion_energy": 1.23, 
			 "cosmo_total_nonelectrostatic_energy": 6.31, 
			 "SMD_solvation_energy": 4.33 
		},
		"coords": [
			{
				"x": -0.865847483,
				"y": -1.8663529918,
				"z": -2.0308947244,
				"element": "Cl" 
			},
			{
				"x": 0.1823159408,
				"y": -0.6184482817,
				"z": -1.4002231874,
				"element": "C" 
			},
			{
				"x": 1.0770533425,
				"y": -0.0240745906,
				"z": -2.2909286713,
				"element": "C" 
			},
			{
				"x": 1.941733848,
				"y": 0.9786715082,
				"z": -1.8516883431,
				"element": "C" 
			},
			{
				"x": 1.9198035711,
				"y": 1.3957894504,
				"z": -0.5196605898,
				"element": "C" 
			},
			{
				"x": 1.02535376,
				"y": 0.7984023448,
				"z": 0.3609992707,
				"element": "C" 
			},
			{
				"x": 0.1414281708,
				"y": -0.2142289187,
				"z": -0.050334635,
				"element": "C" 
			},
			{
				"x": -0.7593734721,
				"y": -0.7625956056,
				"z": 0.9981235218,
				"element": "C" 
			},
			{
				"x": -1.5930460632,
				"y": -1.6328870042,
				"z": 0.8674344351,
				"element": "O" 
			},
			{
				"x": 1.0897656746,
				"y": -0.3519856132,
				"z": -3.3244793101,
				"element": "H" 
			},
			{
				"x": 2.6324502265,
				"y": 1.4317840467,
				"z": -2.5566540388,
				"element": "H" 
			},
			{
				"x": 2.5913000178,
				"y": 2.1755934554,
				"z": -0.1751718033,
				"element": "H" 
			},
			{
				"x": 0.9952810122,
				"y": 1.1116001975,
				"z": 1.4021590951,
				"element": "H" 
			},
			{
				"x": -0.598218546,
				"y": -0.2765679972,
				"z": 1.9877189806,
				"element": "H" 
			}
		],
		 "valence_orbital": [ 
			{
				"type": "occ",
				"energy": -0.34239,
				"method": "rhf"
			},
			{
				"type": "occ",
				"energy": -0.31739,
				"method": "rhf"
			},
			{
				"type": "occ",
				"energy": -0.2785,
				"method": "rhf"
			},
			{
				"type": "occ",
				"energy": -0.25904,
				"method": "rhf"
			},
			{
				"type": "occ",
				"energy": -0.25371,
				"method": "rhf"
			},
			{
				"type": "unocc",
				"energy": -0.07147,
				"method": "rhf"
			},
			{
				"type": "unocc",
				"energy": -0.02724,
				"method": "rhf"
			},
			{
				"type": "unocc",
				"energy": 0.02866,
				"method": "rhf"
			},
			{
				"type": "unocc",
				"energy": 0.03018,
				"method": "rhf"
			},
			{
				"type": "unocc",
				"energy": 0.09079,
				"method": "rhf"
			}
		],
		"cosmo_sigma_profile": { 
			"-0.025": 0.0,
			"-0.024": 0.0,
			"-0.023": 0.0,
			"-0.022": 0.0,
			"-0.021": 0.0,
			"-0.02": 0.0,
			"-0.019": 0.0,
			"-0.018": 0.0,
			"-0.017": 0.0,
			"-0.016": 0.0,
			"-0.015": 0.0,
			"-0.014": 0.0,
			"-0.013": 0.0,
			"-0.012": 0.0,
			"-0.011": 0.0,
			"-0.01": 0.0,
			"-0.009": 0.571075002364,
			"-0.008": 4.34609204501,
			"-0.007": 11.3283162285,
			"-0.006": 11.3375099958,
			"-0.005": 10.6481152909,
			"-0.004": 7.70258321837,
			"-0.003": 8.94126603284,
			"-0.002": 10.2348850811,
			"-0.001": 9.85032420991,
			"0.0": 12.8512624623,
			"0.001": 15.8901581804,
			"0.002": 17.8854399602,
			"0.003": 10.5102759315,
			"0.004": 8.71568356744,
			"0.005": 4.22227805507,
			"0.006": 1.38831324063,
			"0.007": 2.42087834519,
			"0.008": 2.47388564502,
			"0.009": 2.55183897669,
			"0.01": 2.60124254029,
			"0.011": 5.13134338195,
			"0.012": 2.98461726762,
			"0.013": 0.284525256941,
			"0.014": 0.0,
			"0.015": 0.0,
			"0.016": 0.0,
			"0.017": 0.0,
			"0.018": 0.0,
			"0.019": 0.0,
			"0.02": 0.0,
			"0.021": 0.0,
			"0.022": 0.0,
			"0.023": 0.0,
			"0.024": 0.0,
			"0.025": 0.0
		}
	}
}
