{
	 "smiles": "OC(=O)C1=CNN=C1C1=CC(Cl)=C(F)C=C1", 
	 "Tm": 556.15, 
	 "num_atms": 22, 
	 "gaussian": { 
		 "optdone": 1, 
		 "sigma_profile": "yes", 
		 "theory": "DFT", 
		 "functional": "B3LYP", 
		 "basiset": "6-31G**", 
		 "properties": { 
			 "R2extent": 4880.0999, 
			 "electric_dipole_moment_norm": 3.35838292337, 
			 "electric_quadrupole_moment_norm": 29.4843456302, 
			 "total_energy": -1204.64629437, 
			 "HOMO_LUMO_gap": 0.20466, 
			 "cosmo_polarized_energy": -18.19, 
			 "cosmo_cavitation_energy": 29.76, 
			 "cosmo_dispersion_energy": -21.74, 
			 "cosmo_repulsion_energy": 1.67, 
			 "cosmo_total_nonelectrostatic_energy": 9.69, 
			 "SMD_solvation_energy": 5.67 
		},
		"coords": [
			{
				"x": -0.0373612868,
				"y": -0.225451128,
				"z": 3.328323637,
				"element": "O" 
			},
			{
				"x": -1.2260100597,
				"y": -0.7726268422,
				"z": 2.9695086942,
				"element": "C" 
			},
			{
				"x": -2.0916228883,
				"y": -0.9368508602,
				"z": 3.7999864412,
				"element": "O" 
			},
			{
				"x": -1.3995962838,
				"y": -1.1756039117,
				"z": 1.5537875641,
				"element": "C" 
			},
			{
				"x": -2.4359291948,
				"y": -2.0147930803,
				"z": 1.1710355919,
				"element": "C" 
			},
			{
				"x": -2.2666801634,
				"y": -2.2567384405,
				"z": -0.1424824797,
				"element": "N" 
			},
			{
				"x": -1.1972217781,
				"y": -1.6245351447,
				"z": -0.6731819569,
				"element": "N" 
			},
			{
				"x": -0.6550085443,
				"y": -0.9557203808,
				"z": 0.3479091297,
				"element": "C" 
			},
			{
				"x": 0.5494911876,
				"y": -0.13456579,
				"z": 0.1009411726,
				"element": "C" 
			},
			{
				"x": 1.5440456969,
				"y": -0.6218519343,
				"z": -0.7635891842,
				"element": "C" 
			},
			{
				"x": 2.6719554839,
				"y": 0.1421475173,
				"z": -1.0434262899,
				"element": "C" 
			},
			{
				"x": 3.9132383785,
				"y": -0.4585409647,
				"z": -2.1107619722,
				"element": "Cl" 
			},
			{
				"x": 2.8174161656,
				"y": 1.4032196102,
				"z": -0.4562250317,
				"element": "C" 
			},
			{
				"x": 3.9061187467,
				"y": 2.1375706607,
				"z": -0.7178719581,
				"element": "F" 
			},
			{
				"x": 1.8415441598,
				"y": 1.905490317,
				"z": 0.3943688688,
				"element": "C" 
			},
			{
				"x": 0.7062182696,
				"y": 1.1425683638,
				"z": 0.6666396436,
				"element": "C" 
			},
			{
				"x": 0.5804647716,
				"y": -0.2136284883,
				"z": 2.5809769629,
				"element": "H" 
			},
			{
				"x": -3.2345441985,
				"y": -2.439890916,
				"z": 1.7598296619,
				"element": "H" 
			},
			{
				"x": -2.8435808313,
				"y": -2.8231406643,
				"z": -0.7461604469,
				"element": "H" 
			},
			{
				"x": 1.4284612601,
				"y": -1.5980488243,
				"z": -1.2191075859,
				"element": "H" 
			},
			{
				"x": 1.9760796108,
				"y": 2.8938850897,
				"z": 0.8198248174,
				"element": "H" 
			},
			{
				"x": -0.0696785023,
				"y": 1.5569058113,
				"z": 1.3015747202,
				"element": "H" 
			}
		],
		 "valence_orbital": [ 
			{
				"type": "occ",
				"energy": -0.30408,
				"method": "rhf"
			},
			{
				"type": "occ",
				"energy": -0.27745,
				"method": "rhf"
			},
			{
				"type": "occ",
				"energy": -0.27229,
				"method": "rhf"
			},
			{
				"type": "occ",
				"energy": -0.2686,
				"method": "rhf"
			},
			{
				"type": "occ",
				"energy": -0.25228,
				"method": "rhf"
			},
			{
				"type": "unocc",
				"energy": -0.04762,
				"method": "rhf"
			},
			{
				"type": "unocc",
				"energy": -0.0392,
				"method": "rhf"
			},
			{
				"type": "unocc",
				"energy": -0.02763,
				"method": "rhf"
			},
			{
				"type": "unocc",
				"energy": 0.00897,
				"method": "rhf"
			},
			{
				"type": "unocc",
				"energy": 0.01918,
				"method": "rhf"
			}
		],
		"cosmo_sigma_profile": { 
			"-0.025": 0.0,
			"-0.024": 0.0,
			"-0.023": 0.0,
			"-0.022": 0.0,
			"-0.021": 0.0,
			"-0.02": 0.0,
			"-0.019": 0.0,
			"-0.018": 0.543943214665,
			"-0.017": 2.1848093343,
			"-0.016": 1.7082214696,
			"-0.015": 1.36038435634,
			"-0.014": 1.24191181295,
			"-0.013": 1.39803320177,
			"-0.012": 2.43602252482,
			"-0.011": 2.81627357444,
			"-0.01": 3.6460230816,
			"-0.009": 3.21731087881,
			"-0.008": 7.33203718844,
			"-0.007": 7.86972038196,
			"-0.006": 8.60738598828,
			"-0.005": 6.46566028066,
			"-0.004": 8.01071589112,
			"-0.003": 10.0356272691,
			"-0.002": 14.6341788248,
			"-0.001": 19.6736899924,
			"0.0": 23.1102232628,
			"0.001": 21.7473556798,
			"0.002": 15.8890917088,
			"0.003": 21.1195381307,
			"0.004": 16.6941844968,
			"0.005": 5.042778129,
			"0.006": 3.3036882984,
			"0.007": 2.89558758762,
			"0.008": 4.82182567208,
			"0.009": 3.9218492204,
			"0.01": 4.90137070989,
			"0.011": 5.51820367699,
			"0.012": 6.624755404,
			"0.013": 2.88622743109,
			"0.014": 0.796506894475,
			"0.015": 0.00414163110932,
			"0.016": 0.0,
			"0.017": 0.0,
			"0.018": 0.0,
			"0.019": 0.0,
			"0.02": 0.0,
			"0.021": 0.0,
			"0.022": 0.0,
			"0.023": 0.0,
			"0.024": 0.0,
			"0.025": 0.0
		}
	}
}
