{
	 "smiles": "NS(=O)(=O)C1=CC2=C(NC(CSCC(F)(F)F)NS2(=O)=O)C=C1Cl", 
	 "Tm": 479.15, 
	 "num_atms": 35, 
	 "gaussian": { 
		 "optdone": 1, 
		 "sigma_profile": "yes", 
		 "theory": "DFT", 
		 "functional": "B3LYP", 
		 "basiset": "6-31G**", 
		 "properties": { 
			 "R2extent": 16169.4114, 
			 "electric_dipole_moment_norm": 4.677967129, 
			 "electric_quadrupole_moment_norm": 32.7505190049, 
			 "total_energy": -2806.97042939, 
			 "HOMO_LUMO_gap": 0.18644, 
			 "cosmo_polarized_energy": -34.63, 
			 "cosmo_cavitation_energy": 46.13, 
			 "cosmo_dispersion_energy": -33.75, 
			 "cosmo_repulsion_energy": 2.39, 
			 "cosmo_total_nonelectrostatic_energy": 14.76, 
			 "SMD_solvation_energy": 5.3 
		},
		"coords": [
			{
				"x": 2.1427525102,
				"y": 4.7242244651,
				"z": 0.2083266327,
				"element": "N" 
			},
			{
				"x": 3.4849347261,
				"y": 3.7098402189,
				"z": 0.3664181748,
				"element": "S" 
			},
			{
				"x": 4.3266593464,
				"y": 3.9139248412,
				"z": -0.8133255163,
				"element": "O" 
			},
			{
				"x": 4.0048511154,
				"y": 3.8787306004,
				"z": 1.7240197141,
				"element": "O" 
			},
			{
				"x": 2.7316524925,
				"y": 2.0782858466,
				"z": 0.2483783488,
				"element": "C" 
			},
			{
				"x": 1.356882597,
				"y": 1.9389530414,
				"z": 0.0751585964,
				"element": "C" 
			},
			{
				"x": 0.7776173241,
				"y": 0.6787551631,
				"z": -0.0173966336,
				"element": "C" 
			},
			{
				"x": 1.5450747422,
				"y": -0.5019899486,
				"z": 0.0908716941,
				"element": "C" 
			},
			{
				"x": 0.9855630637,
				"y": -1.7534653617,
				"z": 0.0808339078,
				"element": "N" 
			},
			{
				"x": -0.4221306469,
				"y": -2.0262342738,
				"z": -0.1635144886,
				"element": "C" 
			},
			{
				"x": -0.8303032339,
				"y": -3.349472061,
				"z": 0.496383672,
				"element": "C" 
			},
			{
				"x": 0.1550728118,
				"y": -4.7987306547,
				"z": -0.0478304485,
				"element": "S" 
			},
			{
				"x": -0.5282960594,
				"y": -5.1304298823,
				"z": -1.7118163559,
				"element": "C" 
			},
			{
				"x": -1.8481449485,
				"y": -5.8843059861,
				"z": -1.7146007434,
				"element": "C" 
			},
			{
				"x": -2.2329197908,
				"y": -6.1225075296,
				"z": -2.985096507,
				"element": "F" 
			},
			{
				"x": -2.8353906655,
				"y": -5.1698658045,
				"z": -1.1212843498,
				"element": "F" 
			},
			{
				"x": -1.7616021385,
				"y": -7.0634990721,
				"z": -1.0798927293,
				"element": "F" 
			},
			{
				"x": -1.1959549518,
				"y": -0.9425131569,
				"z": 0.4605295096,
				"element": "N" 
			},
			{
				"x": -0.9618687442,
				"y": 0.551618555,
				"z": -0.344952888,
				"element": "S" 
			},
			{
				"x": -1.7170285867,
				"y": 1.5672974584,
				"z": 0.3850083518,
				"element": "O" 
			},
			{
				"x": -1.1761289897,
				"y": 0.3784520155,
				"z": -1.7885571043,
				"element": "O" 
			},
			{
				"x": 2.9355249259,
				"y": -0.3500105348,
				"z": 0.2659429887,
				"element": "C" 
			},
			{
				"x": 3.5142838859,
				"y": 0.9084384896,
				"z": 0.3347035283,
				"element": "C" 
			},
			{
				"x": 5.2443438905,
				"y": 0.982305754,
				"z": 0.5452829987,
				"element": "Cl" 
			},
			{
				"x": 2.2574486623,
				"y": 5.3081328801,
				"z": -0.615448061,
				"element": "H" 
			},
			{
				"x": 2.0336525397,
				"y": 5.2755093928,
				"z": 1.0550257041,
				"element": "H" 
			},
			{
				"x": 0.7350980779,
				"y": 2.8243782722,
				"z": 0.0173898865,
				"element": "H" 
			},
			{
				"x": 1.6012221854,
				"y": -2.5488605413,
				"z": -0.0232705657,
				"element": "H" 
			},
			{
				"x": -0.6239576331,
				"y": -2.0711199337,
				"z": -1.2473117527,
				"element": "H" 
			},
			{
				"x": -0.6639809769,
				"y": -3.2764081257,
				"z": 1.5743006297,
				"element": "H" 
			},
			{
				"x": -1.8878079964,
				"y": -3.5524415827,
				"z": 0.3165532334,
				"element": "H" 
			},
			{
				"x": -0.6520415144,
				"y": -4.2093701622,
				"z": -2.2855185372,
				"element": "H" 
			},
			{
				"x": 0.2113003711,
				"y": -5.7493547691,
				"z": -2.2247928709,
				"element": "H" 
			},
			{
				"x": -2.1969748993,
				"y": -1.1371864485,
				"z": 0.4710006027,
				"element": "H" 
			},
			{
				"x": 3.5655965077,
				"y": -1.2280811653,
				"z": 0.3582813784,
				"element": "H" 
			}
		],
		 "valence_orbital": [ 
			{
				"type": "occ",
				"energy": -0.29627,
				"method": "rhf"
			},
			{
				"type": "occ",
				"energy": -0.29502,
				"method": "rhf"
			},
			{
				"type": "occ",
				"energy": -0.27836,
				"method": "rhf"
			},
			{
				"type": "occ",
				"energy": -0.27432,
				"method": "rhf"
			},
			{
				"type": "occ",
				"energy": -0.24048,
				"method": "rhf"
			},
			{
				"type": "unocc",
				"energy": -0.05404,
				"method": "rhf"
			},
			{
				"type": "unocc",
				"energy": -0.04003,
				"method": "rhf"
			},
			{
				"type": "unocc",
				"energy": -0.00809,
				"method": "rhf"
			},
			{
				"type": "unocc",
				"energy": 0.00458,
				"method": "rhf"
			},
			{
				"type": "unocc",
				"energy": 0.01739,
				"method": "rhf"
			}
		],
		"cosmo_sigma_profile": { 
			"-0.025": 0.0,
			"-0.024": 0.0,
			"-0.023": 0.0,
			"-0.022": 0.0,
			"-0.021": 0.0,
			"-0.02": 0.0,
			"-0.019": 0.0,
			"-0.018": 0.0,
			"-0.017": 0.831559548687,
			"-0.016": 1.56001431507,
			"-0.015": 3.85614619473,
			"-0.014": 5.06299594563,
			"-0.013": 4.42639055559,
			"-0.012": 4.35300848104,
			"-0.011": 4.54320065878,
			"-0.01": 8.7047204046,
			"-0.009": 10.8565735363,
			"-0.008": 10.7232642455,
			"-0.007": 12.6227841745,
			"-0.006": 11.8633110575,
			"-0.005": 13.8538821898,
			"-0.004": 14.608342005,
			"-0.003": 15.5884804052,
			"-0.002": 13.5716288376,
			"-0.001": 21.0043780519,
			"0.0": 27.5978548687,
			"0.001": 21.7773151248,
			"0.002": 30.4934423174,
			"0.003": 37.0049647118,
			"0.004": 12.5847648789,
			"0.005": 8.63720803126,
			"0.006": 8.01418684425,
			"0.007": 8.89695847867,
			"0.008": 9.44609878675,
			"0.009": 9.59703917354,
			"0.01": 21.7724841492,
			"0.011": 16.4933885466,
			"0.012": 1.3194324007,
			"0.013": 0.0,
			"0.014": 0.0,
			"0.015": 0.0,
			"0.016": 0.0,
			"0.017": 0.0,
			"0.018": 0.0,
			"0.019": 0.0,
			"0.02": 0.0,
			"0.021": 0.0,
			"0.022": 0.0,
			"0.023": 0.0,
			"0.024": 0.0,
			"0.025": 0.0
		}
	}
}
