{
	 "smiles": "CC1(C)C2CCC1(C)C(=O)C(Br)=C2O", 
	 "Tm": 461.15, 
	 "num_atms": 29, 
	 "gaussian": { 
		 "optdone": 1, 
		 "sigma_profile": "yes", 
		 "theory": "DFT", 
		 "functional": "B3LYP", 
		 "basiset": "6-31G**", 
		 "properties": { 
			 "R2extent": 3791.4787, 
			 "electric_dipole_moment_norm": 3.84291422881, 
			 "electric_quadrupole_moment_norm": 9.47110662383, 
			 "total_energy": -3150.06477324, 
			 "HOMO_LUMO_gap": 0.19539, 
			 "cosmo_polarized_energy": -11.42, 
			 "cosmo_cavitation_energy": 30.38, 
			 "cosmo_dispersion_energy": -22.21, 
			 "cosmo_repulsion_energy": 1.71, 
			 "cosmo_total_nonelectrostatic_energy": 9.88, 
			 "SMD_solvation_energy": 4.76 
		},
		"coords": [
			{
				"x": -2.5767274877,
				"y": 0.5201329234,
				"z": -1.0035726043,
				"element": "C" 
			},
			{
				"x": -1.2108961039,
				"y": 0.1654752576,
				"z": -0.377460072,
				"element": "C" 
			},
			{
				"x": -0.6505936506,
				"y": -1.0318380522,
				"z": -1.1669023005,
				"element": "C" 
			},
			{
				"x": -1.382567214,
				"y": -0.0961402678,
				"z": 1.1487303317,
				"element": "C" 
			},
			{
				"x": -1.7106178568,
				"y": 1.314880301,
				"z": 1.7228317254,
				"element": "C" 
			},
			{
				"x": -0.9166127482,
				"y": 2.2898737865,
				"z": 0.8125931295,
				"element": "C" 
			},
			{
				"x": -0.2533195928,
				"y": 1.4105436058,
				"z": -0.3069340615,
				"element": "C" 
			},
			{
				"x": -0.0546985556,
				"y": 2.1716420023,
				"z": -1.6173337431,
				"element": "C" 
			},
			{
				"x": 1.1325581846,
				"y": 0.9724470361,
				"z": 0.2401702554,
				"element": "C" 
			},
			{
				"x": 2.1757488525,
				"y": 1.4433352256,
				"z": -0.1861657862,
				"element": "O" 
			},
			{
				"x": 1.0873650951,
				"y": 0.0001931366,
				"z": 1.3381286298,
				"element": "C" 
			},
			{
				"x": 2.7299308461,
				"y": -0.5430280779,
				"z": 2.1558268142,
				"element": "Br" 
			},
			{
				"x": -0.0813302802,
				"y": -0.5472226398,
				"z": 1.7561418848,
				"element": "C" 
			},
			{
				"x": -0.1986737722,
				"y": -1.4483011386,
				"z": 2.7399335091,
				"element": "O" 
			},
			{
				"x": -2.478574269,
				"y": 0.6730911293,
				"z": -2.0820033351,
				"element": "H" 
			},
			{
				"x": -3.2803680418,
				"y": -0.3067608596,
				"z": -0.8546349928,
				"element": "H" 
			},
			{
				"x": -3.0296286401,
				"y": 1.4210322905,
				"z": -0.5834050166,
				"element": "H" 
			},
			{
				"x": -1.3563050853,
				"y": -1.8695243533,
				"z": -1.1357597444,
				"element": "H" 
			},
			{
				"x": 0.3087168188,
				"y": -1.3895424012,
				"z": -0.7893650101,
				"element": "H" 
			},
			{
				"x": -0.5145178556,
				"y": -0.761753023,
				"z": -2.2190025458,
				"element": "H" 
			},
			{
				"x": -2.1501630068,
				"y": -0.8409481683,
				"z": 1.3791619796,
				"element": "H" 
			},
			{
				"x": -1.4331194707,
				"y": 1.3936556602,
				"z": 2.7770501673,
				"element": "H" 
			},
			{
				"x": -2.7868422177,
				"y": 1.4990530263,
				"z": 1.662698787,
				"element": "H" 
			},
			{
				"x": -1.5832919432,
				"y": 3.0231171628,
				"z": 0.3485640466,
				"element": "H" 
			},
			{
				"x": -0.1640559663,
				"y": 2.8602832481,
				"z": 1.3642473947,
				"element": "H" 
			},
			{
				"x": 0.6440369239,
				"y": 2.9979597007,
				"z": -1.4705279293,
				"element": "H" 
			},
			{
				"x": -1.003322344,
				"y": 2.5759935053,
				"z": -1.9812735332,
				"element": "H" 
			},
			{
				"x": 0.3719088509,
				"y": 1.5291750013,
				"z": -2.3933361463,
				"element": "H" 
			},
			{
				"x": 0.6935605304,
				"y": -1.6309250177,
				"z": 3.0912981662,
				"element": "H" 
			}
		],
		 "valence_orbital": [ 
			{
				"type": "occ",
				"energy": -0.31583,
				"method": "rhf"
			},
			{
				"type": "occ",
				"energy": -0.30785,
				"method": "rhf"
			},
			{
				"type": "occ",
				"energy": -0.2946,
				"method": "rhf"
			},
			{
				"type": "occ",
				"energy": -0.241,
				"method": "rhf"
			},
			{
				"type": "occ",
				"energy": -0.23489,
				"method": "rhf"
			},
			{
				"type": "unocc",
				"energy": -0.0395,
				"method": "rhf"
			},
			{
				"type": "unocc",
				"energy": 0.00613,
				"method": "rhf"
			},
			{
				"type": "unocc",
				"energy": 0.05592,
				"method": "rhf"
			},
			{
				"type": "unocc",
				"energy": 0.06662,
				"method": "rhf"
			},
			{
				"type": "unocc",
				"energy": 0.07638,
				"method": "rhf"
			}
		],
		"cosmo_sigma_profile": { 
			"-0.025": 0.0,
			"-0.024": 0.0,
			"-0.023": 0.0,
			"-0.022": 0.0,
			"-0.021": 0.0,
			"-0.02": 0.0,
			"-0.019": 0.0,
			"-0.018": 0.0,
			"-0.017": 0.0,
			"-0.016": 0.0924592122799,
			"-0.015": 0.550515497678,
			"-0.014": 0.689211978684,
			"-0.013": 0.932978832492,
			"-0.012": 0.551652456557,
			"-0.011": 0.570886947054,
			"-0.01": 1.07811409115,
			"-0.009": 0.768492138731,
			"-0.008": 1.22408645429,
			"-0.007": 1.20266557777,
			"-0.006": 0.900589696022,
			"-0.005": 5.57146411758,
			"-0.004": 19.2425541273,
			"-0.003": 34.8411345824,
			"-0.002": 34.4285587871,
			"-0.001": 30.8543185472,
			"0.0": 27.4057250459,
			"0.001": 19.3677786322,
			"0.002": 9.00002534695,
			"0.003": 7.49310614907,
			"0.004": 8.12290452144,
			"0.005": 7.1226691396,
			"0.006": 3.93798483969,
			"0.007": 3.50968669844,
			"0.008": 3.23484108145,
			"0.009": 3.25399337297,
			"0.01": 2.21072432856,
			"0.011": 2.50520526461,
			"0.012": 3.84089614802,
			"0.013": 4.42635858569,
			"0.014": 0.645597087185,
			"0.015": 0.0,
			"0.016": 0.0,
			"0.017": 0.0,
			"0.018": 0.0,
			"0.019": 0.0,
			"0.02": 0.0,
			"0.021": 0.0,
			"0.022": 0.0,
			"0.023": 0.0,
			"0.024": 0.0,
			"0.025": 0.0
		}
	}
}
