{
	 "smiles": "NC(C(O)=O)C1=C(C=CC=C1)C(F)(F)F", 
	 "Tm": 556.15, 
	 "num_atms": 23, 
	 "gaussian": { 
		 "optdone": 1, 
		 "sigma_profile": "yes", 
		 "theory": "DFT", 
		 "functional": "B3LYP", 
		 "basiset": "6-31G**", 
		 "properties": { 
			 "R2extent": 3149.351, 
			 "electric_dipole_moment_norm": 2.20473486841, 
			 "electric_quadrupole_moment_norm": 11.779187171, 
			 "total_energy": -852.512970789, 
			 "HOMO_LUMO_gap": 0.21633, 
			 "cosmo_polarized_energy": -13.16, 
			 "cosmo_cavitation_energy": 28.55, 
			 "cosmo_dispersion_energy": -19.76, 
			 "cosmo_repulsion_energy": 1.51, 
			 "cosmo_total_nonelectrostatic_energy": 10.3, 
			 "SMD_solvation_energy": 5.98 
		},
		"coords": [
			{
				"x": -2.0688297661,
				"y": 1.8340180721,
				"z": -1.0754545997,
				"element": "N" 
			},
			{
				"x": -1.2098793177,
				"y": 0.6860936343,
				"z": -0.800875389,
				"element": "C" 
			},
			{
				"x": -1.9502405269,
				"y": -0.6542554874,
				"z": -0.9065125442,
				"element": "C" 
			},
			{
				"x": -1.1100475316,
				"y": -1.687269023,
				"z": -1.1240464861,
				"element": "O" 
			},
			{
				"x": -3.1515274209,
				"y": -0.7882494034,
				"z": -0.8006809876,
				"element": "O" 
			},
			{
				"x": -0.6051951383,
				"y": 0.8111568262,
				"z": 0.601808814,
				"element": "C" 
			},
			{
				"x": 0.7284413373,
				"y": 1.2006485198,
				"z": 0.8315911494,
				"element": "C" 
			},
			{
				"x": 1.2048341346,
				"y": 1.346893014,
				"z": 2.1373851942,
				"element": "C" 
			},
			{
				"x": 0.3693332678,
				"y": 1.1128558798,
				"z": 3.228248296,
				"element": "C" 
			},
			{
				"x": -0.951372137,
				"y": 0.7259856419,
				"z": 3.0122393518,
				"element": "C" 
			},
			{
				"x": -1.4274236969,
				"y": 0.5758426259,
				"z": 1.7097535081,
				"element": "C" 
			},
			{
				"x": 1.6749543794,
				"y": 1.4616379543,
				"z": -0.3156025586,
				"element": "C" 
			},
			{
				"x": 1.8534975261,
				"y": 0.3541898926,
				"z": -1.0806274045,
				"element": "F" 
			},
			{
				"x": 2.8982259847,
				"y": 1.8436977605,
				"z": 0.1084908769,
				"element": "F" 
			},
			{
				"x": 1.2210270112,
				"y": 2.4309220391,
				"z": -1.1413609193,
				"element": "F" 
			},
			{
				"x": -2.3522234368,
				"y": 1.8140900211,
				"z": -2.0528313505,
				"element": "H" 
			},
			{
				"x": -2.928030118,
				"y": 1.7360917388,
				"z": -0.5378147994,
				"element": "H" 
			},
			{
				"x": -0.4115029448,
				"y": 0.6649501166,
				"z": -1.5418405467,
				"element": "H" 
			},
			{
				"x": -1.6572944553,
				"y": -2.4909135919,
				"z": -1.1495877259,
				"element": "H" 
			},
			{
				"x": 2.2343733671,
				"y": 1.6457967804,
				"z": 2.2937870955,
				"element": "H" 
			},
			{
				"x": 0.7517146805,
				"y": 1.2306056378,
				"z": 4.2373929307,
				"element": "H" 
			},
			{
				"x": -1.6124150149,
				"y": 0.5372477005,
				"z": 3.8529628418,
				"element": "H" 
			},
			{
				"x": -2.4554201835,
				"y": 0.2642636501,
				"z": 1.5476752532,
				"element": "H" 
			}
		],
		 "valence_orbital": [ 
			{
				"type": "occ",
				"energy": -0.32875,
				"method": "rhf"
			},
			{
				"type": "occ",
				"energy": -0.29096,
				"method": "rhf"
			},
			{
				"type": "occ",
				"energy": -0.27043,
				"method": "rhf"
			},
			{
				"type": "occ",
				"energy": -0.26225,
				"method": "rhf"
			},
			{
				"type": "occ",
				"energy": -0.25088,
				"method": "rhf"
			},
			{
				"type": "unocc",
				"energy": -0.03455,
				"method": "rhf"
			},
			{
				"type": "unocc",
				"energy": -0.02026,
				"method": "rhf"
			},
			{
				"type": "unocc",
				"energy": 0.00595,
				"method": "rhf"
			},
			{
				"type": "unocc",
				"energy": 0.07136,
				"method": "rhf"
			},
			{
				"type": "unocc",
				"energy": 0.08666,
				"method": "rhf"
			}
		],
		"cosmo_sigma_profile": { 
			"-0.025": 0.0,
			"-0.024": 0.0,
			"-0.023": 0.0,
			"-0.022": 0.0,
			"-0.021": 0.0,
			"-0.02": 0.0,
			"-0.019": 0.321118159015,
			"-0.018": 0.687904019643,
			"-0.017": 1.31796983941,
			"-0.016": 0.785094665744,
			"-0.015": 0.509603804623,
			"-0.014": 0.59066995154,
			"-0.013": 0.588604873185,
			"-0.012": 0.954534069501,
			"-0.011": 2.68344556045,
			"-0.01": 2.29187680934,
			"-0.009": 3.67125209695,
			"-0.008": 3.72039430054,
			"-0.007": 7.8015587612,
			"-0.006": 11.9895396945,
			"-0.005": 11.3197788709,
			"-0.004": 10.8284283281,
			"-0.003": 10.4811142107,
			"-0.002": 12.4512274292,
			"-0.001": 12.1084238054,
			"0.0": 12.6904686098,
			"0.001": 16.2447907696,
			"0.002": 27.645714018,
			"0.003": 33.2611029229,
			"0.004": 10.150342713,
			"0.005": 3.96565425655,
			"0.006": 3.50465266999,
			"0.007": 4.54513861948,
			"0.008": 3.5535982746,
			"0.009": 2.99090540699,
			"0.01": 3.48986017331,
			"0.011": 4.70168410217,
			"0.012": 2.54483153793,
			"0.013": 0.697155093007,
			"0.014": 0.370447632759,
			"0.015": 0.902567881439,
			"0.016": 0.532568433441,
			"0.017": 0.348903837833,
			"0.018": 0.0290327152611,
			"0.019": 0.0,
			"0.02": 0.0,
			"0.021": 0.0,
			"0.022": 0.0,
			"0.023": 0.0,
			"0.024": 0.0,
			"0.025": 0.0
		}
	}
}
