{
	 "smiles": "CCOC1=C(O)C=CC(C=NO)=C1", 
	 "Tm": 378.15, 
	 "num_atms": 24, 
	 "gaussian": { 
		 "optdone": 1, 
		 "sigma_profile": "yes", 
		 "theory": "DFT", 
		 "functional": "B3LYP", 
		 "basiset": "6-31G**", 
		 "properties": { 
			 "R2extent": 3663.7587, 
			 "electric_dipole_moment_norm": 0.777511453292, 
			 "electric_quadrupole_moment_norm": 13.4955110077, 
			 "total_energy": -629.9356817, 
			 "HOMO_LUMO_gap": 0.17114, 
			 "cosmo_polarized_energy": -15.45, 
			 "cosmo_cavitation_energy": 28.25, 
			 "cosmo_dispersion_energy": -20.62, 
			 "cosmo_repulsion_energy": 1.67, 
			 "cosmo_total_nonelectrostatic_energy": 9.29, 
			 "SMD_solvation_energy": 5.72 
		},
		"coords": [
			{
				"x": -0.7318613538,
				"y": -4.896681475,
				"z": -2.0521450027,
				"element": "C" 
			},
			{
				"x": -0.3053471267,
				"y": -3.4412520277,
				"z": -1.9723118618,
				"element": "C" 
			},
			{
				"x": -1.1593006946,
				"y": -2.7973898718,
				"z": -1.0277967066,
				"element": "O" 
			},
			{
				"x": -0.9699260728,
				"y": -1.4719741726,
				"z": -0.7815456842,
				"element": "C" 
			},
			{
				"x": -1.8537326834,
				"y": -0.9010263,
				"z": 0.1660875986,
				"element": "C" 
			},
			{
				"x": -2.7849590885,
				"y": -1.7238793639,
				"z": 0.7224182065,
				"element": "O" 
			},
			{
				"x": -1.7371008526,
				"y": 0.4500789009,
				"z": 0.4839037658,
				"element": "C" 
			},
			{
				"x": -0.7616669999,
				"y": 1.2399389758,
				"z": -0.1211575773,
				"element": "C" 
			},
			{
				"x": 0.1229101275,
				"y": 0.6929699255,
				"z": -1.0622260722,
				"element": "C" 
			},
			{
				"x": 1.1129608981,
				"y": 1.6034217603,
				"z": -1.6426493398,
				"element": "C" 
			},
			{
				"x": 2.0553323319,
				"y": 1.4663785873,
				"z": -2.5076560953,
				"element": "N" 
			},
			{
				"x": 2.1737046564,
				"y": 0.1603880372,
				"z": -3.0175963745,
				"element": "O" 
			},
			{
				"x": 0.0024460128,
				"y": -0.6792290768,
				"z": -1.3831972387,
				"element": "C" 
			},
			{
				"x": -1.7733739862,
				"y": -4.9754763474,
				"z": -2.3758404889,
				"element": "H" 
			},
			{
				"x": -0.1025716748,
				"y": -5.4339036264,
				"z": -2.7684968462,
				"element": "H" 
			},
			{
				"x": -0.6381669122,
				"y": -5.3795823588,
				"z": -1.0755420046,
				"element": "H" 
			},
			{
				"x": 0.741863326,
				"y": -3.3551628843,
				"z": -1.6494714403,
				"element": "H" 
			},
			{
				"x": -0.3940164991,
				"y": -2.9508930258,
				"z": -2.9520874313,
				"element": "H" 
			},
			{
				"x": -3.3166043761,
				"y": -1.2113639003,
				"z": 1.345483302,
				"element": "H" 
			},
			{
				"x": -2.418071621,
				"y": 0.885229557,
				"z": 1.2126447802,
				"element": "H" 
			},
			{
				"x": -0.6881413027,
				"y": 2.291299791,
				"z": 0.1412574494,
				"element": "H" 
			},
			{
				"x": 1.06275056,
				"y": 2.6301402534,
				"z": -1.2790800948,
				"element": "H" 
			},
			{
				"x": 2.912154235,
				"y": 0.2554824792,
				"z": -3.6325309646,
				"element": "H" 
			},
			{
				"x": 0.6799190968,
				"y": -1.104413837,
				"z": -2.1058638788,
				"element": "H" 
			}
		],
		 "valence_orbital": [ 
			{
				"type": "occ",
				"energy": -0.31862,
				"method": "rhf"
			},
			{
				"type": "occ",
				"energy": -0.26702,
				"method": "rhf"
			},
			{
				"type": "occ",
				"energy": -0.26398,
				"method": "rhf"
			},
			{
				"type": "occ",
				"energy": -0.23363,
				"method": "rhf"
			},
			{
				"type": "occ",
				"energy": -0.20049,
				"method": "rhf"
			},
			{
				"type": "unocc",
				"energy": -0.02935,
				"method": "rhf"
			},
			{
				"type": "unocc",
				"energy": 0.00939,
				"method": "rhf"
			},
			{
				"type": "unocc",
				"energy": 0.06768,
				"method": "rhf"
			},
			{
				"type": "unocc",
				"energy": 0.07012,
				"method": "rhf"
			},
			{
				"type": "unocc",
				"energy": 0.07136,
				"method": "rhf"
			}
		],
		"cosmo_sigma_profile": { 
			"-0.025": 0.0,
			"-0.024": 0.0,
			"-0.023": 0.0,
			"-0.022": 0.0,
			"-0.021": 0.0,
			"-0.02": 0.0,
			"-0.019": 0.00512324089481,
			"-0.018": 0.896145432587,
			"-0.017": 2.11533494123,
			"-0.016": 1.97303845216,
			"-0.015": 1.94105163086,
			"-0.014": 2.18705068533,
			"-0.013": 0.73326360454,
			"-0.012": 1.89452108523,
			"-0.011": 1.68501036963,
			"-0.01": 2.00828490474,
			"-0.009": 1.6153682213,
			"-0.008": 2.06668387322,
			"-0.007": 5.80266846308,
			"-0.006": 6.34868739699,
			"-0.005": 10.1505052939,
			"-0.004": 18.6453557706,
			"-0.003": 17.6069482504,
			"-0.002": 14.5767830486,
			"-0.001": 11.7529076957,
			"0.0": 13.7235731658,
			"0.001": 11.4010725527,
			"0.002": 14.2036727303,
			"0.003": 15.1499705595,
			"0.004": 16.5695068812,
			"0.005": 12.9100837911,
			"0.006": 6.68917914638,
			"0.007": 6.08297648027,
			"0.008": 4.28607519564,
			"0.009": 4.34995365343,
			"0.01": 3.71301331469,
			"0.011": 2.41660164019,
			"0.012": 3.43843336334,
			"0.013": 2.43344773983,
			"0.014": 2.05741573532,
			"0.015": 0.112252952418,
			"0.016": 0.0,
			"0.017": 0.0,
			"0.018": 0.0,
			"0.019": 0.0,
			"0.02": 0.0,
			"0.021": 0.0,
			"0.022": 0.0,
			"0.023": 0.0,
			"0.024": 0.0,
			"0.025": 0.0
		}
	}
}
