{
	 "smiles": "CC1=C(C2=C(C=CC=N2)C=C1)S(Cl)(=O)=O", 
	 "Tm": 423.15, 
	 "num_atms": 23, 
	 "gaussian": { 
		 "optdone": 1, 
		 "sigma_profile": "yes", 
		 "theory": "DFT", 
		 "functional": "B3LYP", 
		 "basiset": "6-31G**", 
		 "properties": { 
			 "R2extent": 3819.9001, 
			 "electric_dipole_moment_norm": 7.18174559909, 
			 "electric_quadrupole_moment_norm": 11.2498513461, 
			 "total_energy": -1449.39603005, 
			 "HOMO_LUMO_gap": 0.17227, 
			 "cosmo_polarized_energy": -14.82, 
			 "cosmo_cavitation_energy": 29.72, 
			 "cosmo_dispersion_energy": -22.3, 
			 "cosmo_repulsion_energy": 1.67, 
			 "cosmo_total_nonelectrostatic_energy": 9.09, 
			 "SMD_solvation_energy": 3.28 
		},
		"coords": [
			{
				"x": 1.6731460904,
				"y": -1.8189916986,
				"z": 2.618279473,
				"element": "C" 
			},
			{
				"x": 0.6971659107,
				"y": -1.5539275007,
				"z": 1.4940931205,
				"element": "C" 
			},
			{
				"x": 0.1737680715,
				"y": -0.3157326914,
				"z": 1.1225170655,
				"element": "C" 
			},
			{
				"x": -0.7607078264,
				"y": -0.1757396639,
				"z": 0.0425361188,
				"element": "C" 
			},
			{
				"x": -1.1488086858,
				"y": -1.3433541968,
				"z": -0.683881715,
				"element": "C" 
			},
			{
				"x": -2.0698387831,
				"y": -1.182944919,
				"z": -1.7495987098,
				"element": "C" 
			},
			{
				"x": -2.55593427,
				"y": 0.0694365741,
				"z": -2.0380238914,
				"element": "C" 
			},
			{
				"x": -2.116706106,
				"y": 1.1586061464,
				"z": -1.2465046678,
				"element": "C" 
			},
			{
				"x": -1.2602124186,
				"y": 1.0514016777,
				"z": -0.2514619721,
				"element": "N" 
			},
			{
				"x": -0.6048126719,
				"y": -2.5953820284,
				"z": -0.311041095,
				"element": "C" 
			},
			{
				"x": 0.2771113908,
				"y": -2.6863401092,
				"z": 0.7352451781,
				"element": "C" 
			},
			{
				"x": 0.7029350433,
				"y": 1.2080410567,
				"z": 1.9466996781,
				"element": "S" 
			},
			{
				"x": -1.1026759275,
				"y": 1.883935955,
				"z": 2.8660698041,
				"element": "Cl" 
			},
			{
				"x": 1.5719688824,
				"y": 0.8739562164,
				"z": 3.0713320633,
				"element": "O" 
			},
			{
				"x": 1.1193141191,
				"y": 2.2058355786,
				"z": 0.9733008775,
				"element": "O" 
			},
			{
				"x": 2.6070367386,
				"y": -1.2688811404,
				"z": 2.484620702,
				"element": "H" 
			},
			{
				"x": 1.2705791186,
				"y": -1.507369927,
				"z": 3.5842330172,
				"element": "H" 
			},
			{
				"x": 1.8995692402,
				"y": -2.8867291594,
				"z": 2.6593165309,
				"element": "H" 
			},
			{
				"x": -2.3779726517,
				"y": -2.0548606346,
				"z": -2.3205576279,
				"element": "H" 
			},
			{
				"x": -3.2620825381,
				"y": 0.2337539866,
				"z": -2.8451324937,
				"element": "H" 
			},
			{
				"x": -2.4942798424,
				"y": 2.1600585826,
				"z": -1.4470724104,
				"element": "H" 
			},
			{
				"x": -0.8959146277,
				"y": -3.4858946536,
				"z": -0.8619236405,
				"element": "H" 
			},
			{
				"x": 0.6829517435,
				"y": -3.654677451,
				"z": 1.0105545947,
				"element": "H" 
			}
		],
		 "valence_orbital": [ 
			{
				"type": "occ",
				"energy": -0.31046,
				"method": "rhf"
			},
			{
				"type": "occ",
				"energy": -0.2963,
				"method": "rhf"
			},
			{
				"type": "occ",
				"energy": -0.2726,
				"method": "rhf"
			},
			{
				"type": "occ",
				"energy": -0.26635,
				"method": "rhf"
			},
			{
				"type": "occ",
				"energy": -0.26223,
				"method": "rhf"
			},
			{
				"type": "unocc",
				"energy": -0.08996,
				"method": "rhf"
			},
			{
				"type": "unocc",
				"energy": -0.06416,
				"method": "rhf"
			},
			{
				"type": "unocc",
				"energy": -0.03986,
				"method": "rhf"
			},
			{
				"type": "unocc",
				"energy": -0.01591,
				"method": "rhf"
			},
			{
				"type": "unocc",
				"energy": 0.055,
				"method": "rhf"
			}
		],
		"cosmo_sigma_profile": { 
			"-0.025": 0.0,
			"-0.024": 0.0,
			"-0.023": 0.0,
			"-0.022": 0.0,
			"-0.021": 0.0,
			"-0.02": 0.0,
			"-0.019": 0.0,
			"-0.018": 0.0,
			"-0.017": 0.0,
			"-0.016": 0.0,
			"-0.015": 0.0,
			"-0.014": 0.0,
			"-0.013": 0.0,
			"-0.012": 0.0,
			"-0.011": 0.0,
			"-0.01": 0.0,
			"-0.009": 1.08231886054,
			"-0.008": 8.03194440326,
			"-0.007": 12.7623409313,
			"-0.006": 13.7924003182,
			"-0.005": 13.8383819577,
			"-0.004": 12.6128060522,
			"-0.003": 13.205347171,
			"-0.002": 16.2129616364,
			"-0.001": 26.1513794588,
			"0.0": 24.4547278737,
			"0.001": 20.4100364324,
			"0.002": 13.0578126218,
			"0.003": 10.0985070076,
			"0.004": 12.4650972856,
			"0.005": 7.83651246587,
			"0.006": 5.51213753775,
			"0.007": 4.44828670385,
			"0.008": 8.66775963526,
			"0.009": 9.18736526661,
			"0.01": 3.15279614345,
			"0.011": 1.39395178109,
			"0.012": 1.65278692712,
			"0.013": 0.79842729194,
			"0.014": 0.508655230493,
			"0.015": 0.0195529511313,
			"0.016": 0.0,
			"0.017": 0.0,
			"0.018": 0.0,
			"0.019": 0.0,
			"0.02": 0.0,
			"0.021": 0.0,
			"0.022": 0.0,
			"0.023": 0.0,
			"0.024": 0.0,
			"0.025": 0.0
		}
	}
}
