{
	 "smiles": "[O-][N+](=O)C1=CC(NN=C(/C#N)C2=NC3=C(N2)C=CC=C3)=CC=C1", 
	 "Tm": 580.15, 
	 "num_atms": 33, 
	 "gaussian": { 
		 "optdone": 1, 
		 "sigma_profile": "yes", 
		 "theory": "DFT", 
		 "functional": "B3LYP", 
		 "basiset": "6-31G**", 
		 "properties": { 
			 "R2extent": 12003.8597, 
			 "electric_dipole_moment_norm": 3.05754275358, 
			 "electric_quadrupole_moment_norm": 22.745052389, 
			 "total_energy": -1056.4200274, 
			 "HOMO_LUMO_gap": 0.11571, 
			 "cosmo_polarized_energy": -24.62, 
			 "cosmo_cavitation_energy": 40.77, 
			 "cosmo_dispersion_energy": -28.86, 
			 "cosmo_repulsion_energy": 2.17, 
			 "cosmo_total_nonelectrostatic_energy": 14.08, 
			 "SMD_solvation_energy": 7.08 
		},
		"coords": [
			{
				"x": -4.4684877096,
				"y": -0.6411028234,
				"z": -3.9702236844,
				"element": "O" 
			},
			{
				"x": -5.029594262,
				"y": -1.1221020037,
				"z": -2.9870324454,
				"element": "N" 
			},
			{
				"x": -6.0659675193,
				"y": -1.7819687934,
				"z": -3.0193279311,
				"element": "O" 
			},
			{
				"x": -4.4139564772,
				"y": -0.8857263179,
				"z": -1.6676651151,
				"element": "C" 
			},
			{
				"x": -3.2270990904,
				"y": -0.1625958192,
				"z": -1.6117046316,
				"element": "C" 
			},
			{
				"x": -2.6453254691,
				"y": 0.0696329747,
				"z": -0.3628107834,
				"element": "C" 
			},
			{
				"x": -1.4881853231,
				"y": 0.896459623,
				"z": -0.3129192921,
				"element": "N" 
			},
			{
				"x": -0.4080951221,
				"y": 0.8538376032,
				"z": 0.4577918083,
				"element": "N" 
			},
			{
				"x": 0.0203109121,
				"y": -0.1976954629,
				"z": 1.0963268091,
				"element": "C" 
			},
			{
				"x": -0.5183572556,
				"y": -1.530404319,
				"z": 1.025299956,
				"element": "C" 
			},
			{
				"x": -0.8501054775,
				"y": -2.6469381898,
				"z": 1.0025877418,
				"element": "N" 
			},
			{
				"x": 1.232670447,
				"y": -0.0553496953,
				"z": 1.9177904908,
				"element": "C" 
			},
			{
				"x": 1.8450674837,
				"y": 1.0713853153,
				"z": 2.2065609954,
				"element": "N" 
			},
			{
				"x": 2.9201187805,
				"y": 0.6996122957,
				"z": 2.9923873317,
				"element": "C" 
			},
			{
				"x": 2.9384785854,
				"y": -0.7063627741,
				"z": 3.1826157187,
				"element": "C" 
			},
			{
				"x": 1.8394494102,
				"y": -1.1642400922,
				"z": 2.4833193458,
				"element": "N" 
			},
			{
				"x": 3.9178264487,
				"y": -1.3510413164,
				"z": 3.9418126584,
				"element": "C" 
			},
			{
				"x": 4.8941845166,
				"y": -0.5417690785,
				"z": 4.5154567089,
				"element": "C" 
			},
			{
				"x": 4.8924920241,
				"y": 0.8587112297,
				"z": 4.3388017462,
				"element": "C" 
			},
			{
				"x": 3.9147493283,
				"y": 1.4935568198,
				"z": 3.582611019,
				"element": "C" 
			},
			{
				"x": -3.261961345,
				"y": -0.416871346,
				"z": 0.8004388991,
				"element": "C" 
			},
			{
				"x": -4.4396549796,
				"y": -1.1562104868,
				"z": 0.707005867,
				"element": "C" 
			},
			{
				"x": -5.0327072127,
				"y": -1.3995433896,
				"z": -0.5311956498,
				"element": "C" 
			},
			{
				"x": -2.7739232974,
				"y": 0.1997979737,
				"z": -2.526250681,
				"element": "H" 
			},
			{
				"x": -1.5537329666,
				"y": 1.7806790038,
				"z": -0.798247635,
				"element": "H" 
			},
			{
				"x": 1.5410853816,
				"y": -2.1227781466,
				"z": 2.3769121909,
				"element": "H" 
			},
			{
				"x": 3.9226288002,
				"y": -2.427919377,
				"z": 4.0798627209,
				"element": "H" 
			},
			{
				"x": 5.6765221699,
				"y": -0.9992814729,
				"z": 5.1136353865,
				"element": "H" 
			},
			{
				"x": 5.6751799514,
				"y": 1.4487058079,
				"z": 4.8062098356,
				"element": "H" 
			},
			{
				"x": 3.9078451817,
				"y": 2.5694437533,
				"z": 3.4424705392,
				"element": "H" 
			},
			{
				"x": -2.8294853595,
				"y": -0.2049442273,
				"z": 1.7716524611,
				"element": "H" 
			},
			{
				"x": -4.9063234585,
				"y": -1.5340635169,
				"z": 1.6105369605,
				"element": "H" 
			},
			{
				"x": -5.9504470965,
				"y": -1.9646137511,
				"z": -0.6301093419,
				"element": "H" 
			}
		],
		 "valence_orbital": [ 
			{
				"type": "occ",
				"energy": -0.29602,
				"method": "rhf"
			},
			{
				"type": "occ",
				"energy": -0.27646,
				"method": "rhf"
			},
			{
				"type": "occ",
				"energy": -0.26362,
				"method": "rhf"
			},
			{
				"type": "occ",
				"energy": -0.23221,
				"method": "rhf"
			},
			{
				"type": "occ",
				"energy": -0.21726,
				"method": "rhf"
			},
			{
				"type": "unocc",
				"energy": -0.10155,
				"method": "rhf"
			},
			{
				"type": "unocc",
				"energy": -0.086,
				"method": "rhf"
			},
			{
				"type": "unocc",
				"energy": -0.04176,
				"method": "rhf"
			},
			{
				"type": "unocc",
				"energy": -0.01517,
				"method": "rhf"
			},
			{
				"type": "unocc",
				"energy": -0.00909,
				"method": "rhf"
			}
		],
		"cosmo_sigma_profile": { 
			"-0.025": 0.0,
			"-0.024": 0.0,
			"-0.023": 0.0,
			"-0.022": 0.0,
			"-0.021": 0.0,
			"-0.02": 0.0,
			"-0.019": 0.0,
			"-0.018": 0.0,
			"-0.017": 0.739229769029,
			"-0.016": 2.38591930508,
			"-0.015": 1.674609251,
			"-0.014": 2.22787052941,
			"-0.013": 2.66288536998,
			"-0.012": 2.20208242142,
			"-0.011": 1.85279588659,
			"-0.01": 2.33563199928,
			"-0.009": 5.56183930808,
			"-0.008": 9.90269769343,
			"-0.007": 12.1369348833,
			"-0.006": 14.2648066628,
			"-0.005": 18.8750903076,
			"-0.004": 20.8779839946,
			"-0.003": 20.549729266,
			"-0.002": 21.2144515653,
			"-0.001": 21.3819054521,
			"0.0": 21.4388498625,
			"0.001": 18.9332317296,
			"0.002": 15.353068036,
			"0.003": 15.1338599882,
			"0.004": 17.2372362457,
			"0.005": 16.1172176845,
			"0.006": 14.4243299279,
			"0.007": 13.565041877,
			"0.008": 9.70021692801,
			"0.009": 7.93540340306,
			"0.01": 4.69074033785,
			"0.011": 4.47774613927,
			"0.012": 2.91162951579,
			"0.013": 1.02174621991,
			"0.014": 1.21806781294,
			"0.015": 1.38969735353,
			"0.016": 1.53483171084,
			"0.017": 1.05698833373,
			"0.018": 0.65881732573,
			"0.019": 0.0,
			"0.02": 0.0,
			"0.021": 0.0,
			"0.022": 0.0,
			"0.023": 0.0,
			"0.024": 0.0,
			"0.025": 0.0
		}
	}
}
