{
	 "smiles": "FC(F)(F)OC1=CC=C(NC(=O)NC(=O)C2=CC=CC=C2Cl)C=C1", 
	 "Tm": 468.15, 
	 "num_atms": 34, 
	 "gaussian": { 
		 "optdone": 1, 
		 "sigma_profile": "yes", 
		 "theory": "DFT", 
		 "functional": "B3LYP", 
		 "basiset": "6-31G**", 
		 "properties": { 
			 "R2extent": 12506.2964, 
			 "electric_dipole_moment_norm": 4.26743691459, 
			 "electric_quadrupole_moment_norm": 28.6024574123, 
			 "total_energy": -1672.54130241, 
			 "HOMO_LUMO_gap": 0.1751, 
			 "cosmo_polarized_energy": -17.77, 
			 "cosmo_cavitation_energy": 43.63, 
			 "cosmo_dispersion_energy": -29.28, 
			 "cosmo_repulsion_energy": 2.17, 
			 "cosmo_total_nonelectrostatic_energy": 16.53, 
			 "SMD_solvation_energy": 9.74 
		},
		"coords": [
			{
				"x": -0.1445603738,
				"y": 5.1471563162,
				"z": -3.4593779894,
				"element": "F" 
			},
			{
				"x": -1.4092700307,
				"y": 4.7663792757,
				"z": -3.73521271,
				"element": "C" 
			},
			{
				"x": -2.0716832001,
				"y": 5.8166404625,
				"z": -4.2190878862,
				"element": "F" 
			},
			{
				"x": -1.336207445,
				"y": 3.8234907014,
				"z": -4.6948039805,
				"element": "F" 
			},
			{
				"x": -2.0696451,
				"y": 4.3332355165,
				"z": -2.6330866902,
				"element": "O" 
			},
			{
				"x": -1.53299352,
				"y": 3.2165645653,
				"z": -1.9685921544,
				"element": "C" 
			},
			{
				"x": -1.993641677,
				"y": 1.9443659665,
				"z": -2.287930591,
				"element": "C" 
			},
			{
				"x": -1.5242352458,
				"y": 0.8340037206,
				"z": -1.5876713112,
				"element": "C" 
			},
			{
				"x": -0.582275906,
				"y": 1.0103149701,
				"z": -0.5621364014,
				"element": "C" 
			},
			{
				"x": -0.0474257789,
				"y": -0.0481663727,
				"z": 0.2032178162,
				"element": "N" 
			},
			{
				"x": -0.3021734683,
				"y": -1.3865615652,
				"z": 0.0699247205,
				"element": "C" 
			},
			{
				"x": -1.0769087944,
				"y": -1.8853175042,
				"z": -0.7305802258,
				"element": "O" 
			},
			{
				"x": 0.3885972998,
				"y": -2.2527727494,
				"z": 0.9567219245,
				"element": "N" 
			},
			{
				"x": 1.2937103761,
				"y": -2.1253038776,
				"z": 2.0076180356,
				"element": "C" 
			},
			{
				"x": 1.4804804719,
				"y": -3.0613947489,
				"z": 2.7625839378,
				"element": "O" 
			},
			{
				"x": 2.1080221353,
				"y": -0.8615685737,
				"z": 2.1226768052,
				"element": "C" 
			},
			{
				"x": 3.0408905389,
				"y": -0.5587581471,
				"z": 1.1168218157,
				"element": "C" 
			},
			{
				"x": 3.9087132895,
				"y": 0.5233346145,
				"z": 1.2463487571,
				"element": "C" 
			},
			{
				"x": 3.8462108984,
				"y": 1.3264496917,
				"z": 2.3867377999,
				"element": "C" 
			},
			{
				"x": 2.9219324481,
				"y": 1.0485966384,
				"z": 3.3938468779,
				"element": "C" 
			},
			{
				"x": 2.0656346736,
				"y": -0.0462760817,
				"z": 3.2647928031,
				"element": "C" 
			},
			{
				"x": 0.9043278007,
				"y": -0.3539765183,
				"z": 4.5389359499,
				"element": "Cl" 
			},
			{
				"x": -0.1286561283,
				"y": 2.3033014086,
				"z": -0.2525563252,
				"element": "C" 
			},
			{
				"x": -0.6019467818,
				"y": 3.407991871,
				"z": -0.9522281274,
				"element": "C" 
			},
			{
				"x": -2.7236147666,
				"y": 1.8245020431,
				"z": -3.0807753543,
				"element": "H" 
			},
			{
				"x": -1.8766793667,
				"y": -0.1592906507,
				"z": -1.824135961,
				"element": "H" 
			},
			{
				"x": 0.6120679631,
				"y": 0.2264938463,
				"z": 0.9172014978,
				"element": "H" 
			},
			{
				"x": 0.0080780361,
				"y": -3.1913428648,
				"z": 0.8918472504,
				"element": "H" 
			},
			{
				"x": 3.0806629903,
				"y": -1.1880676969,
				"z": 0.2327575487,
				"element": "H" 
			},
			{
				"x": 4.6279355192,
				"y": 0.7372680713,
				"z": 0.4624883493,
				"element": "H" 
			},
			{
				"x": 4.5152916712,
				"y": 2.1743686759,
				"z": 2.4963821954,
				"element": "H" 
			},
			{
				"x": 2.861072221,
				"y": 1.6699611672,
				"z": 4.2803214729,
				"element": "H" 
			},
			{
				"x": 0.6000526517,
				"y": 2.4448219789,
				"z": 0.5416747188,
				"element": "H" 
			},
			{
				"x": -0.2591634017,
				"y": 4.4086558499,
				"z": -0.7152245684,
				"element": "H" 
			}
		],
		 "valence_orbital": [ 
			{
				"type": "occ",
				"energy": -0.29095,
				"method": "rhf"
			},
			{
				"type": "occ",
				"energy": -0.27662,
				"method": "rhf"
			},
			{
				"type": "occ",
				"energy": -0.271,
				"method": "rhf"
			},
			{
				"type": "occ",
				"energy": -0.26882,
				"method": "rhf"
			},
			{
				"type": "occ",
				"energy": -0.23608,
				"method": "rhf"
			},
			{
				"type": "unocc",
				"energy": -0.06098,
				"method": "rhf"
			},
			{
				"type": "unocc",
				"energy": -0.04319,
				"method": "rhf"
			},
			{
				"type": "unocc",
				"energy": -0.03035,
				"method": "rhf"
			},
			{
				"type": "unocc",
				"energy": -0.02113,
				"method": "rhf"
			},
			{
				"type": "unocc",
				"energy": -0.00459,
				"method": "rhf"
			}
		],
		"cosmo_sigma_profile": { 
			"-0.025": 0.0,
			"-0.024": 0.0,
			"-0.023": 0.0,
			"-0.022": 0.0,
			"-0.021": 0.0,
			"-0.02": 0.0,
			"-0.019": 0.0,
			"-0.018": 0.0,
			"-0.017": 0.0,
			"-0.016": 0.0016154021269,
			"-0.015": 0.500828094955,
			"-0.014": 0.990219502675,
			"-0.013": 0.121479731919,
			"-0.012": 1.15419431463,
			"-0.011": 1.67593979769,
			"-0.01": 2.84451496474,
			"-0.009": 3.4211794479,
			"-0.008": 7.05523411238,
			"-0.007": 15.9367508592,
			"-0.006": 19.2609413855,
			"-0.005": 17.4462407811,
			"-0.004": 15.3075290746,
			"-0.003": 17.7931627868,
			"-0.002": 18.1868485157,
			"-0.001": 23.2836549193,
			"0.0": 27.090043939,
			"0.001": 37.8192606135,
			"0.002": 58.8489601212,
			"0.003": 31.245394723,
			"0.004": 12.857156057,
			"0.005": 5.28699889729,
			"0.006": 5.0212135203,
			"0.007": 4.54318679291,
			"0.008": 3.76272994012,
			"0.009": 3.61522474333,
			"0.01": 4.47838304215,
			"0.011": 7.68531080908,
			"0.012": 5.79738082935,
			"0.013": 0.428981656622,
			"0.014": 0.0,
			"0.015": 0.0,
			"0.016": 0.0,
			"0.017": 0.0,
			"0.018": 0.0,
			"0.019": 0.0,
			"0.02": 0.0,
			"0.021": 0.0,
			"0.022": 0.0,
			"0.023": 0.0,
			"0.024": 0.0,
			"0.025": 0.0
		}
	}
}
