{
	 "smiles": "NC1=CC(=CC=C1)S(=O)(=O)NC1=C(C=CC=C1)C(O)=O", 
	 "Tm": 472.15, 
	 "num_atms": 32, 
	 "gaussian": { 
		 "optdone": 1, 
		 "sigma_profile": "yes", 
		 "theory": "DFT", 
		 "functional": "B3LYP", 
		 "basiset": "6-31G**", 
		 "properties": { 
			 "R2extent": 6046.435, 
			 "electric_dipole_moment_norm": 5.44866753344, 
			 "electric_quadrupole_moment_norm": 31.3534650592, 
			 "total_energy": -1311.15459034, 
			 "HOMO_LUMO_gap": 0.1645, 
			 "cosmo_polarized_energy": -22.47, 
			 "cosmo_cavitation_energy": 37.9, 
			 "cosmo_dispersion_energy": -26.66, 
			 "cosmo_repulsion_energy": 2.03, 
			 "cosmo_total_nonelectrostatic_energy": 13.27, 
			 "SMD_solvation_energy": 6.6 
		},
		"coords": [
			{
				"x": -1.2759835892,
				"y": 2.1541156767,
				"z": 3.7778081776,
				"element": "N" 
			},
			{
				"x": -0.5406025428,
				"y": 2.270745418,
				"z": 2.6045714675,
				"element": "C" 
			},
			{
				"x": -1.1680269839,
				"y": 2.1661951856,
				"z": 1.3520454681,
				"element": "C" 
			},
			{
				"x": -0.4191313821,
				"y": 2.3563042322,
				"z": 0.1919492517,
				"element": "C" 
			},
			{
				"x": 0.9443413134,
				"y": 2.652697276,
				"z": 0.2203203105,
				"element": "C" 
			},
			{
				"x": 1.5607165898,
				"y": 2.7480139963,
				"z": 1.4698824203,
				"element": "C" 
			},
			{
				"x": 0.8378738348,
				"y": 2.5576803379,
				"z": 2.6434176154,
				"element": "C" 
			},
			{
				"x": -1.2487127903,
				"y": 2.1708134416,
				"z": -1.3898156867,
				"element": "S" 
			},
			{
				"x": -0.4925821865,
				"y": 2.9309329687,
				"z": -2.3845247289,
				"element": "O" 
			},
			{
				"x": -2.6844045626,
				"y": 2.3660985001,
				"z": -1.1873439182,
				"element": "O" 
			},
			{
				"x": -1.1415895357,
				"y": 0.5189089522,
				"z": -1.7838205227,
				"element": "N" 
			},
			{
				"x": 0.0501443098,
				"y": -0.2079261945,
				"z": -1.9674870433,
				"element": "C" 
			},
			{
				"x": 0.2104924068,
				"y": -1.5263558018,
				"z": -1.4589493361,
				"element": "C" 
			},
			{
				"x": 1.4130709618,
				"y": -2.2140517951,
				"z": -1.7092047866,
				"element": "C" 
			},
			{
				"x": 2.4475496276,
				"y": -1.6357313754,
				"z": -2.42727516,
				"element": "C" 
			},
			{
				"x": 2.2804709151,
				"y": -0.3411529634,
				"z": -2.9289257887,
				"element": "C" 
			},
			{
				"x": 1.0995640268,
				"y": 0.3584488808,
				"z": -2.7144479696,
				"element": "C" 
			},
			{
				"x": -0.7850320889,
				"y": -2.2950610506,
				"z": -0.6683935475,
				"element": "C" 
			},
			{
				"x": -1.9952620913,
				"y": -1.6782179529,
				"z": -0.5041702621,
				"element": "O" 
			},
			{
				"x": -0.5934204135,
				"y": -3.3949439487,
				"z": -0.1905223653,
				"element": "O" 
			},
			{
				"x": -2.1547514768,
				"y": 1.6619378382,
				"z": 3.7068944754,
				"element": "H" 
			},
			{
				"x": -0.7550234849,
				"y": 1.9098179511,
				"z": 4.6075601585,
				"element": "H" 
			},
			{
				"x": -2.2331131287,
				"y": 1.9700838502,
				"z": 1.280150735,
				"element": "H" 
			},
			{
				"x": 1.4914967599,
				"y": 2.8216650244,
				"z": -0.6982170627,
				"element": "H" 
			},
			{
				"x": 2.6201684726,
				"y": 2.9789257842,
				"z": 1.5294394022,
				"element": "H" 
			},
			{
				"x": 1.3352736909,
				"y": 2.6444497731,
				"z": 3.606060005,
				"element": "H" 
			},
			{
				"x": -1.8917982468,
				"y": 0.0111817589,
				"z": -1.3241163726,
				"element": "H" 
			},
			{
				"x": 1.5005662919,
				"y": -3.2189616575,
				"z": -1.3116723688,
				"element": "H" 
			},
			{
				"x": 3.3659852438,
				"y": -2.1854658125,
				"z": -2.6052093959,
				"element": "H" 
			},
			{
				"x": 3.070813844,
				"y": 0.1248129461,
				"z": -3.5106574621,
				"element": "H" 
			},
			{
				"x": 0.9617115692,
				"y": 1.3467722621,
				"z": -3.1339992094,
				"element": "H" 
			},
			{
				"x": -2.5405053541,
				"y": -2.2977335022,
				"z": 0.0085535003,
				"element": "H" 
			}
		],
		 "valence_orbital": [ 
			{
				"type": "occ",
				"energy": -0.29135,
				"method": "rhf"
			},
			{
				"type": "occ",
				"energy": -0.27153,
				"method": "rhf"
			},
			{
				"type": "occ",
				"energy": -0.26698,
				"method": "rhf"
			},
			{
				"type": "occ",
				"energy": -0.23418,
				"method": "rhf"
			},
			{
				"type": "occ",
				"energy": -0.22229,
				"method": "rhf"
			},
			{
				"type": "unocc",
				"energy": -0.05779,
				"method": "rhf"
			},
			{
				"type": "unocc",
				"energy": -0.03732,
				"method": "rhf"
			},
			{
				"type": "unocc",
				"energy": -0.01202,
				"method": "rhf"
			},
			{
				"type": "unocc",
				"energy": -0.0045,
				"method": "rhf"
			},
			{
				"type": "unocc",
				"energy": 0.04679,
				"method": "rhf"
			}
		],
		"cosmo_sigma_profile": { 
			"-0.025": 0.0,
			"-0.024": 0.0,
			"-0.023": 0.0,
			"-0.022": 0.0,
			"-0.021": 0.0,
			"-0.02": 0.0,
			"-0.019": 0.458527913141,
			"-0.018": 1.12778457756,
			"-0.017": 0.454730635746,
			"-0.016": 1.32233755186,
			"-0.015": 0.555342394158,
			"-0.014": 0.295952954558,
			"-0.013": 2.47887486526,
			"-0.012": 4.78909662602,
			"-0.011": 3.4391415991,
			"-0.01": 4.46028658308,
			"-0.009": 3.5482487048,
			"-0.008": 4.50469581975,
			"-0.007": 8.06238728652,
			"-0.006": 15.3658202228,
			"-0.005": 17.5997047352,
			"-0.004": 17.7952803679,
			"-0.003": 17.6519118918,
			"-0.002": 18.9218791243,
			"-0.001": 14.7491007896,
			"0.0": 16.583135791,
			"0.001": 21.5603992978,
			"0.002": 24.499864251,
			"0.003": 26.8300571791,
			"0.004": 19.1119684828,
			"0.005": 7.58821617676,
			"0.006": 6.33004383661,
			"0.007": 5.20906808483,
			"0.008": 5.66053007431,
			"0.009": 6.88568267159,
			"0.01": 10.3646906442,
			"0.011": 12.221853169,
			"0.012": 2.62567603836,
			"0.013": 0.420639146259,
			"0.014": 0.0312926713481,
			"0.015": 0.0,
			"0.016": 0.0,
			"0.017": 0.0,
			"0.018": 0.0,
			"0.019": 0.0,
			"0.02": 0.0,
			"0.021": 0.0,
			"0.022": 0.0,
			"0.023": 0.0,
			"0.024": 0.0,
			"0.025": 0.0
		}
	}
}
