{
	 "smiles": "CC(C)CN1N=CC(C(O)=O)=C1C", 
	 "Tm": 383.15, 
	 "num_atms": 27, 
	 "gaussian": { 
		 "optdone": 1, 
		 "sigma_profile": "yes", 
		 "theory": "DFT", 
		 "functional": "B3LYP", 
		 "basiset": "6-31G**", 
		 "properties": { 
			 "R2extent": 3479.2772, 
			 "electric_dipole_moment_norm": 4.3481016191, 
			 "electric_quadrupole_moment_norm": 23.2392104967, 
			 "total_energy": -611.356565912, 
			 "HOMO_LUMO_gap": 0.23149, 
			 "cosmo_polarized_energy": -15.73, 
			 "cosmo_cavitation_energy": 29.24, 
			 "cosmo_dispersion_energy": -20.83, 
			 "cosmo_repulsion_energy": 1.64, 
			 "cosmo_total_nonelectrostatic_energy": 10.05, 
			 "SMD_solvation_energy": 5.62 
		},
		"coords": [
			{
				"x": -1.5970267897,
				"y": 1.472822181,
				"z": -0.8428356717,
				"element": "C" 
			},
			{
				"x": -1.0808671636,
				"y": 1.4293822687,
				"z": 0.6025234073,
				"element": "C" 
			},
			{
				"x": -1.9196662549,
				"y": 0.4834260659,
				"z": 1.472874929,
				"element": "C" 
			},
			{
				"x": 0.4316806547,
				"y": 1.1234223803,
				"z": 0.689033778,
				"element": "C" 
			},
			{
				"x": 0.8253069019,
				"y": -0.2193875129,
				"z": 0.2628479729,
				"element": "N" 
			},
			{
				"x": 0.8930454284,
				"y": -0.4876963233,
				"z": -1.0711507086,
				"element": "N" 
			},
			{
				"x": 1.2810809561,
				"y": -1.7510202113,
				"z": -1.1419215998,
				"element": "C" 
			},
			{
				"x": 1.4784811103,
				"y": -2.3199980829,
				"z": 0.1433403154,
				"element": "C" 
			},
			{
				"x": 1.9107726856,
				"y": -3.6790311532,
				"z": 0.5120810422,
				"element": "C" 
			},
			{
				"x": 2.2949474106,
				"y": -4.4880595593,
				"z": -0.5158897827,
				"element": "O" 
			},
			{
				"x": 1.9420721215,
				"y": -4.114304378,
				"z": 1.6441411096,
				"element": "O" 
			},
			{
				"x": 1.1693255753,
				"y": -1.2845993255,
				"z": 1.0342955302,
				"element": "C" 
			},
			{
				"x": 1.2166745467,
				"y": -1.257064083,
				"z": 2.528610527,
				"element": "C" 
			},
			{
				"x": -2.6464788237,
				"y": 1.7852870797,
				"z": -0.860317523,
				"element": "H" 
			},
			{
				"x": -1.0229021784,
				"y": 2.1798196763,
				"z": -1.4505071537,
				"element": "H" 
			},
			{
				"x": -1.5203054589,
				"y": 0.4937711288,
				"z": -1.3224600945,
				"element": "H" 
			},
			{
				"x": -1.1736437299,
				"y": 2.4422578219,
				"z": 1.0214857216,
				"element": "H" 
			},
			{
				"x": -1.8400872242,
				"y": -0.5522271838,
				"z": 1.1249043655,
				"element": "H" 
			},
			{
				"x": -2.9771856383,
				"y": 0.762700346,
				"z": 1.432849672,
				"element": "H" 
			},
			{
				"x": -1.609320016,
				"y": 0.5153060033,
				"z": 2.5231687032,
				"element": "H" 
			},
			{
				"x": 0.7754705054,
				"y": 1.2458971505,
				"z": 1.7193417172,
				"element": "H" 
			},
			{
				"x": 0.9881671747,
				"y": 1.8262761118,
				"z": 0.0625717928,
				"element": "H" 
			},
			{
				"x": 1.394685745,
				"y": -2.2050447282,
				"z": -2.1198165366,
				"element": "H" 
			},
			{
				"x": 2.2934051231,
				"y": -4.0016906587,
				"z": -1.3511773547,
				"element": "H" 
			},
			{
				"x": 1.9106023181,
				"y": -0.4903433265,
				"z": 2.8925128632,
				"element": "H" 
			},
			{
				"x": 0.2323303268,
				"y": -1.0484106801,
				"z": 2.9595805467,
				"element": "H" 
			},
			{
				"x": 1.5495346934,
				"y": -2.2324910076,
				"z": 2.8818124317,
				"element": "H" 
			}
		],
		 "valence_orbital": [ 
			{
				"type": "occ",
				"energy": -0.30887,
				"method": "rhf"
			},
			{
				"type": "occ",
				"energy": -0.30185,
				"method": "rhf"
			},
			{
				"type": "occ",
				"energy": -0.26541,
				"method": "rhf"
			},
			{
				"type": "occ",
				"energy": -0.26453,
				"method": "rhf"
			},
			{
				"type": "occ",
				"energy": -0.25195,
				"method": "rhf"
			},
			{
				"type": "unocc",
				"energy": -0.02046,
				"method": "rhf"
			},
			{
				"type": "unocc",
				"energy": 0.00634,
				"method": "rhf"
			},
			{
				"type": "unocc",
				"energy": 0.06192,
				"method": "rhf"
			},
			{
				"type": "unocc",
				"energy": 0.0698,
				"method": "rhf"
			},
			{
				"type": "unocc",
				"energy": 0.10648,
				"method": "rhf"
			}
		],
		"cosmo_sigma_profile": { 
			"-0.025": 0.0,
			"-0.024": 0.0,
			"-0.023": 0.0,
			"-0.022": 0.0,
			"-0.021": 0.0,
			"-0.02": 0.0,
			"-0.019": 0.07370157307,
			"-0.018": 1.02845876501,
			"-0.017": 1.25519043471,
			"-0.016": 0.888260249276,
			"-0.015": 0.724919195342,
			"-0.014": 1.20374987504,
			"-0.013": 1.0481212704,
			"-0.012": 0.971665942428,
			"-0.011": 1.3235115661,
			"-0.01": 1.15037864281,
			"-0.009": 1.28256605329,
			"-0.008": 1.56373572361,
			"-0.007": 3.39800405726,
			"-0.006": 7.51055353722,
			"-0.005": 11.2584440925,
			"-0.004": 13.941359964,
			"-0.003": 23.0027672414,
			"-0.002": 24.4823073146,
			"-0.001": 24.8183188159,
			"0.0": 21.1020794338,
			"0.001": 20.2365090088,
			"0.002": 12.894287175,
			"0.003": 7.75617830874,
			"0.004": 4.76907144869,
			"0.005": 4.55353189057,
			"0.006": 3.56420250071,
			"0.007": 4.50762685991,
			"0.008": 3.79304542842,
			"0.009": 4.19755716529,
			"0.01": 4.57102745488,
			"0.011": 6.18070841804,
			"0.012": 5.56153299163,
			"0.013": 3.15341631304,
			"0.014": 1.7405740052,
			"0.015": 0.117978438265,
			"0.016": 0.0,
			"0.017": 0.0,
			"0.018": 0.0,
			"0.019": 0.0,
			"0.02": 0.0,
			"0.021": 0.0,
			"0.022": 0.0,
			"0.023": 0.0,
			"0.024": 0.0,
			"0.025": 0.0
		}
	}
}
