{
	 "smiles": "CC1CCC(=O)O1", 
	 "Tm": 515.15, 
	 "num_atms": 15, 
	 "gaussian": { 
		 "optdone": 1, 
		 "sigma_profile": "yes", 
		 "theory": "DFT", 
		 "functional": "B3LYP", 
		 "basiset": "6-31G**", 
		 "properties": { 
			 "R2extent": 1955.405, 
			 "electric_dipole_moment_norm": 4.50511306961, 
			 "electric_quadrupole_moment_norm": 18.2947106501, 
			 "total_energy": -345.817039861, 
			 "HOMO_LUMO_gap": 0.27699, 
			 "cosmo_polarized_energy": -10.19, 
			 "cosmo_cavitation_energy": 17.79, 
			 "cosmo_dispersion_energy": -13.47, 
			 "cosmo_repulsion_energy": 1.16, 
			 "cosmo_total_nonelectrostatic_energy": 5.48, 
			 "SMD_solvation_energy": 4.09 
		},
		"coords": [
			{
				"x": -1.5182789258,
				"y": -0.5737076852,
				"z": -0.4399191711,
				"element": "C" 
			},
			{
				"x": -1.8906118087,
				"y": 0.4619070437,
				"z": 0.6146988686,
				"element": "C" 
			},
			{
				"x": -3.284399018,
				"y": 0.2558837516,
				"z": 1.2518040082,
				"element": "C" 
			},
			{
				"x": -2.9701533868,
				"y": -0.5757203299,
				"z": 2.4987752207,
				"element": "C" 
			},
			{
				"x": -1.5162986023,
				"y": -0.2296834152,
				"z": 2.8087174572,
				"element": "C" 
			},
			{
				"x": -0.8989421296,
				"y": -0.4380181621,
				"z": 3.8202398684,
				"element": "O" 
			},
			{
				"x": -0.9576613097,
				"y": 0.3775352604,
				"z": 1.722315576,
				"element": "O" 
			},
			{
				"x": -1.65011995,
				"y": -1.5920552684,
				"z": -0.0589604726,
				"element": "H" 
			},
			{
				"x": -2.1492842008,
				"y": -0.4543823286,
				"z": -1.3268839725,
				"element": "H" 
			},
			{
				"x": -0.4736723639,
				"y": -0.4547734796,
				"z": -0.7395117717,
				"element": "H" 
			},
			{
				"x": -1.7786926216,
				"y": 1.4691133027,
				"z": 0.2025104024,
				"element": "H" 
			},
			{
				"x": -3.9809063091,
				"y": -0.2280134121,
				"z": 0.562517858,
				"element": "H" 
			},
			{
				"x": -3.7122561401,
				"y": 1.2216507155,
				"z": 1.5376340682,
				"element": "H" 
			},
			{
				"x": -3.0282449369,
				"y": -1.6543961705,
				"z": 2.3129088588,
				"element": "H" 
			},
			{
				"x": -3.5987782967,
				"y": -0.3614398222,
				"z": 3.3648532015,
				"element": "H" 
			}
		],
		 "valence_orbital": [ 
			{
				"type": "occ",
				"energy": -0.36345,
				"method": "rhf"
			},
			{
				"type": "occ",
				"energy": -0.34642,
				"method": "rhf"
			},
			{
				"type": "occ",
				"energy": -0.34334,
				"method": "rhf"
			},
			{
				"type": "occ",
				"energy": -0.29085,
				"method": "rhf"
			},
			{
				"type": "occ",
				"energy": -0.26247,
				"method": "rhf"
			},
			{
				"type": "unocc",
				"energy": 0.01452,
				"method": "rhf"
			},
			{
				"type": "unocc",
				"energy": 0.07124,
				"method": "rhf"
			},
			{
				"type": "unocc",
				"energy": 0.10141,
				"method": "rhf"
			},
			{
				"type": "unocc",
				"energy": 0.11556,
				"method": "rhf"
			},
			{
				"type": "unocc",
				"energy": 0.12544,
				"method": "rhf"
			}
		],
		"cosmo_sigma_profile": { 
			"-0.025": 0.0,
			"-0.024": 0.0,
			"-0.023": 0.0,
			"-0.022": 0.0,
			"-0.021": 0.0,
			"-0.02": 0.0,
			"-0.019": 0.0,
			"-0.018": 0.0,
			"-0.017": 0.0,
			"-0.016": 0.0,
			"-0.015": 0.0,
			"-0.014": 0.0,
			"-0.013": 0.0,
			"-0.012": 0.0,
			"-0.011": 0.0,
			"-0.01": 0.0,
			"-0.009": 0.0,
			"-0.008": 0.0,
			"-0.007": 1.93993594814,
			"-0.006": 8.60107332586,
			"-0.005": 16.645045983,
			"-0.004": 21.8031947606,
			"-0.003": 15.8927703844,
			"-0.002": 14.2048994826,
			"-0.001": 11.5866750957,
			"0.0": 7.99286513216,
			"0.001": 3.70517899467,
			"0.002": 2.12217038234,
			"0.003": 2.17423554161,
			"0.004": 2.09896325048,
			"0.005": 2.05613842464,
			"0.006": 2.47767183964,
			"0.007": 2.00865638134,
			"0.008": 1.79972128911,
			"0.009": 3.46171018232,
			"0.01": 4.1497179382,
			"0.011": 4.92281229268,
			"0.012": 6.21723993226,
			"0.013": 3.20436061244,
			"0.014": 0.219685569776,
			"0.015": 0.0,
			"0.016": 0.0,
			"0.017": 0.0,
			"0.018": 0.0,
			"0.019": 0.0,
			"0.02": 0.0,
			"0.021": 0.0,
			"0.022": 0.0,
			"0.023": 0.0,
			"0.024": 0.0,
			"0.025": 0.0
		}
	}
}
