{
	 "smiles": "OC1=C(OCC2=CC=CC=C2)N=CC=C1", 
	 "Tm": 344.15, 
	 "num_atms": 26, 
	 "gaussian": { 
		 "optdone": 1, 
		 "sigma_profile": "yes", 
		 "theory": "DFT", 
		 "functional": "B3LYP", 
		 "basiset": "6-31G**", 
		 "properties": { 
			 "R2extent": 3792.027, 
			 "electric_dipole_moment_norm": 2.0203600298, 
			 "electric_quadrupole_moment_norm": 10.1303517353, 
			 "total_energy": -669.090065768, 
			 "HOMO_LUMO_gap": 0.1997, 
			 "cosmo_polarized_energy": -13.49, 
			 "cosmo_cavitation_energy": 30.51, 
			 "cosmo_dispersion_energy": -21.83, 
			 "cosmo_repulsion_energy": 1.73, 
			 "cosmo_total_nonelectrostatic_energy": 10.4, 
			 "SMD_solvation_energy": 5.28 
		},
		"coords": [
			{
				"x": -2.3686814239,
				"y": -0.3412489246,
				"z": -2.9353513912,
				"element": "O" 
			},
			{
				"x": -1.656748954,
				"y": 0.6333768142,
				"z": -2.303021751,
				"element": "C" 
			},
			{
				"x": -0.324036182,
				"y": 0.3328963768,
				"z": -1.9141265706,
				"element": "C" 
			},
			{
				"x": 0.1219159802,
				"y": -0.904284901,
				"z": -2.2309987371,
				"element": "O" 
			},
			{
				"x": 1.4397994799,
				"y": -1.2788317333,
				"z": -1.7760567073,
				"element": "C" 
			},
			{
				"x": 1.4406975092,
				"y": -1.7591924354,
				"z": -0.3425537621,
				"element": "C" 
			},
			{
				"x": 2.1470304664,
				"y": -1.0688681505,
				"z": 0.6478835229,
				"element": "C" 
			},
			{
				"x": 2.1600338283,
				"y": -1.5337068375,
				"z": 1.9646133533,
				"element": "C" 
			},
			{
				"x": 1.4555049856,
				"y": -2.6890905467,
				"z": 2.3052324699,
				"element": "C" 
			},
			{
				"x": 0.7382768699,
				"y": -3.3791681891,
				"z": 1.3241073734,
				"element": "C" 
			},
			{
				"x": 0.7341150956,
				"y": -2.9175787089,
				"z": 0.0086644531,
				"element": "C" 
			},
			{
				"x": 0.4557338215,
				"y": 1.2016976373,
				"z": -1.2968020997,
				"element": "N" 
			},
			{
				"x": -0.0270530251,
				"y": 2.4286463381,
				"z": -1.02181993,
				"element": "C" 
			},
			{
				"x": -1.3110111837,
				"y": 2.8237334152,
				"z": -1.3575799699,
				"element": "C" 
			},
			{
				"x": -2.1394410964,
				"y": 1.8999638244,
				"z": -2.0135007783,
				"element": "C" 
			},
			{
				"x": -3.2504349714,
				"y": -0.0006327291,
				"z": -3.1366157417,
				"element": "H" 
			},
			{
				"x": 2.1291124405,
				"y": -0.4422187445,
				"z": -1.9074153148,
				"element": "H" 
			},
			{
				"x": 1.7207304186,
				"y": -2.0888948107,
				"z": -2.4548566934,
				"element": "H" 
			},
			{
				"x": 2.6762118793,
				"y": -0.1578656122,
				"z": 0.3843852824,
				"element": "H" 
			},
			{
				"x": 2.7143947768,
				"y": -0.9897876206,
				"z": 2.7243907269,
				"element": "H" 
			},
			{
				"x": 1.4630957443,
				"y": -3.0505439786,
				"z": 3.3297758164,
				"element": "H" 
			},
			{
				"x": 0.1872382091,
				"y": -4.2787089145,
				"z": 1.584192198,
				"element": "H" 
			},
			{
				"x": 0.1754473504,
				"y": -3.4531561132,
				"z": -0.7546384835,
				"element": "H" 
			},
			{
				"x": 0.6537038047,
				"y": 3.1055492939,
				"z": -0.5112916734,
				"element": "H" 
			},
			{
				"x": -1.6688967513,
				"y": 3.8194430591,
				"z": -1.1187050261,
				"element": "H" 
			},
			{
				"x": -3.1558390722,
				"y": 2.1680721913,
				"z": -2.2952105662,
				"element": "H" 
			}
		],
		 "valence_orbital": [ 
			{
				"type": "occ",
				"energy": -0.26627,
				"method": "rhf"
			},
			{
				"type": "occ",
				"energy": -0.26363,
				"method": "rhf"
			},
			{
				"type": "occ",
				"energy": -0.24304,
				"method": "rhf"
			},
			{
				"type": "occ",
				"energy": -0.23951,
				"method": "rhf"
			},
			{
				"type": "occ",
				"energy": -0.21029,
				"method": "rhf"
			},
			{
				"type": "unocc",
				"energy": -0.01059,
				"method": "rhf"
			},
			{
				"type": "unocc",
				"energy": -0.00103,
				"method": "rhf"
			},
			{
				"type": "unocc",
				"energy": 0.0062,
				"method": "rhf"
			},
			{
				"type": "unocc",
				"energy": 0.01219,
				"method": "rhf"
			},
			{
				"type": "unocc",
				"energy": 0.06629,
				"method": "rhf"
			}
		],
		"cosmo_sigma_profile": { 
			"-0.025": 0.0,
			"-0.024": 0.0,
			"-0.023": 0.0,
			"-0.022": 0.0,
			"-0.021": 0.0,
			"-0.02": 0.0,
			"-0.019": 0.0923143793083,
			"-0.018": 0.898173960409,
			"-0.017": 1.23588232608,
			"-0.016": 0.995599389005,
			"-0.015": 1.25591300782,
			"-0.014": 1.03233050992,
			"-0.013": 0.780423972131,
			"-0.012": 0.333625760966,
			"-0.011": 1.4359221274,
			"-0.01": 1.50706412958,
			"-0.009": 1.32839824269,
			"-0.008": 1.19032502004,
			"-0.007": 2.49822711531,
			"-0.006": 10.5201674062,
			"-0.005": 20.4364329026,
			"-0.004": 21.9043497613,
			"-0.003": 18.990941331,
			"-0.002": 15.159316673,
			"-0.001": 11.7508911345,
			"0.0": 10.8964559235,
			"0.001": 17.7552887976,
			"0.002": 17.0010563857,
			"0.003": 18.4080555527,
			"0.004": 19.5550571824,
			"0.005": 13.5892940987,
			"0.006": 11.7400001609,
			"0.007": 5.33619256715,
			"0.008": 4.19295093568,
			"0.009": 2.97251773392,
			"0.01": 2.52072526662,
			"0.011": 1.94855724849,
			"0.012": 2.13715646897,
			"0.013": 1.77521883667,
			"0.014": 0.596782103797,
			"0.015": 0.0,
			"0.016": 0.0,
			"0.017": 0.0,
			"0.018": 0.0,
			"0.019": 0.0,
			"0.02": 0.0,
			"0.021": 0.0,
			"0.022": 0.0,
			"0.023": 0.0,
			"0.024": 0.0,
			"0.025": 0.0
		}
	}
}
