{
	 "smiles": "FC1=CC2=C(OCC(=O)N2)C=C1", 
	 "Tm": 478.15, 
	 "num_atms": 18, 
	 "gaussian": { 
		 "optdone": 1, 
		 "sigma_profile": "yes", 
		 "theory": "DFT", 
		 "functional": "B3LYP", 
		 "basiset": "6-31G**", 
		 "properties": { 
			 "R2extent": 2976.6742, 
			 "electric_dipole_moment_norm": 1.44404579221, 
			 "electric_quadrupole_moment_norm": 7.63299969999, 
			 "total_energy": -613.502329191, 
			 "HOMO_LUMO_gap": 0.19383, 
			 "cosmo_polarized_energy": -11.38, 
			 "cosmo_cavitation_energy": 22.83, 
			 "cosmo_dispersion_energy": -17.24, 
			 "cosmo_repulsion_energy": 1.34, 
			 "cosmo_total_nonelectrostatic_energy": 6.93, 
			 "SMD_solvation_energy": 5.27 
		},
		"coords": [
			{
				"x": 4.3650772209,
				"y": -1.7885589296,
				"z": 2.6906869621,
				"element": "F" 
			},
			{
				"x": 3.1257837646,
				"y": -1.4031057706,
				"z": 2.3198119477,
				"element": "C" 
			},
			{
				"x": 2.9393087217,
				"y": -0.9363040829,
				"z": 1.0231035602,
				"element": "C" 
			},
			{
				"x": 1.6607396943,
				"y": -0.5303138304,
				"z": 0.6365228354,
				"element": "C" 
			},
			{
				"x": 0.592007769,
				"y": -0.6151894663,
				"z": 1.5455869024,
				"element": "C" 
			},
			{
				"x": -0.6548769106,
				"y": -0.1683778686,
				"z": 1.1842678138,
				"element": "O" 
			},
			{
				"x": -0.9724606883,
				"y": -0.3212512097,
				"z": -0.199400337,
				"element": "C" 
			},
			{
				"x": 0.1297307991,
				"y": 0.1508578028,
				"z": -1.1447159832,
				"element": "C" 
			},
			{
				"x": -0.0965837,
				"y": 0.5768989663,
				"z": -2.2634961816,
				"element": "O" 
			},
			{
				"x": 1.3971933575,
				"y": -0.0045531256,
				"z": -0.6374796414,
				"element": "N" 
			},
			{
				"x": 0.8067789526,
				"y": -1.093641049,
				"z": 2.8342423714,
				"element": "C" 
			},
			{
				"x": 2.085247868,
				"y": -1.4869474181,
				"z": 3.2366102367,
				"element": "C" 
			},
			{
				"x": 3.7796384637,
				"y": -0.887279943,
				"z": 0.3386137581,
				"element": "H" 
			},
			{
				"x": -1.1956294125,
				"y": -1.3750648312,
				"z": -0.4294600864,
				"element": "H" 
			},
			{
				"x": -1.8659184334,
				"y": 0.2732822885,
				"z": -0.3892791231,
				"element": "H" 
			},
			{
				"x": 2.1609618045,
				"y": 0.2312170178,
				"z": -1.2581224438,
				"element": "H" 
			},
			{
				"x": -0.0348654415,
				"y": -1.1412143486,
				"z": 3.5166991099,
				"element": "H" 
			},
			{
				"x": 2.2758661705,
				"y": -1.8591542019,
				"z": 4.2364082989,
				"element": "H" 
			}
		],
		 "valence_orbital": [ 
			{
				"type": "occ",
				"energy": -0.33061,
				"method": "rhf"
			},
			{
				"type": "occ",
				"energy": -0.31709,
				"method": "rhf"
			},
			{
				"type": "occ",
				"energy": -0.26855,
				"method": "rhf"
			},
			{
				"type": "occ",
				"energy": -0.25145,
				"method": "rhf"
			},
			{
				"type": "occ",
				"energy": -0.22126,
				"method": "rhf"
			},
			{
				"type": "unocc",
				"energy": -0.02743,
				"method": "rhf"
			},
			{
				"type": "unocc",
				"energy": -0.0078,
				"method": "rhf"
			},
			{
				"type": "unocc",
				"energy": 0.02547,
				"method": "rhf"
			},
			{
				"type": "unocc",
				"energy": 0.07194,
				"method": "rhf"
			},
			{
				"type": "unocc",
				"energy": 0.08035,
				"method": "rhf"
			}
		],
		"cosmo_sigma_profile": { 
			"-0.025": 0.0,
			"-0.024": 0.0,
			"-0.023": 0.0,
			"-0.022": 0.0,
			"-0.021": 0.0,
			"-0.02": 0.0,
			"-0.019": 0.0,
			"-0.018": 0.0,
			"-0.017": 0.0,
			"-0.016": 0.460045026069,
			"-0.015": 1.50996775065,
			"-0.014": 1.29900474767,
			"-0.013": 1.38513185839,
			"-0.012": 1.11042027698,
			"-0.011": 1.41252948868,
			"-0.01": 0.838889518702,
			"-0.009": 1.46607654187,
			"-0.008": 6.06610436616,
			"-0.007": 10.6001959244,
			"-0.006": 8.84468947654,
			"-0.005": 9.84090600003,
			"-0.004": 9.31520227176,
			"-0.003": 8.6928041155,
			"-0.002": 7.71190094246,
			"-0.001": 8.78882364929,
			"0.0": 10.512728258,
			"0.001": 16.445044643,
			"0.002": 16.8149654263,
			"0.003": 14.8419989901,
			"0.004": 15.280474172,
			"0.005": 5.93807901728,
			"0.006": 2.87628228766,
			"0.007": 1.92465607015,
			"0.008": 2.02920465695,
			"0.009": 3.03124687647,
			"0.01": 2.55604773497,
			"0.011": 2.13739375656,
			"0.012": 5.05104596091,
			"0.013": 4.03534397905,
			"0.014": 0.308650445426,
			"0.015": 0.0,
			"0.016": 0.0,
			"0.017": 0.0,
			"0.018": 0.0,
			"0.019": 0.0,
			"0.02": 0.0,
			"0.021": 0.0,
			"0.022": 0.0,
			"0.023": 0.0,
			"0.024": 0.0,
			"0.025": 0.0
		}
	}
}
