{
	 "smiles": "OC(=O)C1=CC(CN2C=NC=N2)=CC=C1", 
	 "Tm": 483.15, 
	 "num_atms": 24, 
	 "gaussian": { 
		 "optdone": 1, 
		 "sigma_profile": "yes", 
		 "theory": "DFT", 
		 "functional": "B3LYP", 
		 "basiset": "6-31G**", 
		 "properties": { 
			 "R2extent": 4142.8156, 
			 "electric_dipole_moment_norm": 2.9823511698, 
			 "electric_quadrupole_moment_norm": 18.3915479971, 
			 "total_energy": -701.191235041, 
			 "HOMO_LUMO_gap": 0.20686, 
			 "cosmo_polarized_energy": -17.41, 
			 "cosmo_cavitation_energy": 29.53, 
			 "cosmo_dispersion_energy": -20.93, 
			 "cosmo_repulsion_energy": 1.63, 
			 "cosmo_total_nonelectrostatic_energy": 10.23, 
			 "SMD_solvation_energy": 4.37 
		},
		"coords": [
			{
				"x": -1.5403187145,
				"y": 0.2581088683,
				"z": -4.0576656966,
				"element": "O" 
			},
			{
				"x": -2.4084931106,
				"y": -0.4474427347,
				"z": -3.2937398827,
				"element": "C" 
			},
			{
				"x": -3.3925933669,
				"y": -0.9865655164,
				"z": -3.7603859971,
				"element": "O" 
			},
			{
				"x": -2.0258407701,
				"y": -0.4823355606,
				"z": -1.8550134026,
				"element": "C" 
			},
			{
				"x": -0.8766293687,
				"y": 0.1568962031,
				"z": -1.3775234193,
				"element": "C" 
			},
			{
				"x": -0.5546523171,
				"y": 0.0961553971,
				"z": -0.016912688,
				"element": "C" 
			},
			{
				"x": 0.6769529748,
				"y": 0.8073496238,
				"z": 0.5168474556,
				"element": "C" 
			},
			{
				"x": 1.9101366995,
				"y": 0.4531648299,
				"z": -0.1782938859,
				"element": "N" 
			},
			{
				"x": 2.7885566226,
				"y": -0.5447300565,
				"z": 0.0727856577,
				"element": "C" 
			},
			{
				"x": 3.7451640839,
				"y": -0.5622022985,
				"z": -0.8402070815,
				"element": "N" 
			},
			{
				"x": 3.3892710924,
				"y": 0.4683749895,
				"z": -1.6564142944,
				"element": "C" 
			},
			{
				"x": 2.2872656556,
				"y": 1.1167429842,
				"z": -1.3034885362,
				"element": "N" 
			},
			{
				"x": -1.3940766049,
				"y": -0.6071125613,
				"z": 0.8532820155,
				"element": "C" 
			},
			{
				"x": -2.5454679241,
				"y": -1.2418429542,
				"z": 0.3785619806,
				"element": "C" 
			},
			{
				"x": -2.8626474803,
				"y": -1.1823084659,
				"z": -0.9739267235,
				"element": "C" 
			},
			{
				"x": -1.8848136785,
				"y": 0.2109529894,
				"z": -4.9645159549,
				"element": "H" 
			},
			{
				"x": -0.228942118,
				"y": 0.6930889611,
				"z": -2.0625007683,
				"element": "H" 
			},
			{
				"x": 0.8149383175,
				"y": 0.5804783221,
				"z": 1.5776440783,
				"element": "H" 
			},
			{
				"x": 0.5748243782,
				"y": 1.8917120195,
				"z": 0.4186418558,
				"element": "H" 
			},
			{
				"x": 2.6953716991,
				"y": -1.2127869324,
				"z": 0.9182064942,
				"element": "H" 
			},
			{
				"x": 3.959040776,
				"y": 0.755895916,
				"z": -2.5293185466,
				"element": "H" 
			},
			{
				"x": -1.1486381831,
				"y": -0.6599345232,
				"z": 1.911460972,
				"element": "H" 
			},
			{
				"x": -3.1871968364,
				"y": -1.7845407981,
				"z": 1.065917794,
				"element": "H" 
			},
			{
				"x": -3.7472118264,
				"y": -1.6677187022,
				"z": -1.3716414262,
				"element": "H" 
			}
		],
		 "valence_orbital": [ 
			{
				"type": "occ",
				"energy": -0.28028,
				"method": "rhf"
			},
			{
				"type": "occ",
				"energy": -0.27824,
				"method": "rhf"
			},
			{
				"type": "occ",
				"energy": -0.27118,
				"method": "rhf"
			},
			{
				"type": "occ",
				"energy": -0.26967,
				"method": "rhf"
			},
			{
				"type": "occ",
				"energy": -0.26184,
				"method": "rhf"
			},
			{
				"type": "unocc",
				"energy": -0.05498,
				"method": "rhf"
			},
			{
				"type": "unocc",
				"energy": -0.02486,
				"method": "rhf"
			},
			{
				"type": "unocc",
				"energy": 0.00313,
				"method": "rhf"
			},
			{
				"type": "unocc",
				"energy": 0.04788,
				"method": "rhf"
			},
			{
				"type": "unocc",
				"energy": 0.05185,
				"method": "rhf"
			}
		],
		"cosmo_sigma_profile": { 
			"-0.025": 0.0,
			"-0.024": 0.0,
			"-0.023": 0.0,
			"-0.022": 0.0,
			"-0.021": 0.0,
			"-0.02": 0.0,
			"-0.019": 0.144361363016,
			"-0.018": 0.848696736126,
			"-0.017": 1.05905074198,
			"-0.016": 0.942211097878,
			"-0.015": 0.277147581432,
			"-0.014": 0.260288834706,
			"-0.013": 0.69474373894,
			"-0.012": 1.02507120853,
			"-0.011": 1.59435156742,
			"-0.01": 4.15949548586,
			"-0.009": 4.66059703787,
			"-0.008": 8.40949378573,
			"-0.007": 9.95669719559,
			"-0.006": 13.7597808313,
			"-0.005": 12.5242142383,
			"-0.004": 10.3881948101,
			"-0.003": 11.2831310622,
			"-0.002": 12.5813090765,
			"-0.001": 13.8435924194,
			"0.0": 17.1861028031,
			"0.001": 20.0425520781,
			"0.002": 17.8078909155,
			"0.003": 18.0084935475,
			"0.004": 9.40001038253,
			"0.005": 5.40126433265,
			"0.006": 5.11052729377,
			"0.007": 6.56187302434,
			"0.008": 3.77631926627,
			"0.009": 3.35848807621,
			"0.01": 4.37024829911,
			"0.011": 6.17267507787,
			"0.012": 5.35351591459,
			"0.013": 1.93975746926,
			"0.014": 1.83803735843,
			"0.015": 0.936732307313,
			"0.016": 1.09230290288,
			"0.017": 0.301179193744,
			"0.018": 0.0,
			"0.019": 0.0,
			"0.02": 0.0,
			"0.021": 0.0,
			"0.022": 0.0,
			"0.023": 0.0,
			"0.024": 0.0,
			"0.025": 0.0
		}
	}
}
