{
	 "smiles": "SC1=NC=CN1C1=CC(Cl)=CC=C1Cl", 
	 "Tm": 546.15, 
	 "num_atms": 20, 
	 "gaussian": { 
		 "optdone": 1, 
		 "sigma_profile": "yes", 
		 "theory": "DFT", 
		 "functional": "B3LYP", 
		 "basiset": "6-31G**", 
		 "properties": { 
			 "R2extent": 4224.9798, 
			 "electric_dipole_moment_norm": 2.72182723184, 
			 "electric_quadrupole_moment_norm": 8.41864813613, 
			 "total_energy": -1774.6269136, 
			 "HOMO_LUMO_gap": 0.16646, 
			 "cosmo_polarized_energy": -10.06, 
			 "cosmo_cavitation_energy": 30.17, 
			 "cosmo_dispersion_energy": -21.86, 
			 "cosmo_repulsion_energy": 1.69, 
			 "cosmo_total_nonelectrostatic_energy": 10.0, 
			 "SMD_solvation_energy": 3.22 
		},
		"coords": [
			{
				"x": 0.8383152214,
				"y": 0.7549713639,
				"z": 1.6011028049,
				"element": "S" 
			},
			{
				"x": 1.5555286409,
				"y": 0.7364166395,
				"z": -0.0214851146,
				"element": "C" 
			},
			{
				"x": 2.7080046746,
				"y": 1.2612034653,
				"z": -0.3590361076,
				"element": "N" 
			},
			{
				"x": 2.8517299292,
				"y": 0.9872201129,
				"z": -1.7061330202,
				"element": "C" 
			},
			{
				"x": 1.7789817709,
				"y": 0.2888399753,
				"z": -2.1804580072,
				"element": "C" 
			},
			{
				"x": 0.928009606,
				"y": 0.1218009248,
				"z": -1.0866348231,
				"element": "N" 
			},
			{
				"x": -0.3411726495,
				"y": -0.5178593036,
				"z": -1.0888114369,
				"element": "C" 
			},
			{
				"x": -1.4904362042,
				"y": 0.259086774,
				"z": -0.9012944317,
				"element": "C" 
			},
			{
				"x": -2.7440644398,
				"y": -0.3461238859,
				"z": -0.8908518244,
				"element": "C" 
			},
			{
				"x": -4.1724268351,
				"y": 0.6391451662,
				"z": -0.652159573,
				"element": "Cl" 
			},
			{
				"x": -2.8767501368,
				"y": -1.7211675202,
				"z": -1.0814131428,
				"element": "C" 
			},
			{
				"x": -1.7351163617,
				"y": -2.4953186246,
				"z": -1.2752622024,
				"element": "C" 
			},
			{
				"x": -0.4709541584,
				"y": -1.9046436191,
				"z": -1.2733285671,
				"element": "C" 
			},
			{
				"x": 0.9360526203,
				"y": -2.9165874673,
				"z": -1.4878131812,
				"element": "Cl" 
			},
			{
				"x": 1.9078326303,
				"y": 1.3788601093,
				"z": 2.1277611777,
				"element": "H" 
			},
			{
				"x": 3.7252796246,
				"y": 1.3152432553,
				"z": -2.2517342355,
				"element": "H" 
			},
			{
				"x": 1.5215092057,
				"y": -0.0977735496,
				"z": -3.1534889507,
				"element": "H" 
			},
			{
				"x": -1.390130658,
				"y": 1.3299145269,
				"z": -0.7695883709,
				"element": "H" 
			},
			{
				"x": -3.8579668601,
				"y": -2.1818275912,
				"z": -1.0767049043,
				"element": "H" 
			},
			{
				"x": -1.8203256203,
				"y": -3.5664007519,
				"z": -1.419266089,
				"element": "H" 
			}
		],
		 "valence_orbital": [ 
			{
				"type": "occ",
				"energy": -0.29342,
				"method": "rhf"
			},
			{
				"type": "occ",
				"energy": -0.27953,
				"method": "rhf"
			},
			{
				"type": "occ",
				"energy": -0.27257,
				"method": "rhf"
			},
			{
				"type": "occ",
				"energy": -0.25793,
				"method": "rhf"
			},
			{
				"type": "occ",
				"energy": -0.21384,
				"method": "rhf"
			},
			{
				"type": "unocc",
				"energy": -0.04738,
				"method": "rhf"
			},
			{
				"type": "unocc",
				"energy": -0.04188,
				"method": "rhf"
			},
			{
				"type": "unocc",
				"energy": 0.00209,
				"method": "rhf"
			},
			{
				"type": "unocc",
				"energy": 0.01621,
				"method": "rhf"
			},
			{
				"type": "unocc",
				"energy": 0.01972,
				"method": "rhf"
			}
		],
		"cosmo_sigma_profile": { 
			"-0.025": 0.0,
			"-0.024": 0.0,
			"-0.023": 0.0,
			"-0.022": 0.0,
			"-0.021": 0.0,
			"-0.02": 0.0,
			"-0.019": 0.0,
			"-0.018": 0.0,
			"-0.017": 0.0,
			"-0.016": 0.0,
			"-0.015": 0.0,
			"-0.014": 0.0,
			"-0.013": 0.0,
			"-0.012": 0.651270311702,
			"-0.011": 1.38935777099,
			"-0.01": 1.47030672545,
			"-0.009": 4.34807538636,
			"-0.008": 8.39408834882,
			"-0.007": 9.8315949527,
			"-0.006": 8.7623345227,
			"-0.005": 10.4173144183,
			"-0.004": 10.3948450783,
			"-0.003": 11.9434968339,
			"-0.002": 15.104172701,
			"-0.001": 20.53848535,
			"0.0": 28.8872075104,
			"0.001": 24.6793753504,
			"0.002": 19.9540002829,
			"0.003": 23.0175837955,
			"0.004": 23.0751455774,
			"0.005": 8.52066508626,
			"0.006": 5.04236052022,
			"0.007": 2.81167124197,
			"0.008": 2.43763265677,
			"0.009": 1.06287441127,
			"0.01": 1.53376426014,
			"0.011": 0.910508869678,
			"0.012": 0.741382251075,
			"0.013": 1.1416578899,
			"0.014": 1.28184478771,
			"0.015": 0.636096892344,
			"0.016": 0.85446231347,
			"0.017": 0.24645917138,
			"0.018": 0.0,
			"0.019": 0.0,
			"0.02": 0.0,
			"0.021": 0.0,
			"0.022": 0.0,
			"0.023": 0.0,
			"0.024": 0.0,
			"0.025": 0.0
		}
	}
}
