{
	 "smiles": "CC1=CC=C(C=C1C)C(=O)C1=CC=CC=C1", 
	 "Tm": 319.95, 
	 "num_atms": 30, 
	 "gaussian": { 
		 "optdone": 1, 
		 "sigma_profile": "yes", 
		 "theory": "DFT", 
		 "functional": "B3LYP", 
		 "basiset": "6-31G**", 
		 "properties": { 
			 "R2extent": 4649.497, 
			 "electric_dipole_moment_norm": 3.5686637191, 
			 "electric_quadrupole_moment_norm": 12.3074610672, 
			 "total_energy": -655.275859714, 
			 "HOMO_LUMO_gap": 0.17698, 
			 "cosmo_polarized_energy": -9.38, 
			 "cosmo_cavitation_energy": 33.42, 
			 "cosmo_dispersion_energy": -23.86, 
			 "cosmo_repulsion_energy": 1.85, 
			 "cosmo_total_nonelectrostatic_energy": 11.4, 
			 "SMD_solvation_energy": 6.08 
		},
		"coords": [
			{
				"x": -0.122047367,
				"y": 3.3717488219,
				"z": -2.4793341481,
				"element": "C" 
			},
			{
				"x": -0.0576504548,
				"y": 2.0622973291,
				"z": -1.732235501,
				"element": "C" 
			},
			{
				"x": 0.0513336663,
				"y": 0.8538567613,
				"z": -2.4343362752,
				"element": "C" 
			},
			{
				"x": 0.1046610346,
				"y": -0.3677420138,
				"z": -1.7734620802,
				"element": "C" 
			},
			{
				"x": 0.0780893839,
				"y": -0.4094925697,
				"z": -0.3730869516,
				"element": "C" 
			},
			{
				"x": -0.0384201898,
				"y": 0.7974167093,
				"z": 0.333199723,
				"element": "C" 
			},
			{
				"x": -0.1143717192,
				"y": 2.0301769438,
				"z": -0.3219498063,
				"element": "C" 
			},
			{
				"x": -0.2582831497,
				"y": 3.3043734931,
				"z": 0.4765086898,
				"element": "C" 
			},
			{
				"x": 0.0873377035,
				"y": -1.7530575492,
				"z": 0.2899414134,
				"element": "C" 
			},
			{
				"x": -0.3333052777,
				"y": -2.7348882425,
				"z": -0.3142446436,
				"element": "O" 
			},
			{
				"x": 0.6081594988,
				"y": -1.914656745,
				"z": 1.6896996444,
				"element": "C" 
			},
			{
				"x": 1.6251212943,
				"y": -1.1103843615,
				"z": 2.2270026362,
				"element": "C" 
			},
			{
				"x": 2.1156423855,
				"y": -1.3581592725,
				"z": 3.5099783131,
				"element": "C" 
			},
			{
				"x": 1.5880424415,
				"y": -2.4016639384,
				"z": 4.2719907282,
				"element": "C" 
			},
			{
				"x": 0.5800417946,
				"y": -3.2126919362,
				"z": 3.741085295,
				"element": "C" 
			},
			{
				"x": 0.1038398562,
				"y": -2.9788996445,
				"z": 2.4545298375,
				"element": "C" 
			},
			{
				"x": -0.0660856324,
				"y": 3.213702531,
				"z": -3.5592695471,
				"element": "H" 
			},
			{
				"x": 0.6996901461,
				"y": 4.0402154545,
				"z": -2.1947861225,
				"element": "H" 
			},
			{
				"x": -1.0528692485,
				"y": 3.9117206699,
				"z": -2.2670781142,
				"element": "H" 
			},
			{
				"x": 0.088360733,
				"y": 0.8776122612,
				"z": -3.520623117,
				"element": "H" 
			},
			{
				"x": 0.1662094656,
				"y": -1.3015411796,
				"z": -2.3220734685,
				"element": "H" 
			},
			{
				"x": -0.0992067962,
				"y": 0.7790457259,
				"z": 1.4170165936,
				"element": "H" 
			},
			{
				"x": -0.2910448419,
				"y": 3.0958368506,
				"z": 1.5489687015,
				"element": "H" 
			},
			{
				"x": -1.1751540051,
				"y": 3.8458817994,
				"z": 0.2138634734,
				"element": "H" 
			},
			{
				"x": 0.5760811819,
				"y": 3.9929838048,
				"z": 0.2954173365,
				"element": "H" 
			},
			{
				"x": 2.0505094327,
				"y": -0.308210969,
				"z": 1.6333534911,
				"element": "H" 
			},
			{
				"x": 2.9119749876,
				"y": -0.7384388706,
				"z": 3.9120685304,
				"element": "H" 
			},
			{
				"x": 1.9650952334,
				"y": -2.5878856657,
				"z": 5.2736975693,
				"element": "H" 
			},
			{
				"x": 0.1729672169,
				"y": -4.0298510916,
				"z": 4.3296715529,
				"element": "H" 
			},
			{
				"x": -0.6604187739,
				"y": -3.6115051059,
				"z": 2.015386246,
				"element": "H" 
			}
		],
		 "valence_orbital": [ 
			{
				"type": "occ",
				"energy": -0.25747,
				"method": "rhf"
			},
			{
				"type": "occ",
				"energy": -0.25673,
				"method": "rhf"
			},
			{
				"type": "occ",
				"energy": -0.25012,
				"method": "rhf"
			},
			{
				"type": "occ",
				"energy": -0.24581,
				"method": "rhf"
			},
			{
				"type": "occ",
				"energy": -0.23527,
				"method": "rhf"
			},
			{
				"type": "unocc",
				"energy": -0.05829,
				"method": "rhf"
			},
			{
				"type": "unocc",
				"energy": -0.01052,
				"method": "rhf"
			},
			{
				"type": "unocc",
				"energy": -0.00599,
				"method": "rhf"
			},
			{
				"type": "unocc",
				"energy": 0.00076,
				"method": "rhf"
			},
			{
				"type": "unocc",
				"energy": 0.05916,
				"method": "rhf"
			}
		],
		"cosmo_sigma_profile": { 
			"-0.025": 0.0,
			"-0.024": 0.0,
			"-0.023": 0.0,
			"-0.022": 0.0,
			"-0.021": 0.0,
			"-0.02": 0.0,
			"-0.019": 0.0,
			"-0.018": 0.0,
			"-0.017": 0.0,
			"-0.016": 0.0,
			"-0.015": 0.0,
			"-0.014": 0.0,
			"-0.013": 0.0,
			"-0.012": 0.0,
			"-0.011": 0.0,
			"-0.01": 0.0,
			"-0.009": 0.0,
			"-0.008": 0.0,
			"-0.007": 0.7842802967,
			"-0.006": 8.8240207892,
			"-0.005": 18.5706947228,
			"-0.004": 30.8978688386,
			"-0.003": 23.9796909735,
			"-0.002": 26.8500456664,
			"-0.001": 25.8266487539,
			"0.0": 27.496394834,
			"0.001": 18.5858584501,
			"0.002": 15.5334627313,
			"0.003": 17.0771179836,
			"0.004": 22.2820880963,
			"0.005": 11.2472147224,
			"0.006": 2.1376912464,
			"0.007": 1.90167929079,
			"0.008": 1.81477544759,
			"0.009": 1.71274462707,
			"0.01": 2.26013237618,
			"0.011": 2.32119965909,
			"0.012": 4.2012241587,
			"0.013": 1.89598630733,
			"0.014": 0.0,
			"0.015": 0.0,
			"0.016": 0.0,
			"0.017": 0.0,
			"0.018": 0.0,
			"0.019": 0.0,
			"0.02": 0.0,
			"0.021": 0.0,
			"0.022": 0.0,
			"0.023": 0.0,
			"0.024": 0.0,
			"0.025": 0.0
		}
	}
}
