{
	 "smiles": "CCC1=C(C)SC2=C1C(=O)N=C(COCC(O)=O)N2", 
	 "Tm": 467.15, 
	 "num_atms": 33, 
	 "gaussian": { 
		 "optdone": 1, 
		 "sigma_profile": "yes", 
		 "theory": "DFT", 
		 "functional": "B3LYP", 
		 "basiset": "6-31G**", 
		 "properties": { 
			 "R2extent": 6873.7703, 
			 "electric_dipole_moment_norm": 7.30330133159, 
			 "electric_quadrupole_moment_norm": 29.7506284318, 
			 "total_energy": -1274.30775309, 
			 "HOMO_LUMO_gap": 0.16552, 
			 "cosmo_polarized_energy": -24.57, 
			 "cosmo_cavitation_energy": 37.75, 
			 "cosmo_dispersion_energy": -27.36, 
			 "cosmo_repulsion_energy": 2.07, 
			 "cosmo_total_nonelectrostatic_energy": 12.46, 
			 "SMD_solvation_energy": 6.08 
		},
		"coords": [
			{
				"x": 3.5798435501,
				"y": -3.2679106452,
				"z": -1.0985327062,
				"element": "C" 
			},
			{
				"x": 3.13463426,
				"y": -2.7742982559,
				"z": 0.2890458664,
				"element": "C" 
			},
			{
				"x": 2.2663843476,
				"y": -1.5392428507,
				"z": 0.2268295173,
				"element": "C" 
			},
			{
				"x": 2.7043015038,
				"y": -0.2626667792,
				"z": 0.4602396689,
				"element": "C" 
			},
			{
				"x": 4.0697876848,
				"y": 0.2398544415,
				"z": 0.8245148067,
				"element": "C" 
			},
			{
				"x": 1.4071411687,
				"y": 0.9347742995,
				"z": 0.2772032694,
				"element": "S" 
			},
			{
				"x": 0.2824682228,
				"y": -0.3279690276,
				"z": -0.1164971047,
				"element": "C" 
			},
			{
				"x": 0.857574778,
				"y": -1.5814070952,
				"z": -0.1121813713,
				"element": "C" 
			},
			{
				"x": 0.0098078198,
				"y": -2.7474763963,
				"z": -0.4094982272,
				"element": "C" 
			},
			{
				"x": 0.4214614689,
				"y": -3.9024722058,
				"z": -0.4221491323,
				"element": "O" 
			},
			{
				"x": -1.3505280917,
				"y": -2.4744051641,
				"z": -0.6946326641,
				"element": "N" 
			},
			{
				"x": -1.8037434659,
				"y": -1.2618932913,
				"z": -0.6791144949,
				"element": "C" 
			},
			{
				"x": -3.2670573148,
				"y": -0.9988312016,
				"z": -0.9924617201,
				"element": "C" 
			},
			{
				"x": -4.138283179,
				"y": -1.0001642206,
				"z": 0.1446153875,
				"element": "O" 
			},
			{
				"x": -3.8330356052,
				"y": -0.1372525275,
				"z": 1.2232404553,
				"element": "C" 
			},
			{
				"x": -3.8810843919,
				"y": 1.3339243486,
				"z": 0.8156850631,
				"element": "C" 
			},
			{
				"x": -4.9364021119,
				"y": 1.9862249265,
				"z": 1.3178369867,
				"element": "O" 
			},
			{
				"x": -3.0628719703,
				"y": 1.8755442628,
				"z": 0.0877257469,
				"element": "O" 
			},
			{
				"x": -1.045374246,
				"y": -0.1463620507,
				"z": -0.4059391627,
				"element": "N" 
			},
			{
				"x": 4.1372482348,
				"y": -2.4948887561,
				"z": -1.6384475473,
				"element": "H" 
			},
			{
				"x": 4.2239765632,
				"y": -4.1481093603,
				"z": -1.0012498808,
				"element": "H" 
			},
			{
				"x": 2.7090284979,
				"y": -3.5540993468,
				"z": -1.6929578068,
				"element": "H" 
			},
			{
				"x": 4.0139393072,
				"y": -2.5744246404,
				"z": 0.9104718122,
				"element": "H" 
			},
			{
				"x": 2.5648366774,
				"y": -3.5719770955,
				"z": 0.772193804,
				"element": "H" 
			},
			{
				"x": 4.0600637812,
				"y": 0.8064606168,
				"z": 1.7629866757,
				"element": "H" 
			},
			{
				"x": 4.4818288964,
				"y": 0.8962888167,
				"z": 0.0489176916,
				"element": "H" 
			},
			{
				"x": 4.7606665137,
				"y": -0.5964488037,
				"z": 0.9485590307,
				"element": "H" 
			},
			{
				"x": -3.6217029716,
				"y": -1.8237853716,
				"z": -1.6095619035,
				"element": "H" 
			},
			{
				"x": -3.3653546309,
				"y": -0.0587701129,
				"z": -1.5505850145,
				"element": "H" 
			},
			{
				"x": -4.5867666213,
				"y": -0.3340308023,
				"z": 1.9866893621,
				"element": "H" 
			},
			{
				"x": -2.8380601747,
				"y": -0.3353344164,
				"z": 1.6451013243,
				"element": "H" 
			},
			{
				"x": -4.8925316747,
				"y": 2.9032582818,
				"z": 0.9927937241,
				"element": "H" 
			},
			{
				"x": -1.5052968262,
				"y": 0.7628904233,
				"z": -0.3509414566,
				"element": "H" 
			}
		],
		 "valence_orbital": [ 
			{
				"type": "occ",
				"energy": -0.27703,
				"method": "rhf"
			},
			{
				"type": "occ",
				"energy": -0.26812,
				"method": "rhf"
			},
			{
				"type": "occ",
				"energy": -0.25095,
				"method": "rhf"
			},
			{
				"type": "occ",
				"energy": -0.22898,
				"method": "rhf"
			},
			{
				"type": "occ",
				"energy": -0.21056,
				"method": "rhf"
			},
			{
				"type": "unocc",
				"energy": -0.04504,
				"method": "rhf"
			},
			{
				"type": "unocc",
				"energy": -0.03172,
				"method": "rhf"
			},
			{
				"type": "unocc",
				"energy": -0.01553,
				"method": "rhf"
			},
			{
				"type": "unocc",
				"energy": 0.00399,
				"method": "rhf"
			},
			{
				"type": "unocc",
				"energy": 0.03112,
				"method": "rhf"
			}
		],
		"cosmo_sigma_profile": { 
			"-0.025": 0.0,
			"-0.024": 0.0,
			"-0.023": 0.0,
			"-0.022": 0.0,
			"-0.021": 0.0,
			"-0.02": 0.101775963196,
			"-0.019": 0.789678106115,
			"-0.018": 1.25884296825,
			"-0.017": 0.844022901444,
			"-0.016": 0.244610437897,
			"-0.015": 0.746008142132,
			"-0.014": 0.658155555415,
			"-0.013": 1.60535405537,
			"-0.012": 1.16804520682,
			"-0.011": 1.35587854351,
			"-0.01": 1.53661128586,
			"-0.009": 1.94171127042,
			"-0.008": 7.60298641973,
			"-0.007": 11.759467748,
			"-0.006": 11.9880546614,
			"-0.005": 18.1211713896,
			"-0.004": 19.1368782213,
			"-0.003": 20.2473206742,
			"-0.002": 23.8013252764,
			"-0.001": 26.6247871132,
			"0.0": 25.6860121487,
			"0.001": 26.1219337004,
			"0.002": 20.4153780703,
			"0.003": 14.598391717,
			"0.004": 8.77432652142,
			"0.005": 6.68674973094,
			"0.006": 6.53095055409,
			"0.007": 5.54312523256,
			"0.008": 5.47057137268,
			"0.009": 4.98706147098,
			"0.01": 4.88060212309,
			"0.011": 3.88742884753,
			"0.012": 2.68935055054,
			"0.013": 3.03006405297,
			"0.014": 3.61997125312,
			"0.015": 2.95819895435,
			"0.016": 2.86710869476,
			"0.017": 1.2539245903,
			"0.018": 0.0,
			"0.019": 0.0,
			"0.02": 0.0,
			"0.021": 0.0,
			"0.022": 0.0,
			"0.023": 0.0,
			"0.024": 0.0,
			"0.025": 0.0
		}
	}
}
