{
	 "smiles": "NC1=NC2=C(S1)C=C(OC(F)(F)F)C=C2Br", 
	 "Tm": 476.15, 
	 "num_atms": 20, 
	 "gaussian": { 
		 "optdone": 1, 
		 "sigma_profile": "yes", 
		 "theory": "DFT", 
		 "functional": "B3LYP", 
		 "basiset": "6-31G**", 
		 "properties": { 
			 "R2extent": 6148.8133, 
			 "electric_dipole_moment_norm": 4.03031929256, 
			 "electric_quadrupole_moment_norm": 19.8340778571, 
			 "total_energy": -3761.11075673, 
			 "HOMO_LUMO_gap": 0.1907, 
			 "cosmo_polarized_energy": -11.77, 
			 "cosmo_cavitation_energy": 30.59, 
			 "cosmo_dispersion_energy": -23.2, 
			 "cosmo_repulsion_energy": 1.72, 
			 "cosmo_total_nonelectrostatic_energy": 9.11, 
			 "SMD_solvation_energy": 3.66 
		},
		"coords": [
			{
				"x": 1.3923620391,
				"y": -3.2961511421,
				"z": -3.6994933128,
				"element": "N" 
			},
			{
				"x": 0.8951390736,
				"y": -2.5084711488,
				"z": -2.7000388184,
				"element": "C" 
			},
			{
				"x": 1.6070136508,
				"y": -1.6759258737,
				"z": -2.0082390208,
				"element": "N" 
			},
			{
				"x": 0.8424411794,
				"y": -1.0773519976,
				"z": -1.0267441847,
				"element": "C" 
			},
			{
				"x": -0.5197415085,
				"y": -1.4632530817,
				"z": -0.9732732582,
				"element": "C" 
			},
			{
				"x": -0.8244342562,
				"y": -2.6626164945,
				"z": -2.2251963349,
				"element": "S" 
			},
			{
				"x": -1.430734343,
				"y": -0.9456708009,
				"z": -0.0546407647,
				"element": "C" 
			},
			{
				"x": -0.9414736895,
				"y": -0.003063064,
				"z": 0.8471761482,
				"element": "C" 
			},
			{
				"x": -1.7074259141,
				"y": 0.6193673849,
				"z": 1.8365068498,
				"element": "O" 
			},
			{
				"x": -3.0243107966,
				"y": 0.3421841106,
				"z": 1.9868381842,
				"element": "C" 
			},
			{
				"x": -3.47446323,
				"y": 1.0838424021,
				"z": 2.9960632622,
				"element": "F" 
			},
			{
				"x": -3.2510035206,
				"y": -0.9557063342,
				"z": 2.2739623105,
				"element": "F" 
			},
			{
				"x": -3.7442322901,
				"y": 0.635190264,
				"z": 0.884776749,
				"element": "F" 
			},
			{
				"x": 0.3955973915,
				"y": 0.4086788011,
				"z": 0.835468443,
				"element": "C" 
			},
			{
				"x": 1.2791460212,
				"y": -0.1242769867,
				"z": -0.0940732992,
				"element": "C" 
			},
			{
				"x": 3.0907586147,
				"y": 0.447918283,
				"z": -0.0971263474,
				"element": "Br" 
			},
			{
				"x": 0.7616367441,
				"y": -3.6123137325,
				"z": -4.4205107536,
				"element": "H" 
			},
			{
				"x": 2.3161542963,
				"y": -3.0325011152,
				"z": -4.0147609802,
				"element": "H" 
			},
			{
				"x": -2.4631102688,
				"y": -1.2656693356,
				"z": -0.0468111715,
				"element": "H" 
			},
			{
				"x": 0.7263808067,
				"y": 1.1441898621,
				"z": 1.5578162996,
				"element": "H" 
			}
		],
		 "valence_orbital": [ 
			{
				"type": "occ",
				"energy": -0.29533,
				"method": "rhf"
			},
			{
				"type": "occ",
				"energy": -0.28661,
				"method": "rhf"
			},
			{
				"type": "occ",
				"energy": -0.27844,
				"method": "rhf"
			},
			{
				"type": "occ",
				"energy": -0.24268,
				"method": "rhf"
			},
			{
				"type": "occ",
				"energy": -0.22051,
				"method": "rhf"
			},
			{
				"type": "unocc",
				"energy": -0.02981,
				"method": "rhf"
			},
			{
				"type": "unocc",
				"energy": -0.02305,
				"method": "rhf"
			},
			{
				"type": "unocc",
				"energy": -0.02046,
				"method": "rhf"
			},
			{
				"type": "unocc",
				"energy": 0.02024,
				"method": "rhf"
			},
			{
				"type": "unocc",
				"energy": 0.03301,
				"method": "rhf"
			}
		],
		"cosmo_sigma_profile": { 
			"-0.025": 0.0,
			"-0.024": 0.0,
			"-0.023": 0.0,
			"-0.022": 0.0,
			"-0.021": 0.0,
			"-0.02": 0.0,
			"-0.019": 0.0,
			"-0.018": 0.0,
			"-0.017": 0.0,
			"-0.016": 0.316067750903,
			"-0.015": 2.10475423203,
			"-0.014": 2.87590959553,
			"-0.013": 1.80947400785,
			"-0.012": 2.63448197654,
			"-0.011": 3.3144985415,
			"-0.01": 2.08360758353,
			"-0.009": 2.58540266162,
			"-0.008": 4.10692367793,
			"-0.007": 5.27992196404,
			"-0.006": 3.87353422559,
			"-0.005": 5.59295933947,
			"-0.004": 6.99184799703,
			"-0.003": 7.57341661755,
			"-0.002": 10.4940853019,
			"-0.001": 18.9528219666,
			"0.0": 26.3211848166,
			"0.001": 47.7489646831,
			"0.002": 44.1948357818,
			"0.003": 14.7744538634,
			"0.004": 15.5638490644,
			"0.005": 7.32020803326,
			"0.006": 2.91617477468,
			"0.007": 2.97414034756,
			"0.008": 2.11778015569,
			"0.009": 1.52419119378,
			"0.01": 1.79484807391,
			"0.011": 1.78115168114,
			"0.012": 0.888205717723,
			"0.013": 1.24029834782,
			"0.014": 0.424430303616,
			"0.015": 0.0,
			"0.016": 0.0,
			"0.017": 0.0,
			"0.018": 0.0,
			"0.019": 0.0,
			"0.02": 0.0,
			"0.021": 0.0,
			"0.022": 0.0,
			"0.023": 0.0,
			"0.024": 0.0,
			"0.025": 0.0
		}
	}
}
