{
	 "smiles": "NC1=C(F)C=CC(F)=C1Cl", 
	 "Tm": 302.15, 
	 "num_atms": 14, 
	 "gaussian": { 
		 "optdone": 1, 
		 "sigma_profile": "yes", 
		 "theory": "DFT", 
		 "functional": "B3LYP", 
		 "basiset": "6-31G**", 
		 "properties": { 
			 "R2extent": 2172.1836, 
			 "electric_dipole_moment_norm": 1.93550694393, 
			 "electric_quadrupole_moment_norm": 10.037437936, 
			 "total_energy": -945.65944569, 
			 "HOMO_LUMO_gap": 0.20464, 
			 "cosmo_polarized_energy": -6.24, 
			 "cosmo_cavitation_energy": 20.75, 
			 "cosmo_dispersion_energy": -15.62, 
			 "cosmo_repulsion_energy": 1.22, 
			 "cosmo_total_nonelectrostatic_energy": 6.35, 
			 "SMD_solvation_energy": 4.22 
		},
		"coords": [
			{
				"x": -2.4752075124,
				"y": -1.7440101096,
				"z": 1.8845874291,
				"element": "N" 
			},
			{
				"x": -1.5647284769,
				"y": -1.1637707087,
				"z": 1.0275671837,
				"element": "C" 
			},
			{
				"x": -0.5564524653,
				"y": -1.9445747495,
				"z": 0.4335702667,
				"element": "C" 
			},
			{
				"x": -0.5030044017,
				"y": -3.2493010893,
				"z": 0.809398671,
				"element": "F" 
			},
			{
				"x": 0.3535486368,
				"y": -1.4445164759,
				"z": -0.4761761992,
				"element": "C" 
			},
			{
				"x": 0.2905503134,
				"y": -0.0955218896,
				"z": -0.839997958,
				"element": "C" 
			},
			{
				"x": -0.6881700133,
				"y": 0.7021712054,
				"z": -0.2655038848,
				"element": "C" 
			},
			{
				"x": -0.7592692812,
				"y": 2.00200336,
				"z": -0.5970226931,
				"element": "F" 
			},
			{
				"x": -1.6066870055,
				"y": 0.1914821926,
				"z": 0.6552785064,
				"element": "C" 
			},
			{
				"x": -2.8117511163,
				"y": 1.2457077817,
				"z": 1.3571640859,
				"element": "Cl" 
			},
			{
				"x": -2.9560794943,
				"y": -1.1218466509,
				"z": 2.5174219311,
				"element": "H" 
			},
			{
				"x": -2.1865453579,
				"y": -2.6247954446,
				"z": 2.2834927867,
				"element": "H" 
			},
			{
				"x": 1.1039103568,
				"y": -2.1077231659,
				"z": -0.8914131623,
				"element": "H" 
			},
			{
				"x": 0.9825858177,
				"y": 0.3389957442,
				"z": -1.5509669633,
				"element": "H" 
			}
		],
		 "valence_orbital": [ 
			{
				"type": "occ",
				"energy": -0.34124,
				"method": "rhf"
			},
			{
				"type": "occ",
				"energy": -0.32618,
				"method": "rhf"
			},
			{
				"type": "occ",
				"energy": -0.32386,
				"method": "rhf"
			},
			{
				"type": "occ",
				"energy": -0.2451,
				"method": "rhf"
			},
			{
				"type": "occ",
				"energy": -0.2183,
				"method": "rhf"
			},
			{
				"type": "unocc",
				"energy": -0.01366,
				"method": "rhf"
			},
			{
				"type": "unocc",
				"energy": 0.00458,
				"method": "rhf"
			},
			{
				"type": "unocc",
				"energy": 0.01641,
				"method": "rhf"
			},
			{
				"type": "unocc",
				"energy": 0.08034,
				"method": "rhf"
			},
			{
				"type": "unocc",
				"energy": 0.10752,
				"method": "rhf"
			}
		],
		"cosmo_sigma_profile": { 
			"-0.025": 0.0,
			"-0.024": 0.0,
			"-0.023": 0.0,
			"-0.022": 0.0,
			"-0.021": 0.0,
			"-0.02": 0.0,
			"-0.019": 0.0,
			"-0.018": 0.0,
			"-0.017": 0.0,
			"-0.016": 0.0,
			"-0.015": 0.0,
			"-0.014": 0.0,
			"-0.013": 1.27159442385,
			"-0.012": 1.26917477666,
			"-0.011": 2.22111925591,
			"-0.01": 2.45397983589,
			"-0.009": 1.64533437828,
			"-0.008": 4.03160290395,
			"-0.007": 5.87406411377,
			"-0.006": 5.37434198454,
			"-0.005": 6.60805255358,
			"-0.004": 4.55508447477,
			"-0.003": 6.01534264608,
			"-0.002": 5.6973352878,
			"-0.001": 9.04926697141,
			"0.0": 14.7000732229,
			"0.001": 24.4827357582,
			"0.002": 18.6025453844,
			"0.003": 20.0177187085,
			"0.004": 24.3898443144,
			"0.005": 6.46065334792,
			"0.006": 0.890948544609,
			"0.007": 0.645541731788,
			"0.008": 0.508990453398,
			"0.009": 0.700384107825,
			"0.01": 0.711822953743,
			"0.011": 0.527333672893,
			"0.012": 0.325576331027,
			"0.013": 0.0,
			"0.014": 0.0,
			"0.015": 0.0,
			"0.016": 0.0,
			"0.017": 0.0,
			"0.018": 0.0,
			"0.019": 0.0,
			"0.02": 0.0,
			"0.021": 0.0,
			"0.022": 0.0,
			"0.023": 0.0,
			"0.024": 0.0,
			"0.025": 0.0
		}
	}
}
