{
	 "smiles": "CCOC(=O)C1=CC2=C(NCCC2)C=C1", 
	 "Tm": 353.15, 
	 "num_atms": 30, 
	 "gaussian": { 
		 "optdone": 1, 
		 "sigma_profile": "yes", 
		 "theory": "DFT", 
		 "functional": "B3LYP", 
		 "basiset": "6-31G**", 
		 "properties": { 
			 "R2extent": 4499.0411, 
			 "electric_dipole_moment_norm": 4.17713681605, 
			 "electric_quadrupole_moment_norm": 13.167081581, 
			 "total_energy": -671.552602574, 
			 "HOMO_LUMO_gap": 0.17496, 
			 "cosmo_polarized_energy": -11.87, 
			 "cosmo_cavitation_energy": 32.48, 
			 "cosmo_dispersion_energy": -24.05, 
			 "cosmo_repulsion_energy": 1.91, 
			 "cosmo_total_nonelectrostatic_energy": 10.34, 
			 "SMD_solvation_energy": 5.14 
		},
		"coords": [
			{
				"x": -2.4504838728,
				"y": -4.3648591543,
				"z": 1.8327478959,
				"element": "C" 
			},
			{
				"x": -2.109437599,
				"y": -3.8528784942,
				"z": 0.4454499087,
				"element": "C" 
			},
			{
				"x": -1.4303829561,
				"y": -2.5916068963,
				"z": 0.6036147664,
				"element": "O" 
			},
			{
				"x": -1.0472547224,
				"y": -1.9821012028,
				"z": -0.548975189,
				"element": "C" 
			},
			{
				"x": -1.2604636162,
				"y": -2.4650177951,
				"z": -1.647771482,
				"element": "O" 
			},
			{
				"x": -0.357992825,
				"y": -0.6952743727,
				"z": -0.3117947224,
				"element": "C" 
			},
			{
				"x": -0.1302092148,
				"y": -0.1755984441,
				"z": 0.9711697195,
				"element": "C" 
			},
			{
				"x": 0.5265228147,
				"y": 1.0345670845,
				"z": 1.1695571512,
				"element": "C" 
			},
			{
				"x": 0.9619444234,
				"y": 1.7691437984,
				"z": 0.0380202484,
				"element": "C" 
			},
			{
				"x": 1.5694364379,
				"y": 3.0016935718,
				"z": 0.1890172663,
				"element": "N" 
			},
			{
				"x": 2.0390420847,
				"y": 3.4655182547,
				"z": 1.4861626173,
				"element": "C" 
			},
			{
				"x": 1.0171388026,
				"y": 3.0878687391,
				"z": 2.5608735264,
				"element": "C" 
			},
			{
				"x": 0.7944969661,
				"y": 1.5690240291,
				"z": 2.5648131091,
				"element": "C" 
			},
			{
				"x": 0.7314292026,
				"y": 1.2498596867,
				"z": -1.2534996788,
				"element": "C" 
			},
			{
				"x": 0.0854989743,
				"y": 0.0379418304,
				"z": -1.4238590215,
				"element": "C" 
			},
			{
				"x": -3.1021023736,
				"y": -3.6617274243,
				"z": 2.3599078116,
				"element": "H" 
			},
			{
				"x": -1.5452871688,
				"y": -4.5085209237,
				"z": 2.4301553754,
				"element": "H" 
			},
			{
				"x": -2.9697354395,
				"y": -5.3256342847,
				"z": 1.7587433121,
				"element": "H" 
			},
			{
				"x": -1.4569591686,
				"y": -4.5444502359,
				"z": -0.0976902181,
				"element": "H" 
			},
			{
				"x": -3.0043330327,
				"y": -3.7026107884,
				"z": -0.1673764385,
				"element": "H" 
			},
			{
				"x": -0.4729129188,
				"y": -0.7376950736,
				"z": 1.8343821246,
				"element": "H" 
			},
			{
				"x": 2.0470712282,
				"y": 3.3623628163,
				"z": -0.6236068469,
				"element": "H" 
			},
			{
				"x": 3.0207639103,
				"y": 3.0328165268,
				"z": 1.7445961461,
				"element": "H" 
			},
			{
				"x": 2.1659426893,
				"y": 4.5523108716,
				"z": 1.4380984881,
				"element": "H" 
			},
			{
				"x": 0.074050546,
				"y": 3.604715852,
				"z": 2.3487610364,
				"element": "H" 
			},
			{
				"x": 1.3680320285,
				"y": 3.429345092,
				"z": 3.5401895312,
				"element": "H" 
			},
			{
				"x": -0.0365291079,
				"y": 1.3079024934,
				"z": 3.2296701448,
				"element": "H" 
			},
			{
				"x": 1.6848882566,
				"y": 1.0779705964,
				"z": 2.9836195998,
				"element": "H" 
			},
			{
				"x": 1.0642209805,
				"y": 1.8179249059,
				"z": -2.119252584,
				"element": "H" 
			},
			{
				"x": -0.0915953298,
				"y": -0.3646910591,
				"z": -2.415523598,
				"element": "H" 
			}
		],
		 "valence_orbital": [ 
			{
				"type": "occ",
				"energy": -0.29239,
				"method": "rhf"
			},
			{
				"type": "occ",
				"energy": -0.28277,
				"method": "rhf"
			},
			{
				"type": "occ",
				"energy": -0.25392,
				"method": "rhf"
			},
			{
				"type": "occ",
				"energy": -0.24096,
				"method": "rhf"
			},
			{
				"type": "occ",
				"energy": -0.1953,
				"method": "rhf"
			},
			{
				"type": "unocc",
				"energy": -0.02034,
				"method": "rhf"
			},
			{
				"type": "unocc",
				"energy": 0.00349,
				"method": "rhf"
			},
			{
				"type": "unocc",
				"energy": 0.07336,
				"method": "rhf"
			},
			{
				"type": "unocc",
				"energy": 0.07701,
				"method": "rhf"
			},
			{
				"type": "unocc",
				"energy": 0.10628,
				"method": "rhf"
			}
		],
		"cosmo_sigma_profile": { 
			"-0.025": 0.0,
			"-0.024": 0.0,
			"-0.023": 0.0,
			"-0.022": 0.0,
			"-0.021": 0.0,
			"-0.02": 0.0,
			"-0.019": 0.0,
			"-0.018": 0.0,
			"-0.017": 0.0,
			"-0.016": 0.0,
			"-0.015": 0.0,
			"-0.014": 0.0873857208035,
			"-0.013": 1.23447979557,
			"-0.012": 1.5419012021,
			"-0.011": 0.848548940483,
			"-0.01": 1.37494447169,
			"-0.009": 1.57991743497,
			"-0.008": 1.49519165217,
			"-0.007": 1.89003988124,
			"-0.006": 2.45699216254,
			"-0.005": 8.61811237648,
			"-0.004": 22.5870379377,
			"-0.003": 35.5837824758,
			"-0.002": 33.2063483454,
			"-0.001": 27.0077198039,
			"0.0": 22.6786555169,
			"0.001": 12.4618842628,
			"0.002": 11.9887998692,
			"0.003": 13.6729109067,
			"0.004": 12.6846147603,
			"0.005": 14.6198511806,
			"0.006": 9.01241832509,
			"0.007": 3.86749854707,
			"0.008": 1.60957936779,
			"0.009": 2.12302742834,
			"0.01": 1.00041550935,
			"0.011": 2.28893397603,
			"0.012": 3.09675717306,
			"0.013": 4.45112729833,
			"0.014": 0.206024629701,
			"0.015": 0.0,
			"0.016": 0.0,
			"0.017": 0.0,
			"0.018": 0.0,
			"0.019": 0.0,
			"0.02": 0.0,
			"0.021": 0.0,
			"0.022": 0.0,
			"0.023": 0.0,
			"0.024": 0.0,
			"0.025": 0.0
		}
	}
}
