{
	 "smiles": "CCOC(=O)C1=C(CCCO)C=NC2=C(C=NN12)C#N", 
	 "Tm": 368.15, 
	 "num_atms": 34, 
	 "gaussian": { 
		 "optdone": 1, 
		 "sigma_profile": "yes", 
		 "theory": "DFT", 
		 "functional": "B3LYP", 
		 "basiset": "6-31G**", 
		 "properties": { 
			 "R2extent": 6164.4557, 
			 "electric_dipole_moment_norm": 5.05803983871, 
			 "electric_quadrupole_moment_norm": 48.1459402826, 
			 "total_energy": -948.456121375, 
			 "HOMO_LUMO_gap": 0.14491, 
			 "cosmo_polarized_energy": -18.66, 
			 "cosmo_cavitation_energy": 37.89, 
			 "cosmo_dispersion_energy": -26.2, 
			 "cosmo_repulsion_energy": 1.99, 
			 "cosmo_total_nonelectrostatic_energy": 13.69, 
			 "SMD_solvation_energy": 6.12 
		},
		"coords": [
			{
				"x": 2.8959619758,
				"y": -2.1187076694,
				"z": -0.2164104354,
				"element": "C" 
			},
			{
				"x": 2.3134517174,
				"y": -1.3511000499,
				"z": 0.9585055594,
				"element": "C" 
			},
			{
				"x": 1.3240679932,
				"y": -0.3798854774,
				"z": 0.4984754931,
				"element": "O" 
			},
			{
				"x": 0.0446345662,
				"y": -0.7219821956,
				"z": 0.5534172674,
				"element": "C" 
			},
			{
				"x": -0.3824294787,
				"y": -1.8169780061,
				"z": 0.8825553426,
				"element": "O" 
			},
			{
				"x": -0.8623265594,
				"y": 0.3838917129,
				"z": 0.0810481627,
				"element": "C" 
			},
			{
				"x": -1.9517295052,
				"y": 0.1703869573,
				"z": -0.7464032862,
				"element": "C" 
			},
			{
				"x": -2.4273243393,
				"y": -1.182161771,
				"z": -1.2372744169,
				"element": "C" 
			},
			{
				"x": -1.7922071298,
				"y": -1.6595801332,
				"z": -2.5657864234,
				"element": "C" 
			},
			{
				"x": -0.3247158098,
				"y": -2.0884633357,
				"z": -2.4713378619,
				"element": "C" 
			},
			{
				"x": -0.1196324503,
				"y": -3.2420057293,
				"z": -1.6696137127,
				"element": "O" 
			},
			{
				"x": -2.6695010298,
				"y": 1.3290705127,
				"z": -1.1862511162,
				"element": "C" 
			},
			{
				"x": -2.3981786512,
				"y": 2.5696132602,
				"z": -0.8482541197,
				"element": "N" 
			},
			{
				"x": -1.3720412783,
				"y": 2.7480752592,
				"z": -0.0021722891,
				"element": "C" 
			},
			{
				"x": -0.843287705,
				"y": 3.8909960086,
				"z": 0.6197877445,
				"element": "C" 
			},
			{
				"x": 0.2007581722,
				"y": 3.3981285052,
				"z": 1.4299126265,
				"element": "C" 
			},
			{
				"x": 0.3524597177,
				"y": 2.0757346522,
				"z": 1.3494334753,
				"element": "N" 
			},
			{
				"x": -0.5984483348,
				"y": 1.6796777615,
				"z": 0.468231649,
				"element": "N" 
			},
			{
				"x": -1.2821383802,
				"y": 5.2284196119,
				"z": 0.4733900622,
				"element": "C" 
			},
			{
				"x": -1.6254668133,
				"y": 6.3355320079,
				"z": 0.3668519321,
				"element": "N" 
			},
			{
				"x": 3.6780161494,
				"y": -2.7932498827,
				"z": 0.1474947218,
				"element": "H" 
			},
			{
				"x": 2.1311366891,
				"y": -2.7169675291,
				"z": -0.7193901105,
				"element": "H" 
			},
			{
				"x": 3.3471767857,
				"y": -1.4353982033,
				"z": -0.9416104405,
				"element": "H" 
			},
			{
				"x": 1.8354943563,
				"y": -2.0136261481,
				"z": 1.6819168882,
				"element": "H" 
			},
			{
				"x": 3.0641100561,
				"y": -0.7381245969,
				"z": 1.4608599335,
				"element": "H" 
			},
			{
				"x": -2.279373087,
				"y": -1.9353625766,
				"z": -0.4629392084,
				"element": "H" 
			},
			{
				"x": -3.5093532346,
				"y": -1.1031518546,
				"z": -1.3894280239,
				"element": "H" 
			},
			{
				"x": -2.3732100761,
				"y": -2.5156253465,
				"z": -2.9269952258,
				"element": "H" 
			},
			{
				"x": -1.8807445611,
				"y": -0.8683779365,
				"z": -3.3219980092,
				"element": "H" 
			},
			{
				"x": 0.0298407823,
				"y": -2.3539339501,
				"z": -3.4727613069,
				"element": "H" 
			},
			{
				"x": 0.3009332472,
				"y": -1.2460527643,
				"z": -2.1333415326,
				"element": "H" 
			},
			{
				"x": -0.2890481851,
				"y": -3.0099484193,
				"z": -0.7433353856,
				"element": "H" 
			},
			{
				"x": -3.5157335567,
				"y": 1.1851643557,
				"z": -1.856285516,
				"element": "H" 
			},
			{
				"x": 0.849247957,
				"y": 3.9683929701,
				"z": 2.0808075627,
				"element": "H" 
			}
		],
		 "valence_orbital": [ 
			{
				"type": "occ",
				"energy": -0.31458,
				"method": "rhf"
			},
			{
				"type": "occ",
				"energy": -0.29029,
				"method": "rhf"
			},
			{
				"type": "occ",
				"energy": -0.28679,
				"method": "rhf"
			},
			{
				"type": "occ",
				"energy": -0.27524,
				"method": "rhf"
			},
			{
				"type": "occ",
				"energy": -0.24642,
				"method": "rhf"
			},
			{
				"type": "unocc",
				"energy": -0.10151,
				"method": "rhf"
			},
			{
				"type": "unocc",
				"energy": -0.04652,
				"method": "rhf"
			},
			{
				"type": "unocc",
				"energy": -0.01706,
				"method": "rhf"
			},
			{
				"type": "unocc",
				"energy": 0.00283,
				"method": "rhf"
			},
			{
				"type": "unocc",
				"energy": 0.03106,
				"method": "rhf"
			}
		],
		"cosmo_sigma_profile": { 
			"-0.025": 0.0,
			"-0.024": 0.0,
			"-0.023": 0.0,
			"-0.022": 0.0,
			"-0.021": 0.0,
			"-0.02": 0.0,
			"-0.019": 0.0,
			"-0.018": 0.0,
			"-0.017": 0.0,
			"-0.016": 0.0,
			"-0.015": 0.0,
			"-0.014": 0.0,
			"-0.013": 0.0,
			"-0.012": 0.0,
			"-0.011": 0.0,
			"-0.01": 1.51530616517,
			"-0.009": 3.88850899259,
			"-0.008": 5.65726606903,
			"-0.007": 7.35827536749,
			"-0.006": 13.345197794,
			"-0.005": 23.2627241785,
			"-0.004": 34.2478148117,
			"-0.003": 30.8470306805,
			"-0.002": 29.7473756249,
			"-0.001": 27.5115144271,
			"0.0": 20.9160072317,
			"0.001": 11.6170317465,
			"0.002": 9.52600679561,
			"0.003": 8.70869911686,
			"0.004": 9.13183668215,
			"0.005": 9.4245807642,
			"0.006": 6.51935275719,
			"0.007": 8.00937542289,
			"0.008": 8.49193267986,
			"0.009": 8.37918724151,
			"0.01": 7.62539390947,
			"0.011": 6.17130939422,
			"0.012": 5.23734694476,
			"0.013": 3.33253863111,
			"0.014": 1.7284994983,
			"0.015": 0.602042575706,
			"0.016": 0.0,
			"0.017": 0.0,
			"0.018": 0.0,
			"0.019": 0.0,
			"0.02": 0.0,
			"0.021": 0.0,
			"0.022": 0.0,
			"0.023": 0.0,
			"0.024": 0.0,
			"0.025": 0.0
		}
	}
}
