{
	 "smiles": "CC1=CC(O)=C(C(C2=CC=C(C=C2)[N+]([O-])=O)C2=C(O)C=C(C)OC2=O)C(=O)O1", 
	 "Tm": 512.15, 
	 "num_atms": 43, 
	 "gaussian": { 
		 "optdone": 1, 
		 "sigma_profile": "yes", 
		 "theory": "DFT", 
		 "functional": "B3LYP", 
		 "basiset": "6-31G**", 
		 "properties": { 
			 "R2extent": 11656.2127, 
			 "electric_dipole_moment_norm": 11.501706516, 
			 "electric_quadrupole_moment_norm": 47.6373329345, 
			 "total_energy": -1389.489507, 
			 "HOMO_LUMO_gap": 0.14642, 
			 "cosmo_polarized_energy": -40.08, 
			 "cosmo_cavitation_energy": 49.08, 
			 "cosmo_dispersion_energy": -33.0, 
			 "cosmo_repulsion_energy": 2.53, 
			 "cosmo_total_nonelectrostatic_energy": 18.61, 
			 "SMD_solvation_energy": 13.95 
		},
		"coords": [
			{
				"x": -1.9702433689,
				"y": -3.670519292,
				"z": 5.1805321237,
				"element": "C" 
			},
			{
				"x": -1.4595017651,
				"y": -2.8443423214,
				"z": 4.0446336157,
				"element": "C" 
			},
			{
				"x": -1.6672089501,
				"y": -3.0814350939,
				"z": 2.7274909213,
				"element": "C" 
			},
			{
				"x": -1.1032892994,
				"y": -2.1898680431,
				"z": 1.752738919,
				"element": "C" 
			},
			{
				"x": -1.3328170535,
				"y": -2.4248560989,
				"z": 0.4422661392,
				"element": "O" 
			},
			{
				"x": -0.3421578153,
				"y": -1.1115474352,
				"z": 2.1353345352,
				"element": "C" 
			},
			{
				"x": 0.3471536336,
				"y": -0.1049406782,
				"z": 1.2191537772,
				"element": "C" 
			},
			{
				"x": 0.8315871277,
				"y": -0.688349303,
				"z": -0.110004874,
				"element": "C" 
			},
			{
				"x": 0.3287882177,
				"y": -0.2809219158,
				"z": -1.3510133096,
				"element": "C" 
			},
			{
				"x": 0.8178038978,
				"y": -0.8209929567,
				"z": -2.5372095623,
				"element": "C" 
			},
			{
				"x": 1.8243178081,
				"y": -1.7814014724,
				"z": -2.473538107,
				"element": "C" 
			},
			{
				"x": 2.3570402486,
				"y": -2.202636778,
				"z": -1.2548220561,
				"element": "C" 
			},
			{
				"x": 1.857137783,
				"y": -1.647773168,
				"z": -0.0836087947,
				"element": "C" 
			},
			{
				"x": 2.3379826689,
				"y": -2.3631371022,
				"z": -3.7183010658,
				"element": "N" 
			},
			{
				"x": 3.2226162434,
				"y": -3.2162809922,
				"z": -3.6312253292,
				"element": "O" 
			},
			{
				"x": 1.8522316244,
				"y": -1.9695608232,
				"z": -4.7801544459,
				"element": "O" 
			},
			{
				"x": -0.3812181751,
				"y": 1.2285115399,
				"z": 1.1034777443,
				"element": "C" 
			},
			{
				"x": -1.7319083726,
				"y": 1.4137314774,
				"z": 0.9455449271,
				"element": "C" 
			},
			{
				"x": -2.5487061758,
				"y": 0.3396529386,
				"z": 0.8129485365,
				"element": "O" 
			},
			{
				"x": -2.304213687,
				"y": 2.7302694098,
				"z": 0.9066778168,
				"element": "C" 
			},
			{
				"x": -1.4913601424,
				"y": 3.8082970915,
				"z": 1.0186525071,
				"element": "C" 
			},
			{
				"x": -1.9205498432,
				"y": 5.2396271398,
				"z": 1.0103722049,
				"element": "C" 
			},
			{
				"x": -0.1607838707,
				"y": 3.6644814977,
				"z": 1.1489423585,
				"element": "O" 
			},
			{
				"x": 0.4783163426,
				"y": 2.3971876695,
				"z": 1.1772472786,
				"element": "C" 
			},
			{
				"x": 1.6845526559,
				"y": 2.4103306641,
				"z": 1.2538940549,
				"element": "O" 
			},
			{
				"x": -0.1495360756,
				"y": -0.8602714715,
				"z": 3.5499755103,
				"element": "C" 
			},
			{
				"x": 0.4635868862,
				"y": 0.0550558167,
				"z": 4.0509235199,
				"element": "O" 
			},
			{
				"x": -0.7372415592,
				"y": -1.7855794891,
				"z": 4.4534014066,
				"element": "O" 
			},
			{
				"x": -2.552825489,
				"y": -4.5192708029,
				"z": 4.817182223,
				"element": "H" 
			},
			{
				"x": -2.5982182901,
				"y": -3.0623498595,
				"z": 5.8402676449,
				"element": "H" 
			},
			{
				"x": -1.1351182066,
				"y": -4.0433403595,
				"z": 5.7830536499,
				"element": "H" 
			},
			{
				"x": -2.2571635162,
				"y": -3.9373632747,
				"z": 2.4169997122,
				"element": "H" 
			},
			{
				"x": -1.8344465482,
				"y": -3.2438940881,
				"z": 0.3384782161,
				"element": "H" 
			},
			{
				"x": 1.2622666837,
				"y": 0.1653726817,
				"z": 1.75838431,
				"element": "H" 
			},
			{
				"x": -0.4545918565,
				"y": 0.4672178008,
				"z": -1.3920821897,
				"element": "H" 
			},
			{
				"x": 0.4352771819,
				"y": -0.5153171579,
				"z": -3.5030090296,
				"element": "H" 
			},
			{
				"x": 3.1487687021,
				"y": -2.9412480073,
				"z": -1.2457866838,
				"element": "H" 
			},
			{
				"x": 2.2684978612,
				"y": -1.9605605072,
				"z": 0.8719751033,
				"element": "H" 
			},
			{
				"x": -3.4631966975,
				"y": 0.6388278127,
				"z": 0.7266045,
				"element": "H" 
			},
			{
				"x": -3.3744219656,
				"y": 2.8669042912,
				"z": 0.792850152,
				"element": "H" 
			},
			{
				"x": -1.6175025003,
				"y": 5.7294514812,
				"z": 1.9418146847,
				"element": "H" 
			},
			{
				"x": -3.0033433406,
				"y": 5.3239825808,
				"z": 0.8998386501,
				"element": "H" 
			},
			{
				"x": -1.4341610028,
				"y": 5.7766565984,
				"z": 0.1891987049,
				"element": "H" 
			}
		],
		 "valence_orbital": [ 
			{
				"type": "occ",
				"energy": -0.27064,
				"method": "rhf"
			},
			{
				"type": "occ",
				"energy": -0.26306,
				"method": "rhf"
			},
			{
				"type": "occ",
				"energy": -0.25625,
				"method": "rhf"
			},
			{
				"type": "occ",
				"energy": -0.23015,
				"method": "rhf"
			},
			{
				"type": "occ",
				"energy": -0.22235,
				"method": "rhf"
			},
			{
				"type": "unocc",
				"energy": -0.07593,
				"method": "rhf"
			},
			{
				"type": "unocc",
				"energy": -0.04962,
				"method": "rhf"
			},
			{
				"type": "unocc",
				"energy": -0.04307,
				"method": "rhf"
			},
			{
				"type": "unocc",
				"energy": -0.01271,
				"method": "rhf"
			},
			{
				"type": "unocc",
				"energy": 0.01004,
				"method": "rhf"
			}
		],
		"cosmo_sigma_profile": { 
			"-0.025": 0.0,
			"-0.024": 0.0,
			"-0.023": 0.0,
			"-0.022": 0.0,
			"-0.021": 0.0,
			"-0.02": 0.180146450712,
			"-0.019": 1.82904070076,
			"-0.018": 2.7748428421,
			"-0.017": 2.42296589062,
			"-0.016": 1.53768839755,
			"-0.015": 2.55317002168,
			"-0.014": 2.00005438836,
			"-0.013": 1.50850517393,
			"-0.012": 2.20726648624,
			"-0.011": 2.65014248459,
			"-0.01": 2.04338031971,
			"-0.009": 2.71586676234,
			"-0.008": 5.44964354026,
			"-0.007": 10.7875039402,
			"-0.006": 23.0840858773,
			"-0.005": 24.1757198822,
			"-0.004": 23.3988448102,
			"-0.003": 27.490692843,
			"-0.002": 35.6971724349,
			"-0.001": 30.2994091185,
			"0.0": 23.4438648548,
			"0.001": 20.8995468934,
			"0.002": 19.7699211329,
			"0.003": 13.0615059215,
			"0.004": 11.6534639635,
			"0.005": 11.017631567,
			"0.006": 10.1755841281,
			"0.007": 14.6365632375,
			"0.008": 16.7163634355,
			"0.009": 10.9715999493,
			"0.01": 9.09867639427,
			"0.011": 6.65007774753,
			"0.012": 9.26468107094,
			"0.013": 7.55419404549,
			"0.014": 2.07869612588,
			"0.015": 0.0101942472229,
			"0.016": 0.0,
			"0.017": 0.0,
			"0.018": 0.0,
			"0.019": 0.0,
			"0.02": 0.0,
			"0.021": 0.0,
			"0.022": 0.0,
			"0.023": 0.0,
			"0.024": 0.0,
			"0.025": 0.0
		}
	}
}
