{
	 "smiles": "COC1=C(OC)C(OC1=O)=CC=O", 
	 "Tm": 334.15, 
	 "num_atms": 21, 
	 "gaussian": { 
		 "optdone": 1, 
		 "sigma_profile": "yes", 
		 "theory": "DFT", 
		 "functional": "B3LYP", 
		 "basiset": "6-31G**", 
		 "properties": { 
			 "R2extent": 3187.6772, 
			 "electric_dipole_moment_norm": 6.50634416858, 
			 "electric_quadrupole_moment_norm": 19.140870696, 
			 "total_energy": -685.724204703, 
			 "HOMO_LUMO_gap": 0.13788, 
			 "cosmo_polarized_energy": -12.27, 
			 "cosmo_cavitation_energy": 26.87, 
			 "cosmo_dispersion_energy": -19.26, 
			 "cosmo_repulsion_energy": 1.54, 
			 "cosmo_total_nonelectrostatic_energy": 9.15, 
			 "SMD_solvation_energy": 8.79 
		},
		"coords": [
			{
				"x": -2.4662596761,
				"y": 1.0623287961,
				"z": -0.4161626155,
				"element": "C" 
			},
			{
				"x": -1.5076056427,
				"y": 0.0115291472,
				"z": -0.2060591639,
				"element": "O" 
			},
			{
				"x": -0.198260779,
				"y": 0.3205855106,
				"z": -0.1023867675,
				"element": "C" 
			},
			{
				"x": 0.8268298876,
				"y": -0.5584594112,
				"z": 0.0970243355,
				"element": "C" 
			},
			{
				"x": 0.8977670885,
				"y": -1.8874757628,
				"z": 0.2444235995,
				"element": "O" 
			},
			{
				"x": -0.3194810896,
				"y": -2.6483323091,
				"z": 0.1978009533,
				"element": "C" 
			},
			{
				"x": 2.0667873965,
				"y": 0.205521181,
				"z": 0.1460565728,
				"element": "C" 
			},
			{
				"x": 1.772468738,
				"y": 1.5402406545,
				"z": -0.0249302152,
				"element": "O" 
			},
			{
				"x": 0.3916138769,
				"y": 1.672071593,
				"z": -0.1836520827,
				"element": "C" 
			},
			{
				"x": -0.1189462512,
				"y": 2.7507389654,
				"z": -0.3492727064,
				"element": "O" 
			},
			{
				"x": 3.3252585943,
				"y": -0.2447892388,
				"z": 0.3248273486,
				"element": "C" 
			},
			{
				"x": 4.5016482887,
				"y": 0.6275407165,
				"z": 0.3559293611,
				"element": "C" 
			},
			{
				"x": 5.6352298639,
				"y": 0.2054773804,
				"z": 0.5186525561,
				"element": "O" 
			},
			{
				"x": -3.4300265965,
				"y": 0.5541700951,
				"z": -0.4625928774,
				"element": "H" 
			},
			{
				"x": -2.4574171135,
				"y": 1.7782750641,
				"z": 0.4088583539,
				"element": "H" 
			},
			{
				"x": -2.2748311876,
				"y": 1.5928545491,
				"z": -1.351686625,
				"element": "H" 
			},
			{
				"x": -0.8157708501,
				"y": -2.5303454822,
				"z": -0.7686776997,
				"element": "H" 
			},
			{
				"x": -0.9996478542,
				"y": -2.3443716279,
				"z": 0.9973571075,
				"element": "H" 
			},
			{
				"x": -0.0164232273,
				"y": -3.6858400704,
				"z": 0.3386175927,
				"element": "H" 
			},
			{
				"x": 3.4788629175,
				"y": -1.310507089,
				"z": 0.4529194763,
				"element": "H" 
			},
			{
				"x": 4.3037036159,
				"y": 1.7090873385,
				"z": 0.221553496,
				"element": "H" 
			}
		],
		 "valence_orbital": [ 
			{
				"type": "occ",
				"energy": -0.35386,
				"method": "rhf"
			},
			{
				"type": "occ",
				"energy": -0.29533,
				"method": "rhf"
			},
			{
				"type": "occ",
				"energy": -0.27397,
				"method": "rhf"
			},
			{
				"type": "occ",
				"energy": -0.24885,
				"method": "rhf"
			},
			{
				"type": "occ",
				"energy": -0.23256,
				"method": "rhf"
			},
			{
				"type": "unocc",
				"energy": -0.09468,
				"method": "rhf"
			},
			{
				"type": "unocc",
				"energy": -0.00418,
				"method": "rhf"
			},
			{
				"type": "unocc",
				"energy": 0.05544,
				"method": "rhf"
			},
			{
				"type": "unocc",
				"energy": 0.06636,
				"method": "rhf"
			},
			{
				"type": "unocc",
				"energy": 0.09512,
				"method": "rhf"
			}
		],
		"cosmo_sigma_profile": { 
			"-0.025": 0.0,
			"-0.024": 0.0,
			"-0.023": 0.0,
			"-0.022": 0.0,
			"-0.021": 0.0,
			"-0.02": 0.0,
			"-0.019": 0.0,
			"-0.018": 0.0,
			"-0.017": 0.0,
			"-0.016": 0.0,
			"-0.015": 0.0,
			"-0.014": 0.0,
			"-0.013": 0.0,
			"-0.012": 0.0,
			"-0.011": 0.0,
			"-0.01": 0.0,
			"-0.009": 0.0,
			"-0.008": 0.485992675949,
			"-0.007": 4.18571465829,
			"-0.006": 16.5391125592,
			"-0.005": 21.838550502,
			"-0.004": 25.2396046748,
			"-0.003": 20.5144799648,
			"-0.002": 18.0336078716,
			"-0.001": 15.8157154437,
			"0.0": 14.9825552414,
			"0.001": 9.67909194103,
			"0.002": 7.59523957598,
			"0.003": 8.05002484325,
			"0.004": 7.75384275235,
			"0.005": 7.13603780025,
			"0.006": 5.57785963274,
			"0.007": 4.63234614908,
			"0.008": 3.7575272024,
			"0.009": 4.11979009802,
			"0.01": 7.2104807967,
			"0.011": 5.65573760658,
			"0.012": 4.22542510076,
			"0.013": 1.78301929108,
			"0.014": 0.0641145789238,
			"0.015": 0.0,
			"0.016": 0.0,
			"0.017": 0.0,
			"0.018": 0.0,
			"0.019": 0.0,
			"0.02": 0.0,
			"0.021": 0.0,
			"0.022": 0.0,
			"0.023": 0.0,
			"0.024": 0.0,
			"0.025": 0.0
		}
	}
}
