{
	 "smiles": "CCNC1=NC=C(S1)C(=O)OC", 
	 "Tm": 410.15, 
	 "num_atms": 22, 
	 "gaussian": { 
		 "optdone": 1, 
		 "sigma_profile": "yes", 
		 "theory": "DFT", 
		 "functional": "B3LYP", 
		 "basiset": "6-31G**", 
		 "properties": { 
			 "R2extent": 3656.4484, 
			 "electric_dipole_moment_norm": 2.87483702842, 
			 "electric_quadrupole_moment_norm": 19.0873923756, 
			 "total_energy": -930.917045849, 
			 "HOMO_LUMO_gap": 0.17251, 
			 "cosmo_polarized_energy": -12.57, 
			 "cosmo_cavitation_energy": 27.95, 
			 "cosmo_dispersion_energy": -20.9, 
			 "cosmo_repulsion_energy": 1.65, 
			 "cosmo_total_nonelectrostatic_energy": 8.7, 
			 "SMD_solvation_energy": 4.1 
		},
		"coords": [
			{
				"x": 0.8047752251,
				"y": 3.1228713907,
				"z": 2.0451287141,
				"element": "C" 
			},
			{
				"x": 1.5689773897,
				"y": 1.8761503836,
				"z": 2.506263584,
				"element": "C" 
			},
			{
				"x": 0.8433258188,
				"y": 0.6271617101,
				"z": 2.3185907637,
				"element": "N" 
			},
			{
				"x": 0.7532262027,
				"y": -0.0577788426,
				"z": 1.1509854462,
				"element": "C" 
			},
			{
				"x": -0.0865580789,
				"y": -1.0632977699,
				"z": 0.9873546527,
				"element": "N" 
			},
			{
				"x": 0.0664810912,
				"y": -1.60172062,
				"z": -0.254538412,
				"element": "C" 
			},
			{
				"x": 1.0062785287,
				"y": -1.0342110287,
				"z": -1.0778386653,
				"element": "C" 
			},
			{
				"x": 1.7852639336,
				"y": 0.3019297406,
				"z": -0.2364947562,
				"element": "S" 
			},
			{
				"x": 1.3989924613,
				"y": -1.363517694,
				"z": -2.4417681015,
				"element": "C" 
			},
			{
				"x": 2.2554854152,
				"y": -0.7762359753,
				"z": -3.0802758564,
				"element": "O" 
			},
			{
				"x": 0.6900705735,
				"y": -2.4150375868,
				"z": -2.9271024356,
				"element": "O" 
			},
			{
				"x": 1.0222035491,
				"y": -2.7990845404,
				"z": -4.2687938069,
				"element": "C" 
			},
			{
				"x": -0.1321436924,
				"y": 3.2348976021,
				"z": 2.6000533994,
				"element": "H" 
			},
			{
				"x": 1.4084305622,
				"y": 4.0209766901,
				"z": 2.2119890569,
				"element": "H" 
			},
			{
				"x": 0.5662247926,
				"y": 3.0652002533,
				"z": 0.9793635909,
				"element": "H" 
			},
			{
				"x": 2.5250094646,
				"y": 1.7949355164,
				"z": 1.9766387137,
				"element": "H" 
			},
			{
				"x": 1.8145298262,
				"y": 1.9525719153,
				"z": 3.5703890682,
				"element": "H" 
			},
			{
				"x": 0.1248454279,
				"y": 0.378804692,
				"z": 2.9857594473,
				"element": "H" 
			},
			{
				"x": -0.5493550326,
				"y": -2.4436885388,
				"z": -0.5490089797,
				"element": "H" 
			},
			{
				"x": 0.3740855122,
				"y": -3.6444975195,
				"z": -4.500676143,
				"element": "H" 
			},
			{
				"x": 0.8404951188,
				"y": -1.9756212436,
				"z": -4.9644569777,
				"element": "H" 
			},
			{
				"x": 2.0730559105,
				"y": -3.0918085347,
				"z": -4.3397623027,
				"element": "H" 
			}
		],
		 "valence_orbital": [ 
			{
				"type": "occ",
				"energy": -0.29388,
				"method": "rhf"
			},
			{
				"type": "occ",
				"energy": -0.28762,
				"method": "rhf"
			},
			{
				"type": "occ",
				"energy": -0.27738,
				"method": "rhf"
			},
			{
				"type": "occ",
				"energy": -0.26012,
				"method": "rhf"
			},
			{
				"type": "occ",
				"energy": -0.21003,
				"method": "rhf"
			},
			{
				"type": "unocc",
				"energy": -0.03752,
				"method": "rhf"
			},
			{
				"type": "unocc",
				"energy": 0.01609,
				"method": "rhf"
			},
			{
				"type": "unocc",
				"energy": 0.03609,
				"method": "rhf"
			},
			{
				"type": "unocc",
				"energy": 0.06185,
				"method": "rhf"
			},
			{
				"type": "unocc",
				"energy": 0.10126,
				"method": "rhf"
			}
		],
		"cosmo_sigma_profile": { 
			"-0.025": 0.0,
			"-0.024": 0.0,
			"-0.023": 0.0,
			"-0.022": 0.0,
			"-0.021": 0.0,
			"-0.02": 0.0,
			"-0.019": 0.0,
			"-0.018": 0.0,
			"-0.017": 0.0,
			"-0.016": 0.0,
			"-0.015": 0.511637550611,
			"-0.014": 1.16486410048,
			"-0.013": 1.15020521662,
			"-0.012": 1.03853937439,
			"-0.011": 0.778667640365,
			"-0.01": 0.892345265907,
			"-0.009": 1.11553989135,
			"-0.008": 1.98114964998,
			"-0.007": 2.82386260977,
			"-0.006": 9.82247777152,
			"-0.005": 13.9215815428,
			"-0.004": 20.6502805612,
			"-0.003": 21.4301675486,
			"-0.002": 18.0483456882,
			"-0.001": 16.9853900093,
			"0.0": 19.9664269056,
			"0.001": 16.6820305309,
			"0.002": 18.0819671147,
			"0.003": 13.0691639765,
			"0.004": 7.96162514296,
			"0.005": 5.01137284408,
			"0.006": 5.16942087837,
			"0.007": 4.05489162448,
			"0.008": 2.77192050966,
			"0.009": 2.49178380598,
			"0.01": 2.95020080283,
			"0.011": 3.23761441004,
			"0.012": 5.52803019282,
			"0.013": 2.71926165707,
			"0.014": 0.764658229978,
			"0.015": 0.735574933753,
			"0.016": 0.0168547231108,
			"0.017": 0.0,
			"0.018": 0.0,
			"0.019": 0.0,
			"0.02": 0.0,
			"0.021": 0.0,
			"0.022": 0.0,
			"0.023": 0.0,
			"0.024": 0.0,
			"0.025": 0.0
		}
	}
}
