{
	 "smiles": "COC1=CC=C(C=NN2C(S)=NN=C2CCN2C(C)=NC3=CC=CC=C23)C=C1", 
	 "Tm": 535.15, 
	 "num_atms": 48, 
	 "gaussian": { 
		 "optdone": 1, 
		 "sigma_profile": "yes", 
		 "theory": "DFT", 
		 "functional": "B3LYP", 
		 "basiset": "6-31G**", 
		 "properties": { 
			 "R2extent": 14709.1595, 
			 "electric_dipole_moment_norm": 9.67950909086, 
			 "electric_quadrupole_moment_norm": 16.6919527758, 
			 "total_energy": -1576.04760401, 
			 "HOMO_LUMO_gap": 0.13642, 
			 "cosmo_polarized_energy": -27.93, 
			 "cosmo_cavitation_energy": 54.06, 
			 "cosmo_dispersion_energy": -36.99, 
			 "cosmo_repulsion_energy": 2.77, 
			 "cosmo_total_nonelectrostatic_energy": 19.83, 
			 "SMD_solvation_energy": 5.15 
		},
		"coords": [
			{
				"x": -1.3771953665,
				"y": 4.6288138891,
				"z": -5.8278323615,
				"element": "C" 
			},
			{
				"x": -0.4243744579,
				"y": 3.6214920862,
				"z": -5.5099865698,
				"element": "O" 
			},
			{
				"x": -0.7372384136,
				"y": 2.7049303636,
				"z": -4.5616366091,
				"element": "C" 
			},
			{
				"x": -1.9481108387,
				"y": 2.6686131597,
				"z": -3.856255391,
				"element": "C" 
			},
			{
				"x": -2.1509285977,
				"y": 1.6745424238,
				"z": -2.9010861259,
				"element": "C" 
			},
			{
				"x": -1.1709987589,
				"y": 0.7089093483,
				"z": -2.6320614145,
				"element": "C" 
			},
			{
				"x": -1.4367877156,
				"y": -0.3164372234,
				"z": -1.6339145907,
				"element": "C" 
			},
			{
				"x": -0.594627738,
				"y": -1.2623889824,
				"z": -1.3948828277,
				"element": "N" 
			},
			{
				"x": -0.9312604883,
				"y": -2.1674684865,
				"z": -0.4018932745,
				"element": "N" 
			},
			{
				"x": -0.5997899716,
				"y": -3.4981847671,
				"z": -0.49370065,
				"element": "C" 
			},
			{
				"x": 0.1508034365,
				"y": -4.16231786,
				"z": -1.9419518408,
				"element": "S" 
			},
			{
				"x": -0.9400314499,
				"y": -4.1395054698,
				"z": 0.597149422,
				"element": "N" 
			},
			{
				"x": -1.4778090222,
				"y": -3.1993677694,
				"z": 1.4600180147,
				"element": "N" 
			},
			{
				"x": -1.4714181936,
				"y": -2.0277740732,
				"z": 0.8724899711,
				"element": "C" 
			},
			{
				"x": -1.9274281641,
				"y": -0.7436209009,
				"z": 1.4959828788,
				"element": "C" 
			},
			{
				"x": -1.7952084754,
				"y": -0.7366168342,
				"z": 3.034293486,
				"element": "C" 
			},
			{
				"x": -0.4291853951,
				"y": -0.5724473295,
				"z": 3.5010504269,
				"element": "N" 
			},
			{
				"x": 0.3770569514,
				"y": -1.4955045174,
				"z": 4.1644365972,
				"element": "C" 
			},
			{
				"x": -0.0980976805,
				"y": -2.8597329573,
				"z": 4.5431444132,
				"element": "C" 
			},
			{
				"x": 1.5695065595,
				"y": -1.0227473265,
				"z": 4.4433001029,
				"element": "N" 
			},
			{
				"x": 1.5761380877,
				"y": 0.276263992,
				"z": 3.959667126,
				"element": "C" 
			},
			{
				"x": 2.5866204732,
				"y": 1.2433996043,
				"z": 3.9985735581,
				"element": "C" 
			},
			{
				"x": 2.3192449868,
				"y": 2.4976371445,
				"z": 3.4547227478,
				"element": "C" 
			},
			{
				"x": 1.0674940128,
				"y": 2.7950192404,
				"z": 2.8839729305,
				"element": "C" 
			},
			{
				"x": 0.0477085443,
				"y": 1.8443271839,
				"z": 2.8322096661,
				"element": "C" 
			},
			{
				"x": 0.3273517629,
				"y": 0.5860486873,
				"z": 3.3710644903,
				"element": "C" 
			},
			{
				"x": 0.0450080506,
				"y": 0.7619419795,
				"z": -3.3479799235,
				"element": "C" 
			},
			{
				"x": 0.2574337308,
				"y": 1.7418085975,
				"z": -4.2976684399,
				"element": "C" 
			},
			{
				"x": -2.3065852015,
				"y": 4.1941354022,
				"z": -6.2155601156,
				"element": "H" 
			},
			{
				"x": -1.6049793956,
				"y": 5.2549619542,
				"z": -4.9565732355,
				"element": "H" 
			},
			{
				"x": -0.9158379596,
				"y": 5.2425664862,
				"z": -6.6020800265,
				"element": "H" 
			},
			{
				"x": -2.7257693063,
				"y": 3.3992381169,
				"z": -4.0415264711,
				"element": "H" 
			},
			{
				"x": -3.0922577607,
				"y": 1.6490355123,
				"z": -2.357430016,
				"element": "H" 
			},
			{
				"x": -2.393748771,
				"y": -0.2524081439,
				"z": -1.1081237858,
				"element": "H" 
			},
			{
				"x": 0.1905112087,
				"y": -5.403281329,
				"z": -1.41869142,
				"element": "H" 
			},
			{
				"x": -2.9826943769,
				"y": -0.5605454084,
				"z": 1.250410772,
				"element": "H" 
			},
			{
				"x": -1.3583918558,
				"y": 0.0930635033,
				"z": 1.0788677592,
				"element": "H" 
			},
			{
				"x": -2.4003193658,
				"y": 0.0880804946,
				"z": 3.4289891477,
				"element": "H" 
			},
			{
				"x": -2.1924425782,
				"y": -1.6676109453,
				"z": 3.4393898965,
				"element": "H" 
			},
			{
				"x": -0.498523854,
				"y": -3.4024455259,
				"z": 3.6817270091,
				"element": "H" 
			},
			{
				"x": -0.8867037984,
				"y": -2.8080114911,
				"z": 5.3046648356,
				"element": "H" 
			},
			{
				"x": 0.7464341992,
				"y": -3.4062996399,
				"z": 4.9637992522,
				"element": "H" 
			},
			{
				"x": 3.5462198004,
				"y": 1.0099386897,
				"z": 4.4488121889,
				"element": "H" 
			},
			{
				"x": 3.0874167873,
				"y": 3.2652693493,
				"z": 3.4738642082,
				"element": "H" 
			},
			{
				"x": 0.8893985585,
				"y": 3.7862015585,
				"z": 2.4769399173,
				"element": "H" 
			},
			{
				"x": -0.918978071,
				"y": 2.0893966669,
				"z": 2.4016843708,
				"element": "H" 
			},
			{
				"x": 0.810490003,
				"y": 0.0225160112,
				"z": -3.1390957434,
				"element": "H" 
			},
			{
				"x": 1.1863858689,
				"y": 1.7966655356,
				"z": -4.8551943564,
				"element": "H" 
			}
		],
		 "valence_orbital": [ 
			{
				"type": "occ",
				"energy": -0.25304,
				"method": "rhf"
			},
			{
				"type": "occ",
				"energy": -0.23506,
				"method": "rhf"
			},
			{
				"type": "occ",
				"energy": -0.22818,
				"method": "rhf"
			},
			{
				"type": "occ",
				"energy": -0.21443,
				"method": "rhf"
			},
			{
				"type": "occ",
				"energy": -0.20897,
				"method": "rhf"
			},
			{
				"type": "unocc",
				"energy": -0.07255,
				"method": "rhf"
			},
			{
				"type": "unocc",
				"energy": -0.0242,
				"method": "rhf"
			},
			{
				"type": "unocc",
				"energy": -0.00382,
				"method": "rhf"
			},
			{
				"type": "unocc",
				"energy": 0.01418,
				"method": "rhf"
			},
			{
				"type": "unocc",
				"energy": 0.01649,
				"method": "rhf"
			}
		],
		"cosmo_sigma_profile": { 
			"-0.025": 0.0,
			"-0.024": 0.0,
			"-0.023": 0.0,
			"-0.022": 0.0,
			"-0.021": 0.0,
			"-0.02": 0.0,
			"-0.019": 0.0,
			"-0.018": 0.0,
			"-0.017": 0.0,
			"-0.016": 0.0,
			"-0.015": 0.0,
			"-0.014": 0.0,
			"-0.013": 0.0066557872764,
			"-0.012": 0.93105030901,
			"-0.011": 1.96261645505,
			"-0.01": 2.23558224333,
			"-0.009": 5.68735031552,
			"-0.008": 5.94988950372,
			"-0.007": 16.6262476969,
			"-0.006": 31.6829543509,
			"-0.005": 36.3224069597,
			"-0.004": 32.5631679639,
			"-0.003": 29.924741232,
			"-0.002": 25.4575087323,
			"-0.001": 25.8918495331,
			"0.0": 26.3612153931,
			"0.001": 26.4607620089,
			"0.002": 30.5153611368,
			"0.003": 31.6247047533,
			"0.004": 24.1023363258,
			"0.005": 20.6773100007,
			"0.006": 17.1226261287,
			"0.007": 9.42744479925,
			"0.008": 6.10529040908,
			"0.009": 5.28687570498,
			"0.01": 2.62180990125,
			"0.011": 3.68403753989,
			"0.012": 3.80898795625,
			"0.013": 3.85229083179,
			"0.014": 2.41018272693,
			"0.015": 1.92590955508,
			"0.016": 1.84937604454,
			"0.017": 1.16692996698,
			"0.018": 0.586893108276,
			"0.019": 0.0778938076281,
			"0.02": 0.0,
			"0.021": 0.0,
			"0.022": 0.0,
			"0.023": 0.0,
			"0.024": 0.0,
			"0.025": 0.0
		}
	}
}
