{
	 "smiles": "CC(CC1=C(C)NN=C1C)C(O)=O", 
	 "Tm": 444.15, 
	 "num_atms": 27, 
	 "gaussian": { 
		 "optdone": 1, 
		 "sigma_profile": "yes", 
		 "theory": "DFT", 
		 "functional": "B3LYP", 
		 "basiset": "6-31G**", 
		 "properties": { 
			 "R2extent": 3549.7522, 
			 "electric_dipole_moment_norm": 3.73085249909, 
			 "electric_quadrupole_moment_norm": 6.48095143864, 
			 "total_energy": -611.363555932, 
			 "HOMO_LUMO_gap": 0.23743, 
			 "cosmo_polarized_energy": -15.56, 
			 "cosmo_cavitation_energy": 30.33, 
			 "cosmo_dispersion_energy": -20.75, 
			 "cosmo_repulsion_energy": 1.68, 
			 "cosmo_total_nonelectrostatic_energy": 11.26, 
			 "SMD_solvation_energy": 5.42 
		},
		"coords": [
			{
				"x": 2.7882007116,
				"y": -0.7803998205,
				"z": 1.449560338,
				"element": "C" 
			},
			{
				"x": 1.5022228695,
				"y": -0.9790764535,
				"z": 2.2675021253,
				"element": "C" 
			},
			{
				"x": 0.2459127275,
				"y": -1.1664199437,
				"z": 1.3658854725,
				"element": "C" 
			},
			{
				"x": -0.0885299992,
				"y": 0.0293490913,
				"z": 0.5218260467,
				"element": "C" 
			},
			{
				"x": 0.1554284546,
				"y": 0.2140051104,
				"z": -0.8335277646,
				"element": "C" 
			},
			{
				"x": 0.8099531814,
				"y": -0.6530663314,
				"z": -1.8625948885,
				"element": "C" 
			},
			{
				"x": -0.3421936137,
				"y": 1.4459847805,
				"z": -1.1320545958,
				"element": "N" 
			},
			{
				"x": -0.8988744066,
				"y": 2.0780344244,
				"z": -0.0729171395,
				"element": "N" 
			},
			{
				"x": -0.7473872089,
				"y": 1.2249325963,
				"z": 0.9386269912,
				"element": "C" 
			},
			{
				"x": -1.2628583054,
				"y": 1.5730742995,
				"z": 2.3023834571,
				"element": "C" 
			},
			{
				"x": 1.6320400955,
				"y": -2.1543087737,
				"z": 3.2192316531,
				"element": "C" 
			},
			{
				"x": 1.8814855211,
				"y": -3.320301711,
				"z": 2.5655075838,
				"element": "O" 
			},
			{
				"x": 1.520468051,
				"y": -2.1071149055,
				"z": 4.4249296069,
				"element": "O" 
			},
			{
				"x": 3.6522297974,
				"y": -0.623174157,
				"z": 2.1027581362,
				"element": "H" 
			},
			{
				"x": 2.9913022142,
				"y": -1.6530287522,
				"z": 0.8217046161,
				"element": "H" 
			},
			{
				"x": 2.6859285002,
				"y": 0.0973055552,
				"z": 0.8057808762,
				"element": "H" 
			},
			{
				"x": 1.3449317641,
				"y": -0.1086889837,
				"z": 2.9111890192,
				"element": "H" 
			},
			{
				"x": -0.6083133907,
				"y": -1.4026404239,
				"z": 2.0134015182,
				"element": "H" 
			},
			{
				"x": 0.4045198066,
				"y": -2.047612364,
				"z": 0.7343024557,
				"element": "H" 
			},
			{
				"x": 0.8274777804,
				"y": -1.6940174338,
				"z": -1.5308485211,
				"element": "H" 
			},
			{
				"x": 0.2716471765,
				"y": -0.618671658,
				"z": -2.8163327018,
				"element": "H" 
			},
			{
				"x": 1.8470668908,
				"y": -0.3531026521,
				"z": -2.0559847323,
				"element": "H" 
			},
			{
				"x": -0.3530263554,
				"y": 1.9000184674,
				"z": -2.0319086908,
				"element": "H" 
			},
			{
				"x": -1.8093163581,
				"y": 2.5176759017,
				"z": 2.257671461,
				"element": "H" 
			},
			{
				"x": -1.939607575,
				"y": 0.8006010051,
				"z": 2.6859386551,
				"element": "H" 
			},
			{
				"x": -0.4523774977,
				"y": 1.6823770611,
				"z": 3.0324471147,
				"element": "H" 
			},
			{
				"x": 1.9355691684,
				"y": -4.0041339289,
				"z": 3.2541219075,
				"element": "H" 
			}
		],
		 "valence_orbital": [ 
			{
				"type": "occ",
				"energy": -0.31542,
				"method": "rhf"
			},
			{
				"type": "occ",
				"energy": -0.27658,
				"method": "rhf"
			},
			{
				"type": "occ",
				"energy": -0.26803,
				"method": "rhf"
			},
			{
				"type": "occ",
				"energy": -0.236,
				"method": "rhf"
			},
			{
				"type": "occ",
				"energy": -0.22732,
				"method": "rhf"
			},
			{
				"type": "unocc",
				"energy": 0.01011,
				"method": "rhf"
			},
			{
				"type": "unocc",
				"energy": 0.02653,
				"method": "rhf"
			},
			{
				"type": "unocc",
				"energy": 0.06259,
				"method": "rhf"
			},
			{
				"type": "unocc",
				"energy": 0.07591,
				"method": "rhf"
			},
			{
				"type": "unocc",
				"energy": 0.08138,
				"method": "rhf"
			}
		],
		"cosmo_sigma_profile": { 
			"-0.025": 0.0,
			"-0.024": 0.0,
			"-0.023": 0.0,
			"-0.022": 0.0,
			"-0.021": 0.0,
			"-0.02": 0.0,
			"-0.019": 0.0,
			"-0.018": 0.482671256017,
			"-0.017": 0.901100301342,
			"-0.016": 1.18163138867,
			"-0.015": 2.41635412509,
			"-0.014": 2.07140171704,
			"-0.013": 1.40956156774,
			"-0.012": 0.75630059427,
			"-0.011": 2.31776499996,
			"-0.01": 2.02843076438,
			"-0.009": 1.86952464224,
			"-0.008": 1.55368687226,
			"-0.007": 1.64756161485,
			"-0.006": 3.30944443054,
			"-0.005": 8.73888359039,
			"-0.004": 21.7226027824,
			"-0.003": 24.5261602154,
			"-0.002": 24.5028511286,
			"-0.001": 26.7775654628,
			"0.0": 25.0952159601,
			"0.001": 13.4219907159,
			"0.002": 7.75829247437,
			"0.003": 7.2042973762,
			"0.004": 7.20507013669,
			"0.005": 7.41473866258,
			"0.006": 6.80411617015,
			"0.007": 5.61710288505,
			"0.008": 3.96753105376,
			"0.009": 2.63625321571,
			"0.01": 3.36907729519,
			"0.011": 5.5027157748,
			"0.012": 6.00490903332,
			"0.013": 3.09445200207,
			"0.014": 1.02173637445,
			"0.015": 0.901224498112,
			"0.016": 1.08849449575,
			"0.017": 0.765791008418,
			"0.018": 0.0523752604118,
			"0.019": 0.0,
			"0.02": 0.0,
			"0.021": 0.0,
			"0.022": 0.0,
			"0.023": 0.0,
			"0.024": 0.0,
			"0.025": 0.0
		}
	}
}
