{
	 "smiles": "CNC(=O)OC1=CC=CC2=C1OC(C)(C)C2", 
	 "Tm": 424.15, 
	 "num_atms": 31, 
	 "gaussian": { 
		 "optdone": 1, 
		 "sigma_profile": "yes", 
		 "theory": "DFT", 
		 "functional": "B3LYP", 
		 "basiset": "6-31G**", 
		 "properties": { 
			 "R2extent": 4070.1697, 
			 "electric_dipole_moment_norm": 1.97309802595, 
			 "electric_quadrupole_moment_norm": 14.2045340941, 
			 "total_energy": -746.76397352, 
			 "HOMO_LUMO_gap": 0.20888, 
			 "cosmo_polarized_energy": -14.23, 
			 "cosmo_cavitation_energy": 34.18, 
			 "cosmo_dispersion_energy": -23.65, 
			 "cosmo_repulsion_energy": 1.89, 
			 "cosmo_total_nonelectrostatic_energy": 12.42, 
			 "SMD_solvation_energy": 6.54 
		},
		"coords": [
			{
				"x": 0.7414153368,
				"y": -3.4835038775,
				"z": 3.1673096962,
				"element": "C" 
			},
			{
				"x": 0.4909889887,
				"y": -2.0833756054,
				"z": 3.4714627294,
				"element": "N" 
			},
			{
				"x": 0.8321351043,
				"y": -1.0253139633,
				"z": 2.6829961086,
				"element": "C" 
			},
			{
				"x": 0.4875613622,
				"y": 0.1233170568,
				"z": 2.8625289941,
				"element": "O" 
			},
			{
				"x": 1.6644877207,
				"y": -1.4467341095,
				"z": 1.6659904818,
				"element": "O" 
			},
			{
				"x": 2.0308150751,
				"y": -0.4946855578,
				"z": 0.7213453533,
				"element": "C" 
			},
			{
				"x": 3.3655652406,
				"y": -0.110026669,
				"z": 0.6047652723,
				"element": "C" 
			},
			{
				"x": 3.7584895238,
				"y": 0.8025408013,
				"z": -0.3784092865,
				"element": "C" 
			},
			{
				"x": 2.814234008,
				"y": 1.3511774001,
				"z": -1.2554636999,
				"element": "C" 
			},
			{
				"x": 1.4836274282,
				"y": 0.96478604,
				"z": -1.1382753498,
				"element": "C" 
			},
			{
				"x": 1.0995357644,
				"y": 0.0387144093,
				"z": -0.1670118242,
				"element": "C" 
			},
			{
				"x": -0.2223360816,
				"y": -0.2695334279,
				"z": -0.1858240501,
				"element": "O" 
			},
			{
				"x": -0.8968954504,
				"y": 0.705278257,
				"z": -1.0635729362,
				"element": "C" 
			},
			{
				"x": -1.5470000415,
				"y": 1.7428799329,
				"z": -0.1463369414,
				"element": "C" 
			},
			{
				"x": -1.9226603443,
				"y": -0.0717513405,
				"z": -1.8794218791,
				"element": "C" 
			},
			{
				"x": 0.2457243135,
				"y": 1.3276130287,
				"z": -1.9243240182,
				"element": "C" 
			},
			{
				"x": 0.1147454756,
				"y": -3.8567523362,
				"z": 2.3474751355,
				"element": "H" 
			},
			{
				"x": 0.5355799797,
				"y": -4.0753088387,
				"z": 4.0622948031,
				"element": "H" 
			},
			{
				"x": 1.7875299414,
				"y": -3.6270177182,
				"z": 2.8914242602,
				"element": "H" 
			},
			{
				"x": -0.1918118023,
				"y": -1.8485230576,
				"z": 4.1749682851,
				"element": "H" 
			},
			{
				"x": 4.0860759651,
				"y": -0.5312059637,
				"z": 1.2985528438,
				"element": "H" 
			},
			{
				"x": 4.8017153261,
				"y": 1.0928141247,
				"z": -0.4521616371,
				"element": "H" 
			},
			{
				"x": 3.1195952653,
				"y": 2.0665510322,
				"z": -2.0139971516,
				"element": "H" 
			},
			{
				"x": -0.7878269638,
				"y": 2.2452199802,
				"z": 0.4598399598,
				"element": "H" 
			},
			{
				"x": -2.0820860533,
				"y": 2.4959634553,
				"z": -0.7350511811,
				"element": "H" 
			},
			{
				"x": -2.2549853417,
				"y": 1.2592203295,
				"z": 0.5320266798,
				"element": "H" 
			},
			{
				"x": -1.4328884759,
				"y": -0.8451879534,
				"z": -2.4780946863,
				"element": "H" 
			},
			{
				"x": -2.4607099498,
				"y": 0.6016035504,
				"z": -2.5546371141,
				"element": "H" 
			},
			{
				"x": -2.652442858,
				"y": -0.5537628114,
				"z": -1.2222643928,
				"element": "H" 
			},
			{
				"x": 0.269502205,
				"y": 0.8882080457,
				"z": -2.9302687271,
				"element": "H" 
			},
			{
				"x": 0.1103193383,
				"y": 2.4075957858,
				"z": -2.0438657274,
				"element": "H" 
			}
		],
		 "valence_orbital": [ 
			{
				"type": "occ",
				"energy": -0.29975,
				"method": "rhf"
			},
			{
				"type": "occ",
				"energy": -0.26504,
				"method": "rhf"
			},
			{
				"type": "occ",
				"energy": -0.24915,
				"method": "rhf"
			},
			{
				"type": "occ",
				"energy": -0.23462,
				"method": "rhf"
			},
			{
				"type": "occ",
				"energy": -0.2054,
				"method": "rhf"
			},
			{
				"type": "unocc",
				"energy": 0.00348,
				"method": "rhf"
			},
			{
				"type": "unocc",
				"energy": 0.01969,
				"method": "rhf"
			},
			{
				"type": "unocc",
				"energy": 0.05992,
				"method": "rhf"
			},
			{
				"type": "unocc",
				"energy": 0.08044,
				"method": "rhf"
			},
			{
				"type": "unocc",
				"energy": 0.09041,
				"method": "rhf"
			}
		],
		"cosmo_sigma_profile": { 
			"-0.025": 0.0,
			"-0.024": 0.0,
			"-0.023": 0.0,
			"-0.022": 0.0,
			"-0.021": 0.0,
			"-0.02": 0.0,
			"-0.019": 0.0,
			"-0.018": 0.0,
			"-0.017": 0.0,
			"-0.016": 0.0,
			"-0.015": 0.060186952087,
			"-0.014": 1.30791235922,
			"-0.013": 0.91153421602,
			"-0.012": 1.34676815418,
			"-0.011": 1.16712475073,
			"-0.01": 0.880973001335,
			"-0.009": 0.583630267892,
			"-0.008": 1.23433905041,
			"-0.007": 1.70635960646,
			"-0.006": 6.91322677652,
			"-0.005": 13.8917602265,
			"-0.004": 30.5319370635,
			"-0.003": 32.6001886675,
			"-0.002": 31.5114248552,
			"-0.001": 22.777275195,
			"0.0": 22.2100726211,
			"0.001": 13.8951235647,
			"0.002": 12.849677598,
			"0.003": 12.4173470355,
			"0.004": 12.2560969312,
			"0.005": 12.5062591448,
			"0.006": 8.31325291176,
			"0.007": 4.24998179695,
			"0.008": 3.1943700236,
			"0.009": 4.57513627807,
			"0.01": 4.60664823059,
			"0.011": 2.45557407023,
			"0.012": 2.4711519807,
			"0.013": 4.73271203072,
			"0.014": 1.05511044353,
			"0.015": 0.0,
			"0.016": 0.0,
			"0.017": 0.0,
			"0.018": 0.0,
			"0.019": 0.0,
			"0.02": 0.0,
			"0.021": 0.0,
			"0.022": 0.0,
			"0.023": 0.0,
			"0.024": 0.0,
			"0.025": 0.0
		}
	}
}
