{
	 "smiles": "CC1=CC(Cl)=C(NC2=NN=C(S)S2)C(C)=C1", 
	 "Tm": 472.15, 
	 "num_atms": 26, 
	 "gaussian": { 
		 "optdone": 1, 
		 "sigma_profile": "yes", 
		 "theory": "DFT", 
		 "functional": "B3LYP", 
		 "basiset": "6-31G**", 
		 "properties": { 
			 "R2extent": 6853.1514, 
			 "electric_dipole_moment_norm": 3.40659374449, 
			 "electric_quadrupole_moment_norm": 17.524708995, 
			 "total_energy": -1807.88361261, 
			 "HOMO_LUMO_gap": 0.1811, 
			 "cosmo_polarized_energy": -14.48, 
			 "cosmo_cavitation_energy": 35.29, 
			 "cosmo_dispersion_energy": -26.2, 
			 "cosmo_repulsion_energy": 1.96, 
			 "cosmo_total_nonelectrostatic_energy": 11.05, 
			 "SMD_solvation_energy": 3.34 
		},
		"coords": [
			{
				"x": -1.5760918628,
				"y": -3.9364112435,
				"z": -0.8285654206,
				"element": "C" 
			},
			{
				"x": -0.8227102303,
				"y": -2.6998569599,
				"z": -0.3996377819,
				"element": "C" 
			},
			{
				"x": -0.9870558656,
				"y": -2.1724493238,
				"z": 0.8841590588,
				"element": "C" 
			},
			{
				"x": -0.318648344,
				"y": -1.007148349,
				"z": 1.2424336425,
				"element": "C" 
			},
			{
				"x": -0.5483064926,
				"y": -0.3772565619,
				"z": 2.8753989986,
				"element": "Cl" 
			},
			{
				"x": 0.5384259555,
				"y": -0.3366657549,
				"z": 0.3556391391,
				"element": "C" 
			},
			{
				"x": 1.2437587817,
				"y": 0.816711519,
				"z": 0.796296697,
				"element": "N" 
			},
			{
				"x": 1.0728846769,
				"y": 2.0640968281,
				"z": 0.2447513445,
				"element": "C" 
			},
			{
				"x": 0.3463606488,
				"y": 2.3325700571,
				"z": -0.8087065761,
				"element": "N" 
			},
			{
				"x": 0.4258502003,
				"y": 3.6442999452,
				"z": -1.1897145977,
				"element": "N" 
			},
			{
				"x": 1.1814539729,
				"y": 4.3696963486,
				"z": -0.427022595,
				"element": "C" 
			},
			{
				"x": 1.3137587315,
				"y": 6.1232414517,
				"z": -0.6193914144,
				"element": "S" 
			},
			{
				"x": 1.9256104164,
				"y": 3.4644237752,
				"z": 0.9064759205,
				"element": "S" 
			},
			{
				"x": 0.7453135218,
				"y": -0.8837537539,
				"z": -0.9277440525,
				"element": "C" 
			},
			{
				"x": 1.708613353,
				"y": -0.2572054824,
				"z": -1.9013269852,
				"element": "C" 
			},
			{
				"x": 0.047340394,
				"y": -2.0438305128,
				"z": -1.2764915597,
				"element": "C" 
			},
			{
				"x": -2.5301276022,
				"y": -3.671430792,
				"z": -1.3007725593,
				"element": "H" 
			},
			{
				"x": -1.8022636233,
				"y": -4.5845819418,
				"z": 0.023010179,
				"element": "H" 
			},
			{
				"x": -1.0036768243,
				"y": -4.5187234827,
				"z": -1.5566596199,
				"element": "H" 
			},
			{
				"x": -1.6373217191,
				"y": -2.6565779348,
				"z": 1.6049238994,
				"element": "H" 
			},
			{
				"x": 1.4464050947,
				"y": 0.8216232469,
				"z": 1.7875726166,
				"element": "H" 
			},
			{
				"x": 2.6543016448,
				"y": 6.1935644514,
				"z": -0.4802370762,
				"element": "H" 
			},
			{
				"x": 2.6306781962,
				"y": 0.0526597925,
				"z": -1.3987318045,
				"element": "H" 
			},
			{
				"x": 1.2716268675,
				"y": 0.638279152,
				"z": -2.3541973244,
				"element": "H" 
			},
			{
				"x": 1.9668547347,
				"y": -0.9634097806,
				"z": -2.6943016173,
				"element": "H" 
			},
			{
				"x": 0.2076653735,
				"y": -2.4596646937,
				"z": -2.2681605113,
				"element": "H" 
			}
		],
		 "valence_orbital": [ 
			{
				"type": "occ",
				"energy": -0.28251,
				"method": "rhf"
			},
			{
				"type": "occ",
				"energy": -0.26798,
				"method": "rhf"
			},
			{
				"type": "occ",
				"energy": -0.25222,
				"method": "rhf"
			},
			{
				"type": "occ",
				"energy": -0.24847,
				"method": "rhf"
			},
			{
				"type": "occ",
				"energy": -0.22217,
				"method": "rhf"
			},
			{
				"type": "unocc",
				"energy": -0.04107,
				"method": "rhf"
			},
			{
				"type": "unocc",
				"energy": -0.01815,
				"method": "rhf"
			},
			{
				"type": "unocc",
				"energy": -0.01415,
				"method": "rhf"
			},
			{
				"type": "unocc",
				"energy": -0.01266,
				"method": "rhf"
			},
			{
				"type": "unocc",
				"energy": 0.01757,
				"method": "rhf"
			}
		],
		"cosmo_sigma_profile": { 
			"-0.025": 0.0,
			"-0.024": 0.0,
			"-0.023": 0.0,
			"-0.022": 0.0,
			"-0.021": 0.0,
			"-0.02": 0.0,
			"-0.019": 0.0,
			"-0.018": 0.0,
			"-0.017": 0.0,
			"-0.016": 0.0,
			"-0.015": 0.473336312464,
			"-0.014": 1.06042441846,
			"-0.013": 1.16002171747,
			"-0.012": 2.81411335995,
			"-0.011": 3.99528032684,
			"-0.01": 3.05986022865,
			"-0.009": 3.16553173827,
			"-0.008": 2.91637943585,
			"-0.007": 3.10652196981,
			"-0.006": 6.24609417078,
			"-0.005": 12.1723547037,
			"-0.004": 16.808816209,
			"-0.003": 15.8321797761,
			"-0.002": 24.1778379207,
			"-0.001": 32.8936995217,
			"0.0": 33.8299313371,
			"0.001": 27.3927972913,
			"0.002": 22.0935129885,
			"0.003": 20.5528512006,
			"0.004": 19.6183122405,
			"0.005": 7.92476351276,
			"0.006": 5.00686079042,
			"0.007": 4.72952692011,
			"0.008": 3.12834112543,
			"0.009": 2.76412499776,
			"0.01": 2.59124015015,
			"0.011": 2.94250695575,
			"0.012": 2.68642029459,
			"0.013": 2.47266916279,
			"0.014": 1.18714326508,
			"0.015": 0.188757238393,
			"0.016": 0.0,
			"0.017": 0.0,
			"0.018": 0.0,
			"0.019": 0.0,
			"0.02": 0.0,
			"0.021": 0.0,
			"0.022": 0.0,
			"0.023": 0.0,
			"0.024": 0.0,
			"0.025": 0.0
		}
	}
}
