{
	 "smiles": "O1C=CN=C1", 
	 "Tm": 187.15, 
	 "num_atms": 8, 
	 "gaussian": { 
		 "optdone": 1, 
		 "sigma_profile": "yes", 
		 "theory": "DFT", 
		 "functional": "B3LYP", 
		 "basiset": "6-31G**", 
		 "properties": { 
			 "R2extent": 469.6578, 
			 "electric_dipole_moment_norm": 1.52396101, 
			 "electric_quadrupole_moment_norm": 4.04131201344, 
			 "total_energy": -246.069916844, 
			 "HOMO_LUMO_gap": 0.25081, 
			 "cosmo_polarized_energy": -5.97, 
			 "cosmo_cavitation_energy": 12.11, 
			 "cosmo_dispersion_energy": -9.27, 
			 "cosmo_repulsion_energy": 0.81, 
			 "cosmo_total_nonelectrostatic_energy": 3.65, 
			 "SMD_solvation_energy": 2.36 
		},
		"coords": [
			{
				"x": -0.9108327007,
				"y": 1.0560474161,
				"z": -1.9336153231,
				"element": "O" 
			},
			{
				"x": -1.3594177691,
				"y": 1.0175921005,
				"z": -0.6392603466,
				"element": "C" 
			},
			{
				"x": -0.5508634174,
				"y": 0.1780823363,
				"z": 0.0547168472,
				"element": "C" 
			},
			{
				"x": 0.4249717974,
				"y": -0.3276769996,
				"z": -0.7979500128,
				"element": "N" 
			},
			{
				"x": 0.1598510928,
				"y": 0.2220430545,
				"z": -1.9395025442,
				"element": "C" 
			},
			{
				"x": -2.2215635301,
				"y": 1.6205452831,
				"z": -0.4059795767,
				"element": "H" 
			},
			{
				"x": -0.5959791053,
				"y": -0.0997616081,
				"z": 1.0974943606,
				"element": "H" 
			},
			{
				"x": 0.6765336325,
				"y": 0.1011284171,
				"z": -2.8802034044,
				"element": "H" 
			}
		],
		 "valence_orbital": [ 
			{
				"type": "occ",
				"energy": -0.42862,
				"method": "rhf"
			},
			{
				"type": "occ",
				"energy": -0.39944,
				"method": "rhf"
			},
			{
				"type": "occ",
				"energy": -0.32175,
				"method": "rhf"
			},
			{
				"type": "occ",
				"energy": -0.29065,
				"method": "rhf"
			},
			{
				"type": "occ",
				"energy": -0.25185,
				"method": "rhf"
			},
			{
				"type": "unocc",
				"energy": -0.00104,
				"method": "rhf"
			},
			{
				"type": "unocc",
				"energy": 0.05412,
				"method": "rhf"
			},
			{
				"type": "unocc",
				"energy": 0.11873,
				"method": "rhf"
			},
			{
				"type": "unocc",
				"energy": 0.13696,
				"method": "rhf"
			},
			{
				"type": "unocc",
				"energy": 0.14047,
				"method": "rhf"
			}
		],
		"cosmo_sigma_profile": { 
			"-0.025": 0.0,
			"-0.024": 0.0,
			"-0.023": 0.0,
			"-0.022": 0.0,
			"-0.021": 0.0,
			"-0.02": 0.0,
			"-0.019": 0.0,
			"-0.018": 0.0,
			"-0.017": 0.0,
			"-0.016": 0.0,
			"-0.015": 0.0,
			"-0.014": 0.0,
			"-0.013": 0.0,
			"-0.012": 0.0,
			"-0.011": 0.731302064509,
			"-0.01": 3.83119638473,
			"-0.009": 2.85403010863,
			"-0.008": 4.902744848,
			"-0.007": 4.47790412915,
			"-0.006": 3.77823515917,
			"-0.005": 4.82904534428,
			"-0.004": 4.05294045035,
			"-0.003": 4.77073929841,
			"-0.002": 5.78411551032,
			"-0.001": 5.42158417428,
			"0.0": 7.21968129688,
			"0.001": 7.31134438372,
			"0.002": 7.08965828672,
			"0.003": 7.51568003336,
			"0.004": 4.29856509643,
			"0.005": 3.02539973231,
			"0.006": 2.3420086986,
			"0.007": 3.63380168934,
			"0.008": 1.72439547856,
			"0.009": 1.1816048791,
			"0.01": 0.937109347756,
			"0.011": 1.09313133272,
			"0.012": 1.43876661996,
			"0.013": 0.850751839462,
			"0.014": 1.4130930171,
			"0.015": 0.906004176414,
			"0.016": 0.721235681641,
			"0.017": 0.0651300820701,
			"0.018": 0.0,
			"0.019": 0.0,
			"0.02": 0.0,
			"0.021": 0.0,
			"0.022": 0.0,
			"0.023": 0.0,
			"0.024": 0.0,
			"0.025": 0.0
		}
	}
}
