{
	 "smiles": "NC(C(O)C1=CC=CC=C1)C1=CC=CC=C1", 
	 "Tm": 416.15, 
	 "num_atms": 31, 
	 "gaussian": { 
		 "optdone": 1, 
		 "sigma_profile": "yes", 
		 "theory": "DFT", 
		 "functional": "B3LYP", 
		 "basiset": "6-31G**", 
		 "properties": { 
			 "R2extent": 4937.2818, 
			 "electric_dipole_moment_norm": 2.83018805206, 
			 "electric_quadrupole_moment_norm": 7.09447004998, 
			 "total_energy": -672.502888197, 
			 "HOMO_LUMO_gap": 0.23006, 
			 "cosmo_polarized_energy": -10.36, 
			 "cosmo_cavitation_energy": 33.45, 
			 "cosmo_dispersion_energy": -23.91, 
			 "cosmo_repulsion_energy": 1.86, 
			 "cosmo_total_nonelectrostatic_energy": 11.39, 
			 "SMD_solvation_energy": 4.97 
		},
		"coords": [
			{
				"x": -1.8378368668,
				"y": -1.3230113278,
				"z": -0.5947888551,
				"element": "N" 
			},
			{
				"x": -1.2394377772,
				"y": -0.4975576983,
				"z": 0.4776777503,
				"element": "C" 
			},
			{
				"x": -0.9136000937,
				"y": 0.8879619617,
				"z": -0.177062502,
				"element": "C" 
			},
			{
				"x": -2.0043604682,
				"y": 1.2854326779,
				"z": -0.9859982431,
				"element": "O" 
			},
			{
				"x": 0.3979793042,
				"y": 0.827951345,
				"z": -0.9612206254,
				"element": "C" 
			},
			{
				"x": 1.6173148332,
				"y": 0.6697380132,
				"z": -0.2859457889,
				"element": "C" 
			},
			{
				"x": 2.8185722684,
				"y": 0.5926777638,
				"z": -0.9897239391,
				"element": "C" 
			},
			{
				"x": 2.8192210646,
				"y": 0.6749731077,
				"z": -2.384825141,
				"element": "C" 
			},
			{
				"x": 1.6123194028,
				"y": 0.843272249,
				"z": -3.0639505084,
				"element": "C" 
			},
			{
				"x": 0.4100582799,
				"y": 0.9223963254,
				"z": -2.3562742671,
				"element": "C" 
			},
			{
				"x": -2.1903604863,
				"y": -0.4191940484,
				"z": 1.6615291488,
				"element": "C" 
			},
			{
				"x": -3.3455532614,
				"y": 0.3778882586,
				"z": 1.6452561831,
				"element": "C" 
			},
			{
				"x": -4.204218132,
				"y": 0.399839817,
				"z": 2.7447998884,
				"element": "C" 
			},
			{
				"x": -3.9293432293,
				"y": -0.3747907985,
				"z": 3.8739575222,
				"element": "C" 
			},
			{
				"x": -2.7838708902,
				"y": -1.1709894474,
				"z": 3.900626608,
				"element": "C" 
			},
			{
				"x": -1.9233093805,
				"y": -1.1898875554,
				"z": 2.8015922172,
				"element": "C" 
			},
			{
				"x": -1.1115978886,
				"y": -1.6800296015,
				"z": -1.2119389508,
				"element": "H" 
			},
			{
				"x": -2.3346304019,
				"y": -2.1161266812,
				"z": -0.2020781471,
				"element": "H" 
			},
			{
				"x": -0.29584407,
				"y": -0.9249201554,
				"z": 0.8439868912,
				"element": "H" 
			},
			{
				"x": -0.8062505467,
				"y": 1.6278982368,
				"z": 0.6258075824,
				"element": "H" 
			},
			{
				"x": -2.3884399869,
				"y": 0.4325625241,
				"z": -1.2796553405,
				"element": "H" 
			},
			{
				"x": 1.6290702464,
				"y": 0.6172043433,
				"z": 0.8010035161,
				"element": "H" 
			},
			{
				"x": 3.7544728481,
				"y": 0.4744240639,
				"z": -0.4504070643,
				"element": "H" 
			},
			{
				"x": 3.7542471014,
				"y": 0.6171100845,
				"z": -2.9348136147,
				"element": "H" 
			},
			{
				"x": 1.6046072946,
				"y": 0.9203562728,
				"z": -4.1479255506,
				"element": "H" 
			},
			{
				"x": -0.5293455997,
				"y": 1.0812886922,
				"z": -2.8744927942,
				"element": "H" 
			},
			{
				"x": -3.5528124589,
				"y": 0.9899688402,
				"z": 0.7743592816,
				"element": "H" 
			},
			{
				"x": -5.0911764829,
				"y": 1.0269050035,
				"z": 2.7193923849,
				"element": "H" 
			},
			{
				"x": -4.6008468289,
				"y": -0.3547393042,
				"z": 4.7276881803,
				"element": "H" 
			},
			{
				"x": -2.5567829296,
				"y": -1.7735268736,
				"z": 4.7757041358,
				"element": "H" 
			},
			{
				"x": -1.0288448638,
				"y": -1.8084760889,
				"z": 2.8304200422,
				"element": "H" 
			}
		],
		 "valence_orbital": [ 
			{
				"type": "occ",
				"energy": -0.25677,
				"method": "rhf"
			},
			{
				"type": "occ",
				"energy": -0.24818,
				"method": "rhf"
			},
			{
				"type": "occ",
				"energy": -0.24565,
				"method": "rhf"
			},
			{
				"type": "occ",
				"energy": -0.24499,
				"method": "rhf"
			},
			{
				"type": "occ",
				"energy": -0.23701,
				"method": "rhf"
			},
			{
				"type": "unocc",
				"energy": -0.00695,
				"method": "rhf"
			},
			{
				"type": "unocc",
				"energy": -0.00152,
				"method": "rhf"
			},
			{
				"type": "unocc",
				"energy": 0.00099,
				"method": "rhf"
			},
			{
				"type": "unocc",
				"energy": 0.00587,
				"method": "rhf"
			},
			{
				"type": "unocc",
				"energy": 0.08046,
				"method": "rhf"
			}
		],
		"cosmo_sigma_profile": { 
			"-0.025": 0.0,
			"-0.024": 0.0,
			"-0.023": 0.0,
			"-0.022": 0.0,
			"-0.021": 0.0,
			"-0.02": 0.0,
			"-0.019": 0.0,
			"-0.018": 0.0,
			"-0.017": 0.0,
			"-0.016": 0.0,
			"-0.015": 0.0,
			"-0.014": 0.0,
			"-0.013": 0.0,
			"-0.012": 0.0,
			"-0.011": 0.687829103532,
			"-0.01": 1.69814335277,
			"-0.009": 2.79940391405,
			"-0.008": 2.18513979917,
			"-0.007": 2.74959715753,
			"-0.006": 6.94904162119,
			"-0.005": 23.732716176,
			"-0.004": 27.1658747162,
			"-0.003": 28.0115189903,
			"-0.002": 20.6215320123,
			"-0.001": 19.531021391,
			"0.0": 14.8888934287,
			"0.001": 14.9523917132,
			"0.002": 14.6239732133,
			"0.003": 16.6677854211,
			"0.004": 17.6545313623,
			"0.005": 18.4154231902,
			"0.006": 16.7287291704,
			"0.007": 5.3431180979,
			"0.008": 1.98794647628,
			"0.009": 1.7489075204,
			"0.01": 0.430920555971,
			"0.011": 1.18474952821,
			"0.012": 1.37603687149,
			"0.013": 0.936132994135,
			"0.014": 1.35389621356,
			"0.015": 0.611000207807,
			"0.016": 0.0,
			"0.017": 0.0,
			"0.018": 0.0,
			"0.019": 0.0,
			"0.02": 0.0,
			"0.021": 0.0,
			"0.022": 0.0,
			"0.023": 0.0,
			"0.024": 0.0,
			"0.025": 0.0
		}
	}
}
