{
	 "smiles": "COC(=O)C1=C(SC=N1)S(N)(=O)=O", 
	 "Tm": 429.15, 
	 "num_atms": 19, 
	 "gaussian": { 
		 "optdone": 1, 
		 "sigma_profile": "yes", 
		 "theory": "DFT", 
		 "functional": "B3LYP", 
		 "basiset": "6-31G**", 
		 "properties": { 
			 "R2extent": 4251.1407, 
			 "electric_dipole_moment_norm": 4.76076218793, 
			 "electric_quadrupole_moment_norm": 31.7231469519, 
			 "total_energy": -1400.81989379, 
			 "HOMO_LUMO_gap": 0.19897, 
			 "cosmo_polarized_energy": -25.55, 
			 "cosmo_cavitation_energy": 27.35, 
			 "cosmo_dispersion_energy": -20.42, 
			 "cosmo_repulsion_energy": 1.52, 
			 "cosmo_total_nonelectrostatic_energy": 8.45, 
			 "SMD_solvation_energy": 4.87 
		},
		"coords": [
			{
				"x": 1.6534206585,
				"y": -2.4908741331,
				"z": -1.004041992,
				"element": "C" 
			},
			{
				"x": 0.3406324156,
				"y": -2.0883775184,
				"z": -0.5778015166,
				"element": "O" 
			},
			{
				"x": -0.4550704739,
				"y": -3.0650152004,
				"z": -0.1189527545,
				"element": "C" 
			},
			{
				"x": -0.1795731633,
				"y": -4.2424436546,
				"z": -0.1065414357,
				"element": "O" 
			},
			{
				"x": -1.7498115665,
				"y": -2.5031296083,
				"z": 0.3806083849,
				"element": "C" 
			},
			{
				"x": -2.0109389329,
				"y": -1.2016145015,
				"z": 0.7595062757,
				"element": "C" 
			},
			{
				"x": -3.659161986,
				"y": -1.0682733188,
				"z": 1.2988019421,
				"element": "S" 
			},
			{
				"x": -3.8588406089,
				"y": -2.7713919301,
				"z": 0.9668810287,
				"element": "C" 
			},
			{
				"x": -2.8060085503,
				"y": -3.3750770967,
				"z": 0.5120726061,
				"element": "N" 
			},
			{
				"x": -0.925910494,
				"y": 0.2465336452,
				"z": 0.7671883252,
				"element": "S" 
			},
			{
				"x": -1.7901554863,
				"y": 1.4068545592,
				"z": 1.5906130183,
				"element": "N" 
			},
			{
				"x": -0.8121528195,
				"y": 0.7366517563,
				"z": -0.5996668647,
				"element": "O" 
			},
			{
				"x": 0.2193417642,
				"y": -0.0772531855,
				"z": 1.6074487229,
				"element": "O" 
			},
			{
				"x": 1.5812403951,
				"y": -3.1980849725,
				"z": -1.8336010704,
				"element": "H" 
			},
			{
				"x": 2.1928193798,
				"y": -2.9594862342,
				"z": -0.1777092857,
				"element": "H" 
			},
			{
				"x": 2.1486657121,
				"y": -1.5733721871,
				"z": -1.3174186053,
				"element": "H" 
			},
			{
				"x": -4.8116788254,
				"y": -3.2562809321,
				"z": 1.1456443786,
				"element": "H" 
			},
			{
				"x": -2.5575851646,
				"y": 1.8351788439,
				"z": 1.0880967611,
				"element": "H" 
			},
			{
				"x": -1.9217322538,
				"y": 1.2531556687,
				"z": 2.5826720813,
				"element": "H" 
			}
		],
		 "valence_orbital": [ 
			{
				"type": "occ",
				"energy": -0.31309,
				"method": "rhf"
			},
			{
				"type": "occ",
				"energy": -0.30456,
				"method": "rhf"
			},
			{
				"type": "occ",
				"energy": -0.29537,
				"method": "rhf"
			},
			{
				"type": "occ",
				"energy": -0.28379,
				"method": "rhf"
			},
			{
				"type": "occ",
				"energy": -0.27656,
				"method": "rhf"
			},
			{
				"type": "unocc",
				"energy": -0.07759,
				"method": "rhf"
			},
			{
				"type": "unocc",
				"energy": -0.0262,
				"method": "rhf"
			},
			{
				"type": "unocc",
				"energy": -0.02221,
				"method": "rhf"
			},
			{
				"type": "unocc",
				"energy": 0.02984,
				"method": "rhf"
			},
			{
				"type": "unocc",
				"energy": 0.0385,
				"method": "rhf"
			}
		],
		"cosmo_sigma_profile": { 
			"-0.025": 0.0,
			"-0.024": 0.0,
			"-0.023": 0.0,
			"-0.022": 0.0,
			"-0.021": 0.0,
			"-0.02": 0.0,
			"-0.019": 0.0,
			"-0.018": 0.0,
			"-0.017": 0.0999870022236,
			"-0.016": 2.0915517608,
			"-0.015": 2.30169854374,
			"-0.014": 3.48892165754,
			"-0.013": 2.51218491994,
			"-0.012": 4.1769543779,
			"-0.011": 5.10521358787,
			"-0.01": 3.52098168998,
			"-0.009": 4.48726511914,
			"-0.008": 4.54036434962,
			"-0.007": 5.48319480999,
			"-0.006": 10.0634144093,
			"-0.005": 12.4014828165,
			"-0.004": 15.8756952949,
			"-0.003": 15.2463721522,
			"-0.002": 16.3496750141,
			"-0.001": 11.8360255578,
			"0.0": 8.67118066624,
			"0.001": 5.32476484506,
			"0.002": 5.88224780697,
			"0.003": 5.15553946104,
			"0.004": 5.75697821234,
			"0.005": 6.35312879283,
			"0.006": 7.41551202465,
			"0.007": 6.66332063948,
			"0.008": 7.18226093328,
			"0.009": 9.50325450678,
			"0.01": 16.6783258549,
			"0.011": 10.2516207278,
			"0.012": 2.47358529435,
			"0.013": 2.25402198092,
			"0.014": 1.49923897561,
			"0.015": 0.291515164193,
			"0.016": 0.0,
			"0.017": 0.0,
			"0.018": 0.0,
			"0.019": 0.0,
			"0.02": 0.0,
			"0.021": 0.0,
			"0.022": 0.0,
			"0.023": 0.0,
			"0.024": 0.0,
			"0.025": 0.0
		}
	}
}
