{
	 "smiles": "OC(=O)C=CC1=CC=C(C=C1)S(=O)(=O)NC1=CC(=CC=C1)C(F)(F)F", 
	 "Tm": 498.15, 
	 "num_atms": 37, 
	 "gaussian": { 
		 "optdone": 1, 
		 "sigma_profile": "yes", 
		 "theory": "DFT", 
		 "functional": "B3LYP", 
		 "basiset": "6-31G**", 
		 "properties": { 
			 "R2extent": 10935.4126, 
			 "electric_dipole_moment_norm": 5.40602716327, 
			 "electric_quadrupole_moment_norm": 24.7602887192, 
			 "total_energy": -1670.2200048, 
			 "HOMO_LUMO_gap": 0.15715, 
			 "cosmo_polarized_energy": -22.97, 
			 "cosmo_cavitation_energy": 45.76, 
			 "cosmo_dispersion_energy": -30.32, 
			 "cosmo_repulsion_energy": 2.22, 
			 "cosmo_total_nonelectrostatic_energy": 17.66, 
			 "SMD_solvation_energy": 9.35 
		},
		"coords": [
			{
				"x": -2.4796322829,
				"y": 2.5085185252,
				"z": 0.074578916,
				"element": "O" 
			},
			{
				"x": -2.5117651216,
				"y": 3.8509092293,
				"z": 0.260669725,
				"element": "C" 
			},
			{
				"x": -3.5524711349,
				"y": 4.4786747055,
				"z": 0.237474406,
				"element": "O" 
			},
			{
				"x": -1.2075572146,
				"y": 4.4910588464,
				"z": 0.5421659116,
				"element": "C" 
			},
			{
				"x": 0.0565656431,
				"y": 4.024573158,
				"z": 0.4896267904,
				"element": "C" 
			},
			{
				"x": 0.6372085165,
				"y": 2.7458638626,
				"z": 0.0442719534,
				"element": "C" 
			},
			{
				"x": 1.8027547078,
				"y": 2.2988939265,
				"z": 0.6968370162,
				"element": "C" 
			},
			{
				"x": 2.4317087416,
				"y": 1.1168715638,
				"z": 0.3215738509,
				"element": "C" 
			},
			{
				"x": 1.909345061,
				"y": 0.3845873562,
				"z": -0.7471783466,
				"element": "C" 
			},
			{
				"x": 0.7810302501,
				"y": 0.8265302322,
				"z": -1.4435981721,
				"element": "C" 
			},
			{
				"x": 0.1493813671,
				"y": 2.0001680454,
				"z": -1.0431317716,
				"element": "C" 
			},
			{
				"x": 2.7103249258,
				"y": -1.1468536989,
				"z": -1.2271533706,
				"element": "S" 
			},
			{
				"x": 4.0729453483,
				"y": -1.1396709033,
				"z": -0.696805719,
				"element": "O" 
			},
			{
				"x": 2.4122833287,
				"y": -1.3783263729,
				"z": -2.6387462633,
				"element": "O" 
			},
			{
				"x": 1.9498561143,
				"y": -2.3814240178,
				"z": -0.3377762875,
				"element": "N" 
			},
			{
				"x": 0.5659378363,
				"y": -2.6772916001,
				"z": -0.3809789058,
				"element": "C" 
			},
			{
				"x": -0.1265407637,
				"y": -2.7507876131,
				"z": -1.5948959063,
				"element": "C" 
			},
			{
				"x": -1.4892110476,
				"y": -3.0555091978,
				"z": -1.5894371879,
				"element": "C" 
			},
			{
				"x": -2.1655745612,
				"y": -3.3294248307,
				"z": -0.4003514026,
				"element": "C" 
			},
			{
				"x": -1.4617920463,
				"y": -3.2810800069,
				"z": 0.8036129077,
				"element": "C" 
			},
			{
				"x": -0.1116566457,
				"y": -2.9434579271,
				"z": 0.8193374586,
				"element": "C" 
			},
			{
				"x": -2.204255495,
				"y": -3.1178732814,
				"z": -2.9142272543,
				"element": "C" 
			},
			{
				"x": -1.9490724721,
				"y": -2.0185479606,
				"z": -3.6618098698,
				"element": "F" 
			},
			{
				"x": -1.8115184491,
				"y": -4.1844898861,
				"z": -3.6441822202,
				"element": "F" 
			},
			{
				"x": -3.543888703,
				"y": -3.2034493536,
				"z": -2.7666086877,
				"element": "F" 
			},
			{
				"x": -3.4039798455,
				"y": 2.2429211323,
				"z": -0.0673537533,
				"element": "H" 
			},
			{
				"x": -1.3496295705,
				"y": 5.5138152779,
				"z": 0.8770116927,
				"element": "H" 
			},
			{
				"x": 0.8089380473,
				"y": 4.7251211129,
				"z": 0.8526564695,
				"element": "H" 
			},
			{
				"x": 2.2154383226,
				"y": 2.8869165019,
				"z": 1.51189809,
				"element": "H" 
			},
			{
				"x": 3.3323151495,
				"y": 0.7785418731,
				"z": 0.8221619129,
				"element": "H" 
			},
			{
				"x": 0.41752175,
				"y": 0.269969027,
				"z": -2.299617238,
				"element": "H" 
			},
			{
				"x": -0.7181739067,
				"y": 2.3484261567,
				"z": -1.5874568256,
				"element": "H" 
			},
			{
				"x": 2.3878383501,
				"y": -2.4638051603,
				"z": 0.573512993,
				"element": "H" 
			},
			{
				"x": 0.3963701603,
				"y": -2.5715011649,
				"z": -2.5263304375,
				"element": "H" 
			},
			{
				"x": -3.2211031134,
				"y": -3.5727794762,
				"z": -0.4182711407,
				"element": "H" 
			},
			{
				"x": -1.9717452713,
				"y": -3.4913773452,
				"z": 1.7385900752,
				"element": "H" 
			},
			{
				"x": 0.4237040245,
				"y": -2.8845107357,
				"z": 1.7635305913,
				"element": "H" 
			}
		],
		 "valence_orbital": [ 
			{
				"type": "occ",
				"energy": -0.28913,
				"method": "rhf"
			},
			{
				"type": "occ",
				"energy": -0.2817,
				"method": "rhf"
			},
			{
				"type": "occ",
				"energy": -0.27789,
				"method": "rhf"
			},
			{
				"type": "occ",
				"energy": -0.26578,
				"method": "rhf"
			},
			{
				"type": "occ",
				"energy": -0.24585,
				"method": "rhf"
			},
			{
				"type": "unocc",
				"energy": -0.0887,
				"method": "rhf"
			},
			{
				"type": "unocc",
				"energy": -0.04005,
				"method": "rhf"
			},
			{
				"type": "unocc",
				"energy": -0.03197,
				"method": "rhf"
			},
			{
				"type": "unocc",
				"energy": -0.02961,
				"method": "rhf"
			},
			{
				"type": "unocc",
				"energy": -0.01855,
				"method": "rhf"
			}
		],
		"cosmo_sigma_profile": { 
			"-0.025": 0.0,
			"-0.024": 0.0,
			"-0.023": 0.0,
			"-0.022": 0.0,
			"-0.021": 0.0,
			"-0.02": 0.0,
			"-0.019": 0.0223793457561,
			"-0.018": 0.675963851264,
			"-0.017": 0.939597659794,
			"-0.016": 1.61738399865,
			"-0.015": 2.41210367544,
			"-0.014": 1.82593789899,
			"-0.013": 1.69303495875,
			"-0.012": 2.03989230173,
			"-0.011": 2.08064366248,
			"-0.01": 2.15267354885,
			"-0.009": 1.82652626475,
			"-0.008": 7.24903464031,
			"-0.007": 16.7965419675,
			"-0.006": 19.0380063164,
			"-0.005": 16.4339970115,
			"-0.004": 16.4374322358,
			"-0.003": 17.7850952655,
			"-0.002": 19.7136735507,
			"-0.001": 22.6737256786,
			"0.0": 27.045466565,
			"0.001": 33.3797259728,
			"0.002": 46.1066796066,
			"0.003": 41.6655603648,
			"0.004": 9.75716826986,
			"0.005": 6.82465882236,
			"0.006": 6.37401934786,
			"0.007": 7.02360161767,
			"0.008": 4.30797381758,
			"0.009": 7.54074037419,
			"0.01": 9.88501297514,
			"0.011": 8.35336904253,
			"0.012": 4.94475437067,
			"0.013": 0.777182633064,
			"0.014": 0.0,
			"0.015": 0.0,
			"0.016": 0.0,
			"0.017": 0.0,
			"0.018": 0.0,
			"0.019": 0.0,
			"0.02": 0.0,
			"0.021": 0.0,
			"0.022": 0.0,
			"0.023": 0.0,
			"0.024": 0.0,
			"0.0": 0.0
		}
	}
}
