{
	 "smiles": "CC1CCC2C(OC(=O)C2=C)C2(C)C1C=CC2=O", 
	 "Tm": 419.15, 
	 "num_atms": 36, 
	 "gaussian": { 
		 "optdone": 1, 
		 "sigma_profile": "yes", 
		 "theory": "DFT", 
		 "functional": "B3LYP", 
		 "basiset": "6-31G**", 
		 "properties": { 
			 "R2extent": 4321.7934, 
			 "electric_dipole_moment_norm": 7.83780610822, 
			 "electric_quadrupole_moment_norm": 12.5959572522, 
			 "total_energy": -808.077612782, 
			 "HOMO_LUMO_gap": 0.18353, 
			 "cosmo_polarized_energy": -19.99, 
			 "cosmo_cavitation_energy": 35.59, 
			 "cosmo_dispersion_energy": -24.72, 
			 "cosmo_repulsion_energy": 1.85, 
			 "cosmo_total_nonelectrostatic_energy": 12.72, 
			 "SMD_solvation_energy": 7.81 
		},
		"coords": [
			{
				"x": -2.9571770841,
				"y": 2.1223889797,
				"z": -1.5246113981,
				"element": "C" 
			},
			{
				"x": -1.8473035795,
				"y": 1.2608300322,
				"z": -0.8921150336,
				"element": "C" 
			},
			{
				"x": -0.6075786366,
				"y": 1.2479701572,
				"z": -1.8561400446,
				"element": "C" 
			},
			{
				"x": 0.7548641363,
				"y": 1.6743685542,
				"z": -1.2907117712,
				"element": "C" 
			},
			{
				"x": 1.3233238331,
				"y": 0.7669151905,
				"z": -0.188576857,
				"element": "C" 
			},
			{
				"x": 0.2822553036,
				"y": -0.0773550568,
				"z": 0.5763696594,
				"element": "C" 
			},
			{
				"x": 1.0897699029,
				"y": -1.0157285685,
				"z": 1.329924908,
				"element": "O" 
			},
			{
				"x": 2.2221152871,
				"y": -1.3012437209,
				"z": 0.6112002969,
				"element": "C" 
			},
			{
				"x": 2.973130618,
				"y": -2.1974601564,
				"z": 0.9021041625,
				"element": "O" 
			},
			{
				"x": 2.3239752384,
				"y": -0.3136484139,
				"z": -0.5156817551,
				"element": "C" 
			},
			{
				"x": 3.1699980095,
				"y": -0.4683555697,
				"z": -1.5326713354,
				"element": "C" 
			},
			{
				"x": -0.6856490333,
				"y": 0.7179143339,
				"z": 1.4498618219,
				"element": "C" 
			},
			{
				"x": 0.0533028579,
				"y": 1.4874691141,
				"z": 2.569992602,
				"element": "C" 
			},
			{
				"x": -1.5805795566,
				"y": 1.6918159402,
				"z": 0.5965401309,
				"element": "C" 
			},
			{
				"x": -2.892301948,
				"y": 1.6644846176,
				"z": 1.3626606426,
				"element": "C" 
			},
			{
				"x": -3.0032981222,
				"y": 0.6111053278,
				"z": 2.1829605576,
				"element": "C" 
			},
			{
				"x": -1.7418455847,
				"y": -0.1682588076,
				"z": 2.1725431944,
				"element": "C" 
			},
			{
				"x": -1.5505102194,
				"y": -1.2571407849,
				"z": 2.6733779847,
				"element": "O" 
			},
			{
				"x": -2.6793415042,
				"y": 3.1839065803,
				"z": -1.5270940079,
				"element": "H" 
			},
			{
				"x": -3.119599443,
				"y": 1.8227938522,
				"z": -2.5646493029,
				"element": "H" 
			},
			{
				"x": -3.9144963188,
				"y": 2.0235841443,
				"z": -1.0062529259,
				"element": "H" 
			},
			{
				"x": -2.2364739831,
				"y": 0.2362124683,
				"z": -0.8344244383,
				"element": "H" 
			},
			{
				"x": -0.5136363556,
				"y": 0.2470130761,
				"z": -2.2939692137,
				"element": "H" 
			},
			{
				"x": -0.8237937853,
				"y": 1.9147248241,
				"z": -2.6984140076,
				"element": "H" 
			},
			{
				"x": 0.6748160719,
				"y": 2.6948892598,
				"z": -0.8994481952,
				"element": "H" 
			},
			{
				"x": 1.4700582601,
				"y": 1.7375688577,
				"z": -2.1190426761,
				"element": "H" 
			},
			{
				"x": 1.8189292975,
				"y": 1.4018609801,
				"z": 0.5587369151,
				"element": "H" 
			},
			{
				"x": -0.2952161296,
				"y": -0.6757927401,
				"z": -0.1375426576,
				"element": "H" 
			},
			{
				"x": 3.2414320926,
				"y": 0.2470450575,
				"z": -2.3465527462,
				"element": "H" 
			},
			{
				"x": 3.8210906746,
				"y": -1.3367188688,
				"z": -1.5629324707,
				"element": "H" 
			},
			{
				"x": -0.6608427401,
				"y": 2.0056705024,
				"z": 3.2157478607,
				"element": "H" 
			},
			{
				"x": 0.6295355392,
				"y": 0.7899081872,
				"z": 3.1825125904,
				"element": "H" 
			},
			{
				"x": 0.7344099544,
				"y": 2.2401747637,
				"z": 2.1616955987,
				"element": "H" 
			},
			{
				"x": -1.1591399442,
				"y": 2.7057385916,
				"z": 0.5943372253,
				"element": "H" 
			},
			{
				"x": -3.6655353852,
				"y": 2.4088349818,
				"z": 1.2041438652,
				"element": "H" 
			},
			{
				"x": -3.8616877235,
				"y": 0.3301143129,
				"z": 2.7820208207,
				"element": "H" 
			}
		],
		 "valence_orbital": [ 
			{
				"type": "occ",
				"energy": -0.28911,
				"method": "rhf"
			},
			{
				"type": "occ",
				"energy": -0.27951,
				"method": "rhf"
			},
			{
				"type": "occ",
				"energy": -0.27453,
				"method": "rhf"
			},
			{
				"type": "occ",
				"energy": -0.26147,
				"method": "rhf"
			},
			{
				"type": "occ",
				"energy": -0.23848,
				"method": "rhf"
			},
			{
				"type": "unocc",
				"energy": -0.05495,
				"method": "rhf"
			},
			{
				"type": "unocc",
				"energy": -0.04194,
				"method": "rhf"
			},
			{
				"type": "unocc",
				"energy": 0.04608,
				"method": "rhf"
			},
			{
				"type": "unocc",
				"energy": 0.0572,
				"method": "rhf"
			},
			{
				"type": "unocc",
				"energy": 0.0701,
				"method": "rhf"
			}
		],
		"cosmo_sigma_profile": { 
			"-0.025": 0.0,
			"-0.024": 0.0,
			"-0.023": 0.0,
			"-0.022": 0.0,
			"-0.021": 0.0,
			"-0.02": 0.0,
			"-0.019": 0.0,
			"-0.018": 0.0,
			"-0.017": 0.0,
			"-0.016": 0.0,
			"-0.015": 0.0,
			"-0.014": 0.0,
			"-0.013": 0.0,
			"-0.012": 0.0,
			"-0.011": 0.0,
			"-0.01": 0.0,
			"-0.009": 0.0,
			"-0.008": 0.660274428727,
			"-0.007": 7.03487086925,
			"-0.006": 17.2359503174,
			"-0.005": 19.2461985628,
			"-0.004": 24.1715959473,
			"-0.003": 32.9157216282,
			"-0.002": 35.0575265829,
			"-0.001": 31.9989642478,
			"0.0": 25.567212118,
			"0.001": 16.8656042371,
			"0.002": 9.59883903708,
			"0.003": 6.4505370443,
			"0.004": 3.76232657343,
			"0.005": 3.61246462997,
			"0.006": 3.19184555208,
			"0.007": 3.14206903324,
			"0.008": 3.47524298374,
			"0.009": 3.508933041,
			"0.01": 6.4603263219,
			"0.011": 7.75736230789,
			"0.012": 9.87461934384,
			"0.013": 4.67370202427,
			"0.014": 1.64756972362,
			"0.015": 0.760753543,
			"0.016": 0.00177488428532,
			"0.017": 0.0,
			"0.018": 0.0,
			"0.019": 0.0,
			"0.02": 0.0,
			"0.021": 0.0,
			"0.022": 0.0,
			"0.023": 0.0,
			"0.024": 0.0,
			"0.025": 0.0
		}
	}
}
