{
	 "smiles": "CCOC(=O)C(=O)C=P(C1=CC=CC=C1)(C1=CC=CC=C1)C1=CC=CC=C1", 
	 "Tm": 449.15, 
	 "num_atms": 48, 
	 "gaussian": { 
		 "optdone": 1, 
		 "sigma_profile": "yes", 
		 "theory": "DFT", 
		 "functional": "B3LYP", 
		 "basiset": "6-31G**", 
		 "properties": { 
			 "R2extent": 10460.8487, 
			 "electric_dipole_moment_norm": 6.60635538705, 
			 "electric_quadrupole_moment_norm": 32.6233813139, 
			 "total_energy": -1456.10083893, 
			 "HOMO_LUMO_gap": 0.1496, 
			 "cosmo_polarized_energy": -23.15, 
			 "cosmo_cavitation_energy": 52.46, 
			 "cosmo_dispersion_energy": -34.17, 
			 "cosmo_repulsion_energy": 2.66, 
			 "cosmo_total_nonelectrostatic_energy": 20.96, 
			 "SMD_solvation_energy": 10.86 
		},
		"coords": [
			{
				"x": -4.4179909618,
				"y": -2.7649097179,
				"z": -3.7437010115,
				"element": "C" 
			},
			{
				"x": -3.4590912399,
				"y": -1.7954555207,
				"z": -3.0795963403,
				"element": "C" 
			},
			{
				"x": -2.2305011603,
				"y": -2.5116429271,
				"z": -2.8222150835,
				"element": "O" 
			},
			{
				"x": -1.2612337112,
				"y": -1.8184100084,
				"z": -2.224256764,
				"element": "C" 
			},
			{
				"x": -1.3729321415,
				"y": -0.6439236575,
				"z": -1.898576995,
				"element": "O" 
			},
			{
				"x": 0.0178121939,
				"y": -2.6470708124,
				"z": -1.9963962147,
				"element": "C" 
			},
			{
				"x": 0.0995688189,
				"y": -3.7665039735,
				"z": -2.5088532704,
				"element": "O" 
			},
			{
				"x": 1.0155636629,
				"y": -2.0245022391,
				"z": -1.1919596814,
				"element": "C" 
			},
			{
				"x": 1.0063310986,
				"y": -0.5159804691,
				"z": -0.3562465175,
				"element": "P" 
			},
			{
				"x": 1.2266522384,
				"y": 1.022019568,
				"z": -1.3463603852,
				"element": "C" 
			},
			{
				"x": 1.0837102433,
				"y": 0.984556069,
				"z": -2.7382235131,
				"element": "C" 
			},
			{
				"x": 1.3171696307,
				"y": 2.1302864412,
				"z": -3.4991218035,
				"element": "C" 
			},
			{
				"x": 1.6981246664,
				"y": 3.3209061667,
				"z": -2.87771173,
				"element": "C" 
			},
			{
				"x": 1.8568195661,
				"y": 3.362390505,
				"z": -1.4910109825,
				"element": "C" 
			},
			{
				"x": 1.6299916115,
				"y": 2.2164453533,
				"z": -0.7281253809,
				"element": "C" 
			},
			{
				"x": -0.3863094148,
				"y": -0.2544353818,
				"z": 0.8127644194,
				"element": "C" 
			},
			{
				"x": -0.7947461666,
				"y": -1.3559310915,
				"z": 1.5805185843,
				"element": "C" 
			},
			{
				"x": -1.8306344258,
				"y": -1.223195843,
				"z": 2.5048549653,
				"element": "C" 
			},
			{
				"x": -2.4735034617,
				"y": 0.0064188444,
				"z": 2.6638649948,
				"element": "C" 
			},
			{
				"x": -2.0798938235,
				"y": 1.1008860492,
				"z": 1.8923938124,
				"element": "C" 
			},
			{
				"x": -1.0414031324,
				"y": 0.9734183314,
				"z": 0.9685387431,
				"element": "C" 
			},
			{
				"x": 2.5244329681,
				"y": -0.540576585,
				"z": 0.6819964805,
				"element": "C" 
			},
			{
				"x": 3.760703965,
				"y": -0.7652762411,
				"z": 0.0521929112,
				"element": "C" 
			},
			{
				"x": 4.937301602,
				"y": -0.7948347466,
				"z": 0.7981383678,
				"element": "C" 
			},
			{
				"x": 4.8974449706,
				"y": -0.5907037506,
				"z": 2.1798841854,
				"element": "C" 
			},
			{
				"x": 3.6759825882,
				"y": -0.357953033,
				"z": 2.8107325142,
				"element": "C" 
			},
			{
				"x": 2.4931956442,
				"y": -0.3324694436,
				"z": 2.0672590305,
				"element": "C" 
			},
			{
				"x": -4.0030332349,
				"y": -3.1406486586,
				"z": -4.6830291308,
				"element": "H" 
			},
			{
				"x": -5.3659935278,
				"y": -2.2617490925,
				"z": -3.9593907259,
				"element": "H" 
			},
			{
				"x": -4.6198378808,
				"y": -3.6200407117,
				"z": -3.0926672877,
				"element": "H" 
			},
			{
				"x": -3.237791185,
				"y": -0.9323581268,
				"z": -3.7162809431,
				"element": "H" 
			},
			{
				"x": -3.8493935501,
				"y": -1.4108314504,
				"z": -2.1315931514,
				"element": "H" 
			},
			{
				"x": 1.9085609229,
				"y": -2.614045471,
				"z": -1.0194930971,
				"element": "H" 
			},
			{
				"x": 0.7952345695,
				"y": 0.0572466631,
				"z": -3.2186861952,
				"element": "H" 
			},
			{
				"x": 1.2028188549,
				"y": 2.0910236809,
				"z": -4.5784549475,
				"element": "H" 
			},
			{
				"x": 1.8804448448,
				"y": 4.211509041,
				"z": -3.4723427911,
				"element": "H" 
			},
			{
				"x": 2.1668579363,
				"y": 4.2821522686,
				"z": -1.0034506243,
				"element": "H" 
			},
			{
				"x": 1.7819834894,
				"y": 2.2525831796,
				"z": 0.3468111314,
				"element": "H" 
			},
			{
				"x": -0.310083016,
				"y": -2.3176174337,
				"z": 1.4390821714,
				"element": "H" 
			},
			{
				"x": -2.1396766643,
				"y": -2.0817957534,
				"z": 3.0938813755,
				"element": "H" 
			},
			{
				"x": -3.2836068077,
				"y": 0.108489324,
				"z": 3.3803170911,
				"element": "H" 
			},
			{
				"x": -2.5868206104,
				"y": 2.0553068999,
				"z": 2.0015385377,
				"element": "H" 
			},
			{
				"x": -0.7582734939,
				"y": 1.8239378399,
				"z": 0.3588853368,
				"element": "H" 
			},
			{
				"x": 3.8020076647,
				"y": -0.9208027537,
				"z": -1.0216947489,
				"element": "H" 
			},
			{
				"x": 5.8854840879,
				"y": -0.9747894392,
				"z": 0.3000757442,
				"element": "H" 
			},
			{
				"x": 5.8154241133,
				"y": -0.6123618795,
				"z": 2.7600666767,
				"element": "H" 
			},
			{
				"x": 3.6378458029,
				"y": -0.198336279,
				"z": 3.8844341107,
				"element": "H" 
			},
			{
				"x": 1.5488818549,
				"y": -0.1571237336,
				"z": 2.5707081322,
				"element": "H" 
			}
		],
		 "valence_orbital": [ 
			{
				"type": "occ",
				"energy": -0.26053,
				"method": "rhf"
			},
			{
				"type": "occ",
				"energy": -0.25904,
				"method": "rhf"
			},
			{
				"type": "occ",
				"energy": -0.25625,
				"method": "rhf"
			},
			{
				"type": "occ",
				"energy": -0.20079,
				"method": "rhf"
			},
			{
				"type": "occ",
				"energy": -0.18756,
				"method": "rhf"
			},
			{
				"type": "unocc",
				"energy": -0.03796,
				"method": "rhf"
			},
			{
				"type": "unocc",
				"energy": -0.02863,
				"method": "rhf"
			},
			{
				"type": "unocc",
				"energy": -0.02652,
				"method": "rhf"
			},
			{
				"type": "unocc",
				"energy": -0.01974,
				"method": "rhf"
			},
			{
				"type": "unocc",
				"energy": -0.01489,
				"method": "rhf"
			}
		],
		"cosmo_sigma_profile": { 
			"-0.025": 0.0,
			"-0.024": 0.0,
			"-0.023": 0.0,
			"-0.022": 0.0,
			"-0.021": 0.0,
			"-0.02": 0.0,
			"-0.019": 0.0,
			"-0.018": 0.0,
			"-0.017": 0.0,
			"-0.016": 0.0,
			"-0.015": 0.0,
			"-0.014": 0.0,
			"-0.013": 0.0,
			"-0.012": 0.0,
			"-0.011": 0.0,
			"-0.01": 0.0,
			"-0.009": 0.00543065747529,
			"-0.008": 0.180545476962,
			"-0.007": 4.92345553181,
			"-0.006": 26.1349058101,
			"-0.005": 42.0285798365,
			"-0.004": 46.5165554151,
			"-0.003": 38.146517647,
			"-0.002": 34.465827864,
			"-0.001": 30.9569493706,
			"0.0": 31.5856681294,
			"0.001": 25.5029966668,
			"0.002": 27.6817570522,
			"0.003": 27.9533232285,
			"0.004": 28.5013021314,
			"0.005": 10.9658946141,
			"0.006": 5.27803739223,
			"0.007": 4.44146562951,
			"0.008": 4.25667512501,
			"0.009": 4.04855077856,
			"0.01": 2.78443982054,
			"0.011": 3.16352210299,
			"0.012": 2.48224696245,
			"0.013": 1.48246427276,
			"0.014": 3.05424845973,
			"0.015": 6.23761417128,
			"0.016": 4.12087997679,
			"0.017": 1.52212631977,
			"0.018": 0.0629332585382,
			"0.019": 0.0,
			"0.02": 0.0,
			"0.021": 0.0,
			"0.022": 0.0,
			"0.023": 0.0,
			"0.024": 0.0,
			"0.025": 0.0
		}
	}
}
