{
	 "smiles": "OCC1=C(Cl)C(F)=CC=C1", 
	 "Tm": 308.15, 
	 "num_atms": 16, 
	 "gaussian": { 
		 "optdone": 1, 
		 "sigma_profile": "yes", 
		 "theory": "DFT", 
		 "functional": "B3LYP", 
		 "basiset": "6-31G**", 
		 "properties": { 
			 "R2extent": 1972.0324, 
			 "electric_dipole_moment_norm": 2.08749840958, 
			 "electric_quadrupole_moment_norm": 7.7534152088, 
			 "total_energy": -905.596518099, 
			 "HOMO_LUMO_gap": 0.22485, 
			 "cosmo_polarized_energy": -7.1, 
			 "cosmo_cavitation_energy": 21.88, 
			 "cosmo_dispersion_energy": -16.36, 
			 "cosmo_repulsion_energy": 1.3, 
			 "cosmo_total_nonelectrostatic_energy": 6.83, 
			 "SMD_solvation_energy": 3.94 
		},
		"coords": [
			{
				"x": -1.6132166017,
				"y": -0.9967489873,
				"z": 2.4276976015,
				"element": "O" 
			},
			{
				"x": -1.3097344754,
				"y": 0.1099848328,
				"z": 1.5922057961,
				"element": "C" 
			},
			{
				"x": -0.2783239781,
				"y": -0.2014547907,
				"z": 0.5216428916,
				"element": "C" 
			},
			{
				"x": 1.0707319066,
				"y": -0.4101342271,
				"z": 0.8413034117,
				"element": "C" 
			},
			{
				"x": 1.6344094176,
				"y": -0.3173332741,
				"z": 2.5031322868,
				"element": "Cl" 
			},
			{
				"x": 2.001829347,
				"y": -0.6992783382,
				"z": -0.1563118803,
				"element": "C" 
			},
			{
				"x": 3.2881742992,
				"y": -0.8933209326,
				"z": 0.173035106,
				"element": "F" 
			},
			{
				"x": 1.6204598654,
				"y": -0.7875388232,
				"z": -1.4899581576,
				"element": "C" 
			},
			{
				"x": 0.2825699897,
				"y": -0.5827263346,
				"z": -1.8211075104,
				"element": "C" 
			},
			{
				"x": -0.6509642617,
				"y": -0.2956854364,
				"z": -0.8248481782,
				"element": "C" 
			},
			{
				"x": -0.8371004267,
				"y": -1.166634454,
				"z": 2.9784600027,
				"element": "H" 
			},
			{
				"x": -0.9749742368,
				"y": 0.9768578934,
				"z": 2.1807682956,
				"element": "H" 
			},
			{
				"x": -2.2491126318,
				"y": 0.3872455933,
				"z": 1.1064083755,
				"element": "H" 
			},
			{
				"x": 2.3738420334,
				"y": -1.0147872212,
				"z": -2.2361969355,
				"element": "H" 
			},
			{
				"x": -0.0311233691,
				"y": -0.6499244605,
				"z": -2.857981964,
				"element": "H" 
			},
			{
				"x": -1.6932668777,
				"y": -0.1418210395,
				"z": -1.0881491415,
				"element": "H" 
			}
		],
		 "valence_orbital": [ 
			{
				"type": "occ",
				"energy": -0.34069,
				"method": "rhf"
			},
			{
				"type": "occ",
				"energy": -0.32554,
				"method": "rhf"
			},
			{
				"type": "occ",
				"energy": -0.27558,
				"method": "rhf"
			},
			{
				"type": "occ",
				"energy": -0.26246,
				"method": "rhf"
			},
			{
				"type": "occ",
				"energy": -0.25415,
				"method": "rhf"
			},
			{
				"type": "unocc",
				"energy": -0.0293,
				"method": "rhf"
			},
			{
				"type": "unocc",
				"energy": -0.01394,
				"method": "rhf"
			},
			{
				"type": "unocc",
				"energy": 0.01424,
				"method": "rhf"
			},
			{
				"type": "unocc",
				"energy": 0.09232,
				"method": "rhf"
			},
			{
				"type": "unocc",
				"energy": 0.09532,
				"method": "rhf"
			}
		],
		"cosmo_sigma_profile": { 
			"-0.025": 0.0,
			"-0.024": 0.0,
			"-0.023": 0.0,
			"-0.022": 0.0,
			"-0.021": 0.0,
			"-0.02": 0.0,
			"-0.019": 0.0,
			"-0.018": 0.0,
			"-0.017": 0.0,
			"-0.016": 0.0,
			"-0.015": 0.0,
			"-0.014": 0.0,
			"-0.013": 0.0583747603193,
			"-0.012": 0.537281670848,
			"-0.011": 0.747787958139,
			"-0.01": 0.943961612514,
			"-0.009": 0.6655232583,
			"-0.008": 2.32062477762,
			"-0.007": 7.23300046449,
			"-0.006": 9.88339609275,
			"-0.005": 10.892084313,
			"-0.004": 10.3944573412,
			"-0.003": 11.9924369297,
			"-0.002": 10.7869049923,
			"-0.001": 13.5064568493,
			"0.0": 14.8540194268,
			"0.001": 15.1929362914,
			"0.002": 14.6085638158,
			"0.003": 19.0745784117,
			"0.004": 15.3823875836,
			"0.005": 4.51275197721,
			"0.006": 1.19705301296,
			"0.007": 1.57318801458,
			"0.008": 1.14733878981,
			"0.009": 1.33225923661,
			"0.01": 1.24219727826,
			"0.011": 1.27995318003,
			"0.012": 1.48609733592,
			"0.013": 2.13276162742,
			"0.014": 1.92334904742,
			"0.015": 0.0,
			"0.016": 0.0,
			"0.017": 0.0,
			"0.018": 0.0,
			"0.019": 0.0,
			"0.02": 0.0,
			"0.021": 0.0,
			"0.022": 0.0,
			"0.023": 0.0,
			"0.024": 0.0,
			"0.025": 0.0
		}
	}
}
