{
	 "smiles": "NC1=CC(=NN1C1=NC=CC=N1)C1CC1", 
	 "Tm": 418.15, 
	 "num_atms": 26, 
	 "gaussian": { 
		 "optdone": 1, 
		 "sigma_profile": "yes", 
		 "theory": "DFT", 
		 "functional": "B3LYP", 
		 "basiset": "6-31G**", 
		 "properties": { 
			 "R2extent": 4206.9944, 
			 "electric_dipole_moment_norm": 3.41957671942, 
			 "electric_quadrupole_moment_norm": 19.2562784135, 
			 "total_energy": -661.39849127, 
			 "HOMO_LUMO_gap": 0.149, 
			 "cosmo_polarized_energy": -17.17, 
			 "cosmo_cavitation_energy": 30.06, 
			 "cosmo_dispersion_energy": -22.45, 
			 "cosmo_repulsion_energy": 1.76, 
			 "cosmo_total_nonelectrostatic_energy": 9.36, 
			 "SMD_solvation_energy": 2.12 
		},
		"coords": [
			{
				"x": -0.5746257408,
				"y": -0.1850860663,
				"z": -2.1158113346,
				"element": "N" 
			},
			{
				"x": -0.6924623125,
				"y": -0.6342705134,
				"z": -0.8227182997,
				"element": "C" 
			},
			{
				"x": -0.6507763359,
				"y": -1.9160982905,
				"z": -0.3174907361,
				"element": "C" 
			},
			{
				"x": -0.9269797146,
				"y": -1.7812746691,
				"z": 1.0748914441,
				"element": "C" 
			},
			{
				"x": -1.1266235969,
				"y": -0.5250643433,
				"z": 1.4318835347,
				"element": "N" 
			},
			{
				"x": -0.9794052407,
				"y": 0.1999518223,
				"z": 0.2580496735,
				"element": "N" 
			},
			{
				"x": -1.0807466006,
				"y": 1.5907949152,
				"z": 0.2886966342,
				"element": "C" 
			},
			{
				"x": -0.7638251791,
				"y": 2.2473389806,
				"z": -0.8431397362,
				"element": "N" 
			},
			{
				"x": -0.8630509791,
				"y": 3.5794423989,
				"z": -0.8054804431,
				"element": "C" 
			},
			{
				"x": -1.262258316,
				"y": 4.2682520428,
				"z": 0.3338287549,
				"element": "C" 
			},
			{
				"x": -1.5591703214,
				"y": 3.4776409989,
				"z": 1.4463655868,
				"element": "C" 
			},
			{
				"x": -1.4770462163,
				"y": 2.1492118473,
				"z": 1.4404761872,
				"element": "N" 
			},
			{
				"x": -1.0061378909,
				"y": -2.8428203211,
				"z": 2.1002980465,
				"element": "C" 
			},
			{
				"x": -1.5686758337,
				"y": -4.2095018915,
				"z": 1.7563954926,
				"element": "C" 
			},
			{
				"x": -0.0993167268,
				"y": -4.0572107818,
				"z": 2.0283149456,
				"element": "C" 
			},
			{
				"x": -0.3787247071,
				"y": 0.8064178211,
				"z": -2.1978732978,
				"element": "H" 
			},
			{
				"x": -0.0626569349,
				"y": -0.7997186663,
				"z": -2.7306846462,
				"element": "H" 
			},
			{
				"x": -0.4646309837,
				"y": -2.8179092669,
				"z": -0.8819372857,
				"element": "H" 
			},
			{
				"x": -0.6081361105,
				"y": 4.1039181436,
				"z": -1.7244009048,
				"element": "H" 
			},
			{
				"x": -1.3383120963,
				"y": 5.3487925893,
				"z": 0.3562138217,
				"element": "H" 
			},
			{
				"x": -1.8803454279,
				"y": 3.9301382182,
				"z": 2.38359399,
				"element": "H" 
			},
			{
				"x": -1.2299931823,
				"y": -2.4552954082,
				"z": 3.0893263701,
				"element": "H" 
			},
			{
				"x": -1.8886028078,
				"y": -4.3743005285,
				"z": 0.7317959265,
				"element": "H" 
			},
			{
				"x": -2.1877031383,
				"y": -4.7004589677,
				"z": 2.5012210002,
				"element": "H" 
			},
			{
				"x": 0.5882964204,
				"y": -4.1178320775,
				"z": 1.1899039015,
				"element": "H" 
			},
			{
				"x": 0.3002099736,
				"y": -4.442957986,
				"z": 2.9613813743,
				"element": "H" 
			}
		],
		 "valence_orbital": [ 
			{
				"type": "occ",
				"energy": -0.27943,
				"method": "rhf"
			},
			{
				"type": "occ",
				"energy": -0.27563,
				"method": "rhf"
			},
			{
				"type": "occ",
				"energy": -0.24977,
				"method": "rhf"
			},
			{
				"type": "occ",
				"energy": -0.22184,
				"method": "rhf"
			},
			{
				"type": "occ",
				"energy": -0.19407,
				"method": "rhf"
			},
			{
				"type": "unocc",
				"energy": -0.04507,
				"method": "rhf"
			},
			{
				"type": "unocc",
				"energy": -0.03211,
				"method": "rhf"
			},
			{
				"type": "unocc",
				"energy": 0.05279,
				"method": "rhf"
			},
			{
				"type": "unocc",
				"energy": 0.08003,
				"method": "rhf"
			},
			{
				"type": "unocc",
				"energy": 0.09368,
				"method": "rhf"
			}
		],
		"cosmo_sigma_profile": { 
			"-0.025": 0.0,
			"-0.024": 0.0,
			"-0.023": 0.0,
			"-0.022": 0.0,
			"-0.021": 0.0,
			"-0.02": 0.0,
			"-0.019": 0.0,
			"-0.018": 0.0,
			"-0.017": 0.0,
			"-0.016": 0.0,
			"-0.015": 0.0,
			"-0.014": 0.286049378164,
			"-0.013": 1.24812328442,
			"-0.012": 1.53321218399,
			"-0.011": 1.13115406874,
			"-0.01": 1.29198202726,
			"-0.009": 1.6995643198,
			"-0.008": 8.16909044125,
			"-0.007": 9.78219750873,
			"-0.006": 11.2024445297,
			"-0.005": 13.6496551783,
			"-0.004": 16.4894545586,
			"-0.003": 17.3003408562,
			"-0.002": 17.4378882929,
			"-0.001": 21.0175473358,
			"0.0": 23.1475756693,
			"0.001": 16.1219556,
			"0.002": 11.4264630189,
			"0.003": 10.9371485747,
			"0.004": 13.2659945577,
			"0.005": 12.2184824549,
			"0.006": 6.04327871204,
			"0.007": 3.59419141648,
			"0.008": 2.60537209378,
			"0.009": 2.89435050956,
			"0.01": 1.68116419391,
			"0.011": 2.3162180967,
			"0.012": 2.47512787295,
			"0.013": 1.101026497,
			"0.014": 1.96272975813,
			"0.015": 0.867969007684,
			"0.016": 0.93574236728,
			"0.017": 1.05166168185,
			"0.018": 1.07676741464,
			"0.019": 0.864027450257,
			"0.02": 0.819159401865,
			"0.021": 0.639217257389,
			"0.022": 0.132384201102,
			"0.023": 0.0,
			"0.024": 0.0,
			"0.025": 0.0
		}
	}
}
