{
	 "smiles": "OC(=O)CC1=CC(OCC2=CC=NC=C2)=CC=C1", 
	 "Tm": 412.15, 
	 "num_atms": 31, 
	 "gaussian": { 
		 "optdone": 1, 
		 "sigma_profile": "yes", 
		 "theory": "DFT", 
		 "functional": "B3LYP", 
		 "basiset": "6-31G**", 
		 "properties": { 
			 "R2extent": 4157.7811, 
			 "electric_dipole_moment_norm": 3.01723311993, 
			 "electric_quadrupole_moment_norm": 10.8806031666, 
			 "total_energy": -821.745504758, 
			 "HOMO_LUMO_gap": 0.20037, 
			 "cosmo_polarized_energy": -13.2, 
			 "cosmo_cavitation_energy": 34.1, 
			 "cosmo_dispersion_energy": -23.15, 
			 "cosmo_repulsion_energy": 1.74, 
			 "cosmo_total_nonelectrostatic_energy": 12.7, 
			 "SMD_solvation_energy": 5.35 
		},
		"coords": [
			{
				"x": 2.2588429693,
				"y": 1.6032220946,
				"z": -0.1469806776,
				"element": "O" 
			},
			{
				"x": 2.8650939915,
				"y": 0.4017061614,
				"z": -0.2236210235,
				"element": "C" 
			},
			{
				"x": 3.4019547367,
				"y": -0.0112181347,
				"z": -1.2307947558,
				"element": "O" 
			},
			{
				"x": 2.7178819508,
				"y": -0.3974177958,
				"z": 1.0621934649,
				"element": "C" 
			},
			{
				"x": 1.3313218088,
				"y": -1.0285082944,
				"z": 1.1234974817,
				"element": "C" 
			},
			{
				"x": 0.8033345446,
				"y": -1.6434653954,
				"z": -0.0169267905,
				"element": "C" 
			},
			{
				"x": -0.5038331151,
				"y": -2.1275496382,
				"z": -0.0202991945,
				"element": "C" 
			},
			{
				"x": -1.0164451347,
				"y": -2.6544141208,
				"z": -1.1968201972,
				"element": "O" 
			},
			{
				"x": -1.8302959913,
				"y": -1.7405426147,
				"z": -1.9583650583,
				"element": "C" 
			},
			{
				"x": -1.0731889022,
				"y": -0.4820096428,
				"z": -2.3275781682,
				"element": "C" 
			},
			{
				"x": -1.3740155824,
				"y": 0.7458220808,
				"z": -1.7338372243,
				"element": "C" 
			},
			{
				"x": -0.5276725727,
				"y": 1.8326510052,
				"z": -1.9540655582,
				"element": "C" 
			},
			{
				"x": 0.5773423377,
				"y": 1.7710293874,
				"z": -2.7092621658,
				"element": "N" 
			},
			{
				"x": 0.8312489498,
				"y": 0.6038026718,
				"z": -3.323623287,
				"element": "C" 
			},
			{
				"x": 0.0404357996,
				"y": -0.5335535503,
				"z": -3.1733526388,
				"element": "C" 
			},
			{
				"x": -1.2816154408,
				"y": -2.0762486394,
				"z": 1.1390132735,
				"element": "C" 
			},
			{
				"x": -0.7402333039,
				"y": -1.5051513163,
				"z": 2.2918437336,
				"element": "C" 
			},
			{
				"x": 0.5486052267,
				"y": -0.9656058715,
				"z": 2.2816724098,
				"element": "C" 
			},
			{
				"x": 2.2119728711,
				"y": 1.965067053,
				"z": -1.0540306982,
				"element": "H" 
			},
			{
				"x": 3.4988330634,
				"y": -1.1636063132,
				"z": 1.059482708,
				"element": "H" 
			},
			{
				"x": 2.8678655492,
				"y": 0.2554360308,
				"z": 1.9263398226,
				"element": "H" 
			},
			{
				"x": 1.3881732042,
				"y": -1.7066274554,
				"z": -0.9272927701,
				"element": "H" 
			},
			{
				"x": -2.1221620231,
				"y": -2.3070928535,
				"z": -2.8470557609,
				"element": "H" 
			},
			{
				"x": -2.7383479448,
				"y": -1.4828034092,
				"z": -1.3970968861,
				"element": "H" 
			},
			{
				"x": -2.2270125371,
				"y": 0.847025513,
				"z": -1.069156018,
				"element": "H" 
			},
			{
				"x": -0.7276039654,
				"y": 2.7878138145,
				"z": -1.4724397504,
				"element": "H" 
			},
			{
				"x": 1.7289119516,
				"y": 0.5708861724,
				"z": -3.9359280078,
				"element": "H" 
			},
			{
				"x": 0.3220334718,
				"y": -1.4611887443,
				"z": -3.6629510235,
				"element": "H" 
			},
			{
				"x": -2.2899523104,
				"y": -2.478648808,
				"z": 1.1296340475,
				"element": "H" 
			},
			{
				"x": -1.3341077558,
				"y": -1.4625716045,
				"z": 3.200447038,
				"element": "H" 
			},
			{
				"x": 0.942934153,
				"y": -0.4890377827,
				"z": 3.174953675,
				"element": "H" 
			}
		],
		 "valence_orbital": [ 
			{
				"type": "occ",
				"energy": -0.27116,
				"method": "rhf"
			},
			{
				"type": "occ",
				"energy": -0.26726,
				"method": "rhf"
			},
			{
				"type": "occ",
				"energy": -0.26447,
				"method": "rhf"
			},
			{
				"type": "occ",
				"energy": -0.24873,
				"method": "rhf"
			},
			{
				"type": "occ",
				"energy": -0.2414,
				"method": "rhf"
			},
			{
				"type": "unocc",
				"energy": -0.04103,
				"method": "rhf"
			},
			{
				"type": "unocc",
				"energy": -0.01966,
				"method": "rhf"
			},
			{
				"type": "unocc",
				"energy": -0.01056,
				"method": "rhf"
			},
			{
				"type": "unocc",
				"energy": -0.00432,
				"method": "rhf"
			},
			{
				"type": "unocc",
				"energy": 0.01835,
				"method": "rhf"
			}
		],
		"cosmo_sigma_profile": { 
			"-0.025": 0.0,
			"-0.024": 0.0,
			"-0.023": 0.0,
			"-0.022": 0.0,
			"-0.021": 0.0,
			"-0.02": 0.0,
			"-0.019": 0.0,
			"-0.018": 0.0,
			"-0.017": 0.0,
			"-0.016": 0.0,
			"-0.015": 0.0,
			"-0.014": 0.0,
			"-0.013": 0.0,
			"-0.012": 0.189233522111,
			"-0.011": 0.372342719985,
			"-0.01": 0.375622859339,
			"-0.009": 0.786763328187,
			"-0.008": 0.64945279056,
			"-0.007": 9.37215488456,
			"-0.006": 25.1662014726,
			"-0.005": 24.5340448172,
			"-0.004": 24.2212707672,
			"-0.003": 20.1534911594,
			"-0.002": 17.3375694679,
			"-0.001": 15.0774456513,
			"0.0": 15.3017566964,
			"0.001": 18.4009204062,
			"0.002": 18.7510355375,
			"0.003": 15.3286853237,
			"0.004": 16.5598234123,
			"0.005": 13.1861292091,
			"0.006": 5.6479130925,
			"0.007": 4.54032227804,
			"0.008": 4.58534201372,
			"0.009": 4.48285243892,
			"0.01": 5.16944899112,
			"0.011": 4.38076550319,
			"0.012": 4.89266543061,
			"0.013": 1.05899578149,
			"0.014": 0.639863695862,
			"0.015": 0.400486346962,
			"0.016": 0.0,
			"0.017": 0.0,
			"0.018": 0.0,
			"0.019": 0.0,
			"0.02": 0.0,
			"0.021": 0.0,
			"0.022": 0.0,
			"0.023": 0.0,
			"0.024": 0.0,
			"0.025": 0.0
		}
	}
}
