{
	 "smiles": "ClC1=C(Cl)C(=O)N(N=C1)C1=CC=CC=C1", 
	 "Tm": 437.15, 
	 "num_atms": 21, 
	 "gaussian": { 
		 "optdone": 1, 
		 "sigma_profile": "yes", 
		 "theory": "DFT", 
		 "functional": "B3LYP", 
		 "basiset": "6-31G**", 
		 "properties": { 
			 "R2extent": 4978.7688, 
			 "electric_dipole_moment_norm": 2.76305614492, 
			 "electric_quadrupole_moment_norm": 9.34702133249, 
			 "total_energy": -1489.75300595, 
			 "HOMO_LUMO_gap": 0.15371, 
			 "cosmo_polarized_energy": -9.58, 
			 "cosmo_cavitation_energy": 29.51, 
			 "cosmo_dispersion_energy": -22.08, 
			 "cosmo_repulsion_energy": 1.71, 
			 "cosmo_total_nonelectrostatic_energy": 9.14, 
			 "SMD_solvation_energy": 4.76 
		},
		"coords": [
			{
				"x": 2.1441320884,
				"y": -0.3903395189,
				"z": 4.5556727435,
				"element": "Cl" 
			},
			{
				"x": 1.3649094772,
				"y": -0.2372443789,
				"z": 3.0119502719,
				"element": "C" 
			},
			{
				"x": 0.4218281529,
				"y": -1.1120303585,
				"z": 2.5567103934,
				"element": "C" 
			},
			{
				"x": -0.126551751,
				"y": -2.4705239008,
				"z": 3.4601699727,
				"element": "Cl" 
			},
			{
				"x": -0.1986551738,
				"y": -0.9246181235,
				"z": 1.2352784197,
				"element": "C" 
			},
			{
				"x": -1.0552954533,
				"y": -1.6577537086,
				"z": 0.771436126,
				"element": "O" 
			},
			{
				"x": 0.2964686884,
				"y": 0.2092830317,
				"z": 0.5338828013,
				"element": "N" 
			},
			{
				"x": 1.2213968873,
				"y": 1.0684473281,
				"z": 1.0021197697,
				"element": "N" 
			},
			{
				"x": 1.7342110807,
				"y": 0.8631059052,
				"z": 2.180090937,
				"element": "C" 
			},
			{
				"x": -0.2435933823,
				"y": 0.5651542663,
				"z": -0.757043022,
				"element": "C" 
			},
			{
				"x": -0.4579440819,
				"y": 1.9185157372,
				"z": -1.0359429551,
				"element": "C" 
			},
			{
				"x": -0.9459432379,
				"y": 2.2951209075,
				"z": -2.2852952909,
				"element": "C" 
			},
			{
				"x": -1.2234444975,
				"y": 1.3280880843,
				"z": -3.2532470688,
				"element": "C" 
			},
			{
				"x": -1.0058080586,
				"y": -0.0199364541,
				"z": -2.9650795225,
				"element": "C" 
			},
			{
				"x": -0.5156397562,
				"y": -0.4118077539,
				"z": -1.7196036324,
				"element": "C" 
			},
			{
				"x": 2.4801471604,
				"y": 1.5762742943,
				"z": 2.5133833927,
				"element": "H" 
			},
			{
				"x": -0.2332356911,
				"y": 2.6608606615,
				"z": -0.2794002324,
				"element": "H" 
			},
			{
				"x": -1.1130100392,
				"y": 3.346661289,
				"z": -2.4982774237,
				"element": "H" 
			},
			{
				"x": -1.6079965317,
				"y": 1.6232002774,
				"z": -4.2249078808,
				"element": "H" 
			},
			{
				"x": -1.2161363158,
				"y": -0.7782937815,
				"z": -3.7130916136,
				"element": "H" 
			},
			{
				"x": -0.357639565,
				"y": -1.4575638037,
				"z": -1.4959061856,
				"element": "H" 
			}
		],
		 "valence_orbital": [ 
			{
				"type": "occ",
				"energy": -0.30646,
				"method": "rhf"
			},
			{
				"type": "occ",
				"energy": -0.27515,
				"method": "rhf"
			},
			{
				"type": "occ",
				"energy": -0.26659,
				"method": "rhf"
			},
			{
				"type": "occ",
				"energy": -0.25932,
				"method": "rhf"
			},
			{
				"type": "occ",
				"energy": -0.23894,
				"method": "rhf"
			},
			{
				"type": "unocc",
				"energy": -0.08523,
				"method": "rhf"
			},
			{
				"type": "unocc",
				"energy": -0.02426,
				"method": "rhf"
			},
			{
				"type": "unocc",
				"energy": -0.01289,
				"method": "rhf"
			},
			{
				"type": "unocc",
				"energy": -0.01012,
				"method": "rhf"
			},
			{
				"type": "unocc",
				"energy": -0.00517,
				"method": "rhf"
			}
		],
		"cosmo_sigma_profile": { 
			"-0.025": 0.0,
			"-0.024": 0.0,
			"-0.023": 0.0,
			"-0.022": 0.0,
			"-0.021": 0.0,
			"-0.02": 0.0,
			"-0.019": 0.0,
			"-0.018": 0.0,
			"-0.017": 0.0,
			"-0.016": 0.0,
			"-0.015": 0.0,
			"-0.014": 0.0,
			"-0.013": 0.0,
			"-0.012": 0.0,
			"-0.011": 0.00401792904437,
			"-0.01": 1.18105160075,
			"-0.009": 1.83497501946,
			"-0.008": 1.4323160593,
			"-0.007": 4.83459068973,
			"-0.006": 12.0896146273,
			"-0.005": 17.0105890308,
			"-0.004": 22.2181556996,
			"-0.003": 22.6978393239,
			"-0.002": 16.9398859757,
			"-0.001": 15.6568802996,
			"0.0": 17.6118555878,
			"0.001": 16.9933695022,
			"0.002": 24.8972095725,
			"0.003": 21.3742095636,
			"0.004": 17.0953867467,
			"0.005": 6.50902063484,
			"0.006": 4.04958381613,
			"0.007": 2.68072523312,
			"0.008": 2.54649031158,
			"0.009": 2.85643390818,
			"0.01": 2.80431041862,
			"0.011": 2.82446409118,
			"0.012": 3.91899713912,
			"0.013": 1.03619968244,
			"0.014": 0.0,
			"0.015": 0.0,
			"0.016": 0.0,
			"0.017": 0.0,
			"0.018": 0.0,
			"0.019": 0.0,
			"0.02": 0.0,
			"0.021": 0.0,
			"0.022": 0.0,
			"0.023": 0.0,
			"0.024": 0.0,
			"0.025": 0.0
		}
	}
}
