{
	 "smiles": "ClCC1=CN=C(Cl)S1", 
	 "Tm": 305.15, 
	 "num_atms": 11, 
	 "gaussian": { 
		 "optdone": 1, 
		 "sigma_profile": "yes", 
		 "theory": "DFT", 
		 "functional": "B3LYP", 
		 "basiset": "6-31G**", 
		 "properties": { 
			 "R2extent": 2106.8585, 
			 "electric_dipole_moment_norm": 2.13279807061, 
			 "electric_quadrupole_moment_norm": 9.33247609319, 
			 "total_energy": -1527.53870199, 
			 "HOMO_LUMO_gap": 0.1987, 
			 "cosmo_polarized_energy": -7.38, 
			 "cosmo_cavitation_energy": 20.86, 
			 "cosmo_dispersion_energy": -16.23, 
			 "cosmo_repulsion_energy": 1.32, 
			 "cosmo_total_nonelectrostatic_energy": 5.95, 
			 "SMD_solvation_energy": 1.14 
		},
		"coords": [
			{
				"x": 2.890314695,
				"y": 0.8229230364,
				"z": -0.467159394,
				"element": "Cl" 
			},
			{
				"x": 1.5624767406,
				"y": 0.4143117929,
				"z": 0.7312114689,
				"element": "C" 
			},
			{
				"x": 0.2390786194,
				"y": 0.2117300155,
				"z": 0.0917088935,
				"element": "C" 
			},
			{
				"x": -0.8433716893,
				"y": 1.0488140033,
				"z": 0.1322483681,
				"element": "C" 
			},
			{
				"x": -1.9760171902,
				"y": 0.6344678197,
				"z": -0.5273128346,
				"element": "N" 
			},
			{
				"x": -1.7661854596,
				"y": -0.5153103901,
				"z": -1.0796532766,
				"element": "C" 
			},
			{
				"x": -2.9539050006,
				"y": -1.3641695084,
				"z": -2.0054399818,
				"element": "Cl" 
			},
			{
				"x": -0.1727999243,
				"y": -1.2050048984,
				"z": -0.850333553,
				"element": "S" 
			},
			{
				"x": 1.5135793341,
				"y": 1.2525182388,
				"z": 1.4269196234,
				"element": "H" 
			},
			{
				"x": 1.9160302268,
				"y": -0.4707015413,
				"z": 1.260918661,
				"element": "H" 
			},
			{
				"x": -0.8574003519,
				"y": 2.0017214316,
				"z": 0.649692025,
				"element": "H" 
			}
		],
		 "valence_orbital": [ 
			{
				"type": "occ",
				"energy": -0.31688,
				"method": "rhf"
			},
			{
				"type": "occ",
				"energy": -0.31,
				"method": "rhf"
			},
			{
				"type": "occ",
				"energy": -0.30222,
				"method": "rhf"
			},
			{
				"type": "occ",
				"energy": -0.29923,
				"method": "rhf"
			},
			{
				"type": "occ",
				"energy": -0.25925,
				"method": "rhf"
			},
			{
				"type": "unocc",
				"energy": -0.06055,
				"method": "rhf"
			},
			{
				"type": "unocc",
				"energy": -0.01726,
				"method": "rhf"
			},
			{
				"type": "unocc",
				"energy": 0.00379,
				"method": "rhf"
			},
			{
				"type": "unocc",
				"energy": 0.01801,
				"method": "rhf"
			},
			{
				"type": "unocc",
				"energy": 0.04559,
				"method": "rhf"
			}
		],
		"cosmo_sigma_profile": { 
			"-0.025": 0.0,
			"-0.024": 0.0,
			"-0.023": 0.0,
			"-0.022": 0.0,
			"-0.021": 0.0,
			"-0.02": 0.0,
			"-0.019": 0.0,
			"-0.018": 0.0,
			"-0.017": 0.0,
			"-0.016": 0.0,
			"-0.015": 0.0,
			"-0.014": 0.0,
			"-0.013": 0.0,
			"-0.012": 0.0,
			"-0.011": 0.0,
			"-0.01": 0.639456888383,
			"-0.009": 7.35932472754,
			"-0.008": 7.00706143727,
			"-0.007": 5.11915549566,
			"-0.006": 5.86373997197,
			"-0.005": 5.04444168959,
			"-0.004": 5.90659582386,
			"-0.003": 9.52056857597,
			"-0.002": 13.8149026114,
			"-0.001": 14.0015589729,
			"0.0": 16.325816152,
			"0.001": 18.4511132641,
			"0.002": 16.6827579963,
			"0.003": 12.5279459197,
			"0.004": 7.76698256025,
			"0.005": 9.0226057608,
			"0.006": 10.2087660484,
			"0.007": 2.91486525321,
			"0.008": 1.50813822516,
			"0.009": 1.2087252245,
			"0.01": 0.512551653276,
			"0.011": 1.5173421081,
			"0.012": 0.763880513401,
			"0.013": 0.891127688633,
			"0.014": 0.117449370623,
			"0.015": 0.0,
			"0.016": 0.0,
			"0.017": 0.0,
			"0.018": 0.0,
			"0.019": 0.0,
			"0.02": 0.0,
			"0.021": 0.0,
			"0.022": 0.0,
			"0.023": 0.0,
			"0.024": 0.0,
			"0.025": 0.0
		}
	}
}
