{
	 "smiles": "CCN1C(=O)N(CCC(O)=O)C2=C1C=CC=C2", 
	 "Tm": 453.15, 
	 "num_atms": 31, 
	 "gaussian": { 
		 "optdone": 1, 
		 "sigma_profile": "yes", 
		 "theory": "DFT", 
		 "functional": "B3LYP", 
		 "basiset": "6-31G**", 
		 "properties": { 
			 "R2extent": 4465.7024, 
			 "electric_dipole_moment_norm": 6.85914032368, 
			 "electric_quadrupole_moment_norm": 25.2868984976, 
			 "total_energy": -800.940366936, 
			 "HOMO_LUMO_gap": 0.2, 
			 "cosmo_polarized_energy": -20.03, 
			 "cosmo_cavitation_energy": 34.36, 
			 "cosmo_dispersion_energy": -23.82, 
			 "cosmo_repulsion_energy": 1.84, 
			 "cosmo_total_nonelectrostatic_energy": 12.38, 
			 "SMD_solvation_energy": 7.52 
		},
		"coords": [
			{
				"x": 1.635688023,
				"y": 3.2917046317,
				"z": -0.0540057689,
				"element": "C" 
			},
			{
				"x": 2.2232685003,
				"y": 1.880521077,
				"z": -0.1342643912,
				"element": "C" 
			},
			{
				"x": 1.2084342103,
				"y": 0.8341803443,
				"z": -0.0891657014,
				"element": "N" 
			},
			{
				"x": 0.8596597894,
				"y": 0.1900778382,
				"z": 1.0922242892,
				"element": "C" 
			},
			{
				"x": 1.3265668672,
				"y": 0.3710612397,
				"z": 2.2039940606,
				"element": "O" 
			},
			{
				"x": -0.1442401614,
				"y": -0.742104477,
				"z": 0.7436817032,
				"element": "N" 
			},
			{
				"x": -0.9471985514,
				"y": -1.4053256196,
				"z": 1.7693876068,
				"element": "C" 
			},
			{
				"x": -0.9355055908,
				"y": -2.9444892671,
				"z": 1.6996693313,
				"element": "C" 
			},
			{
				"x": 0.3945777677,
				"y": -3.6298328026,
				"z": 2.0116984482,
				"element": "C" 
			},
			{
				"x": 1.4776043424,
				"y": -3.1487720609,
				"z": 1.3569919498,
				"element": "O" 
			},
			{
				"x": 0.4917248794,
				"y": -4.5719633081,
				"z": 2.7576896399,
				"element": "O" 
			},
			{
				"x": -0.4912523367,
				"y": -0.5629165904,
				"z": -0.604128025,
				"element": "C" 
			},
			{
				"x": 0.3819917714,
				"y": 0.4125169293,
				"z": -1.1290665328,
				"element": "C" 
			},
			{
				"x": 0.3144994542,
				"y": 0.793229279,
				"z": -2.4639474281,
				"element": "C" 
			},
			{
				"x": -0.6611228925,
				"y": 0.1855165977,
				"z": -3.2655123821,
				"element": "C" 
			},
			{
				"x": -1.5391710761,
				"y": -0.7662900112,
				"z": -2.7409651686,
				"element": "C" 
			},
			{
				"x": -1.4652118974,
				"y": -1.1570078675,
				"z": -1.3964376395,
				"element": "C" 
			},
			{
				"x": 2.437510339,
				"y": 4.0349535975,
				"z": -0.1054740265,
				"element": "H" 
			},
			{
				"x": 1.1013403057,
				"y": 3.4294625102,
				"z": 0.8900312403,
				"element": "H" 
			},
			{
				"x": 0.9395406412,
				"y": 3.4835789845,
				"z": -0.8761092309,
				"element": "H" 
			},
			{
				"x": 2.8052074097,
				"y": 1.7474172188,
				"z": -1.0526819651,
				"element": "H" 
			},
			{
				"x": 2.8874995468,
				"y": 1.6952932708,
				"z": 0.713114931,
				"element": "H" 
			},
			{
				"x": -1.9828932069,
				"y": -1.0549024238,
				"z": 1.6879152148,
				"element": "H" 
			},
			{
				"x": -0.5476644297,
				"y": -1.0606852421,
				"z": 2.7265816726,
				"element": "H" 
			},
			{
				"x": -1.253852498,
				"y": -3.2757229011,
				"z": 0.7030672029,
				"element": "H" 
			},
			{
				"x": -1.6620932952,
				"y": -3.335137888,
				"z": 2.415142153,
				"element": "H" 
			},
			{
				"x": 1.2267823724,
				"y": -2.3669582978,
				"z": 0.8380733241,
				"element": "H" 
			},
			{
				"x": 0.9856454305,
				"y": 1.5416546025,
				"z": -2.8717762243,
				"element": "H" 
			},
			{
				"x": -0.7369432055,
				"y": 0.4667200716,
				"z": -4.3111277428,
				"element": "H" 
			},
			{
				"x": -2.2918978735,
				"y": -1.2145610842,
				"z": -3.3814895192,
				"element": "H" 
			},
			{
				"x": -2.1520946355,
				"y": -1.8945183514,
				"z": -0.9953110212,
				"element": "H" 
			}
		],
		 "valence_orbital": [ 
			{
				"type": "occ",
				"energy": -0.30647,
				"method": "rhf"
			},
			{
				"type": "occ",
				"energy": -0.28581,
				"method": "rhf"
			},
			{
				"type": "occ",
				"energy": -0.26317,
				"method": "rhf"
			},
			{
				"type": "occ",
				"energy": -0.24991,
				"method": "rhf"
			},
			{
				"type": "occ",
				"energy": -0.22099,
				"method": "rhf"
			},
			{
				"type": "unocc",
				"energy": -0.02099,
				"method": "rhf"
			},
			{
				"type": "unocc",
				"energy": -0.00432,
				"method": "rhf"
			},
			{
				"type": "unocc",
				"energy": 0.01251,
				"method": "rhf"
			},
			{
				"type": "unocc",
				"energy": 0.04119,
				"method": "rhf"
			},
			{
				"type": "unocc",
				"energy": 0.07145,
				"method": "rhf"
			}
		],
		"cosmo_sigma_profile": { 
			"-0.025": 0.0,
			"-0.024": 0.0,
			"-0.023": 0.0,
			"-0.022": 0.0,
			"-0.021": 0.0,
			"-0.02": 0.0,
			"-0.019": 0.0,
			"-0.018": 0.0,
			"-0.017": 0.0,
			"-0.016": 0.0,
			"-0.015": 0.0,
			"-0.014": 0.0,
			"-0.013": 0.541763228763,
			"-0.012": 0.973609207847,
			"-0.011": 1.23305217568,
			"-0.01": 1.25756714149,
			"-0.009": 2.07066936606,
			"-0.008": 4.20847159196,
			"-0.007": 11.4933814065,
			"-0.006": 20.6692171999,
			"-0.005": 20.7220423465,
			"-0.004": 25.124025733,
			"-0.003": 26.7960276328,
			"-0.002": 19.2714677011,
			"-0.001": 18.4928892638,
			"0.0": 18.4899758192,
			"0.001": 11.6114459847,
			"0.002": 9.07835631311,
			"0.003": 10.8797094155,
			"0.004": 9.36560078097,
			"0.005": 11.7371784555,
			"0.006": 7.08544468393,
			"0.007": 4.3689154301,
			"0.008": 3.58837688207,
			"0.009": 3.86058924651,
			"0.01": 5.77562742619,
			"0.011": 6.92720525286,
			"0.012": 8.24932741623,
			"0.013": 8.03432151625,
			"0.014": 0.5368523255,
			"0.015": 0.0,
			"0.016": 0.0,
			"0.017": 0.0,
			"0.018": 0.0,
			"0.019": 0.0,
			"0.02": 0.0,
			"0.021": 0.0,
			"0.022": 0.0,
			"0.023": 0.0,
			"0.024": 0.0,
			"0.025": 0.0
		}
	}
}
