{
	 "smiles": "CCOC1=CC=C(C=C1)S(=O)(=O)NCC(O)=O", 
	 "Tm": 413.15, 
	 "num_atms": 30, 
	 "gaussian": { 
		 "optdone": 1, 
		 "sigma_profile": "yes", 
		 "theory": "DFT", 
		 "functional": "B3LYP", 
		 "basiset": "6-31G**", 
		 "properties": { 
			 "R2extent": 5702.757, 
			 "electric_dipole_moment_norm": 6.8542599958, 
			 "electric_quadrupole_moment_norm": 22.9137597668, 
			 "total_energy": -1217.89302937, 
			 "HOMO_LUMO_gap": 0.20861, 
			 "cosmo_polarized_energy": -22.41, 
			 "cosmo_cavitation_energy": 35.74, 
			 "cosmo_dispersion_energy": -25.32, 
			 "cosmo_repulsion_energy": 1.96, 
			 "cosmo_total_nonelectrostatic_energy": 12.39, 
			 "SMD_solvation_energy": 6.14 
		},
		"coords": [
			{
				"x": 4.5101845165,
				"y": 2.3274240045,
				"z": -1.57950672,
				"element": "C" 
			},
			{
				"x": 3.2120326418,
				"y": 1.625263525,
				"z": -1.9348388675,
				"element": "C" 
			},
			{
				"x": 2.3255508117,
				"y": 1.7710539291,
				"z": -0.8206148785,
				"element": "O" 
			},
			{
				"x": 1.0804293958,
				"y": 1.2375742657,
				"z": -0.8910825417,
				"element": "C" 
			},
			{
				"x": 0.5842272692,
				"y": 0.5160372567,
				"z": -1.9883626017,
				"element": "C" 
			},
			{
				"x": -0.7147740879,
				"y": 0.0109410897,
				"z": -1.951955824,
				"element": "C" 
			},
			{
				"x": -1.5161665742,
				"y": 0.2234973836,
				"z": -0.8303735939,
				"element": "C" 
			},
			{
				"x": -1.0303673176,
				"y": 0.9531887915,
				"z": 0.2632046472,
				"element": "C" 
			},
			{
				"x": 0.2628441655,
				"y": 1.4535975115,
				"z": 0.2322053259,
				"element": "C" 
			},
			{
				"x": -3.1730170979,
				"y": -0.4519220802,
				"z": -0.7891587299,
				"element": "S" 
			},
			{
				"x": -3.9378056697,
				"y": 0.3333243928,
				"z": 0.181614718,
				"element": "O" 
			},
			{
				"x": -3.6037099552,
				"y": -0.6541665271,
				"z": -2.1724998103,
				"element": "O" 
			},
			{
				"x": -3.0930713017,
				"y": -2.0126154152,
				"z": -0.1439061874,
				"element": "N" 
			},
			{
				"x": -2.7267510524,
				"y": -2.1962943702,
				"z": 1.2516873397,
				"element": "C" 
			},
			{
				"x": -1.2393222311,
				"y": -2.3224739506,
				"z": 1.5661753959,
				"element": "C" 
			},
			{
				"x": -0.5354076724,
				"y": -2.7976762465,
				"z": 0.5110656463,
				"element": "O" 
			},
			{
				"x": -0.7451953961,
				"y": -2.0865615361,
				"z": 2.6433572412,
				"element": "O" 
			},
			{
				"x": 4.9588245765,
				"y": 1.881631791,
				"z": -0.6875567654,
				"element": "H" 
			},
			{
				"x": 5.2210185685,
				"y": 2.2403975397,
				"z": -2.4067216591,
				"element": "H" 
			},
			{
				"x": 4.3334095133,
				"y": 3.3884535928,
				"z": -1.3836800507,
				"element": "H" 
			},
			{
				"x": 2.756602668,
				"y": 2.0689761948,
				"z": -2.8306047452,
				"element": "H" 
			},
			{
				"x": 3.3837092544,
				"y": 0.5585554855,
				"z": -2.1350148564,
				"element": "H" 
			},
			{
				"x": 1.1913908239,
				"y": 0.3533897523,
				"z": -2.8702753421,
				"element": "H" 
			},
			{
				"x": -1.1150413268,
				"y": -0.5281083269,
				"z": -2.8039899439,
				"element": "H" 
			},
			{
				"x": -1.673294956,
				"y": 1.1428655008,
				"z": 1.1156173232,
				"element": "H" 
			},
			{
				"x": 0.6637493577,
				"y": 2.0265712803,
				"z": 1.0613282572,
				"element": "H" 
			},
			{
				"x": -2.648762989,
				"y": -2.6536199525,
				"z": -0.7942778664,
				"element": "H" 
			},
			{
				"x": -3.1381891731,
				"y": -1.3738912154,
				"z": 1.8390185887,
				"element": "H" 
			},
			{
				"x": -3.2057721272,
				"y": -3.1128686239,
				"z": 1.6200290206,
				"element": "H" 
			},
			{
				"x": 0.3888753655,
				"y": -2.8644450424,
				"z": 0.8042174802,
				"element": "H" 
			}
		],
		 "valence_orbital": [ 
			{
				"type": "occ",
				"energy": -0.30264,
				"method": "rhf"
			},
			{
				"type": "occ",
				"energy": -0.29981,
				"method": "rhf"
			},
			{
				"type": "occ",
				"energy": -0.27358,
				"method": "rhf"
			},
			{
				"type": "occ",
				"energy": -0.27121,
				"method": "rhf"
			},
			{
				"type": "occ",
				"energy": -0.23919,
				"method": "rhf"
			},
			{
				"type": "unocc",
				"energy": -0.03058,
				"method": "rhf"
			},
			{
				"type": "unocc",
				"energy": -0.02392,
				"method": "rhf"
			},
			{
				"type": "unocc",
				"energy": -0.00408,
				"method": "rhf"
			},
			{
				"type": "unocc",
				"energy": 0.053,
				"method": "rhf"
			},
			{
				"type": "unocc",
				"energy": 0.06567,
				"method": "rhf"
			}
		],
		"cosmo_sigma_profile": { 
			"-0.025": 0.0,
			"-0.024": 0.0,
			"-0.023": 0.0,
			"-0.022": 0.0,
			"-0.021": 0.0,
			"-0.02": 0.0,
			"-0.019": 0.472218266594,
			"-0.018": 0.933035869208,
			"-0.017": 0.980292208649,
			"-0.016": 0.446559736822,
			"-0.015": 0.637404969395,
			"-0.014": 1.16056873962,
			"-0.013": 1.5972145869,
			"-0.012": 1.85019543316,
			"-0.011": 1.94087126863,
			"-0.01": 2.28291362294,
			"-0.009": 3.7664007724,
			"-0.008": 5.39395433847,
			"-0.007": 12.2151057353,
			"-0.006": 16.3569561237,
			"-0.005": 18.6493651164,
			"-0.004": 21.4569558944,
			"-0.003": 19.0173412555,
			"-0.002": 14.9387786172,
			"-0.001": 15.7242696408,
			"0.0": 17.8105064491,
			"0.001": 16.4175365693,
			"0.002": 19.5647610634,
			"0.003": 14.4678078835,
			"0.004": 9.99980776482,
			"0.005": 7.40801084807,
			"0.006": 7.1448587191,
			"0.007": 6.7248510177,
			"0.008": 7.60003040825,
			"0.009": 6.32869426628,
			"0.01": 9.65180438756,
			"0.011": 14.0239400331,
			"0.012": 5.90546297983,
			"0.013": 0.0911282960358,
			"0.014": 0.0,
			"0.015": 0.0,
			"0.016": 0.0,
			"0.017": 0.0,
			"0.018": 0.0,
			"0.019": 0.0,
			"0.02": 0.0,
			"0.021": 0.0,
			"0.022": 0.0,
			"0.023": 0.0,
			"0.024": 0.0,
			"0.025": 0.0
		}
	}
}
