{
	 "smiles": "FC1=CC(NC(=O)C=C)=CC=C1", 
	 "Tm": 397.15, 
	 "num_atms": 20, 
	 "gaussian": { 
		 "optdone": 1, 
		 "sigma_profile": "yes", 
		 "theory": "DFT", 
		 "functional": "B3LYP", 
		 "basiset": "6-31G**", 
		 "properties": { 
			 "R2extent": 2899.7959, 
			 "electric_dipole_moment_norm": 2.62102922342, 
			 "electric_quadrupole_moment_norm": 8.62645097766, 
			 "total_energy": -577.576534224, 
			 "HOMO_LUMO_gap": 0.18681, 
			 "cosmo_polarized_energy": -10.67, 
			 "cosmo_cavitation_energy": 25.4, 
			 "cosmo_dispersion_energy": -18.1, 
			 "cosmo_repulsion_energy": 1.42, 
			 "cosmo_total_nonelectrostatic_energy": 8.72, 
			 "SMD_solvation_energy": 6.33 
		},
		"coords": [
			{
				"x": 0.6925063827,
				"y": 0.082262271,
				"z": -4.5665186324,
				"element": "F" 
			},
			{
				"x": 0.6172328932,
				"y": 0.2687318375,
				"z": -3.2332739554,
				"element": "C" 
			},
			{
				"x": -0.3106633735,
				"y": -0.4715673272,
				"z": -2.5142400522,
				"element": "C" 
			},
			{
				"x": -0.3980639118,
				"y": -0.2895565229,
				"z": -1.1257031075,
				"element": "C" 
			},
			{
				"x": -1.3157375006,
				"y": -1.0826426144,
				"z": -0.4055492196,
				"element": "N" 
			},
			{
				"x": -2.0863140902,
				"y": -0.8025272802,
				"z": 0.7150030802,
				"element": "C" 
			},
			{
				"x": -2.6646676162,
				"y": -1.7170717053,
				"z": 1.2898471458,
				"element": "O" 
			},
			{
				"x": -2.2271217872,
				"y": 0.625294613,
				"z": 1.1236335489,
				"element": "C" 
			},
			{
				"x": -2.8161508511,
				"y": 0.930403632,
				"z": 2.2822202621,
				"element": "C" 
			},
			{
				"x": 0.4586202029,
				"y": 0.6261852137,
				"z": -0.4938407156,
				"element": "C" 
			},
			{
				"x": 1.3606469623,
				"y": 1.3720047586,
				"z": -1.253033234,
				"element": "C" 
			},
			{
				"x": 1.4561236863,
				"y": 1.2024020091,
				"z": -2.6342761015,
				"element": "C" 
			},
			{
				"x": -0.9626890982,
				"y": -1.1664223471,
				"z": -3.0325575638,
				"element": "H" 
			},
			{
				"x": -1.4200472894,
				"y": -2.0459800525,
				"z": -0.7002438625,
				"element": "H" 
			},
			{
				"x": -1.8705361577,
				"y": 1.3988018526,
				"z": 0.4514844823,
				"element": "H" 
			},
			{
				"x": -3.169781966,
				"y": 0.1402390591,
				"z": 2.9375287645,
				"element": "H" 
			},
			{
				"x": -2.961612636,
				"y": 1.9595504287,
				"z": 2.5943737142,
				"element": "H" 
			},
			{
				"x": 0.4344273039,
				"y": 0.7324826375,
				"z": 0.5843612473,
				"element": "H" 
			},
			{
				"x": 2.0166525242,
				"y": 2.0794966658,
				"z": -0.7550858647,
				"element": "H" 
			},
			{
				"x": 2.1609763225,
				"y": 1.7621128709,
				"z": -3.2382299361,
				"element": "H" 
			}
		],
		 "valence_orbital": [ 
			{
				"type": "occ",
				"energy": -0.30598,
				"method": "rhf"
			},
			{
				"type": "occ",
				"energy": -0.27974,
				"method": "rhf"
			},
			{
				"type": "occ",
				"energy": -0.26033,
				"method": "rhf"
			},
			{
				"type": "occ",
				"energy": -0.25796,
				"method": "rhf"
			},
			{
				"type": "occ",
				"energy": -0.23457,
				"method": "rhf"
			},
			{
				"type": "unocc",
				"energy": -0.04776,
				"method": "rhf"
			},
			{
				"type": "unocc",
				"energy": -0.01584,
				"method": "rhf"
			},
			{
				"type": "unocc",
				"energy": -0.00829,
				"method": "rhf"
			},
			{
				"type": "unocc",
				"energy": 0.07968,
				"method": "rhf"
			},
			{
				"type": "unocc",
				"energy": 0.08599,
				"method": "rhf"
			}
		],
		"cosmo_sigma_profile": { 
			"-0.025": 0.0,
			"-0.024": 0.0,
			"-0.023": 0.0,
			"-0.022": 0.0,
			"-0.021": 0.0,
			"-0.02": 0.0,
			"-0.019": 0.0,
			"-0.018": 0.0,
			"-0.017": 0.0,
			"-0.016": 0.0,
			"-0.015": 0.300717457801,
			"-0.014": 0.884615772626,
			"-0.013": 1.22266644677,
			"-0.012": 1.19264132655,
			"-0.011": 0.968339701369,
			"-0.01": 1.08531200174,
			"-0.009": 1.24717922982,
			"-0.008": 2.52468983914,
			"-0.007": 6.10909130579,
			"-0.006": 12.0194100198,
			"-0.005": 13.1421525648,
			"-0.004": 14.2419618296,
			"-0.003": 12.699867471,
			"-0.002": 12.4775904436,
			"-0.001": 11.7457600049,
			"0.0": 15.4322411214,
			"0.001": 19.2836207284,
			"0.002": 17.7506081666,
			"0.003": 17.8062080146,
			"0.004": 18.3067796954,
			"0.005": 4.370631634,
			"0.006": 1.33452738041,
			"0.007": 1.40526707486,
			"0.008": 1.9944962318,
			"0.009": 1.10570510611,
			"0.01": 0.871157520211,
			"0.011": 2.21016650499,
			"0.012": 2.34942042231,
			"0.013": 5.36431912698,
			"0.014": 2.31383403166,
			"0.015": 0.0,
			"0.016": 0.0,
			"0.017": 0.0,
			"0.018": 0.0,
			"0.019": 0.0,
			"0.02": 0.0,
			"0.021": 0.0,
			"0.022": 0.0,
			"0.023": 0.0,
			"0.024": 0.0,
			"0.025": 0.0
		}
	}
}
