{
	 "smiles": "CC(C)C1=CC(C(C)C)=C(C(=C1)C(C)C)S(N)(=O)=O", 
	 "Tm": 388.15, 
	 "num_atms": 44, 
	 "gaussian": { 
		 "optdone": 1, 
		 "sigma_profile": "yes", 
		 "theory": "DFT", 
		 "functional": "B3LYP", 
		 "basiset": "6-31G**", 
		 "properties": { 
			 "R2extent": 6157.1045, 
			 "electric_dipole_moment_norm": 3.43919349412, 
			 "electric_quadrupole_moment_norm": 12.7862772217, 
			 "total_energy": -1189.99736764, 
			 "HOMO_LUMO_gap": 0.21229, 
			 "cosmo_polarized_energy": -13.93, 
			 "cosmo_cavitation_energy": 43.49, 
			 "cosmo_dispersion_energy": -29.67, 
			 "cosmo_repulsion_energy": 2.29, 
			 "cosmo_total_nonelectrostatic_energy": 16.1, 
			 "SMD_solvation_energy": 7.45 
		},
		"coords": [
			{
				"x": -2.9548296577,
				"y": 0.7165294267,
				"z": -2.6230600897,
				"element": "C" 
			},
			{
				"x": -2.4162554108,
				"y": -0.6141211288,
				"z": -2.0638055991,
				"element": "C" 
			},
			{
				"x": -3.5165219514,
				"y": -1.3854257237,
				"z": -1.310516535,
				"element": "C" 
			},
			{
				"x": -1.183952882,
				"y": -0.4070305093,
				"z": -1.1953169065,
				"element": "C" 
			},
			{
				"x": -1.229021395,
				"y": 0.3444498732,
				"z": -0.0218478054,
				"element": "C" 
			},
			{
				"x": -0.1161210671,
				"y": 0.5167325805,
				"z": 0.8055089872,
				"element": "C" 
			},
			{
				"x": -0.2892627075,
				"y": 1.4827341104,
				"z": 1.9878205966,
				"element": "C" 
			},
			{
				"x": -1.2218399099,
				"y": 0.9038446448,
				"z": 3.0667349816,
				"element": "C" 
			},
			{
				"x": -0.7809805698,
				"y": 2.8621845859,
				"z": 1.501679391,
				"element": "C" 
			},
			{
				"x": 1.0882529714,
				"y": -0.1537777355,
				"z": 0.4524976131,
				"element": "C" 
			},
			{
				"x": 1.223493769,
				"y": -0.7960317543,
				"z": -0.8065208409,
				"element": "C" 
			},
			{
				"x": 0.0536178234,
				"y": -0.9183037992,
				"z": -1.5747961426,
				"element": "C" 
			},
			{
				"x": 2.4753077555,
				"y": -1.3301676007,
				"z": -1.5367140941,
				"element": "C" 
			},
			{
				"x": 2.7158471752,
				"y": -2.8412555793,
				"z": -1.3411187318,
				"element": "C" 
			},
			{
				"x": 3.7624926179,
				"y": -0.4950499092,
				"z": -1.4234939674,
				"element": "C" 
			},
			{
				"x": 2.3951392644,
				"y": -0.1315941261,
				"z": 1.7218409029,
				"element": "S" 
			},
			{
				"x": 3.2141770792,
				"y": -1.6071501734,
				"z": 1.5372800364,
				"element": "N" 
			},
			{
				"x": 1.7408693543,
				"y": -0.2342051643,
				"z": 3.0344848544,
				"element": "O" 
			},
			{
				"x": 3.3598849959,
				"y": 0.9418652051,
				"z": 1.4531566978,
				"element": "O" 
			},
			{
				"x": -3.8036529733,
				"y": 0.536709943,
				"z": -3.2915638332,
				"element": "H" 
			},
			{
				"x": -3.2996316617,
				"y": 1.3761865542,
				"z": -1.8194047017,
				"element": "H" 
			},
			{
				"x": -2.184193195,
				"y": 1.2515854017,
				"z": -3.1864714121,
				"element": "H" 
			},
			{
				"x": -2.1067790179,
				"y": -1.2298582744,
				"z": -2.9184484211,
				"element": "H" 
			},
			{
				"x": -3.8815191179,
				"y": -0.816681819,
				"z": -0.4483738577,
				"element": "H" 
			},
			{
				"x": -3.1467079971,
				"y": -2.3475226055,
				"z": -0.9428428866,
				"element": "H" 
			},
			{
				"x": -4.371067499,
				"y": -1.5768783134,
				"z": -1.9684034563,
				"element": "H" 
			},
			{
				"x": -2.1575166192,
				"y": 0.8296469873,
				"z": 0.2616782391,
				"element": "H" 
			},
			{
				"x": 0.6751893084,
				"y": 1.6536569963,
				"z": 2.4610685897,
				"element": "H" 
			},
			{
				"x": -2.2259249097,
				"y": 0.7137293136,
				"z": 2.6705338872,
				"element": "H" 
			},
			{
				"x": -0.8194490887,
				"y": -0.0318869532,
				"z": 3.4603359454,
				"element": "H" 
			},
			{
				"x": -1.3204404875,
				"y": 1.6094364882,
				"z": 3.898757879,
				"element": "H" 
			},
			{
				"x": -1.7954429495,
				"y": 2.8273591096,
				"z": 1.0912734841,
				"element": "H" 
			},
			{
				"x": -0.7931964645,
				"y": 3.5624428637,
				"z": 2.3437201936,
				"element": "H" 
			},
			{
				"x": -0.1198703652,
				"y": 3.2718792445,
				"z": 0.7317290578,
				"element": "H" 
			},
			{
				"x": 0.1297278555,
				"y": -1.4304961657,
				"z": -2.5314085785,
				"element": "H" 
			},
			{
				"x": 2.1865393526,
				"y": -1.2245631819,
				"z": -2.5897734814,
				"element": "H" 
			},
			{
				"x": 3.0195490451,
				"y": -3.0688666735,
				"z": -0.3198317017,
				"element": "H" 
			},
			{
				"x": 3.5020508842,
				"y": -3.1805966542,
				"z": -2.0252175744,
				"element": "H" 
			},
			{
				"x": 1.8080354215,
				"y": -3.4104911388,
				"z": -1.5666631666,
				"element": "H" 
			},
			{
				"x": 4.292254203,
				"y": -0.619441092,
				"z": -0.4810193671,
				"element": "H" 
			},
			{
				"x": 4.4474734955,
				"y": -0.7991852365,
				"z": -2.2226638448,
				"element": "H" 
			},
			{
				"x": 3.5565245926,
				"y": 0.5719651007,
				"z": -1.5443407279,
				"element": "H" 
			},
			{
				"x": 2.9701836537,
				"y": -2.1882135049,
				"z": 2.3358427284,
				"element": "H" 
			},
			{
				"x": 4.2132672789,
				"y": -1.4179436123,
				"z": 1.5260736582,
				"element": "H" 
			}
		],
		 "valence_orbital": [ 
			{
				"type": "occ",
				"energy": -0.30257,
				"method": "rhf"
			},
			{
				"type": "occ",
				"energy": -0.29772,
				"method": "rhf"
			},
			{
				"type": "occ",
				"energy": -0.27852,
				"method": "rhf"
			},
			{
				"type": "occ",
				"energy": -0.24673,
				"method": "rhf"
			},
			{
				"type": "occ",
				"energy": -0.24183,
				"method": "rhf"
			},
			{
				"type": "unocc",
				"energy": -0.02954,
				"method": "rhf"
			},
			{
				"type": "unocc",
				"energy": -0.0099,
				"method": "rhf"
			},
			{
				"type": "unocc",
				"energy": 0.05204,
				"method": "rhf"
			},
			{
				"type": "unocc",
				"energy": 0.06966,
				"method": "rhf"
			},
			{
				"type": "unocc",
				"energy": 0.07633,
				"method": "rhf"
			}
		],
		"cosmo_sigma_profile": { 
			"-0.025": 0.0,
			"-0.024": 0.0,
			"-0.023": 0.0,
			"-0.022": 0.0,
			"-0.021": 0.0,
			"-0.02": 0.0,
			"-0.019": 0.0,
			"-0.018": 0.0,
			"-0.017": 0.0,
			"-0.016": 0.0,
			"-0.015": 0.317870104273,
			"-0.014": 1.95559928143,
			"-0.013": 2.74976029103,
			"-0.012": 2.50284223494,
			"-0.011": 1.36390575559,
			"-0.01": 2.43195370014,
			"-0.009": 1.79646228998,
			"-0.008": 2.09160387307,
			"-0.007": 1.44854576064,
			"-0.006": 2.67222546113,
			"-0.005": 10.1703448178,
			"-0.004": 13.133090597,
			"-0.003": 30.256182029,
			"-0.002": 41.967566568,
			"-0.001": 42.4856562278,
			"0.0": 41.4035143161,
			"0.001": 49.7019439546,
			"0.002": 25.9818074548,
			"0.003": 14.1101407072,
			"0.004": 13.2650839193,
			"0.005": 5.04781471602,
			"0.006": 3.72108917191,
			"0.007": 3.09693999144,
			"0.008": 2.96148900686,
			"0.009": 4.05955153245,
			"0.01": 4.92262822608,
			"0.011": 7.02471783382,
			"0.012": 5.16523565607,
			"0.013": 0.148186095565,
			"0.014": 0.0,
			"0.015": 0.0,
			"0.016": 0.0,
			"0.017": 0.0,
			"0.018": 0.0,
			"0.019": 0.0,
			"0.02": 0.0,
			"0.021": 0.0,
			"0.022": 0.0,
			"0.023": 0.0,
			"0.024": 0.0,
			"0.025": 0.0
		}
	}
}
