{
	 "smiles": "NC1=C(C=C(OCCO)C=C1)C(F)(F)F", 
	 "Tm": 347.15, 
	 "num_atms": 25, 
	 "gaussian": { 
		 "optdone": 1, 
		 "sigma_profile": "yes", 
		 "theory": "DFT", 
		 "functional": "B3LYP", 
		 "basiset": "6-31G**", 
		 "properties": { 
			 "R2extent": 4823.6518, 
			 "electric_dipole_moment_norm": 3.05619519992, 
			 "electric_quadrupole_moment_norm": 13.5691975916, 
			 "total_energy": -853.688778156, 
			 "HOMO_LUMO_gap": 0.17564, 
			 "cosmo_polarized_energy": -12.79, 
			 "cosmo_cavitation_energy": 29.89, 
			 "cosmo_dispersion_energy": -21.71, 
			 "cosmo_repulsion_energy": 1.67, 
			 "cosmo_total_nonelectrostatic_energy": 9.84, 
			 "SMD_solvation_energy": 6.34 
		},
		"coords": [
			{
				"x": 0.3631349796,
				"y": 4.310269091,
				"z": -0.623638222,
				"element": "N" 
			},
			{
				"x": 0.2536112317,
				"y": 2.9210950696,
				"z": -0.691153986,
				"element": "C" 
			},
			{
				"x": 0.3576181388,
				"y": 2.0988340353,
				"z": 0.4561842494,
				"element": "C" 
			},
			{
				"x": 0.1875052134,
				"y": 0.7188232294,
				"z": 0.3622785651,
				"element": "C" 
			},
			{
				"x": -0.0952286168,
				"y": 0.1068936218,
				"z": -0.8611219461,
				"element": "C" 
			},
			{
				"x": -0.2227792747,
				"y": -1.2593312304,
				"z": -0.8229662547,
				"element": "O" 
			},
			{
				"x": -0.5196704249,
				"y": -1.9725326965,
				"z": -2.017029712,
				"element": "C" 
			},
			{
				"x": -2.0155475229,
				"y": -1.9653443395,
				"z": -2.3270448421,
				"element": "C" 
			},
			{
				"x": -2.1784272349,
				"y": -2.7186384113,
				"z": -3.5199629146,
				"element": "O" 
			},
			{
				"x": -0.2090198988,
				"y": 0.9077671492,
				"z": -2.0023239138,
				"element": "C" 
			},
			{
				"x": -0.0321632846,
				"y": 2.2874431915,
				"z": -1.9086025317,
				"element": "C" 
			},
			{
				"x": 0.6210093941,
				"y": 2.7131529621,
				"z": 1.8006736989,
				"element": "C" 
			},
			{
				"x": 0.825649277,
				"y": 1.7945850665,
				"z": 2.7641738611,
				"element": "F" 
			},
			{
				"x": 1.7308378846,
				"y": 3.5138570118,
				"z": 1.7815076908,
				"element": "F" 
			},
			{
				"x": -0.3960612348,
				"y": 3.5050267575,
				"z": 2.2108573407,
				"element": "F" 
			},
			{
				"x": 0.9468833265,
				"y": 4.6645143577,
				"z": 0.120714921,
				"element": "H" 
			},
			{
				"x": 0.5644111226,
				"y": 4.7550331895,
				"z": -1.5082437633,
				"element": "H" 
			},
			{
				"x": 0.2775936123,
				"y": 0.0982156886,
				"z": 1.245356457,
				"element": "H" 
			},
			{
				"x": 0.0482866867,
				"y": -1.5882008239,
				"z": -2.8728330725,
				"element": "H" 
			},
			{
				"x": -0.1939167557,
				"y": -3.0004175501,
				"z": -1.8384477858,
				"element": "H" 
			},
			{
				"x": -2.5539157589,
				"y": -2.4088980983,
				"z": -1.476208447,
				"element": "H" 
			},
			{
				"x": -2.3731968988,
				"y": -0.9310887187,
				"z": -2.4422852455,
				"element": "H" 
			},
			{
				"x": -3.1215244546,
				"y": -2.7844748306,
				"z": -3.7109597799,
				"element": "H" 
			},
			{
				"x": -0.4310185884,
				"y": 0.4771145959,
				"z": -2.9717730855,
				"element": "H" 
			},
			{
				"x": -0.1239709186,
				"y": 2.8931016818,
				"z": -2.8066512816,
				"element": "H" 
			}
		],
		 "valence_orbital": [ 
			{
				"type": "occ",
				"energy": -0.32526,
				"method": "rhf"
			},
			{
				"type": "occ",
				"energy": -0.28431,
				"method": "rhf"
			},
			{
				"type": "occ",
				"energy": -0.27756,
				"method": "rhf"
			},
			{
				"type": "occ",
				"energy": -0.26201,
				"method": "rhf"
			},
			{
				"type": "occ",
				"energy": -0.19529,
				"method": "rhf"
			},
			{
				"type": "unocc",
				"energy": -0.01965,
				"method": "rhf"
			},
			{
				"type": "unocc",
				"energy": 0.01517,
				"method": "rhf"
			},
			{
				"type": "unocc",
				"energy": 0.06047,
				"method": "rhf"
			},
			{
				"type": "unocc",
				"energy": 0.08578,
				"method": "rhf"
			},
			{
				"type": "unocc",
				"energy": 0.09518,
				"method": "rhf"
			}
		],
		"cosmo_sigma_profile": { 
			"-0.025": 0.0,
			"-0.024": 0.0,
			"-0.023": 0.0,
			"-0.022": 0.0,
			"-0.021": 0.0,
			"-0.02": 0.0,
			"-0.019": 0.0,
			"-0.018": 0.0,
			"-0.017": 0.0318871059611,
			"-0.016": 0.800527556688,
			"-0.015": 1.13044769348,
			"-0.014": 0.884097358981,
			"-0.013": 1.23208436465,
			"-0.012": 3.20725224026,
			"-0.011": 2.64140332361,
			"-0.01": 3.2559030085,
			"-0.009": 4.30688507157,
			"-0.008": 2.59978697982,
			"-0.007": 5.46975725639,
			"-0.006": 8.60853485849,
			"-0.005": 12.1763915669,
			"-0.004": 14.1499371893,
			"-0.003": 14.3470222575,
			"-0.002": 14.2453819335,
			"-0.001": 12.8985263957,
			"0.0": 11.993787261,
			"0.001": 14.9784555265,
			"0.002": 24.587354025,
			"0.003": 33.0976770883,
			"0.004": 16.4564122878,
			"0.005": 8.62876327515,
			"0.006": 4.17285447704,
			"0.007": 3.49370444767,
			"0.008": 2.22640910728,
			"0.009": 3.7904523417,
			"0.01": 3.39654370234,
			"0.011": 2.32297113306,
			"0.012": 1.92586230456,
			"0.013": 2.66341060077,
			"0.014": 0.975566997588,
			"0.015": 0.0,
			"0.016": 0.0,
			"0.017": 0.0,
			"0.018": 0.0,
			"0.019": 0.0,
			"0.02": 0.0,
			"0.021": 0.0,
			"0.022": 0.0,
			"0.023": 0.0,
			"0.024": 0.0,
			"0.025": 0.0
		}
	}
}
