{
	 "smiles": "CC(C=CC=C(/C)C=CC1=C(C)CCCC1(C)C)=C/C=O", 
	 "Tm": 336.15, 
	 "num_atms": 49, 
	 "gaussian": { 
		 "optdone": 1, 
		 "sigma_profile": "yes", 
		 "theory": "DFT", 
		 "functional": "B3LYP", 
		 "basiset": "6-31G**", 
		 "properties": { 
			 "R2extent": 13308.0394, 
			 "electric_dipole_moment_norm": 5.76805845064, 
			 "electric_quadrupole_moment_norm": 43.9746202046, 
			 "total_energy": -854.170613177, 
			 "HOMO_LUMO_gap": 0.1161, 
			 "cosmo_polarized_energy": -9.49, 
			 "cosmo_cavitation_energy": 49.12, 
			 "cosmo_dispersion_energy": -33.45, 
			 "cosmo_repulsion_energy": 2.61, 
			 "cosmo_total_nonelectrostatic_energy": 18.28, 
			 "SMD_solvation_energy": 9.23 
		},
		"coords": [
			{
				"x": -1.211356228,
				"y": -6.5611150796,
				"z": -2.1014099678,
				"element": "C" 
			},
			{
				"x": -0.3440140051,
				"y": -5.8854398499,
				"z": -1.0667562919,
				"element": "C" 
			},
			{
				"x": -0.1883130509,
				"y": -4.4421354779,
				"z": -1.2401168204,
				"element": "C" 
			},
			{
				"x": 0.1337013086,
				"y": -3.5544648026,
				"z": -0.2604344684,
				"element": "C" 
			},
			{
				"x": 0.3107642317,
				"y": -2.1223970951,
				"z": -0.3562369888,
				"element": "C" 
			},
			{
				"x": 0.6356959352,
				"y": -1.3540709417,
				"z": -1.438880692,
				"element": "C" 
			},
			{
				"x": 1.0006516353,
				"y": -1.923618101,
				"z": -2.789025356,
				"element": "C" 
			},
			{
				"x": 0.6933524937,
				"y": 0.1058580431,
				"z": -1.3319875616,
				"element": "C" 
			},
			{
				"x": -0.0528576467,
				"y": 0.8691541859,
				"z": -0.500471035,
				"element": "C" 
			},
			{
				"x": -0.0211626945,
				"y": 2.3360111574,
				"z": -0.3690421349,
				"element": "C" 
			},
			{
				"x": 1.1317175171,
				"y": 3.0476634621,
				"z": -0.2673279289,
				"element": "C" 
			},
			{
				"x": 2.5152820644,
				"y": 2.4401819677,
				"z": -0.2587744122,
				"element": "C" 
			},
			{
				"x": 1.1492977069,
				"y": 4.5595891284,
				"z": -0.1404472744,
				"element": "C" 
			},
			{
				"x": -0.1922432254,
				"y": 5.1739850631,
				"z": 0.2602957202,
				"element": "C" 
			},
			{
				"x": -1.3170425801,
				"y": 4.5227908684,
				"z": -0.539570319,
				"element": "C" 
			},
			{
				"x": -1.4191347565,
				"y": 2.9987413453,
				"z": -0.301353643,
				"element": "C" 
			},
			{
				"x": -2.3432553289,
				"y": 2.4190061536,
				"z": -1.3967732478,
				"element": "C" 
			},
			{
				"x": -2.0607306231,
				"y": 2.7249048093,
				"z": 1.0813043729,
				"element": "C" 
			},
			{
				"x": 0.2734978711,
				"y": -6.5579662175,
				"z": -0.0516053579,
				"element": "C" 
			},
			{
				"x": 0.1799148495,
				"y": -7.9833809324,
				"z": 0.2720536831,
				"element": "C" 
			},
			{
				"x": -0.4643053066,
				"y": -8.8484418197,
				"z": -0.3083807878,
				"element": "O" 
			},
			{
				"x": -1.2710376496,
				"y": -7.6347669783,
				"z": -1.9408181488,
				"element": "H" 
			},
			{
				"x": -2.2220996123,
				"y": -6.1347061197,
				"z": -2.0792030345,
				"element": "H" 
			},
			{
				"x": -0.8118946363,
				"y": -6.360608855,
				"z": -3.1039535334,
				"element": "H" 
			},
			{
				"x": -0.4352259396,
				"y": -4.0683947189,
				"z": -2.2300827291,
				"element": "H" 
			},
			{
				"x": 0.2249694658,
				"y": -3.9487064738,
				"z": 0.7513670911,
				"element": "H" 
			},
			{
				"x": 0.2157053432,
				"y": -1.5974148033,
				"z": 0.5919927227,
				"element": "H" 
			},
			{
				"x": 1.7202167445,
				"y": -1.2727204576,
				"z": -3.2966721247,
				"element": "H" 
			},
			{
				"x": 0.12341192,
				"y": -1.9924717451,
				"z": -3.4459767173,
				"element": "H" 
			},
			{
				"x": 1.4317432591,
				"y": -2.9249266979,
				"z": -2.7088854933,
				"element": "H" 
			},
			{
				"x": 1.3593918471,
				"y": 0.6041476889,
				"z": -2.0345393349,
				"element": "H" 
			},
			{
				"x": -0.8173767818,
				"y": 0.359090848,
				"z": 0.0854453966,
				"element": "H" 
			},
			{
				"x": 2.5083053654,
				"y": 1.3619495852,
				"z": -0.0992908745,
				"element": "H" 
			},
			{
				"x": 3.1230905722,
				"y": 2.9042007209,
				"z": 0.5277919484,
				"element": "H" 
			},
			{
				"x": 3.0400341053,
				"y": 2.6346334122,
				"z": -1.2046095534,
				"element": "H" 
			},
			{
				"x": 1.9294843531,
				"y": 4.8481817793,
				"z": 0.5760785751,
				"element": "H" 
			},
			{
				"x": 1.4772843229,
				"y": 4.9802600802,
				"z": -1.1051084883,
				"element": "H" 
			},
			{
				"x": -0.3587264809,
				"y": 5.0276451131,
				"z": 1.3343619935,
				"element": "H" 
			},
			{
				"x": -0.177165904,
				"y": 6.2572979657,
				"z": 0.0941832917,
				"element": "H" 
			},
			{
				"x": -2.2840352587,
				"y": 4.9848685608,
				"z": -0.3044152079,
				"element": "H" 
			},
			{
				"x": -1.138430853,
				"y": 4.7018660572,
				"z": -1.6088400531,
				"element": "H" 
			},
			{
				"x": -2.5443193375,
				"y": 1.3539552533,
				"z": -1.2499698143,
				"element": "H" 
			},
			{
				"x": -3.3060941856,
				"y": 2.9428190053,
				"z": -1.3904363547,
				"element": "H" 
			},
			{
				"x": -1.8992250805,
				"y": 2.5404416759,
				"z": -2.3904101703,
				"element": "H" 
			},
			{
				"x": -1.4703027505,
				"y": 3.1565647647,
				"z": 1.8945248972,
				"element": "H" 
			},
			{
				"x": -2.1566846302,
				"y": 1.652555956,
				"z": 1.2790020989,
				"element": "H" 
			},
			{
				"x": -3.0681026697,
				"y": 3.155137938,
				"z": 1.1248481908,
				"element": "H" 
			},
			{
				"x": 0.936102052,
				"y": -6.0016130761,
				"z": 0.6076447242,
				"element": "H" 
			},
			{
				"x": 0.7896222522,
				"y": -8.2643423458,
				"z": 1.1603112142,
				"element": "H" 
			}
		],
		 "valence_orbital": [ 
			{
				"type": "occ",
				"energy": -0.29076,
				"method": "rhf"
			},
			{
				"type": "occ",
				"energy": -0.26313,
				"method": "rhf"
			},
			{
				"type": "occ",
				"energy": -0.23501,
				"method": "rhf"
			},
			{
				"type": "occ",
				"energy": -0.23361,
				"method": "rhf"
			},
			{
				"type": "occ",
				"energy": -0.19935,
				"method": "rhf"
			},
			{
				"type": "unocc",
				"energy": -0.08325,
				"method": "rhf"
			},
			{
				"type": "unocc",
				"energy": -0.03132,
				"method": "rhf"
			},
			{
				"type": "unocc",
				"energy": 0.01368,
				"method": "rhf"
			},
			{
				"type": "unocc",
				"energy": 0.04915,
				"method": "rhf"
			},
			{
				"type": "unocc",
				"energy": 0.07679,
				"method": "rhf"
			}
		],
		"cosmo_sigma_profile": { 
			"-0.025": 0.0,
			"-0.024": 0.0,
			"-0.023": 0.0,
			"-0.022": 0.0,
			"-0.021": 0.0,
			"-0.02": 0.0,
			"-0.019": 0.0,
			"-0.018": 0.0,
			"-0.017": 0.0,
			"-0.016": 0.0,
			"-0.015": 0.0,
			"-0.014": 0.0,
			"-0.013": 0.0,
			"-0.012": 0.0,
			"-0.011": 0.0,
			"-0.01": 0.0,
			"-0.009": 0.0,
			"-0.008": 0.0,
			"-0.007": 0.0,
			"-0.006": 2.73348451533,
			"-0.005": 18.6462341033,
			"-0.004": 26.8553255377,
			"-0.003": 35.0497752058,
			"-0.002": 51.9652190671,
			"-0.001": 52.1144055129,
			"0.0": 55.4010663414,
			"0.001": 45.6721610374,
			"0.002": 29.2416902192,
			"0.003": 19.6211435195,
			"0.004": 16.9744647887,
			"0.005": 10.0377167271,
			"0.006": 2.78857709487,
			"0.007": 1.73447920744,
			"0.008": 1.53306792191,
			"0.009": 2.07525122645,
			"0.01": 2.22978441889,
			"0.011": 2.33236655909,
			"0.012": 3.40782633795,
			"0.013": 2.2304990905,
			"0.014": 1.18941358417,
			"0.015": 0.0138037014078,
			"0.016": 0.0,
			"0.017": 0.0,
			"0.018": 0.0,
			"0.019": 0.0,
			"0.02": 0.0,
			"0.021": 0.0,
			"0.022": 0.0,
			"0.023": 0.0,
			"0.024": 0.0,
			"0.025": 0.0
		}
	}
}
