{
	 "smiles": "NC1=C(C=C(NC(=O)C2CC2)C=C1)C(F)(F)F", 
	 "Tm": 419.15, 
	 "num_atms": 28, 
	 "gaussian": { 
		 "optdone": 1, 
		 "sigma_profile": "yes", 
		 "theory": "DFT", 
		 "functional": "B3LYP", 
		 "basiset": "6-31G**", 
		 "properties": { 
			 "R2extent": 4865.3728, 
			 "electric_dipole_moment_norm": 4.54823175971, 
			 "electric_quadrupole_moment_norm": 15.7121500165, 
			 "total_energy": -910.046847066, 
			 "HOMO_LUMO_gap": 0.1805, 
			 "cosmo_polarized_energy": -14.59, 
			 "cosmo_cavitation_energy": 33.21, 
			 "cosmo_dispersion_energy": -23.06, 
			 "cosmo_repulsion_energy": 1.75, 
			 "cosmo_total_nonelectrostatic_energy": 11.9, 
			 "SMD_solvation_energy": 6.9 
		},
		"coords": [
			{
				"x": 1.8376173099,
				"y": -3.1480037835,
				"z": -1.6846852477,
				"element": "N" 
			},
			{
				"x": 0.9437780205,
				"y": -2.242845035,
				"z": -1.1371647002,
				"element": "C" 
			},
			{
				"x": 1.3362252836,
				"y": -0.9453663605,
				"z": -0.7300266933,
				"element": "C" 
			},
			{
				"x": 0.4213086635,
				"y": -0.0816307457,
				"z": -0.1242653604,
				"element": "C" 
			},
			{
				"x": -0.9119072818,
				"y": -0.4539387655,
				"z": 0.0607230237,
				"element": "C" 
			},
			{
				"x": -1.8504183177,
				"y": 0.4063194016,
				"z": 0.6871970865,
				"element": "N" 
			},
			{
				"x": -2.1535925758,
				"y": 1.7317154175,
				"z": 0.4366312543,
				"element": "C" 
			},
			{
				"x": -2.9156289281,
				"y": 2.3332105893,
				"z": 1.1873479541,
				"element": "O" 
			},
			{
				"x": -1.5531881369,
				"y": 2.3758755874,
				"z": -0.7711900932,
				"element": "C" 
			},
			{
				"x": -2.3336324216,
				"y": 3.5301327592,
				"z": -1.3739183177,
				"element": "C" 
			},
			{
				"x": -1.0811576564,
				"y": 3.8151865001,
				"z": -0.6125625217,
				"element": "C" 
			},
			{
				"x": -1.3041397443,
				"y": -1.7390522541,
				"z": -0.340216562,
				"element": "C" 
			},
			{
				"x": -0.3953911128,
				"y": -2.6157508543,
				"z": -0.9149479615,
				"element": "C" 
			},
			{
				"x": 2.7647096063,
				"y": -0.5100276679,
				"z": -0.8847262684,
				"element": "C" 
			},
			{
				"x": 3.2051787903,
				"y": -0.674440771,
				"z": -2.1700548468,
				"element": "F" 
			},
			{
				"x": 2.9493604426,
				"y": 0.787450749,
				"z": -0.5758002488,
				"element": "F" 
			},
			{
				"x": 3.6082404608,
				"y": -1.2322389155,
				"z": -0.1128141461,
				"element": "F" 
			},
			{
				"x": 2.6476352061,
				"y": -2.7652244865,
				"z": -2.1489264825,
				"element": "H" 
			},
			{
				"x": 1.425201217,
				"y": -3.9290407059,
				"z": -2.1730482457,
				"element": "H" 
			},
			{
				"x": 0.7575942146,
				"y": 0.8929456907,
				"z": 0.2080641402,
				"element": "H" 
			},
			{
				"x": -2.3729881294,
				"y": 0.0398327706,
				"z": 1.4737096191,
				"element": "H" 
			},
			{
				"x": -0.9969772006,
				"y": 1.7422484693,
				"z": -1.4515545324,
				"element": "H" 
			},
			{
				"x": -3.2749055984,
				"y": 3.7648350342,
				"z": -0.8891413577,
				"element": "H" 
			},
			{
				"x": -2.3211930452,
				"y": 3.6200085629,
				"z": -2.4555308495,
				"element": "H" 
			},
			{
				"x": -1.1887222961,
				"y": 4.242634956,
				"z": 0.3789013554,
				"element": "H" 
			},
			{
				"x": -0.1871511214,
				"y": 4.1076352124,
				"z": -1.1544468814,
				"element": "H" 
			},
			{
				"x": -2.3374442015,
				"y": -2.0457525361,
				"z": -0.2049832769,
				"element": "H" 
			},
			{
				"x": -0.7211114474,
				"y": -3.6083188186,
				"z": -1.2146698393,
				"element": "H" 
			}
		],
		 "valence_orbital": [ 
			{
				"type": "occ",
				"energy": -0.28856,
				"method": "rhf"
			},
			{
				"type": "occ",
				"energy": -0.27451,
				"method": "rhf"
			},
			{
				"type": "occ",
				"energy": -0.26744,
				"method": "rhf"
			},
			{
				"type": "occ",
				"energy": -0.24917,
				"method": "rhf"
			},
			{
				"type": "occ",
				"energy": -0.21164,
				"method": "rhf"
			},
			{
				"type": "unocc",
				"energy": -0.03114,
				"method": "rhf"
			},
			{
				"type": "unocc",
				"energy": -0.01084,
				"method": "rhf"
			},
			{
				"type": "unocc",
				"energy": 0.02912,
				"method": "rhf"
			},
			{
				"type": "unocc",
				"energy": 0.0751,
				"method": "rhf"
			},
			{
				"type": "unocc",
				"energy": 0.09264,
				"method": "rhf"
			}
		],
		"cosmo_sigma_profile": { 
			"-0.025": 0.0,
			"-0.024": 0.0,
			"-0.023": 0.0,
			"-0.022": 0.0,
			"-0.021": 0.0,
			"-0.02": 0.0,
			"-0.019": 0.0,
			"-0.018": 0.0,
			"-0.017": 0.0,
			"-0.016": 0.0,
			"-0.015": 0.0,
			"-0.014": 0.724299601159,
			"-0.013": 2.58997576635,
			"-0.012": 2.77135749265,
			"-0.011": 3.46521106264,
			"-0.01": 2.91687620098,
			"-0.009": 4.16593418168,
			"-0.008": 2.80720616895,
			"-0.007": 6.12249862901,
			"-0.006": 8.37881877502,
			"-0.005": 13.2725834632,
			"-0.004": 15.4281367431,
			"-0.003": 14.3715040554,
			"-0.002": 17.1086397695,
			"-0.001": 19.2644241814,
			"0.0": 18.805806791,
			"0.001": 23.1686636116,
			"0.002": 32.3621861181,
			"0.003": 36.8129337112,
			"0.004": 11.3754706244,
			"0.005": 4.07877046929,
			"0.006": 3.06014228791,
			"0.007": 2.12637778977,
			"0.008": 2.6663973514,
			"0.009": 1.6638842393,
			"0.01": 1.15186951071,
			"0.011": 2.89226171758,
			"0.012": 1.83270555687,
			"0.013": 2.81887376494,
			"0.014": 5.25265619486,
			"0.015": 0.674519297858,
			"0.016": 0.0,
			"0.017": 0.0,
			"0.018": 0.0,
			"0.019": 0.0,
			"0.02": 0.0,
			"0.021": 0.0,
			"0.022": 0.0,
			"0.023": 0.0,
			"0.024": 0.0,
			"0.025": 0.0
		}
	}
}
