{
	 "smiles": "COC1=CC=C(C=C1)N1N=C(N)C=C1C", 
	 "Tm": 361.15, 
	 "num_atms": 28, 
	 "gaussian": { 
		 "optdone": 1, 
		 "sigma_profile": "yes", 
		 "theory": "DFT", 
		 "functional": "B3LYP", 
		 "basiset": "6-31G**", 
		 "properties": { 
			 "R2extent": 4726.8039, 
			 "electric_dipole_moment_norm": 2.98360253553, 
			 "electric_quadrupole_moment_norm": 12.257950462, 
			 "total_energy": -666.457459601, 
			 "HOMO_LUMO_gap": 0.18286, 
			 "cosmo_polarized_energy": -13.93, 
			 "cosmo_cavitation_energy": 31.62, 
			 "cosmo_dispersion_energy": -23.19, 
			 "cosmo_repulsion_energy": 1.82, 
			 "cosmo_total_nonelectrostatic_energy": 10.25, 
			 "SMD_solvation_energy": 5.39 
		},
		"coords": [
			{
				"x": 0.7058539285,
				"y": 3.3208319124,
				"z": -4.1344003433,
				"element": "C" 
			},
			{
				"x": 0.8069871338,
				"y": 1.9900915625,
				"z": -3.656387151,
				"element": "O" 
			},
			{
				"x": 0.3323645257,
				"y": 1.7169260469,
				"z": -2.405205219,
				"element": "C" 
			},
			{
				"x": 0.4678707398,
				"y": 0.3861270279,
				"z": -1.9779215827,
				"element": "C" 
			},
			{
				"x": 0.0078255191,
				"y": -0.0028176523,
				"z": -0.7298917397,
				"element": "C" 
			},
			{
				"x": -0.591133255,
				"y": 0.9343454651,
				"z": 0.1277653091,
				"element": "C" 
			},
			{
				"x": -0.6996457863,
				"y": 2.2629276637,
				"z": -0.2851190711,
				"element": "C" 
			},
			{
				"x": -0.2548068351,
				"y": 2.6555890726,
				"z": -1.5515341039,
				"element": "C" 
			},
			{
				"x": -1.0445440289,
				"y": 0.5109920318,
				"z": 1.4030295653,
				"element": "N" 
			},
			{
				"x": -0.3051132811,
				"y": -0.429883375,
				"z": 2.0798020289,
				"element": "N" 
			},
			{
				"x": -1.0044211605,
				"y": -0.6838644613,
				"z": 3.1798478445,
				"element": "C" 
			},
			{
				"x": -0.5760797699,
				"y": -1.6517030526,
				"z": 4.0898448561,
				"element": "N" 
			},
			{
				"x": -2.1957761945,
				"y": 0.0834724326,
				"z": 3.2347622836,
				"element": "C" 
			},
			{
				"x": -2.1964447923,
				"y": 0.8358670312,
				"z": 2.0752999358,
				"element": "C" 
			},
			{
				"x": -3.241231279,
				"y": 1.7828725641,
				"z": 1.5720831849,
				"element": "C" 
			},
			{
				"x": -0.3389367637,
				"y": 3.6539679006,
				"z": -4.1905202882,
				"element": "H" 
			},
			{
				"x": 1.2707689367,
				"y": 4.0221519794,
				"z": -3.5062631159,
				"element": "H" 
			},
			{
				"x": 1.1338978527,
				"y": 3.3152036492,
				"z": -5.1380831446,
				"element": "H" 
			},
			{
				"x": 0.9323851836,
				"y": -0.3280797813,
				"z": -2.6498578303,
				"element": "H" 
			},
			{
				"x": 0.1113166567,
				"y": -1.0270452346,
				"z": -0.3921967105,
				"element": "H" 
			},
			{
				"x": -1.1102004023,
				"y": 3.009465018,
				"z": 0.3847357482,
				"element": "H" 
			},
			{
				"x": -0.3547788862,
				"y": 3.6937991626,
				"z": -1.8445133762,
				"element": "H" 
			},
			{
				"x": 0.3923478356,
				"y": -1.905687619,
				"z": 3.9337592707,
				"element": "H" 
			},
			{
				"x": -0.7292952969,
				"y": -1.3915971124,
				"z": 5.0559230993,
				"element": "H" 
			},
			{
				"x": -2.9631781509,
				"y": 0.0694059607,
				"z": 3.9950853271,
				"element": "H" 
			},
			{
				"x": -3.3867616387,
				"y": 1.6881920218,
				"z": 0.4919809687,
				"element": "H" 
			},
			{
				"x": -4.1918579788,
				"y": 1.5660183055,
				"z": 2.0655405746,
				"element": "H" 
			},
			{
				"x": -2.995512812,
				"y": 2.8310314799,
				"z": 1.7807336797,
				"element": "H" 
			}
		],
		 "valence_orbital": [ 
			{
				"type": "occ",
				"energy": -0.27403,
				"method": "rhf"
			},
			{
				"type": "occ",
				"energy": -0.25143,
				"method": "rhf"
			},
			{
				"type": "occ",
				"energy": -0.23624,
				"method": "rhf"
			},
			{
				"type": "occ",
				"energy": -0.21953,
				"method": "rhf"
			},
			{
				"type": "occ",
				"energy": -0.18583,
				"method": "rhf"
			},
			{
				"type": "unocc",
				"energy": -0.00297,
				"method": "rhf"
			},
			{
				"type": "unocc",
				"energy": 0.0006,
				"method": "rhf"
			},
			{
				"type": "unocc",
				"energy": 0.04842,
				"method": "rhf"
			},
			{
				"type": "unocc",
				"energy": 0.08359,
				"method": "rhf"
			},
			{
				"type": "unocc",
				"energy": 0.0886,
				"method": "rhf"
			}
		],
		"cosmo_sigma_profile": { 
			"-0.025": 0.0,
			"-0.024": 0.0,
			"-0.023": 0.0,
			"-0.022": 0.0,
			"-0.021": 0.0,
			"-0.02": 0.0,
			"-0.019": 0.0,
			"-0.018": 0.0,
			"-0.017": 0.0,
			"-0.016": 0.0,
			"-0.015": 0.0,
			"-0.014": 0.0,
			"-0.013": 0.174454633665,
			"-0.012": 1.67123675708,
			"-0.011": 2.30097288259,
			"-0.01": 1.96581236501,
			"-0.009": 3.03235251404,
			"-0.008": 2.7192475392,
			"-0.007": 3.68414019886,
			"-0.006": 14.1239641137,
			"-0.005": 22.955831973,
			"-0.004": 23.0496882639,
			"-0.003": 22.0693419044,
			"-0.002": 17.5114690248,
			"-0.001": 15.7941410327,
			"0.0": 13.4264313736,
			"0.001": 11.0959940322,
			"0.002": 13.0650598259,
			"0.003": 13.2306711391,
			"0.004": 16.8745090254,
			"0.005": 16.2030587129,
			"0.006": 9.09779083159,
			"0.007": 5.67327508655,
			"0.008": 3.55135215311,
			"0.009": 4.25421275108,
			"0.01": 4.29810549271,
			"0.011": 2.09318968566,
			"0.012": 1.85293790797,
			"0.013": 1.54991615034,
			"0.014": 1.77518336318,
			"0.015": 1.13546191319,
			"0.016": 0.680746814565,
			"0.017": 0.0,
			"0.018": 0.0,
			"0.019": 0.0,
			"0.02": 0.0,
			"0.021": 0.0,
			"0.022": 0.0,
			"0.023": 0.0,
			"0.024": 0.0,
			"0.025": 0.0
		}
	}
}
