{
	 "smiles": "CC1=CC(C(O)=O)=C(N)C=C1", 
	 "Tm": 449.15, 
	 "num_atms": 20, 
	 "gaussian": { 
		 "optdone": 1, 
		 "sigma_profile": "yes", 
		 "theory": "DFT", 
		 "functional": "B3LYP", 
		 "basiset": "6-31G**", 
		 "properties": { 
			 "R2extent": 1922.7522, 
			 "electric_dipole_moment_norm": 3.89636233685, 
			 "electric_quadrupole_moment_norm": 13.3541900488, 
			 "total_energy": -515.500739621, 
			 "HOMO_LUMO_gap": 0.16229, 
			 "cosmo_polarized_energy": -13.66, 
			 "cosmo_cavitation_energy": 23.51, 
			 "cosmo_dispersion_energy": -17.79, 
			 "cosmo_repulsion_energy": 1.43, 
			 "cosmo_total_nonelectrostatic_energy": 7.14, 
			 "SMD_solvation_energy": 5.01 
		},
		"coords": [
			{
				"x": -0.4628063425,
				"y": -3.4061084548,
				"z": 1.2805414374,
				"element": "C" 
			},
			{
				"x": 0.0837751985,
				"y": -2.1166857155,
				"z": 0.7160069045,
				"element": "C" 
			},
			{
				"x": -0.3846227057,
				"y": -0.8757349344,
				"z": 1.1262893232,
				"element": "C" 
			},
			{
				"x": 0.1159511244,
				"y": 0.343824955,
				"z": 0.6238125375,
				"element": "C" 
			},
			{
				"x": -0.4158615992,
				"y": 1.6456517206,
				"z": 1.094078785,
				"element": "C" 
			},
			{
				"x": -1.6192929345,
				"y": 1.6396219646,
				"z": 1.7275438971,
				"element": "O" 
			},
			{
				"x": 0.1509029563,
				"y": 2.7167592102,
				"z": 0.9505954183,
				"element": "O" 
			},
			{
				"x": 1.1790428029,
				"y": 0.3154606401,
				"z": -0.3236926556,
				"element": "C" 
			},
			{
				"x": 1.7144683858,
				"y": 1.4579468196,
				"z": -0.8494134711,
				"element": "N" 
			},
			{
				"x": 1.6426419228,
				"y": -0.9507236218,
				"z": -0.7524845131,
				"element": "C" 
			},
			{
				"x": 1.1095933332,
				"y": -2.1228015974,
				"z": -0.2499149682,
				"element": "C" 
			},
			{
				"x": 0.319146837,
				"y": -3.9948669594,
				"z": 1.7746489016,
				"element": "H" 
			},
			{
				"x": -1.2479013162,
				"y": -3.2170488532,
				"z": 2.0184290682,
				"element": "H" 
			},
			{
				"x": -0.8929130821,
				"y": -4.0396141343,
				"z": 0.4955744446,
				"element": "H" 
			},
			{
				"x": -1.1425581401,
				"y": -0.8557760955,
				"z": 1.9074443775,
				"element": "H" 
			},
			{
				"x": -2.046471325,
				"y": 0.779818743,
				"z": 1.6147615582,
				"element": "H" 
			},
			{
				"x": 1.5086663369,
				"y": 2.3193919463,
				"z": -0.3575601207,
				"element": "H" 
			},
			{
				"x": 2.5808384374,
				"y": 1.3855404431,
				"z": -1.3578009344,
				"element": "H" 
			},
			{
				"x": 2.4403331338,
				"y": -0.9895980905,
				"z": -1.4901366004,
				"element": "H" 
			},
			{
				"x": 1.5028669762,
				"y": -3.0736579856,
				"z": -0.6026233896,
				"element": "H" 
			}
		],
		 "valence_orbital": [ 
			{
				"type": "occ",
				"energy": -0.31291,
				"method": "rhf"
			},
			{
				"type": "occ",
				"energy": -0.30826,
				"method": "rhf"
			},
			{
				"type": "occ",
				"energy": -0.27172,
				"method": "rhf"
			},
			{
				"type": "occ",
				"energy": -0.26116,
				"method": "rhf"
			},
			{
				"type": "occ",
				"energy": -0.20492,
				"method": "rhf"
			},
			{
				"type": "unocc",
				"energy": -0.04263,
				"method": "rhf"
			},
			{
				"type": "unocc",
				"energy": 0.0057,
				"method": "rhf"
			},
			{
				"type": "unocc",
				"energy": 0.05165,
				"method": "rhf"
			},
			{
				"type": "unocc",
				"energy": 0.06896,
				"method": "rhf"
			},
			{
				"type": "unocc",
				"energy": 0.0917,
				"method": "rhf"
			}
		],
		"cosmo_sigma_profile": { 
			"-0.025": 0.0,
			"-0.024": 0.0,
			"-0.023": 0.0,
			"-0.022": 0.0,
			"-0.021": 0.0,
			"-0.02": 0.0,
			"-0.019": 0.0,
			"-0.018": 0.467725827799,
			"-0.017": 0.772678571896,
			"-0.016": 0.867050912548,
			"-0.015": 0.985139435157,
			"-0.014": 0.845689139921,
			"-0.013": 1.81979788199,
			"-0.012": 2.68357679395,
			"-0.011": 2.6290702772,
			"-0.01": 2.04664498565,
			"-0.009": 3.0849402971,
			"-0.008": 3.47717153414,
			"-0.007": 3.5868514405,
			"-0.006": 6.34711686542,
			"-0.005": 7.91168662735,
			"-0.004": 11.3671680957,
			"-0.003": 12.5540114843,
			"-0.002": 13.1063412475,
			"-0.001": 12.2688287245,
			"0.0": 14.8062080329,
			"0.001": 11.018757606,
			"0.002": 10.6009288693,
			"0.003": 11.6857389657,
			"0.004": 11.8126950735,
			"0.005": 11.240624189,
			"0.006": 4.08377980625,
			"0.007": 2.43787554785,
			"0.008": 3.84683151254,
			"0.009": 3.43858071041,
			"0.01": 4.3321998792,
			"0.011": 4.88417198152,
			"0.012": 2.71978285241,
			"0.013": 2.25827606218,
			"0.014": 0.662264646714,
			"0.015": 0.0,
			"0.016": 0.0,
			"0.017": 0.0,
			"0.018": 0.0,
			"0.019": 0.0,
			"0.02": 0.0,
			"0.021": 0.0,
			"0.022": 0.0,
			"0.023": 0.0,
			"0.024": 0.0,
			"0.025": 0.0
		}
	}
}
