{
	 "smiles": "CC(=O)C1=CC2=CC(Br)=CC=C2OC1=O", 
	 "Tm": 401.15, 
	 "num_atms": 22, 
	 "gaussian": { 
		 "optdone": 1, 
		 "sigma_profile": "yes", 
		 "theory": "DFT", 
		 "functional": "B3LYP", 
		 "basiset": "6-31G**", 
		 "properties": { 
			 "R2extent": 6714.9881, 
			 "electric_dipole_moment_norm": 2.55233966588, 
			 "electric_quadrupole_moment_norm": 4.94345875172, 
			 "total_energy": -3220.46952681, 
			 "HOMO_LUMO_gap": 0.1473, 
			 "cosmo_polarized_energy": -11.59, 
			 "cosmo_cavitation_energy": 29.57, 
			 "cosmo_dispersion_energy": -22.22, 
			 "cosmo_repulsion_energy": 1.71, 
			 "cosmo_total_nonelectrostatic_energy": 9.05, 
			 "SMD_solvation_energy": 5.55 
		},
		"coords": [
			{
				"x": 0.0615044201,
				"y": -0.7601699496,
				"z": -4.1664939684,
				"element": "C" 
			},
			{
				"x": 0.9138467225,
				"y": -1.0488272244,
				"z": -2.9548789751,
				"element": "C" 
			},
			{
				"x": 1.8394550908,
				"y": -1.8453991113,
				"z": -3.0061022195,
				"element": "O" 
			},
			{
				"x": 0.6359319132,
				"y": -0.3514868088,
				"z": -1.6423777702,
				"element": "C" 
			},
			{
				"x": 1.4398474013,
				"y": -0.6558041978,
				"z": -0.5847919678,
				"element": "C" 
			},
			{
				"x": 1.2640234283,
				"y": -0.0538873597,
				"z": 0.7020386386,
				"element": "C" 
			},
			{
				"x": 2.0749706097,
				"y": -0.3439447532,
				"z": 1.8180385278,
				"element": "C" 
			},
			{
				"x": 1.8282030357,
				"y": 0.2890190928,
				"z": 3.0241302906,
				"element": "C" 
			},
			{
				"x": 2.9200535118,
				"y": -0.0979425914,
				"z": 4.5393541907,
				"element": "Br" 
			},
			{
				"x": 0.7817321409,
				"y": 1.2162733022,
				"z": 3.1525822562,
				"element": "C" 
			},
			{
				"x": -0.025805182,
				"y": 1.5122580344,
				"z": 2.0614354566,
				"element": "C" 
			},
			{
				"x": 0.2170775157,
				"y": 0.8772888989,
				"z": 0.8409198322,
				"element": "C" 
			},
			{
				"x": -0.589076683,
				"y": 1.1870649355,
				"z": -0.2069811406,
				"element": "O" 
			},
			{
				"x": -0.4520609625,
				"y": 0.6220541892,
				"z": -1.4819590853,
				"element": "C" 
			},
			{
				"x": -1.239498407,
				"y": 0.9900138381,
				"z": -2.3208866397,
				"element": "O" 
			},
			{
				"x": 0.4303793117,
				"y": -1.3639208838,
				"z": -4.9964585642,
				"element": "H" 
			},
			{
				"x": -0.9900494702,
				"y": -0.9842106678,
				"z": -3.9649571633,
				"element": "H" 
			},
			{
				"x": 0.092914978,
				"y": 0.3034048632,
				"z": -4.4201225855,
				"element": "H" 
			},
			{
				"x": 2.2329362424,
				"y": -1.381373151,
				"z": -0.7475167861,
				"element": "H" 
			},
			{
				"x": 2.8838836123,
				"y": -1.0596581009,
				"z": 1.721706461,
				"element": "H" 
			},
			{
				"x": 0.6062194039,
				"y": 1.7003755947,
				"z": 4.1063815221,
				"element": "H" 
			},
			{
				"x": -0.8394886336,
				"y": 2.2247720509,
				"z": 2.13743969,
				"element": "H" 
			}
		],
		 "valence_orbital": [ 
			{
				"type": "occ",
				"energy": -0.30434,
				"method": "rhf"
			},
			{
				"type": "occ",
				"energy": -0.29138,
				"method": "rhf"
			},
			{
				"type": "occ",
				"energy": -0.27274,
				"method": "rhf"
			},
			{
				"type": "occ",
				"energy": -0.26173,
				"method": "rhf"
			},
			{
				"type": "occ",
				"energy": -0.24909,
				"method": "rhf"
			},
			{
				"type": "unocc",
				"energy": -0.10179,
				"method": "rhf"
			},
			{
				"type": "unocc",
				"energy": -0.03775,
				"method": "rhf"
			},
			{
				"type": "unocc",
				"energy": -0.01868,
				"method": "rhf"
			},
			{
				"type": "unocc",
				"energy": -0.01108,
				"method": "rhf"
			},
			{
				"type": "unocc",
				"energy": -0.01087,
				"method": "rhf"
			}
		],
		"cosmo_sigma_profile": { 
			"-0.025": 0.0,
			"-0.024": 0.0,
			"-0.023": 0.0,
			"-0.022": 0.0,
			"-0.021": 0.0,
			"-0.02": 0.0,
			"-0.019": 0.0,
			"-0.018": 0.0,
			"-0.017": 0.0,
			"-0.016": 0.0,
			"-0.015": 0.0,
			"-0.014": 0.0,
			"-0.013": 0.0,
			"-0.012": 0.0,
			"-0.011": 0.00288759197895,
			"-0.01": 1.02592661318,
			"-0.009": 3.73206612478,
			"-0.008": 6.83893481363,
			"-0.007": 6.52895907725,
			"-0.006": 10.5709752287,
			"-0.005": 15.1804239948,
			"-0.004": 16.830405961,
			"-0.003": 17.2072913211,
			"-0.002": 21.3489363488,
			"-0.001": 26.4740690543,
			"0.0": 22.3142027645,
			"0.001": 20.2607471417,
			"0.002": 9.38266437894,
			"0.003": 11.3815295162,
			"0.004": 14.3145559727,
			"0.005": 4.9794267918,
			"0.006": 2.92223297057,
			"0.007": 3.44004526398,
			"0.008": 4.56699874336,
			"0.009": 4.10845526886,
			"0.01": 5.17463711765,
			"0.011": 7.25457799848,
			"0.012": 4.74943909277,
			"0.013": 0.912653204799,
			"0.014": 0.0,
			"0.015": 0.0,
			"0.016": 0.0,
			"0.017": 0.0,
			"0.018": 0.0,
			"0.019": 0.0,
			"0.02": 0.0,
			"0.021": 0.0,
			"0.022": 0.0,
			"0.023": 0.0,
			"0.024": 0.0,
			"0.025": 0.0
		}
	}
}
