{
	 "smiles": "[O-][P+](C1C2=CC=CC=C2OC2=CC=CC=C12)(C1=CC=CC=C1)C1=CC=CC=C1", 
	 "Tm": 434.15, 
	 "num_atms": 47, 
	 "gaussian": { 
		 "optdone": 1, 
		 "sigma_profile": "yes", 
		 "theory": "DFT", 
		 "functional": "B3LYP", 
		 "basiset": "6-31G**", 
		 "properties": { 
			 "R2extent": 9168.6354, 
			 "electric_dipole_moment_norm": 3.30645384211, 
			 "electric_quadrupole_moment_norm": 14.5758291033, 
			 "total_energy": -1455.93885669, 
			 "HOMO_LUMO_gap": 0.17358, 
			 "cosmo_polarized_energy": -16.47, 
			 "cosmo_cavitation_energy": 50.07, 
			 "cosmo_dispersion_energy": -32.95, 
			 "cosmo_repulsion_energy": 2.45, 
			 "cosmo_total_nonelectrostatic_energy": 19.57, 
			 "SMD_solvation_energy": 8.89 
		},
		"coords": [
			{
				"x": 1.1616139546,
				"y": -1.1947897319,
				"z": 2.0618342403,
				"element": "O" 
			},
			{
				"x": 0.4843103959,
				"y": -0.1943297803,
				"z": 1.1625303305,
				"element": "P" 
			},
			{
				"x": 0.4112702223,
				"y": -0.8894861113,
				"z": -0.6027368845,
				"element": "C" 
			},
			{
				"x": -0.005055678,
				"y": 0.0521921049,
				"z": -1.7085979093,
				"element": "C" 
			},
			{
				"x": 0.847897073,
				"y": 1.0447437884,
				"z": -2.2126373942,
				"element": "C" 
			},
			{
				"x": 0.4341812612,
				"y": 1.9170589961,
				"z": -3.2177292908,
				"element": "C" 
			},
			{
				"x": -0.855231096,
				"y": 1.8048933612,
				"z": -3.7452038943,
				"element": "C" 
			},
			{
				"x": -1.7117884607,
				"y": 0.8088476798,
				"z": -3.2843592895,
				"element": "C" 
			},
			{
				"x": -1.2804027155,
				"y": -0.0624938712,
				"z": -2.2811592326,
				"element": "C" 
			},
			{
				"x": -2.1725660155,
				"y": -1.0355359772,
				"z": -1.8983206418,
				"element": "O" 
			},
			{
				"x": -1.6905837878,
				"y": -2.1382773603,
				"z": -1.2211077354,
				"element": "C" 
			},
			{
				"x": -2.522738613,
				"y": -3.2581658037,
				"z": -1.2013568062,
				"element": "C" 
			},
			{
				"x": -2.0998279102,
				"y": -4.4120332167,
				"z": -0.5473274971,
				"element": "C" 
			},
			{
				"x": -0.8479863535,
				"y": -4.4460494944,
				"z": 0.0732701891,
				"element": "C" 
			},
			{
				"x": -0.0278746463,
				"y": -3.3198187447,
				"z": 0.0454633315,
				"element": "C" 
			},
			{
				"x": -0.4373817563,
				"y": -2.1433787244,
				"z": -0.5980508008,
				"element": "C" 
			},
			{
				"x": 1.4361031995,
				"y": 1.3688784144,
				"z": 1.0845525841,
				"element": "C" 
			},
			{
				"x": 0.8789574126,
				"y": 2.6362692799,
				"z": 0.8628581769,
				"element": "C" 
			},
			{
				"x": 1.6974086305,
				"y": 3.7655204576,
				"z": 0.8160124765,
				"element": "C" 
			},
			{
				"x": 3.0773475874,
				"y": 3.6402040914,
				"z": 0.988332065,
				"element": "C" 
			},
			{
				"x": 3.6389456403,
				"y": 2.3829315569,
				"z": 1.2215206275,
				"element": "C" 
			},
			{
				"x": 2.8228458515,
				"y": 1.2528785579,
				"z": 1.275503701,
				"element": "C" 
			},
			{
				"x": -1.2151673393,
				"y": 0.1967942847,
				"z": 1.7060723065,
				"element": "C" 
			},
			{
				"x": -2.1451824608,
				"y": 0.9449071732,
				"z": 0.9657267764,
				"element": "C" 
			},
			{
				"x": -3.4176300073,
				"y": 1.1891302733,
				"z": 1.4837583122,
				"element": "C" 
			},
			{
				"x": -3.7730323733,
				"y": 0.6888922458,
				"z": 2.7382177019,
				"element": "C" 
			},
			{
				"x": -2.8557754129,
				"y": -0.0626099714,
				"z": 3.4747140349,
				"element": "C" 
			},
			{
				"x": -1.5826126337,
				"y": -0.3108961371,
				"z": 2.9613400407,
				"element": "C" 
			},
			{
				"x": 1.4653139415,
				"y": -1.1651157737,
				"z": -0.7392113153,
				"element": "H" 
			},
			{
				"x": 1.8482156245,
				"y": 1.1336998202,
				"z": -1.7998737897,
				"element": "H" 
			},
			{
				"x": 1.1134281016,
				"y": 2.6795838124,
				"z": -3.5856532905,
				"element": "H" 
			},
			{
				"x": -1.1889028862,
				"y": 2.4806596544,
				"z": -4.5270843193,
				"element": "H" 
			},
			{
				"x": -2.7077208339,
				"y": 0.676430819,
				"z": -3.6939844279,
				"element": "H" 
			},
			{
				"x": -3.4821481212,
				"y": -3.2040569913,
				"z": -1.7050075319,
				"element": "H" 
			},
			{
				"x": -2.7449589106,
				"y": -5.2855015062,
				"z": -0.5293313865,
				"element": "H" 
			},
			{
				"x": -0.5137562564,
				"y": -5.3444099209,
				"z": 0.5827757161,
				"element": "H" 
			},
			{
				"x": 0.9295989445,
				"y": -3.3245009062,
				"z": 0.5551969838,
				"element": "H" 
			},
			{
				"x": -0.1926371784,
				"y": 2.7508488883,
				"z": 0.742953056,
				"element": "H" 
			},
			{
				"x": 1.2558047968,
				"y": 4.7437480849,
				"z": 0.6488483621,
				"element": "H" 
			},
			{
				"x": 3.7117830357,
				"y": 4.5213179445,
				"z": 0.9515635102,
				"element": "H" 
			},
			{
				"x": 4.7100434307,
				"y": 2.2835426512,
				"z": 1.3726450936,
				"element": "H" 
			},
			{
				"x": 3.2462880075,
				"y": 0.2766771343,
				"z": 1.491127426,
				"element": "H" 
			},
			{
				"x": -1.8908584875,
				"y": 1.3305550182,
				"z": -0.0157178049,
				"element": "H" 
			},
			{
				"x": -4.1325743294,
				"y": 1.7657800252,
				"z": 0.9040619485,
				"element": "H" 
			},
			{
				"x": -4.76497956,
				"y": 0.8808058059,
				"z": 3.1375320615,
				"element": "H" 
			},
			{
				"x": -3.1321239014,
				"y": -0.4591986674,
				"z": 4.4474485391,
				"element": "H" 
			},
			{
				"x": -0.8615593866,
				"y": -0.9036432337,
				"z": 3.5152916505,
				"element": "H" 
			}
		],
		 "valence_orbital": [ 
			{
				"type": "occ",
				"energy": -0.25487,
				"method": "rhf"
			},
			{
				"type": "occ",
				"energy": -0.25266,
				"method": "rhf"
			},
			{
				"type": "occ",
				"energy": -0.24569,
				"method": "rhf"
			},
			{
				"type": "occ",
				"energy": -0.23657,
				"method": "rhf"
			},
			{
				"type": "occ",
				"energy": -0.20743,
				"method": "rhf"
			},
			{
				"type": "unocc",
				"energy": -0.03385,
				"method": "rhf"
			},
			{
				"type": "unocc",
				"energy": -0.02186,
				"method": "rhf"
			},
			{
				"type": "unocc",
				"energy": -0.01557,
				"method": "rhf"
			},
			{
				"type": "unocc",
				"energy": -0.0114,
				"method": "rhf"
			},
			{
				"type": "unocc",
				"energy": -0.00753,
				"method": "rhf"
			}
		],
		"cosmo_sigma_profile": { 
			"-0.025": 0.0,
			"-0.024": 0.0,
			"-0.023": 0.0,
			"-0.022": 0.0,
			"-0.021": 0.0,
			"-0.02": 0.0,
			"-0.019": 0.0,
			"-0.018": 0.0,
			"-0.017": 0.0,
			"-0.016": 0.0,
			"-0.015": 0.0,
			"-0.014": 0.0,
			"-0.013": 0.0,
			"-0.012": 0.0,
			"-0.011": 0.00104598916121,
			"-0.01": 0.0447793764764,
			"-0.009": 0.160825288853,
			"-0.008": 0.243875957482,
			"-0.007": 6.89503404929,
			"-0.006": 27.6410310659,
			"-0.005": 37.6048256268,
			"-0.004": 38.8185284198,
			"-0.003": 28.4273110614,
			"-0.002": 26.1515460869,
			"-0.001": 23.9231388398,
			"0.0": 25.3663441351,
			"0.001": 28.3749803275,
			"0.002": 31.029575685,
			"0.003": 38.1396107475,
			"0.004": 42.4989993891,
			"0.005": 19.8649438442,
			"0.006": 6.02900509077,
			"0.007": 2.418875208,
			"0.008": 2.70146777409,
			"0.009": 2.24780812382,
			"0.01": 0.747908350686,
			"0.011": 1.79161530651,
			"0.012": 0.948398973759,
			"0.013": 1.45769880283,
			"0.014": 1.91682715484,
			"0.015": 2.70997152617,
			"0.016": 2.13696197465,
			"0.017": 0.0833798006052,
			"0.018": 0.0,
			"0.019": 0.0,
			"0.02": 0.0,
			"0.021": 0.0,
			"0.022": 0.0,
			"0.023": 0.0,
			"0.024": 0.0,
			"0.025": 0.0
		}
	}
}
