{
	 "smiles": "CC(=O)CC1=CC=C(C=C1)C1=CC=CC=C1", 
	 "Tm": 323.15, 
	 "num_atms": 30, 
	 "gaussian": { 
		 "optdone": 1, 
		 "sigma_profile": "yes", 
		 "theory": "DFT", 
		 "functional": "B3LYP", 
		 "basiset": "6-31G**", 
		 "properties": { 
			 "R2extent": 5414.2786, 
			 "electric_dipole_moment_norm": 2.61315821756, 
			 "electric_quadrupole_moment_norm": 14.0807714728, 
			 "total_energy": -655.270346346, 
			 "HOMO_LUMO_gap": 0.18703, 
			 "cosmo_polarized_energy": -10.06, 
			 "cosmo_cavitation_energy": 34.08, 
			 "cosmo_dispersion_energy": -24.03, 
			 "cosmo_repulsion_energy": 1.87, 
			 "cosmo_total_nonelectrostatic_energy": 11.92, 
			 "SMD_solvation_energy": 6.18 
		},
		"coords": [
			{
				"x": 0.3862346105,
				"y": -1.9542570883,
				"z": 3.6174712156,
				"element": "C" 
			},
			{
				"x": -1.0055618157,
				"y": -1.970098269,
				"z": 3.0157922771,
				"element": "C" 
			},
			{
				"x": -1.9686188208,
				"y": -1.5024917951,
				"z": 3.5924060449,
				"element": "O" 
			},
			{
				"x": -1.1448308474,
				"y": -2.5786892635,
				"z": 1.6146931322,
				"element": "C" 
			},
			{
				"x": -0.7729795093,
				"y": -1.5617910099,
				"z": 0.5487363969,
				"element": "C" 
			},
			{
				"x": -1.5333706954,
				"y": -0.3938997459,
				"z": 0.3917075427,
				"element": "C" 
			},
			{
				"x": -1.1996363761,
				"y": 0.5496827446,
				"z": -0.5751917374,
				"element": "C" 
			},
			{
				"x": -0.090472807,
				"y": 0.3660282046,
				"z": -1.4199238906,
				"element": "C" 
			},
			{
				"x": 0.6698568521,
				"y": -0.8025503899,
				"z": -1.2544873372,
				"element": "C" 
			},
			{
				"x": 0.3345268588,
				"y": -1.7481420014,
				"z": -0.2864000137,
				"element": "C" 
			},
			{
				"x": 0.2639875458,
				"y": 1.3733622898,
				"z": -2.4518838642,
				"element": "C" 
			},
			{
				"x": 0.1267500928,
				"y": 2.7485780016,
				"z": -2.1959295417,
				"element": "C" 
			},
			{
				"x": 0.4596580187,
				"y": 3.6946342762,
				"z": -3.1643440107,
				"element": "C" 
			},
			{
				"x": 0.9390076288,
				"y": 3.2870520672,
				"z": -4.4107205848,
				"element": "C" 
			},
			{
				"x": 1.0812353905,
				"y": 1.924428249,
				"z": -4.6796794005,
				"element": "C" 
			},
			{
				"x": 0.7466140393,
				"y": 0.9786498526,
				"z": -3.7115685645,
				"element": "C" 
			},
			{
				"x": 0.7056649468,
				"y": -2.9799616423,
				"z": 3.8394833624,
				"element": "H" 
			},
			{
				"x": 1.1077945411,
				"y": -1.5407015896,
				"z": 2.9046599326,
				"element": "H" 
			},
			{
				"x": 0.3889237042,
				"y": -1.3683534149,
				"z": 4.5374795375,
				"element": "H" 
			},
			{
				"x": -0.5053031847,
				"y": -3.4631037492,
				"z": 1.5212965737,
				"element": "H" 
			},
			{
				"x": -2.1880140696,
				"y": -2.8888182303,
				"z": 1.5009552791,
				"element": "H" 
			},
			{
				"x": -2.394752901,
				"y": -0.2304980357,
				"z": 1.0336025407,
				"element": "H" 
			},
			{
				"x": -1.8220602882,
				"y": 1.4313932213,
				"z": -0.6957217207,
				"element": "H" 
			},
			{
				"x": 1.5472573904,
				"y": -0.9620815434,
				"z": -1.8742981859,
				"element": "H" 
			},
			{
				"x": 0.9434604255,
				"y": -2.6427685744,
				"z": -0.1799977982,
				"element": "H" 
			},
			{
				"x": -0.2196485014,
				"y": 3.0776479421,
				"z": -1.2206174626,
				"element": "H" 
			},
			{
				"x": 0.3526928106,
				"y": 4.7525265506,
				"z": -2.9413238402,
				"element": "H" 
			},
			{
				"x": 1.1987417827,
				"y": 4.0240195855,
				"z": -5.165099998,
				"element": "H" 
			},
			{
				"x": 1.4447205303,
				"y": 1.5957139483,
				"z": -5.6493116812,
				"element": "H" 
			},
			{
				"x": 0.8347226477,
				"y": -0.0792105904,
				"z": -3.9412842033,
				"element": "H" 
			}
		],
		 "valence_orbital": [ 
			{
				"type": "occ",
				"energy": -0.27582,
				"method": "rhf"
			},
			{
				"type": "occ",
				"energy": -0.25434,
				"method": "rhf"
			},
			{
				"type": "occ",
				"energy": -0.2513,
				"method": "rhf"
			},
			{
				"type": "occ",
				"energy": -0.24652,
				"method": "rhf"
			},
			{
				"type": "occ",
				"energy": -0.22101,
				"method": "rhf"
			},
			{
				"type": "unocc",
				"energy": -0.03398,
				"method": "rhf"
			},
			{
				"type": "unocc",
				"energy": -0.01455,
				"method": "rhf"
			},
			{
				"type": "unocc",
				"energy": -0.0039,
				"method": "rhf"
			},
			{
				"type": "unocc",
				"energy": -0.00159,
				"method": "rhf"
			},
			{
				"type": "unocc",
				"energy": 0.02904,
				"method": "rhf"
			}
		],
		"cosmo_sigma_profile": { 
			"-0.025": 0.0,
			"-0.024": 0.0,
			"-0.023": 0.0,
			"-0.022": 0.0,
			"-0.021": 0.0,
			"-0.02": 0.0,
			"-0.019": 0.0,
			"-0.018": 0.0,
			"-0.017": 0.0,
			"-0.016": 0.0,
			"-0.015": 0.0,
			"-0.014": 0.0,
			"-0.013": 0.0,
			"-0.012": 0.0,
			"-0.011": 0.0,
			"-0.01": 0.0,
			"-0.009": 0.0,
			"-0.008": 0.0,
			"-0.007": 1.1052643806,
			"-0.006": 13.8048338687,
			"-0.005": 27.2139126389,
			"-0.004": 28.37746464,
			"-0.003": 28.2893172484,
			"-0.002": 23.5361478582,
			"-0.001": 22.0962377313,
			"0.0": 15.9828783132,
			"0.001": 14.1706297023,
			"0.002": 16.7954611558,
			"0.003": 17.6570139139,
			"0.004": 17.6721684729,
			"0.005": 19.0770462141,
			"0.006": 9.57267274151,
			"0.007": 2.08832999666,
			"0.008": 1.39606080291,
			"0.009": 1.76874260543,
			"0.01": 1.38720381349,
			"0.011": 3.10685404156,
			"0.012": 4.37182747638,
			"0.013": 1.86732880813,
			"0.014": 0.114609457444,
			"0.015": 0.0,
			"0.016": 0.0,
			"0.017": 0.0,
			"0.018": 0.0,
			"0.019": 0.0,
			"0.02": 0.0,
			"0.021": 0.0,
			"0.022": 0.0,
			"0.023": 0.0,
			"0.024": 0.0,
			"0.025": 0.0
		}
	}
}
