{
	 "smiles": "CC1=CC=C(OP(=O)(OC2=CC=C(C)C=C2)OC2=CC=C(C)C=C2)C=C1", 
	 "Tm": 350.65, 
	 "num_atms": 47, 
	 "gaussian": { 
		 "optdone": 1, 
		 "sigma_profile": "yes", 
		 "theory": "DFT", 
		 "functional": "B3LYP", 
		 "basiset": "6-31G**", 
		 "properties": { 
			 "R2extent": 11925.3097, 
			 "electric_dipole_moment_norm": 3.8925404391, 
			 "electric_quadrupole_moment_norm": 15.7466981698, 
			 "total_energy": -1455.23255171, 
			 "HOMO_LUMO_gap": 0.21935, 
			 "cosmo_polarized_energy": -13.02, 
			 "cosmo_cavitation_energy": 53.1, 
			 "cosmo_dispersion_energy": -35.69, 
			 "cosmo_repulsion_energy": 2.73, 
			 "cosmo_total_nonelectrostatic_energy": 20.13, 
			 "SMD_solvation_energy": 10.63 
		},
		"coords": [
			{
				"x": 3.7936260217,
				"y": -1.0862175898,
				"z": 5.0710358481,
				"element": "C" 
			},
			{
				"x": 3.0533663428,
				"y": -0.3746065763,
				"z": 3.9626400978,
				"element": "C" 
			},
			{
				"x": 1.7279106147,
				"y": 0.0469845379,
				"z": 4.1345044243,
				"element": "C" 
			},
			{
				"x": 1.0280711526,
				"y": 0.6749664317,
				"z": 3.1049196467,
				"element": "C" 
			},
			{
				"x": 1.6656402904,
				"y": 0.8905434929,
				"z": 1.887095769,
				"element": "C" 
			},
			{
				"x": 0.9494510655,
				"y": 1.58813583,
				"z": 0.9022314372,
				"element": "O" 
			},
			{
				"x": 0.7713627064,
				"y": 1.0354932793,
				"z": -0.6012671353,
				"element": "P" 
			},
			{
				"x": 1.9891683644,
				"y": 0.771580116,
				"z": -1.3900702483,
				"element": "O" 
			},
			{
				"x": -0.1405181857,
				"y": 2.1862728151,
				"z": -1.256615768,
				"element": "O" 
			},
			{
				"x": -1.3795817979,
				"y": 2.6101999676,
				"z": -0.7563125153,
				"element": "C" 
			},
			{
				"x": -2.5448220936,
				"y": 2.1069849518,
				"z": -1.3269932206,
				"element": "C" 
			},
			{
				"x": -3.7779131878,
				"y": 2.582702674,
				"z": -0.8801216236,
				"element": "C" 
			},
			{
				"x": -3.8636586119,
				"y": 3.5566138816,
				"z": 0.1235706404,
				"element": "C" 
			},
			{
				"x": -5.2020331743,
				"y": 4.0909942259,
				"z": 0.5775952378,
				"element": "C" 
			},
			{
				"x": -2.6697330112,
				"y": 4.0419947533,
				"z": 0.6751938796,
				"element": "C" 
			},
			{
				"x": -1.4275926268,
				"y": 3.5799109042,
				"z": 0.2417180706,
				"element": "C" 
			},
			{
				"x": -0.2083980641,
				"y": -0.2214183132,
				"z": -0.3139621173,
				"element": "O" 
			},
			{
				"x": -0.6112035938,
				"y": -1.1682596495,
				"z": -1.2652730751,
				"element": "C" 
			},
			{
				"x": -1.911310243,
				"y": -1.6522017028,
				"z": -1.1315504467,
				"element": "C" 
			},
			{
				"x": -2.3660229014,
				"y": -2.6374737676,
				"z": -2.0063778739,
				"element": "C" 
			},
			{
				"x": -1.5434474074,
				"y": -3.1464168693,
				"z": -3.0205641163,
				"element": "C" 
			},
			{
				"x": -2.0531072696,
				"y": -4.1895837823,
				"z": -3.98746966,
				"element": "C" 
			},
			{
				"x": -0.2412866329,
				"y": -2.6407278708,
				"z": -3.1227563158,
				"element": "C" 
			},
			{
				"x": 0.2396410841,
				"y": -1.6592581753,
				"z": -2.254650315,
				"element": "C" 
			},
			{
				"x": 2.9863170688,
				"y": 0.4965848632,
				"z": 1.6825381858,
				"element": "C" 
			},
			{
				"x": 3.6643446906,
				"y": -0.1371821646,
				"z": 2.7241101423,
				"element": "C" 
			},
			{
				"x": 3.6640689893,
				"y": -2.1736193636,
				"z": 5.001266318,
				"element": "H" 
			},
			{
				"x": 4.8682697249,
				"y": -0.8847817679,
				"z": 5.0281750995,
				"element": "H" 
			},
			{
				"x": 3.4313600238,
				"y": -0.7787884923,
				"z": 6.0566487525,
				"element": "H" 
			},
			{
				"x": 1.2322084495,
				"y": -0.1184453038,
				"z": 5.0876903228,
				"element": "H" 
			},
			{
				"x": 0.0020693771,
				"y": 1.0025689338,
				"z": 3.2340888072,
				"element": "H" 
			},
			{
				"x": -2.4798400708,
				"y": 1.3548901198,
				"z": -2.1058264609,
				"element": "H" 
			},
			{
				"x": -4.6890235663,
				"y": 2.1889655992,
				"z": -1.3233460644,
				"element": "H" 
			},
			{
				"x": -5.482109919,
				"y": 4.9904895922,
				"z": 0.0150890097,
				"element": "H" 
			},
			{
				"x": -5.1858341245,
				"y": 4.3640356574,
				"z": 1.6371538471,
				"element": "H" 
			},
			{
				"x": -5.9979170633,
				"y": 3.3549433995,
				"z": 0.4303916519,
				"element": "H" 
			},
			{
				"x": -2.7094752172,
				"y": 4.7966516576,
				"z": 1.4566292368,
				"element": "H" 
			},
			{
				"x": -0.5047854246,
				"y": 3.9557544986,
				"z": 0.6684624256,
				"element": "H" 
			},
			{
				"x": -2.5447450095,
				"y": -1.2580656159,
				"z": -0.3440083286,
				"element": "H" 
			},
			{
				"x": -3.3788112662,
				"y": -3.0168343829,
				"z": -1.8957666156,
				"element": "H" 
			},
			{
				"x": -1.242978046,
				"y": -4.8309259023,
				"z": -4.3473796741,
				"element": "H" 
			},
			{
				"x": -2.5150784002,
				"y": -3.7253361929,
				"z": -4.8679950119,
				"element": "H" 
			},
			{
				"x": -2.8098596185,
				"y": -4.8298437826,
				"z": -3.5239846262,
				"element": "H" 
			},
			{
				"x": 0.4209489873,
				"y": -3.0245615991,
				"z": -3.8947586747,
				"element": "H" 
			},
			{
				"x": 1.2504474654,
				"y": -1.2787681488,
				"z": -2.3394177452,
				"element": "H" 
			},
			{
				"x": 3.4638176833,
				"y": 0.6825472435,
				"z": 0.7273234496,
				"element": "H" 
			},
			{
				"x": 4.6947964248,
				"y": -0.4464924126,
				"z": 2.5685953326,
				"element": "H" 
			}
		],
		 "valence_orbital": [ 
			{
				"type": "occ",
				"energy": -0.25332,
				"method": "rhf"
			},
			{
				"type": "occ",
				"energy": -0.25265,
				"method": "rhf"
			},
			{
				"type": "occ",
				"energy": -0.24138,
				"method": "rhf"
			},
			{
				"type": "occ",
				"energy": -0.23409,
				"method": "rhf"
			},
			{
				"type": "occ",
				"energy": -0.22968,
				"method": "rhf"
			},
			{
				"type": "unocc",
				"energy": -0.01033,
				"method": "rhf"
			},
			{
				"type": "unocc",
				"energy": -0.00577,
				"method": "rhf"
			},
			{
				"type": "unocc",
				"energy": -0.00472,
				"method": "rhf"
			},
			{
				"type": "unocc",
				"energy": -0.00415,
				"method": "rhf"
			},
			{
				"type": "unocc",
				"energy": 0.00057,
				"method": "rhf"
			}
		],
		"cosmo_sigma_profile": { 
			"-0.025": 0.0,
			"-0.024": 0.0,
			"-0.023": 0.0,
			"-0.022": 0.0,
			"-0.021": 0.0,
			"-0.02": 0.0,
			"-0.019": 0.0,
			"-0.018": 0.0,
			"-0.017": 0.0,
			"-0.016": 0.0,
			"-0.015": 0.0,
			"-0.014": 0.0,
			"-0.013": 0.0,
			"-0.012": 0.0,
			"-0.011": 0.0,
			"-0.01": 0.0,
			"-0.009": 0.0,
			"-0.008": 0.0,
			"-0.007": 1.55280540129,
			"-0.006": 13.3702063575,
			"-0.005": 28.1906534954,
			"-0.004": 45.7404374896,
			"-0.003": 34.010715751,
			"-0.002": 36.8289086835,
			"-0.001": 41.8756381937,
			"0.0": 44.3667686063,
			"0.001": 31.0327383181,
			"0.002": 31.7040495792,
			"0.003": 35.344975256,
			"0.004": 36.3700683831,
			"0.005": 20.4249274429,
			"0.006": 3.75783838028,
			"0.007": 2.60068069197,
			"0.008": 3.04607023076,
			"0.009": 1.44522679847,
			"0.01": 1.42277108835,
			"0.011": 2.1108130292,
			"0.012": 2.33460487474,
			"0.013": 2.98197579091,
			"0.014": 0.367723364711,
			"0.015": 0.0,
			"0.016": 0.0,
			"0.017": 0.0,
			"0.018": 0.0,
			"0.019": 0.0,
			"0.02": 0.0,
			"0.021": 0.0,
			"0.022": 0.0,
			"0.023": 0.0,
			"0.024": 0.0,
			"0.025": 0.0
		}
	}
}
