{
	 "smiles": "COC(=O)C1=CC=C(F)C(O)=C1", 
	 "Tm": 363.15, 
	 "num_atms": 19, 
	 "gaussian": { 
		 "optdone": 1, 
		 "sigma_profile": "yes", 
		 "theory": "DFT", 
		 "functional": "B3LYP", 
		 "basiset": "6-31G**", 
		 "properties": { 
			 "R2extent": 2574.6695, 
			 "electric_dipole_moment_norm": 1.70136221011, 
			 "electric_quadrupole_moment_norm": 9.89136051916, 
			 "total_energy": -634.577560434, 
			 "HOMO_LUMO_gap": 0.18873, 
			 "cosmo_polarized_energy": -11.41, 
			 "cosmo_cavitation_energy": 24.53, 
			 "cosmo_dispersion_energy": -17.99, 
			 "cosmo_repulsion_energy": 1.41, 
			 "cosmo_total_nonelectrostatic_energy": 7.96, 
			 "SMD_solvation_energy": 6.76 
		},
		"coords": [
			{
				"x": -1.9714735285,
				"y": -3.205747463,
				"z": 0.9072062647,
				"element": "C" 
			},
			{
				"x": -1.7106445563,
				"y": -1.9556805314,
				"z": 0.2510024524,
				"element": "O" 
			},
			{
				"x": -0.6607618827,
				"y": -1.25731433,
				"z": 0.7397699689,
				"element": "C" 
			},
			{
				"x": 0.0220955868,
				"y": -1.6482142532,
				"z": 1.6680087532,
				"element": "O" 
			},
			{
				"x": -0.4437961842,
				"y": 0.0260152498,
				"z": 0.017850215,
				"element": "C" 
			},
			{
				"x": -1.2521263936,
				"y": 0.4404589417,
				"z": -1.0464209526,
				"element": "C" 
			},
			{
				"x": -0.9881511895,
				"y": 1.6574237638,
				"z": -1.675722096,
				"element": "C" 
			},
			{
				"x": 0.0698759861,
				"y": 2.4409560813,
				"z": -1.2404789978,
				"element": "C" 
			},
			{
				"x": 0.3277772016,
				"y": 3.6133519079,
				"z": -1.8432154064,
				"element": "F" 
			},
			{
				"x": 0.8935150963,
				"y": 2.0435495205,
				"z": -0.1741084033,
				"element": "C" 
			},
			{
				"x": 1.9065394974,
				"y": 2.8799986019,
				"z": 0.1802201147,
				"element": "O" 
			},
			{
				"x": 0.6234872958,
				"y": 0.828812938,
				"z": 0.447796121,
				"element": "C" 
			},
			{
				"x": -2.8354784945,
				"y": -3.6311036925,
				"z": 0.3970044441,
				"element": "H" 
			},
			{
				"x": -2.1900828886,
				"y": -3.046641606,
				"z": 1.9662051104,
				"element": "H" 
			},
			{
				"x": -1.109072452,
				"y": -3.8719798291,
				"z": 0.8236370457,
				"element": "H" 
			},
			{
				"x": -2.0749052498,
				"y": -0.1817539739,
				"z": -1.3754819476,
				"element": "H" 
			},
			{
				"x": -1.5911432698,
				"y": 2.0139658535,
				"z": -2.5038611024,
				"element": "H" 
			},
			{
				"x": 2.3899235033,
				"y": 2.4893153884,
				"z": 0.9200312781,
				"element": "H" 
			},
			{
				"x": 1.2331219223,
				"y": 0.4796874323,
				"z": 1.2767571378,
				"element": "H" 
			}
		],
		 "valence_orbital": [ 
			{
				"type": "occ",
				"energy": -0.34168,
				"method": "rhf"
			},
			{
				"type": "occ",
				"energy": -0.30444,
				"method": "rhf"
			},
			{
				"type": "occ",
				"energy": -0.27707,
				"method": "rhf"
			},
			{
				"type": "occ",
				"energy": -0.2602,
				"method": "rhf"
			},
			{
				"type": "occ",
				"energy": -0.23396,
				"method": "rhf"
			},
			{
				"type": "unocc",
				"energy": -0.04523,
				"method": "rhf"
			},
			{
				"type": "unocc",
				"energy": -0.00694,
				"method": "rhf"
			},
			{
				"type": "unocc",
				"energy": 0.06002,
				"method": "rhf"
			},
			{
				"type": "unocc",
				"energy": 0.0626,
				"method": "rhf"
			},
			{
				"type": "unocc",
				"energy": 0.08684,
				"method": "rhf"
			}
		],
		"cosmo_sigma_profile": { 
			"-0.025": 0.0,
			"-0.024": 0.0,
			"-0.023": 0.0,
			"-0.022": 0.0,
			"-0.021": 0.0,
			"-0.02": 0.0,
			"-0.019": 0.195982526163,
			"-0.018": 1.14312625938,
			"-0.017": 1.54982852818,
			"-0.016": 0.7696748987,
			"-0.015": 0.737903302916,
			"-0.014": 1.36811479205,
			"-0.013": 1.1745724229,
			"-0.012": 0.869443443054,
			"-0.011": 0.915418872706,
			"-0.01": 1.29024292573,
			"-0.009": 0.513219774932,
			"-0.008": 2.48116750552,
			"-0.007": 3.70020372067,
			"-0.006": 8.66890421288,
			"-0.005": 12.1521267705,
			"-0.004": 11.7355629864,
			"-0.003": 12.5880751487,
			"-0.002": 10.6382329326,
			"-0.001": 10.4267815088,
			"0.0": 15.905168267,
			"0.001": 19.007266314,
			"0.002": 17.7545993289,
			"0.003": 14.9671627109,
			"0.004": 12.546466898,
			"0.005": 6.92446069665,
			"0.006": 4.53021424102,
			"0.007": 2.83987622122,
			"0.008": 3.4211866288,
			"0.009": 3.52575529734,
			"0.01": 3.83939321583,
			"0.011": 3.83450041603,
			"0.012": 3.96899879727,
			"0.013": 0.184478863255,
			"0.014": 0.0,
			"0.015": 0.0,
			"0.016": 0.0,
			"0.017": 0.0,
			"0.018": 0.0,
			"0.019": 0.0,
			"0.02": 0.0,
			"0.021": 0.0,
			"0.022": 0.0,
			"0.023": 0.0,
			"0.024": 0.0,
			"0.025": 0.0
		}
	}
}
