{
	 "smiles": "NC1=CC=C(CC(=O)N2CCN(CC2)C2=NC=CC=N2)C=C1", 
	 "Tm": 467.15, 
	 "num_atms": 41, 
	 "gaussian": { 
		 "optdone": 1, 
		 "sigma_profile": "yes", 
		 "theory": "DFT", 
		 "functional": "B3LYP", 
		 "basiset": "6-31G**", 
		 "properties": { 
			 "R2extent": 12271.4712, 
			 "electric_dipole_moment_norm": 2.15834152997, 
			 "electric_quadrupole_moment_norm": 18.518649596, 
			 "total_energy": -970.151047783, 
			 "HOMO_LUMO_gap": 0.16, 
			 "cosmo_polarized_energy": -21.02, 
			 "cosmo_cavitation_energy": 43.54, 
			 "cosmo_dispersion_energy": -31.73, 
			 "cosmo_repulsion_energy": 2.42, 
			 "cosmo_total_nonelectrostatic_energy": 14.23, 
			 "SMD_solvation_energy": 4.11 
		},
		"coords": [
			{
				"x": -3.4565121413,
				"y": 5.5854412288,
				"z": 2.5447539253,
				"element": "N" 
			},
			{
				"x": -2.848171574,
				"y": 4.3989437811,
				"z": 2.1199434684,
				"element": "C" 
			},
			{
				"x": -3.394421504,
				"y": 3.6421799341,
				"z": 1.072416626,
				"element": "C" 
			},
			{
				"x": -2.8115316906,
				"y": 2.4330655008,
				"z": 0.6973694051,
				"element": "C" 
			},
			{
				"x": -1.675296952,
				"y": 1.9347394477,
				"z": 1.3425885096,
				"element": "C" 
			},
			{
				"x": -1.0777147262,
				"y": 0.6091092485,
				"z": 0.9349439421,
				"element": "C" 
			},
			{
				"x": 0.3707027539,
				"y": 0.6924714809,
				"z": 0.4256107056,
				"element": "C" 
			},
			{
				"x": 1.0753900843,
				"y": 1.6796353646,
				"z": 0.6051728313,
				"element": "O" 
			},
			{
				"x": 0.8469734654,
				"y": -0.4271481523,
				"z": -0.2197042343,
				"element": "N" 
			},
			{
				"x": 2.2145269722,
				"y": -0.4060643919,
				"z": -0.7443184358,
				"element": "C" 
			},
			{
				"x": 2.2818271789,
				"y": -1.0181658728,
				"z": -2.1407070531,
				"element": "C" 
			},
			{
				"x": 1.7025635586,
				"y": -2.3665829069,
				"z": -2.1289614282,
				"element": "N" 
			},
			{
				"x": 0.9660664199,
				"y": -2.777680229,
				"z": -0.9402637215,
				"element": "C" 
			},
			{
				"x": 0.0622738073,
				"y": -1.6463644307,
				"z": -0.4468447597,
				"element": "C" 
			},
			{
				"x": 1.8198658644,
				"y": -3.1749553484,
				"z": -3.2245358652,
				"element": "C" 
			},
			{
				"x": 2.4856312264,
				"y": -2.6594305594,
				"z": -4.2837164673,
				"element": "N" 
			},
			{
				"x": 2.6007215748,
				"y": -3.4556646063,
				"z": -5.3458873951,
				"element": "C" 
			},
			{
				"x": 2.0723362858,
				"y": -4.74491292,
				"z": -5.3965537246,
				"element": "C" 
			},
			{
				"x": 1.4028779497,
				"y": -5.1668200991,
				"z": -4.2477380667,
				"element": "C" 
			},
			{
				"x": 1.2690843485,
				"y": -4.4094903911,
				"z": -3.1607849773,
				"element": "N" 
			},
			{
				"x": -1.133660568,
				"y": 2.6964270559,
				"z": 2.3875754655,
				"element": "C" 
			},
			{
				"x": -1.7055144892,
				"y": 3.9035511217,
				"z": 2.7725774086,
				"element": "C" 
			},
			{
				"x": -4.010822927,
				"y": 6.0513203358,
				"z": 1.8389144092,
				"element": "H" 
			},
			{
				"x": -2.8355821417,
				"y": 6.2329997854,
				"z": 3.0113237586,
				"element": "H" 
			},
			{
				"x": -4.2800403981,
				"y": 4.0017485523,
				"z": 0.5537286037,
				"element": "H" 
			},
			{
				"x": -3.2547519402,
				"y": 1.8679543451,
				"z": -0.1198737775,
				"element": "H" 
			},
			{
				"x": -1.7119724589,
				"y": 0.1401423533,
				"z": 0.1752734439,
				"element": "H" 
			},
			{
				"x": -1.0748974612,
				"y": -0.0888429583,
				"z": 1.786364435,
				"element": "H" 
			},
			{
				"x": 2.8958036494,
				"y": -0.9362502301,
				"z": -0.0643218794,
				"element": "H" 
			},
			{
				"x": 2.5328862606,
				"y": 0.6361733201,
				"z": -0.7722882952,
				"element": "H" 
			},
			{
				"x": 1.7463058445,
				"y": -0.3835616179,
				"z": -2.8586666603,
				"element": "H" 
			},
			{
				"x": 3.3222424968,
				"y": -1.0654445018,
				"z": -2.4768132302,
				"element": "H" 
			},
			{
				"x": 1.6552708491,
				"y": -3.0801990264,
				"z": -0.1387106672,
				"element": "H" 
			},
			{
				"x": 0.3654804237,
				"y": -3.649671072,
				"z": -1.1967933018,
				"element": "H" 
			},
			{
				"x": -0.7271635324,
				"y": -1.4713839428,
				"z": -1.1915346209,
				"element": "H" 
			},
			{
				"x": -0.4242465272,
				"y": -1.97061775,
				"z": 0.4802668832,
				"element": "H" 
			},
			{
				"x": 3.1396010209,
				"y": -3.0391385053,
				"z": -6.1965215739,
				"element": "H" 
			},
			{
				"x": 2.174807284,
				"y": -5.377476062,
				"z": -6.2699527277,
				"element": "H" 
			},
			{
				"x": 0.955247693,
				"y": -6.158943509,
				"z": -4.1948871986,
				"element": "H" 
			},
			{
				"x": -0.2403155983,
				"y": 2.3472573261,
				"z": 2.894999492,
				"element": "H" 
			},
			{
				"x": -1.2662703817,
				"y": 4.4742489009,
				"z": 3.5875567483,
				"element": "H" 
			}
		],
		 "valence_orbital": [ 
			{
				"type": "occ",
				"energy": -0.24365,
				"method": "rhf"
			},
			{
				"type": "occ",
				"energy": -0.23448,
				"method": "rhf"
			},
			{
				"type": "occ",
				"energy": -0.2322,
				"method": "rhf"
			},
			{
				"type": "occ",
				"energy": -0.21366,
				"method": "rhf"
			},
			{
				"type": "occ",
				"energy": -0.19146,
				"method": "rhf"
			},
			{
				"type": "unocc",
				"energy": -0.03146,
				"method": "rhf"
			},
			{
				"type": "unocc",
				"energy": 0.00146,
				"method": "rhf"
			},
			{
				"type": "unocc",
				"energy": 0.01264,
				"method": "rhf"
			},
			{
				"type": "unocc",
				"energy": 0.02466,
				"method": "rhf"
			},
			{
				"type": "unocc",
				"energy": 0.03427,
				"method": "rhf"
			}
		],
		"cosmo_sigma_profile": { 
			"-0.025": 0.0,
			"-0.024": 0.0,
			"-0.023": 0.0,
			"-0.022": 0.0,
			"-0.021": 0.0,
			"-0.02": 0.0,
			"-0.019": 0.0,
			"-0.018": 0.0,
			"-0.017": 0.0,
			"-0.016": 0.0,
			"-0.015": 0.0,
			"-0.014": 0.0,
			"-0.013": 0.00673329942141,
			"-0.012": 1.79844554602,
			"-0.011": 2.95554029945,
			"-0.01": 2.64560425657,
			"-0.009": 3.24798373916,
			"-0.008": 2.7881138404,
			"-0.007": 7.6227003745,
			"-0.006": 19.352891632,
			"-0.005": 35.8418154953,
			"-0.004": 36.9711620802,
			"-0.003": 30.0544132786,
			"-0.002": 22.2319041775,
			"-0.001": 17.1177536555,
			"0.0": 19.762141438,
			"0.001": 22.144762813,
			"0.002": 20.0616002916,
			"0.003": 15.0535135244,
			"0.004": 11.0027595999,
			"0.005": 10.5412252978,
			"0.006": 13.8442821414,
			"0.007": 11.6094748704,
			"0.008": 8.11422173932,
			"0.009": 4.36217289951,
			"0.01": 4.47104415757,
			"0.011": 5.74744900789,
			"0.012": 3.15912988489,
			"0.013": 4.53719024366,
			"0.014": 5.31299375589,
			"0.015": 1.8962848081,
			"0.016": 0.0129764418941,
			"0.017": 0.0,
			"0.018": 0.0,
			"0.019": 0.0,
			"0.02": 0.0,
			"0.021": 0.0,
			"0.022": 0.0,
			"0.023": 0.0,
			"0.024": 0.0,
			"0.025": 0.0
		}
	}
}
