{
	 "smiles": "NCC(O)CC(O)=O", 
	 "Tm": 475.15, 
	 "num_atms": 17, 
	 "gaussian": { 
		 "optdone": 1, 
		 "sigma_profile": "yes", 
		 "theory": "DFT", 
		 "functional": "B3LYP", 
		 "basiset": "6-31G**", 
		 "properties": { 
			 "R2extent": 2086.1645, 
			 "electric_dipole_moment_norm": 7.21925416716, 
			 "electric_quadrupole_moment_norm": 17.5472746092, 
			 "total_energy": -438.274915311, 
			 "HOMO_LUMO_gap": 0.27397, 
			 "cosmo_polarized_energy": -19.12, 
			 "cosmo_cavitation_energy": 20.24, 
			 "cosmo_dispersion_energy": -15.11, 
			 "cosmo_repulsion_energy": 1.31, 
			 "cosmo_total_nonelectrostatic_energy": 6.43, 
			 "SMD_solvation_energy": 3.92 
		},
		"coords": [
			{
				"x": 0.6697327554,
				"y": 0.2919840797,
				"z": 0.9889704786,
				"element": "N" 
			},
			{
				"x": -0.6804035757,
				"y": 0.1865899552,
				"z": 1.5361227969,
				"element": "C" 
			},
			{
				"x": -1.7069785014,
				"y": -0.0298683909,
				"z": 0.4167789931,
				"element": "C" 
			},
			{
				"x": -3.0189580044,
				"y": -0.2078846298,
				"z": 0.9912565776,
				"element": "O" 
			},
			{
				"x": -1.8009130513,
				"y": 1.1584567839,
				"z": -0.539266087,
				"element": "C" 
			},
			{
				"x": -2.6919111891,
				"y": 0.9353908883,
				"z": -1.7629002449,
				"element": "C" 
			},
			{
				"x": -3.8543371958,
				"y": 0.2891703119,
				"z": -1.5254717005,
				"element": "O" 
			},
			{
				"x": -2.4043742228,
				"y": 1.3250344824,
				"z": -2.8693465532,
				"element": "O" 
			},
			{
				"x": 1.0197803909,
				"y": -0.621430738,
				"z": 0.7116728006,
				"element": "H" 
			},
			{
				"x": 1.3114211221,
				"y": 0.6527852361,
				"z": 1.6878813798,
				"element": "H" 
			},
			{
				"x": -0.8117634122,
				"y": -0.6225392202,
				"z": 2.2795926595,
				"element": "H" 
			},
			{
				"x": -0.9268458882,
				"y": 1.1232786762,
				"z": 2.0484030371,
				"element": "H" 
			},
			{
				"x": -1.4314008071,
				"y": -0.9321362787,
				"z": -0.1529697607,
				"element": "H" 
			},
			{
				"x": -3.0489089652,
				"y": -1.0593987338,
				"z": 1.4471245941,
				"element": "H" 
			},
			{
				"x": -0.8016709011,
				"y": 1.4215709305,
				"z": -0.8866471792,
				"element": "H" 
			},
			{
				"x": -2.1993238117,
				"y": 2.0161665107,
				"z": 0.0203775818,
				"element": "H" 
			},
			{
				"x": -3.8913447423,
				"y": 0.0480301365,
				"z": -0.5764793735,
				"element": "H" 
			}
		],
		 "valence_orbital": [ 
			{
				"type": "occ",
				"energy": -0.34835,
				"method": "rhf"
			},
			{
				"type": "occ",
				"energy": -0.30621,
				"method": "rhf"
			},
			{
				"type": "occ",
				"energy": -0.29167,
				"method": "rhf"
			},
			{
				"type": "occ",
				"energy": -0.2585,
				"method": "rhf"
			},
			{
				"type": "occ",
				"energy": -0.24733,
				"method": "rhf"
			},
			{
				"type": "unocc",
				"energy": 0.02664,
				"method": "rhf"
			},
			{
				"type": "unocc",
				"energy": 0.04361,
				"method": "rhf"
			},
			{
				"type": "unocc",
				"energy": 0.0601,
				"method": "rhf"
			},
			{
				"type": "unocc",
				"energy": 0.10684,
				"method": "rhf"
			},
			{
				"type": "unocc",
				"energy": 0.1279,
				"method": "rhf"
			}
		],
		"cosmo_sigma_profile": { 
			"-0.025": 0.0,
			"-0.024": 0.0,
			"-0.023": 0.0,
			"-0.022": 0.0,
			"-0.021": 0.0,
			"-0.02": 0.0,
			"-0.019": 0.0,
			"-0.018": 0.00192823122356,
			"-0.017": 0.618394645566,
			"-0.016": 1.19966294313,
			"-0.015": 1.17757861714,
			"-0.014": 1.01977397566,
			"-0.013": 0.724778758116,
			"-0.012": 1.02207066963,
			"-0.011": 1.0811165386,
			"-0.01": 3.45551582517,
			"-0.009": 4.59288197382,
			"-0.008": 4.17869109963,
			"-0.007": 6.94406333702,
			"-0.006": 12.1405882543,
			"-0.005": 11.7974399281,
			"-0.004": 11.5918154562,
			"-0.003": 11.2102246034,
			"-0.002": 10.0035433049,
			"-0.001": 8.34077193715,
			"0.0": 4.04505371479,
			"0.001": 4.61202322302,
			"0.002": 3.63337288719,
			"0.003": 4.24511885852,
			"0.004": 3.56254010262,
			"0.005": 3.42411680049,
			"0.006": 3.57626476052,
			"0.007": 3.73452386705,
			"0.008": 3.64274382692,
			"0.009": 4.3623024832,
			"0.01": 4.92744986823,
			"0.011": 6.38222262551,
			"0.012": 7.51655270539,
			"0.013": 5.25433654041,
			"0.014": 2.16856619849,
			"0.015": 0.59246460112,
			"0.016": 0.165976027856,
			"0.017": 0.0,
			"0.018": 0.0,
			"0.019": 0.0,
			"0.02": 0.0,
			"0.021": 0.0,
			"0.022": 0.0,
			"0.023": 0.0,
			"0.024": 0.0,
			"0.025": 0.0
		}
	}
}
