{
	 "smiles": "CCC1=C(C)C2=CCC=CC2=N1", 
	 "Tm": 337.15, 
	 "num_atms": 25, 
	 "gaussian": { 
		 "optdone": 1, 
		 "sigma_profile": "yes", 
		 "theory": "DFT", 
		 "functional": "B3LYP", 
		 "basiset": "6-31G**", 
		 "properties": { 
			 "R2extent": 2443.5481, 
			 "electric_dipole_moment_norm": 3.23293136488, 
			 "electric_quadrupole_moment_norm": 7.64256454274, 
			 "total_energy": -481.729618172, 
			 "HOMO_LUMO_gap": 0.1326, 
			 "cosmo_polarized_energy": -9.39, 
			 "cosmo_cavitation_energy": 27.52, 
			 "cosmo_dispersion_energy": -20.11, 
			 "cosmo_repulsion_energy": 1.63, 
			 "cosmo_total_nonelectrostatic_energy": 9.04, 
			 "SMD_solvation_energy": 2.74 
		},
		"coords": [
			{
				"x": 0.0613046226,
				"y": -1.0008038559,
				"z": 3.8954962742,
				"element": "C" 
			},
			{
				"x": -1.091122771,
				"y": -0.3115849449,
				"z": 3.1427562995,
				"element": "C" 
			},
			{
				"x": -0.692789941,
				"y": 0.1412053925,
				"z": 1.7713503923,
				"element": "C" 
			},
			{
				"x": -1.159406472,
				"y": -0.2683256395,
				"z": 0.5479718733,
				"element": "C" 
			},
			{
				"x": -2.2102938506,
				"y": -1.2812065592,
				"z": 0.2128830063,
				"element": "C" 
			},
			{
				"x": -0.3997532898,
				"y": 0.5100053368,
				"z": -0.4193452473,
				"element": "C" 
			},
			{
				"x": -0.373768063,
				"y": 0.589503687,
				"z": -1.7652786728,
				"element": "C" 
			},
			{
				"x": 0.5634229701,
				"y": 1.5317529585,
				"z": -2.4575487868,
				"element": "C" 
			},
			{
				"x": 1.4453981973,
				"y": 2.3578505146,
				"z": -1.5670198571,
				"element": "C" 
			},
			{
				"x": 1.4109652605,
				"y": 2.2706540459,
				"z": -0.2201670624,
				"element": "C" 
			},
			{
				"x": 0.4958210981,
				"y": 1.3506954513,
				"z": 0.4058164306,
				"element": "C" 
			},
			{
				"x": 0.3237304072,
				"y": 1.1333603939,
				"z": 1.6817379918,
				"element": "N" 
			},
			{
				"x": 0.3680962953,
				"y": -1.920497335,
				"z": 3.3864749408,
				"element": "H" 
			},
			{
				"x": -0.2387043723,
				"y": -1.2598127321,
				"z": 4.9161823523,
				"element": "H" 
			},
			{
				"x": 0.9289442666,
				"y": -0.3376438603,
				"z": 3.9460733031,
				"element": "H" 
			},
			{
				"x": -1.4085647282,
				"y": 0.5697685002,
				"z": 3.7160160045,
				"element": "H" 
			},
			{
				"x": -1.956380874,
				"y": -0.9803444066,
				"z": 3.084126999,
				"element": "H" 
			},
			{
				"x": -3.0334734103,
				"y": -0.8364452354,
				"z": -0.3613527098,
				"element": "H" 
			},
			{
				"x": -1.8045043051,
				"y": -2.1000092489,
				"z": -0.3954801711,
				"element": "H" 
			},
			{
				"x": -2.6424898547,
				"y": -1.726385355,
				"z": 1.1127038602,
				"element": "H" 
			},
			{
				"x": -1.0247441458,
				"y": -0.0202990338,
				"z": -2.3894313858,
				"element": "H" 
			},
			{
				"x": 1.190041535,
				"y": 0.9608232241,
				"z": -3.163888609,
				"element": "H" 
			},
			{
				"x": -0.0193960191,
				"y": 2.1993535336,
				"z": -3.1149235512,
				"element": "H" 
			},
			{
				"x": 2.1288750544,
				"y": 3.0450479452,
				"z": -2.0587295306,
				"element": "H" 
			},
			{
				"x": 2.0554923897,
				"y": 2.8752372232,
				"z": 0.411075856,
				"element": "H" 
			}
		],
		 "valence_orbital": [ 
			{
				"type": "occ",
				"energy": -0.32804,
				"method": "rhf"
			},
			{
				"type": "occ",
				"energy": -0.28507,
				"method": "rhf"
			},
			{
				"type": "occ",
				"energy": -0.25341,
				"method": "rhf"
			},
			{
				"type": "occ",
				"energy": -0.24726,
				"method": "rhf"
			},
			{
				"type": "occ",
				"energy": -0.19772,
				"method": "rhf"
			},
			{
				"type": "unocc",
				"energy": -0.06512,
				"method": "rhf"
			},
			{
				"type": "unocc",
				"energy": 0.00457,
				"method": "rhf"
			},
			{
				"type": "unocc",
				"energy": 0.08475,
				"method": "rhf"
			},
			{
				"type": "unocc",
				"energy": 0.09053,
				"method": "rhf"
			},
			{
				"type": "unocc",
				"energy": 0.10307,
				"method": "rhf"
			}
		],
		"cosmo_sigma_profile": { 
			"-0.025": 0.0,
			"-0.024": 0.0,
			"-0.023": 0.0,
			"-0.022": 0.0,
			"-0.021": 0.0,
			"-0.02": 0.0,
			"-0.019": 0.0,
			"-0.018": 0.0,
			"-0.017": 0.0,
			"-0.016": 0.0,
			"-0.015": 0.0,
			"-0.014": 0.0,
			"-0.013": 0.0,
			"-0.012": 0.0,
			"-0.011": 0.0,
			"-0.01": 0.0,
			"-0.009": 0.0,
			"-0.008": 0.0,
			"-0.007": 3.42103951403,
			"-0.006": 11.6210109102,
			"-0.005": 13.2598132978,
			"-0.004": 17.9597458214,
			"-0.003": 20.0703988705,
			"-0.002": 18.8458473924,
			"-0.001": 21.9149865521,
			"0.0": 23.5889426926,
			"0.001": 22.7351351241,
			"0.002": 14.3207526534,
			"0.003": 13.5928278677,
			"0.004": 12.0238937534,
			"0.005": 7.43392280312,
			"0.006": 2.41627241932,
			"0.007": 1.9816189114,
			"0.008": 1.93534140926,
			"0.009": 1.75259761905,
			"0.01": 1.75559190582,
			"0.011": 1.13633145239,
			"0.012": 1.10092509375,
			"0.013": 0.561467939926,
			"0.014": 0.830000064208,
			"0.015": 0.768389226893,
			"0.016": 0.976392434452,
			"0.017": 0.642925078186,
			"0.018": 0.545987629788,
			"0.019": 0.175507044759,
			"0.02": 0.0,
			"0.021": 0.0,
			"0.022": 0.0,
			"0.023": 0.0,
			"0.024": 0.0,
			"0.025": 0.0
		}
	}
}
