{
	 "smiles": "C[C@]12CCC3C(C1CCC21OCCO1)C1(C[C@H]2C[C@@H](O)CC[C@]32C)OCCO1", 
	 "Tm": 374.15, 
	 "num_atms": 64, 
	 "gaussian": { 
		 "optdone": 1, 
		 "sigma_profile": "yes", 
		 "theory": "DFT", 
		 "functional": "B3LYP", 
		 "basiset": "6-31G**", 
		 "properties": { 
			 "R2extent": 11562.6079, 
			 "electric_dipole_moment_norm": 1.80980630179, 
			 "electric_quadrupole_moment_norm": 18.0599046587, 
			 "total_energy": -1274.23686229, 
			 "HOMO_LUMO_gap": 0.29646, 
			 "cosmo_polarized_energy": -14.85, 
			 "cosmo_cavitation_energy": 52.12, 
			 "cosmo_dispersion_energy": -36.8, 
			 "cosmo_repulsion_energy": 2.66, 
			 "cosmo_total_nonelectrostatic_energy": 17.98, 
			 "SMD_solvation_energy": 7.23 
		},
		"coords": [
			{
				"x": -3.2858486661,
				"y": 0.3521852722,
				"z": -2.2425428063,
				"element": "C" 
			},
			{
				"x": -2.0219383716,
				"y": 1.047957494,
				"z": -1.7089861051,
				"element": "C" 
			},
			{
				"x": -0.7682004074,
				"y": 0.4339060912,
				"z": -2.3611328144,
				"element": "C" 
			},
			{
				"x": -0.4806556719,
				"y": -1.0079287645,
				"z": -1.8968976426,
				"element": "C" 
			},
			{
				"x": -0.883299011,
				"y": -1.3110146649,
				"z": -0.4271041966,
				"element": "C" 
			},
			{
				"x": -0.8724527173,
				"y": -0.0259572026,
				"z": 0.4562615146,
				"element": "C" 
			},
			{
				"x": -1.9238168277,
				"y": 0.9836471549,
				"z": -0.1317073049,
				"element": "C" 
			},
			{
				"x": -1.8495604201,
				"y": 2.464374084,
				"z": 0.3493121306,
				"element": "C" 
			},
			{
				"x": -1.3161973277,
				"y": 3.2438213542,
				"z": -0.8570656581,
				"element": "C" 
			},
			{
				"x": -2.0731934471,
				"y": 2.5856493212,
				"z": -2.0146447624,
				"element": "C" 
			},
			{
				"x": -1.5683146091,
				"y": 2.8778528398,
				"z": -3.3092508626,
				"element": "O" 
			},
			{
				"x": -2.3599921154,
				"y": 3.9251476728,
				"z": -3.8556655753,
				"element": "C" 
			},
			{
				"x": -3.7373823872,
				"y": 3.6247388601,
				"z": -3.2705679065,
				"element": "C" 
			},
			{
				"x": -3.4242351661,
				"y": 3.0915619761,
				"z": -1.9900643654,
				"element": "O" 
			},
			{
				"x": 0.5627028393,
				"y": 0.4053104121,
				"z": 0.8614808386,
				"element": "C" 
			},
			{
				"x": 1.3345623424,
				"y": -0.79554514,
				"z": 1.4525568637,
				"element": "C" 
			},
			{
				"x": 1.3423206806,
				"y": -2.0291992056,
				"z": 0.546031462,
				"element": "C" 
			},
			{
				"x": 2.23364561,
				"y": -3.1599040369,
				"z": 1.0898308318,
				"element": "C" 
			},
			{
				"x": 2.2965465085,
				"y": -4.3468795168,
				"z": 0.1192484968,
				"element": "C" 
			},
			{
				"x": 3.1345813089,
				"y": -5.3934836508,
				"z": 0.6045367152,
				"element": "O" 
			},
			{
				"x": 0.8910774277,
				"y": -4.8493395345,
				"z": -0.2339971977,
				"element": "C" 
			},
			{
				"x": -0.006473776,
				"y": -3.7122567572,
				"z": -0.7547065272,
				"element": "C" 
			},
			{
				"x": -0.1025230179,
				"y": -2.5061280047,
				"z": 0.2188881683,
				"element": "C" 
			},
			{
				"x": -0.8711517775,
				"y": -2.9712446224,
				"z": 1.4802650682,
				"element": "C" 
			},
			{
				"x": 1.2859297235,
				"y": 0.9943113067,
				"z": -0.2134250144,
				"element": "O" 
			},
			{
				"x": 2.2193647445,
				"y": 1.9035388652,
				"z": 0.3597725573,
				"element": "C" 
			},
			{
				"x": 1.468749566,
				"y": 2.4357549795,
				"z": 1.5892032674,
				"element": "C" 
			},
			{
				"x": 0.5228599651,
				"y": 1.4132458583,
				"z": 1.8924877608,
				"element": "O" 
			},
			{
				"x": -4.1875177587,
				"y": 0.7503935427,
				"z": -1.7715165241,
				"element": "H" 
			},
			{
				"x": -3.3748374375,
				"y": 0.4996932397,
				"z": -3.3250620514,
				"element": "H" 
			},
			{
				"x": -3.2521693281,
				"y": -0.7264309484,
				"z": -2.0622559458,
				"element": "H" 
			},
			{
				"x": -0.8800672278,
				"y": 0.4561484543,
				"z": -3.4494332262,
				"element": "H" 
			},
			{
				"x": 0.0966473636,
				"y": 1.0535464309,
				"z": -2.1250894039,
				"element": "H" 
			},
			{
				"x": -1.0040445993,
				"y": -1.7177739762,
				"z": -2.5468694329,
				"element": "H" 
			},
			{
				"x": 0.587653809,
				"y": -1.1930379471,
				"z": -2.0491683272,
				"element": "H" 
			},
			{
				"x": -1.9376049457,
				"y": -1.6203285693,
				"z": -0.450804982,
				"element": "H" 
			},
			{
				"x": -1.287860236,
				"y": -0.3015781251,
				"z": 1.4318809437,
				"element": "H" 
			},
			{
				"x": -2.8745735407,
				"y": 0.5698144067,
				"z": 0.2232155927,
				"element": "H" 
			},
			{
				"x": -1.2574456924,
				"y": 2.5820700527,
				"z": 1.2543159834,
				"element": "H" 
			},
			{
				"x": -2.8639297436,
				"y": 2.8165907591,
				"z": 0.5636054196,
				"element": "H" 
			},
			{
				"x": -1.503966567,
				"y": 4.3203652447,
				"z": -0.8114953908,
				"element": "H" 
			},
			{
				"x": -0.2441834145,
				"y": 3.0739697861,
				"z": -0.9953430064,
				"element": "H" 
			},
			{
				"x": -2.311535138,
				"y": 3.8635899968,
				"z": -4.9460734649,
				"element": "H" 
			},
			{
				"x": -1.993896552,
				"y": 4.9115464707,
				"z": -3.5336767301,
				"element": "H" 
			},
			{
				"x": -4.2784533431,
				"y": 2.8883467933,
				"z": -3.8824280523,
				"element": "H" 
			},
			{
				"x": -4.365842425,
				"y": 4.511619324,
				"z": -3.1423352651,
				"element": "H" 
			},
			{
				"x": 2.3626949943,
				"y": -0.4744928279,
				"z": 1.6572687505,
				"element": "H" 
			},
			{
				"x": 0.8922653551,
				"y": -1.0266792367,
				"z": 2.4274652757,
				"element": "H" 
			},
			{
				"x": 1.7920670136,
				"y": -1.7126003643,
				"z": -0.4059490687,
				"element": "H" 
			},
			{
				"x": 1.8590943762,
				"y": -3.510123697,
				"z": 2.0632219101,
				"element": "H" 
			},
			{
				"x": 3.250609452,
				"y": -2.7891228773,
				"z": 1.2657440794,
				"element": "H" 
			},
			{
				"x": 2.7880736965,
				"y": -4.0110277397,
				"z": -0.803808216,
				"element": "H" 
			},
			{
				"x": 2.7326241241,
				"y": -5.7310851951,
				"z": 1.4167305445,
				"element": "H" 
			},
			{
				"x": 0.9722928483,
				"y": -5.6420744065,
				"z": -0.9860898258,
				"element": "H" 
			},
			{
				"x": 0.449150234,
				"y": -5.315345136,
				"z": 0.6580786554,
				"element": "H" 
			},
			{
				"x": 0.4031964785,
				"y": -3.3763726972,
				"z": -1.7130184957,
				"element": "H" 
			},
			{
				"x": -1.0121594843,
				"y": -4.0973733837,
				"z": -0.9680641785,
				"element": "H" 
			},
			{
				"x": -0.3786890529,
				"y": -3.8044311609,
				"z": 1.986988784,
				"element": "H" 
			},
			{
				"x": -1.8730896178,
				"y": -3.3124515044,
				"z": 1.1962211693,
				"element": "H" 
			},
			{
				"x": -0.9967899028,
				"y": -2.1801513947,
				"z": 2.2226773859,
				"element": "H" 
			},
			{
				"x": 3.1522817439,
				"y": 1.3948361764,
				"z": 0.6389949643,
				"element": "H" 
			},
			{
				"x": 2.4477309006,
				"y": 2.6708460435,
				"z": -0.383883713,
				"element": "H" 
			},
			{
				"x": 2.1272088194,
				"y": 2.6013447491,
				"z": 2.4490295521,
				"element": "H" 
			},
			{
				"x": 0.9395597985,
				"y": 3.3712372751,
				"z": 1.3661093544,
				"element": "H" 
			}
		],
		 "valence_orbital": [ 
			{
				"type": "occ",
				"energy": -0.26744,
				"method": "rhf"
			},
			{
				"type": "occ",
				"energy": -0.2599,
				"method": "rhf"
			},
			{
				"type": "occ",
				"energy": -0.25667,
				"method": "rhf"
			},
			{
				"type": "occ",
				"energy": -0.24244,
				"method": "rhf"
			},
			{
				"type": "occ",
				"energy": -0.23265,
				"method": "rhf"
			},
			{
				"type": "unocc",
				"energy": 0.06381,
				"method": "rhf"
			},
			{
				"type": "unocc",
				"energy": 0.07364,
				"method": "rhf"
			},
			{
				"type": "unocc",
				"energy": 0.07832,
				"method": "rhf"
			},
			{
				"type": "unocc",
				"energy": 0.08763,
				"method": "rhf"
			},
			{
				"type": "unocc",
				"energy": 0.09457,
				"method": "rhf"
			}
		],
		"cosmo_sigma_profile": { 
			"-0.025": 0.0,
			"-0.024": 0.0,
			"-0.023": 0.0,
			"-0.022": 0.0,
			"-0.021": 0.0,
			"-0.02": 0.0,
			"-0.019": 0.0,
			"-0.018": 0.0,
			"-0.017": 0.0,
			"-0.016": 0.0,
			"-0.015": 0.0523327754136,
			"-0.014": 1.13379004038,
			"-0.013": 0.620217845169,
			"-0.012": 0.741723098791,
			"-0.011": 1.19292877181,
			"-0.01": 0.825628483598,
			"-0.009": 1.53019347106,
			"-0.008": 0.886534666928,
			"-0.007": 1.02205798803,
			"-0.006": 5.36498714278,
			"-0.005": 19.4083638638,
			"-0.004": 32.1870207474,
			"-0.003": 39.1161066443,
			"-0.002": 54.9797308473,
			"-0.001": 54.9728953407,
			"0.0": 45.1019864933,
			"0.001": 39.8207665191,
			"0.002": 26.810293962,
			"0.003": 11.737570027,
			"0.004": 8.7129360297,
			"0.005": 7.28918385804,
			"0.006": 7.21105261662,
			"0.007": 7.52987497892,
			"0.008": 6.57471033801,
			"0.009": 3.77155529915,
			"0.01": 5.12550069989,
			"0.011": 4.39441247479,
			"0.012": 4.28562458737,
			"0.013": 2.55387105626,
			"0.014": 2.10889597558,
			"0.015": 1.95316674218,
			"0.016": 0.0204893216942,
			"0.017": 0.0,
			"0.018": 0.0,
			"0.019": 0.0,
			"0.02": 0.0,
			"0.021": 0.0,
			"0.022": 0.0,
			"0.023": 0.0,
			"0.024": 0.0,
			"0.025": 0.0
		}
	}
}
