{
	 "smiles": "OC(=O)C1=C(Br)C=CC(=C1)S(=O)(=O)NC1CC1", 
	 "Tm": 495.15, 
	 "num_atms": 27, 
	 "gaussian": { 
		 "optdone": 1, 
		 "sigma_profile": "yes", 
		 "theory": "DFT", 
		 "functional": "B3LYP", 
		 "basiset": "6-31G**", 
		 "properties": { 
			 "R2extent": 7592.8871, 
			 "electric_dipole_moment_norm": 3.51876760955, 
			 "electric_quadrupole_moment_norm": 19.528923299, 
			 "total_energy": -3712.22401327, 
			 "HOMO_LUMO_gap": 0.19498, 
			 "cosmo_polarized_energy": -21.88, 
			 "cosmo_cavitation_energy": 35.52, 
			 "cosmo_dispersion_energy": -25.27, 
			 "cosmo_repulsion_energy": 1.95, 
			 "cosmo_total_nonelectrostatic_energy": 12.2, 
			 "SMD_solvation_energy": 4.52 
		},
		"coords": [
			{
				"x": -0.8037945458,
				"y": 2.7774706681,
				"z": 1.0516114493,
				"element": "O" 
			},
			{
				"x": -0.659475136,
				"y": 2.0570901594,
				"z": -0.0908880483,
				"element": "C" 
			},
			{
				"x": 0.0285261042,
				"y": 2.4636456375,
				"z": -0.9909346233,
				"element": "O" 
			},
			{
				"x": -1.3640159888,
				"y": 0.7238716567,
				"z": -0.0989647445,
				"element": "C" 
			},
			{
				"x": -2.0473156011,
				"y": 0.2191915243,
				"z": -1.2184236265,
				"element": "C" 
			},
			{
				"x": -2.2580485594,
				"y": 1.2337283988,
				"z": -2.8107144641,
				"element": "Br" 
			},
			{
				"x": -2.6419415522,
				"y": -1.0457249372,
				"z": -1.1819480117,
				"element": "C" 
			},
			{
				"x": -2.5433405716,
				"y": -1.8376419678,
				"z": -0.0420064337,
				"element": "C" 
			},
			{
				"x": -1.850482604,
				"y": -1.348256868,
				"z": 1.0656124755,
				"element": "C" 
			},
			{
				"x": -1.2791612398,
				"y": -0.08043435,
				"z": 1.0480139908,
				"element": "C" 
			},
			{
				"x": -1.7289410448,
				"y": -2.3463846103,
				"z": 2.5527923583,
				"element": "S" 
			},
			{
				"x": -1.2774586918,
				"y": -1.452722879,
				"z": 3.6253252028,
				"element": "O" 
			},
			{
				"x": -2.9567356035,
				"y": -3.1375605261,
				"z": 2.6741900867,
				"element": "O" 
			},
			{
				"x": -0.5274907299,
				"y": -3.4752253496,
				"z": 2.16174134,
				"element": "N" 
			},
			{
				"x": 0.8461152654,
				"y": -3.1353099146,
				"z": 2.4667322027,
				"element": "C" 
			},
			{
				"x": 1.6587743851,
				"y": -2.452286398,
				"z": 1.3934531439,
				"element": "C" 
			},
			{
				"x": 1.9030403275,
				"y": -3.9033891485,
				"z": 1.7156978203,
				"element": "C" 
			},
			{
				"x": -1.4840707703,
				"y": 2.3844530956,
				"z": 1.6174288548,
				"element": "H" 
			},
			{
				"x": -3.1857760233,
				"y": -1.4012620469,
				"z": -2.0492419641,
				"element": "H" 
			},
			{
				"x": -3.0105456542,
				"y": -2.8156983679,
				"z": -0.0060778481,
				"element": "H" 
			},
			{
				"x": -0.7511099043,
				"y": 0.269435486,
				"z": 1.9293109194,
				"element": "H" 
			},
			{
				"x": -0.835662901,
				"y": -4.3695769852,
				"z": 2.5402124039,
				"element": "H" 
			},
			{
				"x": 1.054312178,
				"y": -2.8634361946,
				"z": 3.4992562712,
				"element": "H" 
			},
			{
				"x": 2.3894245007,
				"y": -1.7154934032,
				"z": 1.7107836128,
				"element": "H" 
			},
			{
				"x": 1.1600062012,
				"y": -2.2285941814,
				"z": 0.4568819559,
				"element": "H" 
			},
			{
				"x": 1.5629583463,
				"y": -4.6390882095,
				"z": 0.9940713668,
				"element": "H" 
			},
			{
				"x": 2.8014098135,
				"y": -4.1781002888,
				"z": 2.2588843093,
				"element": "H" 
			}
		],
		 "valence_orbital": [ 
			{
				"type": "occ",
				"energy": -0.30537,
				"method": "rhf"
			},
			{
				"type": "occ",
				"energy": -0.29626,
				"method": "rhf"
			},
			{
				"type": "occ",
				"energy": -0.28552,
				"method": "rhf"
			},
			{
				"type": "occ",
				"energy": -0.2801,
				"method": "rhf"
			},
			{
				"type": "occ",
				"energy": -0.26796,
				"method": "rhf"
			},
			{
				"type": "unocc",
				"energy": -0.07298,
				"method": "rhf"
			},
			{
				"type": "unocc",
				"energy": -0.05812,
				"method": "rhf"
			},
			{
				"type": "unocc",
				"energy": -0.01142,
				"method": "rhf"
			},
			{
				"type": "unocc",
				"energy": 0.01083,
				"method": "rhf"
			},
			{
				"type": "unocc",
				"energy": 0.04708,
				"method": "rhf"
			}
		],
		"cosmo_sigma_profile": { 
			"-0.025": 0.0,
			"-0.024": 0.0,
			"-0.023": 0.0,
			"-0.022": 0.0,
			"-0.021": 0.0,
			"-0.02": 0.138236031225,
			"-0.019": 0.911245102213,
			"-0.018": 0.785156162111,
			"-0.017": 0.575474586617,
			"-0.016": 1.12757326198,
			"-0.015": 1.40673056921,
			"-0.014": 2.07471870339,
			"-0.013": 2.33555877928,
			"-0.012": 2.13865338084,
			"-0.011": 1.75206492905,
			"-0.01": 1.90763331746,
			"-0.009": 4.6409746876,
			"-0.008": 7.35481758686,
			"-0.007": 7.10949705917,
			"-0.006": 7.67354342287,
			"-0.005": 17.0984118531,
			"-0.004": 17.4862022305,
			"-0.003": 19.4254080496,
			"-0.002": 23.7977918168,
			"-0.001": 25.6111648606,
			"0.0": 23.0994774062,
			"0.001": 14.8434740408,
			"0.002": 13.2806814516,
			"0.003": 15.6789739242,
			"0.004": 9.93814895423,
			"0.005": 6.56939898901,
			"0.006": 5.59201193985,
			"0.007": 7.37454371015,
			"0.008": 6.8036444802,
			"0.009": 8.13873047483,
			"0.01": 14.1672276278,
			"0.011": 12.6200436749,
			"0.012": 2.9727230356,
			"0.013": 0.0532206519822,
			"0.014": 0.0,
			"0.015": 0.0,
			"0.016": 0.0,
			"0.017": 0.0,
			"0.018": 0.0,
			"0.019": 0.0,
			"0.02": 0.0,
			"0.021": 0.0,
			"0.022": 0.0,
			"0.023": 0.0,
			"0.024": 0.0,
			"0.025": 0.0
		}
	}
}
