{
	 "smiles": "OC1CNCC1N1CCCC1", 
	 "Tm": 356.15, 
	 "num_atms": 27, 
	 "gaussian": { 
		 "optdone": 1, 
		 "sigma_profile": "yes", 
		 "theory": "DFT", 
		 "functional": "B3LYP", 
		 "basiset": "6-31G**", 
		 "properties": { 
			 "R2extent": 2383.0975, 
			 "electric_dipole_moment_norm": 1.91588331847, 
			 "electric_quadrupole_moment_norm": 9.19827335971, 
			 "total_energy": -499.188066901, 
			 "HOMO_LUMO_gap": 0.25906, 
			 "cosmo_polarized_energy": -7.46, 
			 "cosmo_cavitation_energy": 26.24, 
			 "cosmo_dispersion_energy": -19.94, 
			 "cosmo_repulsion_energy": 1.61, 
			 "cosmo_total_nonelectrostatic_energy": 7.91, 
			 "SMD_solvation_energy": 0.01 
		},
		"coords": [
			{
				"x": 0.0635418626,
				"y": -2.7855193422,
				"z": 1.3306040499,
				"element": "O" 
			},
			{
				"x": 0.6968244373,
				"y": -2.4807518031,
				"z": 0.0959231483,
				"element": "C" 
			},
			{
				"x": 2.2084573212,
				"y": -2.3392699016,
				"z": 0.3003970816,
				"element": "C" 
			},
			{
				"x": 2.240026447,
				"y": -1.053247526,
				"z": 1.0120534454,
				"element": "N" 
			},
			{
				"x": 1.3847571562,
				"y": -0.1285897704,
				"z": 0.2438513356,
				"element": "C" 
			},
			{
				"x": 0.3496399694,
				"y": -1.0583843521,
				"z": -0.462989187,
				"element": "C" 
			},
			{
				"x": -1.012561445,
				"y": -0.5657805324,
				"z": -0.4223244979,
				"element": "N" 
			},
			{
				"x": -1.9625325851,
				"y": -1.2569404826,
				"z": -1.2946114496,
				"element": "C" 
			},
			{
				"x": -3.3306425768,
				"y": -0.6158583618,
				"z": -0.9530361216,
				"element": "C" 
			},
			{
				"x": -3.0835529978,
				"y": 0.1522295755,
				"z": 0.3742203337,
				"element": "C" 
			},
			{
				"x": -1.7164928935,
				"y": -0.3630827674,
				"z": 0.8496878304,
				"element": "C" 
			},
			{
				"x": 0.493276696,
				"y": -2.2067405866,
				"z": 1.981069934,
				"element": "H" 
			},
			{
				"x": 0.4243423427,
				"y": -3.2781596211,
				"z": -0.6006559905,
				"element": "H" 
			},
			{
				"x": 2.617816733,
				"y": -3.1437243975,
				"z": 0.9190463884,
				"element": "H" 
			},
			{
				"x": 2.7404249914,
				"y": -2.3349136498,
				"z": -0.6685069065,
				"element": "H" 
			},
			{
				"x": 3.1782960376,
				"y": -0.6964965496,
				"z": 1.1582608157,
				"element": "H" 
			},
			{
				"x": 0.9015512107,
				"y": 0.5904896569,
				"z": 0.9118712956,
				"element": "H" 
			},
			{
				"x": 1.9402433329,
				"y": 0.4504696119,
				"z": -0.5096884129,
				"element": "H" 
			},
			{
				"x": 0.6148947349,
				"y": -1.0961224455,
				"z": -1.5290337572,
				"element": "H" 
			},
			{
				"x": -1.674724744,
				"y": -1.1251234153,
				"z": -2.3452129897,
				"element": "H" 
			},
			{
				"x": -1.9988262526,
				"y": -2.3440748938,
				"z": -1.0984609655,
				"element": "H" 
			},
			{
				"x": -4.0997292974,
				"y": -1.3853790241,
				"z": -0.8397208861,
				"element": "H" 
			},
			{
				"x": -3.6651449689,
				"y": 0.0610519155,
				"z": -1.7440466124,
				"element": "H" 
			},
			{
				"x": -3.869478677,
				"y": -0.0181312093,
				"z": 1.1157566283,
				"element": "H" 
			},
			{
				"x": -3.0298923153,
				"y": 1.2284070314,
				"z": 0.184445546,
				"element": "H" 
			},
			{
				"x": -1.830601688,
				"y": -1.2942625183,
				"z": 1.4230644743,
				"element": "H" 
			},
			{
				"x": -1.1896128316,
				"y": 0.3610053592,
				"z": 1.4802354697,
				"element": "H" 
			}
		],
		 "valence_orbital": [ 
			{
				"type": "occ",
				"energy": -0.31689,
				"method": "rhf"
			},
			{
				"type": "occ",
				"energy": -0.3113,
				"method": "rhf"
			},
			{
				"type": "occ",
				"energy": -0.268,
				"method": "rhf"
			},
			{
				"type": "occ",
				"energy": -0.22699,
				"method": "rhf"
			},
			{
				"type": "occ",
				"energy": -0.18961,
				"method": "rhf"
			},
			{
				"type": "unocc",
				"energy": 0.06945,
				"method": "rhf"
			},
			{
				"type": "unocc",
				"energy": 0.09529,
				"method": "rhf"
			},
			{
				"type": "unocc",
				"energy": 0.10361,
				"method": "rhf"
			},
			{
				"type": "unocc",
				"energy": 0.11419,
				"method": "rhf"
			},
			{
				"type": "unocc",
				"energy": 0.12618,
				"method": "rhf"
			}
		],
		"cosmo_sigma_profile": { 
			"-0.025": 0.0,
			"-0.024": 0.0,
			"-0.023": 0.0,
			"-0.022": 0.0,
			"-0.021": 0.0,
			"-0.02": 0.0,
			"-0.019": 0.0,
			"-0.018": 0.0,
			"-0.017": 0.0,
			"-0.016": 0.0,
			"-0.015": 0.0,
			"-0.014": 0.0,
			"-0.013": 0.0,
			"-0.012": 0.0,
			"-0.011": 0.390899228783,
			"-0.01": 1.61037188117,
			"-0.009": 2.05212819524,
			"-0.008": 1.55792702613,
			"-0.007": 1.23142527197,
			"-0.006": 2.12438988398,
			"-0.005": 1.64984891571,
			"-0.004": 9.41427726842,
			"-0.003": 28.2510521783,
			"-0.002": 32.8300921766,
			"-0.001": 31.8269321775,
			"0.0": 29.7593751492,
			"0.001": 19.6806161538,
			"0.002": 6.74659469745,
			"0.003": 3.52976295986,
			"0.004": 3.29045189642,
			"0.005": 3.33314110961,
			"0.006": 2.25305467304,
			"0.007": 3.25992689776,
			"0.008": 2.49490153023,
			"0.009": 2.61438183002,
			"0.01": 1.8049341111,
			"0.011": 2.42343107638,
			"0.012": 2.0425137919,
			"0.013": 1.92058507168,
			"0.014": 1.92118425014,
			"0.015": 1.6262189046,
			"0.016": 0.122938171906,
			"0.017": 0.0,
			"0.018": 0.0,
			"0.019": 0.0,
			"0.02": 0.0,
			"0.021": 0.0,
			"0.022": 0.0,
			"0.023": 0.0,
			"0.024": 0.0,
			"0.025": 0.0
		}
	}
}
