{
	 "smiles": "CN1N=CN=C1COC1=CC=C(C=C1)S(N)(=O)=O", 
	 "Tm": 450.15, 
	 "num_atms": 30, 
	 "gaussian": { 
		 "optdone": 1, 
		 "sigma_profile": "yes", 
		 "theory": "DFT", 
		 "functional": "B3LYP", 
		 "basiset": "6-31G**", 
		 "properties": { 
			 "R2extent": 8984.2058, 
			 "electric_dipole_moment_norm": 5.00674070829, 
			 "electric_quadrupole_moment_norm": 26.8125629646, 
			 "total_energy": -1231.06780758, 
			 "HOMO_LUMO_gap": 0.21466, 
			 "cosmo_polarized_energy": -23.72, 
			 "cosmo_cavitation_energy": 36.51, 
			 "cosmo_dispersion_energy": -26.84, 
			 "cosmo_repulsion_energy": 2.02, 
			 "cosmo_total_nonelectrostatic_energy": 11.69, 
			 "SMD_solvation_energy": 3.68 
		},
		"coords": [
			{
				"x": 1.0748935702,
				"y": 2.0624560095,
				"z": -2.4938939846,
				"element": "C" 
			},
			{
				"x": -0.329274673,
				"y": 1.8182233816,
				"z": -2.7812435955,
				"element": "N" 
			},
			{
				"x": -0.987395064,
				"y": 2.6011882338,
				"z": -3.6723613801,
				"element": "N" 
			},
			{
				"x": -2.1981265252,
				"y": 2.0610575916,
				"z": -3.6880754733,
				"element": "C" 
			},
			{
				"x": -2.3648955635,
				"y": 0.9915253157,
				"z": -2.8653223112,
				"element": "N" 
			},
			{
				"x": -1.1678736748,
				"y": 0.8617682149,
				"z": -2.3086629572,
				"element": "C" 
			},
			{
				"x": -0.8020935726,
				"y": -0.2140288643,
				"z": -1.3386587253,
				"element": "C" 
			},
			{
				"x": -0.3082094419,
				"y": 0.391128791,
				"z": -0.1383865433,
				"element": "O" 
			},
			{
				"x": 0.0514278034,
				"y": -0.4208429629,
				"z": 0.8971373547,
				"element": "C" 
			},
			{
				"x": -0.0418472342,
				"y": -1.8178193608,
				"z": 0.8794660035,
				"element": "C" 
			},
			{
				"x": 0.3603109067,
				"y": -2.5473805992,
				"z": 2.0003188167,
				"element": "C" 
			},
			{
				"x": 0.8504665629,
				"y": -1.8839536185,
				"z": 3.1213107494,
				"element": "C" 
			},
			{
				"x": 0.932147132,
				"y": -0.4859534812,
				"z": 3.1488847178,
				"element": "C" 
			},
			{
				"x": 0.5356084053,
				"y": 0.2417577299,
				"z": 2.038427983,
				"element": "C" 
			},
			{
				"x": 1.3556010077,
				"y": -2.8256019928,
				"z": 4.5516787083,
				"element": "S" 
			},
			{
				"x": 3.0503699526,
				"y": -2.8371249421,
				"z": 4.4339554284,
				"element": "N" 
			},
			{
				"x": 1.0534714512,
				"y": -2.0400936975,
				"z": 5.7518026128,
				"element": "O" 
			},
			{
				"x": 0.8659077082,
				"y": -4.1968647714,
				"z": 4.3719230065,
				"element": "O" 
			},
			{
				"x": 1.70457176,
				"y": 1.6842022363,
				"z": -3.3048109506,
				"element": "H" 
			},
			{
				"x": 1.3349343526,
				"y": 1.5722933513,
				"z": -1.5563943776,
				"element": "H" 
			},
			{
				"x": 1.2280415268,
				"y": 3.138216758,
				"z": -2.3973946693,
				"element": "H" 
			},
			{
				"x": -2.9879899675,
				"y": 2.4595346163,
				"z": -4.3096417295,
				"element": "H" 
			},
			{
				"x": -1.7075107177,
				"y": -0.7972770345,
				"z": -1.1438803237,
				"element": "H" 
			},
			{
				"x": -0.0358855877,
				"y": -0.8837775131,
				"z": -1.7549821312,
				"element": "H" 
			},
			{
				"x": -0.4295306025,
				"y": -2.345625834,
				"z": 0.0169491748,
				"element": "H" 
			},
			{
				"x": 0.2794296193,
				"y": -3.6286760107,
				"z": 2.0101835254,
				"element": "H" 
			},
			{
				"x": 1.2893096406,
				"y": 0.0194269285,
				"z": 4.0394625604,
				"element": "H" 
			},
			{
				"x": 0.5795997167,
				"y": 1.3255573873,
				"z": 2.0301480318,
				"element": "H" 
			},
			{
				"x": 3.4315476202,
				"y": -2.6084298503,
				"z": 5.3490036057,
				"element": "H" 
			},
			{
				"x": 3.3676938884,
				"y": -3.7535860123,
				"z": 4.1274568732,
				"element": "H" 
			}
		],
		 "valence_orbital": [ 
			{
				"type": "occ",
				"energy": -0.29389,
				"method": "rhf"
			},
			{
				"type": "occ",
				"energy": -0.28101,
				"method": "rhf"
			},
			{
				"type": "occ",
				"energy": -0.27753,
				"method": "rhf"
			},
			{
				"type": "occ",
				"energy": -0.26786,
				"method": "rhf"
			},
			{
				"type": "occ",
				"energy": -0.24802,
				"method": "rhf"
			},
			{
				"type": "unocc",
				"energy": -0.03336,
				"method": "rhf"
			},
			{
				"type": "unocc",
				"energy": -0.02707,
				"method": "rhf"
			},
			{
				"type": "unocc",
				"energy": -0.0113,
				"method": "rhf"
			},
			{
				"type": "unocc",
				"energy": 0.0448,
				"method": "rhf"
			},
			{
				"type": "unocc",
				"energy": 0.0523,
				"method": "rhf"
			}
		],
		"cosmo_sigma_profile": { 
			"-0.025": 0.0,
			"-0.024": 0.0,
			"-0.023": 0.0,
			"-0.022": 0.0,
			"-0.021": 0.0,
			"-0.02": 0.0,
			"-0.019": 0.0,
			"-0.018": 0.0,
			"-0.017": 0.0,
			"-0.016": 0.0,
			"-0.015": 0.768395395963,
			"-0.014": 2.73031769834,
			"-0.013": 2.16897616867,
			"-0.012": 2.73960069154,
			"-0.011": 2.27039631235,
			"-0.01": 1.82859121331,
			"-0.009": 3.50115573706,
			"-0.008": 12.6399674541,
			"-0.007": 17.0450755248,
			"-0.006": 19.8326529716,
			"-0.005": 18.1338580112,
			"-0.004": 17.9458287508,
			"-0.003": 15.7207942287,
			"-0.002": 12.1488419035,
			"-0.001": 12.849908551,
			"0.0": 15.7686708592,
			"0.001": 18.6270724508,
			"0.002": 22.6007140779,
			"0.003": 16.5436007214,
			"0.004": 8.05349512574,
			"0.005": 7.17237399759,
			"0.006": 7.02064598812,
			"0.007": 6.44456294662,
			"0.008": 6.74146300041,
			"0.009": 6.10315516962,
			"0.01": 9.69665003961,
			"0.011": 11.5748428168,
			"0.012": 7.00172472517,
			"0.013": 2.16362950613,
			"0.014": 1.70327335768,
			"0.015": 1.19735436433,
			"0.016": 0.854244726649,
			"0.017": 0.0646558962281,
			"0.018": 0.0,
			"0.019": 0.0,
			"0.02": 0.0,
			"0.021": 0.0,
			"0.022": 0.0,
			"0.023": 0.0,
			"0.024": 0.0,
			"0.025": 0.0
		}
	}
}
