{
	 "smiles": "CCNC1=NC(=O)C(O1)C1=CC=CC=C1", 
	 "Tm": 421.15, 
	 "num_atms": 27, 
	 "gaussian": { 
		 "optdone": 1, 
		 "sigma_profile": "yes", 
		 "theory": "DFT", 
		 "functional": "B3LYP", 
		 "basiset": "6-31G**", 
		 "properties": { 
			 "R2extent": 4469.3733, 
			 "electric_dipole_moment_norm": 5.4193722487, 
			 "electric_quadrupole_moment_norm": 19.5062420048, 
			 "total_energy": -686.369755129, 
			 "HOMO_LUMO_gap": 0.21745, 
			 "cosmo_polarized_energy": -17.45, 
			 "cosmo_cavitation_energy": 31.2, 
			 "cosmo_dispersion_energy": -22.49, 
			 "cosmo_repulsion_energy": 1.79, 
			 "cosmo_total_nonelectrostatic_energy": 10.5, 
			 "SMD_solvation_energy": 4.22 
		},
		"coords": [
			{
				"x": 3.012694513,
				"y": -2.3366325127,
				"z": -0.962354422,
				"element": "C" 
			},
			{
				"x": 2.3522888178,
				"y": -2.0651180821,
				"z": -2.3153460964,
				"element": "C" 
			},
			{
				"x": 1.4731107682,
				"y": -0.8955335653,
				"z": -2.302344882,
				"element": "N" 
			},
			{
				"x": 0.1708361393,
				"y": -0.9722830663,
				"z": -2.0036797503,
				"element": "C" 
			},
			{
				"x": -0.5093656212,
				"y": -2.0681536808,
				"z": -1.7943560511,
				"element": "N" 
			},
			{
				"x": -1.8148650358,
				"y": -1.658604032,
				"z": -1.5541941726,
				"element": "C" 
			},
			{
				"x": -2.7846506182,
				"y": -2.3536714459,
				"z": -1.3376744977,
				"element": "O" 
			},
			{
				"x": -1.8477690419,
				"y": -0.1014855706,
				"z": -1.6262005238,
				"element": "C" 
			},
			{
				"x": -0.4746190429,
				"y": 0.22120384,
				"z": -1.9453073958,
				"element": "O" 
			},
			{
				"x": -2.3179175574,
				"y": 0.5810861046,
				"z": -0.3609980661,
				"element": "C" 
			},
			{
				"x": -1.5183925229,
				"y": 1.5053650589,
				"z": 0.3185400787,
				"element": "C" 
			},
			{
				"x": -1.9925936407,
				"y": 2.1257251899,
				"z": 1.4764562107,
				"element": "C" 
			},
			{
				"x": -3.2658499868,
				"y": 1.8290117293,
				"z": 1.9625403612,
				"element": "C" 
			},
			{
				"x": -4.0649654054,
				"y": 0.9044993083,
				"z": 1.2854835204,
				"element": "C" 
			},
			{
				"x": -3.5974793559,
				"y": 0.2829787057,
				"z": 0.1286170646,
				"element": "C" 
			},
			{
				"x": 3.6222206446,
				"y": -1.4871571934,
				"z": -0.636269674,
				"element": "H" 
			},
			{
				"x": 3.6642633027,
				"y": -3.2136457916,
				"z": -1.0310997676,
				"element": "H" 
			},
			{
				"x": 2.2533839383,
				"y": -2.5329018076,
				"z": -0.2005137004,
				"element": "H" 
			},
			{
				"x": 1.7385392489,
				"y": -2.9161415913,
				"z": -2.6170887555,
				"element": "H" 
			},
			{
				"x": 3.1058789432,
				"y": -1.9014218495,
				"z": -3.0925331947,
				"element": "H" 
			},
			{
				"x": 1.8689027059,
				"y": 0.032118369,
				"z": -2.3538433075,
				"element": "H" 
			},
			{
				"x": -2.4614140593,
				"y": 0.1993784428,
				"z": -2.4834550497,
				"element": "H" 
			},
			{
				"x": -0.529794244,
				"y": 1.7396581823,
				"z": -0.0603855755,
				"element": "H" 
			},
			{
				"x": -1.3637062923,
				"y": 2.8427843515,
				"z": 1.9967601179,
				"element": "H" 
			},
			{
				"x": -3.6337042965,
				"y": 2.3132380515,
				"z": 2.8625802117,
				"element": "H" 
			},
			{
				"x": -5.0553337958,
				"y": 0.6627447761,
				"z": 1.6605405248,
				"element": "H" 
			},
			{
				"x": -4.205398505,
				"y": -0.4548419208,
				"z": -0.3843732074,
				"element": "H" 
			}
		],
		 "valence_orbital": [ 
			{
				"type": "occ",
				"energy": -0.29473,
				"method": "rhf"
			},
			{
				"type": "occ",
				"energy": -0.25814,
				"method": "rhf"
			},
			{
				"type": "occ",
				"energy": -0.25362,
				"method": "rhf"
			},
			{
				"type": "occ",
				"energy": -0.24765,
				"method": "rhf"
			},
			{
				"type": "occ",
				"energy": -0.23236,
				"method": "rhf"
			},
			{
				"type": "unocc",
				"energy": -0.01491,
				"method": "rhf"
			},
			{
				"type": "unocc",
				"energy": 9e-05,
				"method": "rhf"
			},
			{
				"type": "unocc",
				"energy": 0.00111,
				"method": "rhf"
			},
			{
				"type": "unocc",
				"energy": 0.06318,
				"method": "rhf"
			},
			{
				"type": "unocc",
				"energy": 0.07535,
				"method": "rhf"
			}
		],
		"cosmo_sigma_profile": { 
			"-0.025": 0.0,
			"-0.024": 0.0,
			"-0.023": 0.0,
			"-0.022": 0.0,
			"-0.021": 0.0,
			"-0.02": 0.0,
			"-0.019": 0.0,
			"-0.018": 0.0,
			"-0.017": 0.0,
			"-0.016": 0.671323696751,
			"-0.015": 1.2007171023,
			"-0.014": 1.43417101639,
			"-0.013": 1.03602882402,
			"-0.012": 0.394180910252,
			"-0.011": 0.944093748412,
			"-0.01": 1.49896700228,
			"-0.009": 2.14314654471,
			"-0.008": 4.24454197283,
			"-0.007": 3.9797057373,
			"-0.006": 9.28650336736,
			"-0.005": 15.8343774184,
			"-0.004": 22.0238528081,
			"-0.003": 25.1258334385,
			"-0.002": 21.4192366711,
			"-0.001": 20.1263614353,
			"0.0": 19.806364657,
			"0.001": 14.3812901388,
			"0.002": 11.601180403,
			"0.003": 9.50073796876,
			"0.004": 12.8592766606,
			"0.005": 13.4699373694,
			"0.006": 6.71036285925,
			"0.007": 3.68033720964,
			"0.008": 2.25932639875,
			"0.009": 1.8453353027,
			"0.01": 3.07778127397,
			"0.011": 3.42020302636,
			"0.012": 5.60491065505,
			"0.013": 4.98872961638,
			"0.014": 2.85942594649,
			"0.015": 0.648030975878,
			"0.016": 0.0,
			"0.017": 0.0,
			"0.018": 0.0,
			"0.019": 0.0,
			"0.02": 0.0,
			"0.021": 0.0,
			"0.022": 0.0,
			"0.023": 0.0,
			"0.024": 0.0,
			"0.025": 0.0
		}
	}
}
