{
	 "smiles": "OC(=O)CCCCCCC(O)=O", 
	 "Tm": 417.15, 
	 "num_atms": 26, 
	 "gaussian": { 
		 "optdone": 1, 
		 "sigma_profile": "yes", 
		 "theory": "DFT", 
		 "functional": "B3LYP", 
		 "basiset": "6-31G**", 
		 "properties": { 
			 "R2extent": 3531.6102, 
			 "electric_dipole_moment_norm": 4.77534307563, 
			 "electric_quadrupole_moment_norm": 27.9068993054, 
			 "total_energy": -614.210606814, 
			 "HOMO_LUMO_gap": 0.27258, 
			 "cosmo_polarized_energy": -24.31, 
			 "cosmo_cavitation_energy": 28.88, 
			 "cosmo_dispersion_energy": -20.33, 
			 "cosmo_repulsion_energy": 1.66, 
			 "cosmo_total_nonelectrostatic_energy": 10.22, 
			 "SMD_solvation_energy": 6.44 
		},
		"coords": [
			{
				"x": -1.3934287658,
				"y": 2.3766892182,
				"z": -1.6788524615,
				"element": "O" 
			},
			{
				"x": -0.3161429312,
				"y": 1.8510446811,
				"z": -1.0348735323,
				"element": "C" 
			},
			{
				"x": 0.0339788422,
				"y": 2.3166241184,
				"z": 0.0222666956,
				"element": "O" 
			},
			{
				"x": 0.3789583864,
				"y": 0.6912261223,
				"z": -1.7361808135,
				"element": "C" 
			},
			{
				"x": -0.5374639639,
				"y": -0.4971327974,
				"z": -2.0913941385,
				"element": "C" 
			},
			{
				"x": -1.2515876444,
				"y": -1.172596401,
				"z": -0.9069255791,
				"element": "C" 
			},
			{
				"x": -0.3185829448,
				"y": -1.799572671,
				"z": 0.1567044258,
				"element": "C" 
			},
			{
				"x": -0.1317511589,
				"y": -0.9355602321,
				"z": 1.4151014563,
				"element": "C" 
			},
			{
				"x": 0.8419395637,
				"y": -1.5376616967,
				"z": 2.4330661809,
				"element": "C" 
			},
			{
				"x": 0.3215693929,
				"y": -2.7957575968,
				"z": 3.1202283248,
				"element": "C" 
			},
			{
				"x": 1.2102137015,
				"y": -3.4129238559,
				"z": 3.9480934779,
				"element": "O" 
			},
			{
				"x": -0.7889391618,
				"y": -3.2481380009,
				"z": 2.9920003604,
				"element": "O" 
			},
			{
				"x": -1.5511409697,
				"y": 1.9046884941,
				"z": -2.5089059869,
				"element": "H" 
			},
			{
				"x": 0.8372720885,
				"y": 1.0800225021,
				"z": -2.6560791648,
				"element": "H" 
			},
			{
				"x": 1.1955082015,
				"y": 0.3744535798,
				"z": -1.0847247979,
				"element": "H" 
			},
			{
				"x": -1.2925231237,
				"y": -0.1796692033,
				"z": -2.8260308767,
				"element": "H" 
			},
			{
				"x": 0.0750385082,
				"y": -1.2421294788,
				"z": -2.6141034581,
				"element": "H" 
			},
			{
				"x": -1.9279669833,
				"y": -0.45307324,
				"z": -0.4264640422,
				"element": "H" 
			},
			{
				"x": -1.8989278022,
				"y": -1.9520678888,
				"z": -1.3246648701,
				"element": "H" 
			},
			{
				"x": -0.7265547683,
				"y": -2.7646907846,
				"z": 0.4700409309,
				"element": "H" 
			},
			{
				"x": 0.6619075977,
				"y": -2.0130791876,
				"z": -0.2950013927,
				"element": "H" 
			},
			{
				"x": -1.1050665452,
				"y": -0.8085232053,
				"z": 1.9023327857,
				"element": "H" 
			},
			{
				"x": 0.218885583,
				"y": 0.0671623397,
				"z": 1.1512109411,
				"element": "H" 
			},
			{
				"x": 1.80633653,
				"y": -1.7718465188,
				"z": 1.9587836929,
				"element": "H" 
			},
			{
				"x": 1.0640642136,
				"y": -0.8049004364,
				"z": 3.2216295877,
				"element": "H" 
			},
			{
				"x": 2.049204154,
				"y": -2.9304878605,
				"z": 3.9540422544,
				"element": "H" 
			}
		],
		 "valence_orbital": [ 
			{
				"type": "occ",
				"energy": -0.32603,
				"method": "rhf"
			},
			{
				"type": "occ",
				"energy": -0.31691,
				"method": "rhf"
			},
			{
				"type": "occ",
				"energy": -0.31171,
				"method": "rhf"
			},
			{
				"type": "occ",
				"energy": -0.27193,
				"method": "rhf"
			},
			{
				"type": "occ",
				"energy": -0.26908,
				"method": "rhf"
			},
			{
				"type": "unocc",
				"energy": 0.0035,
				"method": "rhf"
			},
			{
				"type": "unocc",
				"energy": 0.0112,
				"method": "rhf"
			},
			{
				"type": "unocc",
				"energy": 0.03927,
				"method": "rhf"
			},
			{
				"type": "unocc",
				"energy": 0.05577,
				"method": "rhf"
			},
			{
				"type": "unocc",
				"energy": 0.08847,
				"method": "rhf"
			}
		],
		"cosmo_sigma_profile": { 
			"-0.025": 0.0,
			"-0.024": 0.0,
			"-0.023": 0.0,
			"-0.022": 0.0,
			"-0.021": 0.0,
			"-0.02": 0.0,
			"-0.019": 0.47798717371,
			"-0.018": 1.40321554316,
			"-0.017": 2.12329080629,
			"-0.016": 1.28520867422,
			"-0.015": 2.85731490816,
			"-0.014": 1.91448814283,
			"-0.013": 2.10734970419,
			"-0.012": 2.13878966218,
			"-0.011": 2.92322170843,
			"-0.01": 2.21678307373,
			"-0.009": 1.88310882081,
			"-0.008": 3.6017772946,
			"-0.007": 6.16594501769,
			"-0.006": 7.2364725715,
			"-0.005": 8.71597625537,
			"-0.004": 11.9919467296,
			"-0.003": 23.2293103767,
			"-0.002": 25.1240359814,
			"-0.001": 19.0553089391,
			"0.0": 13.9856339704,
			"0.001": 9.61927336036,
			"0.002": 4.9717307043,
			"0.003": 3.94949137759,
			"0.004": 5.00203964888,
			"0.005": 4.91172857552,
			"0.006": 3.97853061846,
			"0.007": 6.07667790282,
			"0.008": 5.46544691756,
			"0.009": 6.12795913866,
			"0.01": 7.92436578805,
			"0.011": 10.8648643749,
			"0.012": 10.2078683961,
			"0.013": 4.64362613885,
			"0.014": 0.352706133917,
			"0.015": 0.0,
			"0.016": 0.0,
			"0.017": 0.0,
			"0.018": 0.0,
			"0.019": 0.0,
			"0.02": 0.0,
			"0.021": 0.0,
			"0.022": 0.0,
			"0.023": 0.0,
			"0.024": 0.0,
			"0.025": 0.0
		}
	}
}
