{
	 "smiles": "NC1=NC(Cl)=NC2=C1N=CN2[C@H]1C[C@H](O)[C@@H](CO)O1", 
	 "Tm": 488.15, 
	 "num_atms": 31, 
	 "gaussian": { 
		 "optdone": 1, 
		 "sigma_profile": "yes", 
		 "theory": "DFT", 
		 "functional": "B3LYP", 
		 "basiset": "6-31G**", 
		 "properties": { 
			 "R2extent": 7351.2277, 
			 "electric_dipole_moment_norm": 6.56370008151, 
			 "electric_quadrupole_moment_norm": 15.7699261637, 
			 "total_energy": -1347.9108425, 
			 "HOMO_LUMO_gap": 0.19766, 
			 "cosmo_polarized_energy": -24.26, 
			 "cosmo_cavitation_energy": 37.19, 
			 "cosmo_dispersion_energy": -26.92, 
			 "cosmo_repulsion_energy": 2.11, 
			 "cosmo_total_nonelectrostatic_energy": 12.38, 
			 "SMD_solvation_energy": 1.13 
		},
		"coords": [
			{
				"x": -0.9347835695,
				"y": 0.5564626992,
				"z": 4.7636743211,
				"element": "N" 
			},
			{
				"x": -1.1096052912,
				"y": 0.351628744,
				"z": 3.4388735776,
				"element": "C" 
			},
			{
				"x": -2.3201313206,
				"y": 0.5987870834,
				"z": 2.902363693,
				"element": "N" 
			},
			{
				"x": -2.4695800798,
				"y": 0.411102237,
				"z": 1.5921987122,
				"element": "C" 
			},
			{
				"x": -4.0831416966,
				"y": 0.7579830059,
				"z": 0.9779227696,
				"element": "Cl" 
			},
			{
				"x": -1.5947865591,
				"y": 0.0051603291,
				"z": 0.6824125171,
				"element": "N" 
			},
			{
				"x": -0.4032808605,
				"y": -0.2401120879,
				"z": 1.2465775444,
				"element": "C" 
			},
			{
				"x": -0.0700360476,
				"y": -0.0953509871,
				"z": 2.5962664266,
				"element": "C" 
			},
			{
				"x": 1.2488635171,
				"y": -0.441796848,
				"z": 2.8274468406,
				"element": "N" 
			},
			{
				"x": 1.6980752708,
				"y": -0.7796013343,
				"z": 1.6425658812,
				"element": "C" 
			},
			{
				"x": 0.7522229719,
				"y": -0.6781641008,
				"z": 0.6349452751,
				"element": "N" 
			},
			{
				"x": 0.9192681903,
				"y": -0.9702694209,
				"z": -0.7777533884,
				"element": "C" 
			},
			{
				"x": 1.7479502147,
				"y": 0.0554218554,
				"z": -1.5621204284,
				"element": "C" 
			},
			{
				"x": 2.2571934714,
				"y": -0.7825341882,
				"z": -2.7331835793,
				"element": "C" 
			},
			{
				"x": 1.2337034808,
				"y": -0.7795402184,
				"z": -3.7201187329,
				"element": "O" 
			},
			{
				"x": 2.4383445634,
				"y": -2.1780310101,
				"z": -2.0875459293,
				"element": "C" 
			},
			{
				"x": 3.8798459742,
				"y": -2.5010752466,
				"z": -1.7088605829,
				"element": "C" 
			},
			{
				"x": 4.5996801854,
				"y": -2.6449379316,
				"z": -2.9247399736,
				"element": "O" 
			},
			{
				"x": 1.6406530226,
				"y": -2.1937279206,
				"z": -0.8938563481,
				"element": "O" 
			},
			{
				"x": -1.7387268071,
				"y": 0.7800516101,
				"z": 5.327921233,
				"element": "H" 
			},
			{
				"x": -0.0722968919,
				"y": 0.2749788907,
				"z": 5.2001974897,
				"element": "H" 
			},
			{
				"x": 2.6950422977,
				"y": -1.1386109652,
				"z": 1.4319441255,
				"element": "H" 
			},
			{
				"x": -0.0901872257,
				"y": -1.0619636579,
				"z": -1.1931642116,
				"element": "H" 
			},
			{
				"x": 1.161776919,
				"y": 0.9125845297,
				"z": -1.8975872033,
				"element": "H" 
			},
			{
				"x": 2.5795652181,
				"y": 0.4102039153,
				"z": -0.9449512962,
				"element": "H" 
			},
			{
				"x": 3.2066782034,
				"y": -0.4163759974,
				"z": -3.1437624944,
				"element": "H" 
			},
			{
				"x": 1.5141855402,
				"y": -1.3519907743,
				"z": -4.4462789515,
				"element": "H" 
			},
			{
				"x": 2.0763786542,
				"y": -2.953962708,
				"z": -2.7749416707,
				"element": "H" 
			},
			{
				"x": 3.8888208682,
				"y": -3.4210415471,
				"z": -1.1068997443,
				"element": "H" 
			},
			{
				"x": 4.2878159431,
				"y": -1.6892410103,
				"z": -1.0842150552,
				"element": "H" 
			},
			{
				"x": 5.5135918431,
				"y": -2.8717369451,
				"z": -2.7158308164,
				"element": "H" 
			}
		],
		 "valence_orbital": [ 
			{
				"type": "occ",
				"energy": -0.27955,
				"method": "rhf"
			},
			{
				"type": "occ",
				"energy": -0.27283,
				"method": "rhf"
			},
			{
				"type": "occ",
				"energy": -0.26135,
				"method": "rhf"
			},
			{
				"type": "occ",
				"energy": -0.25496,
				"method": "rhf"
			},
			{
				"type": "occ",
				"energy": -0.2219,
				"method": "rhf"
			},
			{
				"type": "unocc",
				"energy": -0.02424,
				"method": "rhf"
			},
			{
				"type": "unocc",
				"energy": 0.00074,
				"method": "rhf"
			},
			{
				"type": "unocc",
				"energy": 0.0315,
				"method": "rhf"
			},
			{
				"type": "unocc",
				"energy": 0.05134,
				"method": "rhf"
			},
			{
				"type": "unocc",
				"energy": 0.05217,
				"method": "rhf"
			}
		],
		"cosmo_sigma_profile": { 
			"-0.025": 0.0,
			"-0.024": 0.0,
			"-0.023": 0.0,
			"-0.022": 0.0,
			"-0.021": 0.0,
			"-0.02": 0.0,
			"-0.019": 0.0,
			"-0.018": 0.0,
			"-0.017": 0.0549754274666,
			"-0.016": 1.69195012938,
			"-0.015": 2.58930085273,
			"-0.014": 3.88836321038,
			"-0.013": 3.96458577534,
			"-0.012": 3.2102385377,
			"-0.011": 4.73485744318,
			"-0.01": 3.54123024319,
			"-0.009": 4.41917930568,
			"-0.008": 4.93408986293,
			"-0.007": 7.6226301586,
			"-0.006": 10.6712550031,
			"-0.005": 13.6274230927,
			"-0.004": 20.2289931244,
			"-0.003": 18.4530397153,
			"-0.002": 22.0851452793,
			"-0.001": 19.1666306281,
			"0.0": 17.1829637435,
			"0.001": 16.6425931335,
			"0.002": 14.3876243979,
			"0.003": 14.4343674742,
			"0.004": 16.1946502571,
			"0.005": 14.3902208544,
			"0.006": 11.1158047003,
			"0.007": 8.10421411027,
			"0.008": 6.98489924641,
			"0.009": 6.39835728264,
			"0.01": 5.99593232711,
			"0.011": 6.91343884681,
			"0.012": 5.87717393194,
			"0.013": 4.5674329879,
			"0.014": 1.5025627297,
			"0.015": 0.664326337666,
			"0.016": 0.0142708660985,
			"0.017": 0.0,
			"0.018": 0.0,
			"0.019": 0.0,
			"0.02": 0.0,
			"0.021": 0.0,
			"0.022": 0.0,
			"0.023": 0.0,
			"0.024": 0.0,
			"0.025": 0.0
		}
	}
}
