{
	 "smiles": "CCOC(OCC)OCC", 
	 "Tm": 212.15, 
	 "num_atms": 26, 
	 "gaussian": { 
		 "optdone": 1, 
		 "sigma_profile": "yes", 
		 "theory": "DFT", 
		 "functional": "B3LYP", 
		 "basiset": "6-31G**", 
		 "properties": { 
			 "R2extent": 2174.2686, 
			 "electric_dipole_moment_norm": 1.25949052001, 
			 "electric_quadrupole_moment_norm": 4.90815058551, 
			 "total_energy": -502.051299995, 
			 "HOMO_LUMO_gap": 0.34665, 
			 "cosmo_polarized_energy": -6.76, 
			 "cosmo_cavitation_energy": 28.24, 
			 "cosmo_dispersion_energy": -19.87, 
			 "cosmo_repulsion_energy": 1.7, 
			 "cosmo_total_nonelectrostatic_energy": 10.07, 
			 "SMD_solvation_energy": 5.56 
		},
		"coords": [
			{
				"x": 0.3116379784,
				"y": -0.8915215014,
				"z": -3.6077914483,
				"element": "C" 
			},
			{
				"x": 0.1389558053,
				"y": 0.0226379365,
				"z": -2.4071069141,
				"element": "C" 
			},
			{
				"x": 0.1398734856,
				"y": -0.8067006743,
				"z": -1.2315940042,
				"element": "O" 
			},
			{
				"x": 0.2243149611,
				"y": -0.1324658798,
				"z": -0.0227451997,
				"element": "C" 
			},
			{
				"x": 1.4478954556,
				"y": 0.5509794889,
				"z": 0.1424174101,
				"element": "O" 
			},
			{
				"x": 2.5720872731,
				"y": -0.3085982281,
				"z": 0.3259148955,
				"element": "C" 
			},
			{
				"x": 3.8006102441,
				"y": 0.5580337009,
				"z": 0.5444339161,
				"element": "C" 
			},
			{
				"x": -0.7961434552,
				"y": 0.8100436894,
				"z": 0.0477959777,
				"element": "O" 
			},
			{
				"x": -0.9415108786,
				"y": 1.4876182934,
				"z": 1.3012837552,
				"element": "C" 
			},
			{
				"x": -1.7470815202,
				"y": 0.6760393104,
				"z": 2.3126584605,
				"element": "C" 
			},
			{
				"x": 1.2627986866,
				"y": -1.4300080429,
				"z": -3.5557755737,
				"element": "H" 
			},
			{
				"x": -0.4955449953,
				"y": -1.6288213692,
				"z": -3.6509678873,
				"element": "H" 
			},
			{
				"x": 0.294849817,
				"y": -0.3070199355,
				"z": -4.5334121948,
				"element": "H" 
			},
			{
				"x": -0.8055559013,
				"y": 0.5745938583,
				"z": -2.4632451478,
				"element": "H" 
			},
			{
				"x": 0.9538567783,
				"y": 0.7530972081,
				"z": -2.3426044737,
				"element": "H" 
			},
			{
				"x": 0.1320086916,
				"y": -0.9142397314,
				"z": 0.7503541859,
				"element": "H" 
			},
			{
				"x": 2.4019793048,
				"y": -0.9665499982,
				"z": 1.1939269789,
				"element": "H" 
			},
			{
				"x": 2.6973717226,
				"y": -0.9547961503,
				"z": -0.5528349726,
				"element": "H" 
			},
			{
				"x": 3.973632921,
				"y": 1.2050364304,
				"z": -0.3204633412,
				"element": "H" 
			},
			{
				"x": 3.6743167676,
				"y": 1.1933962254,
				"z": 1.4260454336,
				"element": "H" 
			},
			{
				"x": 4.6865629066,
				"y": -0.0677907297,
				"z": 0.6914611864,
				"element": "H" 
			},
			{
				"x": -1.4655481876,
				"y": 2.4178268741,
				"z": 1.0616402609,
				"element": "H" 
			},
			{
				"x": 0.0454588682,
				"y": 1.7523354266,
				"z": 1.6956113906,
				"element": "H" 
			},
			{
				"x": -1.9048737795,
				"y": 1.26215193,
				"z": 3.2246605755,
				"element": "H" 
			},
			{
				"x": -1.2335523077,
				"y": -0.2477108145,
				"z": 2.5978279396,
				"element": "H" 
			},
			{
				"x": -2.7243006422,
				"y": 0.4089326827,
				"z": 1.9000087906,
				"element": "H" 
			}
		],
		 "valence_orbital": [ 
			{
				"type": "occ",
				"energy": -0.3189,
				"method": "rhf"
			},
			{
				"type": "occ",
				"energy": -0.30853,
				"method": "rhf"
			},
			{
				"type": "occ",
				"energy": -0.27112,
				"method": "rhf"
			},
			{
				"type": "occ",
				"energy": -0.26824,
				"method": "rhf"
			},
			{
				"type": "occ",
				"energy": -0.2603,
				"method": "rhf"
			},
			{
				"type": "unocc",
				"energy": 0.08635,
				"method": "rhf"
			},
			{
				"type": "unocc",
				"energy": 0.10149,
				"method": "rhf"
			},
			{
				"type": "unocc",
				"energy": 0.12041,
				"method": "rhf"
			},
			{
				"type": "unocc",
				"energy": 0.1286,
				"method": "rhf"
			},
			{
				"type": "unocc",
				"energy": 0.13807,
				"method": "rhf"
			}
		],
		"cosmo_sigma_profile": { 
			"-0.025": 0.0,
			"-0.024": 0.0,
			"-0.023": 0.0,
			"-0.022": 0.0,
			"-0.021": 0.0,
			"-0.02": 0.0,
			"-0.019": 0.0,
			"-0.018": 0.0,
			"-0.017": 0.0,
			"-0.016": 0.0,
			"-0.015": 0.0,
			"-0.014": 0.0,
			"-0.013": 0.0,
			"-0.012": 0.0,
			"-0.011": 0.0,
			"-0.01": 0.0,
			"-0.009": 0.0,
			"-0.008": 0.0,
			"-0.007": 0.0,
			"-0.006": 1.19577674327,
			"-0.005": 6.26412813769,
			"-0.004": 16.9512152656,
			"-0.003": 35.7156019208,
			"-0.002": 34.2956048253,
			"-0.001": 29.7385827327,
			"0.0": 27.860756978,
			"0.001": 20.4038705649,
			"0.002": 6.46810956465,
			"0.003": 4.96036319757,
			"0.004": 4.64421633319,
			"0.005": 4.28137678318,
			"0.006": 3.6590926194,
			"0.007": 4.16741373549,
			"0.008": 3.81236584437,
			"0.009": 5.31989605452,
			"0.01": 4.14010856974,
			"0.011": 2.3555419657,
			"0.012": 2.15991549159,
			"0.013": 0.226681208188,
			"0.014": 0.0,
			"0.015": 0.0,
			"0.016": 0.0,
			"0.017": 0.0,
			"0.018": 0.0,
			"0.019": 0.0,
			"0.02": 0.0,
			"0.021": 0.0,
			"0.022": 0.0,
			"0.023": 0.0,
			"0.024": 0.0,
			"0.025": 0.0
		}
	}
}
