{
	 "smiles": "COC1=CC(OC)=NC(NC(=O)NS(=O)(=O)C2=C(C=CC=N2)C(F)(F)F)=N1", 
	 "Tm": 453.15, 
	 "num_atms": 39, 
	 "gaussian": { 
		 "optdone": 1, 
		 "sigma_profile": "yes", 
		 "theory": "DFT", 
		 "functional": "B3LYP", 
		 "basiset": "6-31G**", 
		 "properties": { 
			 "R2extent": 9057.9642, 
			 "electric_dipole_moment_norm": 6.27377423008, 
			 "electric_quadrupole_moment_norm": 22.5134144514, 
			 "total_energy": -1850.12652389, 
			 "HOMO_LUMO_gap": 0.16226, 
			 "cosmo_polarized_energy": -24.24, 
			 "cosmo_cavitation_energy": 45.94, 
			 "cosmo_dispersion_energy": -30.51, 
			 "cosmo_repulsion_energy": 2.22, 
			 "cosmo_total_nonelectrostatic_energy": 17.66, 
			 "SMD_solvation_energy": 8.39 
		},
		"coords": [
			{
				"x": -2.883025315,
				"y": 0.2159076246,
				"z": -0.4340463399,
				"element": "C" 
			},
			{
				"x": -2.5355173029,
				"y": 1.466845653,
				"z": 0.1760243825,
				"element": "O" 
			},
			{
				"x": -1.4197785747,
				"y": 2.083679961,
				"z": -0.2577686264,
				"element": "C" 
			},
			{
				"x": -1.2949108786,
				"y": 3.4459260488,
				"z": 0.0031742441,
				"element": "C" 
			},
			{
				"x": -0.1506427211,
				"y": 4.0494775984,
				"z": -0.5253667837,
				"element": "C" 
			},
			{
				"x": 0.0017449336,
				"y": 5.3675841956,
				"z": -0.3321872426,
				"element": "O" 
			},
			{
				"x": 1.1818635607,
				"y": 5.9848838766,
				"z": -0.8643181157,
				"element": "C" 
			},
			{
				"x": 0.775790348,
				"y": 3.3783739551,
				"z": -1.2154347111,
				"element": "N" 
			},
			{
				"x": 0.5530541545,
				"y": 2.0679289909,
				"z": -1.3514273024,
				"element": "C" 
			},
			{
				"x": 1.5276999877,
				"y": 1.406944011,
				"z": -2.1007410984,
				"element": "N" 
			},
			{
				"x": 1.8623220308,
				"y": 0.0754872114,
				"z": -2.2268495459,
				"element": "C" 
			},
			{
				"x": 2.4123738868,
				"y": -0.3546601354,
				"z": -3.2238289075,
				"element": "O" 
			},
			{
				"x": 1.5729907777,
				"y": -0.808530076,
				"z": -1.155260245,
				"element": "N" 
			},
			{
				"x": 1.9992879527,
				"y": -0.5391293939,
				"z": 0.4828870731,
				"element": "S" 
			},
			{
				"x": 2.3305280371,
				"y": 0.8673878273,
				"z": 0.6413055044,
				"element": "O" 
			},
			{
				"x": 2.935235889,
				"y": -1.5985756403,
				"z": 0.8546136418,
				"element": "O" 
			},
			{
				"x": 0.4494203998,
				"y": -0.8720754271,
				"z": 1.4279857021,
				"element": "C" 
			},
			{
				"x": -0.3467852232,
				"y": -2.030442375,
				"z": 1.3273468813,
				"element": "C" 
			},
			{
				"x": -1.3898627985,
				"y": -2.1573499619,
				"z": 2.2501467983,
				"element": "C" 
			},
			{
				"x": -1.6024506539,
				"y": -1.1677502897,
				"z": 3.2053264099,
				"element": "C" 
			},
			{
				"x": -0.7583121095,
				"y": -0.0614697513,
				"z": 3.2014516463,
				"element": "C" 
			},
			{
				"x": 0.2500047514,
				"y": 0.0698806512,
				"z": 2.3337390026,
				"element": "N" 
			},
			{
				"x": -0.2467334886,
				"y": -3.0892529981,
				"z": 0.2489790212,
				"element": "C" 
			},
			{
				"x": -0.8523305711,
				"y": -4.2304138923,
				"z": 0.638702403,
				"element": "F" 
			},
			{
				"x": -0.862577099,
				"y": -2.6823346466,
				"z": -0.8835412199,
				"element": "F" 
			},
			{
				"x": 1.0209846568,
				"y": -3.4070871602,
				"z": -0.076744813,
				"element": "F" 
			},
			{
				"x": -0.5013132436,
				"y": 1.3742574975,
				"z": -0.9264867651,
				"element": "N" 
			},
			{
				"x": -2.0665060508,
				"y": -0.5029990502,
				"z": -0.3885865183,
				"element": "H" 
			},
			{
				"x": -3.1556573553,
				"y": 0.3689919073,
				"z": -1.4836225038,
				"element": "H" 
			},
			{
				"x": -3.7488743133,
				"y": -0.14552115,
				"z": 0.1222237995,
				"element": "H" 
			},
			{
				"x": -2.0497579067,
				"y": 4.0054406115,
				"z": 0.5373014961,
				"element": "H" 
			},
			{
				"x": 1.1103725628,
				"y": 7.0335971053,
				"z": -0.5745709937,
				"element": "H" 
			},
			{
				"x": 1.2154828522,
				"y": 5.8935556689,
				"z": -1.9532691407,
				"element": "H" 
			},
			{
				"x": 2.0833141187,
				"y": 5.5322448826,
				"z": -0.4438396795,
				"element": "H" 
			},
			{
				"x": 2.0663121116,
				"y": 2.0092902925,
				"z": -2.7082283948,
				"element": "H" 
			},
			{
				"x": 1.8606621262,
				"y": -1.7461192965,
				"z": -1.4245596915,
				"element": "H" 
			},
			{
				"x": -2.0263204017,
				"y": -3.0336230053,
				"z": 2.2112125579,
				"element": "H" 
			},
			{
				"x": -2.4044433723,
				"y": -1.2533284044,
				"z": 3.9304185523,
				"element": "H" 
			},
			{
				"x": -0.8833457583,
				"y": 0.747877084,
				"z": 3.9163395224,
				"element": "H" 
			}
		],
		 "valence_orbital": [ 
			{
				"type": "occ",
				"energy": -0.2864,
				"method": "rhf"
			},
			{
				"type": "occ",
				"energy": -0.27844,
				"method": "rhf"
			},
			{
				"type": "occ",
				"energy": -0.27384,
				"method": "rhf"
			},
			{
				"type": "occ",
				"energy": -0.26873,
				"method": "rhf"
			},
			{
				"type": "occ",
				"energy": -0.23517,
				"method": "rhf"
			},
			{
				"type": "unocc",
				"energy": -0.07291,
				"method": "rhf"
			},
			{
				"type": "unocc",
				"energy": -0.06673,
				"method": "rhf"
			},
			{
				"type": "unocc",
				"energy": -0.02948,
				"method": "rhf"
			},
			{
				"type": "unocc",
				"energy": -0.00993,
				"method": "rhf"
			},
			{
				"type": "unocc",
				"energy": 0.01762,
				"method": "rhf"
			}
		],
		"cosmo_sigma_profile": { 
			"-0.025": 0.0,
			"-0.024": 0.0,
			"-0.023": 0.0,
			"-0.022": 0.0,
			"-0.021": 0.0,
			"-0.02": 0.0,
			"-0.019": 0.0,
			"-0.018": 0.0,
			"-0.017": 0.0,
			"-0.016": 0.129091807961,
			"-0.015": 1.07105910406,
			"-0.014": 0.792555395841,
			"-0.013": 0.667773584719,
			"-0.012": 1.91047316379,
			"-0.011": 1.49753790229,
			"-0.01": 2.10680718714,
			"-0.009": 7.57529478196,
			"-0.008": 11.1183146445,
			"-0.007": 10.2491538179,
			"-0.006": 16.3416784482,
			"-0.005": 21.2000723981,
			"-0.004": 25.397603679,
			"-0.003": 29.9913784614,
			"-0.002": 26.9360292251,
			"-0.001": 27.7777560824,
			"0.0": 21.1149415059,
			"0.001": 29.108250499,
			"0.002": 31.6061860003,
			"0.003": 13.3275989695,
			"0.004": 10.3974942162,
			"0.005": 10.88017151,
			"0.006": 10.7275012848,
			"0.007": 9.56013093092,
			"0.008": 12.7059424905,
			"0.009": 12.5702086615,
			"0.01": 10.1578012603,
			"0.011": 6.27730163864,
			"0.012": 3.51647349206,
			"0.013": 0.905415017482,
			"0.014": 0.994247793737,
			"0.015": 0.0809910668205,
			"0.016": 0.0,
			"0.017": 0.0,
			"0.018": 0.0,
			"0.019": 0.0,
			"0.02": 0.0,
			"0.021": 0.0,
			"0.022": 0.0,
			"0.023": 0.0,
			"0.024": 0.0,
			"0.025": 0.0
		}
	}
}
