{
	 "smiles": "COC1=CC=C(C=C1)C1=CC2=C(S1)C(Cl)=NC=N2", 
	 "Tm": 453.15, 
	 "num_atms": 27, 
	 "gaussian": { 
		 "optdone": 1, 
		 "sigma_profile": "yes", 
		 "theory": "DFT", 
		 "functional": "B3LYP", 
		 "basiset": "6-31G**", 
		 "properties": { 
			 "R2extent": 8787.1296, 
			 "electric_dipole_moment_norm": 5.7428754061, 
			 "electric_quadrupole_moment_norm": 17.8050723509, 
			 "total_energy": -1543.90450005, 
			 "HOMO_LUMO_gap": 0.15282, 
			 "cosmo_polarized_energy": -10.25, 
			 "cosmo_cavitation_energy": 35.17, 
			 "cosmo_dispersion_energy": -26.66, 
			 "cosmo_repulsion_energy": 1.97, 
			 "cosmo_total_nonelectrostatic_energy": 10.48, 
			 "SMD_solvation_energy": 2.91 
		},
		"coords": [
			{
				"x": -4.4173264411,
				"y": -2.7786369515,
				"z": -2.0456788807,
				"element": "C" 
			},
			{
				"x": -3.2433643298,
				"y": -2.1334049195,
				"z": -2.5207251838,
				"element": "O" 
			},
			{
				"x": -2.3480224193,
				"y": -1.6657432998,
				"z": -1.6117843685,
				"element": "C" 
			},
			{
				"x": -2.4864259016,
				"y": -1.7769748309,
				"z": -0.2223329124,
				"element": "C" 
			},
			{
				"x": -1.4990081032,
				"y": -1.2577344607,
				"z": 0.6134666651,
				"element": "C" 
			},
			{
				"x": -0.360490161,
				"y": -0.6189650016,
				"z": 0.0994746302,
				"element": "C" 
			},
			{
				"x": -0.2437662787,
				"y": -0.5116897328,
				"z": -1.3028161041,
				"element": "C" 
			},
			{
				"x": -1.214960227,
				"y": -1.0270291925,
				"z": -2.1439678039,
				"element": "C" 
			},
			{
				"x": 0.6850059412,
				"y": -0.0802038373,
				"z": 0.9727127549,
				"element": "C" 
			},
			{
				"x": 2.0078875513,
				"y": 0.1256254608,
				"z": 0.6794016709,
				"element": "C" 
			},
			{
				"x": 2.7501348218,
				"y": 0.6755693635,
				"z": 1.7716462924,
				"element": "C" 
			},
			{
				"x": 1.937055464,
				"y": 0.8789800898,
				"z": 2.9169653396,
				"element": "C" 
			},
			{
				"x": 0.2847247553,
				"y": 0.4133261673,
				"z": 2.6304143866,
				"element": "S" 
			},
			{
				"x": 2.5683271064,
				"y": 1.4037466068,
				"z": 4.0420966281,
				"element": "C" 
			},
			{
				"x": 1.6490365186,
				"y": 1.6921481489,
				"z": 5.5097975641,
				"element": "Cl" 
			},
			{
				"x": 3.8521367088,
				"y": 1.6991393186,
				"z": 4.0499977628,
				"element": "N" 
			},
			{
				"x": 4.5365086027,
				"y": 1.4655806946,
				"z": 2.9093917975,
				"element": "C" 
			},
			{
				"x": 4.0667127094,
				"y": 0.9712766974,
				"z": 1.7715512959,
				"element": "N" 
			},
			{
				"x": -4.9839584776,
				"y": -3.0615124852,
				"z": -2.9336285473,
				"element": "H" 
			},
			{
				"x": -4.1762480771,
				"y": -3.6799988974,
				"z": -1.4685218326,
				"element": "H" 
			},
			{
				"x": -5.0248722341,
				"y": -2.1056119908,
				"z": -1.4279855279,
				"element": "H" 
			},
			{
				"x": -3.3461711554,
				"y": -2.2683855137,
				"z": 0.2165894304,
				"element": "H" 
			},
			{
				"x": -1.6128998365,
				"y": -1.3754944162,
				"z": 1.6873125522,
				"element": "H" 
			},
			{
				"x": 0.6101260905,
				"y": 0.0025571488,
				"z": -1.7320186376,
				"element": "H" 
			},
			{
				"x": -1.1292763379,
				"y": -0.9388143791,
				"z": -3.221832041,
				"element": "H" 
			},
			{
				"x": 2.4689715937,
				"y": -0.1292122704,
				"z": -0.2661773698,
				"element": "H" 
			},
			{
				"x": 5.5943621167,
				"y": 1.715062483,
				"z": 2.9389504391,
				"element": "H" 
			}
		],
		 "valence_orbital": [ 
			{
				"type": "occ",
				"energy": -0.27796,
				"method": "rhf"
			},
			{
				"type": "occ",
				"energy": -0.26992,
				"method": "rhf"
			},
			{
				"type": "occ",
				"energy": -0.26428,
				"method": "rhf"
			},
			{
				"type": "occ",
				"energy": -0.25103,
				"method": "rhf"
			},
			{
				"type": "occ",
				"energy": -0.22291,
				"method": "rhf"
			},
			{
				"type": "unocc",
				"energy": -0.07009,
				"method": "rhf"
			},
			{
				"type": "unocc",
				"energy": -0.03189,
				"method": "rhf"
			},
			{
				"type": "unocc",
				"energy": -0.02117,
				"method": "rhf"
			},
			{
				"type": "unocc",
				"energy": -0.0065,
				"method": "rhf"
			},
			{
				"type": "unocc",
				"energy": 0.00491,
				"method": "rhf"
			}
		],
		"cosmo_sigma_profile": { 
			"-0.025": 0.0,
			"-0.024": 0.0,
			"-0.023": 0.0,
			"-0.022": 0.0,
			"-0.021": 0.0,
			"-0.02": 0.0,
			"-0.019": 0.0,
			"-0.018": 0.0,
			"-0.017": 0.0,
			"-0.016": 0.0,
			"-0.015": 0.0,
			"-0.014": 0.0,
			"-0.013": 0.0,
			"-0.012": 0.0,
			"-0.011": 0.0,
			"-0.01": 0.0,
			"-0.009": 0.211023271139,
			"-0.008": 3.73677778789,
			"-0.007": 8.84451912123,
			"-0.006": 16.6505116377,
			"-0.005": 18.4401402826,
			"-0.004": 18.4657556437,
			"-0.003": 20.5873971745,
			"-0.002": 21.2499828496,
			"-0.001": 23.3746100997,
			"0.0": 27.7380518428,
			"0.001": 27.9399524867,
			"0.002": 26.2241627786,
			"0.003": 26.5137741957,
			"0.004": 17.5066089496,
			"0.005": 5.61853844393,
			"0.006": 4.69690074398,
			"0.007": 3.72541226027,
			"0.008": 3.53501291191,
			"0.009": 3.36428100461,
			"0.01": 2.96839683698,
			"0.011": 2.03807489612,
			"0.012": 1.4990627968,
			"0.013": 1.61523147955,
			"0.014": 1.21223497187,
			"0.015": 0.243323075461,
			"0.016": 0.0,
			"0.017": 0.0,
			"0.018": 0.0,
			"0.019": 0.0,
			"0.02": 0.0,
			"0.021": 0.0,
			"0.022": 0.0,
			"0.023": 0.0,
			"0.024": 0.0,
			"0.025": 0.0
		}
	}
}
