{
	 "smiles": "OC(=O)C1=NNC(=C1)C1CC1", 
	 "Tm": 467.15, 
	 "num_atms": 19, 
	 "gaussian": { 
		 "optdone": 1, 
		 "sigma_profile": "yes", 
		 "theory": "DFT", 
		 "functional": "B3LYP", 
		 "basiset": "6-31G**", 
		 "properties": { 
			 "R2extent": 2214.6147, 
			 "electric_dipole_moment_norm": 7.10065193134, 
			 "electric_quadrupole_moment_norm": 7.2186830454, 
			 "total_energy": -531.482003243, 
			 "HOMO_LUMO_gap": 0.22698, 
			 "cosmo_polarized_energy": -15.95, 
			 "cosmo_cavitation_energy": 23.74, 
			 "cosmo_dispersion_energy": -17.48, 
			 "cosmo_repulsion_energy": 1.43, 
			 "cosmo_total_nonelectrostatic_energy": 7.69, 
			 "SMD_solvation_energy": 4.23 
		},
		"coords": [
			{
				"x": -2.6417986031,
				"y": -2.1357467423,
				"z": -1.3388260699,
				"element": "O" 
			},
			{
				"x": -1.4742304056,
				"y": -1.4722277131,
				"z": -1.4966035635,
				"element": "C" 
			},
			{
				"x": -0.8650813233,
				"y": -1.4801243157,
				"z": -2.5412882559,
				"element": "O" 
			},
			{
				"x": -1.0146760382,
				"y": -0.744085725,
				"z": -0.2866290598,
				"element": "C" 
			},
			{
				"x": -1.7440253927,
				"y": -0.7897785822,
				"z": 0.8333795178,
				"element": "N" 
			},
			{
				"x": -1.0542838158,
				"y": -0.0399166246,
				"z": 1.7057490652,
				"element": "N" 
			},
			{
				"x": 0.0970828775,
				"y": 0.489910006,
				"z": 1.184129448,
				"element": "C" 
			},
			{
				"x": 0.146017855,
				"y": 0.0435013889,
				"z": -0.1247731443,
				"element": "C" 
			},
			{
				"x": 0.9907570797,
				"y": 1.3563609466,
				"z": 1.9858163691,
				"element": "C" 
			},
			{
				"x": 2.4603217793,
				"y": 1.4409340122,
				"z": 1.6528507108,
				"element": "C" 
			},
			{
				"x": 2.0304423834,
				"y": 0.7453768236,
				"z": 2.914712379,
				"element": "C" 
			},
			{
				"x": -2.9494929993,
				"y": -1.9898304953,
				"z": -0.4264074257,
				"element": "H" 
			},
			{
				"x": -1.3995823246,
				"y": 0.0673127382,
				"z": 2.6481711014,
				"element": "H" 
			},
			{
				"x": 0.8960808376,
				"y": 0.2565070486,
				"z": -0.8696668216,
				"element": "H" 
			},
			{
				"x": 0.5305520034,
				"y": 2.2778120729,
				"z": 2.3393037708,
				"element": "H" 
			},
			{
				"x": 2.9373849966,
				"y": 2.4123388018,
				"z": 1.7303349154,
				"element": "H" 
			},
			{
				"x": 2.8283158737,
				"y": 0.8249977161,
				"z": 0.8387584033,
				"element": "H" 
			},
			{
				"x": 2.2057017515,
				"y": 1.2368478069,
				"z": 3.8666476289,
				"element": "H" 
			},
			{
				"x": 2.1009134651,
				"y": -0.3373891636,
				"z": 2.9442410312,
				"element": "H" 
			}
		],
		 "valence_orbital": [ 
			{
				"type": "occ",
				"energy": -0.3098,
				"method": "rhf"
			},
			{
				"type": "occ",
				"energy": -0.30392,
				"method": "rhf"
			},
			{
				"type": "occ",
				"energy": -0.27335,
				"method": "rhf"
			},
			{
				"type": "occ",
				"energy": -0.26385,
				"method": "rhf"
			},
			{
				"type": "occ",
				"energy": -0.25727,
				"method": "rhf"
			},
			{
				"type": "unocc",
				"energy": -0.03029,
				"method": "rhf"
			},
			{
				"type": "unocc",
				"energy": 0.01293,
				"method": "rhf"
			},
			{
				"type": "unocc",
				"energy": 0.06528,
				"method": "rhf"
			},
			{
				"type": "unocc",
				"energy": 0.08493,
				"method": "rhf"
			},
			{
				"type": "unocc",
				"energy": 0.09805,
				"method": "rhf"
			}
		],
		"cosmo_sigma_profile": { 
			"-0.025": 0.0,
			"-0.024": 0.0,
			"-0.023": 0.0,
			"-0.022": 0.0,
			"-0.021": 0.0,
			"-0.02": 0.0,
			"-0.019": 0.0,
			"-0.018": 0.100498549275,
			"-0.017": 1.13289155145,
			"-0.016": 1.5035748346,
			"-0.015": 1.14301139515,
			"-0.014": 1.79621737006,
			"-0.013": 0.906072576075,
			"-0.012": 1.35927128632,
			"-0.011": 2.0565254757,
			"-0.01": 1.30744361007,
			"-0.009": 1.2291475952,
			"-0.008": 1.59514152118,
			"-0.007": 3.65405450483,
			"-0.006": 7.51864203352,
			"-0.005": 13.052172342,
			"-0.004": 13.7490122383,
			"-0.003": 14.6864511718,
			"-0.002": 13.319840431,
			"-0.001": 12.157208018,
			"0.0": 12.8635223639,
			"0.001": 12.9297461213,
			"0.002": 15.1990196998,
			"0.003": 11.2499639708,
			"0.004": 6.14339929104,
			"0.005": 4.48145322652,
			"0.006": 3.51534390913,
			"0.007": 3.84854483592,
			"0.008": 3.86424457755,
			"0.009": 4.20830546573,
			"0.01": 5.16658320922,
			"0.011": 5.17215123681,
			"0.012": 5.593524393,
			"0.013": 2.16474893634,
			"0.014": 0.200197007426,
			"0.015": 0.0,
			"0.016": 0.0,
			"0.017": 0.0,
			"0.018": 0.0,
			"0.019": 0.0,
			"0.02": 0.0,
			"0.021": 0.0,
			"0.022": 0.0,
			"0.023": 0.0,
			"0.024": 0.0,
			"0.025": 0.0
		}
	}
}
