{
	 "smiles": "CSC1=CC(=NC=C1)C#N", 
	 "Tm": 340.15, 
	 "num_atms": 16, 
	 "gaussian": { 
		 "optdone": 1, 
		 "sigma_profile": "yes", 
		 "theory": "DFT", 
		 "functional": "B3LYP", 
		 "basiset": "6-31G**", 
		 "properties": { 
			 "R2extent": 2604.5676, 
			 "electric_dipole_moment_norm": 5.32121299799, 
			 "electric_quadrupole_moment_norm": 13.4978508137, 
			 "total_energy": -778.023999363, 
			 "HOMO_LUMO_gap": 0.18224, 
			 "cosmo_polarized_energy": -12.1, 
			 "cosmo_cavitation_energy": 23.1, 
			 "cosmo_dispersion_energy": -16.94, 
			 "cosmo_repulsion_energy": 1.32, 
			 "cosmo_total_nonelectrostatic_energy": 7.49, 
			 "SMD_solvation_energy": 4.03 
		},
		"coords": [
			{
				"x": 2.8911191345,
				"y": -1.4046731265,
				"z": 0.4498870347,
				"element": "C" 
			},
			{
				"x": 2.9084578446,
				"y": -0.098264957,
				"z": 1.720766765,
				"element": "S" 
			},
			{
				"x": 1.2011073816,
				"y": 0.329135825,
				"z": 1.899626168,
				"element": "C" 
			},
			{
				"x": 0.1496991943,
				"y": -0.2568712788,
				"z": 1.1853658213,
				"element": "C" 
			},
			{
				"x": -1.1552664244,
				"y": 0.1884043703,
				"z": 1.4372823267,
				"element": "C" 
			},
			{
				"x": -1.4796906704,
				"y": 1.1441815509,
				"z": 2.3202924301,
				"element": "N" 
			},
			{
				"x": -0.4610495907,
				"y": 1.6920936719,
				"z": 2.9929798372,
				"element": "C" 
			},
			{
				"x": 0.8732077354,
				"y": 1.3315223948,
				"z": 2.8273685563,
				"element": "C" 
			},
			{
				"x": -2.2443579901,
				"y": -0.4137790985,
				"z": 0.7020282043,
				"element": "C" 
			},
			{
				"x": -3.0937690712,
				"y": -0.9208700876,
				"z": 0.0923668937,
				"element": "N" 
			},
			{
				"x": 2.3253335637,
				"y": -2.2780034891,
				"z": 0.7813075465,
				"element": "H" 
			},
			{
				"x": 2.5022502238,
				"y": -1.0332876598,
				"z": -0.500642442,
				"element": "H" 
			},
			{
				"x": 3.9361189193,
				"y": -1.6908347258,
				"z": 0.316291512,
				"element": "H" 
			},
			{
				"x": 0.3113306183,
				"y": -1.0358235312,
				"z": 0.451349859,
				"element": "H" 
			},
			{
				"x": -0.7264298867,
				"y": 2.467234597,
				"z": 3.7086293497,
				"element": "H" 
			},
			{
				"x": 1.6452390183,
				"y": 1.8230355444,
				"z": 3.4111001376,
				"element": "H" 
			}
		],
		 "valence_orbital": [ 
			{
				"type": "occ",
				"energy": -0.33683,
				"method": "rhf"
			},
			{
				"type": "occ",
				"energy": -0.3328,
				"method": "rhf"
			},
			{
				"type": "occ",
				"energy": -0.28307,
				"method": "rhf"
			},
			{
				"type": "occ",
				"energy": -0.28104,
				"method": "rhf"
			},
			{
				"type": "occ",
				"energy": -0.24803,
				"method": "rhf"
			},
			{
				"type": "unocc",
				"energy": -0.06579,
				"method": "rhf"
			},
			{
				"type": "unocc",
				"energy": -0.04101,
				"method": "rhf"
			},
			{
				"type": "unocc",
				"energy": 0.00792,
				"method": "rhf"
			},
			{
				"type": "unocc",
				"energy": 0.03468,
				"method": "rhf"
			},
			{
				"type": "unocc",
				"energy": 0.05178,
				"method": "rhf"
			}
		],
		"cosmo_sigma_profile": { 
			"-0.025": 0.0,
			"-0.024": 0.0,
			"-0.023": 0.0,
			"-0.022": 0.0,
			"-0.021": 0.0,
			"-0.02": 0.0,
			"-0.019": 0.0,
			"-0.018": 0.0,
			"-0.017": 0.0,
			"-0.016": 0.0,
			"-0.015": 0.0,
			"-0.014": 0.0,
			"-0.013": 0.0,
			"-0.012": 0.0,
			"-0.011": 0.0,
			"-0.01": 0.0,
			"-0.009": 2.087462367,
			"-0.008": 8.00911904624,
			"-0.007": 14.456227631,
			"-0.006": 10.3531246846,
			"-0.005": 10.9006861202,
			"-0.004": 9.6742783812,
			"-0.003": 13.2868839209,
			"-0.002": 12.6776634359,
			"-0.001": 14.0954741914,
			"0.0": 16.2679586054,
			"0.001": 12.5546621223,
			"0.002": 6.45515303706,
			"0.003": 9.43106786541,
			"0.004": 7.27261578723,
			"0.005": 7.15045699669,
			"0.006": 6.93701148062,
			"0.007": 6.71871192783,
			"0.008": 4.91279067691,
			"0.009": 3.59208723215,
			"0.01": 3.6659787252,
			"0.011": 3.3382842037,
			"0.012": 2.96985591291,
			"0.013": 1.23997796704,
			"0.014": 0.560900176374,
			"0.015": 0.149530054676,
			"0.016": 0.0,
			"0.017": 0.0,
			"0.018": 0.0,
			"0.019": 0.0,
			"0.02": 0.0,
			"0.021": 0.0,
			"0.022": 0.0,
			"0.023": 0.0,
			"0.024": 0.0,
			"0.025": 0.0
		}
	}
}
