{
	 "smiles": "N1C=CC=C1C1=CC=CC=C1", 
	 "Tm": 402.15, 
	 "num_atms": 20, 
	 "gaussian": { 
		 "optdone": 1, 
		 "sigma_profile": "yes", 
		 "theory": "DFT", 
		 "functional": "B3LYP", 
		 "basiset": "6-31G**", 
		 "properties": { 
			 "R2extent": 2465.159, 
			 "electric_dipole_moment_norm": 1.52617389245, 
			 "electric_quadrupole_moment_norm": 6.72457887826, 
			 "total_energy": -441.235231875, 
			 "HOMO_LUMO_gap": 0.17558, 
			 "cosmo_polarized_energy": -8.37, 
			 "cosmo_cavitation_energy": 23.69, 
			 "cosmo_dispersion_energy": -17.71, 
			 "cosmo_repulsion_energy": 1.4, 
			 "cosmo_total_nonelectrostatic_energy": 7.38, 
			 "SMD_solvation_energy": 4.14 
		},
		"coords": [
			{
				"x": -0.2644939383,
				"y": -0.9114717064,
				"z": -1.407643011,
				"element": "N" 
			},
			{
				"x": -0.7559669035,
				"y": -2.148596476,
				"z": -1.0715536703,
				"element": "C" 
			},
			{
				"x": -0.0586473877,
				"y": -2.591863186,
				"z": 0.0334129794,
				"element": "C" 
			},
			{
				"x": 0.8956292663,
				"y": -1.5924649823,
				"z": 0.3602145851,
				"element": "C" 
			},
			{
				"x": 0.7597011548,
				"y": -0.552773964,
				"z": -0.5505574403,
				"element": "C" 
			},
			{
				"x": 1.4724303669,
				"y": 0.7191023396,
				"z": -0.6713133431,
				"element": "C" 
			},
			{
				"x": 2.7775360864,
				"y": 0.8546858537,
				"z": -0.1615676555,
				"element": "C" 
			},
			{
				"x": 3.463823804,
				"y": 2.0616372243,
				"z": -0.2644269934,
				"element": "C" 
			},
			{
				"x": 2.8727173028,
				"y": 3.1615357719,
				"z": -0.8919866689,
				"element": "C" 
			},
			{
				"x": 1.580594415,
				"y": 3.0414282135,
				"z": -1.4060368202,
				"element": "C" 
			},
			{
				"x": 0.8856375155,
				"y": 1.8385239872,
				"z": -1.290919355,
				"element": "C" 
			},
			{
				"x": -0.5198455414,
				"y": -0.3942923568,
				"z": -2.2334146083,
				"element": "H" 
			},
			{
				"x": -1.5511807851,
				"y": -2.6071331158,
				"z": -1.6403649865,
				"element": "H" 
			},
			{
				"x": -0.2236617649,
				"y": -3.5248592371,
				"z": 0.5536276628,
				"element": "H" 
			},
			{
				"x": 1.5818931662,
				"y": -1.6059867386,
				"z": 1.1951946795,
				"element": "H" 
			},
			{
				"x": 3.2574061052,
				"y": -0.0029546315,
				"z": 0.299837994,
				"element": "H" 
			},
			{
				"x": 4.4707896294,
				"y": 2.1406751724,
				"z": 0.1359540774,
				"element": "H" 
			},
			{
				"x": 3.412239791,
				"y": 4.1000640487,
				"z": -0.9776533842,
				"element": "H" 
			},
			{
				"x": 1.1043282313,
				"y": 3.8914483262,
				"z": -1.8868691771,
				"element": "H" 
			},
			{
				"x": -0.1361305138,
				"y": 1.780295457,
				"z": -1.6573348644,
				"element": "H" 
			}
		],
		 "valence_orbital": [ 
			{
				"type": "occ",
				"energy": -0.33772,
				"method": "rhf"
			},
			{
				"type": "occ",
				"energy": -0.26583,
				"method": "rhf"
			},
			{
				"type": "occ",
				"energy": -0.24899,
				"method": "rhf"
			},
			{
				"type": "occ",
				"energy": -0.2398,
				"method": "rhf"
			},
			{
				"type": "occ",
				"energy": -0.1912,
				"method": "rhf"
			},
			{
				"type": "unocc",
				"energy": -0.01562,
				"method": "rhf"
			},
			{
				"type": "unocc",
				"energy": 0.00039,
				"method": "rhf"
			},
			{
				"type": "unocc",
				"energy": 0.06018,
				"method": "rhf"
			},
			{
				"type": "unocc",
				"energy": 0.07603,
				"method": "rhf"
			},
			{
				"type": "unocc",
				"energy": 0.09528,
				"method": "rhf"
			}
		],
		"cosmo_sigma_profile": { 
			"-0.025": 0.0,
			"-0.024": 0.0,
			"-0.023": 0.0,
			"-0.022": 0.0,
			"-0.021": 0.0,
			"-0.02": 0.0,
			"-0.019": 0.0,
			"-0.018": 0.0,
			"-0.017": 0.0,
			"-0.016": 0.00698276585825,
			"-0.015": 1.11986478806,
			"-0.014": 0.930527193954,
			"-0.013": 0.999681102485,
			"-0.012": 1.22039789395,
			"-0.011": 1.45336759137,
			"-0.01": 1.48806392312,
			"-0.009": 1.23052485886,
			"-0.008": 1.74497098142,
			"-0.007": 4.11059438032,
			"-0.006": 6.44818695202,
			"-0.005": 14.6162842409,
			"-0.004": 15.4088610756,
			"-0.003": 15.0002019212,
			"-0.002": 11.5243817736,
			"-0.001": 10.8847955034,
			"0.0": 11.2282406683,
			"0.001": 10.2288309926,
			"0.002": 10.0163018551,
			"0.003": 12.7247874891,
			"0.004": 14.1319259693,
			"0.005": 15.7161423147,
			"0.006": 14.2043002444,
			"0.007": 6.73233681009,
			"0.008": 5.10771226415,
			"0.009": 1.69654795612,
			"0.01": 0.0,
			"0.011": 0.0,
			"0.012": 0.0,
			"0.013": 0.0,
			"0.014": 0.0,
			"0.015": 0.0,
			"0.016": 0.0,
			"0.017": 0.0,
			"0.018": 0.0,
			"0.019": 0.0,
			"0.02": 0.0,
			"0.021": 0.0,
			"0.022": 0.0,
			"0.023": 0.0,
			"0.024": 0.0,
			"0.025": 0.0
		}
	}
}
