{
	 "smiles": "CC1=CC=NC(N)=C1[N+]([O-])=O", 
	 "Tm": 411.15, 
	 "num_atms": 18, 
	 "gaussian": { 
		 "optdone": 1, 
		 "sigma_profile": "yes", 
		 "theory": "DFT", 
		 "functional": "B3LYP", 
		 "basiset": "6-31G**", 
		 "properties": { 
			 "R2extent": 1965.9766, 
			 "electric_dipole_moment_norm": 2.79732643251, 
			 "electric_quadrupole_moment_norm": 8.31941692608, 
			 "total_energy": -547.471738374, 
			 "HOMO_LUMO_gap": 0.14781, 
			 "cosmo_polarized_energy": -9.57, 
			 "cosmo_cavitation_energy": 21.89, 
			 "cosmo_dispersion_energy": -16.86, 
			 "cosmo_repulsion_energy": 1.34, 
			 "cosmo_total_nonelectrostatic_energy": 6.37, 
			 "SMD_solvation_energy": 4.34 
		},
		"coords": [
			{
				"x": -0.5752568019,
				"y": 2.0673820098,
				"z": 0.6788399335,
				"element": "C" 
			},
			{
				"x": -1.373849514,
				"y": 0.9465904978,
				"z": 0.060618985,
				"element": "C" 
			},
			{
				"x": -2.6429523143,
				"y": 1.2487271635,
				"z": -0.4296872285,
				"element": "C" 
			},
			{
				"x": -3.4205250518,
				"y": 0.2462457128,
				"z": -1.0117403301,
				"element": "C" 
			},
			{
				"x": -3.036867235,
				"y": -1.0137360657,
				"z": -1.1450528632,
				"element": "N" 
			},
			{
				"x": -1.8112658999,
				"y": -1.3631279285,
				"z": -0.6889882342,
				"element": "C" 
			},
			{
				"x": -1.502882963,
				"y": -2.662298662,
				"z": -0.8669983683,
				"element": "N" 
			},
			{
				"x": -0.9418595456,
				"y": -0.39976775,
				"z": -0.0695035421,
				"element": "C" 
			},
			{
				"x": 0.3597270197,
				"y": -0.8067639013,
				"z": 0.4163082379,
				"element": "N" 
			},
			{
				"x": 0.7225506129,
				"y": -1.9886576655,
				"z": 0.2590787413,
				"element": "O" 
			},
			{
				"x": 1.0809148876,
				"y": 0.0227360059,
				"z": 0.9752868257,
				"element": "O" 
			},
			{
				"x": -0.3338646061,
				"y": 1.8592825143,
				"z": 1.7236264441,
				"element": "H" 
			},
			{
				"x": 0.3818453229,
				"y": 2.2075168543,
				"z": 0.1715352953,
				"element": "H" 
			},
			{
				"x": -1.1508938646,
				"y": 2.9944147481,
				"z": 0.6215401885,
				"element": "H" 
			},
			{
				"x": -3.0241511754,
				"y": 2.2611029121,
				"z": -0.3583022298,
				"element": "H" 
			},
			{
				"x": -4.4134691539,
				"y": 0.4815003194,
				"z": -1.393180655,
				"element": "H" 
			},
			{
				"x": -2.2031141166,
				"y": -3.2315617892,
				"z": -1.3154372693,
				"element": "H" 
			},
			{
				"x": -0.604585601,
				"y": -3.008684976,
				"z": -0.5673439308,
				"element": "H" 
			}
		],
		 "valence_orbital": [ 
			{
				"type": "occ",
				"energy": -0.30556,
				"method": "rhf"
			},
			{
				"type": "occ",
				"energy": -0.29484,
				"method": "rhf"
			},
			{
				"type": "occ",
				"energy": -0.29075,
				"method": "rhf"
			},
			{
				"type": "occ",
				"energy": -0.27138,
				"method": "rhf"
			},
			{
				"type": "occ",
				"energy": -0.23316,
				"method": "rhf"
			},
			{
				"type": "unocc",
				"energy": -0.08535,
				"method": "rhf"
			},
			{
				"type": "unocc",
				"energy": -0.02116,
				"method": "rhf"
			},
			{
				"type": "unocc",
				"energy": 0.00389,
				"method": "rhf"
			},
			{
				"type": "unocc",
				"energy": 0.09577,
				"method": "rhf"
			},
			{
				"type": "unocc",
				"energy": 0.09999,
				"method": "rhf"
			}
		],
		"cosmo_sigma_profile": { 
			"-0.025": 0.0,
			"-0.024": 0.0,
			"-0.023": 0.0,
			"-0.022": 0.0,
			"-0.021": 0.0,
			"-0.02": 0.0,
			"-0.019": 0.0,
			"-0.018": 0.0,
			"-0.017": 0.0,
			"-0.016": 0.0,
			"-0.015": 0.0,
			"-0.014": 0.785171521365,
			"-0.013": 0.891678627078,
			"-0.012": 1.27370687521,
			"-0.011": 1.42735234851,
			"-0.01": 1.31811540151,
			"-0.009": 1.65710662139,
			"-0.008": 2.29795777152,
			"-0.007": 5.22346399406,
			"-0.006": 8.46842117084,
			"-0.005": 8.19990999458,
			"-0.004": 12.6550534797,
			"-0.003": 13.1516976893,
			"-0.002": 13.393200979,
			"-0.001": 19.4173814808,
			"0.0": 14.7991152545,
			"0.001": 13.193548988,
			"0.002": 10.5162107563,
			"0.003": 6.99352539365,
			"0.004": 4.59007543768,
			"0.005": 3.2212333775,
			"0.006": 5.20013550984,
			"0.007": 4.70088409546,
			"0.008": 5.0537144954,
			"0.009": 5.14399944864,
			"0.01": 4.25771660293,
			"0.011": 4.49797941165,
			"0.012": 1.11960415981,
			"0.013": 0.351357526994,
			"0.014": 0.873881771839,
			"0.015": 0.0130557218857,
			"0.016": 0.0,
			"0.017": 0.0,
			"0.018": 0.0,
			"0.019": 0.0,
			"0.02": 0.0,
			"0.021": 0.0,
			"0.022": 0.0,
			"0.023": 0.0,
			"0.024": 0.0,
			"0.025": 0.0
		}
	}
}
