{
	 "smiles": "CCOC1=CC=C(C=C1)C(=O)CCC(O)=O", 
	 "Tm": 410.15, 
	 "num_atms": 30, 
	 "gaussian": { 
		 "optdone": 1, 
		 "sigma_profile": "yes", 
		 "theory": "DFT", 
		 "functional": "B3LYP", 
		 "basiset": "6-31G**", 
		 "properties": { 
			 "R2extent": 6962.7991, 
			 "electric_dipole_moment_norm": 7.46173982795, 
			 "electric_quadrupole_moment_norm": 43.5444283659, 
			 "total_energy": -766.61432586, 
			 "HOMO_LUMO_gap": 0.18233, 
			 "cosmo_polarized_energy": -24.12, 
			 "cosmo_cavitation_energy": 34.54, 
			 "cosmo_dispersion_energy": -24.53, 
			 "cosmo_repulsion_energy": 1.96, 
			 "cosmo_total_nonelectrostatic_energy": 11.97, 
			 "SMD_solvation_energy": 7.81 
		},
		"coords": [
			{
				"x": 1.1837006835,
				"y": -3.2943667754,
				"z": 3.3556779398,
				"element": "C" 
			},
			{
				"x": 1.3605178075,
				"y": -2.8686080295,
				"z": 1.9092368242,
				"element": "C" 
			},
			{
				"x": 0.4500969971,
				"y": -1.7915702465,
				"z": 1.6639543767,
				"element": "O" 
			},
			{
				"x": 0.4075070152,
				"y": -1.2304949487,
				"z": 0.4294989606,
				"element": "C" 
			},
			{
				"x": 1.2097766941,
				"y": -1.6217912879,
				"z": -0.6550247925,
				"element": "C" 
			},
			{
				"x": 1.0758974142,
				"y": -0.9701726086,
				"z": -1.8760590022,
				"element": "C" 
			},
			{
				"x": 0.1581346194,
				"y": 0.0756863264,
				"z": -2.0560249004,
				"element": "C" 
			},
			{
				"x": -0.6393049642,
				"y": 0.4531791101,
				"z": -0.9585996838,
				"element": "C" 
			},
			{
				"x": -0.5195736061,
				"y": -0.1873139236,
				"z": 0.2658077576,
				"element": "C" 
			},
			{
				"x": 0.0805029095,
				"y": 0.7161146003,
				"z": -3.4049313195,
				"element": "C" 
			},
			{
				"x": 0.7353641939,
				"y": 0.2800110209,
				"z": -4.3406453329,
				"element": "O" 
			},
			{
				"x": -0.8083549201,
				"y": 1.9464889958,
				"z": -3.597333428,
				"element": "C" 
			},
			{
				"x": -0.1864567935,
				"y": 3.2227946284,
				"z": -2.9969551609,
				"element": "C" 
			},
			{
				"x": 0.8497150536,
				"y": 3.8621951758,
				"z": -3.9238829656,
				"element": "C" 
			},
			{
				"x": 1.8109013181,
				"y": 4.601653474,
				"z": -3.3079068025,
				"element": "O" 
			},
			{
				"x": 0.8162579301,
				"y": 3.7918181466,
				"z": -5.1247704689,
				"element": "O" 
			},
			{
				"x": 1.4017651364,
				"y": -2.4634328392,
				"z": 4.0321956724,
				"element": "H" 
			},
			{
				"x": 1.8635408426,
				"y": -4.1194473392,
				"z": 3.5885804846,
				"element": "H" 
			},
			{
				"x": 0.1582525295,
				"y": -3.6276515663,
				"z": 3.5372841269,
				"element": "H" 
			},
			{
				"x": 2.3897184277,
				"y": -2.5341427977,
				"z": 1.7204279257,
				"element": "H" 
			},
			{
				"x": 1.1437121084,
				"y": -3.6999146999,
				"z": 1.2247789602,
				"element": "H" 
			},
			{
				"x": 1.9304106685,
				"y": -2.4242772853,
				"z": -0.5538086297,
				"element": "H" 
			},
			{
				"x": 1.6847237235,
				"y": -1.2615706517,
				"z": -2.7256418054,
				"element": "H" 
			},
			{
				"x": -1.3709361722,
				"y": 1.2489340422,
				"z": -1.0565227725,
				"element": "H" 
			},
			{
				"x": -1.1341085314,
				"y": 0.0945031588,
				"z": 1.1143573636,
				"element": "H" 
			},
			{
				"x": -0.9313343899,
				"y": 2.0927922994,
				"z": -4.6720112549,
				"element": "H" 
			},
			{
				"x": -1.7931632488,
				"y": 1.7756501694,
				"z": -3.1511687187,
				"element": "H" 
			},
			{
				"x": 0.2446643563,
				"y": 3.0222990743,
				"z": -2.0088875271,
				"element": "H" 
			},
			{
				"x": -0.9679658753,
				"y": 3.9795433423,
				"z": -2.8476407394,
				"element": "H" 
			},
			{
				"x": 1.7219380724,
				"y": 4.5350914347,
				"z": -2.3470850873,
				"element": "H" 
			}
		],
		 "valence_orbital": [ 
			{
				"type": "occ",
				"energy": -0.31384,
				"method": "rhf"
			},
			{
				"type": "occ",
				"energy": -0.27234,
				"method": "rhf"
			},
			{
				"type": "occ",
				"energy": -0.26638,
				"method": "rhf"
			},
			{
				"type": "occ",
				"energy": -0.24293,
				"method": "rhf"
			},
			{
				"type": "occ",
				"energy": -0.23354,
				"method": "rhf"
			},
			{
				"type": "unocc",
				"energy": -0.05121,
				"method": "rhf"
			},
			{
				"type": "unocc",
				"energy": -0.01571,
				"method": "rhf"
			},
			{
				"type": "unocc",
				"energy": 0.00989,
				"method": "rhf"
			},
			{
				"type": "unocc",
				"energy": 0.04021,
				"method": "rhf"
			},
			{
				"type": "unocc",
				"energy": 0.05607,
				"method": "rhf"
			}
		],
		"cosmo_sigma_profile": { 
			"-0.025": 0.0,
			"-0.024": 0.0,
			"-0.023": 0.0,
			"-0.022": 0.0,
			"-0.021": 0.0,
			"-0.02": 0.0,
			"-0.019": 0.611832471473,
			"-0.018": 1.46586899174,
			"-0.017": 0.68816409659,
			"-0.016": 1.98677596413,
			"-0.015": 0.952409881569,
			"-0.014": 0.666833146668,
			"-0.013": 1.148573151,
			"-0.012": 1.47882432283,
			"-0.011": 0.826019454101,
			"-0.01": 0.764536359595,
			"-0.009": 0.910811544277,
			"-0.008": 5.15978401348,
			"-0.007": 9.97673885376,
			"-0.006": 14.743965518,
			"-0.005": 21.7223403401,
			"-0.004": 24.3078150693,
			"-0.003": 19.9804669084,
			"-0.002": 18.8391318249,
			"-0.001": 15.5531404539,
			"0.0": 15.3152220753,
			"0.001": 13.2680395622,
			"0.002": 14.0861703211,
			"0.003": 16.7986649283,
			"0.004": 14.9576056208,
			"0.005": 5.35223402307,
			"0.006": 4.49466620197,
			"0.007": 4.97299800335,
			"0.008": 7.01155133203,
			"0.009": 6.43101181054,
			"0.01": 7.44452122421,
			"0.011": 8.77141216593,
			"0.012": 8.89738166251,
			"0.013": 3.34514075447,
			"0.014": 0.233863529521,
			"0.015": 0.0,
			"0.016": 0.0,
			"0.017": 0.0,
			"0.018": 0.0,
			"0.019": 0.0,
			"0.02": 0.0,
			"0.021": 0.0,
			"0.022": 0.0,
			"0.023": 0.0,
			"0.024": 0.0,
			"0.025": 0.0
		}
	}
}
