{
	 "smiles": "CC(C)O", 
	 "Tm": 184.15, 
	 "num_atms": 12, 
	 "gaussian": { 
		 "optdone": 1, 
		 "sigma_profile": "yes", 
		 "theory": "DFT", 
		 "functional": "B3LYP", 
		 "basiset": "6-31G**", 
		 "properties": { 
			 "R2extent": 700.5847, 
			 "electric_dipole_moment_norm": 1.52129671005, 
			 "electric_quadrupole_moment_norm": 5.38098757479, 
			 "total_energy": -194.365037125, 
			 "HOMO_LUMO_gap": 0.33492, 
			 "cosmo_polarized_energy": -5.57, 
			 "cosmo_cavitation_energy": 14.32, 
			 "cosmo_dispersion_energy": -10.77, 
			 "cosmo_repulsion_energy": 0.99, 
			 "cosmo_total_nonelectrostatic_energy": 4.54, 
			 "SMD_solvation_energy": 2.83 
		},
		"coords": [
			{
				"x": -0.3096246527,
				"y": 0.3109817738,
				"z": -1.3195096142,
				"element": "C" 
			},
			{
				"x": 0.1963630961,
				"y": -1.0447654983,
				"z": -1.7986192158,
				"element": "C" 
			},
			{
				"x": 1.5442401919,
				"y": -1.4193907467,
				"z": -1.1782305052,
				"element": "C" 
			},
			{
				"x": -0.8129716335,
				"y": -1.9945464729,
				"z": -1.4500192225,
				"element": "O" 
			},
			{
				"x": -1.2839380082,
				"y": 0.5311625383,
				"z": -1.7645036762,
				"element": "H" 
			},
			{
				"x": 0.3889051281,
				"y": 1.1070528095,
				"z": -1.5952752138,
				"element": "H" 
			},
			{
				"x": -0.4243993779,
				"y": 0.3080361038,
				"z": -0.2305452351,
				"element": "H" 
			},
			{
				"x": 0.3114284603,
				"y": -1.0082307363,
				"z": -2.8959340396,
				"element": "H" 
			},
			{
				"x": 1.8809836245,
				"y": -2.4017161504,
				"z": -1.5316699865,
				"element": "H" 
			},
			{
				"x": 1.4605081081,
				"y": -1.4609723731,
				"z": -0.0872138297,
				"element": "H" 
			},
			{
				"x": 2.3191855088,
				"y": -0.6912298695,
				"z": -1.4410335209,
				"element": "H" 
			},
			{
				"x": -0.5114804454,
				"y": -2.8656813782,
				"z": -1.7383459405,
				"element": "H" 
			}
		],
		 "valence_orbital": [ 
			{
				"type": "occ",
				"energy": -0.3769,
				"method": "rhf"
			},
			{
				"type": "occ",
				"energy": -0.36102,
				"method": "rhf"
			},
			{
				"type": "occ",
				"energy": -0.3509,
				"method": "rhf"
			},
			{
				"type": "occ",
				"energy": -0.31631,
				"method": "rhf"
			},
			{
				"type": "occ",
				"energy": -0.26058,
				"method": "rhf"
			},
			{
				"type": "unocc",
				"energy": 0.07434,
				"method": "rhf"
			},
			{
				"type": "unocc",
				"energy": 0.12192,
				"method": "rhf"
			},
			{
				"type": "unocc",
				"energy": 0.1453,
				"method": "rhf"
			},
			{
				"type": "unocc",
				"energy": 0.14703,
				"method": "rhf"
			},
			{
				"type": "unocc",
				"energy": 0.1603,
				"method": "rhf"
			}
		],
		"cosmo_sigma_profile": { 
			"-0.025": 0.0,
			"-0.024": 0.0,
			"-0.023": 0.0,
			"-0.022": 0.0,
			"-0.021": 0.0,
			"-0.02": 0.0,
			"-0.019": 0.0,
			"-0.018": 0.0,
			"-0.017": 0.0,
			"-0.016": 0.0,
			"-0.015": 0.515635021705,
			"-0.014": 0.989322979573,
			"-0.013": 0.730199324526,
			"-0.012": 1.01043157019,
			"-0.011": 0.893245642778,
			"-0.01": 0.926071531398,
			"-0.009": 1.02397097859,
			"-0.008": 0.787454764,
			"-0.007": 1.02776522909,
			"-0.006": 1.12625624786,
			"-0.005": 1.68353703427,
			"-0.004": 2.73935597308,
			"-0.003": 12.7891460525,
			"-0.002": 14.6720291566,
			"-0.001": 15.8975169075,
			"0.0": 14.6510065097,
			"0.001": 15.2476678585,
			"0.002": 4.81577302753,
			"0.003": 1.44013695815,
			"0.004": 2.0682072767,
			"0.005": 1.44962162992,
			"0.006": 1.11687431359,
			"0.007": 1.05603102706,
			"0.008": 1.38061202626,
			"0.009": 1.5357440849,
			"0.01": 0.818694510889,
			"0.011": 1.13275546192,
			"0.012": 1.48127169924,
			"0.013": 1.82216119744,
			"0.014": 1.6912483958,
			"0.015": 1.66222004516,
			"0.016": 4.15726111937e-05,
			"0.017": 0.0,
			"0.018": 0.0,
			"0.019": 0.0,
			"0.02": 0.0,
			"0.021": 0.0,
			"0.022": 0.0,
			"0.023": 0.0,
			"0.024": 0.0,
			"0.025": 0.0
		}
	}
}
