{
	 "smiles": "COC1=C(OCC2CCCO2)C=C(N)C=C1", 
	 "Tm": 359.15, 
	 "num_atms": 33, 
	 "gaussian": { 
		 "optdone": 1, 
		 "sigma_profile": "yes", 
		 "theory": "DFT", 
		 "functional": "B3LYP", 
		 "basiset": "6-31G**", 
		 "properties": { 
			 "R2extent": 5015.434, 
			 "electric_dipole_moment_norm": 2.52051726834, 
			 "electric_quadrupole_moment_norm": 17.4382456592, 
			 "total_energy": -747.90788724, 
			 "HOMO_LUMO_gap": 0.20085, 
			 "cosmo_polarized_energy": -13.2, 
			 "cosmo_cavitation_energy": 35.27, 
			 "cosmo_dispersion_energy": -24.75, 
			 "cosmo_repulsion_energy": 1.97, 
			 "cosmo_total_nonelectrostatic_energy": 12.49, 
			 "SMD_solvation_energy": 6.27 
		},
		"coords": [
			{
				"x": 0.0760964039,
				"y": -3.340077981,
				"z": -1.0810255272,
				"element": "C" 
			},
			{
				"x": 1.3816378246,
				"y": -2.7692212343,
				"z": -1.1782174611,
				"element": "O" 
			},
			{
				"x": 1.4699665517,
				"y": -1.717993244,
				"z": -2.0738846909,
				"element": "C" 
			},
			{
				"x": 1.0211318205,
				"y": -0.4304938164,
				"z": -1.7310380854,
				"element": "C" 
			},
			{
				"x": 0.4240347807,
				"y": -0.1776129784,
				"z": -0.5156155966,
				"element": "O" 
			},
			{
				"x": 1.2955587178,
				"y": -0.2513403892,
				"z": 0.6246878742,
				"element": "C" 
			},
			{
				"x": 0.5753574697,
				"y": 0.3253593962,
				"z": 1.8357902002,
				"element": "C" 
			},
			{
				"x": -0.8195886772,
				"y": -0.2850996098,
				"z": 2.1114475248,
				"element": "C" 
			},
			{
				"x": -1.6689933296,
				"y": 0.939495314,
				"z": 2.4877224355,
				"element": "C" 
			},
			{
				"x": -1.0140064381,
				"y": 2.0284822501,
				"z": 1.6357541937,
				"element": "C" 
			},
			{
				"x": 0.3824098662,
				"y": 1.7395117411,
				"z": 1.6767600612,
				"element": "O" 
			},
			{
				"x": 1.1363237763,
				"y": 0.618543771,
				"z": -2.640811678,
				"element": "C" 
			},
			{
				"x": 1.7001150349,
				"y": 0.4137263941,
				"z": -3.9107533049,
				"element": "C" 
			},
			{
				"x": 1.863862474,
				"y": 1.4851540328,
				"z": -4.795671979,
				"element": "N" 
			},
			{
				"x": 2.1607689665,
				"y": -0.8713618982,
				"z": -4.2420545841,
				"element": "C" 
			},
			{
				"x": 2.0399551405,
				"y": -1.9182880492,
				"z": -3.3305174448,
				"element": "C" 
			},
			{
				"x": 0.141902652,
				"y": -4.1479821103,
				"z": -0.3482341545,
				"element": "H" 
			},
			{
				"x": -0.2464808415,
				"y": -3.7531443663,
				"z": -2.0459805622,
				"element": "H" 
			},
			{
				"x": -0.6595643776,
				"y": -2.6003923144,
				"z": -0.7447837101,
				"element": "H" 
			},
			{
				"x": 1.5897194312,
				"y": -1.2917304317,
				"z": 0.8105772581,
				"element": "H" 
			},
			{
				"x": 2.1991073022,
				"y": 0.3393335747,
				"z": 0.4297250576,
				"element": "H" 
			},
			{
				"x": 1.2433137471,
				"y": 0.1815608715,
				"z": 2.6982621322,
				"element": "H" 
			},
			{
				"x": -1.2087004518,
				"y": -0.7470906669,
				"z": 1.1999424029,
				"element": "H" 
			},
			{
				"x": -0.7867861788,
				"y": -1.0473151075,
				"z": 2.8946638694,
				"element": "H" 
			},
			{
				"x": -1.5580256085,
				"y": 1.1781758899,
				"z": 3.5513965727,
				"element": "H" 
			},
			{
				"x": -2.7342048776,
				"y": 0.8080356995,
				"z": 2.2754855063,
				"element": "H" 
			},
			{
				"x": -1.3860256804,
				"y": 1.9913415882,
				"z": 0.6003998327,
				"element": "H" 
			},
			{
				"x": -1.1603346905,
				"y": 3.0420359456,
				"z": 2.0228313577,
				"element": "H" 
			},
			{
				"x": 0.785344421,
				"y": 1.6000818401,
				"z": -2.3357254123,
				"element": "H" 
			},
			{
				"x": 1.2174730294,
				"y": 2.2502917266,
				"z": -4.6591625464,
				"element": "H" 
			},
			{
				"x": 1.9274953602,
				"y": 1.2229348082,
				"z": -5.7699199829,
				"element": "H" 
			},
			{
				"x": 2.6137306849,
				"y": -1.048016075,
				"z": -5.2141104688,
				"element": "H" 
			},
			{
				"x": 2.3910056963,
				"y": -2.9144045709,
				"z": -3.58283909,
				"element": "H" 
			}
		],
		 "valence_orbital": [ 
			{
				"type": "occ",
				"energy": -0.27635,
				"method": "rhf"
			},
			{
				"type": "occ",
				"energy": -0.25547,
				"method": "rhf"
			},
			{
				"type": "occ",
				"energy": -0.23868,
				"method": "rhf"
			},
			{
				"type": "occ",
				"energy": -0.23093,
				"method": "rhf"
			},
			{
				"type": "occ",
				"energy": -0.19312,
				"method": "rhf"
			},
			{
				"type": "unocc",
				"energy": 0.00773,
				"method": "rhf"
			},
			{
				"type": "unocc",
				"energy": 0.02383,
				"method": "rhf"
			},
			{
				"type": "unocc",
				"energy": 0.08014,
				"method": "rhf"
			},
			{
				"type": "unocc",
				"energy": 0.08673,
				"method": "rhf"
			},
			{
				"type": "unocc",
				"energy": 0.10203,
				"method": "rhf"
			}
		],
		"cosmo_sigma_profile": { 
			"-0.025": 0.0,
			"-0.024": 0.0,
			"-0.023": 0.0,
			"-0.022": 0.0,
			"-0.021": 0.0,
			"-0.02": 0.0,
			"-0.019": 0.0,
			"-0.018": 0.0,
			"-0.017": 0.0,
			"-0.016": 0.0,
			"-0.015": 0.0,
			"-0.014": 0.0,
			"-0.013": 0.187868271451,
			"-0.012": 2.25145654479,
			"-0.011": 2.80702721917,
			"-0.01": 2.69645275273,
			"-0.009": 3.26310757111,
			"-0.008": 3.21644541884,
			"-0.007": 2.50977642633,
			"-0.006": 5.75682624891,
			"-0.005": 10.1790338065,
			"-0.004": 26.0889607237,
			"-0.003": 31.3326401389,
			"-0.002": 35.5071983574,
			"-0.001": 26.5419180729,
			"0.0": 22.3947856789,
			"0.001": 14.1578466782,
			"0.002": 9.95548019377,
			"0.003": 10.7334845258,
			"0.004": 12.9629434424,
			"0.005": 12.7057010379,
			"0.006": 12.2990958639,
			"0.007": 5.58608461695,
			"0.008": 4.87886378459,
			"0.009": 3.87843064985,
			"0.01": 2.87377964866,
			"0.011": 3.36910649048,
			"0.012": 3.3322017644,
			"0.013": 2.17795035333,
			"0.014": 2.01342115637,
			"0.015": 0.606515313846,
			"0.016": 0.0,
			"0.017": 0.0,
			"0.018": 0.0,
			"0.019": 0.0,
			"0.02": 0.0,
			"0.021": 0.0,
			"0.022": 0.0,
			"0.023": 0.0,
			"0.024": 0.0,
			"0.025": 0.0
		}
	}
}
