{
	 "smiles": "CC1=C(C=CC(=C1)C#N)S(Cl)(=O)=O", 
	 "Tm": 338.15, 
	 "num_atms": 19, 
	 "gaussian": { 
		 "optdone": 1, 
		 "sigma_profile": "yes", 
		 "theory": "DFT", 
		 "functional": "B3LYP", 
		 "basiset": "6-31G**", 
		 "properties": { 
			 "R2extent": 4981.0243, 
			 "electric_dipole_moment_norm": 1.06459854405, 
			 "electric_quadrupole_moment_norm": 31.8683082097, 
			 "total_energy": -1371.96180851, 
			 "HOMO_LUMO_gap": 0.18644, 
			 "cosmo_polarized_energy": -12.18, 
			 "cosmo_cavitation_energy": 27.61, 
			 "cosmo_dispersion_energy": -20.1, 
			 "cosmo_repulsion_energy": 1.53, 
			 "cosmo_total_nonelectrostatic_energy": 9.04, 
			 "SMD_solvation_energy": 5.0 
		},
		"coords": [
			{
				"x": 1.7469332614,
				"y": 3.815435313,
				"z": 0.2845246808,
				"element": "C" 
			},
			{
				"x": 0.9894459112,
				"y": 2.5137491893,
				"z": 0.1934982234,
				"element": "C" 
			},
			{
				"x": 1.5927421269,
				"y": 1.2397652705,
				"z": 0.1771023228,
				"element": "C" 
			},
			{
				"x": 0.8620146005,
				"y": 0.0522509714,
				"z": 0.0844527639,
				"element": "C" 
			},
			{
				"x": -0.5246415154,
				"y": 0.103581731,
				"z": 0.0129749069,
				"element": "C" 
			},
			{
				"x": -1.1613564404,
				"y": 1.352953487,
				"z": 0.0291416668,
				"element": "C" 
			},
			{
				"x": -0.4071640666,
				"y": 2.5331726351,
				"z": 0.1167204748,
				"element": "C" 
			},
			{
				"x": -2.5923783866,
				"y": 1.4304617827,
				"z": -0.0460599247,
				"element": "C" 
			},
			{
				"x": -3.751744197,
				"y": 1.4936124451,
				"z": -0.1068277505,
				"element": "N" 
			},
			{
				"x": 3.3759077428,
				"y": 1.033480487,
				"z": 0.3099426727,
				"element": "S" 
			},
			{
				"x": 4.0090776139,
				"y": 1.6240666686,
				"z": -1.6407298973,
				"element": "Cl" 
			},
			{
				"x": 3.9316744998,
				"y": 2.0108751143,
				"z": 1.2367214923,
				"element": "O" 
			},
			{
				"x": 3.6799307504,
				"y": -0.3868438375,
				"z": 0.4217378364,
				"element": "O" 
			},
			{
				"x": 2.2682580673,
				"y": 3.901270204,
				"z": 1.2411221802,
				"element": "H" 
			},
			{
				"x": 1.058763745,
				"y": 4.6566607766,
				"z": 0.1807468215,
				"element": "H" 
			},
			{
				"x": 2.5063786972,
				"y": 3.8943731474,
				"z": -0.4987118491,
				"element": "H" 
			},
			{
				"x": 1.3831770878,
				"y": -0.8974846937,
				"z": 0.0741235374,
				"element": "H" 
			},
			{
				"x": -1.1082056447,
				"y": -0.8073276152,
				"z": -0.0552228258,
				"element": "H" 
			},
			{
				"x": -0.9215138534,
				"y": 3.4883469234,
				"z": 0.1248426674,
				"element": "H" 
			}
		],
		 "valence_orbital": [ 
			{
				"type": "occ",
				"energy": -0.34685,
				"method": "rhf"
			},
			{
				"type": "occ",
				"energy": -0.34343,
				"method": "rhf"
			},
			{
				"type": "occ",
				"energy": -0.32667,
				"method": "rhf"
			},
			{
				"type": "occ",
				"energy": -0.3015,
				"method": "rhf"
			},
			{
				"type": "occ",
				"energy": -0.29572,
				"method": "rhf"
			},
			{
				"type": "unocc",
				"energy": -0.10928,
				"method": "rhf"
			},
			{
				"type": "unocc",
				"energy": -0.07737,
				"method": "rhf"
			},
			{
				"type": "unocc",
				"energy": -0.05349,
				"method": "rhf"
			},
			{
				"type": "unocc",
				"energy": 0.0135,
				"method": "rhf"
			},
			{
				"type": "unocc",
				"energy": 0.02071,
				"method": "rhf"
			}
		],
		"cosmo_sigma_profile": { 
			"-0.025": 0.0,
			"-0.024": 0.0,
			"-0.023": 0.0,
			"-0.022": 0.0,
			"-0.021": 0.0,
			"-0.02": 0.0,
			"-0.019": 0.0,
			"-0.018": 0.0,
			"-0.017": 0.0,
			"-0.016": 0.0,
			"-0.015": 0.0,
			"-0.014": 0.0,
			"-0.013": 0.0,
			"-0.012": 0.0,
			"-0.011": 0.0,
			"-0.01": 0.501474033721,
			"-0.009": 6.91019499633,
			"-0.008": 7.55282734585,
			"-0.007": 6.06420416479,
			"-0.006": 7.27298629678,
			"-0.005": 10.0120554479,
			"-0.004": 14.8644152818,
			"-0.003": 21.2298763724,
			"-0.002": 25.5680341445,
			"-0.001": 23.7904207024,
			"0.0": 12.2768162761,
			"0.001": 10.462828922,
			"0.002": 11.9723897724,
			"0.003": 14.3495644243,
			"0.004": 7.12788544329,
			"0.005": 5.00026307256,
			"0.006": 7.48667177597,
			"0.007": 9.50945637124,
			"0.008": 11.1657947917,
			"0.009": 5.37729775096,
			"0.01": 2.71781097084,
			"0.011": 2.4569469017,
			"0.012": 1.86321582518,
			"0.013": 0.161671003277,
			"0.014": 0.0,
			"0.015": 0.0,
			"0.016": 0.0,
			"0.017": 0.0,
			"0.018": 0.0,
			"0.019": 0.0,
			"0.02": 0.0,
			"0.021": 0.0,
			"0.022": 0.0,
			"0.023": 0.0,
			"0.024": 0.0,
			"0.025": 0.0
		}
	}
}
