{
	 "smiles": "NC(=NO)C1=CN=C(C=C1)N1CCN(CC1)C1=CC=C(F)C=C1", 
	 "Tm": 465.15, 
	 "num_atms": 41, 
	 "gaussian": { 
		 "optdone": 1, 
		 "sigma_profile": "yes", 
		 "theory": "DFT", 
		 "functional": "B3LYP", 
		 "basiset": "6-31G**", 
		 "properties": { 
			 "R2extent": 14562.5893, 
			 "electric_dipole_moment_norm": 3.20652250889, 
			 "electric_quadrupole_moment_norm": 19.9232286633, 
			 "total_energy": -1069.30713536, 
			 "HOMO_LUMO_gap": 0.16893, 
			 "cosmo_polarized_energy": -18.55, 
			 "cosmo_cavitation_energy": 43.99, 
			 "cosmo_dispersion_energy": -32.31, 
			 "cosmo_repulsion_energy": 2.41, 
			 "cosmo_total_nonelectrostatic_energy": 14.08, 
			 "SMD_solvation_energy": 4.98 
		},
		"coords": [
			{
				"x": -3.6825665427,
				"y": 1.4743436169,
				"z": 5.4971486934,
				"element": "N" 
			},
			{
				"x": -2.9751869233,
				"y": 0.3309207852,
				"z": 5.1600742957,
				"element": "C" 
			},
			{
				"x": -2.9369908964,
				"y": -0.7382029096,
				"z": 5.8894707403,
				"element": "N" 
			},
			{
				"x": -3.6131274061,
				"y": -0.4991611562,
				"z": 7.1219799831,
				"element": "O" 
			},
			{
				"x": -2.2723153136,
				"y": 0.3107195398,
				"z": 3.8632282374,
				"element": "C" 
			},
			{
				"x": -1.1796770533,
				"y": -0.5388377518,
				"z": 3.6386655071,
				"element": "C" 
			},
			{
				"x": -0.5009797468,
				"y": -0.6062328389,
				"z": 2.496572591,
				"element": "N" 
			},
			{
				"x": -0.8741821287,
				"y": 0.1861287293,
				"z": 1.4696894831,
				"element": "C" 
			},
			{
				"x": -1.9696467423,
				"y": 1.0766846923,
				"z": 1.5870204483,
				"element": "C" 
			},
			{
				"x": -2.6581073644,
				"y": 1.1271858029,
				"z": 2.7882613813,
				"element": "C" 
			},
			{
				"x": -0.1392965199,
				"y": 0.0910089273,
				"z": 0.3095280559,
				"element": "N" 
			},
			{
				"x": -0.4564637367,
				"y": 0.9127276789,
				"z": -0.8512104415,
				"element": "C" 
			},
			{
				"x": 0.6034700121,
				"y": 0.7569487541,
				"z": -1.9444650262,
				"element": "C" 
			},
			{
				"x": 0.7834601983,
				"y": -0.638160954,
				"z": -2.3067210879,
				"element": "N" 
			},
			{
				"x": 0.7678915921,
				"y": -1.6135637541,
				"z": -1.2147616155,
				"element": "C" 
			},
			{
				"x": 0.8986945869,
				"y": -0.921528605,
				"z": 0.1421407218,
				"element": "C" 
			},
			{
				"x": 1.2630413763,
				"y": -1.0004673776,
				"z": -3.564761142,
				"element": "C" 
			},
			{
				"x": 1.7514274016,
				"y": -0.0447528985,
				"z": -4.4821197595,
				"element": "C" 
			},
			{
				"x": 2.205746816,
				"y": -0.4233499815,
				"z": -5.7446489212,
				"element": "C" 
			},
			{
				"x": 2.1927693808,
				"y": -1.7638238143,
				"z": -6.1037832912,
				"element": "C" 
			},
			{
				"x": 2.6403747049,
				"y": -2.1315995268,
				"z": -7.3278873724,
				"element": "F" 
			},
			{
				"x": 1.7300134433,
				"y": -2.7339570841,
				"z": -5.2243812456,
				"element": "C" 
			},
			{
				"x": 1.2654996297,
				"y": -2.3548273209,
				"z": -3.9672420378,
				"element": "C" 
			},
			{
				"x": -3.2554137117,
				"y": 2.3447733784,
				"z": 5.2129600759,
				"element": "H" 
			},
			{
				"x": -4.004866039,
				"y": 1.4700023155,
				"z": 6.4561403209,
				"element": "H" 
			},
			{
				"x": -3.5300130739,
				"y": -1.3538772428,
				"z": 7.5608133651,
				"element": "H" 
			},
			{
				"x": -0.8433322106,
				"y": -1.1909935714,
				"z": 4.4408848863,
				"element": "H" 
			},
			{
				"x": -2.2885336936,
				"y": 1.6929119501,
				"z": 0.7559580707,
				"element": "H" 
			},
			{
				"x": -3.5190113464,
				"y": 1.7821070206,
				"z": 2.8870237514,
				"element": "H" 
			},
			{
				"x": -0.5011958348,
				"y": 1.9725155939,
				"z": -0.5660814796,
				"element": "H" 
			},
			{
				"x": -1.4407648523,
				"y": 0.642913264,
				"z": -1.2644474702,
				"element": "H" 
			},
			{
				"x": 1.5437218003,
				"y": 1.237011785,
				"z": -1.6225241856,
				"element": "H" 
			},
			{
				"x": 0.2478785078,
				"y": 1.3095734292,
				"z": -2.8186789644,
				"element": "H" 
			},
			{
				"x": -0.1550365878,
				"y": -2.2135711438,
				"z": -1.2287871252,
				"element": "H" 
			},
			{
				"x": 1.6097608481,
				"y": -2.3080928914,
				"z": -1.3292639819,
				"element": "H" 
			},
			{
				"x": 1.8984182216,
				"y": -0.4731261582,
				"z": 0.2359147656,
				"element": "H" 
			},
			{
				"x": 0.793624585,
				"y": -1.6469284685,
				"z": 0.9481834677,
				"element": "H" 
			},
			{
				"x": 1.804379607,
				"y": 1.0026025925,
				"z": -4.209848483,
				"element": "H" 
			},
			{
				"x": 2.5833992295,
				"y": 0.3152629364,
				"z": -6.4439550689,
				"element": "H" 
			},
			{
				"x": 1.7242986103,
				"y": -3.7752380384,
				"z": -5.5290969922,
				"element": "H" 
			},
			{
				"x": 0.8783371729,
				"y": -3.1196493048,
				"z": -3.3041931501,
				"element": "H" 
			}
		],
		 "valence_orbital": [ 
			{
				"type": "occ",
				"energy": -0.25405,
				"method": "rhf"
			},
			{
				"type": "occ",
				"energy": -0.25338,
				"method": "rhf"
			},
			{
				"type": "occ",
				"energy": -0.22372,
				"method": "rhf"
			},
			{
				"type": "occ",
				"energy": -0.19408,
				"method": "rhf"
			},
			{
				"type": "occ",
				"energy": -0.18933,
				"method": "rhf"
			},
			{
				"type": "unocc",
				"energy": -0.0204,
				"method": "rhf"
			},
			{
				"type": "unocc",
				"energy": -0.01308,
				"method": "rhf"
			},
			{
				"type": "unocc",
				"energy": -0.00606,
				"method": "rhf"
			},
			{
				"type": "unocc",
				"energy": 0.02151,
				"method": "rhf"
			},
			{
				"type": "unocc",
				"energy": 0.06177,
				"method": "rhf"
			}
		],
		"cosmo_sigma_profile": { 
			"-0.025": 0.0,
			"-0.024": 0.0,
			"-0.023": 0.0,
			"-0.022": 0.0,
			"-0.021": 0.0,
			"-0.02": 0.0,
			"-0.019": 0.0,
			"-0.018": 0.0,
			"-0.017": 0.340743687759,
			"-0.016": 0.8317569085,
			"-0.015": 1.01554491287,
			"-0.014": 0.738499449588,
			"-0.013": 1.64116634094,
			"-0.012": 2.2349093086,
			"-0.011": 1.88348595553,
			"-0.01": 2.75758852134,
			"-0.009": 2.87014170765,
			"-0.008": 2.9121625725,
			"-0.007": 5.45498048971,
			"-0.006": 16.7974972246,
			"-0.005": 24.5588042818,
			"-0.004": 40.3329557308,
			"-0.003": 29.3859560559,
			"-0.002": 18.0557136372,
			"-0.001": 15.9590938768,
			"0.0": 14.518610721,
			"0.001": 17.7568293155,
			"0.002": 25.6697987191,
			"0.003": 26.1878763144,
			"0.004": 24.8344420809,
			"0.005": 27.5951459084,
			"0.006": 13.6162635628,
			"0.007": 6.33780868087,
			"0.008": 6.23259343671,
			"0.009": 6.25286032476,
			"0.01": 4.30079141155,
			"0.011": 3.74408026941,
			"0.012": 1.77311573557,
			"0.013": 1.26680220094,
			"0.014": 0.697512706521,
			"0.015": 0.0642237824486,
			"0.016": 0.0,
			"0.017": 0.0,
			"0.018": 0.0,
			"0.019": 0.0,
			"0.02": 0.0,
			"0.021": 0.0,
			"0.022": 0.0,
			"0.023": 0.0,
			"0.024": 0.0,
			"0.025": 0.0
		}
	}
}
