{
	 "smiles": "CC(C)C(O)C(N)C(O)=O", 
	 "Tm": 499.15, 
	 "num_atms": 23, 
	 "gaussian": { 
		 "optdone": 1, 
		 "sigma_profile": "yes", 
		 "theory": "DFT", 
		 "functional": "B3LYP", 
		 "basiset": "6-31G**", 
		 "properties": { 
			 "R2extent": 1782.4559, 
			 "electric_dipole_moment_norm": 4.12669530496, 
			 "electric_quadrupole_moment_norm": 13.1087217314, 
			 "total_energy": -516.913042858, 
			 "HOMO_LUMO_gap": 0.26274, 
			 "cosmo_polarized_energy": -14.12, 
			 "cosmo_cavitation_energy": 24.49, 
			 "cosmo_dispersion_energy": -17.82, 
			 "cosmo_repulsion_energy": 1.46, 
			 "cosmo_total_nonelectrostatic_energy": 8.13, 
			 "SMD_solvation_energy": 4.98 
		},
		"coords": [
			{
				"x": 2.4252278637,
				"y": 0.0666468975,
				"z": 0.5874137732,
				"element": "C" 
			},
			{
				"x": 1.2906438406,
				"y": 0.7248647737,
				"z": -0.2106943086,
				"element": "C" 
			},
			{
				"x": 1.2547500242,
				"y": 0.2214354286,
				"z": -1.6622802062,
				"element": "C" 
			},
			{
				"x": -0.0544082762,
				"y": 0.6485435235,
				"z": 0.5397498763,
				"element": "C" 
			},
			{
				"x": -1.0335730587,
				"y": 1.3417144559,
				"z": -0.2425230192,
				"element": "O" 
			},
			{
				"x": -0.6056820061,
				"y": -0.7523467104,
				"z": 0.8813959999,
				"element": "C" 
			},
			{
				"x": -1.1067348442,
				"y": -1.5416932271,
				"z": -0.2551866943,
				"element": "N" 
			},
			{
				"x": -1.7751797329,
				"y": -0.601838593,
				"z": 1.889625153,
				"element": "C" 
			},
			{
				"x": -2.7239712067,
				"y": -1.5294160055,
				"z": 1.7394508028,
				"element": "O" 
			},
			{
				"x": -1.81944634,
				"y": 0.2688322486,
				"z": 2.7323910036,
				"element": "O" 
			},
			{
				"x": 2.4606941451,
				"y": 0.4311181176,
				"z": 1.6200325497,
				"element": "H" 
			},
			{
				"x": 2.321631728,
				"y": -1.0247181569,
				"z": 0.6204896018,
				"element": "H" 
			},
			{
				"x": 3.393769672,
				"y": 0.2825729281,
				"z": 0.1253703846,
				"element": "H" 
			},
			{
				"x": 1.4991628883,
				"y": 1.8021490366,
				"z": -0.2592772165,
				"element": "H" 
			},
			{
				"x": 1.1889738299,
				"y": -0.8706771135,
				"z": -1.7224942623,
				"element": "H" 
			},
			{
				"x": 2.1736690752,
				"y": 0.5129835563,
				"z": -2.1817471655,
				"element": "H" 
			},
			{
				"x": 0.4098939716,
				"y": 0.6506041912,
				"z": -2.2069395799,
				"element": "H" 
			},
			{
				"x": 0.0812902488,
				"y": 1.1573400228,
				"z": 1.5020284242,
				"element": "H" 
			},
			{
				"x": -1.7084105709,
				"y": 1.6661161938,
				"z": 0.3697141881,
				"element": "H" 
			},
			{
				"x": 0.1620930254,
				"y": -1.3373967176,
				"z": 1.4023820599,
				"element": "H" 
			},
			{
				"x": -0.3701704123,
				"y": -2.0822835202,
				"z": -0.6950876022,
				"element": "H" 
			},
			{
				"x": -1.4759677649,
				"y": -0.8946118986,
				"z": -0.9509770842,
				"element": "H" 
			},
			{
				"x": -2.4529560999,
				"y": -2.0148394313,
				"z": 0.9186633216,
				"element": "H" 
			}
		],
		 "valence_orbital": [ 
			{
				"type": "occ",
				"energy": -0.32177,
				"method": "rhf"
			},
			{
				"type": "occ",
				"energy": -0.30604,
				"method": "rhf"
			},
			{
				"type": "occ",
				"energy": -0.30313,
				"method": "rhf"
			},
			{
				"type": "occ",
				"energy": -0.28125,
				"method": "rhf"
			},
			{
				"type": "occ",
				"energy": -0.25178,
				"method": "rhf"
			},
			{
				"type": "unocc",
				"energy": 0.01096,
				"method": "rhf"
			},
			{
				"type": "unocc",
				"energy": 0.05222,
				"method": "rhf"
			},
			{
				"type": "unocc",
				"energy": 0.07978,
				"method": "rhf"
			},
			{
				"type": "unocc",
				"energy": 0.09401,
				"method": "rhf"
			},
			{
				"type": "unocc",
				"energy": 0.10948,
				"method": "rhf"
			}
		],
		"cosmo_sigma_profile": { 
			"-0.025": 0.0,
			"-0.024": 0.0,
			"-0.023": 0.0,
			"-0.022": 0.0,
			"-0.021": 0.0,
			"-0.02": 0.0,
			"-0.019": 0.0,
			"-0.018": 0.0,
			"-0.017": 0.0,
			"-0.016": 0.0,
			"-0.015": 0.172449327571,
			"-0.014": 0.476884428797,
			"-0.013": 0.876987975821,
			"-0.012": 0.99451294889,
			"-0.011": 1.98939205827,
			"-0.01": 2.267021393,
			"-0.009": 4.02196139609,
			"-0.008": 4.91058644627,
			"-0.007": 8.61811313856,
			"-0.006": 7.09524712588,
			"-0.005": 8.81336048286,
			"-0.004": 10.1790722705,
			"-0.003": 15.6884950231,
			"-0.002": 16.6209930357,
			"-0.001": 18.1584382815,
			"0.0": 15.6250315352,
			"0.001": 16.3666643053,
			"0.002": 8.71795326749,
			"0.003": 3.86245399241,
			"0.004": 3.75207265741,
			"0.005": 3.79823796003,
			"0.006": 3.49358017569,
			"0.007": 3.70886346794,
			"0.008": 3.97664884031,
			"0.009": 4.2706938215,
			"0.01": 4.46581970091,
			"0.011": 5.93972358167,
			"0.012": 6.23212242343,
			"0.013": 3.5905924757,
			"0.014": 0.660442735189,
			"0.015": 0.0,
			"0.016": 0.0,
			"0.017": 0.0,
			"0.018": 0.0,
			"0.019": 0.0,
			"0.02": 0.0,
			"0.021": 0.0,
			"0.022": 0.0,
			"0.023": 0.0,
			"0.024": 0.0,
			"0.025": 0.0
		}
	}
}
