{
	 "smiles": "CC(=O)C1=CC(=CC=C1)S(=O)(=O)NCC(O)=O", 
	 "Tm": 462.15, 
	 "num_atms": 28, 
	 "gaussian": { 
		 "optdone": 1, 
		 "sigma_profile": "yes", 
		 "theory": "DFT", 
		 "functional": "B3LYP", 
		 "basiset": "6-31G**", 
		 "properties": { 
			 "R2extent": 6324.2094, 
			 "electric_dipole_moment_norm": 3.97721446618, 
			 "electric_quadrupole_moment_norm": 32.4669994043, 
			 "total_energy": -1216.69259025, 
			 "HOMO_LUMO_gap": 0.18926, 
			 "cosmo_polarized_energy": -23.94, 
			 "cosmo_cavitation_energy": 34.85, 
			 "cosmo_dispersion_energy": -24.69, 
			 "cosmo_repulsion_energy": 1.9, 
			 "cosmo_total_nonelectrostatic_energy": 12.06, 
			 "SMD_solvation_energy": 6.58 
		},
		"coords": [
			{
				"x": -5.2935219261,
				"y": -0.4107089306,
				"z": -2.4142653498,
				"element": "C" 
			},
			{
				"x": -4.468359347,
				"y": 0.0243482545,
				"z": -1.217060324,
				"element": "C" 
			},
			{
				"x": -4.9114548185,
				"y": -0.0646813721,
				"z": -0.0837574508,
				"element": "O" 
			},
			{
				"x": -3.0856715636,
				"y": 0.5707440453,
				"z": -1.4483074432,
				"element": "C" 
			},
			{
				"x": -2.3585235186,
				"y": 0.9966959769,
				"z": -0.3298516746,
				"element": "C" 
			},
			{
				"x": -1.0725028556,
				"y": 1.500356237,
				"z": -0.501223194,
				"element": "C" 
			},
			{
				"x": -0.4889542115,
				"y": 1.6023983978,
				"z": -1.766098847,
				"element": "C" 
			},
			{
				"x": -1.2165844578,
				"y": 1.1802716509,
				"z": -2.8800098723,
				"element": "C" 
			},
			{
				"x": -2.5039496715,
				"y": 0.6683010136,
				"z": -2.7226944351,
				"element": "C" 
			},
			{
				"x": -0.1567066566,
				"y": 2.0922570408,
				"z": 0.9279618546,
				"element": "S" 
			},
			{
				"x": -1.0154361853,
				"y": 2.9719363316,
				"z": 1.7226695387,
				"element": "O" 
			},
			{
				"x": 1.1579062857,
				"y": 2.5278445385,
				"z": 0.4394034329,
				"element": "O" 
			},
			{
				"x": 0.000710822,
				"y": 0.6802386941,
				"z": 1.8583576339,
				"element": "N" 
			},
			{
				"x": 1.2095428055,
				"y": -0.1144902276,
				"z": 1.6588115906,
				"element": "C" 
			},
			{
				"x": 2.510613086,
				"y": 0.4513674065,
				"z": 2.2209519512,
				"element": "C" 
			},
			{
				"x": 2.2886766903,
				"y": 1.2941485093,
				"z": 3.253157171,
				"element": "O" 
			},
			{
				"x": 3.609354103,
				"y": 0.1294895992,
				"z": 1.8366383045,
				"element": "O" 
			},
			{
				"x": -4.7921051304,
				"y": -1.213388005,
				"z": -2.9665500789,
				"element": "H" 
			},
			{
				"x": -6.2610148374,
				"y": -0.7666281282,
				"z": -2.0598470649,
				"element": "H" 
			},
			{
				"x": -5.4445755602,
				"y": 0.4212070415,
				"z": -3.1110626392,
				"element": "H" 
			},
			{
				"x": -2.8159542919,
				"y": 0.9226568619,
				"z": 0.6505121125,
				"element": "H" 
			},
			{
				"x": 0.5115581137,
				"y": 2.0093038867,
				"z": -1.861940911,
				"element": "H" 
			},
			{
				"x": -0.7774936891,
				"y": 1.2528411849,
				"z": -3.8700550957,
				"element": "H" 
			},
			{
				"x": -3.0553743385,
				"y": 0.3441342888,
				"z": -3.5991149762,
				"element": "H" 
			},
			{
				"x": -0.1549534167,
				"y": 0.9470312776,
				"z": 2.8284529352,
				"element": "H" 
			},
			{
				"x": 1.0478024821,
				"y": -1.0918162736,
				"z": 2.1290782339,
				"element": "H" 
			},
			{
				"x": 1.3644117731,
				"y": -0.2995357544,
				"z": 0.5945945858,
				"element": "H" 
			},
			{
				"x": 3.1584603147,
				"y": 1.610576454,
				"z": 3.5493500117,
				"element": "H" 
			}
		],
		 "valence_orbital": [ 
			{
				"type": "occ",
				"energy": -0.30792,
				"method": "rhf"
			},
			{
				"type": "occ",
				"energy": -0.28639,
				"method": "rhf"
			},
			{
				"type": "occ",
				"energy": -0.28017,
				"method": "rhf"
			},
			{
				"type": "occ",
				"energy": -0.26463,
				"method": "rhf"
			},
			{
				"type": "occ",
				"energy": -0.26254,
				"method": "rhf"
			},
			{
				"type": "unocc",
				"energy": -0.07328,
				"method": "rhf"
			},
			{
				"type": "unocc",
				"energy": -0.04766,
				"method": "rhf"
			},
			{
				"type": "unocc",
				"energy": 7e-05,
				"method": "rhf"
			},
			{
				"type": "unocc",
				"energy": 0.01569,
				"method": "rhf"
			},
			{
				"type": "unocc",
				"energy": 0.05082,
				"method": "rhf"
			}
		],
		"cosmo_sigma_profile": { 
			"-0.025": 0.0,
			"-0.024": 0.0,
			"-0.023": 0.0,
			"-0.022": 0.0,
			"-0.021": 0.0,
			"-0.02": 0.0,
			"-0.019": 0.443048870982,
			"-0.018": 0.968877046018,
			"-0.017": 1.09735560291,
			"-0.016": 0.914340287847,
			"-0.015": 0.896197679861,
			"-0.014": 1.13410105034,
			"-0.013": 0.564928381304,
			"-0.012": 1.66148746353,
			"-0.011": 2.21520970379,
			"-0.01": 2.11953148861,
			"-0.009": 4.70919341922,
			"-0.008": 7.42418091368,
			"-0.007": 17.1662013351,
			"-0.006": 19.3572555735,
			"-0.005": 14.6473304437,
			"-0.004": 15.3479797179,
			"-0.003": 15.9268000707,
			"-0.002": 17.961173012,
			"-0.001": 16.2997272254,
			"0.0": 16.8653897399,
			"0.001": 19.4395724607,
			"0.002": 12.3878991581,
			"0.003": 7.49969795555,
			"0.004": 7.88106704892,
			"0.005": 9.17564271133,
			"0.006": 7.77521198021,
			"0.007": 6.03842245185,
			"0.008": 6.8673665284,
			"0.009": 9.34193325542,
			"0.01": 12.045706973,
			"0.011": 14.9853010426,
			"0.012": 5.45431261981,
			"0.013": 0.698837689594,
			"0.014": 0.0,
			"0.015": 0.0,
			"0.016": 0.0,
			"0.017": 0.0,
			"0.018": 0.0,
			"0.019": 0.0,
			"0.02": 0.0,
			"0.021": 0.0,
			"0.022": 0.0,
			"0.023": 0.0,
			"0.024": 0.0,
			"0.025": 0.0
		}
	}
}
