{
	 "smiles": "OC(=O)C1=C2C=CC=CC2=NC(Cl)=C1", 
	 "Tm": 461.15, 
	 "num_atms": 20, 
	 "gaussian": { 
		 "optdone": 1, 
		 "sigma_profile": "yes", 
		 "theory": "DFT", 
		 "functional": "B3LYP", 
		 "basiset": "6-31G**", 
		 "properties": { 
			 "R2extent": 3881.2927, 
			 "electric_dipole_moment_norm": 4.56749659661, 
			 "electric_quadrupole_moment_norm": 12.6582826545, 
			 "total_energy": -1050.08256564, 
			 "HOMO_LUMO_gap": 0.16714, 
			 "cosmo_polarized_energy": -14.06, 
			 "cosmo_cavitation_energy": 26.72, 
			 "cosmo_dispersion_energy": -20.01, 
			 "cosmo_repulsion_energy": 1.56, 
			 "cosmo_total_nonelectrostatic_energy": 8.27, 
			 "SMD_solvation_energy": 3.78 
		},
		"coords": [
			{
				"x": 2.0231391028,
				"y": 2.2461743991,
				"z": 2.4776009052,
				"element": "O" 
			},
			{
				"x": 2.5281255725,
				"y": 0.9920128792,
				"z": 2.3501376474,
				"element": "C" 
			},
			{
				"x": 3.4657889582,
				"y": 0.6391334947,
				"z": 3.0203201741,
				"element": "O" 
			},
			{
				"x": 1.8858094007,
				"y": 0.1103077646,
				"z": 1.307738698,
				"element": "C" 
			},
			{
				"x": 0.4771127528,
				"y": 0.0582827298,
				"z": 1.0454391099,
				"element": "C" 
			},
			{
				"x": -0.5191840146,
				"y": 0.7464483113,
				"z": 1.7923297716,
				"element": "C" 
			},
			{
				"x": -1.8526431425,
				"y": 0.6272013248,
				"z": 1.4606932697,
				"element": "C" 
			},
			{
				"x": -2.258033992,
				"y": -0.1832883453,
				"z": 0.3755876041,
				"element": "C" 
			},
			{
				"x": -1.3226196987,
				"y": -0.8839159539,
				"z": -0.3525740146,
				"element": "C" 
			},
			{
				"x": 0.0552072011,
				"y": -0.7907214947,
				"z": -0.0314823873,
				"element": "C" 
			},
			{
				"x": 0.9298217635,
				"y": -1.5362626976,
				"z": -0.7712272514,
				"element": "N" 
			},
			{
				"x": 2.1901450552,
				"y": -1.483349767,
				"z": -0.4576220741,
				"element": "C" 
			},
			{
				"x": 3.3033491206,
				"y": -2.4653478334,
				"z": -1.4033853838,
				"element": "Cl" 
			},
			{
				"x": 2.7389349023,
				"y": -0.6859524144,
				"z": 0.5763951118,
				"element": "C" 
			},
			{
				"x": 1.355749671,
				"y": 2.4114669396,
				"z": 1.7952290602,
				"element": "H" 
			},
			{
				"x": -0.235829047,
				"y": 1.3417902791,
				"z": 2.6538876898,
				"element": "H" 
			},
			{
				"x": -2.5995853508,
				"y": 1.1534026609,
				"z": 2.0472131238,
				"element": "H" 
			},
			{
				"x": -3.3120683439,
				"y": -0.2625806458,
				"z": 0.1277917714,
				"element": "H" 
			},
			{
				"x": -1.601404653,
				"y": -1.5307742953,
				"z": -1.1773525404,
				"element": "H" 
			},
			{
				"x": 3.8024847416,
				"y": -0.6859273357,
				"z": 0.7794797148,
				"element": "H" 
			}
		],
		 "valence_orbital": [ 
			{
				"type": "occ",
				"energy": -0.32379,
				"method": "rhf"
			},
			{
				"type": "occ",
				"energy": -0.29582,
				"method": "rhf"
			},
			{
				"type": "occ",
				"energy": -0.28684,
				"method": "rhf"
			},
			{
				"type": "occ",
				"energy": -0.27075,
				"method": "rhf"
			},
			{
				"type": "occ",
				"energy": -0.25801,
				"method": "rhf"
			},
			{
				"type": "unocc",
				"energy": -0.09087,
				"method": "rhf"
			},
			{
				"type": "unocc",
				"energy": -0.04511,
				"method": "rhf"
			},
			{
				"type": "unocc",
				"energy": -0.02837,
				"method": "rhf"
			},
			{
				"type": "unocc",
				"energy": 0.01619,
				"method": "rhf"
			},
			{
				"type": "unocc",
				"energy": 0.02997,
				"method": "rhf"
			}
		],
		"cosmo_sigma_profile": { 
			"-0.025": 0.0,
			"-0.024": 0.0,
			"-0.023": 0.0,
			"-0.022": 0.0,
			"-0.021": 0.0,
			"-0.02": 0.0,
			"-0.019": 0.0,
			"-0.018": 0.87057740607,
			"-0.017": 0.575352130719,
			"-0.016": 0.867722390422,
			"-0.015": 0.803348613443,
			"-0.014": 1.44938645593,
			"-0.013": 0.8076142335,
			"-0.012": 0.91398108099,
			"-0.011": 1.2857386675,
			"-0.01": 0.521298578419,
			"-0.009": 1.27338180066,
			"-0.008": 3.10583406725,
			"-0.007": 9.8593000934,
			"-0.006": 12.5147743592,
			"-0.005": 12.8301519951,
			"-0.004": 8.93174230831,
			"-0.003": 13.3126484606,
			"-0.002": 16.5724423922,
			"-0.001": 15.0536284201,
			"0.0": 14.1763251919,
			"0.001": 17.789845981,
			"0.002": 18.0847535484,
			"0.003": 15.7233853061,
			"0.004": 11.5855454496,
			"0.005": 6.39085319347,
			"0.006": 4.22539966485,
			"0.007": 3.79655462631,
			"0.008": 4.29569724916,
			"0.009": 6.23426731346,
			"0.01": 6.05686643144,
			"0.011": 5.61229726061,
			"0.012": 2.06299172195,
			"0.013": 0.537019185252,
			"0.014": 0.0471472277016,
			"0.015": 0.0,
			"0.016": 0.0,
			"0.017": 0.0,
			"0.018": 0.0,
			"0.019": 0.0,
			"0.02": 0.0,
			"0.021": 0.0,
			"0.022": 0.0,
			"0.023": 0.0,
			"0.024": 0.0,
			"0.025": 0.0
		}
	}
}
