{
	 "smiles": "NC1=C(C(=O)C2=CC=C(F)C=C2)C2=C(CCC2)S1", 
	 "Tm": 413.15, 
	 "num_atms": 30, 
	 "gaussian": { 
		 "optdone": 1, 
		 "sigma_profile": "yes", 
		 "theory": "DFT", 
		 "functional": "B3LYP", 
		 "basiset": "6-31G**", 
		 "properties": { 
			 "R2extent": 7948.694, 
			 "electric_dipole_moment_norm": 2.57325401195, 
			 "electric_quadrupole_moment_norm": 11.2599403671, 
			 "total_energy": -1168.70901314, 
			 "HOMO_LUMO_gap": 0.14002, 
			 "cosmo_polarized_energy": -12.59, 
			 "cosmo_cavitation_energy": 35.03, 
			 "cosmo_dispersion_energy": -25.82, 
			 "cosmo_repulsion_energy": 1.94, 
			 "cosmo_total_nonelectrostatic_energy": 11.14, 
			 "SMD_solvation_energy": 5.72 
		},
		"coords": [
			{
				"x": 2.287887214,
				"y": 1.6007126405,
				"z": -2.7224457108,
				"element": "N" 
			},
			{
				"x": 1.9585507201,
				"y": 1.0441686455,
				"z": -1.501432142,
				"element": "C" 
			},
			{
				"x": 0.7131427824,
				"y": 0.7764033019,
				"z": -0.9337771742,
				"element": "C" 
			},
			{
				"x": -0.6144765828,
				"y": 0.9133597345,
				"z": -1.566559594,
				"element": "C" 
			},
			{
				"x": -1.5331393062,
				"y": 0.1558404201,
				"z": -1.2533057738,
				"element": "O" 
			},
			{
				"x": -0.8870076953,
				"y": 1.9912386297,
				"z": -2.5797172712,
				"element": "C" 
			},
			{
				"x": -0.2726775638,
				"y": 3.2527473509,
				"z": -2.5271416441,
				"element": "C" 
			},
			{
				"x": -0.6308653378,
				"y": 4.2575283861,
				"z": -3.4256933291,
				"element": "C" 
			},
			{
				"x": -1.6042174627,
				"y": 3.9816342801,
				"z": -4.3797064344,
				"element": "C" 
			},
			{
				"x": -1.947498121,
				"y": 4.9440314982,
				"z": -5.2573205796,
				"element": "F" 
			},
			{
				"x": -2.2395256937,
				"y": 2.7439863991,
				"z": -4.4559008047,
				"element": "C" 
			},
			{
				"x": -1.8852631634,
				"y": 1.7584733824,
				"z": -3.5411387166,
				"element": "C" 
			},
			{
				"x": 0.870741653,
				"y": 0.1478293959,
				"z": 0.3596486648,
				"element": "C" 
			},
			{
				"x": 2.1548454362,
				"y": -0.0154612883,
				"z": 0.7577964701,
				"element": "C" 
			},
			{
				"x": 2.313584152,
				"y": -0.5739160812,
				"z": 2.1421294646,
				"element": "C" 
			},
			{
				"x": 0.8585461101,
				"y": -1.0688399256,
				"z": 2.4217986233,
				"element": "C" 
			},
			{
				"x": -0.0817976989,
				"y": -0.3091578923,
				"z": 1.4365101791,
				"element": "C" 
			},
			{
				"x": 3.2858764506,
				"y": 0.5828038726,
				"z": -0.4358301762,
				"element": "S" 
			},
			{
				"x": 1.5314134622,
				"y": 1.6649518917,
				"z": -3.3893891777,
				"element": "H" 
			},
			{
				"x": 3.1540725088,
				"y": 1.2810006669,
				"z": -3.1337422524,
				"element": "H" 
			},
			{
				"x": 0.478427838,
				"y": 3.4548937026,
				"z": -1.7707811163,
				"element": "H" 
			},
			{
				"x": -0.1768662461,
				"y": 5.2418576886,
				"z": -3.3917656977,
				"element": "H" 
			},
			{
				"x": -2.9982404463,
				"y": 2.5777190826,
				"z": -5.2130050085,
				"element": "H" 
			},
			{
				"x": -2.3808867945,
				"y": 0.7935105823,
				"z": -3.5460990189,
				"element": "H" 
			},
			{
				"x": 3.045905503,
				"y": -1.3862196182,
				"z": 2.2145756869,
				"element": "H" 
			},
			{
				"x": 2.6260608038,
				"y": 0.2007589516,
				"z": 2.8568548559,
				"element": "H" 
			},
			{
				"x": 0.5713187159,
				"y": -0.9280863919,
				"z": 3.4675706262,
				"element": "H" 
			},
			{
				"x": 0.8046275664,
				"y": -2.1416531609,
				"z": 2.2114775848,
				"element": "H" 
			},
			{
				"x": -0.8860408494,
				"y": -0.9374520622,
				"z": 1.0472944916,
				"element": "H" 
			},
			{
				"x": -0.5630979549,
				"y": 0.5535359169,
				"z": 1.9179949751,
				"element": "H" 
			}
		],
		 "valence_orbital": [ 
			{
				"type": "occ",
				"energy": -0.27051,
				"method": "rhf"
			},
			{
				"type": "occ",
				"energy": -0.25604,
				"method": "rhf"
			},
			{
				"type": "occ",
				"energy": -0.24753,
				"method": "rhf"
			},
			{
				"type": "occ",
				"energy": -0.23845,
				"method": "rhf"
			},
			{
				"type": "occ",
				"energy": -0.1948,
				"method": "rhf"
			},
			{
				"type": "unocc",
				"energy": -0.05478,
				"method": "rhf"
			},
			{
				"type": "unocc",
				"energy": -0.01984,
				"method": "rhf"
			},
			{
				"type": "unocc",
				"energy": -0.00168,
				"method": "rhf"
			},
			{
				"type": "unocc",
				"energy": 0.01391,
				"method": "rhf"
			},
			{
				"type": "unocc",
				"energy": 0.0298,
				"method": "rhf"
			}
		],
		"cosmo_sigma_profile": { 
			"-0.025": 0.0,
			"-0.024": 0.0,
			"-0.023": 0.0,
			"-0.022": 0.0,
			"-0.021": 0.0,
			"-0.02": 0.0,
			"-0.019": 0.0,
			"-0.018": 0.0,
			"-0.017": 0.0,
			"-0.016": 0.0,
			"-0.015": 0.167974456512,
			"-0.014": 1.44163427162,
			"-0.013": 1.25926214107,
			"-0.012": 1.90549576374,
			"-0.011": 3.0282673554,
			"-0.01": 2.29072497991,
			"-0.009": 2.056674717,
			"-0.008": 3.40586081067,
			"-0.007": 6.63770029372,
			"-0.006": 7.40185725151,
			"-0.005": 9.22017860466,
			"-0.004": 11.8911011563,
			"-0.003": 21.3499115091,
			"-0.002": 25.6491978276,
			"-0.001": 30.076214812,
			"0.0": 29.2765813181,
			"0.001": 24.6847040869,
			"0.002": 22.2427793145,
			"0.003": 21.2833305795,
			"0.004": 23.0618631253,
			"0.005": 9.42250803943,
			"0.006": 4.17349089263,
			"0.007": 2.57716643944,
			"0.008": 2.96328643737,
			"0.009": 2.71606305519,
			"0.01": 2.77483980727,
			"0.011": 2.25189144385,
			"0.012": 3.23357596671,
			"0.013": 2.65824578121,
			"0.014": 0.20673706271,
			"0.015": 0.0,
			"0.016": 0.0,
			"0.017": 0.0,
			"0.018": 0.0,
			"0.019": 0.0,
			"0.02": 0.0,
			"0.021": 0.0,
			"0.022": 0.0,
			"0.023": 0.0,
			"0.024": 0.0,
			"0.025": 0.0
		}
	}
}
