{
	 "smiles": "ClC1=CC=C(SC2=CC=CC=C2C=O)C=C1", 
	 "Tm": 346.15, 
	 "num_atms": 25, 
	 "gaussian": { 
		 "optdone": 1, 
		 "sigma_profile": "yes", 
		 "theory": "DFT", 
		 "functional": "B3LYP", 
		 "basiset": "6-31G**", 
		 "properties": { 
			 "R2extent": 5735.8142, 
			 "electric_dipole_moment_norm": 3.46356675408, 
			 "electric_quadrupole_moment_norm": 18.2816861676, 
			 "total_energy": -1434.39634394, 
			 "HOMO_LUMO_gap": 0.14915, 
			 "cosmo_polarized_energy": -9.32, 
			 "cosmo_cavitation_energy": 33.31, 
			 "cosmo_dispersion_energy": -23.85, 
			 "cosmo_repulsion_energy": 1.82, 
			 "cosmo_total_nonelectrostatic_energy": 11.28, 
			 "SMD_solvation_energy": 5.93 
		},
		"coords": [
			{
				"x": -4.7070716796,
				"y": 0.545550015,
				"z": -3.643698985,
				"element": "Cl" 
			},
			{
				"x": -3.2310669046,
				"y": 0.048996734,
				"z": -2.8312428122,
				"element": "C" 
			},
			{
				"x": -3.1910136969,
				"y": 0.0143704092,
				"z": -1.4377014996,
				"element": "C" 
			},
			{
				"x": -2.0215212424,
				"y": -0.3868505041,
				"z": -0.793355221,
				"element": "C" 
			},
			{
				"x": -0.8874555464,
				"y": -0.732159196,
				"z": -1.5383127424,
				"element": "C" 
			},
			{
				"x": 0.6356433992,
				"y": -1.3200769045,
				"z": -0.7921657661,
				"element": "S" 
			},
			{
				"x": 0.6652466535,
				"y": -0.505955465,
				"z": 0.8130265963,
				"element": "C" 
			},
			{
				"x": 0.5466126515,
				"y": -1.3194890332,
				"z": 1.9461103077,
				"element": "C" 
			},
			{
				"x": 0.620203811,
				"y": -0.7673110242,
				"z": 3.2266600769,
				"element": "C" 
			},
			{
				"x": 0.7991740106,
				"y": 0.6083308632,
				"z": 3.3886789881,
				"element": "C" 
			},
			{
				"x": 0.9192563076,
				"y": 1.4224383728,
				"z": 2.2667547229,
				"element": "C" 
			},
			{
				"x": 0.867431201,
				"y": 0.8828550541,
				"z": 0.9732738414,
				"element": "C" 
			},
			{
				"x": 1.0564857875,
				"y": 1.8165538834,
				"z": -0.1725775926,
				"element": "C" 
			},
			{
				"x": 1.1758982368,
				"y": 3.0201798136,
				"z": -0.0361637649,
				"element": "O" 
			},
			{
				"x": -0.9410081608,
				"y": -0.6835022666,
				"z": -2.9377752577,
				"element": "C" 
			},
			{
				"x": -2.1138574723,
				"y": -0.3024337627,
				"z": -3.5877534443,
				"element": "C" 
			},
			{
				"x": -4.0678948792,
				"y": 0.2888064182,
				"z": -0.8616374462,
				"element": "H" 
			},
			{
				"x": -1.9971530273,
				"y": -0.426953127,
				"z": 0.2903383059,
				"element": "H" 
			},
			{
				"x": 0.3918161602,
				"y": -2.3857076308,
				"z": 1.8168802264,
				"element": "H" 
			},
			{
				"x": 0.5275653284,
				"y": -1.4131935117,
				"z": 4.0949536037,
				"element": "H" 
			},
			{
				"x": 0.8473035779,
				"y": 1.0402619883,
				"z": 4.3837154509,
				"element": "H" 
			},
			{
				"x": 1.0688040333,
				"y": 2.4939781973,
				"z": 2.355717313,
				"element": "H" 
			},
			{
				"x": 1.0977104313,
				"y": 1.3496539088,
				"z": -1.1732078834,
				"element": "H" 
			},
			{
				"x": -0.0631626934,
				"y": -0.9375188015,
				"z": -3.5243456515,
				"element": "H" 
			},
			{
				"x": -2.1549462869,
				"y": -0.2645244308,
				"z": -4.6706713661,
				"element": "H" 
			}
		],
		 "valence_orbital": [ 
			{
				"type": "occ",
				"energy": -0.27569,
				"method": "rhf"
			},
			{
				"type": "occ",
				"energy": -0.27328,
				"method": "rhf"
			},
			{
				"type": "occ",
				"energy": -0.27144,
				"method": "rhf"
			},
			{
				"type": "occ",
				"energy": -0.25732,
				"method": "rhf"
			},
			{
				"type": "occ",
				"energy": -0.22501,
				"method": "rhf"
			},
			{
				"type": "unocc",
				"energy": -0.07586,
				"method": "rhf"
			},
			{
				"type": "unocc",
				"energy": -0.03561,
				"method": "rhf"
			},
			{
				"type": "unocc",
				"energy": -0.02582,
				"method": "rhf"
			},
			{
				"type": "unocc",
				"energy": -0.02028,
				"method": "rhf"
			},
			{
				"type": "unocc",
				"energy": 0.0215,
				"method": "rhf"
			}
		],
		"cosmo_sigma_profile": { 
			"-0.025": 0.0,
			"-0.024": 0.0,
			"-0.023": 0.0,
			"-0.022": 0.0,
			"-0.021": 0.0,
			"-0.02": 0.0,
			"-0.019": 0.0,
			"-0.018": 0.0,
			"-0.017": 0.0,
			"-0.016": 0.0,
			"-0.015": 0.0,
			"-0.014": 0.0,
			"-0.013": 0.0,
			"-0.012": 0.0,
			"-0.011": 0.0,
			"-0.01": 0.0,
			"-0.009": 0.0,
			"-0.008": 1.91509018282,
			"-0.007": 11.6138739641,
			"-0.006": 16.1745071691,
			"-0.005": 17.38136626,
			"-0.004": 14.6314610083,
			"-0.003": 16.1712112068,
			"-0.002": 21.7485741288,
			"-0.001": 24.1882648456,
			"0.0": 21.7294956617,
			"0.001": 24.3464371835,
			"0.002": 30.6928233882,
			"0.003": 27.3590050607,
			"0.004": 15.7208128718,
			"0.005": 10.1677435453,
			"0.006": 2.71777024846,
			"0.007": 2.83692597274,
			"0.008": 2.05078303623,
			"0.009": 1.80480158736,
			"0.01": 2.93649600732,
			"0.011": 4.16184495076,
			"0.012": 1.86183990799,
			"0.013": 0.384754429569,
			"0.014": 0.0,
			"0.015": 0.0,
			"0.016": 0.0,
			"0.017": 0.0,
			"0.018": 0.0,
			"0.019": 0.0,
			"0.02": 0.0,
			"0.021": 0.0,
			"0.022": 0.0,
			"0.023": 0.0,
			"0.024": 0.0,
			"0.025": 0.0
		}
	}
}
