{
	 "smiles": "CC1=C(C=CC=C1C#N)C#N", 
	 "Tm": 409.15, 
	 "num_atms": 17, 
	 "gaussian": { 
		 "optdone": 1, 
		 "sigma_profile": "yes", 
		 "theory": "DFT", 
		 "functional": "B3LYP", 
		 "basiset": "6-31G**", 
		 "properties": { 
			 "R2extent": 2788.9961, 
			 "electric_dipole_moment_norm": 3.37003986178, 
			 "electric_quadrupole_moment_norm": 29.8023491356, 
			 "total_energy": -456.048689438, 
			 "HOMO_LUMO_gap": 0.2048, 
			 "cosmo_polarized_energy": -12.31, 
			 "cosmo_cavitation_energy": 23.27, 
			 "cosmo_dispersion_energy": -15.86, 
			 "cosmo_repulsion_energy": 1.27, 
			 "cosmo_total_nonelectrostatic_energy": 8.68, 
			 "SMD_solvation_energy": 6.58 
		},
		"coords": [
			{
				"x": 0.1699994934,
				"y": -0.2667279567,
				"z": -0.1168542474,
				"element": "C" 
			},
			{
				"x": 0.4519786922,
				"y": -0.4818101223,
				"z": 1.3468007422,
				"element": "C" 
			},
			{
				"x": 1.3547935147,
				"y": 0.3414840329,
				"z": 2.0533749368,
				"element": "C" 
			},
			{
				"x": 1.6010220896,
				"y": 0.154278176,
				"z": 3.4241909904,
				"element": "C" 
			},
			{
				"x": 0.9508388445,
				"y": -0.8595638941,
				"z": 4.1205580181,
				"element": "C" 
			},
			{
				"x": 0.0546574959,
				"y": -1.687097497,
				"z": 3.4515275239,
				"element": "C" 
			},
			{
				"x": -0.1923199662,
				"y": -1.5008141588,
				"z": 2.0807196322,
				"element": "C" 
			},
			{
				"x": -1.1245399744,
				"y": -2.3747081281,
				"z": 1.4263416503,
				"element": "C" 
			},
			{
				"x": -1.8803363854,
				"y": -3.0888060006,
				"z": 0.9049802702,
				"element": "N" 
			},
			{
				"x": 2.0445464685,
				"y": 1.3991579694,
				"z": 1.3703653784,
				"element": "C" 
			},
			{
				"x": 2.60937454,
				"y": 2.2578120631,
				"z": 0.825697394,
				"element": "N" 
			},
			{
				"x": -0.1088005249,
				"y": -1.2008065803,
				"z": -0.6090277367,
				"element": "H" 
			},
			{
				"x": -0.6652589862,
				"y": 0.4324584366,
				"z": -0.2459040203,
				"element": "H" 
			},
			{
				"x": 1.0343122318,
				"y": 0.1610637197,
				"z": -0.6291251024,
				"element": "H" 
			},
			{
				"x": 2.3042851788,
				"y": 0.8086654589,
				"z": 3.9281359875,
				"element": "H" 
			},
			{
				"x": 1.1425174717,
				"y": -1.0048350696,
				"z": 5.1783169452,
				"element": "H" 
			},
			{
				"x": -0.4607701841,
				"y": -2.4839504492,
				"z": 3.9770016378,
				"element": "H" 
			}
		],
		 "valence_orbital": [ 
			{
				"type": "occ",
				"energy": -0.35033,
				"method": "rhf"
			},
			{
				"type": "occ",
				"energy": -0.34659,
				"method": "rhf"
			},
			{
				"type": "occ",
				"energy": -0.34336,
				"method": "rhf"
			},
			{
				"type": "occ",
				"energy": -0.28297,
				"method": "rhf"
			},
			{
				"type": "occ",
				"energy": -0.28265,
				"method": "rhf"
			},
			{
				"type": "unocc",
				"energy": -0.07785,
				"method": "rhf"
			},
			{
				"type": "unocc",
				"energy": -0.06071,
				"method": "rhf"
			},
			{
				"type": "unocc",
				"energy": 0.01227,
				"method": "rhf"
			},
			{
				"type": "unocc",
				"energy": 0.03254,
				"method": "rhf"
			},
			{
				"type": "unocc",
				"energy": 0.03298,
				"method": "rhf"
			}
		],
		"cosmo_sigma_profile": { 
			"-0.025": 0.0,
			"-0.024": 0.0,
			"-0.023": 0.0,
			"-0.022": 0.0,
			"-0.021": 0.0,
			"-0.02": 0.0,
			"-0.019": 0.0,
			"-0.018": 0.0,
			"-0.017": 0.0,
			"-0.016": 0.0,
			"-0.015": 0.0,
			"-0.014": 0.0,
			"-0.013": 0.0,
			"-0.012": 0.0,
			"-0.011": 0.0,
			"-0.01": 0.0,
			"-0.009": 2.85553818817,
			"-0.008": 7.74437977334,
			"-0.007": 8.6107251538,
			"-0.006": 9.26894715027,
			"-0.005": 14.4282406997,
			"-0.004": 12.5955043228,
			"-0.003": 17.0037083252,
			"-0.002": 21.2778923352,
			"-0.001": 16.7710265155,
			"0.0": 12.901587577,
			"0.001": 9.45737816001,
			"0.002": 4.00889841233,
			"0.003": 3.86270888962,
			"0.004": 3.69024211819,
			"0.005": 4.48712273604,
			"0.006": 4.57176921469,
			"0.007": 5.65758638095,
			"0.008": 6.49931703911,
			"0.009": 6.46100061806,
			"0.01": 5.8190907426,
			"0.011": 5.03688346072,
			"0.012": 4.6285439545,
			"0.013": 1.56612667217,
			"0.014": 0.0,
			"0.015": 0.0,
			"0.016": 0.0,
			"0.017": 0.0,
			"0.018": 0.0,
			"0.019": 0.0,
			"0.02": 0.0,
			"0.021": 0.0,
			"0.022": 0.0,
			"0.023": 0.0,
			"0.024": 0.0,
			"0.025": 0.0
		}
	}
}
