{
	 "smiles": "CCC1CCCC1", 
	 "Tm": 135.15, 
	 "num_atms": 21, 
	 "gaussian": { 
		 "optdone": 1, 
		 "sigma_profile": "yes", 
		 "theory": "DFT", 
		 "functional": "B3LYP", 
		 "basiset": "6-31G**", 
		 "properties": { 
			 "R2extent": 938.9802, 
			 "electric_dipole_moment_norm": 0.0727440719234, 
			 "electric_quadrupole_moment_norm": 0.541731215641, 
			 "total_energy": -275.197696309, 
			 "HOMO_LUMO_gap": 0.38136, 
			 "cosmo_polarized_energy": -0.53, 
			 "cosmo_cavitation_energy": 21.01, 
			 "cosmo_dispersion_energy": -15.93, 
			 "cosmo_repulsion_energy": 1.36, 
			 "cosmo_total_nonelectrostatic_energy": 6.44, 
			 "SMD_solvation_energy": 3.0 
		},
		"coords": [
			{
				"x": 2.5863412022,
				"y": 0.2762066428,
				"z": 0.1486527218,
				"element": "C" 
			},
			{
				"x": 1.4163765534,
				"y": 0.5338150053,
				"z": 1.107694235,
				"element": "C" 
			},
			{
				"x": 0.0379114125,
				"y": 0.0127634694,
				"z": 0.6624374248,
				"element": "C" 
			},
			{
				"x": -0.0818848632,
				"y": -1.5077679215,
				"z": 0.4384357827,
				"element": "C" 
			},
			{
				"x": -1.4396862203,
				"y": -1.6868120912,
				"z": -0.2801342546,
				"element": "C" 
			},
			{
				"x": -1.7232338572,
				"y": -0.3278152606,
				"z": -0.9936002483,
				"element": "C" 
			},
			{
				"x": -0.5176473868,
				"y": 0.5811288913,
				"z": -0.6585049059,
				"element": "C" 
			},
			{
				"x": 2.7492459829,
				"y": -0.7929322772,
				"z": -0.0218228555,
				"element": "H" 
			},
			{
				"x": 3.514653826,
				"y": 0.685014138,
				"z": 0.5611269166,
				"element": "H" 
			},
			{
				"x": 2.4285332293,
				"y": 0.7476008648,
				"z": -0.8268018872,
				"element": "H" 
			},
			{
				"x": 1.3363931494,
				"y": 1.6148367628,
				"z": 1.2852277652,
				"element": "H" 
			},
			{
				"x": 1.6548456148,
				"y": 0.0894941314,
				"z": 2.0835199991,
				"element": "H" 
			},
			{
				"x": -0.6749886353,
				"y": 0.2816547956,
				"z": 1.4577465446,
				"element": "H" 
			},
			{
				"x": -0.013484645,
				"y": -2.0816223226,
				"z": 1.3691476747,
				"element": "H" 
			},
			{
				"x": 0.7328167676,
				"y": -1.8509503222,
				"z": -0.2111265418,
				"element": "H" 
			},
			{
				"x": -2.2292955349,
				"y": -1.9043082383,
				"z": 0.4471972821,
				"element": "H" 
			},
			{
				"x": -1.4218609259,
				"y": -2.5271351275,
				"z": -0.9810997922,
				"element": "H" 
			},
			{
				"x": -2.6502429974,
				"y": 0.1136626953,
				"z": -0.6120909195,
				"element": "H" 
			},
			{
				"x": -1.8561310407,
				"y": -0.4464281723,
				"z": -2.07345374,
				"element": "H" 
			},
			{
				"x": 0.2425901682,
				"y": 0.4985697247,
				"z": -1.4450499996,
				"element": "H" 
			},
			{
				"x": -0.7896517996,
				"y": 1.6398246119,
				"z": -0.585101202,
				"element": "H" 
			}
		],
		 "valence_orbital": [ 
			{
				"type": "occ",
				"energy": -0.32638,
				"method": "rhf"
			},
			{
				"type": "occ",
				"energy": -0.31137,
				"method": "rhf"
			},
			{
				"type": "occ",
				"energy": -0.30878,
				"method": "rhf"
			},
			{
				"type": "occ",
				"energy": -0.30242,
				"method": "rhf"
			},
			{
				"type": "occ",
				"energy": -0.29894,
				"method": "rhf"
			},
			{
				"type": "unocc",
				"energy": 0.08242,
				"method": "rhf"
			},
			{
				"type": "unocc",
				"energy": 0.09747,
				"method": "rhf"
			},
			{
				"type": "unocc",
				"energy": 0.11237,
				"method": "rhf"
			},
			{
				"type": "unocc",
				"energy": 0.13061,
				"method": "rhf"
			},
			{
				"type": "unocc",
				"energy": 0.14684,
				"method": "rhf"
			}
		],
		"cosmo_sigma_profile": { 
			"-0.025": 0.0,
			"-0.024": 0.0,
			"-0.023": 0.0,
			"-0.022": 0.0,
			"-0.021": 0.0,
			"-0.02": 0.0,
			"-0.019": 0.0,
			"-0.018": 0.0,
			"-0.017": 0.0,
			"-0.016": 0.0,
			"-0.015": 0.0,
			"-0.014": 0.0,
			"-0.013": 0.0,
			"-0.012": 0.0,
			"-0.011": 0.0,
			"-0.01": 0.0,
			"-0.009": 0.0,
			"-0.008": 0.0,
			"-0.007": 0.0,
			"-0.006": 0.0,
			"-0.005": 0.0,
			"-0.004": 0.0,
			"-0.003": 2.42334846691,
			"-0.002": 22.0404001328,
			"-0.001": 31.6426720187,
			"0.0": 45.537115323,
			"0.001": 36.7271731161,
			"0.002": 21.0643852184,
			"0.003": 1.71988938704,
			"0.004": 0.0,
			"0.005": 0.0,
			"0.006": 0.0,
			"0.007": 0.0,
			"0.008": 0.0,
			"0.009": 0.0,
			"0.01": 0.0,
			"0.011": 0.0,
			"0.012": 0.0,
			"0.013": 0.0,
			"0.014": 0.0,
			"0.015": 0.0,
			"0.016": 0.0,
			"0.017": 0.0,
			"0.018": 0.0,
			"0.019": 0.0,
			"0.02": 0.0,
			"0.021": 0.0,
			"0.022": 0.0,
			"0.023": 0.0,
			"0.024": 0.0,
			"0.025": 0.0
		}
	}
}
