{
	 "smiles": "FC1=CC(C#N)=C(C=C1)N=C=O", 
	 "Tm": 305.15, 
	 "num_atms": 15, 
	 "gaussian": { 
		 "optdone": 1, 
		 "sigma_profile": "yes", 
		 "theory": "DFT", 
		 "functional": "B3LYP", 
		 "basiset": "6-31G**", 
		 "properties": { 
			 "R2extent": 2369.7371, 
			 "electric_dipole_moment_norm": 4.47980251908, 
			 "electric_quadrupole_moment_norm": 10.6598557392, 
			 "total_energy": -591.195873297, 
			 "HOMO_LUMO_gap": 0.18542, 
			 "cosmo_polarized_energy": -10.46, 
			 "cosmo_cavitation_energy": 23.27, 
			 "cosmo_dispersion_energy": -15.85, 
			 "cosmo_repulsion_energy": 1.25, 
			 "cosmo_total_nonelectrostatic_energy": 8.67, 
			 "SMD_solvation_energy": 8.38 
		},
		"coords": [
			{
				"x": 0.0844135185,
				"y": 3.0208084485,
				"z": 0.9049470754,
				"element": "F" 
			},
			{
				"x": -0.0539686804,
				"y": 1.7262559872,
				"z": 0.5700211671,
				"element": "C" 
			},
			{
				"x": -1.3272215186,
				"y": 1.1863619496,
				"z": 0.4800070728,
				"element": "C" 
			},
			{
				"x": -1.4705773866,
				"y": -0.165352693,
				"z": 0.1302437547,
				"element": "C" 
			},
			{
				"x": -2.7813619564,
				"y": -0.7340276771,
				"z": 0.0342225638,
				"element": "C" 
			},
			{
				"x": -3.8568198972,
				"y": -1.1705090839,
				"z": -0.036350403,
				"element": "N" 
			},
			{
				"x": -0.3280608163,
				"y": -0.9568332586,
				"z": -0.1246150822,
				"element": "C" 
			},
			{
				"x": 0.9439670781,
				"y": -0.3746198849,
				"z": -0.0234416633,
				"element": "C" 
			},
			{
				"x": 1.0858168105,
				"y": 0.9647921483,
				"z": 0.323137762,
				"element": "C" 
			},
			{
				"x": -0.5120714663,
				"y": -2.2890504443,
				"z": -0.4675136123,
				"element": "N" 
			},
			{
				"x": 0.137903307,
				"y": -3.2708220483,
				"z": -0.7523205889,
				"element": "C" 
			},
			{
				"x": 0.6504751205,
				"y": -4.2885039481,
				"z": -1.0410026233,
				"element": "O" 
			},
			{
				"x": -2.1964070057,
				"y": 1.8021394051,
				"z": 0.6775120374,
				"element": "H" 
			},
			{
				"x": 1.822215771,
				"y": -0.9812338827,
				"z": -0.2188563756,
				"element": "H" 
			},
			{
				"x": 2.064697122,
				"y": 1.4241949821,
				"z": 0.4040089155,
				"element": "H" 
			}
		],
		 "valence_orbital": [ 
			{
				"type": "occ",
				"energy": -0.34307,
				"method": "rhf"
			},
			{
				"type": "occ",
				"energy": -0.34292,
				"method": "rhf"
			},
			{
				"type": "occ",
				"energy": -0.32959,
				"method": "rhf"
			},
			{
				"type": "occ",
				"energy": -0.28986,
				"method": "rhf"
			},
			{
				"type": "occ",
				"energy": -0.25661,
				"method": "rhf"
			},
			{
				"type": "unocc",
				"energy": -0.07119,
				"method": "rhf"
			},
			{
				"type": "unocc",
				"energy": -0.04795,
				"method": "rhf"
			},
			{
				"type": "unocc",
				"energy": -0.01091,
				"method": "rhf"
			},
			{
				"type": "unocc",
				"energy": 0.02775,
				"method": "rhf"
			},
			{
				"type": "unocc",
				"energy": 0.05605,
				"method": "rhf"
			}
		],
		"cosmo_sigma_profile": { 
			"-0.025": 0.0,
			"-0.024": 0.0,
			"-0.023": 0.0,
			"-0.022": 0.0,
			"-0.021": 0.0,
			"-0.02": 0.0,
			"-0.019": 0.0,
			"-0.018": 0.0,
			"-0.017": 0.0,
			"-0.016": 0.0,
			"-0.015": 0.0,
			"-0.014": 0.0,
			"-0.013": 0.0,
			"-0.012": 0.0,
			"-0.011": 0.0119569901306,
			"-0.01": 2.45089861499,
			"-0.009": 6.3154210839,
			"-0.008": 7.09358575525,
			"-0.007": 6.27634095799,
			"-0.006": 6.9079130848,
			"-0.005": 6.08772397646,
			"-0.004": 9.07917066533,
			"-0.003": 12.5945953299,
			"-0.002": 17.253359438,
			"-0.001": 24.8386842038,
			"0.0": 14.6410091985,
			"0.001": 10.5871887107,
			"0.002": 8.10053767261,
			"0.003": 10.9785973729,
			"0.004": 9.83084231713,
			"0.005": 6.65527117858,
			"0.006": 8.23697022517,
			"0.007": 7.92502118893,
			"0.008": 3.3784306907,
			"0.009": 3.37432527363,
			"0.01": 2.82221647292,
			"0.011": 2.66097666801,
			"0.012": 2.20696607182,
			"0.013": 0.519420380736,
			"0.014": 0.0,
			"0.015": 0.0,
			"0.016": 0.0,
			"0.017": 0.0,
			"0.018": 0.0,
			"0.019": 0.0,
			"0.02": 0.0,
			"0.021": 0.0,
			"0.022": 0.0,
			"0.023": 0.0,
			"0.024": 0.0,
			"0.025": 0.0
		}
	}
}
