{
	 "smiles": "O=C1CN(CCN1)C1=CC=C(C=C1)C#N", 
	 "Tm": 498.15, 
	 "num_atms": 26, 
	 "gaussian": { 
		 "optdone": 1, 
		 "sigma_profile": "yes", 
		 "theory": "DFT", 
		 "functional": "B3LYP", 
		 "basiset": "6-31G**", 
		 "properties": { 
			 "R2extent": 4827.8938, 
			 "electric_dipole_moment_norm": 6.47356355727, 
			 "electric_quadrupole_moment_norm": 37.7797447141, 
			 "total_energy": -665.26835561, 
			 "HOMO_LUMO_gap": 0.17981, 
			 "cosmo_polarized_energy": -20.65, 
			 "cosmo_cavitation_energy": 30.2, 
			 "cosmo_dispersion_energy": -21.86, 
			 "cosmo_repulsion_energy": 1.7, 
			 "cosmo_total_nonelectrostatic_energy": 10.04, 
			 "SMD_solvation_energy": 5.37 
		},
		"coords": [
			{
				"x": 0.1013129275,
				"y": -1.4298942156,
				"z": -3.8441733075,
				"element": "O" 
			},
			{
				"x": 0.2786136518,
				"y": -0.8054744291,
				"z": -2.8084595519,
				"element": "C" 
			},
			{
				"x": 0.0015141262,
				"y": -1.4775946777,
				"z": -1.4607669216,
				"element": "C" 
			},
			{
				"x": 0.0283386777,
				"y": -0.5822192152,
				"z": -0.309989228,
				"element": "N" 
			},
			{
				"x": 1.1123193846,
				"y": 0.3943213562,
				"z": -0.381084887,
				"element": "C" 
			},
			{
				"x": 0.9091032486,
				"y": 1.2939814891,
				"z": -1.5941768075,
				"element": "C" 
			},
			{
				"x": 0.7561284433,
				"y": 0.4719861398,
				"z": -2.7859164276,
				"element": "N" 
			},
			{
				"x": -0.4425688182,
				"y": -1.0462310441,
				"z": 0.920516714,
				"element": "C" 
			},
			{
				"x": -0.8972393805,
				"y": -2.3738730785,
				"z": 1.083109209,
				"element": "C" 
			},
			{
				"x": -1.4082537993,
				"y": -2.8142726531,
				"z": 2.297369345,
				"element": "C" 
			},
			{
				"x": -1.4796524618,
				"y": -1.953231342,
				"z": 3.4028603336,
				"element": "C" 
			},
			{
				"x": -1.0303959667,
				"y": -0.6285500172,
				"z": 3.2514933744,
				"element": "C" 
			},
			{
				"x": -0.5280635752,
				"y": -0.1848993405,
				"z": 2.0396985959,
				"element": "C" 
			},
			{
				"x": -1.9988723532,
				"y": -2.4091382201,
				"z": 4.6550239685,
				"element": "C" 
			},
			{
				"x": -2.4202472163,
				"y": -2.7783175226,
				"z": 5.6756554071,
				"element": "N" 
			},
			{
				"x": -0.9890935124,
				"y": -1.9277737282,
				"z": -1.5581520498,
				"element": "H" 
			},
			{
				"x": 0.7256372497,
				"y": -2.3058633099,
				"z": -1.3705458833,
				"element": "H" 
			},
			{
				"x": 1.1354419281,
				"y": 1.0047318009,
				"z": 0.5197169956,
				"element": "H" 
			},
			{
				"x": 2.0871549228,
				"y": -0.1164057182,
				"z": -0.4588343388,
				"element": "H" 
			},
			{
				"x": 1.7813146558,
				"y": 1.9452141647,
				"z": -1.7185100472,
				"element": "H" 
			},
			{
				"x": 0.0284525652,
				"y": 1.9321159886,
				"z": -1.4357272951,
				"element": "H" 
			},
			{
				"x": 0.8727135315,
				"y": 0.8894901713,
				"z": -3.7001010973,
				"element": "H" 
			},
			{
				"x": -0.8393003119,
				"y": -3.0795256483,
				"z": 0.2644047202,
				"element": "H" 
			},
			{
				"x": -1.7450189661,
				"y": -3.8410656281,
				"z": 2.3960403846,
				"element": "H" 
			},
			{
				"x": -1.0903837657,
				"y": 0.0555141012,
				"z": 4.0916427221,
				"element": "H" 
			},
			{
				"x": -0.2285551856,
				"y": 0.8532745768,
				"z": 1.9561060726,
				"element": "H" 
			}
		],
		 "valence_orbital": [ 
			{
				"type": "occ",
				"energy": -0.29726,
				"method": "rhf"
			},
			{
				"type": "occ",
				"energy": -0.27449,
				"method": "rhf"
			},
			{
				"type": "occ",
				"energy": -0.26717,
				"method": "rhf"
			},
			{
				"type": "occ",
				"energy": -0.26201,
				"method": "rhf"
			},
			{
				"type": "occ",
				"energy": -0.21941,
				"method": "rhf"
			},
			{
				"type": "unocc",
				"energy": -0.0396,
				"method": "rhf"
			},
			{
				"type": "unocc",
				"energy": -0.02322,
				"method": "rhf"
			},
			{
				"type": "unocc",
				"energy": 0.01485,
				"method": "rhf"
			},
			{
				"type": "unocc",
				"energy": 0.04364,
				"method": "rhf"
			},
			{
				"type": "unocc",
				"energy": 0.05991,
				"method": "rhf"
			}
		],
		"cosmo_sigma_profile": { 
			"-0.025": 0.0,
			"-0.024": 0.0,
			"-0.023": 0.0,
			"-0.022": 0.0,
			"-0.021": 0.0,
			"-0.02": 0.0,
			"-0.019": 0.0,
			"-0.018": 0.0,
			"-0.017": 0.0,
			"-0.016": 0.0,
			"-0.015": 0.0,
			"-0.014": 0.909284876847,
			"-0.013": 1.21698819114,
			"-0.012": 1.12470681616,
			"-0.011": 0.963380089795,
			"-0.01": 1.31996112627,
			"-0.009": 2.51409123233,
			"-0.008": 4.63052843123,
			"-0.007": 12.3819471289,
			"-0.006": 22.131394583,
			"-0.005": 23.6212852239,
			"-0.004": 19.7488913885,
			"-0.003": 15.3809091282,
			"-0.002": 11.4836978937,
			"-0.001": 10.9639916949,
			"0.0": 13.469158778,
			"0.001": 12.7227592495,
			"0.002": 11.2929482219,
			"0.003": 16.8456066064,
			"0.004": 9.23264590402,
			"0.005": 4.43472206858,
			"0.006": 4.28975711963,
			"0.007": 3.4766823342,
			"0.008": 4.02063542796,
			"0.009": 5.05194249723,
			"0.01": 4.32184398422,
			"0.011": 5.12494436339,
			"0.012": 3.96429241016,
			"0.013": 6.12458959906,
			"0.014": 6.93216843109,
			"0.015": 1.39447308371,
			"0.016": 0.0,
			"0.017": 0.0,
			"0.018": 0.0,
			"0.019": 0.0,
			"0.02": 0.0,
			"0.021": 0.0,
			"0.022": 0.0,
			"0.023": 0.0,
			"0.024": 0.0,
			"0.025": 0.0
		}
	}
}
