{
	 "smiles": "BrC1=C2OCCOC2=C(Br)S1", 
	 "Tm": 371.15, 
	 "num_atms": 15, 
	 "gaussian": { 
		 "optdone": 1, 
		 "sigma_profile": "yes", 
		 "theory": "DFT", 
		 "functional": "B3LYP", 
		 "basiset": "6-31G**", 
		 "properties": { 
			 "R2extent": 5919.1519, 
			 "electric_dipole_moment_norm": 3.21985021235, 
			 "electric_quadrupole_moment_norm": 3.63873081719, 
			 "total_energy": -5922.42913314, 
			 "HOMO_LUMO_gap": 0.18935, 
			 "cosmo_polarized_energy": -7.19, 
			 "cosmo_cavitation_energy": 25.19, 
			 "cosmo_dispersion_energy": -20.42, 
			 "cosmo_repulsion_energy": 1.62, 
			 "cosmo_total_nonelectrostatic_energy": 6.38, 
			 "SMD_solvation_energy": 2.17 
		},
		"coords": [
			{
				"x": 1.3714461551,
				"y": 3.8104802286,
				"z": -0.1068790222,
				"element": "Br" 
			},
			{
				"x": 1.6506360159,
				"y": 1.9704267555,
				"z": -0.3557494034,
				"element": "C" 
			},
			{
				"x": 0.6980530494,
				"y": 0.9918337008,
				"z": -0.3272569056,
				"element": "C" 
			},
			{
				"x": -0.6311250292,
				"y": 1.2000983593,
				"z": -0.1204156428,
				"element": "O" 
			},
			{
				"x": -1.33172236,
				"y": -0.005020274,
				"z": 0.2217979576,
				"element": "C" 
			},
			{
				"x": -0.9273532955,
				"y": -1.1448320441,
				"z": -0.7012120534,
				"element": "C" 
			},
			{
				"x": 0.4707119883,
				"y": -1.4394833133,
				"z": -0.563898479,
				"element": "O" 
			},
			{
				"x": 1.2438542071,
				"y": -0.3191661653,
				"z": -0.5623330908,
				"element": "C" 
			},
			{
				"x": 2.5954466943,
				"y": -0.2981483745,
				"z": -0.758833141,
				"element": "C" 
			},
			{
				"x": 3.7007327991,
				"y": -1.779865466,
				"z": -1.088387355,
				"element": "Br" 
			},
			{
				"x": 3.2438937381,
				"y": 1.3223829485,
				"z": -0.6667373369,
				"element": "S" 
			},
			{
				"x": -1.1208405619,
				"y": -0.2711921928,
				"z": 1.2658473978,
				"element": "H" 
			},
			{
				"x": -2.394660246,
				"y": 0.2232375808,
				"z": 0.1174242399,
				"element": "H" 
			},
			{
				"x": -1.4569537713,
				"y": -2.0639823611,
				"z": -0.4413714732,
				"element": "H" 
			},
			{
				"x": -1.1491193833,
				"y": -0.8833693825,
				"z": -1.7441956919,
				"element": "H" 
			}
		],
		 "valence_orbital": [ 
			{
				"type": "occ",
				"energy": -0.30144,
				"method": "rhf"
			},
			{
				"type": "occ",
				"energy": -0.29318,
				"method": "rhf"
			},
			{
				"type": "occ",
				"energy": -0.29254,
				"method": "rhf"
			},
			{
				"type": "occ",
				"energy": -0.23236,
				"method": "rhf"
			},
			{
				"type": "occ",
				"energy": -0.2136,
				"method": "rhf"
			},
			{
				"type": "unocc",
				"energy": -0.02425,
				"method": "rhf"
			},
			{
				"type": "unocc",
				"energy": -0.01997,
				"method": "rhf"
			},
			{
				"type": "unocc",
				"energy": 0.00142,
				"method": "rhf"
			},
			{
				"type": "unocc",
				"energy": 0.02901,
				"method": "rhf"
			},
			{
				"type": "unocc",
				"energy": 0.05755,
				"method": "rhf"
			}
		],
		"cosmo_sigma_profile": { 
			"-0.025": 0.0,
			"-0.024": 0.0,
			"-0.023": 0.0,
			"-0.022": 0.0,
			"-0.021": 0.0,
			"-0.02": 0.0,
			"-0.019": 0.0,
			"-0.018": 0.0,
			"-0.017": 0.0,
			"-0.016": 0.0,
			"-0.015": 0.0,
			"-0.014": 0.0,
			"-0.013": 0.0,
			"-0.012": 0.0,
			"-0.011": 0.0,
			"-0.01": 0.0,
			"-0.009": 0.0029867979194,
			"-0.008": 5.01681726254,
			"-0.007": 10.7282901801,
			"-0.006": 13.9119921358,
			"-0.005": 11.7542089776,
			"-0.004": 8.34288062026,
			"-0.003": 8.85130142999,
			"-0.002": 11.8635733838,
			"-0.001": 12.4947111154,
			"0.0": 16.6787640073,
			"0.001": 23.0992953216,
			"0.002": 27.4263058976,
			"0.003": 25.1322005096,
			"0.004": 16.2360625482,
			"0.005": 5.62791202735,
			"0.006": 3.57559129717,
			"0.007": 3.07774626705,
			"0.008": 3.88301198345,
			"0.009": 3.04038994473,
			"0.01": 0.262838744385,
			"0.011": 0.0,
			"0.012": 0.0,
			"0.013": 0.0,
			"0.014": 0.0,
			"0.015": 0.0,
			"0.016": 0.0,
			"0.017": 0.0,
			"0.018": 0.0,
			"0.019": 0.0,
			"0.02": 0.0,
			"0.021": 0.0,
			"0.022": 0.0,
			"0.023": 0.0,
			"0.024": 0.0,
			"0.025": 0.0
		}
	}
}
