{
	 "smiles": "OC(=O)CC1=C(C=CC(F)=C1)[N+]([O-])=O", 
	 "Tm": 428.15, 
	 "num_atms": 20, 
	 "gaussian": { 
		 "optdone": 1, 
		 "sigma_profile": "yes", 
		 "theory": "DFT", 
		 "functional": "B3LYP", 
		 "basiset": "6-31G**", 
		 "properties": { 
			 "R2extent": 2790.0116, 
			 "electric_dipole_moment_norm": 4.65867302459, 
			 "electric_quadrupole_moment_norm": 13.5883876391, 
			 "total_energy": -763.858398774, 
			 "HOMO_LUMO_gap": 0.15137, 
			 "cosmo_polarized_energy": -14.46, 
			 "cosmo_cavitation_energy": 25.69, 
			 "cosmo_dispersion_energy": -18.56, 
			 "cosmo_repulsion_energy": 1.42, 
			 "cosmo_total_nonelectrostatic_energy": 8.55, 
			 "SMD_solvation_energy": 7.88 
		},
		"coords": [
			{
				"x": -1.9656387082,
				"y": -1.345350983,
				"z": 1.6654325222,
				"element": "O" 
			},
			{
				"x": -2.476114579,
				"y": -0.7708580646,
				"z": 0.5663046527,
				"element": "C" 
			},
			{
				"x": -3.4600198889,
				"y": -1.1972397995,
				"z": 0.0135485972,
				"element": "O" 
			},
			{
				"x": -1.700146767,
				"y": 0.4538191409,
				"z": 0.0363225494,
				"element": "C" 
			},
			{
				"x": -0.4014597884,
				"y": 0.0354533285,
				"z": -0.6245628971,
				"element": "C" 
			},
			{
				"x": 0.8809286621,
				"y": 0.0638290331,
				"z": -0.0367041875,
				"element": "C" 
			},
			{
				"x": 2.0345019223,
				"y": -0.2967930819,
				"z": -0.7458578069,
				"element": "C" 
			},
			{
				"x": 1.9391800172,
				"y": -0.7395964816,
				"z": -2.0549969481,
				"element": "C" 
			},
			{
				"x": 0.6733346401,
				"y": -0.7891193554,
				"z": -2.6359125647,
				"element": "C" 
			},
			{
				"x": 0.5576312628,
				"y": -1.2117870052,
				"z": -3.9009621262,
				"element": "F" 
			},
			{
				"x": -0.4726665977,
				"y": -0.4052863189,
				"z": -1.9521232603,
				"element": "C" 
			},
			{
				"x": 1.0991440872,
				"y": 0.4902640042,
				"z": 1.3450341003,
				"element": "N" 
			},
			{
				"x": 2.1932570447,
				"y": 0.955044179,
				"z": 1.639921653,
				"element": "O" 
			},
			{
				"x": 0.1772184884,
				"y": 0.3545113155,
				"z": 2.1711222957,
				"element": "O" 
			},
			{
				"x": -1.1805820822,
				"y": -0.8435598856,
				"z": 1.9646514704,
				"element": "H" 
			},
			{
				"x": -1.5269519745,
				"y": 1.1628681922,
				"z": 0.8473875488,
				"element": "H" 
			},
			{
				"x": -2.3422856232,
				"y": 0.9209480744,
				"z": -0.7109019389,
				"element": "H" 
			},
			{
				"x": 2.9931797679,
				"y": -0.2307035398,
				"z": -0.2471017765,
				"element": "H" 
			},
			{
				"x": 2.8119023926,
				"y": -1.0414077619,
				"z": -2.6219499349,
				"element": "H" 
			},
			{
				"x": -1.4312122763,
				"y": -0.4513349906,
				"z": -2.4574519484,
				"element": "H" 
			}
		],
		 "valence_orbital": [ 
			{
				"type": "occ",
				"energy": -0.32563,
				"method": "rhf"
			},
			{
				"type": "occ",
				"energy": -0.3136,
				"method": "rhf"
			},
			{
				"type": "occ",
				"energy": -0.30379,
				"method": "rhf"
			},
			{
				"type": "occ",
				"energy": -0.29111,
				"method": "rhf"
			},
			{
				"type": "occ",
				"energy": -0.26794,
				"method": "rhf"
			},
			{
				"type": "unocc",
				"energy": -0.11657,
				"method": "rhf"
			},
			{
				"type": "unocc",
				"energy": -0.05533,
				"method": "rhf"
			},
			{
				"type": "unocc",
				"energy": -0.0278,
				"method": "rhf"
			},
			{
				"type": "unocc",
				"energy": 0.01176,
				"method": "rhf"
			},
			{
				"type": "unocc",
				"energy": 0.06305,
				"method": "rhf"
			}
		],
		"cosmo_sigma_profile": { 
			"-0.025": 0.0,
			"-0.024": 0.0,
			"-0.023": 0.0,
			"-0.022": 0.0,
			"-0.021": 0.0,
			"-0.02": 0.0,
			"-0.019": 0.0,
			"-0.018": 0.0,
			"-0.017": 0.0,
			"-0.016": 0.0,
			"-0.015": 0.0,
			"-0.014": 0.0,
			"-0.013": 0.0,
			"-0.012": 0.0,
			"-0.011": 0.0746534631473,
			"-0.01": 1.05881659297,
			"-0.009": 5.45908897535,
			"-0.008": 11.5631842889,
			"-0.007": 12.4582376954,
			"-0.006": 10.9812298058,
			"-0.005": 11.1743142384,
			"-0.004": 12.1695459475,
			"-0.003": 11.3453439955,
			"-0.002": 18.242103754,
			"-0.001": 17.3462699378,
			"0.0": 12.6183405537,
			"0.001": 8.1867524029,
			"0.002": 6.89070403357,
			"0.003": 13.1686321748,
			"0.004": 5.08821883901,
			"0.005": 5.46152537641,
			"0.006": 6.65066299818,
			"0.007": 7.42145703015,
			"0.008": 6.73398940733,
			"0.009": 5.64930114916,
			"0.01": 4.59023429351,
			"0.011": 5.75698131063,
			"0.012": 4.84780577533,
			"0.013": 1.64116431957,
			"0.014": 0.0115818390058,
			"0.015": 0.0,
			"0.016": 0.0,
			"0.017": 0.0,
			"0.018": 0.0,
			"0.019": 0.0,
			"0.02": 0.0,
			"0.021": 0.0,
			"0.022": 0.0,
			"0.023": 0.0,
			"0.024": 0.0,
			"0.025": 0.0
		}
	}
}
