{
	 "smiles": "O=C1NC(CC2=CNC3=C2C=CC=C3)C(=O)N1", 
	 "Tm": 509.15, 
	 "num_atms": 28, 
	 "gaussian": { 
		 "optdone": 1, 
		 "sigma_profile": "yes", 
		 "theory": "DFT", 
		 "functional": "B3LYP", 
		 "basiset": "6-31G**", 
		 "properties": { 
			 "R2extent": 5028.2635, 
			 "electric_dipole_moment_norm": 4.80230234471, 
			 "electric_quadrupole_moment_norm": 9.75516612467, 
			 "total_energy": -778.657323275, 
			 "HOMO_LUMO_gap": 0.19015, 
			 "cosmo_polarized_energy": -20.27, 
			 "cosmo_cavitation_energy": 32.35, 
			 "cosmo_dispersion_energy": -23.2, 
			 "cosmo_repulsion_energy": 1.81, 
			 "cosmo_total_nonelectrostatic_energy": 10.96, 
			 "SMD_solvation_energy": 6.21 
		},
		"coords": [
			{
				"x": -2.8374397907,
				"y": -1.9235012571,
				"z": 2.855433363,
				"element": "O" 
			},
			{
				"x": -2.7185675021,
				"y": -1.2644783473,
				"z": 1.843755346,
				"element": "C" 
			},
			{
				"x": -1.575756946,
				"y": -0.8274904031,
				"z": 1.2276260289,
				"element": "N" 
			},
			{
				"x": -1.8188896253,
				"y": -0.0285649432,
				"z": 0.0384464942,
				"element": "C" 
			},
			{
				"x": -1.251079718,
				"y": 1.4083157734,
				"z": 0.0864757813,
				"element": "C" 
			},
			{
				"x": 0.2497058711,
				"y": 1.4575679492,
				"z": 0.0932561499,
				"element": "C" 
			},
			{
				"x": 1.0609781822,
				"y": 1.6353546017,
				"z": -1.0013035517,
				"element": "C" 
			},
			{
				"x": 2.3882648915,
				"y": 1.5811609226,
				"z": -0.622355041,
				"element": "N" 
			},
			{
				"x": 2.4644854072,
				"y": 1.3730316242,
				"z": 0.7394362083,
				"element": "C" 
			},
			{
				"x": 1.1300359821,
				"y": 1.2884025427,
				"z": 1.2273520819,
				"element": "C" 
			},
			{
				"x": 0.9277282567,
				"y": 1.0895217617,
				"z": 2.6069236178,
				"element": "C" 
			},
			{
				"x": 2.0316555331,
				"y": 0.972706778,
				"z": 3.442620251,
				"element": "C" 
			},
			{
				"x": 3.3438423658,
				"y": 1.0530948984,
				"z": 2.9327907807,
				"element": "C" 
			},
			{
				"x": 3.5782590289,
				"y": 1.2564905379,
				"z": 1.5779123616,
				"element": "C" 
			},
			{
				"x": -3.3560589987,
				"y": -0.0304088629,
				"z": -0.0339850911,
				"element": "C" 
			},
			{
				"x": -4.0430460436,
				"y": 0.5296102506,
				"z": -0.8629986798,
				"element": "O" 
			},
			{
				"x": -3.7799019088,
				"y": -0.7799055303,
				"z": 1.041701286,
				"element": "N" 
			},
			{
				"x": -0.6661775488,
				"y": -1.0017470467,
				"z": 1.6261801958,
				"element": "H" 
			},
			{
				"x": -1.4326099347,
				"y": -0.5271381456,
				"z": -0.8609941624,
				"element": "H" 
			},
			{
				"x": -1.6498314985,
				"y": 1.931608597,
				"z": -0.7889221884,
				"element": "H" 
			},
			{
				"x": -1.6570868325,
				"y": 1.9123814116,
				"z": 0.9718204594,
				"element": "H" 
			},
			{
				"x": 0.7911321943,
				"y": 1.8042575709,
				"z": -2.0347897416,
				"element": "H" 
			},
			{
				"x": 3.1740482973,
				"y": 1.7106119005,
				"z": -1.238308239,
				"element": "H" 
			},
			{
				"x": -0.0770829584,
				"y": 1.0347992229,
				"z": 3.0163246743,
				"element": "H" 
			},
			{
				"x": 1.8839464602,
				"y": 0.8194969412,
				"z": 4.5074174901,
				"element": "H" 
			},
			{
				"x": 4.186485137,
				"y": 0.957474429,
				"z": 3.6110128701,
				"element": "H" 
			},
			{
				"x": 4.5893623213,
				"y": 1.3230072426,
				"z": 1.1859849667,
				"element": "H" 
			},
			{
				"x": -4.7478006225,
				"y": -0.94936042,
				"z": 1.2739862881,
				"element": "H" 
			}
		],
		 "valence_orbital": [ 
			{
				"type": "occ",
				"energy": -0.28176,
				"method": "rhf"
			},
			{
				"type": "occ",
				"energy": -0.26363,
				"method": "rhf"
			},
			{
				"type": "occ",
				"energy": -0.25991,
				"method": "rhf"
			},
			{
				"type": "occ",
				"energy": -0.22955,
				"method": "rhf"
			},
			{
				"type": "occ",
				"energy": -0.20987,
				"method": "rhf"
			},
			{
				"type": "unocc",
				"energy": -0.01972,
				"method": "rhf"
			},
			{
				"type": "unocc",
				"energy": -0.0064,
				"method": "rhf"
			},
			{
				"type": "unocc",
				"energy": 0.01786,
				"method": "rhf"
			},
			{
				"type": "unocc",
				"energy": 0.05253,
				"method": "rhf"
			},
			{
				"type": "unocc",
				"energy": 0.06567,
				"method": "rhf"
			}
		],
		"cosmo_sigma_profile": { 
			"-0.025": 0.0,
			"-0.024": 0.0,
			"-0.023": 0.0,
			"-0.022": 0.0,
			"-0.021": 0.0,
			"-0.02": 0.0,
			"-0.019": 0.0,
			"-0.018": 0.0,
			"-0.017": 0.363002053435,
			"-0.016": 1.35095720183,
			"-0.015": 2.97999827628,
			"-0.014": 2.41437354988,
			"-0.013": 2.34732207766,
			"-0.012": 2.17196855114,
			"-0.011": 2.6508645753,
			"-0.01": 3.02086774225,
			"-0.009": 3.12100903534,
			"-0.008": 4.44188088172,
			"-0.007": 8.08613821488,
			"-0.006": 11.3045928017,
			"-0.005": 18.4681046307,
			"-0.004": 19.5611123824,
			"-0.003": 18.5825484649,
			"-0.002": 18.1054088738,
			"-0.001": 15.2509801762,
			"0.0": 12.2614907938,
			"0.001": 10.0408880391,
			"0.002": 10.0110698133,
			"0.003": 11.7700913751,
			"0.004": 13.1981615169,
			"0.005": 13.9334388083,
			"0.006": 11.9168214469,
			"0.007": 7.70914304533,
			"0.008": 2.63987625042,
			"0.009": 3.03289800712,
			"0.01": 3.57188430561,
			"0.011": 4.15218801132,
			"0.012": 9.85499781567,
			"0.013": 8.07007793808,
			"0.014": 1.26730488567,
			"0.015": 0.0,
			"0.016": 0.0,
			"0.017": 0.0,
			"0.018": 0.0,
			"0.019": 0.0,
			"0.02": 0.0,
			"0.021": 0.0,
			"0.022": 0.0,
			"0.023": 0.0,
			"0.024": 0.0,
			"0.025": 0.0
		}
	}
}
