{
	 "smiles": "CS(=O)(=O)OC1=CC=CC=C1", 
	 "Tm": 335.65, 
	 "num_atms": 19, 
	 "gaussian": { 
		 "optdone": 1, 
		 "sigma_profile": "yes", 
		 "theory": "DFT", 
		 "functional": "B3LYP", 
		 "basiset": "6-31G**", 
		 "properties": { 
			 "R2extent": 3511.4237, 
			 "electric_dipole_moment_norm": 4.60701626327, 
			 "electric_quadrupole_moment_norm": 18.8687336827, 
			 "total_energy": -895.353182172, 
			 "HOMO_LUMO_gap": 0.23555, 
			 "cosmo_polarized_energy": -13.08, 
			 "cosmo_cavitation_energy": 24.55, 
			 "cosmo_dispersion_energy": -18.43, 
			 "cosmo_repulsion_energy": 1.43, 
			 "cosmo_total_nonelectrostatic_energy": 7.55, 
			 "SMD_solvation_energy": 3.75 
		},
		"coords": [
			{
				"x": -3.2909737423,
				"y": 0.265061226,
				"z": 1.6205681297,
				"element": "C" 
			},
			{
				"x": -2.3910326333,
				"y": 1.6556452745,
				"z": 2.3194663413,
				"element": "S" 
			},
			{
				"x": -3.1536539938,
				"y": 2.8778262375,
				"z": 2.1286849553,
				"element": "O" 
			},
			{
				"x": -1.8721937512,
				"y": 1.268020568,
				"z": 3.6265622731,
				"element": "O" 
			},
			{
				"x": -1.1344650938,
				"y": 1.7973644138,
				"z": 1.2350984848,
				"element": "O" 
			},
			{
				"x": -0.0627303763,
				"y": 0.8946198469,
				"z": 1.2811221629,
				"element": "C" 
			},
			{
				"x": 0.8449828512,
				"y": 0.9115720517,
				"z": 2.3403523267,
				"element": "C" 
			},
			{
				"x": 1.9355078311,
				"y": 0.042123938,
				"z": 2.3023246803,
				"element": "C" 
			},
			{
				"x": 2.1204079695,
				"y": -0.8194264331,
				"z": 1.2181904283,
				"element": "C" 
			},
			{
				"x": 1.2078683682,
				"y": -0.814932524,
				"z": 0.1614389457,
				"element": "C" 
			},
			{
				"x": 0.1066694252,
				"y": 0.0422285695,
				"z": 0.1900238995,
				"element": "C" 
			},
			{
				"x": -4.1375862941,
				"y": 0.0693767383,
				"z": 2.2804705915,
				"element": "H" 
			},
			{
				"x": -3.6347325251,
				"y": 0.5419157403,
				"z": 0.6240152016,
				"element": "H" 
			},
			{
				"x": -2.6276955074,
				"y": -0.600068365,
				"z": 1.5865945166,
				"element": "H" 
			},
			{
				"x": 0.6869743609,
				"y": 1.5867074991,
				"z": 3.172167371,
				"element": "H" 
			},
			{
				"x": 2.6465244837,
				"y": 0.0443634942,
				"z": 3.1229984736,
				"element": "H" 
			},
			{
				"x": 2.9755583185,
				"y": -1.4880028751,
				"z": 1.1949952754,
				"element": "H" 
			},
			{
				"x": 1.3510294027,
				"y": -1.4760960168,
				"z": -0.6880108152,
				"element": "H" 
			},
			{
				"x": -0.6079590935,
				"y": 0.0734006164,
				"z": -0.626063242,
				"element": "H" 
			}
		],
		 "valence_orbital": [ 
			{
				"type": "occ",
				"energy": -0.32737,
				"method": "rhf"
			},
			{
				"type": "occ",
				"energy": -0.32287,
				"method": "rhf"
			},
			{
				"type": "occ",
				"energy": -0.31055,
				"method": "rhf"
			},
			{
				"type": "occ",
				"energy": -0.26576,
				"method": "rhf"
			},
			{
				"type": "occ",
				"energy": -0.25591,
				"method": "rhf"
			},
			{
				"type": "unocc",
				"energy": -0.02036,
				"method": "rhf"
			},
			{
				"type": "unocc",
				"energy": -0.017,
				"method": "rhf"
			},
			{
				"type": "unocc",
				"energy": 0.03939,
				"method": "rhf"
			},
			{
				"type": "unocc",
				"energy": 0.06159,
				"method": "rhf"
			},
			{
				"type": "unocc",
				"energy": 0.07823,
				"method": "rhf"
			}
		],
		"cosmo_sigma_profile": { 
			"-0.025": 0.0,
			"-0.024": 0.0,
			"-0.023": 0.0,
			"-0.022": 0.0,
			"-0.021": 0.0,
			"-0.02": 0.0,
			"-0.019": 0.0,
			"-0.018": 0.0,
			"-0.017": 0.0,
			"-0.016": 0.0,
			"-0.015": 0.0,
			"-0.014": 0.0,
			"-0.013": 0.0,
			"-0.012": 0.0,
			"-0.011": 0.194943644697,
			"-0.01": 1.99063666409,
			"-0.009": 4.3119985757,
			"-0.008": 5.01686667999,
			"-0.007": 7.9001576377,
			"-0.006": 16.1314619007,
			"-0.005": 20.7435413449,
			"-0.004": 16.7055459571,
			"-0.003": 8.93868944676,
			"-0.002": 9.04888119348,
			"-0.001": 7.37713424666,
			"0.0": 8.93890923177,
			"0.001": 9.1486209614,
			"0.002": 11.5900940782,
			"0.003": 11.5563745038,
			"0.004": 13.1383308867,
			"0.005": 6.59993086095,
			"0.006": 3.8129547605,
			"0.007": 5.29638984067,
			"0.008": 5.78890523972,
			"0.009": 7.92053157461,
			"0.01": 12.1097252238,
			"0.011": 2.151654087,
			"0.012": 0.0,
			"0.013": 0.0,
			"0.014": 0.0,
			"0.015": 0.0,
			"0.016": 0.0,
			"0.017": 0.0,
			"0.018": 0.0,
			"0.019": 0.0,
			"0.02": 0.0,
			"0.021": 0.0,
			"0.022": 0.0,
			"0.023": 0.0,
			"0.024": 0.0,
			"0.025": 0.0
		}
	}
}
