{
	 "smiles": "CC1=CC(C(O)=O)=C(C=C1)N1C=CC=C1", 
	 "Tm": 400.15, 
	 "num_atms": 26, 
	 "gaussian": { 
		 "optdone": 1, 
		 "sigma_profile": "yes", 
		 "theory": "DFT", 
		 "functional": "B3LYP", 
		 "basiset": "6-31G**", 
		 "properties": { 
			 "R2extent": 3442.3803, 
			 "electric_dipole_moment_norm": 5.55119188013, 
			 "electric_quadrupole_moment_norm": 15.1624378568, 
			 "total_energy": -669.097120356, 
			 "HOMO_LUMO_gap": 0.16189, 
			 "cosmo_polarized_energy": -17.55, 
			 "cosmo_cavitation_energy": 30.24, 
			 "cosmo_dispersion_energy": -21.45, 
			 "cosmo_repulsion_energy": 1.67, 
			 "cosmo_total_nonelectrostatic_energy": 10.47, 
			 "SMD_solvation_energy": 6.89 
		},
		"coords": [
			{
				"x": 2.0723179021,
				"y": 0.6107098326,
				"z": -3.3704390371,
				"element": "C" 
			},
			{
				"x": 1.3882518203,
				"y": 0.2782545428,
				"z": -2.0662228122,
				"element": "C" 
			},
			{
				"x": 1.5626555767,
				"y": 1.0706103268,
				"z": -0.9294367508,
				"element": "C" 
			},
			{
				"x": 0.9720840134,
				"y": 0.7553663406,
				"z": 0.3053203217,
				"element": "C" 
			},
			{
				"x": 1.3655940437,
				"y": 1.5770023478,
				"z": 1.5042562778,
				"element": "C" 
			},
			{
				"x": 1.2984843891,
				"y": 2.927562294,
				"z": 1.318653003,
				"element": "O" 
			},
			{
				"x": 1.7642868994,
				"y": 1.1247486666,
				"z": 2.546025562,
				"element": "O" 
			},
			{
				"x": 0.1377131447,
				"y": -0.3749176651,
				"z": 0.3979661153,
				"element": "C" 
			},
			{
				"x": -0.0591268926,
				"y": -1.16264479,
				"z": -0.7445202159,
				"element": "C" 
			},
			{
				"x": 0.5663927138,
				"y": -0.8507818522,
				"z": -1.9466274467,
				"element": "C" 
			},
			{
				"x": -0.5428835857,
				"y": -0.7164309327,
				"z": 1.5891753329,
				"element": "N" 
			},
			{
				"x": -1.2482956617,
				"y": 0.14866745,
				"z": 2.4107113192,
				"element": "C" 
			},
			{
				"x": -1.8338433452,
				"y": -0.5867350023,
				"z": 3.410815867,
				"element": "C" 
			},
			{
				"x": -1.4750883606,
				"y": -1.9527292686,
				"z": 3.2038904031,
				"element": "C" 
			},
			{
				"x": -0.6912114381,
				"y": -2.00648793,
				"z": 2.0777583746,
				"element": "C" 
			},
			{
				"x": 1.3715258983,
				"y": 0.5665301865,
				"z": -4.2108746404,
				"element": "H" 
			},
			{
				"x": 2.5108200478,
				"y": 1.6120422416,
				"z": -3.3496297132,
				"element": "H" 
			},
			{
				"x": 2.8799163306,
				"y": -0.0988919007,
				"z": -3.5861718192,
				"element": "H" 
			},
			{
				"x": 2.2213125615,
				"y": 1.9342578945,
				"z": -0.9866872101,
				"element": "H" 
			},
			{
				"x": 0.8733503,
				"y": 3.1150310984,
				"z": 0.4693126912,
				"element": "H" 
			},
			{
				"x": -0.7342077784,
				"y": -2.009663791,
				"z": -0.6834496195,
				"element": "H" 
			},
			{
				"x": 0.3945857053,
				"y": -1.4843579131,
				"z": -2.8130889351,
				"element": "H" 
			},
			{
				"x": -1.2915926806,
				"y": 1.204428171,
				"z": 2.1918543086,
				"element": "H" 
			},
			{
				"x": -2.4532799332,
				"y": -0.1905556371,
				"z": 4.2029960229,
				"element": "H" 
			},
			{
				"x": -1.7494483846,
				"y": -2.796458951,
				"z": 3.8213848444,
				"element": "H" 
			},
			{
				"x": -0.1816132858,
				"y": -2.831655759,
				"z": 1.6042277563,
				"element": "H" 
			}
		],
		 "valence_orbital": [ 
			{
				"type": "occ",
				"energy": -0.28281,
				"method": "rhf"
			},
			{
				"type": "occ",
				"energy": -0.27724,
				"method": "rhf"
			},
			{
				"type": "occ",
				"energy": -0.2647,
				"method": "rhf"
			},
			{
				"type": "occ",
				"energy": -0.22371,
				"method": "rhf"
			},
			{
				"type": "occ",
				"energy": -0.20813,
				"method": "rhf"
			},
			{
				"type": "unocc",
				"energy": -0.04624,
				"method": "rhf"
			},
			{
				"type": "unocc",
				"energy": -0.02634,
				"method": "rhf"
			},
			{
				"type": "unocc",
				"energy": 0.02564,
				"method": "rhf"
			},
			{
				"type": "unocc",
				"energy": 0.04375,
				"method": "rhf"
			},
			{
				"type": "unocc",
				"energy": 0.06865,
				"method": "rhf"
			}
		],
		"cosmo_sigma_profile": { 
			"-0.025": 0.0,
			"-0.024": 0.0,
			"-0.023": 0.0,
			"-0.022": 0.0,
			"-0.021": 0.0,
			"-0.02": 0.0,
			"-0.019": 0.0712881024583,
			"-0.018": 0.770497701123,
			"-0.017": 0.686060713757,
			"-0.016": 1.05335414417,
			"-0.015": 0.900525997317,
			"-0.014": 0.452795953562,
			"-0.013": 1.16039149596,
			"-0.012": 1.17993580608,
			"-0.011": 1.03433476097,
			"-0.01": 1.63461446796,
			"-0.009": 1.76934956338,
			"-0.008": 2.90003684466,
			"-0.007": 7.55430853637,
			"-0.006": 13.2932977202,
			"-0.005": 16.8223051713,
			"-0.004": 17.8712305309,
			"-0.003": 16.9063655162,
			"-0.002": 17.8492881644,
			"-0.001": 18.6329193039,
			"0.0": 17.3614539448,
			"0.001": 13.4472276188,
			"0.002": 14.2109649688,
			"0.003": 14.4298602088,
			"0.004": 8.32649354803,
			"0.005": 6.07875991179,
			"0.006": 6.4886246352,
			"0.007": 7.55006884823,
			"0.008": 7.68962695368,
			"0.009": 5.21551268668,
			"0.01": 6.23814583476,
			"0.011": 6.42597669756,
			"0.012": 4.67596621734,
			"0.013": 0.830480172874,
			"0.014": 0.0,
			"0.015": 0.0,
			"0.016": 0.0,
			"0.017": 0.0,
			"0.018": 0.0,
			"0.019": 0.0,
			"0.02": 0.0,
			"0.021": 0.0,
			"0.022": 0.0,
			"0.023": 0.0,
			"0.024": 0.0,
			"0.025": 0.0
		}
	}
}
