{
	 "smiles": "NNC(=O)C(=O)NN", 
	 "Tm": 514.15, 
	 "num_atms": 14, 
	 "gaussian": { 
		 "optdone": 1, 
		 "sigma_profile": "yes", 
		 "theory": "DFT", 
		 "functional": "B3LYP", 
		 "basiset": "6-31G**", 
		 "properties": { 
			 "R2extent": 1815.3979, 
			 "electric_dipole_moment_norm": 0.0, 
			 "electric_quadrupole_moment_norm": 6.03390104327, 
			 "total_energy": -449.24360918, 
			 "HOMO_LUMO_gap": 0.20666, 
			 "cosmo_polarized_energy": -14.72, 
			 "cosmo_cavitation_energy": 19.11, 
			 "cosmo_dispersion_energy": -14.17, 
			 "cosmo_repulsion_energy": 1.23, 
			 "cosmo_total_nonelectrostatic_energy": 6.16, 
			 "SMD_solvation_energy": 5.86 
		},
		"coords": [
			{
				"x": 2.2618917911,
				"y": 2.6302941215,
				"z": 2.4229444927,
				"element": "N" 
			},
			{
				"x": 1.3063586867,
				"y": 1.6254182139,
				"z": 2.1985131309,
				"element": "N" 
			},
			{
				"x": 1.5816232991,
				"y": 0.4872573688,
				"z": 1.5290164162,
				"element": "C" 
			},
			{
				"x": 2.6728924604,
				"y": 0.1961909642,
				"z": 1.0449232035,
				"element": "O" 
			},
			{
				"x": 0.3563505422,
				"y": -0.4359116364,
				"z": 1.4300714244,
				"element": "C" 
			},
			{
				"x": -0.7349182188,
				"y": -0.1448457998,
				"z": 1.9141663529,
				"element": "O" 
			},
			{
				"x": 0.6316100376,
				"y": -1.5740607267,
				"z": 0.7605521969,
				"element": "N" 
			},
			{
				"x": -0.3239213403,
				"y": -2.5789356964,
				"z": 0.5361195605,
				"element": "N" 
			},
			{
				"x": 2.6225192212,
				"y": 2.9206633419,
				"z": 1.514003991,
				"element": "H" 
			},
			{
				"x": 3.0512149798,
				"y": 2.2018508794,
				"z": 2.9066181343,
				"element": "H" 
			},
			{
				"x": 0.3722812921,
				"y": 1.7687923279,
				"z": 2.5591010498,
				"element": "H" 
			},
			{
				"x": 1.5656891887,
				"y": -1.7174399449,
				"z": 0.3999709293,
				"element": "H" 
			},
			{
				"x": -0.6845565646,
				"y": -2.8692862987,
				"z": 1.4450627612,
				"element": "H" 
			},
			{
				"x": -1.1132353751,
				"y": -2.1504871147,
				"z": 0.0524363564,
				"element": "H" 
			}
		],
		 "valence_orbital": [ 
			{
				"type": "occ",
				"energy": -0.29054,
				"method": "rhf"
			},
			{
				"type": "occ",
				"energy": -0.29051,
				"method": "rhf"
			},
			{
				"type": "occ",
				"energy": -0.2827,
				"method": "rhf"
			},
			{
				"type": "occ",
				"energy": -0.2707,
				"method": "rhf"
			},
			{
				"type": "occ",
				"energy": -0.24851,
				"method": "rhf"
			},
			{
				"type": "unocc",
				"energy": -0.04185,
				"method": "rhf"
			},
			{
				"type": "unocc",
				"energy": 0.07347,
				"method": "rhf"
			},
			{
				"type": "unocc",
				"energy": 0.08134,
				"method": "rhf"
			},
			{
				"type": "unocc",
				"energy": 0.08825,
				"method": "rhf"
			},
			{
				"type": "unocc",
				"energy": 0.10463,
				"method": "rhf"
			}
		],
		"cosmo_sigma_profile": { 
			"-0.025": 0.0,
			"-0.024": 0.0,
			"-0.023": 0.0,
			"-0.022": 0.0,
			"-0.021": 0.0,
			"-0.02": 0.0,
			"-0.019": 0.0,
			"-0.018": 0.0,
			"-0.017": 0.0,
			"-0.016": 0.0,
			"-0.015": 0.0,
			"-0.014": 0.188681041046,
			"-0.013": 1.1883589745,
			"-0.012": 4.71119146212,
			"-0.011": 6.88674723514,
			"-0.01": 7.64440644528,
			"-0.009": 4.57793664927,
			"-0.008": 5.26827509788,
			"-0.007": 5.11468975691,
			"-0.006": 4.80850869217,
			"-0.005": 5.51777445851,
			"-0.004": 6.86828917114,
			"-0.003": 9.00001612383,
			"-0.002": 10.5439458167,
			"-0.001": 10.5518541643,
			"0.0": 5.20351886218,
			"0.001": 5.07558785973,
			"0.002": 5.14914669303,
			"0.003": 4.61010299157,
			"0.004": 2.75039657403,
			"0.005": 2.53825065665,
			"0.006": 4.39660497052,
			"0.007": 2.44839303827,
			"0.008": 4.0736784859,
			"0.009": 5.08553853561,
			"0.01": 3.98645012183,
			"0.011": 4.28601794522,
			"0.012": 9.30751124556,
			"0.013": 4.59651233918,
			"0.014": 1.53416773004,
			"0.015": 1.28824517431,
			"0.016": 0.741000693462,
			"0.017": 0.0218742480318,
			"0.018": 0.0,
			"0.019": 0.0,
			"0.02": 0.0,
			"0.021": 0.0,
			"0.022": 0.0,
			"0.023": 0.0,
			"0.024": 0.0,
			"0.025": 0.0
		}
	}
}
