{
	 "smiles": "OC(=O)CSC1=C(O)C=CC=C1", 
	 "Tm": 325.15, 
	 "num_atms": 20, 
	 "gaussian": { 
		 "optdone": 1, 
		 "sigma_profile": "yes", 
		 "theory": "DFT", 
		 "functional": "B3LYP", 
		 "basiset": "6-31G**", 
		 "properties": { 
			 "R2extent": 2942.2013, 
			 "electric_dipole_moment_norm": 3.31943273768, 
			 "electric_quadrupole_moment_norm": 15.084463481, 
			 "total_energy": -933.544942785, 
			 "HOMO_LUMO_gap": 0.19705, 
			 "cosmo_polarized_energy": -12.53, 
			 "cosmo_cavitation_energy": 25.73, 
			 "cosmo_dispersion_energy": -19.4, 
			 "cosmo_repulsion_energy": 1.5, 
			 "cosmo_total_nonelectrostatic_energy": 7.83, 
			 "SMD_solvation_energy": 5.43 
		},
		"coords": [
			{
				"x": -0.3526724303,
				"y": 4.1172046802,
				"z": 2.4660571627,
				"element": "O" 
			},
			{
				"x": -0.776999369,
				"y": 2.8723609801,
				"z": 2.1766104346,
				"element": "C" 
			},
			{
				"x": -1.9285990755,
				"y": 2.6321032697,
				"z": 1.8759119053,
				"element": "O" 
			},
			{
				"x": 0.3625321455,
				"y": 1.87484304,
				"z": 2.2773768261,
				"element": "C" 
			},
			{
				"x": -0.1461114052,
				"y": 0.1166296871,
				"z": 2.2519857138,
				"element": "S" 
			},
			{
				"x": -0.1914747696,
				"y": -0.2838563993,
				"z": 0.5063309382,
				"element": "C" 
			},
			{
				"x": -1.3678483246,
				"y": -0.1045520961,
				"z": -0.2585390192,
				"element": "C" 
			},
			{
				"x": -2.4937002073,
				"y": 0.4703207626,
				"z": 0.2042142406,
				"element": "O" 
			},
			{
				"x": -1.3885036391,
				"y": -0.5619097117,
				"z": -1.587742859,
				"element": "C" 
			},
			{
				"x": -0.2730841912,
				"y": -1.1718510965,
				"z": -2.1467645234,
				"element": "C" 
			},
			{
				"x": 0.8968276722,
				"y": -1.3434095839,
				"z": -1.3976269972,
				"element": "C" 
			},
			{
				"x": 0.9248481527,
				"y": -0.9045019699,
				"z": -0.0780766566,
				"element": "C" 
			},
			{
				"x": -1.1205266213,
				"y": 4.7061843901,
				"z": 2.3673320595,
				"element": "H" 
			},
			{
				"x": 0.8909911422,
				"y": 2.0507574564,
				"z": 3.2192660444,
				"element": "H" 
			},
			{
				"x": 1.0768408277,
				"y": 2.0725489066,
				"z": 1.4722689943,
				"element": "H" 
			},
			{
				"x": -2.320567568,
				"y": 0.9702535504,
				"z": 1.0264856134,
				"element": "H" 
			},
			{
				"x": -2.3005607926,
				"y": -0.4172025729,
				"z": -2.1575403869,
				"element": "H" 
			},
			{
				"x": -0.3143221887,
				"y": -1.5155853827,
				"z": -3.1766587947,
				"element": "H" 
			},
			{
				"x": 1.7680970913,
				"y": -1.8218055919,
				"z": -1.8334439684,
				"element": "H" 
			},
			{
				"x": 1.8129335509,
				"y": -1.0485323183,
				"z": 0.5298532726,
				"element": "H" 
			}
		],
		 "valence_orbital": [ 
			{
				"type": "occ",
				"energy": -0.32132,
				"method": "rhf"
			},
			{
				"type": "occ",
				"energy": -0.30555,
				"method": "rhf"
			},
			{
				"type": "occ",
				"energy": -0.25213,
				"method": "rhf"
			},
			{
				"type": "occ",
				"energy": -0.24483,
				"method": "rhf"
			},
			{
				"type": "occ",
				"energy": -0.21781,
				"method": "rhf"
			},
			{
				"type": "unocc",
				"energy": -0.02076,
				"method": "rhf"
			},
			{
				"type": "unocc",
				"energy": -0.01397,
				"method": "rhf"
			},
			{
				"type": "unocc",
				"energy": 0.01013,
				"method": "rhf"
			},
			{
				"type": "unocc",
				"energy": 0.04586,
				"method": "rhf"
			},
			{
				"type": "unocc",
				"energy": 0.05157,
				"method": "rhf"
			}
		],
		"cosmo_sigma_profile": { 
			"-0.025": 0.0,
			"-0.024": 0.0,
			"-0.023": 0.0,
			"-0.022": 0.0,
			"-0.021": 0.0,
			"-0.02": 0.0,
			"-0.019": 0.612200404595,
			"-0.018": 1.09576445427,
			"-0.017": 0.993238716512,
			"-0.016": 0.722412619322,
			"-0.015": 0.595621856944,
			"-0.014": 0.519328125515,
			"-0.013": 0.534818741686,
			"-0.012": 1.30055698213,
			"-0.011": 1.0710294676,
			"-0.01": 0.315083936983,
			"-0.009": 3.70430367477,
			"-0.008": 5.18287414606,
			"-0.007": 5.16535989053,
			"-0.006": 10.5421013136,
			"-0.005": 11.9609867486,
			"-0.004": 15.5364870382,
			"-0.003": 12.0323228211,
			"-0.002": 10.141579927,
			"-0.001": 10.233166095,
			"0.0": 10.4676025178,
			"0.001": 12.2825332235,
			"0.002": 14.5119274023,
			"0.003": 14.0690960741,
			"0.004": 15.3561766659,
			"0.005": 17.5748969288,
			"0.006": 8.94203925865,
			"0.007": 6.24943739811,
			"0.008": 5.84714582376,
			"0.009": 3.59184172131,
			"0.01": 3.28636341939,
			"0.011": 2.03852794204,
			"0.012": 0.729457619932,
			"0.013": 0.0,
			"0.014": 0.0,
			"0.015": 0.0,
			"0.016": 0.0,
			"0.017": 0.0,
			"0.018": 0.0,
			"0.019": 0.0,
			"0.02": 0.0,
			"0.021": 0.0,
			"0.022": 0.0,
			"0.023": 0.0,
			"0.024": 0.0,
			"0.025": 0.0
		}
	}
}
