{
	 "smiles": "CN1N(C(=O)C(CC2=C(C)N(C)N(C2=O)C2=CC=CC=C2)=C1C)C1=CC=CC=C1", 
	 "Tm": 428.15, 
	 "num_atms": 53, 
	 "gaussian": { 
		 "optdone": 1, 
		 "sigma_profile": "yes", 
		 "theory": "DFT", 
		 "functional": "B3LYP", 
		 "basiset": "6-31G**", 
		 "properties": { 
			 "R2extent": 15072.1093, 
			 "electric_dipole_moment_norm": 2.30063212618, 
			 "electric_quadrupole_moment_norm": 20.0964794427, 
			 "total_energy": -1260.34089477, 
			 "HOMO_LUMO_gap": 0.18433, 
			 "cosmo_polarized_energy": -19.0, 
			 "cosmo_cavitation_energy": 54.39, 
			 "cosmo_dispersion_energy": -37.04, 
			 "cosmo_repulsion_energy": 2.77, 
			 "cosmo_total_nonelectrostatic_energy": 20.13, 
			 "SMD_solvation_energy": 9.59 
		},
		"coords": [
			{
				"x": 2.366327274,
				"y": 0.5131584272,
				"z": -2.7920253023,
				"element": "C" 
			},
			{
				"x": 2.396967691,
				"y": -0.6251784735,
				"z": -1.8617985882,
				"element": "N" 
			},
			{
				"x": 2.8403535881,
				"y": -0.2764335328,
				"z": -0.5645951255,
				"element": "N" 
			},
			{
				"x": 2.0307626954,
				"y": -0.9166976195,
				"z": 0.3990944559,
				"element": "C" 
			},
			{
				"x": 2.2280902856,
				"y": -0.8865557125,
				"z": 1.6139378176,
				"element": "O" 
			},
			{
				"x": 1.0013276541,
				"y": -1.6083586291,
				"z": -0.3625269668,
				"element": "C" 
			},
			{
				"x": -0.0430908514,
				"y": -2.4571368144,
				"z": 0.313846847,
				"element": "C" 
			},
			{
				"x": -1.32596377,
				"y": -1.73793517,
				"z": 0.6370816571,
				"element": "C" 
			},
			{
				"x": -1.6592393811,
				"y": -0.986020858,
				"z": 1.720768488,
				"element": "C" 
			},
			{
				"x": -0.8743233582,
				"y": -0.7199999169,
				"z": 2.9664104555,
				"element": "C" 
			},
			{
				"x": -2.9334032918,
				"y": -0.4249483802,
				"z": 1.5639856729,
				"element": "N" 
			},
			{
				"x": -3.8710222775,
				"y": -0.5255533537,
				"z": 2.6928181894,
				"element": "C" 
			},
			{
				"x": -3.4498270643,
				"y": -0.9562794374,
				"z": 0.3594214465,
				"element": "N" 
			},
			{
				"x": -2.4543422929,
				"y": -1.7268419919,
				"z": -0.2826737556,
				"element": "C" 
			},
			{
				"x": -2.5697407849,
				"y": -2.2341813661,
				"z": -1.397840573,
				"element": "O" 
			},
			{
				"x": -4.4902066208,
				"y": -0.2656468604,
				"z": -0.3121692779,
				"element": "C" 
			},
			{
				"x": -4.761526989,
				"y": 1.0810053755,
				"z": -0.031251789,
				"element": "C" 
			},
			{
				"x": -5.8038552346,
				"y": 1.7301115915,
				"z": -0.6930832843,
				"element": "C" 
			},
			{
				"x": -6.5664454184,
				"y": 1.0558954502,
				"z": -1.6474549075,
				"element": "C" 
			},
			{
				"x": -6.2789135995,
				"y": -0.2805508006,
				"z": -1.9347288067,
				"element": "C" 
			},
			{
				"x": -5.2546210823,
				"y": -0.9503295869,
				"z": -1.2684120909,
				"element": "C" 
			},
			{
				"x": 1.2264052412,
				"y": -1.3739467993,
				"z": -1.6843776407,
				"element": "C" 
			},
			{
				"x": 0.4195979461,
				"y": -1.7967046627,
				"z": -2.8702523233,
				"element": "C" 
			},
			{
				"x": 4.2017768611,
				"y": 0.0691512824,
				"z": -0.3664811009,
				"element": "C" 
			},
			{
				"x": 5.1806475138,
				"y": -0.2836543629,
				"z": -1.3061220902,
				"element": "C" 
			},
			{
				"x": 6.5088674276,
				"y": 0.0859669907,
				"z": -1.0942096596,
				"element": "C" 
			},
			{
				"x": 6.8747955535,
				"y": 0.7866700293,
				"z": 0.0555982797,
				"element": "C" 
			},
			{
				"x": 5.8968801252,
				"y": 1.1189032009,
				"z": 0.9960279971,
				"element": "C" 
			},
			{
				"x": 4.5621770702,
				"y": 0.7754948894,
				"z": 0.7902649629,
				"element": "C" 
			},
			{
				"x": 2.1139829272,
				"y": 0.1420723567,
				"z": -3.7859945512,
				"element": "H" 
			},
			{
				"x": 1.6374441775,
				"y": 1.2743237213,
				"z": -2.4844607726,
				"element": "H" 
			},
			{
				"x": 3.3588093188,
				"y": 0.9628474012,
				"z": -2.8349030558,
				"element": "H" 
			},
			{
				"x": -0.2962332822,
				"y": -3.310689375,
				"z": -0.3228111052,
				"element": "H" 
			},
			{
				"x": 0.4022355936,
				"y": -2.8541764272,
				"z": 1.2321202331,
				"element": "H" 
			},
			{
				"x": 0.1891095765,
				"y": -0.889035035,
				"z": 2.7786054462,
				"element": "H" 
			},
			{
				"x": -1.1910679461,
				"y": -1.3724787823,
				"z": 3.7899231765,
				"element": "H" 
			},
			{
				"x": -1.0032918818,
				"y": 0.3162790818,
				"z": 3.2942629635,
				"element": "H" 
			},
			{
				"x": -3.4166114115,
				"y": -0.0502597278,
				"z": 3.5630195592,
				"element": "H" 
			},
			{
				"x": -4.1146660586,
				"y": -1.5699326189,
				"z": 2.9276985503,
				"element": "H" 
			},
			{
				"x": -4.7880905086,
				"y": 0.0102027735,
				"z": 2.4448628254,
				"element": "H" 
			},
			{
				"x": -4.1437382872,
				"y": 1.6127162561,
				"z": 0.6838229862,
				"element": "H" 
			},
			{
				"x": -6.0087918894,
				"y": 2.7728799354,
				"z": -0.4674536657,
				"element": "H" 
			},
			{
				"x": -7.374011154,
				"y": 1.5661787097,
				"z": -2.1636848193,
				"element": "H" 
			},
			{
				"x": -6.8630978532,
				"y": -0.8144044456,
				"z": -2.6788485902,
				"element": "H" 
			},
			{
				"x": -5.0243782925,
				"y": -1.983965532,
				"z": -1.4904630805,
				"element": "H" 
			},
			{
				"x": -0.4632610603,
				"y": -2.3502087487,
				"z": -2.5456140462,
				"element": "H" 
			},
			{
				"x": 1.0155701665,
				"y": -2.4132877421,
				"z": -3.5528424226,
				"element": "H" 
			},
			{
				"x": 0.0582334264,
				"y": -0.9315738848,
				"z": -3.4377643337,
				"element": "H" 
			},
			{
				"x": 4.8992690297,
				"y": -0.860151958,
				"z": -2.1803013081,
				"element": "H" 
			},
			{
				"x": 7.2607322248,
				"y": -0.18963227,
				"z": -1.8283394107,
				"element": "H" 
			},
			{
				"x": 7.9107162845,
				"y": 1.0679362184,
				"z": 0.2192413599,
				"element": "H" 
			},
			{
				"x": 6.1709723212,
				"y": 1.6596634136,
				"z": 1.8973597491,
				"element": "H" 
			},
			{
				"x": 3.8013096682,
				"y": 1.0250937716,
				"z": 1.5179113252,
				"element": "H" 
			}
		],
		 "valence_orbital": [ 
			{
				"type": "occ",
				"energy": -0.24287,
				"method": "rhf"
			},
			{
				"type": "occ",
				"energy": -0.23043,
				"method": "rhf"
			},
			{
				"type": "occ",
				"energy": -0.22418,
				"method": "rhf"
			},
			{
				"type": "occ",
				"energy": -0.20762,
				"method": "rhf"
			},
			{
				"type": "occ",
				"energy": -0.2044,
				"method": "rhf"
			},
			{
				"type": "unocc",
				"energy": -0.02007,
				"method": "rhf"
			},
			{
				"type": "unocc",
				"energy": -0.01933,
				"method": "rhf"
			},
			{
				"type": "unocc",
				"energy": -0.00025,
				"method": "rhf"
			},
			{
				"type": "unocc",
				"energy": 0.00046,
				"method": "rhf"
			},
			{
				"type": "unocc",
				"energy": 0.01054,
				"method": "rhf"
			}
		],
		"cosmo_sigma_profile": { 
			"-0.025": 0.0,
			"-0.024": 0.0,
			"-0.023": 0.0,
			"-0.022": 0.0,
			"-0.021": 0.0,
			"-0.02": 0.0,
			"-0.019": 0.0,
			"-0.018": 0.0,
			"-0.017": 0.0,
			"-0.016": 0.0,
			"-0.015": 0.0,
			"-0.014": 0.0,
			"-0.013": 0.0,
			"-0.012": 0.0,
			"-0.011": 0.0,
			"-0.01": 0.0,
			"-0.009": 0.0,
			"-0.008": 0.0,
			"-0.007": 1.55985509911,
			"-0.006": 18.8225911221,
			"-0.005": 42.4892222651,
			"-0.004": 47.4076167419,
			"-0.003": 47.8453301577,
			"-0.002": 34.4651424082,
			"-0.001": 33.5407184202,
			"0.0": 30.7665414006,
			"0.001": 31.3971723414,
			"0.002": 29.5952418975,
			"0.003": 26.1228696977,
			"0.004": 22.4055820217,
			"0.005": 24.0601258784,
			"0.006": 12.2687972952,
			"0.007": 3.93322759444,
			"0.008": 3.68917881343,
			"0.009": 3.59232568741,
			"0.01": 3.52566000516,
			"0.011": 3.71850249781,
			"0.012": 2.97323475439,
			"0.013": 4.84772471849,
			"0.014": 4.06682573516,
			"0.015": 0.0388365038044,
			"0.016": 0.0,
			"0.017": 0.0,
			"0.018": 0.0,
			"0.019": 0.0,
			"0.02": 0.0,
			"0.021": 0.0,
			"0.022": 0.0,
			"0.023": 0.0,
			"0.024": 0.0,
			"0.025": 0.0
		}
	}
}
