{
	 "smiles": "CC1=CC=C(C)C(OCC(O)=O)=C1", 
	 "Tm": 388.15, 
	 "num_atms": 25, 
	 "gaussian": { 
		 "optdone": 1, 
		 "sigma_profile": "yes", 
		 "theory": "DFT", 
		 "functional": "B3LYP", 
		 "basiset": "6-31G**", 
		 "properties": { 
			 "R2extent": 3049.0648, 
			 "electric_dipole_moment_norm": 3.63061319614, 
			 "electric_quadrupole_moment_norm": 16.0837668197, 
			 "total_energy": -613.978609491, 
			 "HOMO_LUMO_gap": 0.21924, 
			 "cosmo_polarized_energy": -11.95, 
			 "cosmo_cavitation_energy": 28.65, 
			 "cosmo_dispersion_energy": -20.37, 
			 "cosmo_repulsion_energy": 1.65, 
			 "cosmo_total_nonelectrostatic_energy": 9.93, 
			 "SMD_solvation_energy": 6.42 
		},
		"coords": [
			{
				"x": -2.5627864888,
				"y": -1.5971011894,
				"z": 0.1489252128,
				"element": "C" 
			},
			{
				"x": -1.1321628357,
				"y": -1.126449945,
				"z": 0.0317727362,
				"element": "C" 
			},
			{
				"x": -0.070675809,
				"y": -1.8848720863,
				"z": 0.5266192726,
				"element": "C" 
			},
			{
				"x": 1.2457937346,
				"y": -1.4321584358,
				"z": 0.4020545676,
				"element": "C" 
			},
			{
				"x": 1.5525039618,
				"y": -0.2209412352,
				"z": -0.2175188108,
				"element": "C" 
			},
			{
				"x": 2.9695383676,
				"y": 0.2736842082,
				"z": -0.3599262102,
				"element": "C" 
			},
			{
				"x": 0.4738837019,
				"y": 0.534666186,
				"z": -0.7143226146,
				"element": "C" 
			},
			{
				"x": 0.8291336578,
				"y": 1.7416201476,
				"z": -1.3053672029,
				"element": "O" 
			},
			{
				"x": -0.1309168632,
				"y": 2.4117187686,
				"z": -2.1138356174,
				"element": "C" 
			},
			{
				"x": -1.0538590649,
				"y": 3.3303668752,
				"z": -1.3040863482,
				"element": "C" 
			},
			{
				"x": -0.5943589793,
				"y": 3.6418542205,
				"z": -0.0781813023,
				"element": "O" 
			},
			{
				"x": -2.0829728985,
				"y": 3.7714910421,
				"z": -1.750904408,
				"element": "O" 
			},
			{
				"x": -0.8440867611,
				"y": 0.0989650597,
				"z": -0.5915919825,
				"element": "C" 
			},
			{
				"x": -3.2066603372,
				"y": -0.81904273,
				"z": 0.5731577723,
				"element": "H" 
			},
			{
				"x": -2.9778874231,
				"y": -1.858369716,
				"z": -0.8319612893,
				"element": "H" 
			},
			{
				"x": -2.6385274708,
				"y": -2.4816334386,
				"z": 0.7868776151,
				"element": "H" 
			},
			{
				"x": -0.2692779166,
				"y": -2.8347704794,
				"z": 1.0150191211,
				"element": "H" 
			},
			{
				"x": 2.0592379232,
				"y": -2.0377765793,
				"z": 0.7936246037,
				"element": "H" 
			},
			{
				"x": 3.2200728699,
				"y": 0.4711389253,
				"z": -1.4076335676,
				"element": "H" 
			},
			{
				"x": 3.6765794658,
				"y": -0.4624929542,
				"z": 0.0308054569,
				"element": "H" 
			},
			{
				"x": 3.1268967599,
				"y": 1.2141964045,
				"z": 0.1807963856,
				"element": "H" 
			},
			{
				"x": 0.4412320843,
				"y": 3.0389308709,
				"z": -2.805373694,
				"element": "H" 
			},
			{
				"x": -0.7371888769,
				"y": 1.7179839282,
				"z": -2.7020620782,
				"element": "H" 
			},
			{
				"x": 0.2369613281,
				"y": 3.1534314072,
				"z": 0.0589374893,
				"element": "H" 
			},
			{
				"x": -1.6663721299,
				"y": 0.7029607453,
				"z": -0.9616251074,
				"element": "H" 
			}
		],
		 "valence_orbital": [ 
			{
				"type": "occ",
				"energy": -0.33416,
				"method": "rhf"
			},
			{
				"type": "occ",
				"energy": -0.31756,
				"method": "rhf"
			},
			{
				"type": "occ",
				"energy": -0.27404,
				"method": "rhf"
			},
			{
				"type": "occ",
				"energy": -0.2484,
				"method": "rhf"
			},
			{
				"type": "occ",
				"energy": -0.22937,
				"method": "rhf"
			},
			{
				"type": "unocc",
				"energy": -0.01013,
				"method": "rhf"
			},
			{
				"type": "unocc",
				"energy": 0.00111,
				"method": "rhf"
			},
			{
				"type": "unocc",
				"energy": 0.0062,
				"method": "rhf"
			},
			{
				"type": "unocc",
				"energy": 0.07329,
				"method": "rhf"
			},
			{
				"type": "unocc",
				"energy": 0.0891,
				"method": "rhf"
			}
		],
		"cosmo_sigma_profile": { 
			"-0.025": 0.0,
			"-0.024": 0.0,
			"-0.023": 0.0,
			"-0.022": 0.0,
			"-0.021": 0.0,
			"-0.02": 0.0,
			"-0.019": 0.0,
			"-0.018": 0.0,
			"-0.017": 0.0,
			"-0.016": 0.0,
			"-0.015": 0.526823627063,
			"-0.014": 0.723067682642,
			"-0.013": 0.7127068613,
			"-0.012": 0.617381787872,
			"-0.011": 0.956209006841,
			"-0.01": 1.11069977801,
			"-0.009": 4.24003084349,
			"-0.008": 5.75491692248,
			"-0.007": 5.29825986154,
			"-0.006": 6.13566198642,
			"-0.005": 11.4817027889,
			"-0.004": 20.2187796537,
			"-0.003": 19.6490883478,
			"-0.002": 19.5584204654,
			"-0.001": 17.2310415421,
			"0.0": 21.6555065926,
			"0.001": 15.836567595,
			"0.002": 10.2275038728,
			"0.003": 10.3446691546,
			"0.004": 9.48360710717,
			"0.005": 9.7614898992,
			"0.006": 8.82586294145,
			"0.007": 3.7759042948,
			"0.008": 2.98770724112,
			"0.009": 3.64499779741,
			"0.01": 5.11996324331,
			"0.011": 4.83957538301,
			"0.012": 4.85115608295,
			"0.013": 0.948891819977,
			"0.014": 0.0,
			"0.015": 0.0,
			"0.016": 0.0,
			"0.017": 0.0,
			"0.018": 0.0,
			"0.019": 0.0,
			"0.02": 0.0,
			"0.021": 0.0,
			"0.022": 0.0,
			"0.023": 0.0,
			"0.024": 0.0,
			"0.025": 0.0
		}
	}
}
