{
	 "smiles": "CN1C=CC(=CC1=O)C(=O)N1CCCCC1CC(O)=O", 
	 "Tm": 468.15, 
	 "num_atms": 38, 
	 "gaussian": { 
		 "optdone": 1, 
		 "sigma_profile": "yes", 
		 "theory": "DFT", 
		 "functional": "B3LYP", 
		 "basiset": "6-31G**", 
		 "properties": { 
			 "R2extent": 7306.5679, 
			 "electric_dipole_moment_norm": 3.49014438956, 
			 "electric_quadrupole_moment_norm": 13.6796370416, 
			 "total_energy": -954.774266861, 
			 "HOMO_LUMO_gap": 0.16692, 
			 "cosmo_polarized_energy": -22.53, 
			 "cosmo_cavitation_energy": 39.68, 
			 "cosmo_dispersion_energy": -27.46, 
			 "cosmo_repulsion_energy": 2.1, 
			 "cosmo_total_nonelectrostatic_energy": 14.32, 
			 "SMD_solvation_energy": 8.28 
		},
		"coords": [
			{
				"x": -3.3984766113,
				"y": -2.9807576189,
				"z": -1.2056114496,
				"element": "C" 
			},
			{
				"x": -2.5658913222,
				"y": -2.100053309,
				"z": -0.3876870066,
				"element": "N" 
			},
			{
				"x": -1.9529446182,
				"y": -2.5495296354,
				"z": 0.7484249964,
				"element": "C" 
			},
			{
				"x": -1.1797946007,
				"y": -1.735902205,
				"z": 1.5221231521,
				"element": "C" 
			},
			{
				"x": -0.997177166,
				"y": -0.3804996582,
				"z": 1.1150852197,
				"element": "C" 
			},
			{
				"x": -1.6216571332,
				"y": 0.0855416433,
				"z": -0.0121492611,
				"element": "C" 
			},
			{
				"x": -2.4560109113,
				"y": -0.76043791,
				"z": -0.8418244969,
				"element": "C" 
			},
			{
				"x": -3.0411564992,
				"y": -0.4154998237,
				"z": -1.867985721,
				"element": "O" 
			},
			{
				"x": -0.2554878003,
				"y": 0.5407336312,
				"z": 2.0544184729,
				"element": "C" 
			},
			{
				"x": -0.6131998566,
				"y": 0.569747487,
				"z": 3.2324357918,
				"element": "O" 
			},
			{
				"x": 0.7596842832,
				"y": 1.3295982565,
				"z": 1.5718235208,
				"element": "N" 
			},
			{
				"x": 1.3022342575,
				"y": 1.2485175572,
				"z": 0.2060744926,
				"element": "C" 
			},
			{
				"x": 2.8321722883,
				"y": 1.3135782818,
				"z": 0.1957312172,
				"element": "C" 
			},
			{
				"x": 3.3257902483,
				"y": 2.5667400021,
				"z": 0.9225428355,
				"element": "C" 
			},
			{
				"x": 2.7935992049,
				"y": 2.5652917364,
				"z": 2.3609268431,
				"element": "C" 
			},
			{
				"x": 1.2692921353,
				"y": 2.3687806257,
				"z": 2.4887592739,
				"element": "C" 
			},
			{
				"x": 0.4142622467,
				"y": 3.6692862902,
				"z": 2.4135452349,
				"element": "C" 
			},
			{
				"x": 0.4126140429,
				"y": 4.4050907283,
				"z": 1.0940813797,
				"element": "C" 
			},
			{
				"x": -0.6174188723,
				"y": 4.0201759923,
				"z": 0.2947259382,
				"element": "O" 
			},
			{
				"x": 1.2140118699,
				"y": 5.2471122974,
				"z": 0.7476966055,
				"element": "O" 
			},
			{
				"x": -4.4111436376,
				"y": -2.5765949178,
				"z": -1.2732006313,
				"element": "H" 
			},
			{
				"x": -3.4203755524,
				"y": -3.9740747247,
				"z": -0.7557336615,
				"element": "H" 
			},
			{
				"x": -2.9969203145,
				"y": -3.0373798699,
				"z": -2.2201429876,
				"element": "H" 
			},
			{
				"x": -2.1261636913,
				"y": -3.5911623918,
				"z": 0.9965474211,
				"element": "H" 
			},
			{
				"x": -0.7310103277,
				"y": -2.103589376,
				"z": 2.4352511113,
				"element": "H" 
			},
			{
				"x": -1.5360235043,
				"y": 1.1188502236,
				"z": -0.3288000586,
				"element": "H" 
			},
			{
				"x": 0.9600575486,
				"y": 0.3164094383,
				"z": -0.2413769217,
				"element": "H" 
			},
			{
				"x": 0.8981877127,
				"y": 2.0663081013,
				"z": -0.4046303603,
				"element": "H" 
			},
			{
				"x": 3.2370843796,
				"y": 0.4158031563,
				"z": 0.6811235573,
				"element": "H" 
			},
			{
				"x": 3.172296277,
				"y": 1.3004998388,
				"z": -0.8460798212,
				"element": "H" 
			},
			{
				"x": 4.4209511691,
				"y": 2.5973475053,
				"z": 0.9379104426,
				"element": "H" 
			},
			{
				"x": 2.9918683266,
				"y": 3.4654848695,
				"z": 0.3929233933,
				"element": "H" 
			},
			{
				"x": 3.0702472647,
				"y": 3.4901674199,
				"z": 2.8777927591,
				"element": "H" 
			},
			{
				"x": 3.2755003464,
				"y": 1.7429326252,
				"z": 2.9051829478,
				"element": "H" 
			},
			{
				"x": 1.0651117157,
				"y": 1.9820904328,
				"z": 3.4888211444,
				"element": "H" 
			},
			{
				"x": 0.7975058205,
				"y": 4.3655700134,
				"z": 3.1647486253,
				"element": "H" 
			},
			{
				"x": -0.6118629576,
				"y": 3.4011260803,
				"z": 2.6768007648,
				"element": "H" 
			},
			{
				"x": -0.5393557614,
				"y": 4.5450972059,
				"z": -0.5204747638,
				"element": "H" 
			}
		],
		 "valence_orbital": [ 
			{
				"type": "occ",
				"energy": -0.27854,
				"method": "rhf"
			},
			{
				"type": "occ",
				"energy": -0.25871,
				"method": "rhf"
			},
			{
				"type": "occ",
				"energy": -0.24478,
				"method": "rhf"
			},
			{
				"type": "occ",
				"energy": -0.2429,
				"method": "rhf"
			},
			{
				"type": "occ",
				"energy": -0.21609,
				"method": "rhf"
			},
			{
				"type": "unocc",
				"energy": -0.04917,
				"method": "rhf"
			},
			{
				"type": "unocc",
				"energy": -0.00433,
				"method": "rhf"
			},
			{
				"type": "unocc",
				"energy": 0.0066,
				"method": "rhf"
			},
			{
				"type": "unocc",
				"energy": 0.03617,
				"method": "rhf"
			},
			{
				"type": "unocc",
				"energy": 0.0616,
				"method": "rhf"
			}
		],
		"cosmo_sigma_profile": { 
			"-0.025": 0.0,
			"-0.024": 0.0,
			"-0.023": 0.0,
			"-0.022": 0.0,
			"-0.021": 0.0,
			"-0.02": 0.0,
			"-0.019": 0.022933830868,
			"-0.018": 0.60608353773,
			"-0.017": 0.815457089447,
			"-0.016": 1.13423188752,
			"-0.015": 0.538400426895,
			"-0.014": 0.908097948082,
			"-0.013": 0.573596765157,
			"-0.012": 0.742281808895,
			"-0.011": 0.599699312871,
			"-0.01": 2.61987377017,
			"-0.009": 3.54278056954,
			"-0.008": 3.33468038533,
			"-0.007": 5.85146508534,
			"-0.006": 11.3714012792,
			"-0.005": 17.9081359858,
			"-0.004": 26.2728694002,
			"-0.003": 42.04324795,
			"-0.002": 34.9062984913,
			"-0.001": 30.079742851,
			"0.0": 25.5918289249,
			"0.001": 15.4966190845,
			"0.002": 11.4227229941,
			"0.003": 8.06735689683,
			"0.004": 6.76588662224,
			"0.005": 5.40752998779,
			"0.006": 5.02612975032,
			"0.007": 5.00660328045,
			"0.008": 5.14222991301,
			"0.009": 4.78470811432,
			"0.01": 3.96201382725,
			"0.011": 6.46917375571,
			"0.012": 7.75608286898,
			"0.013": 6.16763181455,
			"0.014": 7.5565744532,
			"0.015": 2.83071218573,
			"0.016": 0.358012990907,
			"0.017": 0.0,
			"0.018": 0.0,
			"0.019": 0.0,
			"0.02": 0.0,
			"0.021": 0.0,
			"0.022": 0.0,
			"0.023": 0.0,
			"0.024": 0.0,
			"0.025": 0.0
		}
	}
}
