{
	 "smiles": "NC1=NN=C(O1)C1=CC(=CC=C1)C#N", 
	 "Tm": 527.15, 
	 "num_atms": 20, 
	 "gaussian": { 
		 "optdone": 1, 
		 "sigma_profile": "yes", 
		 "theory": "DFT", 
		 "functional": "B3LYP", 
		 "basiset": "6-31G**", 
		 "properties": { 
			 "R2extent": 3545.6511, 
			 "electric_dipole_moment_norm": 2.58010710243, 
			 "electric_quadrupole_moment_norm": 32.3705572159, 
			 "total_energy": -640.76296105, 
			 "HOMO_LUMO_gap": 0.16693, 
			 "cosmo_polarized_energy": -19.45, 
			 "cosmo_cavitation_energy": 27.03, 
			 "cosmo_dispersion_energy": -19.46, 
			 "cosmo_repulsion_energy": 1.53, 
			 "cosmo_total_nonelectrostatic_energy": 9.09, 
			 "SMD_solvation_energy": 4.61 
		},
		"coords": [
			{
				"x": 2.8221091597,
				"y": 2.1839982779,
				"z": -1.9321225742,
				"element": "N" 
			},
			{
				"x": 2.0209879236,
				"y": 2.0717612961,
				"z": -0.8350562579,
				"element": "C" 
			},
			{
				"x": 2.1163302337,
				"y": 2.6926240783,
				"z": 0.3070298647,
				"element": "N" 
			},
			{
				"x": 1.004436781,
				"y": 2.285350684,
				"z": 1.043350397,
				"element": "N" 
			},
			{
				"x": 0.3368478145,
				"y": 1.4530440489,
				"z": 0.3092695508,
				"element": "C" 
			},
			{
				"x": 0.9325889504,
				"y": 1.2655301692,
				"z": -0.9241845668,
				"element": "O" 
			},
			{
				"x": -0.8907526657,
				"y": 0.7356639983,
				"z": 0.6234890605,
				"element": "C" 
			},
			{
				"x": -1.477745976,
				"y": -0.1329230421,
				"z": -0.303467107,
				"element": "C" 
			},
			{
				"x": -2.6598295103,
				"y": -0.8109523761,
				"z": 0.0290965564,
				"element": "C" 
			},
			{
				"x": -3.2571529477,
				"y": -0.6213621049,
				"z": 1.2859212045,
				"element": "C" 
			},
			{
				"x": -2.6651314595,
				"y": 0.2472027876,
				"z": 2.2026138675,
				"element": "C" 
			},
			{
				"x": -1.4919098191,
				"y": 0.9227157976,
				"z": 1.8810804398,
				"element": "C" 
			},
			{
				"x": -3.2582116968,
				"y": -1.70255206,
				"z": -0.9230258177,
				"element": "C" 
			},
			{
				"x": -3.7429048094,
				"y": -2.4261009091,
				"z": -1.6939812448,
				"element": "N" 
			},
			{
				"x": 2.874728138,
				"y": 1.3743809396,
				"z": -2.5336477172,
				"element": "H" 
			},
			{
				"x": 3.7060814818,
				"y": 2.6365442307,
				"z": -1.7473100741,
				"element": "H" 
			},
			{
				"x": -1.0250708088,
				"y": -0.2840806075,
				"z": -1.2763457943,
				"element": "H" 
			},
			{
				"x": -4.171251609,
				"y": -1.1507835904,
				"z": 1.5315787554,
				"element": "H" 
			},
			{
				"x": -3.123295601,
				"y": 0.3970586178,
				"z": 3.1749816804,
				"element": "H" 
			},
			{
				"x": -1.0251535793,
				"y": 1.5994797638,
				"z": 2.588529777,
				"element": "H" 
			}
		],
		 "valence_orbital": [ 
			{
				"type": "occ",
				"energy": -0.32676,
				"method": "rhf"
			},
			{
				"type": "occ",
				"energy": -0.29544,
				"method": "rhf"
			},
			{
				"type": "occ",
				"energy": -0.28168,
				"method": "rhf"
			},
			{
				"type": "occ",
				"energy": -0.27544,
				"method": "rhf"
			},
			{
				"type": "occ",
				"energy": -0.23349,
				"method": "rhf"
			},
			{
				"type": "unocc",
				"energy": -0.06656,
				"method": "rhf"
			},
			{
				"type": "unocc",
				"energy": -0.0503,
				"method": "rhf"
			},
			{
				"type": "unocc",
				"energy": 0.01992,
				"method": "rhf"
			},
			{
				"type": "unocc",
				"energy": 0.03158,
				"method": "rhf"
			},
			{
				"type": "unocc",
				"energy": 0.03935,
				"method": "rhf"
			}
		],
		"cosmo_sigma_profile": { 
			"-0.025": 0.0,
			"-0.024": 0.0,
			"-0.023": 0.0,
			"-0.022": 0.0,
			"-0.021": 0.0,
			"-0.02": 0.0,
			"-0.019": 0.0,
			"-0.018": 0.0,
			"-0.017": 0.0,
			"-0.016": 0.519989380217,
			"-0.015": 2.69536718044,
			"-0.014": 2.48759898133,
			"-0.013": 3.17242114292,
			"-0.012": 2.24680657947,
			"-0.011": 1.84739668132,
			"-0.01": 1.79056057065,
			"-0.009": 2.91533245222,
			"-0.008": 7.00301832297,
			"-0.007": 9.10881204144,
			"-0.006": 10.1402151845,
			"-0.005": 7.99429723512,
			"-0.004": 11.1715586818,
			"-0.003": 13.5390261096,
			"-0.002": 15.9525616693,
			"-0.001": 16.8170706327,
			"0.0": 18.2766645717,
			"0.001": 17.9545387278,
			"0.002": 10.5058540082,
			"0.003": 6.53874168189,
			"0.004": 4.14648514543,
			"0.005": 5.57123281905,
			"0.006": 5.20855304378,
			"0.007": 4.66319689051,
			"0.008": 5.20104627412,
			"0.009": 6.87967326093,
			"0.01": 5.53857770603,
			"0.011": 5.11095458271,
			"0.012": 6.25760505261,
			"0.013": 3.55797482953,
			"0.014": 2.28969822233,
			"0.015": 1.35847204604,
			"0.016": 0.647973797279,
			"0.017": 0.0,
			"0.018": 0.0,
			"0.019": 0.0,
			"0.02": 0.0,
			"0.021": 0.0,
			"0.022": 0.0,
			"0.023": 0.0,
			"0.024": 0.0,
			"0.025": 0.0
		}
	}
}
