{
	 "smiles": "ClS(=O)(=O)C1=CC=C(Br)C=C1", 
	 "Tm": 348.65, 
	 "num_atms": 15, 
	 "gaussian": { 
		 "optdone": 1, 
		 "sigma_profile": "yes", 
		 "theory": "DFT", 
		 "functional": "B3LYP", 
		 "basiset": "6-31G**", 
		 "properties": { 
			 "R2extent": 4544.1616, 
			 "electric_dipole_moment_norm": 3.97371390138, 
			 "electric_quadrupole_moment_norm": 9.99007582554, 
			 "total_energy": -3811.20880813, 
			 "HOMO_LUMO_gap": 0.18134, 
			 "cosmo_polarized_energy": -8.55, 
			 "cosmo_cavitation_energy": 25.56, 
			 "cosmo_dispersion_energy": -19.73, 
			 "cosmo_repulsion_energy": 1.54, 
			 "cosmo_total_nonelectrostatic_energy": 7.37, 
			 "SMD_solvation_energy": 1.96 
		},
		"coords": [
			{
				"x": 1.4205212855,
				"y": 2.027467983,
				"z": -2.5944285859,
				"element": "Cl" 
			},
			{
				"x": 0.0600960003,
				"y": 0.4319201336,
				"z": -2.2014329597,
				"element": "S" 
			},
			{
				"x": -1.276563828,
				"y": 0.9893771809,
				"z": -2.3628388516,
				"element": "O" 
			},
			{
				"x": 0.533898142,
				"y": -0.7058929071,
				"z": -2.9788324459,
				"element": "O" 
			},
			{
				"x": 0.3666748946,
				"y": 0.1295651109,
				"z": -0.4683162554,
				"element": "C" 
			},
			{
				"x": -0.3895484772,
				"y": 0.8192356708,
				"z": 0.4801548589,
				"element": "C" 
			},
			{
				"x": -0.1597975416,
				"y": 0.5695577917,
				"z": 1.8311352014,
				"element": "C" 
			},
			{
				"x": 0.8175387169,
				"y": -0.3580152524,
				"z": 2.1987312397,
				"element": "C" 
			},
			{
				"x": 1.1297666942,
				"y": -0.6954704737,
				"z": 4.0447150291,
				"element": "Br" 
			},
			{
				"x": 1.5686901737,
				"y": -1.0464852756,
				"z": 1.2434730027,
				"element": "C" 
			},
			{
				"x": 1.3428450112,
				"y": -0.8004771827,
				"z": -0.1088262914,
				"element": "C" 
			},
			{
				"x": -1.148084832,
				"y": 1.5277670479,
				"z": 0.1669530725,
				"element": "H" 
			},
			{
				"x": -0.7348283913,
				"y": 1.0864152313,
				"z": 2.5903117778,
				"element": "H" 
			},
			{
				"x": 2.3168476031,
				"y": -1.7667039749,
				"z": 1.5528201222,
				"element": "H" 
			},
			{
				"x": 1.9056445486,
				"y": -1.3272610838,
				"z": -0.8712189143,
				"element": "H" 
			}
		],
		 "valence_orbital": [ 
			{
				"type": "occ",
				"energy": -0.33017,
				"method": "rhf"
			},
			{
				"type": "occ",
				"energy": -0.31818,
				"method": "rhf"
			},
			{
				"type": "occ",
				"energy": -0.31275,
				"method": "rhf"
			},
			{
				"type": "occ",
				"energy": -0.3009,
				"method": "rhf"
			},
			{
				"type": "occ",
				"energy": -0.27783,
				"method": "rhf"
			},
			{
				"type": "unocc",
				"energy": -0.09649,
				"method": "rhf"
			},
			{
				"type": "unocc",
				"energy": -0.05391,
				"method": "rhf"
			},
			{
				"type": "unocc",
				"energy": -0.05023,
				"method": "rhf"
			},
			{
				"type": "unocc",
				"energy": -0.01834,
				"method": "rhf"
			},
			{
				"type": "unocc",
				"energy": 0.04759,
				"method": "rhf"
			}
		],
		"cosmo_sigma_profile": { 
			"-0.025": 0.0,
			"-0.024": 0.0,
			"-0.023": 0.0,
			"-0.022": 0.0,
			"-0.021": 0.0,
			"-0.02": 0.0,
			"-0.019": 0.0,
			"-0.018": 0.0,
			"-0.017": 0.0,
			"-0.016": 0.0,
			"-0.015": 0.0,
			"-0.014": 0.0,
			"-0.013": 0.0,
			"-0.012": 0.0,
			"-0.011": 0.0,
			"-0.01": 0.110413701236,
			"-0.009": 4.24458404659,
			"-0.008": 8.58519166626,
			"-0.007": 7.90725868961,
			"-0.006": 6.56916696098,
			"-0.005": 9.43761238781,
			"-0.004": 8.42704675023,
			"-0.003": 10.2490925658,
			"-0.002": 14.3012930168,
			"-0.001": 20.4553977301,
			"0.0": 27.991641391,
			"0.001": 15.5764051274,
			"0.002": 14.5982439378,
			"0.003": 24.4923051758,
			"0.004": 12.6659604792,
			"0.005": 3.31908942049,
			"0.006": 3.57804941766,
			"0.007": 6.46248923722,
			"0.008": 9.52397625731,
			"0.009": 3.61725928557,
			"0.01": 0.0,
			"0.011": 0.0,
			"0.012": 0.0,
			"0.013": 0.0,
			"0.014": 0.0,
			"0.015": 0.0,
			"0.016": 0.0,
			"0.017": 0.0,
			"0.018": 0.0,
			"0.019": 0.0,
			"0.02": 0.0,
			"0.021": 0.0,
			"0.022": 0.0,
			"0.023": 0.0,
			"0.024": 0.0,
			"0.025": 0.0
		}
	}
}
