{
	 "smiles": "N1C=CC=C2C1=CC=CC2=C1N=C2C=CN=CC2=N1", 
	 "Tm": 590.15, 
	 "num_atms": 29, 
	 "gaussian": { 
		 "optdone": 1, 
		 "sigma_profile": "yes", 
		 "theory": "DFT", 
		 "functional": "B3LYP", 
		 "basiset": "6-31G**", 
		 "properties": { 
			 "R2extent": 5946.023, 
			 "electric_dipole_moment_norm": 15.5461333669, 
			 "electric_quadrupole_moment_norm": 21.7177218391, 
			 "total_energy": -796.598847712, 
			 "HOMO_LUMO_gap": 0.06508, 
			 "cosmo_polarized_energy": -42.38, 
			 "cosmo_cavitation_energy": 33.18, 
			 "cosmo_dispersion_energy": -25.21, 
			 "cosmo_repulsion_energy": 1.87, 
			 "cosmo_total_nonelectrostatic_energy": 9.84, 
			 "SMD_solvation_energy": 1.35 
		},
		"coords": [
			{
				"x": 0.0628945547,
				"y": -3.3617715621,
				"z": 1.8023471346,
				"element": "N" 
			},
			{
				"x": -1.0049801352,
				"y": -3.8120459721,
				"z": 1.1171930715,
				"element": "C" 
			},
			{
				"x": -1.7226132633,
				"y": -2.9454352539,
				"z": 0.31741583,
				"element": "C" 
			},
			{
				"x": -1.3246981223,
				"y": -1.6063608737,
				"z": 0.2327750199,
				"element": "C" 
			},
			{
				"x": -0.2120094564,
				"y": -1.1237631906,
				"z": 0.9425955431,
				"element": "C" 
			},
			{
				"x": 0.5166761294,
				"y": -2.0545065444,
				"z": 1.7694114553,
				"element": "C" 
			},
			{
				"x": 1.6326906011,
				"y": -1.6786431065,
				"z": 2.5126525615,
				"element": "C" 
			},
			{
				"x": 2.043258785,
				"y": -0.3470057298,
				"z": 2.439526604,
				"element": "C" 
			},
			{
				"x": 1.3716849361,
				"y": 0.5878103384,
				"z": 1.6551122649,
				"element": "C" 
			},
			{
				"x": 0.2418341339,
				"y": 0.2523025689,
				"z": 0.8896498836,
				"element": "C" 
			},
			{
				"x": -0.3930150059,
				"y": 1.291297926,
				"z": 0.1030813809,
				"element": "C" 
			},
			{
				"x": 0.1200622692,
				"y": 2.5585961482,
				"z": 0.1258164847,
				"element": "N" 
			},
			{
				"x": -0.7125643663,
				"y": 3.2249047624,
				"z": -0.703342483,
				"element": "C" 
			},
			{
				"x": -0.754853185,
				"y": 4.5715883045,
				"z": -1.1275760498,
				"element": "C" 
			},
			{
				"x": -1.7683250812,
				"y": 4.915539765,
				"z": -2.0008727197,
				"element": "C" 
			},
			{
				"x": -2.7240525424,
				"y": 4.0629138901,
				"z": -2.4817656186,
				"element": "N" 
			},
			{
				"x": -2.6958774843,
				"y": 2.7978852885,
				"z": -2.0920557295,
				"element": "C" 
			},
			{
				"x": -1.7110959793,
				"y": 2.3180584508,
				"z": -1.201200752,
				"element": "C" 
			},
			{
				"x": -1.4916471852,
				"y": 1.0863794128,
				"z": -0.6754593596,
				"element": "N" 
			},
			{
				"x": 0.577249674,
				"y": -4.0119810371,
				"z": 2.384100704,
				"element": "H" 
			},
			{
				"x": -1.2466074908,
				"y": -4.8617425758,
				"z": 1.2373909083,
				"element": "H" 
			},
			{
				"x": -2.5813154824,
				"y": -3.3098508813,
				"z": -0.2328387661,
				"element": "H" 
			},
			{
				"x": -1.855716671,
				"y": -0.8796714311,
				"z": -0.3836800498,
				"element": "H" 
			},
			{
				"x": 2.1608755313,
				"y": -2.4025848379,
				"z": 3.1263819276,
				"element": "H" 
			},
			{
				"x": 2.9113885267,
				"y": -0.0311737915,
				"z": 3.0107927746,
				"element": "H" 
			},
			{
				"x": 1.7031016966,
				"y": 1.6183340869,
				"z": 1.6089399535,
				"element": "H" 
			},
			{
				"x": -0.0283565785,
				"y": 5.3028428914,
				"z": -0.7861648856,
				"element": "H" 
			},
			{
				"x": -1.8488431295,
				"y": 5.9397869682,
				"z": -2.3604359446,
				"element": "H" 
			},
			{
				"x": -3.4652456786,
				"y": 2.1327959855,
				"z": -2.4853911437,
				"element": "H" 
			}
		],
		 "valence_orbital": [ 
			{
				"type": "occ",
				"energy": -0.2509,
				"method": "rhf"
			},
			{
				"type": "occ",
				"energy": -0.22703,
				"method": "rhf"
			},
			{
				"type": "occ",
				"energy": -0.20911,
				"method": "rhf"
			},
			{
				"type": "occ",
				"energy": -0.18941,
				"method": "rhf"
			},
			{
				"type": "occ",
				"energy": -0.18027,
				"method": "rhf"
			},
			{
				"type": "unocc",
				"energy": -0.11519,
				"method": "rhf"
			},
			{
				"type": "unocc",
				"energy": -0.05548,
				"method": "rhf"
			},
			{
				"type": "unocc",
				"energy": -0.03249,
				"method": "rhf"
			},
			{
				"type": "unocc",
				"energy": 0.01279,
				"method": "rhf"
			},
			{
				"type": "unocc",
				"energy": 0.03566,
				"method": "rhf"
			}
		],
		"cosmo_sigma_profile": { 
			"-0.025": 0.0,
			"-0.024": 0.0,
			"-0.023": 0.0,
			"-0.022": 0.0,
			"-0.021": 0.0,
			"-0.02": 0.344814535478,
			"-0.019": 2.3800526321,
			"-0.018": 2.18582046073,
			"-0.017": 1.72604645875,
			"-0.016": 1.37980612351,
			"-0.015": 1.71323091557,
			"-0.014": 1.18084345233,
			"-0.013": 1.77793656907,
			"-0.012": 3.29044940616,
			"-0.011": 3.77247661593,
			"-0.01": 2.56984101917,
			"-0.009": 6.14558939632,
			"-0.008": 6.89124224283,
			"-0.007": 7.9002514003,
			"-0.006": 9.23700341146,
			"-0.005": 14.0495663844,
			"-0.004": 16.4003937865,
			"-0.003": 12.6562666662,
			"-0.002": 16.0656060988,
			"-0.001": 17.6676275983,
			"0.0": 16.1797932415,
			"0.001": 13.1560797198,
			"0.002": 14.4576546573,
			"0.003": 9.24945053227,
			"0.004": 9.43072630922,
			"0.005": 16.9921129321,
			"0.006": 15.1690813563,
			"0.007": 8.66335111238,
			"0.008": 7.20589591153,
			"0.009": 3.97443609483,
			"0.01": 5.60442491237,
			"0.011": 4.89789671962,
			"0.012": 2.95106905678,
			"0.013": 2.72533629724,
			"0.014": 2.30788269226,
			"0.015": 2.53227436383,
			"0.016": 1.51652661109,
			"0.017": 1.34711516908,
			"0.018": 0.967524231125,
			"0.019": 0.319307351455,
			"0.02": 0.0,
			"0.021": 0.0,
			"0.022": 0.0,
			"0.023": 0.0,
			"0.024": 0.0,
			"0.025": 0.0
		}
	}
}
