{
	 "smiles": "NC1=C(C#N)C2=C(CCC2)S1", 
	 "Tm": 426.65, 
	 "num_atms": 19, 
	 "gaussian": { 
		 "optdone": 1, 
		 "sigma_profile": "yes", 
		 "theory": "DFT", 
		 "functional": "B3LYP", 
		 "basiset": "6-31G**", 
		 "properties": { 
			 "R2extent": 2186.6392, 
			 "electric_dipole_moment_norm": 3.86720971891, 
			 "electric_quadrupole_moment_norm": 21.3732184979, 
			 "total_energy": -817.337114339, 
			 "HOMO_LUMO_gap": 0.18053, 
			 "cosmo_polarized_energy": -12.04, 
			 "cosmo_cavitation_energy": 24.68, 
			 "cosmo_dispersion_energy": -18.43, 
			 "cosmo_repulsion_energy": 1.46, 
			 "cosmo_total_nonelectrostatic_energy": 7.72, 
			 "SMD_solvation_energy": 4.49 
		},
		"coords": [
			{
				"x": 0.9207530461,
				"y": -0.4791422615,
				"z": -3.309765948,
				"element": "N" 
			},
			{
				"x": 0.3846029189,
				"y": -0.1137942404,
				"z": -2.0972400053,
				"element": "C" 
			},
			{
				"x": 0.7193312279,
				"y": 0.9934332636,
				"z": -1.3242271425,
				"element": "C" 
			},
			{
				"x": 1.6236880772,
				"y": 1.9798106722,
				"z": -1.7946888012,
				"element": "C" 
			},
			{
				"x": 2.3663970728,
				"y": 2.7695561632,
				"z": -2.2254844267,
				"element": "N" 
			},
			{
				"x": 0.0328922545,
				"y": 0.9887275644,
				"z": -0.0577942623,
				"element": "C" 
			},
			{
				"x": -0.7886531069,
				"y": -0.0767305668,
				"z": 0.1119358755,
				"element": "C" 
			},
			{
				"x": -1.5960964162,
				"y": -0.0330400444,
				"z": 1.3776817002,
				"element": "C" 
			},
			{
				"x": -0.8533509508,
				"y": 1.0990218819,
				"z": 2.1575196125,
				"element": "C" 
			},
			{
				"x": -0.0669764233,
				"y": 1.9407884718,
				"z": 1.1050760202,
				"element": "C" 
			},
			{
				"x": -0.7655033507,
				"y": -1.1536262665,
				"z": -1.2697274842,
				"element": "S" 
			},
			{
				"x": 0.3183148603,
				"y": -0.9810489732,
				"z": -3.9468918576,
				"element": "H" 
			},
			{
				"x": 1.473665616,
				"y": 0.2398477811,
				"z": -3.7601190388,
				"element": "H" 
			},
			{
				"x": -1.6043425444,
				"y": -0.9760174016,
				"z": 1.9355691159,
				"element": "H" 
			},
			{
				"x": -2.6445042347,
				"y": 0.2295428992,
				"z": 1.1780085012,
				"element": "H" 
			},
			{
				"x": -1.5407673748,
				"y": 1.7090865507,
				"z": 2.7494809374,
				"element": "H" 
			},
			{
				"x": -0.1421222162,
				"y": 0.6412313596,
				"z": 2.8517172958,
				"element": "H" 
			},
			{
				"x": 0.9071710798,
				"y": 2.2689856621,
				"z": 1.4834484903,
				"element": "H" 
			},
			{
				"x": -0.6143995357,
				"y": 2.8486674846,
				"z": 0.8174014175,
				"element": "H" 
			}
		],
		 "valence_orbital": [ 
			{
				"type": "occ",
				"energy": -0.3438,
				"method": "rhf"
			},
			{
				"type": "occ",
				"energy": -0.32091,
				"method": "rhf"
			},
			{
				"type": "occ",
				"energy": -0.30972,
				"method": "rhf"
			},
			{
				"type": "occ",
				"energy": -0.25218,
				"method": "rhf"
			},
			{
				"type": "occ",
				"energy": -0.20325,
				"method": "rhf"
			},
			{
				"type": "unocc",
				"energy": -0.02272,
				"method": "rhf"
			},
			{
				"type": "unocc",
				"energy": -0.00057,
				"method": "rhf"
			},
			{
				"type": "unocc",
				"energy": 0.02299,
				"method": "rhf"
			},
			{
				"type": "unocc",
				"energy": 0.04619,
				"method": "rhf"
			},
			{
				"type": "unocc",
				"energy": 0.06287,
				"method": "rhf"
			}
		],
		"cosmo_sigma_profile": { 
			"-0.025": 0.0,
			"-0.024": 0.0,
			"-0.023": 0.0,
			"-0.022": 0.0,
			"-0.021": 0.0,
			"-0.02": 0.0,
			"-0.019": 0.0,
			"-0.018": 0.0,
			"-0.017": 0.0,
			"-0.016": 0.0,
			"-0.015": 0.564882801067,
			"-0.014": 1.93526276189,
			"-0.013": 2.88253851861,
			"-0.012": 2.76571670259,
			"-0.011": 2.338051752,
			"-0.01": 2.63995193868,
			"-0.009": 1.76845217958,
			"-0.008": 2.13442473647,
			"-0.007": 1.63044566013,
			"-0.006": 1.76142357943,
			"-0.005": 2.20156639006,
			"-0.004": 12.8771764273,
			"-0.003": 19.7744635779,
			"-0.002": 24.233904044,
			"-0.001": 21.5180870608,
			"0.0": 16.6362464971,
			"0.001": 13.2502515915,
			"0.002": 13.9561733599,
			"0.003": 14.2725696312,
			"0.004": 8.95168523436,
			"0.005": 3.93167461252,
			"0.006": 2.39820956615,
			"0.007": 3.36840041233,
			"0.008": 3.27596218236,
			"0.009": 3.78708068004,
			"0.01": 3.71591017576,
			"0.011": 3.83026177906,
			"0.012": 2.71270563242,
			"0.013": 2.53066091814,
			"0.014": 1.2695040407,
			"0.015": 0.0,
			"0.016": 0.0,
			"0.017": 0.0,
			"0.018": 0.0,
			"0.019": 0.0,
			"0.02": 0.0,
			"0.021": 0.0,
			"0.022": 0.0,
			"0.023": 0.0,
			"0.024": 0.0,
			"0.025": 0.0
		}
	}
}
