{
	 "smiles": "COC(=O)C1=CC=C(C=CC(O)=O)C=C1", 
	 "Tm": 510.15, 
	 "num_atms": 25, 
	 "gaussian": { 
		 "optdone": 1, 
		 "sigma_profile": "yes", 
		 "theory": "DFT", 
		 "functional": "B3LYP", 
		 "basiset": "6-31G**", 
		 "properties": { 
			 "R2extent": 5731.7174, 
			 "electric_dipole_moment_norm": 5.70820737097, 
			 "electric_quadrupole_moment_norm": 20.4301890334, 
			 "total_energy": -726.09577305, 
			 "HOMO_LUMO_gap": 0.16344, 
			 "cosmo_polarized_energy": -19.47, 
			 "cosmo_cavitation_energy": 31.1, 
			 "cosmo_dispersion_energy": -22.42, 
			 "cosmo_repulsion_energy": 1.75, 
			 "cosmo_total_nonelectrostatic_energy": 10.42, 
			 "SMD_solvation_energy": 8.23 
		},
		"coords": [
			{
				"x": 2.823806685,
				"y": -1.0302717059,
				"z": -4.2252376483,
				"element": "C" 
			},
			{
				"x": 1.833816195,
				"y": -0.8843669193,
				"z": -3.1943094229,
				"element": "O" 
			},
			{
				"x": 2.0739690957,
				"y": 0.1012713168,
				"z": -2.3013100066,
				"element": "C" 
			},
			{
				"x": 3.0517379612,
				"y": 0.8217703141,
				"z": -2.349690411,
				"element": "O" 
			},
			{
				"x": 1.009616778,
				"y": 0.1988660862,
				"z": -1.2616220298,
				"element": "C" 
			},
			{
				"x": 1.144482097,
				"y": 1.1883483878,
				"z": -0.2755389197,
				"element": "C" 
			},
			{
				"x": 0.1864225927,
				"y": 1.326732107,
				"z": 0.7177881553,
				"element": "C" 
			},
			{
				"x": -0.9384467724,
				"y": 0.4787055642,
				"z": 0.7543789046,
				"element": "C" 
			},
			{
				"x": -1.9808487517,
				"y": 0.576302034,
				"z": 1.7802520469,
				"element": "C" 
			},
			{
				"x": -2.0830126513,
				"y": 1.4963065046,
				"z": 2.7575907665,
				"element": "C" 
			},
			{
				"x": -3.2046376432,
				"y": 1.5787042049,
				"z": 3.7299565105,
				"element": "C" 
			},
			{
				"x": -3.910945469,
				"y": 0.439132083,
				"z": 3.9744512082,
				"element": "O" 
			},
			{
				"x": -3.5048961294,
				"y": 2.6106126837,
				"z": 4.2837283113,
				"element": "O" 
			},
			{
				"x": -1.0597713977,
				"y": -0.5109865526,
				"z": -0.238373707,
				"element": "C" 
			},
			{
				"x": -0.1017630172,
				"y": -0.6525510003,
				"z": -1.23688772,
				"element": "C" 
			},
			{
				"x": 2.9049453822,
				"y": -0.1122138296,
				"z": -4.8123945877,
				"element": "H" 
			},
			{
				"x": 3.8003799929,
				"y": -1.2573372779,
				"z": -3.7905570295,
				"element": "H" 
			},
			{
				"x": 2.4795959168,
				"y": -1.8554059544,
				"z": -4.8483585629,
				"element": "H" 
			},
			{
				"x": 2.0130746783,
				"y": 1.8370088656,
				"z": -0.3094835251,
				"element": "H" 
			},
			{
				"x": 0.3133379751,
				"y": 2.0955691223,
				"z": 1.4728341525,
				"element": "H" 
			},
			{
				"x": -2.7617716842,
				"y": -0.1803568695,
				"z": 1.6932780563,
				"element": "H" 
			},
			{
				"x": -1.3810561368,
				"y": 2.3190617658,
				"z": 2.8453278188,
				"element": "H" 
			},
			{
				"x": -3.441114196,
				"y": -0.324505703,
				"z": 3.6118768006,
				"element": "H" 
			},
			{
				"x": -1.9209916632,
				"y": -1.1739129927,
				"z": -0.2249078983,
				"element": "H" 
			},
			{
				"x": -0.2088298379,
				"y": -1.4177822347,
				"z": -1.9966912626,
				"element": "H" 
			}
		],
		 "valence_orbital": [ 
			{
				"type": "occ",
				"energy": -0.31131,
				"method": "rhf"
			},
			{
				"type": "occ",
				"energy": -0.28415,
				"method": "rhf"
			},
			{
				"type": "occ",
				"energy": -0.27629,
				"method": "rhf"
			},
			{
				"type": "occ",
				"energy": -0.27497,
				"method": "rhf"
			},
			{
				"type": "occ",
				"energy": -0.25317,
				"method": "rhf"
			},
			{
				"type": "unocc",
				"energy": -0.08973,
				"method": "rhf"
			},
			{
				"type": "unocc",
				"energy": -0.0263,
				"method": "rhf"
			},
			{
				"type": "unocc",
				"energy": -0.02254,
				"method": "rhf"
			},
			{
				"type": "unocc",
				"energy": 0.04418,
				"method": "rhf"
			},
			{
				"type": "unocc",
				"energy": 0.05748,
				"method": "rhf"
			}
		],
		"cosmo_sigma_profile": { 
			"-0.025": 0.0,
			"-0.024": 0.0,
			"-0.023": 0.0,
			"-0.022": 0.0,
			"-0.021": 0.0,
			"-0.02": 0.0,
			"-0.019": 0.299445592156,
			"-0.018": 0.671546670142,
			"-0.017": 0.751451879208,
			"-0.016": 1.26480978186,
			"-0.015": 1.08566673358,
			"-0.014": 0.928764045824,
			"-0.013": 0.954233254907,
			"-0.012": 1.14404716462,
			"-0.011": 1.79396357431,
			"-0.01": 1.14170066566,
			"-0.009": 2.5518271558,
			"-0.008": 5.97412291108,
			"-0.007": 8.33990478374,
			"-0.006": 14.3252776149,
			"-0.005": 16.1714836846,
			"-0.004": 16.2053482206,
			"-0.003": 18.491744805,
			"-0.002": 14.5254897965,
			"-0.001": 13.8090014353,
			"0.0": 17.5434161892,
			"0.001": 20.4026344011,
			"0.002": 20.823634926,
			"0.003": 14.4403313355,
			"0.004": 4.95859488032,
			"0.005": 5.71885087946,
			"0.006": 4.32758767624,
			"0.007": 4.87889599282,
			"0.008": 3.00060280163,
			"0.009": 4.17230288118,
			"0.01": 7.43742089601,
			"0.011": 7.83674567899,
			"0.012": 9.94340260406,
			"0.013": 2.76685845809,
			"0.014": 0.140520479484,
			"0.015": 0.0,
			"0.016": 0.0,
			"0.017": 0.0,
			"0.018": 0.0,
			"0.019": 0.0,
			"0.02": 0.0,
			"0.021": 0.0,
			"0.022": 0.0,
			"0.023": 0.0,
			"0.024": 0.0,
			"0.025": 0.0
		}
	}
}
