{
	 "smiles": "CN1C2=CC=C(Cl)C=C2C(=NCC1=O)C1=CCCCC1", 
	 "Tm": 417.15, 
	 "num_atms": 37, 
	 "gaussian": { 
		 "optdone": 1, 
		 "sigma_profile": "yes", 
		 "theory": "DFT", 
		 "functional": "B3LYP", 
		 "basiset": "6-31G**", 
		 "properties": { 
			 "R2extent": 6921.6432, 
			 "electric_dipole_moment_norm": 2.85914558216, 
			 "electric_quadrupole_moment_norm": 20.9381128806, 
			 "total_energy": -1264.86252034, 
			 "HOMO_LUMO_gap": 0.1756, 
			 "cosmo_polarized_energy": -12.63, 
			 "cosmo_cavitation_energy": 39.95, 
			 "cosmo_dispersion_energy": -28.26, 
			 "cosmo_repulsion_energy": 2.2, 
			 "cosmo_total_nonelectrostatic_energy": 13.89, 
			 "SMD_solvation_energy": 3.66 
		},
		"coords": [
			{
				"x": 0.3392867629,
				"y": -1.4608277951,
				"z": -4.413453735,
				"element": "C" 
			},
			{
				"x": 0.4379594095,
				"y": -0.382227748,
				"z": -3.4250303452,
				"element": "N" 
			},
			{
				"x": 1.3297788466,
				"y": -0.522033508,
				"z": -2.3361400658,
				"element": "C" 
			},
			{
				"x": 2.5278876923,
				"y": -1.2354669963,
				"z": -2.5240712962,
				"element": "C" 
			},
			{
				"x": 3.4292981721,
				"y": -1.4298041034,
				"z": -1.4852283876,
				"element": "C" 
			},
			{
				"x": 3.1403010208,
				"y": -0.9020338081,
				"z": -0.2260989467,
				"element": "C" 
			},
			{
				"x": 4.2805708119,
				"y": -1.1199132146,
				"z": 1.0920834906,
				"element": "Cl" 
			},
			{
				"x": 1.9565369118,
				"y": -0.2120298841,
				"z": -0.0075285744,
				"element": "C" 
			},
			{
				"x": 1.0319376344,
				"y": -0.0156046796,
				"z": -1.0472875513,
				"element": "C" 
			},
			{
				"x": -0.2295014093,
				"y": 0.7215080393,
				"z": -0.7436957133,
				"element": "C" 
			},
			{
				"x": -0.7386351222,
				"y": 1.6155677037,
				"z": -1.5155208492,
				"element": "N" 
			},
			{
				"x": -0.0320242422,
				"y": 1.9468658582,
				"z": -2.7458902496,
				"element": "C" 
			},
			{
				"x": -0.1817145539,
				"y": 0.8211589369,
				"z": -3.7652547052,
				"element": "C" 
			},
			{
				"x": -0.8114946521,
				"y": 0.9412226305,
				"z": -4.802016507,
				"element": "O" 
			},
			{
				"x": -0.9272918274,
				"y": 0.4150455542,
				"z": 0.5418930922,
				"element": "C" 
			},
			{
				"x": -1.4659056739,
				"y": 1.4190765503,
				"z": 1.2548361514,
				"element": "C" 
			},
			{
				"x": -2.2223426021,
				"y": 1.2368684724,
				"z": 2.5426183069,
				"element": "C" 
			},
			{
				"x": -2.078294257,
				"y": -0.1795108906,
				"z": 3.1195315403,
				"element": "C" 
			},
			{
				"x": -2.1797002679,
				"y": -1.2280376592,
				"z": 2.0054031175,
				"element": "C" 
			},
			{
				"x": -1.0590672696,
				"y": -1.0381783172,
				"z": 0.9722394824,
				"element": "C" 
			},
			{
				"x": 0.4173020942,
				"y": -2.4239188307,
				"z": -3.9061259815,
				"element": "H" 
			},
			{
				"x": 1.1173627941,
				"y": -1.3904914447,
				"z": -5.1830668518,
				"element": "H" 
			},
			{
				"x": -0.627132048,
				"y": -1.3726434687,
				"z": -4.9081003583,
				"element": "H" 
			},
			{
				"x": 2.7653368839,
				"y": -1.6311676627,
				"z": -3.5048568766,
				"element": "H" 
			},
			{
				"x": 4.3523513356,
				"y": -1.9736394771,
				"z": -1.6522815875,
				"element": "H" 
			},
			{
				"x": 1.7349820845,
				"y": 0.1879731868,
				"z": 0.9756107255,
				"element": "H" 
			},
			{
				"x": -0.4844728406,
				"y": 2.8324638638,
				"z": -3.19285803,
				"element": "H" 
			},
			{
				"x": 1.0383424537,
				"y": 2.1421270496,
				"z": -2.5754883843,
				"element": "H" 
			},
			{
				"x": -1.3681621397,
				"y": 2.4311469908,
				"z": 0.8688775956,
				"element": "H" 
			},
			{
				"x": -1.8917259061,
				"y": 1.9867253524,
				"z": 3.2735646394,
				"element": "H" 
			},
			{
				"x": -3.2839191288,
				"y": 1.463710191,
				"z": 2.3568006542,
				"element": "H" 
			},
			{
				"x": -1.1024331348,
				"y": -0.2742127284,
				"z": 3.6144065312,
				"element": "H" 
			},
			{
				"x": -2.8387174028,
				"y": -0.3532562182,
				"z": 3.8889126376,
				"element": "H" 
			},
			{
				"x": -2.1342987327,
				"y": -2.2411631729,
				"z": 2.420524777,
				"element": "H" 
			},
			{
				"x": -3.1532238164,
				"y": -1.1328782667,
				"z": 1.5066151164,
				"element": "H" 
			},
			{
				"x": -1.2509816258,
				"y": -1.6623843324,
				"z": 0.0900513775,
				"element": "H" 
			},
			{
				"x": -0.109896255,
				"y": -1.4043361732,
				"z": 1.3872257609,
				"element": "H" 
			}
		],
		 "valence_orbital": [ 
			{
				"type": "occ",
				"energy": -0.27713,
				"method": "rhf"
			},
			{
				"type": "occ",
				"energy": -0.26244,
				"method": "rhf"
			},
			{
				"type": "occ",
				"energy": -0.25083,
				"method": "rhf"
			},
			{
				"type": "occ",
				"energy": -0.23542,
				"method": "rhf"
			},
			{
				"type": "occ",
				"energy": -0.22984,
				"method": "rhf"
			},
			{
				"type": "unocc",
				"energy": -0.05424,
				"method": "rhf"
			},
			{
				"type": "unocc",
				"energy": -0.02906,
				"method": "rhf"
			},
			{
				"type": "unocc",
				"energy": -0.01181,
				"method": "rhf"
			},
			{
				"type": "unocc",
				"energy": 0.01722,
				"method": "rhf"
			},
			{
				"type": "unocc",
				"energy": 0.02201,
				"method": "rhf"
			}
		],
		"cosmo_sigma_profile": { 
			"-0.025": 0.0,
			"-0.024": 0.0,
			"-0.023": 0.0,
			"-0.022": 0.0,
			"-0.021": 0.0,
			"-0.02": 0.0,
			"-0.019": 0.0,
			"-0.018": 0.0,
			"-0.017": 0.0,
			"-0.016": 0.0,
			"-0.015": 0.0,
			"-0.014": 0.0,
			"-0.013": 0.0,
			"-0.012": 0.0,
			"-0.011": 0.0,
			"-0.01": 0.0,
			"-0.009": 0.0,
			"-0.008": 2.53061649128,
			"-0.007": 5.69646555575,
			"-0.006": 11.1176896682,
			"-0.005": 15.9892809614,
			"-0.004": 19.4486938156,
			"-0.003": 32.9204871134,
			"-0.002": 40.9875049623,
			"-0.001": 39.3182823919,
			"0.0": 35.7479308425,
			"0.001": 29.3392032291,
			"0.002": 21.0683767202,
			"0.003": 13.0647533209,
			"0.004": 13.4965433844,
			"0.005": 8.34701360212,
			"0.006": 3.27266675448,
			"0.007": 2.68839712328,
			"0.008": 2.39885301066,
			"0.009": 3.00122036475,
			"0.01": 2.58649008456,
			"0.011": 2.72833083351,
			"0.012": 5.01339341623,
			"0.013": 4.42650378164,
			"0.014": 1.31855654961,
			"0.015": 0.818400168402,
			"0.016": 0.466241497035,
			"0.017": 0.0661819367043,
			"0.018": 0.0,
			"0.019": 0.0,
			"0.02": 0.0,
			"0.021": 0.0,
			"0.022": 0.0,
			"0.023": 0.0,
			"0.024": 0.0,
			"0.025": 0.0
		}
	}
}
