{
	 "smiles": "CC1=C(CO)C(=NO1)C1=C(Cl)C=CC=C1Cl", 
	 "Tm": 381.15, 
	 "num_atms": 25, 
	 "gaussian": { 
		 "optdone": 1, 
		 "sigma_profile": "yes", 
		 "theory": "DFT", 
		 "functional": "B3LYP", 
		 "basiset": "6-31G**", 
		 "properties": { 
			 "R2extent": 5273.6788, 
			 "electric_dipole_moment_norm": 4.52377437766, 
			 "electric_quadrupole_moment_norm": 15.177981294, 
			 "total_energy": -1550.11608293, 
			 "HOMO_LUMO_gap": 0.20773, 
			 "cosmo_polarized_energy": -12.89, 
			 "cosmo_cavitation_energy": 33.11, 
			 "cosmo_dispersion_energy": -23.09, 
			 "cosmo_repulsion_energy": 1.84, 
			 "cosmo_total_nonelectrostatic_energy": 11.86, 
			 "SMD_solvation_energy": 5.18 
		},
		"coords": [
			{
				"x": -2.104318012,
				"y": -1.4831038835,
				"z": 1.158371963,
				"element": "C" 
			},
			{
				"x": -1.2578954058,
				"y": -0.830497268,
				"z": 0.1215292729,
				"element": "C" 
			},
			{
				"x": -0.4941688086,
				"y": 0.304088507,
				"z": 0.1020139952,
				"element": "C" 
			},
			{
				"x": -0.2433785899,
				"y": 1.2912773918,
				"z": 1.199918545,
				"element": "C" 
			},
			{
				"x": -1.4613648455,
				"y": 1.5351964719,
				"z": 1.9016069687,
				"element": "O" 
			},
			{
				"x": 0.0400933932,
				"y": 0.3185138837,
				"z": -1.2249347428,
				"element": "C" 
			},
			{
				"x": -0.36167729,
				"y": -0.7132130013,
				"z": -1.9353391395,
				"element": "N" 
			},
			{
				"x": -1.1897058505,
				"y": -1.4393294148,
				"z": -1.0834051468,
				"element": "O" 
			},
			{
				"x": 0.9389478555,
				"y": 1.3281343656,
				"z": -1.8389362579,
				"element": "C" 
			},
			{
				"x": 2.3147262327,
				"y": 1.3625822269,
				"z": -1.5499537004,
				"element": "C" 
			},
			{
				"x": 2.9992058362,
				"y": 0.1901622506,
				"z": -0.4345647518,
				"element": "Cl" 
			},
			{
				"x": 3.1749598512,
				"y": 2.2968786441,
				"z": -2.1234053151,
				"element": "C" 
			},
			{
				"x": 2.6595628736,
				"y": 3.2355559744,
				"z": -3.0143844745,
				"element": "C" 
			},
			{
				"x": 1.3016714567,
				"y": 3.2438771886,
				"z": -3.3236918486,
				"element": "C" 
			},
			{
				"x": 0.4594491525,
				"y": 2.299693242,
				"z": -2.7370139944,
				"element": "C" 
			},
			{
				"x": -1.2457908835,
				"y": 2.3637863236,
				"z": -3.1338691699,
				"element": "Cl" 
			},
			{
				"x": -2.2012338009,
				"y": -0.8161479399,
				"z": 2.0148570564,
				"element": "H" 
			},
			{
				"x": -1.6639804632,
				"y": -2.433065677,
				"z": 1.4819473805,
				"element": "H" 
			},
			{
				"x": -3.1009348214,
				"y": -1.6987667817,
				"z": 0.7603808871,
				"element": "H" 
			},
			{
				"x": 0.1581771322,
				"y": 2.2169121005,
				"z": 0.7608558859,
				"element": "H" 
			},
			{
				"x": 0.5287820234,
				"y": 0.9029593214,
				"z": 1.8834205722,
				"element": "H" 
			},
			{
				"x": -1.253299598,
				"y": 2.083843704,
				"z": 2.6684065361,
				"element": "H" 
			},
			{
				"x": 4.229619583,
				"y": 2.2796473356,
				"z": -1.8747414478,
				"element": "H" 
			},
			{
				"x": 3.3206370733,
				"y": 3.966642077,
				"z": -3.4692734346,
				"element": "H" 
			},
			{
				"x": 0.8897159058,
				"y": 3.9726729573,
				"z": -4.0118956388,
				"element": "H" 
			}
		],
		 "valence_orbital": [ 
			{
				"type": "occ",
				"energy": -0.29134,
				"method": "rhf"
			},
			{
				"type": "occ",
				"energy": -0.27846,
				"method": "rhf"
			},
			{
				"type": "occ",
				"energy": -0.2652,
				"method": "rhf"
			},
			{
				"type": "occ",
				"energy": -0.25472,
				"method": "rhf"
			},
			{
				"type": "occ",
				"energy": -0.24364,
				"method": "rhf"
			},
			{
				"type": "unocc",
				"energy": -0.03591,
				"method": "rhf"
			},
			{
				"type": "unocc",
				"energy": -0.02877,
				"method": "rhf"
			},
			{
				"type": "unocc",
				"energy": -0.00729,
				"method": "rhf"
			},
			{
				"type": "unocc",
				"energy": 0.00458,
				"method": "rhf"
			},
			{
				"type": "unocc",
				"energy": 0.04127,
				"method": "rhf"
			}
		],
		"cosmo_sigma_profile": { 
			"-0.025": 0.0,
			"-0.024": 0.0685197762121,
			"-0.023": 0.282049033788,
			"-0.022": 0.0128148628312,
			"-0.021": 0.0772712946839,
			"-0.02": 0.00374464048493,
			"-0.019": 0.0142105419279,
			"-0.018": 0.184335759072,
			"-0.017": 0.317274512811,
			"-0.016": 1.63176416194,
			"-0.015": 1.05274031231,
			"-0.014": 0.928492097487,
			"-0.013": 0.947357598738,
			"-0.012": 1.2050156767,
			"-0.011": 0.749605040053,
			"-0.01": 1.1545788163,
			"-0.009": 0.537558472672,
			"-0.008": 4.55009707345,
			"-0.007": 9.34113931488,
			"-0.006": 12.7720753591,
			"-0.005": 14.0099115422,
			"-0.004": 15.6690126599,
			"-0.003": 16.9375457024,
			"-0.002": 17.76522196,
			"-0.001": 17.0662469652,
			"0.0": 17.1888363005,
			"0.001": 23.4732603022,
			"0.002": 26.4422366251,
			"0.003": 17.9397232472,
			"0.004": 19.3300546086,
			"0.005": 11.9217263251,
			"0.006": 8.13808149577,
			"0.007": 5.92839747325,
			"0.008": 18.0760625712,
			"0.009": 7.21339797032,
			"0.01": -12.7211630957,
			"0.011": 2.2348901321,
			"0.012": 2.47360765869,
			"0.013": 1.96211664945,
			"0.014": 3.69849792585,
			"0.015": -2.60074034393,
			"0.016": 14.2585018972,
			"0.017": -5.02492573796,
			"0.018": -8.64061242025,
			"0.019": 0.0,
			"0.02": 0.0,
			"0.021": 11.4943486348,
			"0.022": -11.2766070268,
			"0.023": 0.0,
			"0.024": 0.0,
			"0.025": 0.0
		}
	}
}
