{
	 "smiles": "COC1=C(O)C=C2CC3N(C)CCC4=C3C(=C(OC)C(O)=C4)C2=C1", 
	 "Tm": 436.15, 
	 "num_atms": 45, 
	 "gaussian": { 
		 "optdone": 1, 
		 "sigma_profile": "yes", 
		 "theory": "DFT", 
		 "functional": "B3LYP", 
		 "basiset": "6-31G**", 
		 "properties": { 
			 "R2extent": 8220.6239, 
			 "electric_dipole_moment_norm": 2.13272621075, 
			 "electric_quadrupole_moment_norm": 22.3243663758, 
			 "total_energy": -1092.29097943, 
			 "HOMO_LUMO_gap": 0.16403, 
			 "cosmo_polarized_energy": -14.33, 
			 "cosmo_cavitation_energy": 44.42, 
			 "cosmo_dispersion_energy": -31.54, 
			 "cosmo_repulsion_energy": 2.36, 
			 "cosmo_total_nonelectrostatic_energy": 15.24, 
			 "SMD_solvation_energy": 5.73 
		},
		"coords": [
			{
				"x": 4.3347165526,
				"y": 0.5983669838,
				"z": -2.4642390829,
				"element": "C" 
			},
			{
				"x": 4.3176602327,
				"y": -0.2524166187,
				"z": -1.3293121902,
				"element": "O" 
			},
			{
				"x": 3.1301522514,
				"y": -0.4015224888,
				"z": -0.6474724229,
				"element": "C" 
			},
			{
				"x": 3.2372851393,
				"y": -1.2074531951,
				"z": 0.5022982773,
				"element": "C" 
			},
			{
				"x": 4.4303613394,
				"y": -1.7650810153,
				"z": 0.8440241513,
				"element": "O" 
			},
			{
				"x": 2.1096933653,
				"y": -1.4173688691,
				"z": 1.2850290199,
				"element": "C" 
			},
			{
				"x": 0.8761247299,
				"y": -0.8529320496,
				"z": 0.9439772654,
				"element": "C" 
			},
			{
				"x": -0.3393046691,
				"y": -1.1637567165,
				"z": 1.7813037601,
				"element": "C" 
			},
			{
				"x": -1.4163710853,
				"y": -0.0570265844,
				"z": 1.8325399645,
				"element": "C" 
			},
			{
				"x": -1.3727916925,
				"y": 0.7633885094,
				"z": 3.0714641244,
				"element": "N" 
			},
			{
				"x": -1.8945647918,
				"y": 0.0071494816,
				"z": 4.2070073888,
				"element": "C" 
			},
			{
				"x": -2.0835831395,
				"y": 2.0522832509,
				"z": 2.9172799555,
				"element": "C" 
			},
			{
				"x": -3.1770487309,
				"y": 2.0221006418,
				"z": 1.8228861184,
				"element": "C" 
			},
			{
				"x": -2.4766731888,
				"y": 1.7458091068,
				"z": 0.5149168209,
				"element": "C" 
			},
			{
				"x": -1.4445029954,
				"y": 0.797228304,
				"z": 0.5808361246,
				"element": "C" 
			},
			{
				"x": -0.5163137071,
				"y": 0.6533662033,
				"z": -0.4735929289,
				"element": "C" 
			},
			{
				"x": -0.8175211753,
				"y": 1.3345698652,
				"z": -1.6713091815,
				"element": "C" 
			},
			{
				"x": -0.0676915704,
				"y": 1.2246565825,
				"z": -2.8461339251,
				"element": "O" 
			},
			{
				"x": -0.2578346002,
				"y": -0.0181238642,
				"z": -3.5393579939,
				"element": "C" 
			},
			{
				"x": -1.8973620311,
				"y": 2.226389745,
				"z": -1.7621968857,
				"element": "C" 
			},
			{
				"x": -2.1321707476,
				"y": 2.8835778414,
				"z": -2.9308415712,
				"element": "O" 
			},
			{
				"x": -2.6993620437,
				"y": 2.4769474545,
				"z": -0.6489727754,
				"element": "C" 
			},
			{
				"x": 0.7603258397,
				"y": -0.0560347494,
				"z": -0.2099272138,
				"element": "C" 
			},
			{
				"x": 1.9152706418,
				"y": 0.1705008574,
				"z": -0.9936233687,
				"element": "C" 
			},
			{
				"x": 4.0541240203,
				"y": 1.6251992246,
				"z": -2.198883474,
				"element": "H" 
			},
			{
				"x": 5.3594146141,
				"y": 0.5874766672,
				"z": -2.8391897129,
				"element": "H" 
			},
			{
				"x": 3.6579077321,
				"y": 0.2345774463,
				"z": -3.2476895466,
				"element": "H" 
			},
			{
				"x": 5.0753919025,
				"y": -1.4752461458,
				"z": 0.1803267433,
				"element": "H" 
			},
			{
				"x": 2.2080462018,
				"y": -2.0323432618,
				"z": 2.1746610007,
				"element": "H" 
			},
			{
				"x": -0.8131481811,
				"y": -2.0655473468,
				"z": 1.3687432117,
				"element": "H" 
			},
			{
				"x": -0.0251086793,
				"y": -1.4254869792,
				"z": 2.7949974934,
				"element": "H" 
			},
			{
				"x": -2.3881064086,
				"y": -0.5905349505,
				"z": 1.8270786614,
				"element": "H" 
			},
			{
				"x": -1.7772586436,
				"y": 0.5907387784,
				"z": 5.1247203706,
				"element": "H" 
			},
			{
				"x": -2.9634780021,
				"y": -0.2674305079,
				"z": 4.1053583792,
				"element": "H" 
			},
			{
				"x": -1.3313998846,
				"y": -0.9207455332,
				"z": 4.3393290982,
				"element": "H" 
			},
			{
				"x": -2.5141452272,
				"y": 2.3268052587,
				"z": 3.8851225503,
				"element": "H" 
			},
			{
				"x": -1.3622418236,
				"y": 2.8351615866,
				"z": 2.6520553267,
				"element": "H" 
			},
			{
				"x": -3.9201256459,
				"y": 1.247157773,
				"z": 2.0608723474,
				"element": "H" 
			},
			{
				"x": -3.7121055,
				"y": 2.9767657601,
				"z": 1.7854807486,
				"element": "H" 
			},
			{
				"x": 0.3011309759,
				"y": 0.0589331325,
				"z": -4.4750304692,
				"element": "H" 
			},
			{
				"x": -1.319242091,
				"y": -0.1844823799,
				"z": -3.7575305877,
				"element": "H" 
			},
			{
				"x": 0.1287535117,
				"y": -0.8571774228,
				"z": -2.9520306178,
				"element": "H" 
			},
			{
				"x": -1.3944585064,
				"y": 2.6441765617,
				"z": -3.5167275115,
				"element": "H" 
			},
			{
				"x": -3.4798353279,
				"y": 3.2285295899,
				"z": -0.7128590921,
				"element": "H" 
			},
			{
				"x": 1.8461910394,
				"y": 0.8194540723,
				"z": -1.8547883509,
				"element": "H" 
			}
		],
		 "valence_orbital": [ 
			{
				"type": "occ",
				"energy": -0.24789,
				"method": "rhf"
			},
			{
				"type": "occ",
				"energy": -0.22589,
				"method": "rhf"
			},
			{
				"type": "occ",
				"energy": -0.20992,
				"method": "rhf"
			},
			{
				"type": "occ",
				"energy": -0.20159,
				"method": "rhf"
			},
			{
				"type": "occ",
				"energy": -0.18708,
				"method": "rhf"
			},
			{
				"type": "unocc",
				"energy": -0.02305,
				"method": "rhf"
			},
			{
				"type": "unocc",
				"energy": 0.00568,
				"method": "rhf"
			},
			{
				"type": "unocc",
				"energy": 0.02034,
				"method": "rhf"
			},
			{
				"type": "unocc",
				"energy": 0.04988,
				"method": "rhf"
			},
			{
				"type": "unocc",
				"energy": 0.07373,
				"method": "rhf"
			}
		],
		"cosmo_sigma_profile": { 
			"-0.025": 0.0,
			"-0.024": 0.0,
			"-0.023": 0.0,
			"-0.022": 0.0,
			"-0.021": 0.0,
			"-0.02": 0.0,
			"-0.019": 0.0,
			"-0.018": 0.0,
			"-0.017": 0.0,
			"-0.016": 0.0,
			"-0.015": 0.0566784640879,
			"-0.014": 0.344992898488,
			"-0.013": 0.947733524854,
			"-0.012": 1.56875624769,
			"-0.011": 1.55663450838,
			"-0.01": 1.00031983411,
			"-0.009": 0.613868775723,
			"-0.008": 1.37285087953,
			"-0.007": 1.92302605174,
			"-0.006": 7.32186830557,
			"-0.005": 21.3354721194,
			"-0.004": 35.5951872585,
			"-0.003": 44.0461261975,
			"-0.002": 38.9727434743,
			"-0.001": 32.3565766071,
			"0.0": 26.6849428968,
			"0.001": 17.4226051765,
			"0.002": 18.1618302049,
			"0.003": 17.9969307301,
			"0.004": 22.5879901629,
			"0.005": 22.1617629986,
			"0.006": 8.46277507005,
			"0.007": 4.98922249271,
			"0.008": 4.53167438898,
			"0.009": 3.71774565448,
			"0.01": 4.2452872934,
			"0.011": 4.65702475115,
			"0.012": 2.8301231589,
			"0.013": 0.712830845107,
			"0.014": 0.679830925018,
			"0.015": 0.342256665054,
			"0.016": 0.400092966296,
			"0.017": 0.150147947884,
			"0.018": 0.0,
			"0.019": 0.0,
			"0.02": 0.0,
			"0.021": 0.0,
			"0.022": 0.0,
			"0.023": 0.0,
			"0.024": 0.0,
			"0.025": 0.0
		}
	}
}
