{
	 "smiles": "CC1=NC(C)=C(S1)C=O", 
	 "Tm": 303.15, 
	 "num_atms": 16, 
	 "gaussian": { 
		 "optdone": 1, 
		 "sigma_profile": "yes", 
		 "theory": "DFT", 
		 "functional": "B3LYP", 
		 "basiset": "6-31G**", 
		 "properties": { 
			 "R2extent": 1508.7497, 
			 "electric_dipole_moment_norm": 2.87089884705, 
			 "electric_quadrupole_moment_norm": 14.9212061801, 
			 "total_energy": -761.014671158, 
			 "HOMO_LUMO_gap": 0.17526, 
			 "cosmo_polarized_energy": -9.25, 
			 "cosmo_cavitation_energy": 21.99, 
			 "cosmo_dispersion_energy": -16.5, 
			 "cosmo_repulsion_energy": 1.32, 
			 "cosmo_total_nonelectrostatic_energy": 6.8, 
			 "SMD_solvation_energy": 3.3 
		},
		"coords": [
			{
				"x": 2.3291633211,
				"y": 0.9643232404,
				"z": 2.5294287915,
				"element": "C" 
			},
			{
				"x": 1.3841342582,
				"y": 0.6266901982,
				"z": 1.4176371833,
				"element": "C" 
			},
			{
				"x": 1.7522835749,
				"y": 0.5441731557,
				"z": 0.1615032995,
				"element": "N" 
			},
			{
				"x": 0.6986910667,
				"y": 0.2211335482,
				"z": -0.6567310393,
				"element": "C" 
			},
			{
				"x": 0.9468504164,
				"y": 0.0856273595,
				"z": -2.1345347273,
				"element": "C" 
			},
			{
				"x": -0.5126758313,
				"y": 0.0510826544,
				"z": -0.0081477073,
				"element": "C" 
			},
			{
				"x": -0.3103717192,
				"y": 0.3105060332,
				"z": 1.7072701352,
				"element": "S" 
			},
			{
				"x": -1.8093003929,
				"y": -0.2901879158,
				"z": -0.5716409275,
				"element": "C" 
			},
			{
				"x": -2.8350184748,
				"y": -0.4214317662,
				"z": 0.0767075494,
				"element": "O" 
			},
			{
				"x": 2.3782305646,
				"y": 0.1590697907,
				"z": 3.2699264943,
				"element": "H" 
			},
			{
				"x": 2.0209219074,
				"y": 1.8757866002,
				"z": 3.0523073907,
				"element": "H" 
			},
			{
				"x": 3.323343633,
				"y": 1.1176495406,
				"z": 2.1066195796,
				"element": "H" 
			},
			{
				"x": 0.3478445871,
				"y": 0.7967980022,
				"z": -2.7126907683,
				"element": "H" 
			},
			{
				"x": 0.7054743577,
				"y": -0.9195758994,
				"z": -2.4952926594,
				"element": "H" 
			},
			{
				"x": 2.0015823051,
				"y": 0.2800112961,
				"z": -2.3348995366,
				"element": "H" 
			},
			{
				"x": -1.8062535741,
				"y": -0.4290558379,
				"z": -1.6735630577,
				"element": "H" 
			}
		],
		 "valence_orbital": [ 
			{
				"type": "occ",
				"energy": -0.3647,
				"method": "rhf"
			},
			{
				"type": "occ",
				"energy": -0.28897,
				"method": "rhf"
			},
			{
				"type": "occ",
				"energy": -0.28888,
				"method": "rhf"
			},
			{
				"type": "occ",
				"energy": -0.2546,
				"method": "rhf"
			},
			{
				"type": "occ",
				"energy": -0.24944,
				"method": "rhf"
			},
			{
				"type": "unocc",
				"energy": -0.07418,
				"method": "rhf"
			},
			{
				"type": "unocc",
				"energy": 0.00643,
				"method": "rhf"
			},
			{
				"type": "unocc",
				"energy": 0.01339,
				"method": "rhf"
			},
			{
				"type": "unocc",
				"energy": 0.07437,
				"method": "rhf"
			},
			{
				"type": "unocc",
				"energy": 0.08683,
				"method": "rhf"
			}
		],
		"cosmo_sigma_profile": { 
			"-0.025": 0.0,
			"-0.024": 0.0,
			"-0.023": 0.0,
			"-0.022": 0.0,
			"-0.021": 0.0,
			"-0.02": 0.0,
			"-0.019": 0.0,
			"-0.018": 0.0,
			"-0.017": 0.0,
			"-0.016": 0.0,
			"-0.015": 0.0,
			"-0.014": 0.0,
			"-0.013": 0.0,
			"-0.012": 0.0,
			"-0.011": 0.0,
			"-0.01": 0.0,
			"-0.009": 0.0,
			"-0.008": 0.0,
			"-0.007": 3.82479549143,
			"-0.006": 15.3192256661,
			"-0.005": 15.5364147084,
			"-0.004": 14.2614994684,
			"-0.003": 14.7880795698,
			"-0.002": 16.9347299409,
			"-0.001": 19.3466767653,
			"0.0": 13.1089689775,
			"0.001": 12.7021547011,
			"0.002": 10.9921613301,
			"0.003": 6.88880844558,
			"0.004": 3.29687524453,
			"0.005": 3.91753226175,
			"0.006": 2.97697981819,
			"0.007": 2.37535940421,
			"0.008": 3.00457929091,
			"0.009": 2.39668698473,
			"0.01": 3.48003545154,
			"0.011": 5.0625717537,
			"0.012": 4.08719703244,
			"0.013": 2.39708034714,
			"0.014": 0.69302492257,
			"0.015": 0.0304146696084,
			"0.016": 0.0,
			"0.017": 0.0,
			"0.018": 0.0,
			"0.019": 0.0,
			"0.02": 0.0,
			"0.021": 0.0,
			"0.022": 0.0,
			"0.023": 0.0,
			"0.024": 0.0,
			"0.025": 0.0
		}
	}
}
