{
	 "smiles": "CC1=CC=C(C=C1)C(=O)C1=CC=CC=C1", 
	 "Tm": 332.65, 
	 "num_atms": 27, 
	 "gaussian": { 
		 "optdone": 1, 
		 "sigma_profile": "yes", 
		 "theory": "DFT", 
		 "functional": "B3LYP", 
		 "basiset": "6-31G**", 
		 "properties": { 
			 "R2extent": 4167.095, 
			 "electric_dipole_moment_norm": 3.20230537113, 
			 "electric_quadrupole_moment_norm": 17.4841909687, 
			 "total_energy": -615.956576957, 
			 "HOMO_LUMO_gap": 0.17913, 
			 "cosmo_polarized_energy": -9.03, 
			 "cosmo_cavitation_energy": 30.94, 
			 "cosmo_dispersion_energy": -22.44, 
			 "cosmo_repulsion_energy": 1.74, 
			 "cosmo_total_nonelectrostatic_energy": 10.25, 
			 "SMD_solvation_energy": 5.71 
		},
		"coords": [
			{
				"x": 0.7506537432,
				"y": -1.6128157015,
				"z": -4.9303368014,
				"element": "C" 
			},
			{
				"x": 0.2483964788,
				"y": -0.8841709916,
				"z": -3.7075455157,
				"element": "C" 
			},
			{
				"x": -0.3943114442,
				"y": 0.3593733462,
				"z": -3.8270244948,
				"element": "C" 
			},
			{
				"x": -0.8442520213,
				"y": 1.0433825112,
				"z": -2.7051216335,
				"element": "C" 
			},
			{
				"x": -0.6449452577,
				"y": 0.5179923324,
				"z": -1.4173874574,
				"element": "C" 
			},
			{
				"x": -0.0140743156,
				"y": -0.7283587214,
				"z": -1.292395113,
				"element": "C" 
			},
			{
				"x": 0.4184826808,
				"y": -1.4186027183,
				"z": -2.4246884008,
				"element": "C" 
			},
			{
				"x": -1.2038372958,
				"y": 1.2812159171,
				"z": -0.2554907362,
				"element": "C" 
			},
			{
				"x": -2.1549785571,
				"y": 2.0382171944,
				"z": -0.4235256138,
				"element": "O" 
			},
			{
				"x": -0.6118741517,
				"y": 1.1302658612,
				"z": 1.1164904232,
				"element": "C" 
			},
			{
				"x": -1.4490703708,
				"y": 1.3713688533,
				"z": 2.2178923113,
				"element": "C" 
			},
			{
				"x": -0.9504109594,
				"y": 1.2947241109,
				"z": 3.5147929603,
				"element": "C" 
			},
			{
				"x": 0.4003245001,
				"y": 1.0023064216,
				"z": 3.7287181773,
				"element": "C" 
			},
			{
				"x": 1.2472263462,
				"y": 0.7879654708,
				"z": 2.6402982876,
				"element": "C" 
			},
			{
				"x": 0.7441779979,
				"y": 0.8452584904,
				"z": 1.3396554488,
				"element": "C" 
			},
			{
				"x": 0.0326133392,
				"y": -1.5520936165,
				"z": -5.7544862099,
				"element": "H" 
			},
			{
				"x": 1.6908831595,
				"y": -1.176322753,
				"z": -5.2899013755,
				"element": "H" 
			},
			{
				"x": 0.9384945545,
				"y": -2.6692214173,
				"z": -4.7194156822,
				"element": "H" 
			},
			{
				"x": -0.5480116119,
				"y": 0.7874911385,
				"z": -4.8146918019,
				"element": "H" 
			},
			{
				"x": -1.3617564052,
				"y": 1.9923339233,
				"z": -2.7996703182,
				"element": "H" 
			},
			{
				"x": 0.1138378432,
				"y": -1.176589754,
				"z": -0.3127475044,
				"element": "H" 
			},
			{
				"x": 0.8912511037,
				"y": -2.390706962,
				"z": -2.3095589709,
				"element": "H" 
			},
			{
				"x": -2.4881932616,
				"y": 1.6203871058,
				"z": 2.0299434712,
				"element": "H" 
			},
			{
				"x": -1.6096996246,
				"y": 1.4688956448,
				"z": 4.3602825842,
				"element": "H" 
			},
			{
				"x": 0.7917249443,
				"y": 0.948932908,
				"z": 4.740739244,
				"element": "H" 
			},
			{
				"x": 2.3008346672,
				"y": 0.5795539217,
				"z": 2.802405091,
				"element": "H" 
			},
			{
				"x": 1.4113139184,
				"y": 0.694617484,
				"z": 0.4975696306,
				"element": "H" 
			}
		],
		 "valence_orbital": [ 
			{
				"type": "occ",
				"energy": -0.25892,
				"method": "rhf"
			},
			{
				"type": "occ",
				"energy": -0.25793,
				"method": "rhf"
			},
			{
				"type": "occ",
				"energy": -0.25546,
				"method": "rhf"
			},
			{
				"type": "occ",
				"energy": -0.24992,
				"method": "rhf"
			},
			{
				"type": "occ",
				"energy": -0.23901,
				"method": "rhf"
			},
			{
				"type": "unocc",
				"energy": -0.05988,
				"method": "rhf"
			},
			{
				"type": "unocc",
				"energy": -0.0136,
				"method": "rhf"
			},
			{
				"type": "unocc",
				"energy": -0.00682,
				"method": "rhf"
			},
			{
				"type": "unocc",
				"energy": -0.00276,
				"method": "rhf"
			},
			{
				"type": "unocc",
				"energy": 0.05787,
				"method": "rhf"
			}
		],
		"cosmo_sigma_profile": { 
			"-0.025": 0.0,
			"-0.024": 0.0,
			"-0.023": 0.0,
			"-0.022": 0.0,
			"-0.021": 0.0,
			"-0.02": 0.0,
			"-0.019": 0.0,
			"-0.018": 0.0,
			"-0.017": 0.0,
			"-0.016": 0.0,
			"-0.015": 0.0,
			"-0.014": 0.0,
			"-0.013": 0.0,
			"-0.012": 0.0,
			"-0.011": 0.0,
			"-0.01": 0.0,
			"-0.009": 0.0,
			"-0.008": 0.0,
			"-0.007": 0.859752144301,
			"-0.006": 10.7417748014,
			"-0.005": 21.0691062684,
			"-0.004": 26.3272201781,
			"-0.003": 22.302163147,
			"-0.002": 23.6159139883,
			"-0.001": 22.6856976639,
			"0.0": 19.4281699824,
			"0.001": 16.6229721487,
			"0.002": 14.4734270217,
			"0.003": 18.8160350409,
			"0.004": 23.771553844,
			"0.005": 9.22973165886,
			"0.006": 1.95606841335,
			"0.007": 1.71214213007,
			"0.008": 1.7133019149,
			"0.009": 1.89484330556,
			"0.01": 2.06367743984,
			"0.011": 2.52400910798,
			"0.012": 4.19633118751,
			"0.013": 1.6127858497,
			"0.014": 0.0,
			"0.015": 0.0,
			"0.016": 0.0,
			"0.017": 0.0,
			"0.018": 0.0,
			"0.019": 0.0,
			"0.02": 0.0,
			"0.021": 0.0,
			"0.022": 0.0,
			"0.023": 0.0,
			"0.024": 0.0,
			"0.025": 0.0
		}
	}
}
