{
	 "smiles": "NC1=C(CN2CCCCCC2)C(=O)OC2=CC=CC=C12", 
	 "Tm": 426.15, 
	 "num_atms": 40, 
	 "gaussian": { 
		 "optdone": 1, 
		 "sigma_profile": "yes", 
		 "theory": "DFT", 
		 "functional": "B3LYP", 
		 "basiset": "6-31G**", 
		 "properties": { 
			 "R2extent": 6471.3775, 
			 "electric_dipole_moment_norm": 5.48701887549, 
			 "electric_quadrupole_moment_norm": 13.9351903754, 
			 "total_energy": -881.712300349, 
			 "HOMO_LUMO_gap": 0.13177, 
			 "cosmo_polarized_energy": -17.16, 
			 "cosmo_cavitation_energy": 39.24, 
			 "cosmo_dispersion_energy": -28.34, 
			 "cosmo_repulsion_energy": 2.14, 
			 "cosmo_total_nonelectrostatic_energy": 13.04, 
			 "SMD_solvation_energy": 4.39 
		},
		"coords": [
			{
				"x": -1.2821580251,
				"y": 0.533106062,
				"z": -2.0898039999,
				"element": "N" 
			},
			{
				"x": -0.5869444885,
				"y": -0.5564346607,
				"z": -1.6084262418,
				"element": "C" 
			},
			{
				"x": -0.5729451094,
				"y": -0.9094066662,
				"z": -0.2757029287,
				"element": "C" 
			},
			{
				"x": -1.2697065379,
				"y": -0.1043829711,
				"z": 0.8206607833,
				"element": "C" 
			},
			{
				"x": -0.464334918,
				"y": 0.7889222044,
				"z": 1.6539147563,
				"element": "N" 
			},
			{
				"x": 0.105521857,
				"y": 0.1697041272,
				"z": 2.8569337085,
				"element": "C" 
			},
			{
				"x": 0.9155831769,
				"y": 1.1257281066,
				"z": 3.7458445521,
				"element": "C" 
			},
			{
				"x": 2.3893680069,
				"y": 1.281464868,
				"z": 3.3308849883,
				"element": "C" 
			},
			{
				"x": 2.6365676435,
				"y": 2.0693160475,
				"z": 2.0369673028,
				"element": "C" 
			},
			{
				"x": 1.8434956078,
				"y": 1.584349042,
				"z": 0.8137068172,
				"element": "C" 
			},
			{
				"x": 0.3192296183,
				"y": 1.8035010428,
				"z": 0.9526333774,
				"element": "C" 
			},
			{
				"x": 0.0847163115,
				"y": -2.1317336032,
				"z": 0.1523576538,
				"element": "C" 
			},
			{
				"x": 0.0924074809,
				"y": -2.5819236259,
				"z": 1.2801449023,
				"element": "O" 
			},
			{
				"x": 0.7863205796,
				"y": -2.8678470805,
				"z": -0.8076357219,
				"element": "O" 
			},
			{
				"x": 0.7982228785,
				"y": -2.5172908022,
				"z": -2.1191137801,
				"element": "C" 
			},
			{
				"x": 1.5174503979,
				"y": -3.3469834188,
				"z": -2.9852257793,
				"element": "C" 
			},
			{
				"x": 1.5401627608,
				"y": -3.0614961445,
				"z": -4.3441068859,
				"element": "C" 
			},
			{
				"x": 0.8387126739,
				"y": -1.9557632351,
				"z": -4.844143108,
				"element": "C" 
			},
			{
				"x": 0.1310285102,
				"y": -1.1347929028,
				"z": -3.9763862892,
				"element": "C" 
			},
			{
				"x": 0.1088775162,
				"y": -1.3868462964,
				"z": -2.5904307692,
				"element": "C" 
			},
			{
				"x": -0.9351558094,
				"y": 0.9667055544,
				"z": -2.9311748368,
				"element": "H" 
			},
			{
				"x": -1.6301628634,
				"y": 1.1921951747,
				"z": -1.4115717617,
				"element": "H" 
			},
			{
				"x": -1.754351051,
				"y": -0.8185184005,
				"z": 1.492333435,
				"element": "H" 
			},
			{
				"x": -2.0849798179,
				"y": 0.4803067816,
				"z": 0.3707429433,
				"element": "H" 
			},
			{
				"x": -0.7401331279,
				"y": -0.2221236652,
				"z": 3.4371679305,
				"element": "H" 
			},
			{
				"x": 0.7345439829,
				"y": -0.7028616401,
				"z": 2.6256223747,
				"element": "H" 
			},
			{
				"x": 0.4175563293,
				"y": 2.1021702121,
				"z": 3.8098342211,
				"element": "H" 
			},
			{
				"x": 0.8963536807,
				"y": 0.7100627701,
				"z": 4.7605585191,
				"element": "H" 
			},
			{
				"x": 2.9431000318,
				"y": 1.7675378843,
				"z": 4.144539754,
				"element": "H" 
			},
			{
				"x": 2.8202459346,
				"y": 0.2756918086,
				"z": 3.2279626207,
				"element": "H" 
			},
			{
				"x": 3.7099282947,
				"y": 2.0445180049,
				"z": 1.809014332,
				"element": "H" 
			},
			{
				"x": 2.3864175425,
				"y": 3.1271352498,
				"z": 2.206293646,
				"element": "H" 
			},
			{
				"x": 2.1897574303,
				"y": 2.1480203895,
				"z": -0.0629038418,
				"element": "H" 
			},
			{
				"x": 2.053965321,
				"y": 0.5281000105,
				"z": 0.6053802248,
				"element": "H" 
			},
			{
				"x": 0.1703980374,
				"y": 2.7819710602,
				"z": 1.4374901453,
				"element": "H" 
			},
			{
				"x": -0.1105269608,
				"y": 1.9079752946,
				"z": -0.0481439702,
				"element": "H" 
			},
			{
				"x": 2.0357421047,
				"y": -4.2037258928,
				"z": -2.5686595028,
				"element": "H" 
			},
			{
				"x": 2.0953182948,
				"y": -3.7052536559,
				"z": -5.019564105,
				"element": "H" 
			},
			{
				"x": 0.8407731936,
				"y": -1.7433885577,
				"z": -5.9084199664,
				"element": "H" 
			},
			{
				"x": -0.4319664891,
				"y": -0.3032084761,
				"z": -4.3881755001,
				"element": "H" 
			}
		],
		 "valence_orbital": [ 
			{
				"type": "occ",
				"energy": -0.27152,
				"method": "rhf"
			},
			{
				"type": "occ",
				"energy": -0.26189,
				"method": "rhf"
			},
			{
				"type": "occ",
				"energy": -0.24541,
				"method": "rhf"
			},
			{
				"type": "occ",
				"energy": -0.22313,
				"method": "rhf"
			},
			{
				"type": "occ",
				"energy": -0.18427,
				"method": "rhf"
			},
			{
				"type": "unocc",
				"energy": -0.0525,
				"method": "rhf"
			},
			{
				"type": "unocc",
				"energy": -0.01037,
				"method": "rhf"
			},
			{
				"type": "unocc",
				"energy": 0.01305,
				"method": "rhf"
			},
			{
				"type": "unocc",
				"energy": 0.04975,
				"method": "rhf"
			},
			{
				"type": "unocc",
				"energy": 0.07953,
				"method": "rhf"
			}
		],
		"cosmo_sigma_profile": { 
			"-0.025": 0.0,
			"-0.024": 0.0,
			"-0.023": 0.0,
			"-0.022": 0.0,
			"-0.021": 0.0,
			"-0.02": 0.0,
			"-0.019": 0.0,
			"-0.018": 0.0,
			"-0.017": 0.0,
			"-0.016": 0.0,
			"-0.015": 0.397858125513,
			"-0.014": 1.5501950548,
			"-0.013": 2.42510473462,
			"-0.012": 2.55124553828,
			"-0.011": 2.86610123587,
			"-0.01": 3.26851650251,
			"-0.009": 2.29904660199,
			"-0.008": 2.50534719684,
			"-0.007": 5.18721625887,
			"-0.006": 9.78253174303,
			"-0.005": 10.4209752452,
			"-0.004": 9.80371256883,
			"-0.003": 12.5787474595,
			"-0.002": 33.755422636,
			"-0.001": 42.2762336126,
			"0.0": 44.2784299876,
			"0.001": 37.1687725974,
			"0.002": 20.9394179393,
			"0.003": 13.4565631126,
			"0.004": 12.26584314,
			"0.005": 5.73538046249,
			"0.006": 3.59095450773,
			"0.007": 3.86297902035,
			"0.008": 3.55705040325,
			"0.009": 3.17994844306,
			"0.01": 3.55678949141,
			"0.011": 3.04531098486,
			"0.012": 3.46916101992,
			"0.013": 5.06312824784,
			"0.014": 2.65614567811,
			"0.015": 0.539644139574,
			"0.016": 0.0,
			"0.017": 0.0,
			"0.018": 0.0,
			"0.019": 0.0,
			"0.02": 0.0,
			"0.021": 0.0,
			"0.022": 0.0,
			"0.023": 0.0,
			"0.024": 0.0,
			"0.025": 0.0
		}
	}
}
