{
	 "smiles": "O=C1CCC(CCN1)C1=CC=CC=C1", 
	 "Tm": 468.15, 
	 "num_atms": 29, 
	 "gaussian": { 
		 "optdone": 1, 
		 "sigma_profile": "yes", 
		 "theory": "DFT", 
		 "functional": "B3LYP", 
		 "basiset": "6-31G**", 
		 "properties": { 
			 "R2extent": 3372.9686, 
			 "electric_dipole_moment_norm": 3.95367816849, 
			 "electric_quadrupole_moment_norm": 19.7288954782, 
			 "total_energy": -596.30997272, 
			 "HOMO_LUMO_gap": 0.229, 
			 "cosmo_polarized_energy": -13.09, 
			 "cosmo_cavitation_energy": 30.1, 
			 "cosmo_dispersion_energy": -22.07, 
			 "cosmo_repulsion_energy": 1.73, 
			 "cosmo_total_nonelectrostatic_energy": 9.76, 
			 "SMD_solvation_energy": 4.57 
		},
		"coords": [
			{
				"x": -2.3230594604,
				"y": -3.3024049482,
				"z": 1.5006424191,
				"element": "O" 
			},
			{
				"x": -2.0953344721,
				"y": -2.1148912604,
				"z": 1.2941229453,
				"element": "C" 
			},
			{
				"x": -1.3431515988,
				"y": -1.6821867502,
				"z": 0.0351201042,
				"element": "C" 
			},
			{
				"x": -1.6766012473,
				"y": -0.2987860692,
				"z": -0.5395801073,
				"element": "C" 
			},
			{
				"x": -0.9770960662,
				"y": 0.9023193358,
				"z": 0.1558460155,
				"element": "C" 
			},
			{
				"x": -1.0010908737,
				"y": 0.7765091427,
				"z": 1.6936318232,
				"element": "C" 
			},
			{
				"x": -2.3399246633,
				"y": 0.280707832,
				"z": 2.2516709401,
				"element": "C" 
			},
			{
				"x": -2.5115272737,
				"y": -1.1710596159,
				"z": 2.2008730645,
				"element": "N" 
			},
			{
				"x": 0.4188731215,
				"y": 1.1596804886,
				"z": -0.4010402212,
				"element": "C" 
			},
			{
				"x": 1.5537074353,
				"y": 0.4511530951,
				"z": 0.0224773239,
				"element": "C" 
			},
			{
				"x": 2.8061741711,
				"y": 0.6890043392,
				"z": -0.5477711801,
				"element": "C" 
			},
			{
				"x": 2.9532239956,
				"y": 1.6450770936,
				"z": -1.5528486395,
				"element": "C" 
			},
			{
				"x": 1.8356164591,
				"y": 2.3623193504,
				"z": -1.9829505089,
				"element": "C" 
			},
			{
				"x": 0.5868365417,
				"y": 2.1192091526,
				"z": -1.4113315083,
				"element": "C" 
			},
			{
				"x": -0.2677935633,
				"y": -1.7751986695,
				"z": 0.232537533,
				"element": "H" 
			},
			{
				"x": -1.5745735645,
				"y": -2.4617389968,
				"z": -0.6952476491,
				"element": "H" 
			},
			{
				"x": -2.7628959106,
				"y": -0.1514704072,
				"z": -0.4948567849,
				"element": "H" 
			},
			{
				"x": -1.4159402412,
				"y": -0.2813210142,
				"z": -1.6027712345,
				"element": "H" 
			},
			{
				"x": -1.5769992382,
				"y": 1.7862186688,
				"z": -0.0986405961,
				"element": "H" 
			},
			{
				"x": -0.7780377295,
				"y": 1.7577116747,
				"z": 2.1277920283,
				"element": "H" 
			},
			{
				"x": -0.2179837158,
				"y": 0.0998451198,
				"z": 2.0507209438,
				"element": "H" 
			},
			{
				"x": -2.403921697,
				"y": 0.5561641387,
				"z": 3.3092403662,
				"element": "H" 
			},
			{
				"x": -3.1706166173,
				"y": 0.7975884449,
				"z": 1.746254516,
				"element": "H" 
			},
			{
				"x": -3.0159185231,
				"y": -1.5973768779,
				"z": 2.9672017473,
				"element": "H" 
			},
			{
				"x": 1.4729251668,
				"y": -0.2919022209,
				"z": 0.8099819489,
				"element": "H" 
			},
			{
				"x": 3.6685268628,
				"y": 0.1262665281,
				"z": -0.2011856457,
				"element": "H" 
			},
			{
				"x": 3.9283290964,
				"y": 1.8322796506,
				"z": -1.9930991042,
				"element": "H" 
			},
			{
				"x": 1.93566577,
				"y": 3.114407502,
				"z": -2.760676179,
				"element": "H" 
			},
			{
				"x": -0.2770121644,
				"y": 2.6851752727,
				"z": -1.7529143606,
				"element": "H" 
			}
		],
		 "valence_orbital": [ 
			{
				"type": "occ",
				"energy": -0.32025,
				"method": "rhf"
			},
			{
				"type": "occ",
				"energy": -0.25227,
				"method": "rhf"
			},
			{
				"type": "occ",
				"energy": -0.24543,
				"method": "rhf"
			},
			{
				"type": "occ",
				"energy": -0.241,
				"method": "rhf"
			},
			{
				"type": "occ",
				"energy": -0.2342,
				"method": "rhf"
			},
			{
				"type": "unocc",
				"energy": -0.0052,
				"method": "rhf"
			},
			{
				"type": "unocc",
				"energy": -0.00384,
				"method": "rhf"
			},
			{
				"type": "unocc",
				"energy": 0.03515,
				"method": "rhf"
			},
			{
				"type": "unocc",
				"energy": 0.07053,
				"method": "rhf"
			},
			{
				"type": "unocc",
				"energy": 0.08388,
				"method": "rhf"
			}
		],
		"cosmo_sigma_profile": { 
			"-0.025": 0.0,
			"-0.024": 0.0,
			"-0.023": 0.0,
			"-0.022": 0.0,
			"-0.021": 0.0,
			"-0.02": 0.0,
			"-0.019": 0.0,
			"-0.018": 0.0,
			"-0.017": 0.0,
			"-0.016": 0.0,
			"-0.015": 0.0,
			"-0.014": 0.0,
			"-0.013": 0.583320207962,
			"-0.012": 1.11106032848,
			"-0.011": 1.21082469699,
			"-0.01": 0.920777318589,
			"-0.009": 1.07802864748,
			"-0.008": 1.60824920334,
			"-0.007": 2.13884334389,
			"-0.006": 6.41435700001,
			"-0.005": 14.6090766488,
			"-0.004": 26.2391895486,
			"-0.003": 34.005869273,
			"-0.002": 27.013617387,
			"-0.001": 22.2350561776,
			"0.0": 15.2259111542,
			"0.001": 10.8072078083,
			"0.002": 9.4983910883,
			"0.003": 10.2989899464,
			"0.004": 9.06505600461,
			"0.005": 9.26548248023,
			"0.006": 10.035922019,
			"0.007": 3.74313784499,
			"0.008": 0.741724894442,
			"0.009": 2.07198384475,
			"0.01": 1.10548721148,
			"0.011": 1.15669103865,
			"0.012": 1.22854784179,
			"0.013": 2.09031394653,
			"0.014": 4.4007341274,
			"0.015": 5.18684507565,
			"0.016": 0.968179019429,
			"0.017": 0.0,
			"0.018": 0.0,
			"0.019": 0.0,
			"0.02": 0.0,
			"0.021": 0.0,
			"0.022": 0.0,
			"0.023": 0.0,
			"0.024": 0.0,
			"0.025": 0.0
		}
	}
}
