{
	 "smiles": "O=C1NC2=C(C(=CS2)C2=CC=CC=C2)C(=O)N1C1=CC=CC=C1", 
	 "Tm": 579.15, 
	 "num_atms": 35, 
	 "gaussian": { 
		 "optdone": 1, 
		 "sigma_profile": "yes", 
		 "theory": "DFT", 
		 "functional": "B3LYP", 
		 "basiset": "6-31G**", 
		 "properties": { 
			 "R2extent": 8647.5203, 
			 "electric_dipole_moment_norm": 2.52033209121, 
			 "electric_quadrupole_moment_norm": 16.6669280292, 
			 "total_energy": -1351.31242664, 
			 "HOMO_LUMO_gap": 0.1811, 
			 "cosmo_polarized_energy": -20.12, 
			 "cosmo_cavitation_energy": 41.44, 
			 "cosmo_dispersion_energy": -29.88, 
			 "cosmo_repulsion_energy": 2.21, 
			 "cosmo_total_nonelectrostatic_energy": 13.77, 
			 "SMD_solvation_energy": 7.76 
		},
		"coords": [
			{
				"x": -4.3010352134,
				"y": -0.1980532361,
				"z": 0.2681725199,
				"element": "O" 
			},
			{
				"x": -3.1473150151,
				"y": -0.278596606,
				"z": 0.6462281277,
				"element": "C" 
			},
			{
				"x": -2.8438080219,
				"y": -0.5715971001,
				"z": 1.9736555943,
				"element": "N" 
			},
			{
				"x": -1.5605081867,
				"y": -0.6741195144,
				"z": 2.4425717597,
				"element": "C" 
			},
			{
				"x": -0.4525426882,
				"y": -0.510030207,
				"z": 1.6378254314,
				"element": "C" 
			},
			{
				"x": 0.7890013434,
				"y": -0.6339302652,
				"z": 2.3846642268,
				"element": "C" 
			},
			{
				"x": 0.5450790864,
				"y": -0.8866080725,
				"z": 3.7066801348,
				"element": "C" 
			},
			{
				"x": -1.1576654993,
				"y": -0.981788145,
				"z": 4.1012055613,
				"element": "S" 
			},
			{
				"x": 2.1776310628,
				"y": -0.5256478029,
				"z": 1.8722522852,
				"element": "C" 
			},
			{
				"x": 3.1243626462,
				"y": 0.21328875,
				"z": 2.6010512403,
				"element": "C" 
			},
			{
				"x": 4.4552710203,
				"y": 0.2735294622,
				"z": 2.1885785775,
				"element": "C" 
			},
			{
				"x": 4.8615410189,
				"y": -0.4046453701,
				"z": 1.0390235655,
				"element": "C" 
			},
			{
				"x": 3.9271354298,
				"y": -1.1386076648,
				"z": 0.3046067875,
				"element": "C" 
			},
			{
				"x": 2.5968730764,
				"y": -1.1990376185,
				"z": 0.7137999733,
				"element": "C" 
			},
			{
				"x": -0.654134227,
				"y": -0.1777328052,
				"z": 0.2265441252,
				"element": "C" 
			},
			{
				"x": 0.2278531293,
				"y": 0.023183677,
				"z": -0.5896602378,
				"element": "O" 
			},
			{
				"x": -2.0278340652,
				"y": -0.0935957058,
				"z": -0.1754242896,
				"element": "N" 
			},
			{
				"x": -2.2936316266,
				"y": 0.219806315,
				"z": -1.5629954078,
				"element": "C" 
			},
			{
				"x": -2.7966373183,
				"y": -0.7674709612,
				"z": -2.4092614772,
				"element": "C" 
			},
			{
				"x": -3.0538477508,
				"y": -0.4625896985,
				"z": -3.7456259543,
				"element": "C" 
			},
			{
				"x": -2.8007230623,
				"y": 0.8208916882,
				"z": -4.232896846,
				"element": "C" 
			},
			{
				"x": -2.2922727642,
				"y": 1.8023105306,
				"z": -3.3798761926,
				"element": "C" 
			},
			{
				"x": -2.0401905746,
				"y": 1.5048476327,
				"z": -2.0410656924,
				"element": "C" 
			},
			{
				"x": -3.6493070573,
				"y": -0.6950998936,
				"z": 2.5705634118,
				"element": "H" 
			},
			{
				"x": 1.2714554447,
				"y": -1.0680122194,
				"z": 4.4853156372,
				"element": "H" 
			},
			{
				"x": 2.8059291477,
				"y": 0.7594923038,
				"z": 3.4841977809,
				"element": "H" 
			},
			{
				"x": 5.1706664741,
				"y": 0.856792845,
				"z": 2.7613852273,
				"element": "H" 
			},
			{
				"x": 5.8966262726,
				"y": -0.3567717244,
				"z": 0.7130742099,
				"element": "H" 
			},
			{
				"x": 4.2344458996,
				"y": -1.6664854329,
				"z": -0.5935210682,
				"element": "H" 
			},
			{
				"x": 1.8787931996,
				"y": -1.7628207933,
				"z": 0.131219403,
				"element": "H" 
			},
			{
				"x": -2.9909022479,
				"y": -1.7611633236,
				"z": -2.0195098297,
				"element": "H" 
			},
			{
				"x": -3.4507706588,
				"y": -1.2287970267,
				"z": -4.4047819096,
				"element": "H" 
			},
			{
				"x": -2.998927159,
				"y": 1.0557166469,
				"z": -5.2745933445,
				"element": "H" 
			},
			{
				"x": -2.0916660943,
				"y": 2.801357284,
				"z": -3.7550076418,
				"element": "H" 
			},
			{
				"x": -1.6423450209,
				"y": 2.2585840519,
				"z": -1.3700956888,
				"element": "H" 
			}
		],
		 "valence_orbital": [ 
			{
				"type": "occ",
				"energy": -0.25095,
				"method": "rhf"
			},
			{
				"type": "occ",
				"energy": -0.24819,
				"method": "rhf"
			},
			{
				"type": "occ",
				"energy": -0.24461,
				"method": "rhf"
			},
			{
				"type": "occ",
				"energy": -0.24203,
				"method": "rhf"
			},
			{
				"type": "occ",
				"energy": -0.22039,
				"method": "rhf"
			},
			{
				"type": "unocc",
				"energy": -0.03929,
				"method": "rhf"
			},
			{
				"type": "unocc",
				"energy": -0.02883,
				"method": "rhf"
			},
			{
				"type": "unocc",
				"energy": -0.0102,
				"method": "rhf"
			},
			{
				"type": "unocc",
				"energy": -0.00464,
				"method": "rhf"
			},
			{
				"type": "unocc",
				"energy": -0.00114,
				"method": "rhf"
			}
		],
		"cosmo_sigma_profile": { 
			"-0.025": 0.0,
			"-0.024": 0.0,
			"-0.023": 0.0,
			"-0.022": 0.0,
			"-0.021": 0.0,
			"-0.02": 0.0,
			"-0.019": 0.0,
			"-0.018": 0.322969870853,
			"-0.017": 1.53141917082,
			"-0.016": 1.12149399305,
			"-0.015": 1.24580141188,
			"-0.014": 1.4669925525,
			"-0.013": 0.604159923319,
			"-0.012": 0.519022390322,
			"-0.011": 1.16240990429,
			"-0.01": 1.67025039494,
			"-0.009": 2.62893967756,
			"-0.008": 2.35932379705,
			"-0.007": 5.38099529128,
			"-0.006": 17.2413775192,
			"-0.005": 28.8394538087,
			"-0.004": 29.3923625408,
			"-0.003": 25.4037436253,
			"-0.002": 24.1167794064,
			"-0.001": 21.0398347165,
			"0.0": 22.553946119,
			"0.001": 21.9080580356,
			"0.002": 23.7631490892,
			"0.003": 21.0168689484,
			"0.004": 16.7705661786,
			"0.005": 17.7013310401,
			"0.006": 11.2012844758,
			"0.007": 3.44838757826,
			"0.008": 3.87780895039,
			"0.009": 3.65587191194,
			"0.01": 4.50769703352,
			"0.011": 5.04205118701,
			"0.012": 10.0094380087,
			"0.013": 4.50868304716,
			"0.014": 0.00498486146218,
			"0.015": 0.0,
			"0.016": 0.0,
			"0.017": 0.0,
			"0.018": 0.0,
			"0.019": 0.0,
			"0.02": 0.0,
			"0.021": 0.0,
			"0.022": 0.0,
			"0.023": 0.0,
			"0.024": 0.0,
			"0.025": 0.0
		}
	}
}
