{
	 "smiles": "CCCCCCCCCCCCCCCCCCCCCO", 
	 "Tm": 342.65, 
	 "num_atms": 66, 
	 "gaussian": { 
		 "optdone": 1, 
		 "sigma_profile": "yes", 
		 "theory": "DFT", 
		 "functional": "B3LYP", 
		 "basiset": "6-31G**", 
		 "properties": { 
			 "R2extent": 11454.8737, 
			 "electric_dipole_moment_norm": 1.53608642986, 
			 "electric_quadrupole_moment_norm": 12.37353542, 
			 "total_energy": -902.021977099, 
			 "HOMO_LUMO_gap": 0.30687, 
			 "cosmo_polarized_energy": -6.52, 
			 "cosmo_cavitation_energy": 62.74, 
			 "cosmo_dispersion_energy": -37.47, 
			 "cosmo_repulsion_energy": 3.0, 
			 "cosmo_total_nonelectrostatic_energy": 28.27, 
			 "SMD_solvation_energy": 7.82 
		},
		"coords": [
			{
				"x": 2.7710816557,
				"y": 1.34649628,
				"z": -5.7264063923,
				"element": "C" 
			},
			{
				"x": 2.4505800846,
				"y": -0.1515210486,
				"z": -5.6333536008,
				"element": "C" 
			},
			{
				"x": 2.5200817761,
				"y": -0.7574085536,
				"z": -4.2144178694,
				"element": "C" 
			},
			{
				"x": 1.2289407219,
				"y": -0.6944266491,
				"z": -3.3773472591,
				"element": "C" 
			},
			{
				"x": 0.7538533045,
				"y": 0.7086529892,
				"z": -2.9686381508,
				"element": "C" 
			},
			{
				"x": -0.3986988142,
				"y": 0.71016857,
				"z": -1.9492062765,
				"element": "C" 
			},
			{
				"x": -1.7198810532,
				"y": 0.1348464396,
				"z": -2.4822753949,
				"element": "C" 
			},
			{
				"x": -2.9106348364,
				"y": 0.2811773741,
				"z": -1.5176608761,
				"element": "C" 
			},
			{
				"x": -2.7953417608,
				"y": -0.4789975219,
				"z": -0.1838004501,
				"element": "C" 
			},
			{
				"x": -2.7403430817,
				"y": -2.0072744049,
				"z": -0.3276658913,
				"element": "C" 
			},
			{
				"x": -2.8015808099,
				"y": -2.7727645288,
				"z": 1.0067475941,
				"element": "C" 
			},
			{
				"x": -1.620595062,
				"y": -2.5517704204,
				"z": 1.9695617665,
				"element": "C" 
			},
			{
				"x": -0.2705250091,
				"y": -3.0618952226,
				"z": 1.438866567,
				"element": "C" 
			},
			{
				"x": 0.9053174336,
				"y": -2.9837178007,
				"z": 2.4385222072,
				"element": "C" 
			},
			{
				"x": 1.7418868003,
				"y": -1.6913786009,
				"z": 2.4154425252,
				"element": "C" 
			},
			{
				"x": 1.0316487813,
				"y": -0.4051135718,
				"z": 2.8622791879,
				"element": "C" 
			},
			{
				"x": 1.9846274412,
				"y": 0.7979148546,
				"z": 2.9194011246,
				"element": "C" 
			},
			{
				"x": 1.4050459239,
				"y": 2.1074623266,
				"z": 3.4845966173,
				"element": "C" 
			},
			{
				"x": 0.2687505322,
				"y": 2.7634695176,
				"z": 2.6709243076,
				"element": "C" 
			},
			{
				"x": -1.1542963614,
				"y": 2.3310180483,
				"z": 3.0537954691,
				"element": "C" 
			},
			{
				"x": -2.2411102679,
				"y": 3.1065759806,
				"z": 2.3040575898,
				"element": "C" 
			},
			{
				"x": -2.1761628568,
				"y": 4.5142871658,
				"z": 2.5110071875,
				"element": "O" 
			},
			{
				"x": 2.0692186202,
				"y": 1.9597848613,
				"z": -5.154692081,
				"element": "H" 
			},
			{
				"x": 3.7764446495,
				"y": 1.5534971768,
				"z": -5.3416078007,
				"element": "H" 
			},
			{
				"x": 2.738920638,
				"y": 1.6900669175,
				"z": -6.766150928,
				"element": "H" 
			},
			{
				"x": 3.1605389033,
				"y": -0.6883241927,
				"z": -6.2753636674,
				"element": "H" 
			},
			{
				"x": 1.4577544942,
				"y": -0.3462803407,
				"z": -6.0622524734,
				"element": "H" 
			},
			{
				"x": 3.3410949734,
				"y": -0.2830887637,
				"z": -3.6574995021,
				"element": "H" 
			},
			{
				"x": 2.7951613722,
				"y": -1.8160668909,
				"z": -4.3047834845,
				"element": "H" 
			},
			{
				"x": 0.4308041191,
				"y": -1.2093829221,
				"z": -3.9286662098,
				"element": "H" 
			},
			{
				"x": 1.3893289297,
				"y": -1.2830853719,
				"z": -2.4622980937,
				"element": "H" 
			},
			{
				"x": 1.602681895,
				"y": 1.2596805586,
				"z": -2.5411074005,
				"element": "H" 
			},
			{
				"x": 0.4399019961,
				"y": 1.2718503523,
				"z": -3.8569520245,
				"element": "H" 
			},
			{
				"x": -0.0810866738,
				"y": 0.1549832436,
				"z": -1.0557984174,
				"element": "H" 
			},
			{
				"x": -0.57486577,
				"y": 1.7432025541,
				"z": -1.6176375529,
				"element": "H" 
			},
			{
				"x": -1.9716706734,
				"y": 0.6494238303,
				"z": -3.4201085563,
				"element": "H" 
			},
			{
				"x": -1.5884674429,
				"y": -0.9211607576,
				"z": -2.7478725138,
				"element": "H" 
			},
			{
				"x": -3.0578852649,
				"y": 1.3486843426,
				"z": -1.3023191257,
				"element": "H" 
			},
			{
				"x": -3.822605167,
				"y": -0.0516406565,
				"z": -2.0322028089,
				"element": "H" 
			},
			{
				"x": -1.9154810033,
				"y": -0.1230808387,
				"z": 0.3668990177,
				"element": "H" 
			},
			{
				"x": -3.6625985942,
				"y": -0.2165496351,
				"z": 0.4382500061,
				"element": "H" 
			},
			{
				"x": -3.5870352387,
				"y": -2.3305488844,
				"z": -0.949218277,
				"element": "H" 
			},
			{
				"x": -1.8384059585,
				"y": -2.2998872298,
				"z": -0.8792511058,
				"element": "H" 
			},
			{
				"x": -3.7317374895,
				"y": -2.4999775433,
				"z": 1.5242340802,
				"element": "H" 
			},
			{
				"x": -2.8798495438,
				"y": -3.8474913746,
				"z": 0.7913852254,
				"element": "H" 
			},
			{
				"x": -1.8417822894,
				"y": -3.0771362373,
				"z": 2.9087054853,
				"element": "H" 
			},
			{
				"x": -1.5505507779,
				"y": -1.4907484828,
				"z": 2.2347591256,
				"element": "H" 
			},
			{
				"x": -0.4075529981,
				"y": -4.1101482006,
				"z": 1.139708704,
				"element": "H" 
			},
			{
				"x": 0.0050286987,
				"y": -2.5264074506,
				"z": 0.5200746758,
				"element": "H" 
			},
			{
				"x": 1.590848323,
				"y": -3.8147398081,
				"z": 2.2298293344,
				"element": "H" 
			},
			{
				"x": 0.5298735517,
				"y": -3.158202127,
				"z": 3.4570825101,
				"element": "H" 
			},
			{
				"x": 2.140729082,
				"y": -1.5454869387,
				"z": 1.4009254259,
				"element": "H" 
			},
			{
				"x": 2.618695161,
				"y": -1.8427669943,
				"z": 3.0606648627,
				"element": "H" 
			},
			{
				"x": 0.5794932811,
				"y": -0.5625753526,
				"z": 3.8523822447,
				"element": "H" 
			},
			{
				"x": 0.2052866681,
				"y": -0.1854576645,
				"z": 2.1769639503,
				"element": "H" 
			},
			{
				"x": 2.8563355002,
				"y": 0.5206403929,
				"z": 3.5287619583,
				"element": "H" 
			},
			{
				"x": 2.3757706215,
				"y": 0.9908437571,
				"z": 1.9099367298,
				"element": "H" 
			},
			{
				"x": 1.0653828052,
				"y": 1.940098676,
				"z": 4.5170175496,
				"element": "H" 
			},
			{
				"x": 2.2344268728,
				"y": 2.8220487618,
				"z": 3.5591451054,
				"element": "H" 
			},
			{
				"x": 0.4288967483,
				"y": 2.57664142,
				"z": 1.5990867967,
				"element": "H" 
			},
			{
				"x": 0.3171917924,
				"y": 3.8512471274,
				"z": 2.7910063451,
				"element": "H" 
			},
			{
				"x": -1.3082927414,
				"y": 1.2606494382,
				"z": 2.8712951627,
				"element": "H" 
			},
			{
				"x": -1.2986035245,
				"y": 2.4744587816,
				"z": 4.1361304711,
				"element": "H" 
			},
			{
				"x": -2.1239910153,
				"y": 2.9669292756,
				"z": 1.2232312212,
				"element": "H" 
			},
			{
				"x": -3.2341429541,
				"y": 2.712973788,
				"z": 2.5746372917,
				"element": "H" 
			},
			{
				"x": -2.3152491177,
				"y": 4.6760281797,
				"z": 3.4534387612,
				"element": "H" 
			}
		],
		 "valence_orbital": [ 
			{
				"type": "occ",
				"energy": -0.29939,
				"method": "rhf"
			},
			{
				"type": "occ",
				"energy": -0.29686,
				"method": "rhf"
			},
			{
				"type": "occ",
				"energy": -0.29562,
				"method": "rhf"
			},
			{
				"type": "occ",
				"energy": -0.29218,
				"method": "rhf"
			},
			{
				"type": "occ",
				"energy": -0.26069,
				"method": "rhf"
			},
			{
				"type": "unocc",
				"energy": 0.04618,
				"method": "rhf"
			},
			{
				"type": "unocc",
				"energy": 0.07224,
				"method": "rhf"
			},
			{
				"type": "unocc",
				"energy": 0.08281,
				"method": "rhf"
			},
			{
				"type": "unocc",
				"energy": 0.0889,
				"method": "rhf"
			},
			{
				"type": "unocc",
				"energy": 0.09394,
				"method": "rhf"
			}
		],
		"cosmo_sigma_profile": { 
			"-0.025": 0.0,
			"-0.024": 0.0,
			"-0.023": 0.0,
			"-0.022": 0.0,
			"-0.021": 0.0,
			"-0.02": 0.0,
			"-0.019": 0.0,
			"-0.018": 0.0,
			"-0.017": 0.0,
			"-0.016": 0.0,
			"-0.015": 0.593678585632,
			"-0.014": 0.721261219233,
			"-0.013": 1.15212757803,
			"-0.012": 0.664630554411,
			"-0.011": 1.13386258713,
			"-0.01": 1.20967698703,
			"-0.009": 0.699254863617,
			"-0.008": 0.95986388938,
			"-0.007": 0.776477058243,
			"-0.006": 1.0054843837,
			"-0.005": 1.34239359214,
			"-0.004": 1.61360433302,
			"-0.003": 8.63827847094,
			"-0.002": 50.0085665999,
			"-0.001": 118.657908686,
			"0.0": 127.522356655,
			"0.001": 103.177922104,
			"0.002": 38.9290836937,
			"0.003": 2.60672401395,
			"0.004": 1.62678174722,
			"0.005": 0.729802787473,
			"0.006": 1.34838649601,
			"0.007": 1.50441895322,
			"0.008": 1.34254774927,
			"0.009": 1.84367809225,
			"0.01": 1.15231074477,
			"0.011": 1.00177065039,
			"0.012": 0.714591673807,
			"0.013": 1.80668247277,
			"0.014": 1.88585213643,
			"0.015": 1.67698381093,
			"0.016": 0.0213984174019,
			"0.017": 0.0,
			"0.018": 0.0,
			"0.019": 0.0,
			"0.02": 0.0,
			"0.021": 0.0,
			"0.022": 0.0,
			"0.023": 0.0,
			"0.024": 0.0,
			"0.025": 0.0
		}
	}
}
