{
	 "smiles": "FC(F)(F)C1=C(Br)C=CC(Cl)=C1", 
	 "Tm": 292.15, 
	 "num_atms": 15, 
	 "gaussian": { 
		 "optdone": 1, 
		 "sigma_profile": "yes", 
		 "theory": "DFT", 
		 "functional": "B3LYP", 
		 "basiset": "6-31G**", 
		 "properties": { 
			 "R2extent": 4204.0659, 
			 "electric_dipole_moment_norm": 2.08897151967, 
			 "electric_quadrupole_moment_norm": 7.46958556146, 
			 "total_energy": -3599.67043483, 
			 "HOMO_LUMO_gap": 0.20541, 
			 "cosmo_polarized_energy": -4.21, 
			 "cosmo_cavitation_energy": 24.79, 
			 "cosmo_dispersion_energy": -18.42, 
			 "cosmo_repulsion_energy": 1.41, 
			 "cosmo_total_nonelectrostatic_energy": 7.77, 
			 "SMD_solvation_energy": 4.07 
		},
		"coords": [
			{
				"x": 0.3522158969,
				"y": 1.9571732839,
				"z": 2.6215423414,
				"element": "F" 
			},
			{
				"x": -0.5420368309,
				"y": 1.0304542785,
				"z": 2.2258932676,
				"element": "C" 
			},
			{
				"x": -1.5877195802,
				"y": 1.6919533243,
				"z": 1.6831878952,
				"element": "F" 
			},
			{
				"x": -0.9969439786,
				"y": 0.4049135198,
				"z": 3.3289741115,
				"element": "F" 
			},
			{
				"x": 0.0627827336,
				"y": 0.0545843383,
				"z": 1.2377984147,
				"element": "C" 
			},
			{
				"x": 1.1623718379,
				"y": -0.7560998419,
				"z": 1.5569672498,
				"element": "C" 
			},
			{
				"x": 2.0006314293,
				"y": -0.7060828829,
				"z": 3.2669391391,
				"element": "Br" 
			},
			{
				"x": 1.6827773776,
				"y": -1.6391079337,
				"z": 0.6111964712,
				"element": "C" 
			},
			{
				"x": 1.1187711798,
				"y": -1.7273140425,
				"z": -0.6597748752,
				"element": "C" 
			},
			{
				"x": 0.0271293858,
				"y": -0.9216410606,
				"z": -0.9748489179,
				"element": "C" 
			},
			{
				"x": -0.6947429852,
				"y": -1.0189929394,
				"z": -2.567604412,
				"element": "Cl" 
			},
			{
				"x": -0.5004778405,
				"y": -0.0366368,
				"z": -0.0383245875,
				"element": "C" 
			},
			{
				"x": 2.5325517222,
				"y": -2.2592869498,
				"z": 0.8717424268,
				"element": "H" 
			},
			{
				"x": 1.5242185247,
				"y": -2.4141290683,
				"z": -1.3942463484,
				"element": "H" 
			},
			{
				"x": -1.3489288723,
				"y": 0.5847127744,
				"z": -0.2938421763,
				"element": "H" 
			}
		],
		 "valence_orbital": [ 
			{
				"type": "occ",
				"energy": -0.33031,
				"method": "rhf"
			},
			{
				"type": "occ",
				"energy": -0.31585,
				"method": "rhf"
			},
			{
				"type": "occ",
				"energy": -0.30039,
				"method": "rhf"
			},
			{
				"type": "occ",
				"energy": -0.29359,
				"method": "rhf"
			},
			{
				"type": "occ",
				"energy": -0.25671,
				"method": "rhf"
			},
			{
				"type": "unocc",
				"energy": -0.0513,
				"method": "rhf"
			},
			{
				"type": "unocc",
				"energy": -0.04047,
				"method": "rhf"
			},
			{
				"type": "unocc",
				"energy": -0.01177,
				"method": "rhf"
			},
			{
				"type": "unocc",
				"energy": 0.01697,
				"method": "rhf"
			},
			{
				"type": "unocc",
				"energy": 0.10032,
				"method": "rhf"
			}
		],
		"cosmo_sigma_profile": { 
			"-0.025": 0.0,
			"-0.024": 0.0,
			"-0.023": 0.0,
			"-0.022": 0.0,
			"-0.021": 0.0,
			"-0.02": 0.0,
			"-0.019": 0.0,
			"-0.018": 0.0,
			"-0.017": 0.0,
			"-0.016": 0.0,
			"-0.015": 0.0,
			"-0.014": 0.0,
			"-0.013": 0.0,
			"-0.012": 0.0,
			"-0.011": 0.0,
			"-0.01": 0.0,
			"-0.009": 1.37645447028,
			"-0.008": 5.1554706442,
			"-0.007": 5.66754733002,
			"-0.006": 4.74478724406,
			"-0.005": 5.90132302201,
			"-0.004": 8.47311998261,
			"-0.003": 10.5451548895,
			"-0.002": 10.6248396439,
			"-0.001": 19.2717145681,
			"0.0": 29.7257519163,
			"0.001": 22.1636953824,
			"0.002": 31.5081734073,
			"0.003": 31.712483076,
			"0.004": 17.966731451,
			"0.005": 0.642259894283,
			"0.006": 0.0,
			"0.007": 0.0,
			"0.008": 0.0,
			"0.009": 0.0,
			"0.01": 0.0,
			"0.011": 0.0,
			"0.012": 0.0,
			"0.013": 0.0,
			"0.014": 0.0,
			"0.015": 0.0,
			"0.016": 0.0,
			"0.017": 0.0,
			"0.018": 0.0,
			"0.019": 0.0,
			"0.02": 0.0,
			"0.021": 0.0,
			"0.022": 0.0,
			"0.023": 0.0,
			"0.024": 0.0,
			"0.025": 0.0
		}
	}
}
