{
	 "smiles": "CC(=O)C1=C(C)ON=C1C1=CC=C(Cl)C=C1", 
	 "Tm": 330.65, 
	 "num_atms": 26, 
	 "gaussian": { 
		 "optdone": 1, 
		 "sigma_profile": "yes", 
		 "theory": "DFT", 
		 "functional": "B3LYP", 
		 "basiset": "6-31G**", 
		 "properties": { 
			 "R2extent": 5416.7107, 
			 "electric_dipole_moment_norm": 0.911660007898, 
			 "electric_quadrupole_moment_norm": 10.0207642937, 
			 "total_energy": -1128.65597834, 
			 "HOMO_LUMO_gap": 0.20252, 
			 "cosmo_polarized_energy": -11.19, 
			 "cosmo_cavitation_energy": 32.52, 
			 "cosmo_dispersion_energy": -23.15, 
			 "cosmo_repulsion_energy": 1.81, 
			 "cosmo_total_nonelectrostatic_energy": 11.17, 
			 "SMD_solvation_energy": 5.89 
		},
		"coords": [
			{
				"x": -1.4634033333,
				"y": 0.9935319343,
				"z": 1.4566618388,
				"element": "C" 
			},
			{
				"x": -1.7874742579,
				"y": -0.3107913239,
				"z": 0.7526957414,
				"element": "C" 
			},
			{
				"x": -2.6724431507,
				"y": -1.0427757752,
				"z": 1.1819794392,
				"element": "O" 
			},
			{
				"x": -1.0698590889,
				"y": -0.6768423878,
				"z": -0.4891099946,
				"element": "C" 
			},
			{
				"x": -1.5339569654,
				"y": -1.6292092137,
				"z": -1.3751945094,
				"element": "C" 
			},
			{
				"x": -2.6828087677,
				"y": -2.5722430096,
				"z": -1.35231996,
				"element": "C" 
			},
			{
				"x": -0.7572659457,
				"y": -1.646288404,
				"z": -2.4644868502,
				"element": "O" 
			},
			{
				"x": 0.2779087693,
				"y": -0.7079462287,
				"z": -2.3294110007,
				"element": "N" 
			},
			{
				"x": 0.0860911701,
				"y": -0.1348554303,
				"z": -1.1601897375,
				"element": "C" 
			},
			{
				"x": 1.0594567947,
				"y": 0.8965203434,
				"z": -0.7337361765,
				"element": "C" 
			},
			{
				"x": 1.7339671691,
				"y": 0.7928827464,
				"z": 0.4913863249,
				"element": "C" 
			},
			{
				"x": 2.6814308637,
				"y": 1.7426105315,
				"z": 0.8675238216,
				"element": "C" 
			},
			{
				"x": 2.9584225373,
				"y": 2.8040469754,
				"z": 0.0053860079,
				"element": "C" 
			},
			{
				"x": 4.1457005392,
				"y": 4.0086575423,
				"z": 0.4756389624,
				"element": "Cl" 
			},
			{
				"x": 2.3118999295,
				"y": 2.9210239921,
				"z": -1.2246900265,
				"element": "C" 
			},
			{
				"x": 1.3677693204,
				"y": 1.9630922808,
				"z": -1.5899485131,
				"element": "C" 
			},
			{
				"x": -2.2893379969,
				"y": 1.2314867944,
				"z": 2.1285941913,
				"element": "H" 
			},
			{
				"x": -1.2979257199,
				"y": 1.81269153,
				"z": 0.7514319301,
				"element": "H" 
			},
			{
				"x": -0.5497069851,
				"y": 0.8923446274,
				"z": 2.0511666153,
				"element": "H" 
			},
			{
				"x": -2.4516178809,
				"y": -3.4374955739,
				"z": -0.7217688978,
				"element": "H" 
			},
			{
				"x": -3.5555633599,
				"y": -2.0894643211,
				"z": -0.9092840302,
				"element": "H" 
			},
			{
				"x": -2.902948012,
				"y": -2.9202310347,
				"z": -2.3638198308,
				"element": "H" 
			},
			{
				"x": 1.535526704,
				"y": -0.049457987,
				"z": 1.1470107831,
				"element": "H" 
			},
			{
				"x": 3.2065098082,
				"y": 1.6577061194,
				"z": 1.8122980027,
				"element": "H" 
			},
			{
				"x": 2.5450804406,
				"y": 3.7484163774,
				"z": -1.8854234161,
				"element": "H" 
			},
			{
				"x": 0.8631474182,
				"y": 2.0384888952,
				"z": -2.5472907153,
				"element": "H" 
			}
		],
		 "valence_orbital": [ 
			{
				"type": "occ",
				"energy": -0.30969,
				"method": "rhf"
			},
			{
				"type": "occ",
				"energy": -0.27674,
				"method": "rhf"
			},
			{
				"type": "occ",
				"energy": -0.26803,
				"method": "rhf"
			},
			{
				"type": "occ",
				"energy": -0.25573,
				"method": "rhf"
			},
			{
				"type": "occ",
				"energy": -0.25356,
				"method": "rhf"
			},
			{
				"type": "unocc",
				"energy": -0.05104,
				"method": "rhf"
			},
			{
				"type": "unocc",
				"energy": -0.04232,
				"method": "rhf"
			},
			{
				"type": "unocc",
				"energy": -0.02737,
				"method": "rhf"
			},
			{
				"type": "unocc",
				"energy": -0.00096,
				"method": "rhf"
			},
			{
				"type": "unocc",
				"energy": 0.02085,
				"method": "rhf"
			}
		],
		"cosmo_sigma_profile": { 
			"-0.025": 0.0,
			"-0.024": 0.0,
			"-0.023": 0.0,
			"-0.022": 0.0,
			"-0.021": 0.0,
			"-0.02": 0.0,
			"-0.019": 0.0,
			"-0.018": 0.0,
			"-0.017": 0.0,
			"-0.016": 0.0,
			"-0.015": 0.0,
			"-0.014": 0.0,
			"-0.013": 0.0,
			"-0.012": 0.0,
			"-0.011": 0.0,
			"-0.01": 8.56412406047e-06,
			"-0.009": 0.421208280822,
			"-0.008": 4.08565493056,
			"-0.007": 10.0745053445,
			"-0.006": 14.0894041476,
			"-0.005": 17.4810616479,
			"-0.004": 18.1963182777,
			"-0.003": 23.1340128295,
			"-0.002": 25.9161295385,
			"-0.001": 22.8586643696,
			"0.0": 17.0072876809,
			"0.001": 17.8182603392,
			"0.002": 21.5099063134,
			"0.003": 16.5450757342,
			"0.004": 13.4534915459,
			"0.005": 7.7787298957,
			"0.006": 5.4221784897,
			"0.007": 6.32009548858,
			"0.008": 3.73077293355,
			"0.009": 2.92821565482,
			"0.01": 2.96038386251,
			"0.011": 4.36336743998,
			"0.012": 3.53785481582,
			"0.013": 2.52777103912,
			"0.014": 0.386971904849,
			"0.015": 0.0,
			"0.016": 0.0,
			"0.017": 0.0,
			"0.018": 0.0,
			"0.019": 0.0,
			"0.02": 0.0,
			"0.021": 0.0,
			"0.022": 0.0,
			"0.023": 0.0,
			"0.024": 0.0,
			"0.025": 0.0
		}
	}
}
