{
	 "smiles": "CCCCNCC(=O)NC1=C(Cl)C=CC=C1C", 
	 "Tm": 318.65, 
	 "num_atms": 36, 
	 "gaussian": { 
		 "optdone": 1, 
		 "sigma_profile": "yes", 
		 "theory": "DFT", 
		 "functional": "B3LYP", 
		 "basiset": "6-31G**", 
		 "properties": { 
			 "R2extent": 6260.3716, 
			 "electric_dipole_moment_norm": 4.21071674184, 
			 "electric_quadrupole_moment_norm": 10.7014233918, 
			 "total_energy": -1151.77042488, 
			 "HOMO_LUMO_gap": 0.17976, 
			 "cosmo_polarized_energy": -12.75, 
			 "cosmo_cavitation_energy": 39.8, 
			 "cosmo_dispersion_energy": -26.79, 
			 "cosmo_repulsion_energy": 2.11, 
			 "cosmo_total_nonelectrostatic_energy": 15.12, 
			 "SMD_solvation_energy": 4.73 
		},
		"coords": [
			{
				"x": 3.4073052414,
				"y": 2.0828366452,
				"z": 2.5575609715,
				"element": "C" 
			},
			{
				"x": 4.1954363262,
				"y": 1.3868277973,
				"z": 1.4403363183,
				"element": "C" 
			},
			{
				"x": 3.3952907503,
				"y": 0.3364406516,
				"z": 0.6520226206,
				"element": "C" 
			},
			{
				"x": 2.221806401,
				"y": 0.9217638753,
				"z": -0.1403763883,
				"element": "C" 
			},
			{
				"x": 1.659452809,
				"y": -0.0449514694,
				"z": -1.0986678457,
				"element": "N" 
			},
			{
				"x": 0.9963274955,
				"y": -1.2268369214,
				"z": -0.5393847415,
				"element": "C" 
			},
			{
				"x": -0.1615875291,
				"y": -0.8782664081,
				"z": 0.4011219836,
				"element": "C" 
			},
			{
				"x": 0.0294507726,
				"y": -0.556577222,
				"z": 1.5664935929,
				"element": "O" 
			},
			{
				"x": -1.4428076081,
				"y": -0.8343211751,
				"z": -0.1293671477,
				"element": "N" 
			},
			{
				"x": -1.854836247,
				"y": -1.1109487883,
				"z": -1.460592208,
				"element": "C" 
			},
			{
				"x": -2.1655136398,
				"y": -0.0630732326,
				"z": -2.3453054261,
				"element": "C" 
			},
			{
				"x": -1.9947913862,
				"y": 1.6021603416,
				"z": -1.8081438959,
				"element": "Cl" 
			},
			{
				"x": -2.6080183393,
				"y": -0.3043262851,
				"z": -3.643990332,
				"element": "C" 
			},
			{
				"x": -2.737834378,
				"y": -1.6225518673,
				"z": -4.075100572,
				"element": "C" 
			},
			{
				"x": -2.4436400901,
				"y": -2.6757636929,
				"z": -3.2107628291,
				"element": "C" 
			},
			{
				"x": -2.014842379,
				"y": -2.4441619779,
				"z": -1.8987517019,
				"element": "C" 
			},
			{
				"x": -1.7386578501,
				"y": -3.5995586828,
				"z": -0.9675209883,
				"element": "C" 
			},
			{
				"x": 2.5744193441,
				"y": 2.6740496557,
				"z": 2.1639398536,
				"element": "H" 
			},
			{
				"x": 4.0509312328,
				"y": 2.7611565699,
				"z": 3.1279896651,
				"element": "H" 
			},
			{
				"x": 2.9867208896,
				"y": 1.3514674882,
				"z": 3.2567226789,
				"element": "H" 
			},
			{
				"x": 4.5889796171,
				"y": 2.1410417049,
				"z": 0.7444057936,
				"element": "H" 
			},
			{
				"x": 5.0731569665,
				"y": 0.8945769917,
				"z": 1.8781739045,
				"element": "H" 
			},
			{
				"x": 4.0610018923,
				"y": -0.1771116941,
				"z": -0.053081223,
				"element": "H" 
			},
			{
				"x": 3.0188373637,
				"y": -0.419398601,
				"z": 1.3525024637,
				"element": "H" 
			},
			{
				"x": 1.468809139,
				"y": 1.316740126,
				"z": 0.5577775423,
				"element": "H" 
			},
			{
				"x": 2.5831040039,
				"y": 1.7663965995,
				"z": -0.7412264522,
				"element": "H" 
			},
			{
				"x": 1.011712155,
				"y": 0.4381370004,
				"z": -1.7157322504,
				"element": "H" 
			},
			{
				"x": 0.6687950052,
				"y": -1.8489025255,
				"z": -1.3765205723,
				"element": "H" 
			},
			{
				"x": 1.7173661301,
				"y": -1.800266408,
				"z": 0.0481592516,
				"element": "H" 
			},
			{
				"x": -2.1020571804,
				"y": -0.3648771167,
				"z": 0.4820978374,
				"element": "H" 
			},
			{
				"x": -2.8387125002,
				"y": 0.5284321112,
				"z": -4.2985154381,
				"element": "H" 
			},
			{
				"x": -3.0770614336,
				"y": -1.8258003739,
				"z": -5.0862392851,
				"element": "H" 
			},
			{
				"x": -2.5638444753,
				"y": -3.7003132925,
				"z": -3.5509266743,
				"element": "H" 
			},
			{
				"x": -0.6634386354,
				"y": -3.7632477668,
				"z": -0.8285166101,
				"element": "H" 
			},
			{
				"x": -2.1611852855,
				"y": -3.4187241007,
				"z": 0.0246824698,
				"element": "H" 
			},
			{
				"x": -2.1623745782,
				"y": -4.5245479564,
				"z": -1.3662643655,
				"element": "H" 
			}
		],
		 "valence_orbital": [ 
			{
				"type": "occ",
				"energy": -0.28157,
				"method": "rhf"
			},
			{
				"type": "occ",
				"energy": -0.26581,
				"method": "rhf"
			},
			{
				"type": "occ",
				"energy": -0.25799,
				"method": "rhf"
			},
			{
				"type": "occ",
				"energy": -0.24957,
				"method": "rhf"
			},
			{
				"type": "occ",
				"energy": -0.2096,
				"method": "rhf"
			},
			{
				"type": "unocc",
				"energy": -0.02984,
				"method": "rhf"
			},
			{
				"type": "unocc",
				"energy": -0.02373,
				"method": "rhf"
			},
			{
				"type": "unocc",
				"energy": 0.01716,
				"method": "rhf"
			},
			{
				"type": "unocc",
				"energy": 0.01917,
				"method": "rhf"
			},
			{
				"type": "unocc",
				"energy": 0.08702,
				"method": "rhf"
			}
		],
		"cosmo_sigma_profile": { 
			"-0.025": 0.0,
			"-0.024": 0.0,
			"-0.023": 0.0,
			"-0.022": 0.0,
			"-0.021": 0.0,
			"-0.02": 0.0,
			"-0.019": 0.0,
			"-0.018": 0.0,
			"-0.017": 0.0,
			"-0.016": 0.0,
			"-0.015": 0.0,
			"-0.014": 0.231883337461,
			"-0.013": 0.882363728575,
			"-0.012": 1.12114588273,
			"-0.011": 0.66413387894,
			"-0.01": 0.821843048071,
			"-0.009": 0.698783076413,
			"-0.008": 1.29613305403,
			"-0.007": 5.72623099778,
			"-0.006": 10.3559274518,
			"-0.005": 17.3268427767,
			"-0.004": 18.2797613999,
			"-0.003": 22.7485106116,
			"-0.002": 35.4124605654,
			"-0.001": 38.2464070556,
			"0.0": 38.5839696094,
			"0.001": 34.1902647895,
			"0.002": 24.7203566087,
			"0.003": 16.2444533521,
			"0.004": 14.9187903788,
			"0.005": 5.8456390737,
			"0.006": 1.93361028302,
			"0.007": 2.40495425057,
			"0.008": 2.43871002068,
			"0.009": 2.82382791447,
			"0.01": 1.7903965919,
			"0.011": 2.37168571102,
			"0.012": 2.85162017879,
			"0.013": 4.17453385245,
			"0.014": 3.15853086421,
			"0.015": 0.496811155537,
			"0.016": 0.56971534443,
			"0.017": 0.51794354789,
			"0.018": 0.0,
			"0.019": 0.0,
			"0.02": 0.0,
			"0.021": 0.0,
			"0.022": 0.0,
			"0.023": 0.0,
			"0.024": 0.0,
			"0.025": 0.0
		}
	}
}
