{
	 "smiles": "COC(=O)C1=C(F)C=C(Br)C=C1", 
	 "Tm": 333.15, 
	 "num_atms": 18, 
	 "gaussian": { 
		 "optdone": 1, 
		 "sigma_profile": "yes", 
		 "theory": "DFT", 
		 "functional": "B3LYP", 
		 "basiset": "6-31G**", 
		 "properties": { 
			 "R2extent": 5546.2542, 
			 "electric_dipole_moment_norm": 0.796648498398, 
			 "electric_quadrupole_moment_norm": 6.40332449201, 
			 "total_energy": -3130.15865223, 
			 "HOMO_LUMO_gap": 0.19796, 
			 "cosmo_polarized_energy": -6.91, 
			 "cosmo_cavitation_energy": 25.77, 
			 "cosmo_dispersion_energy": -19.26, 
			 "cosmo_repulsion_energy": 1.52, 
			 "cosmo_total_nonelectrostatic_energy": 8.03, 
			 "SMD_solvation_energy": 5.38 
		},
		"coords": [
			{
				"x": 1.6185451555,
				"y": -3.1384336609,
				"z": -0.9698106532,
				"element": "C" 
			},
			{
				"x": 1.3439519926,
				"y": -1.7665362588,
				"z": -1.2996770313,
				"element": "O" 
			},
			{
				"x": 0.3138642622,
				"y": -1.2152891087,
				"z": -0.6334977082,
				"element": "C" 
			},
			{
				"x": -0.3486584479,
				"y": -1.8165737994,
				"z": 0.190916798,
				"element": "O" 
			},
			{
				"x": 0.0563845011,
				"y": 0.2094568106,
				"z": -0.9998021322,
				"element": "C" 
			},
			{
				"x": 0.7755597349,
				"y": 0.9635307106,
				"z": -1.9383823064,
				"element": "C" 
			},
			{
				"x": 1.8042987172,
				"y": 0.4339780013,
				"z": -2.6146732406,
				"element": "F" 
			},
			{
				"x": 0.4614781081,
				"y": 2.2915410111,
				"z": -2.2152029045,
				"element": "C" 
			},
			{
				"x": -0.5992648257,
				"y": 2.8828329799,
				"z": -1.5366507147,
				"element": "C" 
			},
			{
				"x": -1.0390305289,
				"y": 4.6994423735,
				"z": -1.9061220641,
				"element": "Br" 
			},
			{
				"x": -1.3438674914,
				"y": 2.171242573,
				"z": -0.5935765196,
				"element": "C" 
			},
			{
				"x": -1.0062148555,
				"y": 0.8480270683,
				"z": -0.3393323318,
				"element": "C" 
			},
			{
				"x": 2.468644876,
				"y": -3.4213041575,
				"z": -1.5899248192,
				"element": "H" 
			},
			{
				"x": 0.7530031135,
				"y": -3.7677381406,
				"z": -1.1910016696,
				"element": "H" 
			},
			{
				"x": 1.8641854188,
				"y": -3.2372280846,
				"z": 0.0903789817,
				"element": "H" 
			},
			{
				"x": 1.0459312178,
				"y": 2.8330606213,
				"z": -2.9483697662,
				"element": "H" 
			},
			{
				"x": -2.1671290271,
				"y": 2.6453798975,
				"z": -0.0732421362,
				"element": "H" 
			},
			{
				"x": -1.5619819211,
				"y": 0.2643111632,
				"z": 0.386370218,
				"element": "H" 
			}
		],
		 "valence_orbital": [ 
			{
				"type": "occ",
				"energy": -0.30677,
				"method": "rhf"
			},
			{
				"type": "occ",
				"energy": -0.2996,
				"method": "rhf"
			},
			{
				"type": "occ",
				"energy": -0.28356,
				"method": "rhf"
			},
			{
				"type": "occ",
				"energy": -0.27026,
				"method": "rhf"
			},
			{
				"type": "occ",
				"energy": -0.25739,
				"method": "rhf"
			},
			{
				"type": "unocc",
				"energy": -0.05943,
				"method": "rhf"
			},
			{
				"type": "unocc",
				"energy": -0.02139,
				"method": "rhf"
			},
			{
				"type": "unocc",
				"energy": -0.00574,
				"method": "rhf"
			},
			{
				"type": "unocc",
				"energy": 0.04107,
				"method": "rhf"
			},
			{
				"type": "unocc",
				"energy": 0.10498,
				"method": "rhf"
			}
		],
		"cosmo_sigma_profile": { 
			"-0.025": 0.0,
			"-0.024": 0.0,
			"-0.023": 0.0,
			"-0.022": 0.0,
			"-0.021": 0.0,
			"-0.02": 0.0,
			"-0.019": 0.0,
			"-0.018": 0.0,
			"-0.017": 0.0,
			"-0.016": 0.0,
			"-0.015": 0.0,
			"-0.014": 0.0,
			"-0.013": 0.0,
			"-0.012": 0.0,
			"-0.011": 0.0,
			"-0.01": 0.0,
			"-0.009": 0.732941361445,
			"-0.008": 2.42850754013,
			"-0.007": 6.00192633281,
			"-0.006": 10.0429963393,
			"-0.005": 12.4356099789,
			"-0.004": 14.6057608425,
			"-0.003": 17.8187470265,
			"-0.002": 15.4458245665,
			"-0.001": 17.7233331536,
			"0.0": 23.4108533118,
			"0.001": 20.5476670714,
			"0.002": 13.4386368984,
			"0.003": 17.9445702876,
			"0.004": 14.3224993242,
			"0.005": 4.03835531693,
			"0.006": 3.11463585417,
			"0.007": 3.28109944792,
			"0.008": 3.53718781987,
			"0.009": 1.23793932831,
			"0.01": 2.05927168904,
			"0.011": 3.57789752458,
			"0.012": 2.69963282999,
			"0.013": 0.0,
			"0.014": 0.0,
			"0.015": 0.0,
			"0.016": 0.0,
			"0.017": 0.0,
			"0.018": 0.0,
			"0.019": 0.0,
			"0.02": 0.0,
			"0.021": 0.0,
			"0.022": 0.0,
			"0.023": 0.0,
			"0.024": 0.0,
			"0.025": 0.0
		}
	}
}
