{
	 "smiles": "CC(C)(C)OC(=O)NC1(CCCC1)C#N", 
	 "Tm": 380.15, 
	 "num_atms": 33, 
	 "gaussian": { 
		 "optdone": 1, 
		 "sigma_profile": "yes", 
		 "theory": "DFT", 
		 "functional": "B3LYP", 
		 "basiset": "6-31G**", 
		 "properties": { 
			 "R2extent": 4018.9784, 
			 "electric_dipole_moment_norm": 3.31038846059, 
			 "electric_quadrupole_moment_norm": 20.816441161, 
			 "total_energy": -689.990908502, 
			 "HOMO_LUMO_gap": 0.28565, 
			 "cosmo_polarized_energy": -13.24, 
			 "cosmo_cavitation_energy": 34.76, 
			 "cosmo_dispersion_energy": -23.02, 
			 "cosmo_repulsion_energy": 1.81, 
			 "cosmo_total_nonelectrostatic_energy": 13.55, 
			 "SMD_solvation_energy": 7.24 
		},
		"coords": [
			{
				"x": -0.1455326014,
				"y": 1.9415916668,
				"z": -0.9734712864,
				"element": "C" 
			},
			{
				"x": 1.0891475982,
				"y": 1.4248498631,
				"z": -0.2317317201,
				"element": "C" 
			},
			{
				"x": 2.2571157456,
				"y": 1.1993126261,
				"z": -1.1960198124,
				"element": "C" 
			},
			{
				"x": 1.4556629549,
				"y": 2.3548756464,
				"z": 0.9286626002,
				"element": "C" 
			},
			{
				"x": 0.6217223166,
				"y": 0.1273937335,
				"z": 0.2999183589,
				"element": "O" 
			},
			{
				"x": 1.4195297413,
				"y": -0.6332511289,
				"z": 1.0727355438,
				"element": "C" 
			},
			{
				"x": 2.5906053483,
				"y": -0.432294656,
				"z": 1.3410267116,
				"element": "O" 
			},
			{
				"x": 0.740015168,
				"y": -1.7452722496,
				"z": 1.5359005705,
				"element": "N" 
			},
			{
				"x": -0.7057989691,
				"y": -1.9467161009,
				"z": 1.5268620506,
				"element": "C" 
			},
			{
				"x": -1.0629698238,
				"y": -3.2744415489,
				"z": 2.2467491787,
				"element": "C" 
			},
			{
				"x": -2.4907124266,
				"y": -3.6128397354,
				"z": 1.7727428109,
				"element": "C" 
			},
			{
				"x": -2.6514314794,
				"y": -2.9172262319,
				"z": 0.3867051919,
				"element": "C" 
			},
			{
				"x": -1.3187932338,
				"y": -2.1837522165,
				"z": 0.120426374,
				"element": "C" 
			},
			{
				"x": -1.4065922575,
				"y": -0.8234268745,
				"z": 2.2026998794,
				"element": "C" 
			},
			{
				"x": -1.969387077,
				"y": 0.0391846689,
				"z": 2.738973305,
				"element": "N" 
			},
			{
				"x": 0.0652587073,
				"y": 2.9217331084,
				"z": -1.4113049979,
				"element": "H" 
			},
			{
				"x": -0.9922135549,
				"y": 2.0409591273,
				"z": -0.2885546086,
				"element": "H" 
			},
			{
				"x": -0.4276616297,
				"y": 1.2583877174,
				"z": -1.780350984,
				"element": "H" 
			},
			{
				"x": 1.9709207941,
				"y": 0.4941041194,
				"z": -1.9828380141,
				"element": "H" 
			},
			{
				"x": 2.5255977893,
				"y": 2.147947636,
				"z": -1.6722012598,
				"element": "H" 
			},
			{
				"x": 3.1284309196,
				"y": 0.8088269893,
				"z": -0.6699539546,
				"element": "H" 
			},
			{
				"x": 2.3268583829,
				"y": 1.9840408989,
				"z": 1.4694609906,
				"element": "H" 
			},
			{
				"x": 0.6147486767,
				"y": 2.4419971538,
				"z": 1.6233879692,
				"element": "H" 
			},
			{
				"x": 1.6821863255,
				"y": 3.3523683732,
				"z": 0.5385410737,
				"element": "H" 
			},
			{
				"x": 1.2615408624,
				"y": -2.2295776139,
				"z": 2.2533160909,
				"element": "H" 
			},
			{
				"x": -0.3465804737,
				"y": -4.0244292953,
				"z": 1.8916905539,
				"element": "H" 
			},
			{
				"x": -0.9679747751,
				"y": -3.2009569443,
				"z": 3.3339304274,
				"element": "H" 
			},
			{
				"x": -3.2273744487,
				"y": -3.2251188157,
				"z": 2.4819659404,
				"element": "H" 
			},
			{
				"x": -2.6391661831,
				"y": -4.6946414846,
				"z": 1.7187315942,
				"element": "H" 
			},
			{
				"x": -2.8717028474,
				"y": -3.6304876699,
				"z": -0.4122736256,
				"element": "H" 
			},
			{
				"x": -3.4822085447,
				"y": -2.2063600053,
				"z": 0.4144926964,
				"element": "H" 
			},
			{
				"x": -0.6120224893,
				"y": -2.8258529497,
				"z": -0.4158664466,
				"element": "H" 
			},
			{
				"x": -1.4290185156,
				"y": -1.2596278071,
				"z": -0.4463532022,
				"element": "H" 
			}
		],
		 "valence_orbital": [ 
			{
				"type": "occ",
				"energy": -0.32668,
				"method": "rhf"
			},
			{
				"type": "occ",
				"energy": -0.31705,
				"method": "rhf"
			},
			{
				"type": "occ",
				"energy": -0.29424,
				"method": "rhf"
			},
			{
				"type": "occ",
				"energy": -0.27164,
				"method": "rhf"
			},
			{
				"type": "occ",
				"energy": -0.26507,
				"method": "rhf"
			},
			{
				"type": "unocc",
				"energy": 0.02058,
				"method": "rhf"
			},
			{
				"type": "unocc",
				"energy": 0.03725,
				"method": "rhf"
			},
			{
				"type": "unocc",
				"energy": 0.04712,
				"method": "rhf"
			},
			{
				"type": "unocc",
				"energy": 0.06537,
				"method": "rhf"
			},
			{
				"type": "unocc",
				"energy": 0.07981,
				"method": "rhf"
			}
		],
		"cosmo_sigma_profile": { 
			"-0.025": 0.0,
			"-0.024": 0.0,
			"-0.023": 0.0,
			"-0.022": 0.0,
			"-0.021": 0.0,
			"-0.02": 0.0,
			"-0.019": 0.0,
			"-0.018": 0.0,
			"-0.017": 0.0,
			"-0.016": 0.0,
			"-0.015": 0.0203858827486,
			"-0.014": 0.935271356105,
			"-0.013": 1.21663644544,
			"-0.012": 0.50324651526,
			"-0.011": 1.25818124267,
			"-0.01": 1.26821044335,
			"-0.009": 1.63010371845,
			"-0.008": 1.09646945899,
			"-0.007": 1.64855304247,
			"-0.006": 2.92574654189,
			"-0.005": 8.72767482505,
			"-0.004": 22.6202412426,
			"-0.003": 35.650740367,
			"-0.002": 35.7403584685,
			"-0.001": 34.8276634304,
			"0.0": 37.3996193726,
			"0.001": 20.766059042,
			"0.002": 7.5710906284,
			"0.003": 6.69783190794,
			"0.004": 6.88552331443,
			"0.005": 6.07441761188,
			"0.006": 3.40433157111,
			"0.007": 4.72623816753,
			"0.008": 3.6472426916,
			"0.009": 4.57583565879,
			"0.01": 3.89443658093,
			"0.011": 4.45342214179,
			"0.012": 4.69402656535,
			"0.013": 5.33716298305,
			"0.014": 0.63741916074,
			"0.015": 0.0,
			"0.016": 0.0,
			"0.017": 0.0,
			"0.018": 0.0,
			"0.019": 0.0,
			"0.02": 0.0,
			"0.021": 0.0,
			"0.022": 0.0,
			"0.023": 0.0,
			"0.024": 0.0,
			"0.025": 0.0
		}
	}
}
