{
	 "smiles": "[O-][N+](=O)C1=CC=C(C=C1)C#N", 
	 "Tm": 420.15, 
	 "num_atms": 15, 
	 "gaussian": { 
		 "optdone": 1, 
		 "sigma_profile": "yes", 
		 "theory": "DFT", 
		 "functional": "B3LYP", 
		 "basiset": "6-31G**", 
		 "properties": { 
			 "R2extent": 3046.3991, 
			 "electric_dipole_moment_norm": 0.104486649865, 
			 "electric_quadrupole_moment_norm": 26.6870411485, 
			 "total_energy": -528.984050615, 
			 "HOMO_LUMO_gap": 0.18105, 
			 "cosmo_polarized_energy": -11.59, 
			 "cosmo_cavitation_energy": 21.78, 
			 "cosmo_dispersion_energy": -15.46, 
			 "cosmo_repulsion_energy": 1.24, 
			 "cosmo_total_nonelectrostatic_energy": 7.56, 
			 "SMD_solvation_energy": 7.55 
		},
		"coords": [
			{
				"x": 0.1528309862,
				"y": -0.4018721416,
				"z": -4.6726485813,
				"element": "O" 
			},
			{
				"x": 0.8401110428,
				"y": 0.2981026094,
				"z": -3.9321681944,
				"element": "N" 
			},
			{
				"x": 1.4023986575,
				"y": 1.3395722207,
				"z": -4.2635329835,
				"element": "O" 
			},
			{
				"x": 1.0034489416,
				"y": -0.1474552822,
				"z": -2.5345313524,
				"element": "C" 
			},
			{
				"x": 0.3783549577,
				"y": -1.3248402785,
				"z": -2.1288314455,
				"element": "C" 
			},
			{
				"x": 0.5330800799,
				"y": -1.7433624158,
				"z": -0.8121995697,
				"element": "C" 
			},
			{
				"x": 1.308917206,
				"y": -0.9806165184,
				"z": 0.0787382364,
				"element": "C" 
			},
			{
				"x": 1.929943614,
				"y": 0.2043267056,
				"z": -0.3545175344,
				"element": "C" 
			},
			{
				"x": 1.7769246147,
				"y": 0.6251687321,
				"z": -1.6706129782,
				"element": "C" 
			},
			{
				"x": 1.4677322314,
				"y": -1.4137442073,
				"z": 1.4371566123,
				"element": "C" 
			},
			{
				"x": 1.5964567708,
				"y": -1.7648357093,
				"z": 2.5382028489,
				"element": "N" 
			},
			{
				"x": -0.2118669552,
				"y": -1.888081925,
				"z": -2.840450088,
				"element": "H" 
			},
			{
				"x": 0.0587577133,
				"y": -2.6553336045,
				"z": -0.4673778997,
				"element": "H" 
			},
			{
				"x": 2.5258683639,
				"y": 0.7846289231,
				"z": 0.340966115,
				"element": "H" 
			},
			{
				"x": 2.2411417753,
				"y": 1.5320428918,
				"z": -2.0367931856,
				"element": "H" 
			}
		],
		 "valence_orbital": [ 
			{
				"type": "occ",
				"energy": -0.32802,
				"method": "rhf"
			},
			{
				"type": "occ",
				"energy": -0.32523,
				"method": "rhf"
			},
			{
				"type": "occ",
				"energy": -0.30952,
				"method": "rhf"
			},
			{
				"type": "occ",
				"energy": -0.30494,
				"method": "rhf"
			},
			{
				"type": "occ",
				"energy": -0.29733,
				"method": "rhf"
			},
			{
				"type": "unocc",
				"energy": -0.11628,
				"method": "rhf"
			},
			{
				"type": "unocc",
				"energy": -0.05319,
				"method": "rhf"
			},
			{
				"type": "unocc",
				"energy": -0.0456,
				"method": "rhf"
			},
			{
				"type": "unocc",
				"energy": 0.01542,
				"method": "rhf"
			},
			{
				"type": "unocc",
				"energy": 0.05759,
				"method": "rhf"
			}
		],
		"cosmo_sigma_profile": { 
			"-0.025": 0.0,
			"-0.024": 0.0,
			"-0.023": 0.0,
			"-0.022": 0.0,
			"-0.021": 0.0,
			"-0.02": 0.0,
			"-0.019": 0.0,
			"-0.018": 0.0,
			"-0.017": 0.0,
			"-0.016": 0.0,
			"-0.015": 0.0,
			"-0.014": 0.0,
			"-0.013": 0.0,
			"-0.012": 0.0,
			"-0.011": 0.0,
			"-0.01": 0.651949680876,
			"-0.009": 6.07987821847,
			"-0.008": 9.90038805599,
			"-0.007": 8.60393848763,
			"-0.006": 8.10630480402,
			"-0.005": 8.52894988945,
			"-0.004": 10.0214381969,
			"-0.003": 13.9472344841,
			"-0.002": 16.833116514,
			"-0.001": 18.1790093895,
			"0.0": 9.53504272824,
			"0.001": 3.91271294868,
			"0.002": 4.19673427419,
			"0.003": 4.21054952067,
			"0.004": 6.17235284553,
			"0.005": 4.55733078413,
			"0.006": 8.5390855199,
			"0.007": 12.0901835806,
			"0.008": 8.57187425,
			"0.009": 6.35601216605,
			"0.01": 3.70127342378,
			"0.011": 2.38241604802,
			"0.012": 1.97257940395,
			"0.013": 0.19066912448,
			"0.014": 0.0,
			"0.015": 0.0,
			"0.016": 0.0,
			"0.017": 0.0,
			"0.018": 0.0,
			"0.019": 0.0,
			"0.02": 0.0,
			"0.021": 0.0,
			"0.022": 0.0,
			"0.023": 0.0,
			"0.024": 0.0,
			"0.025": 0.0
		}
	}
}
