{
	 "smiles": "CCCCCCCCCCCCCCCCC1=CSC=C1", 
	 "Tm": 301.15, 
	 "num_atms": 57, 
	 "gaussian": { 
		 "optdone": 1, 
		 "sigma_profile": "yes", 
		 "theory": "DFT", 
		 "functional": "B3LYP", 
		 "basiset": "6-31G**", 
		 "properties": { 
			 "R2extent": 9454.068, 
			 "electric_dipole_moment_norm": 0.888522672755, 
			 "electric_quadrupole_moment_norm": 5.1502796128, 
			 "total_energy": -1182.04854122, 
			 "HOMO_LUMO_gap": 0.22167, 
			 "cosmo_polarized_energy": -3.97, 
			 "cosmo_cavitation_energy": 57.02, 
			 "cosmo_dispersion_energy": -34.25, 
			 "cosmo_repulsion_energy": 2.65, 
			 "cosmo_total_nonelectrostatic_energy": 25.41, 
			 "SMD_solvation_energy": 7.47 
		},
		"coords": [
			{
				"x": -4.3655605711,
				"y": -0.8312147492,
				"z": 1.8507619825,
				"element": "C" 
			},
			{
				"x": -4.4947895753,
				"y": 0.1404822582,
				"z": 3.0300781,
				"element": "C" 
			},
			{
				"x": -3.6884605672,
				"y": -0.2647092506,
				"z": 4.2770849203,
				"element": "C" 
			},
			{
				"x": -2.161273962,
				"y": -0.3319309237,
				"z": 4.0972723106,
				"element": "C" 
			},
			{
				"x": -1.506589279,
				"y": 1.0142809688,
				"z": 3.7516989699,
				"element": "C" 
			},
			{
				"x": 0.0317481763,
				"y": 0.9908558827,
				"z": 3.7253931204,
				"element": "C" 
			},
			{
				"x": 0.6347128831,
				"y": 0.1203412767,
				"z": 2.6126222479,
				"element": "C" 
			},
			{
				"x": 2.1734720256,
				"y": 0.1122860498,
				"z": 2.5699168951,
				"element": "C" 
			},
			{
				"x": 2.8480501528,
				"y": 1.4611885545,
				"z": 2.2533790192,
				"element": "C" 
			},
			{
				"x": 2.4881981756,
				"y": 2.0872712455,
				"z": 0.893915533,
				"element": "C" 
			},
			{
				"x": 2.9143092443,
				"y": 1.2497036215,
				"z": -0.3210827858,
				"element": "C" 
			},
			{
				"x": 2.6976432542,
				"y": 1.9427980687,
				"z": -1.6782520432,
				"element": "C" 
			},
			{
				"x": 1.2351974191,
				"y": 2.2677725684,
				"z": -2.0405882308,
				"element": "C" 
			},
			{
				"x": 0.274483061,
				"y": 1.0666610868,
				"z": -2.0881875577,
				"element": "C" 
			},
			{
				"x": 0.6243363859,
				"y": 0.0134552894,
				"z": -3.1471023931,
				"element": "C" 
			},
			{
				"x": -0.3664662845,
				"y": -1.169053091,
				"z": -3.1978651078,
				"element": "C" 
			},
			{
				"x": -0.3803396579,
				"y": -2.0173528589,
				"z": -1.9480205278,
				"element": "C" 
			},
			{
				"x": -1.4596144707,
				"y": -2.1658117217,
				"z": -1.1162404052,
				"element": "C" 
			},
			{
				"x": -1.1246909708,
				"y": -3.2176938067,
				"z": 0.2241504938,
				"element": "S" 
			},
			{
				"x": 0.499978388,
				"y": -3.4681512605,
				"z": -0.3298022711,
				"element": "C" 
			},
			{
				"x": 0.747717132,
				"y": -2.7767488352,
				"z": -1.4816851409,
				"element": "C" 
			},
			{
				"x": -5.0103925995,
				"y": -0.527954838,
				"z": 1.0188145173,
				"element": "H" 
			},
			{
				"x": -4.6561683219,
				"y": -1.8473250629,
				"z": 2.1428083496,
				"element": "H" 
			},
			{
				"x": -3.338952663,
				"y": -0.8782182346,
				"z": 1.4721160939,
				"element": "H" 
			},
			{
				"x": -4.200681909,
				"y": 1.147188186,
				"z": 2.7069944824,
				"element": "H" 
			},
			{
				"x": -5.5522786688,
				"y": 0.2162455138,
				"z": 3.3144499774,
				"element": "H" 
			},
			{
				"x": -4.0450413943,
				"y": -1.2458903872,
				"z": 4.6200996304,
				"element": "H" 
			},
			{
				"x": -3.9176810313,
				"y": 0.4412596127,
				"z": 5.0874409461,
				"element": "H" 
			},
			{
				"x": -1.913861867,
				"y": -1.077059549,
				"z": 3.331716846,
				"element": "H" 
			},
			{
				"x": -1.7205669422,
				"y": -0.70631841,
				"z": 5.0318970986,
				"element": "H" 
			},
			{
				"x": -1.8353515243,
				"y": 1.7624728721,
				"z": 4.4866975303,
				"element": "H" 
			},
			{
				"x": -1.8711102294,
				"y": 1.368231869,
				"z": 2.7776849981,
				"element": "H" 
			},
			{
				"x": 0.406314716,
				"y": 0.6422502708,
				"z": 4.6992457001,
				"element": "H" 
			},
			{
				"x": 0.3898437201,
				"y": 2.0224429779,
				"z": 3.6163067359,
				"element": "H" 
			},
			{
				"x": 0.2942894009,
				"y": -0.9150030351,
				"z": 2.7329733882,
				"element": "H" 
			},
			{
				"x": 0.2357623603,
				"y": 0.4494832247,
				"z": 1.6431856545,
				"element": "H" 
			},
			{
				"x": 2.5510768537,
				"y": -0.241179749,
				"z": 3.5395096361,
				"element": "H" 
			},
			{
				"x": 2.4966956055,
				"y": -0.6356901463,
				"z": 1.8351721608,
				"element": "H" 
			},
			{
				"x": 3.9368281898,
				"y": 1.3192620325,
				"z": 2.297910178,
				"element": "H" 
			},
			{
				"x": 2.6108940298,
				"y": 2.1823964318,
				"z": 3.0457220641,
				"element": "H" 
			},
			{
				"x": 1.4092132041,
				"y": 2.2823182124,
				"z": 0.853301593,
				"element": "H" 
			},
			{
				"x": 2.9709462946,
				"y": 3.0724625713,
				"z": 0.8281451366,
				"element": "H" 
			},
			{
				"x": 2.3907248056,
				"y": 0.2856464694,
				"z": -0.3130883499,
				"element": "H" 
			},
			{
				"x": 3.9823340668,
				"y": 1.0092409629,
				"z": -0.2236140357,
				"element": "H" 
			},
			{
				"x": 3.27028898,
				"y": 2.8804141024,
				"z": -1.6923549026,
				"element": "H" 
			},
			{
				"x": 3.1364156133,
				"y": 1.3167971904,
				"z": -2.4658119985,
				"element": "H" 
			},
			{
				"x": 1.2265951533,
				"y": 2.7695887978,
				"z": -3.0181333149,
				"element": "H" 
			},
			{
				"x": 0.8395391213,
				"y": 3.0016128467,
				"z": -1.3272323069,
				"element": "H" 
			},
			{
				"x": 0.2255128664,
				"y": 0.5860317771,
				"z": -1.1035363426,
				"element": "H" 
			},
			{
				"x": -0.7396304377,
				"y": 1.4405061231,
				"z": -2.2870108813,
				"element": "H" 
			},
			{
				"x": 1.633969989,
				"y": -0.3773910058,
				"z": -2.9696229885,
				"element": "H" 
			},
			{
				"x": 0.6515761039,
				"y": 0.4883146259,
				"z": -4.1373555103,
				"element": "H" 
			},
			{
				"x": -1.3774786501,
				"y": -0.7881191603,
				"z": -3.3863348997,
				"element": "H" 
			},
			{
				"x": -0.1117573618,
				"y": -1.8031483288,
				"z": -4.05766783,
				"element": "H" 
			},
			{
				"x": -2.4394292305,
				"y": -1.7188546623,
				"z": -1.2166352549,
				"element": "H" 
			},
			{
				"x": 1.1684814972,
				"y": -4.1146867089,
				"z": 0.221646324,
				"element": "H" 
			},
			{
				"x": 1.7022192999,
				"y": -2.8080577661,
				"z": -1.996587555,
				"element": "H" 
			}
		],
		 "valence_orbital": [ 
			{
				"type": "occ",
				"energy": -0.29885,
				"method": "rhf"
			},
			{
				"type": "occ",
				"energy": -0.29543,
				"method": "rhf"
			},
			{
				"type": "occ",
				"energy": -0.28957,
				"method": "rhf"
			},
			{
				"type": "occ",
				"energy": -0.24154,
				"method": "rhf"
			},
			{
				"type": "occ",
				"energy": -0.22815,
				"method": "rhf"
			},
			{
				"type": "unocc",
				"energy": -0.00648,
				"method": "rhf"
			},
			{
				"type": "unocc",
				"energy": 0.03413,
				"method": "rhf"
			},
			{
				"type": "unocc",
				"energy": 0.06187,
				"method": "rhf"
			},
			{
				"type": "unocc",
				"energy": 0.0699,
				"method": "rhf"
			},
			{
				"type": "unocc",
				"energy": 0.08608,
				"method": "rhf"
			}
		],
		"cosmo_sigma_profile": { 
			"-0.025": 0.0,
			"-0.024": 0.0,
			"-0.023": 0.0,
			"-0.022": 0.0,
			"-0.021": 0.0,
			"-0.02": 0.0,
			"-0.019": 0.0,
			"-0.018": 0.0,
			"-0.017": 0.0,
			"-0.016": 0.0,
			"-0.015": 0.0,
			"-0.014": 0.0,
			"-0.013": 0.0,
			"-0.012": 0.0,
			"-0.011": 0.0,
			"-0.01": 0.0,
			"-0.009": 0.0,
			"-0.008": 0.953331734392,
			"-0.007": 3.01980095691,
			"-0.006": 4.36070305884,
			"-0.005": 6.02201360457,
			"-0.004": 7.56517605719,
			"-0.003": 13.0631994175,
			"-0.002": 43.6617893878,
			"-0.001": 89.1186123471,
			"0.0": 103.682828117,
			"0.001": 90.6221378174,
			"0.002": 40.3366157138,
			"0.003": 14.4585541879,
			"0.004": 11.8448443914,
			"0.005": 9.14539359912,
			"0.006": 3.45596648493,
			"0.007": 0.145027652602,
			"0.008": 0.0,
			"0.009": 0.0,
			"0.01": 0.0,
			"0.011": 0.0,
			"0.012": 0.0,
			"0.013": 0.0,
			"0.014": 0.0,
			"0.015": 0.0,
			"0.016": 0.0,
			"0.017": 0.0,
			"0.018": 0.0,
			"0.019": 0.0,
			"0.02": 0.0,
			"0.021": 0.0,
			"0.022": 0.0,
			"0.023": 0.0,
			"0.024": 0.0,
			"0.025": 0.0
		}
	}
}
