{
	 "smiles": "CC1=C(C=NN1C1CCS(=O)(=O)C1)C(O)=O", 
	 "Tm": 523.15, 
	 "num_atms": 28, 
	 "gaussian": { 
		 "optdone": 1, 
		 "sigma_profile": "yes", 
		 "theory": "DFT", 
		 "functional": "B3LYP", 
		 "basiset": "6-31G**", 
		 "properties": { 
			 "R2extent": 5846.2675, 
			 "electric_dipole_moment_norm": 5.65372324137, 
			 "electric_quadrupole_moment_norm": 36.6670326149, 
			 "total_energy": -1158.70349277, 
			 "HOMO_LUMO_gap": 0.23079, 
			 "cosmo_polarized_energy": -30.04, 
			 "cosmo_cavitation_energy": 32.54, 
			 "cosmo_dispersion_energy": -23.79, 
			 "cosmo_repulsion_energy": 1.79, 
			 "cosmo_total_nonelectrostatic_energy": 10.54, 
			 "SMD_solvation_energy": 5.23 
		},
		"coords": [
			{
				"x": 0.1638322408,
				"y": -2.2483994792,
				"z": -0.4846846337,
				"element": "C" 
			},
			{
				"x": 1.3478705977,
				"y": -1.4151881961,
				"z": -0.0937920707,
				"element": "C" 
			},
			{
				"x": 2.6848640401,
				"y": -1.7591778895,
				"z": 0.1323173911,
				"element": "C" 
			},
			{
				"x": 3.3391288717,
				"y": -0.5277516717,
				"z": 0.3828623785,
				"element": "C" 
			},
			{
				"x": 2.4972638369,
				"y": 0.4923595911,
				"z": 0.3473962182,
				"element": "N" 
			},
			{
				"x": 1.2895504448,
				"y": -0.0613291487,
				"z": 0.0515165594,
				"element": "N" 
			},
			{
				"x": 0.1369281758,
				"y": 0.8290813765,
				"z": -0.0793466026,
				"element": "C" 
			},
			{
				"x": -0.0833936816,
				"y": 1.6635409394,
				"z": 1.2282655533,
				"element": "C" 
			},
			{
				"x": 0.5225510347,
				"y": 3.053006021,
				"z": 1.03918022,
				"element": "C" 
			},
			{
				"x": 0.0161263766,
				"y": 3.4804207245,
				"z": -0.6550481927,
				"element": "S" 
			},
			{
				"x": 0.9154632988,
				"y": 4.4553105164,
				"z": -1.282987423,
				"element": "O" 
			},
			{
				"x": -1.4419356889,
				"y": 3.693377897,
				"z": -0.6496296825,
				"element": "O" 
			},
			{
				"x": 0.3292970408,
				"y": 1.7880554769,
				"z": -1.2824199045,
				"element": "C" 
			},
			{
				"x": 3.3806908912,
				"y": -3.0614154497,
				"z": 0.0781674392,
				"element": "C" 
			},
			{
				"x": 2.6224998308,
				"y": -4.1785955124,
				"z": 0.3028842192,
				"element": "O" 
			},
			{
				"x": 4.5617869321,
				"y": -3.1731888677,
				"z": -0.1477543015,
				"element": "O" 
			},
			{
				"x": 0.491502419,
				"y": -3.2442679738,
				"z": -0.788755634,
				"element": "H" 
			},
			{
				"x": -0.5584068047,
				"y": -2.3585663501,
				"z": 0.3335501969,
				"element": "H" 
			},
			{
				"x": -0.3686989174,
				"y": -1.816310747,
				"z": -1.3377050847,
				"element": "H" 
			},
			{
				"x": 4.3886093162,
				"y": -0.3768281423,
				"z": 0.5935064634,
				"element": "H" 
			},
			{
				"x": -0.7307270503,
				"y": 0.1901444734,
				"z": -0.2418026574,
				"element": "H" 
			},
			{
				"x": 0.3654299809,
				"y": 1.1451429669,
				"z": 2.0777674413,
				"element": "H" 
			},
			{
				"x": -1.1575509571,
				"y": 1.7578699074,
				"z": 1.4071398856,
				"element": "H" 
			},
			{
				"x": 1.6142556499,
				"y": 3.0365723726,
				"z": 1.0635532891,
				"element": "H" 
			},
			{
				"x": 0.1270831705,
				"y": 3.8120204898,
				"z": 1.7160878652,
				"element": "H" 
			},
			{
				"x": 1.3587515993,
				"y": 1.7657385349,
				"z": -1.6419495442,
				"element": "H" 
			},
			{
				"x": -0.3652956552,
				"y": 1.6107225256,
				"z": -2.1047452044,
				"element": "H" 
			},
			{
				"x": 1.7797230068,
				"y": -3.9280443854,
				"z": 0.7044258158,
				"element": "H" 
			}
		],
		 "valence_orbital": [ 
			{
				"type": "occ",
				"energy": -0.30222,
				"method": "rhf"
			},
			{
				"type": "occ",
				"energy": -0.29369,
				"method": "rhf"
			},
			{
				"type": "occ",
				"energy": -0.28468,
				"method": "rhf"
			},
			{
				"type": "occ",
				"energy": -0.27839,
				"method": "rhf"
			},
			{
				"type": "occ",
				"energy": -0.26789,
				"method": "rhf"
			},
			{
				"type": "unocc",
				"energy": -0.0371,
				"method": "rhf"
			},
			{
				"type": "unocc",
				"energy": -0.01001,
				"method": "rhf"
			},
			{
				"type": "unocc",
				"energy": 0.03408,
				"method": "rhf"
			},
			{
				"type": "unocc",
				"energy": 0.0475,
				"method": "rhf"
			},
			{
				"type": "unocc",
				"energy": 0.05735,
				"method": "rhf"
			}
		],
		"cosmo_sigma_profile": { 
			"-0.025": 0.0,
			"-0.024": 0.0,
			"-0.023": 0.0,
			"-0.022": 0.0,
			"-0.021": 0.0,
			"-0.02": 0.0,
			"-0.019": 0.0,
			"-0.018": 0.196981388082,
			"-0.017": 0.934839712956,
			"-0.016": 0.935989761665,
			"-0.015": 1.05614051771,
			"-0.014": 0.9357582905,
			"-0.013": 0.492967721648,
			"-0.012": 0.916266586607,
			"-0.011": 1.40279544305,
			"-0.01": 1.25810951371,
			"-0.009": 8.44078320289,
			"-0.008": 13.3240953173,
			"-0.007": 15.1959409784,
			"-0.006": 19.9290537733,
			"-0.005": 21.9887730381,
			"-0.004": 19.5615595271,
			"-0.003": 17.2765744853,
			"-0.002": 11.256186236,
			"-0.001": 9.0356301476,
			"0.0": 9.04885947478,
			"0.001": 7.81905654897,
			"0.002": 8.90864553,
			"0.003": 7.80593234002,
			"0.004": 5.93909298682,
			"0.005": 5.45124709662,
			"0.006": 5.68220263679,
			"0.007": 5.11757237171,
			"0.008": 5.76634778096,
			"0.009": 7.8216178625,
			"0.01": 9.75395841873,
			"0.011": 16.5742633096,
			"0.012": 14.6552859571,
			"0.013": 3.2279147793,
			"0.014": 0.178792389237,
			"0.015": 0.0,
			"0.016": 0.0,
			"0.017": 0.0,
			"0.018": 0.0,
			"0.019": 0.0,
			"0.02": 0.0,
			"0.021": 0.0,
			"0.022": 0.0,
			"0.023": 0.0,
			"0.024": 0.0,
			"0.025": 0.0
		}
	}
}
