{
	 "smiles": "CC(Cl)C(=O)NC1=CC2=C(OC3(CCCCC3)O2)C=C1", 
	 "Tm": 372.15, 
	 "num_atms": 38, 
	 "gaussian": { 
		 "optdone": 1, 
		 "sigma_profile": "yes", 
		 "theory": "DFT", 
		 "functional": "B3LYP", 
		 "basiset": "6-31G**", 
		 "properties": { 
			 "R2extent": 10856.8175, 
			 "electric_dipole_moment_norm": 2.49053141719, 
			 "electric_quadrupole_moment_norm": 10.4603719131, 
			 "total_energy": -1323.08595835, 
			 "HOMO_LUMO_gap": 0.18289, 
			 "cosmo_polarized_energy": -11.36, 
			 "cosmo_cavitation_energy": 41.12, 
			 "cosmo_dispersion_energy": -30.11, 
			 "cosmo_repulsion_energy": 2.32, 
			 "cosmo_total_nonelectrostatic_energy": 13.32, 
			 "SMD_solvation_energy": 6.34 
		},
		"coords": [
			{
				"x": 4.237640752,
				"y": 2.70329766,
				"z": 4.4594792262,
				"element": "C" 
			},
			{
				"x": 3.4024962663,
				"y": 1.4714948032,
				"z": 4.7953507453,
				"element": "C" 
			},
			{
				"x": 1.8195809801,
				"y": 1.9885966956,
				"z": 5.5797548288,
				"element": "Cl" 
			},
			{
				"x": 3.2426744454,
				"y": 0.5598433084,
				"z": 3.5615732501,
				"element": "C" 
			},
			{
				"x": 4.2773655889,
				"y": 0.1054471247,
				"z": 3.0849706595,
				"element": "O" 
			},
			{
				"x": 1.9848538673,
				"y": 0.3467210548,
				"z": 3.0959268398,
				"element": "N" 
			},
			{
				"x": 1.57253944,
				"y": -0.4342163221,
				"z": 1.9881507513,
				"element": "C" 
			},
			{
				"x": 0.179023237,
				"y": -0.4817092378,
				"z": 1.7466270719,
				"element": "C" 
			},
			{
				"x": -0.2497611832,
				"y": -1.2310824549,
				"z": 0.6721470418,
				"element": "C" 
			},
			{
				"x": 0.6396604392,
				"y": -1.9212360367,
				"z": -0.149453943,
				"element": "C" 
			},
			{
				"x": -0.0569609087,
				"y": -2.6012911063,
				"z": -1.1161394861,
				"element": "O" 
			},
			{
				"x": -1.4428831625,
				"y": -2.1974389193,
				"z": -0.9976876292,
				"element": "C" 
			},
			{
				"x": -2.3353794135,
				"y": -3.4426653832,
				"z": -0.92068413,
				"element": "C" 
			},
			{
				"x": -3.7395323616,
				"y": -3.2080572788,
				"z": -1.5212611162,
				"element": "C" 
			},
			{
				"x": -4.2021534698,
				"y": -1.7628092144,
				"z": -1.2912262843,
				"element": "C" 
			},
			{
				"x": -3.2752716853,
				"y": -0.7566834821,
				"z": -2.0155622932,
				"element": "C" 
			},
			{
				"x": -1.8231594856,
				"y": -1.2756184404,
				"z": -2.1515469953,
				"element": "C" 
			},
			{
				"x": -1.533292951,
				"y": -1.445453544,
				"z": 0.2524678336,
				"element": "O" 
			},
			{
				"x": 2.0001497877,
				"y": -1.8829418438,
				"z": 0.0762200506,
				"element": "C" 
			},
			{
				"x": 2.4695639895,
				"y": -1.1244750322,
				"z": 1.1644619451,
				"element": "C" 
			},
			{
				"x": 3.7152204789,
				"y": 3.3463424773,
				"z": 3.7459636934,
				"element": "H" 
			},
			{
				"x": 5.1753183239,
				"y": 2.3667668841,
				"z": 4.0103257179,
				"element": "H" 
			},
			{
				"x": 4.4546618185,
				"y": 3.2802944966,
				"z": 5.3607688323,
				"element": "H" 
			},
			{
				"x": 3.8975626269,
				"y": 0.8695894032,
				"z": 5.5592741729,
				"element": "H" 
			},
			{
				"x": 1.2438871474,
				"y": 0.7901395579,
				"z": 3.622823292,
				"element": "H" 
			},
			{
				"x": -0.5278088403,
				"y": 0.0468748158,
				"z": 2.3782937876,
				"element": "H" 
			},
			{
				"x": -1.817829859,
				"y": -4.2497838554,
				"z": -1.4480810191,
				"element": "H" 
			},
			{
				"x": -2.4019990119,
				"y": -3.7328288665,
				"z": 0.1324518154,
				"element": "H" 
			},
			{
				"x": -4.4483878001,
				"y": -3.91891121,
				"z": -1.0839795184,
				"element": "H" 
			},
			{
				"x": -3.722409803,
				"y": -3.4157008145,
				"z": -2.5991321284,
				"element": "H" 
			},
			{
				"x": -4.192970063,
				"y": -1.5582025592,
				"z": -0.214237385,
				"element": "H" 
			},
			{
				"x": -5.235949472,
				"y": -1.6308616164,
				"z": -1.628003214,
				"element": "H" 
			},
			{
				"x": -3.2774412196,
				"y": 0.194518358,
				"z": -1.4752306019,
				"element": "H" 
			},
			{
				"x": -3.6616222763,
				"y": -0.5467276011,
				"z": -3.0191346166,
				"element": "H" 
			},
			{
				"x": -1.107270227,
				"y": -0.4492196689,
				"z": -2.1991857569,
				"element": "H" 
			},
			{
				"x": -1.702753599,
				"y": -1.8548869945,
				"z": -3.0741560137,
				"element": "H" 
			},
			{
				"x": 2.6905575443,
				"y": -2.4227039564,
				"z": -0.56213779,
				"element": "H" 
			},
			{
				"x": 3.527480059,
				"y": -1.0674212008,
				"z": 1.3744083656,
				"element": "H" 
			}
		],
		 "valence_orbital": [ 
			{
				"type": "occ",
				"energy": -0.30791,
				"method": "rhf"
			},
			{
				"type": "occ",
				"energy": -0.27665,
				"method": "rhf"
			},
			{
				"type": "occ",
				"energy": -0.25888,
				"method": "rhf"
			},
			{
				"type": "occ",
				"energy": -0.23806,
				"method": "rhf"
			},
			{
				"type": "occ",
				"energy": -0.19493,
				"method": "rhf"
			},
			{
				"type": "unocc",
				"energy": -0.01204,
				"method": "rhf"
			},
			{
				"type": "unocc",
				"energy": 0.00327,
				"method": "rhf"
			},
			{
				"type": "unocc",
				"energy": 0.00951,
				"method": "rhf"
			},
			{
				"type": "unocc",
				"energy": 0.04889,
				"method": "rhf"
			},
			{
				"type": "unocc",
				"energy": 0.07057,
				"method": "rhf"
			}
		],
		"cosmo_sigma_profile": { 
			"-0.025": 0.0,
			"-0.024": 0.0,
			"-0.023": 0.0,
			"-0.022": 0.0,
			"-0.021": 0.0,
			"-0.02": 0.0,
			"-0.019": 0.0,
			"-0.018": 0.0,
			"-0.017": 0.0,
			"-0.016": 0.0,
			"-0.015": 0.0,
			"-0.014": 0.00603087841585,
			"-0.013": 0.741150385605,
			"-0.012": 0.782154887604,
			"-0.011": 1.30515518247,
			"-0.01": 1.1137246414,
			"-0.009": 1.711007911,
			"-0.008": 4.54313393155,
			"-0.007": 4.70400213646,
			"-0.006": 6.7044152111,
			"-0.005": 13.0450761768,
			"-0.004": 22.6844906607,
			"-0.003": 32.7516622247,
			"-0.002": 35.3118888281,
			"-0.001": 38.8681226162,
			"0.0": 33.7111574125,
			"0.001": 22.574404491,
			"0.002": 19.3161988368,
			"0.003": 21.3723821736,
			"0.004": 18.8066494568,
			"0.005": 16.5656317009,
			"0.006": 8.48429360241,
			"0.007": 4.01165678109,
			"0.008": 3.92747093267,
			"0.009": 3.11082501552,
			"0.01": 3.0740652877,
			"0.011": 1.93689322816,
			"0.012": 2.93911806513,
			"0.013": 1.61046302598,
			"0.014": 0.07330017162,
			"0.015": 0.0,
			"0.016": 0.0,
			"0.017": 0.0,
			"0.018": 0.0,
			"0.019": 0.0,
			"0.02": 0.0,
			"0.021": 0.0,
			"0.022": 0.0,
			"0.023": 0.0,
			"0.024": 0.0,
			"0.025": 0.0
		}
	}
}
