{
	 "smiles": "CC1=C(N)C=C(NC(=O)NC2=CC=CC=C2)C=C1", 
	 "Tm": 475.15, 
	 "num_atms": 33, 
	 "gaussian": { 
		 "optdone": 1, 
		 "sigma_profile": "yes", 
		 "theory": "DFT", 
		 "functional": "B3LYP", 
		 "basiset": "6-31G**", 
		 "properties": { 
			 "R2extent": 6943.4305, 
			 "electric_dipole_moment_norm": 2.44157516984, 
			 "electric_quadrupole_moment_norm": 20.8075379281, 
			 "total_energy": -782.048583386, 
			 "HOMO_LUMO_gap": 0.17232, 
			 "cosmo_polarized_energy": -17.16, 
			 "cosmo_cavitation_energy": 36.72, 
			 "cosmo_dispersion_energy": -26.61, 
			 "cosmo_repulsion_energy": 2.05, 
			 "cosmo_total_nonelectrostatic_energy": 12.16, 
			 "SMD_solvation_energy": 6.69 
		},
		"coords": [
			{
				"x": 1.4457660146,
				"y": -4.2585482032,
				"z": 2.8245159452,
				"element": "C" 
			},
			{
				"x": 0.7635014062,
				"y": -3.145262228,
				"z": 2.0701542912,
				"element": "C" 
			},
			{
				"x": -0.6354626023,
				"y": -2.9656331213,
				"z": 2.1614161796,
				"element": "C" 
			},
			{
				"x": -1.3929912008,
				"y": -3.7971412005,
				"z": 2.9916800254,
				"element": "N" 
			},
			{
				"x": -1.2701554673,
				"y": -1.9206807088,
				"z": 1.4730954503,
				"element": "C" 
			},
			{
				"x": -0.5208561247,
				"y": -1.0403778193,
				"z": 0.6880275024,
				"element": "C" 
			},
			{
				"x": -1.092291854,
				"y": 0.0261751122,
				"z": -0.0408258073,
				"element": "N" 
			},
			{
				"x": -2.411565784,
				"y": 0.4121830125,
				"z": -0.0906227543,
				"element": "C" 
			},
			{
				"x": -3.3256601313,
				"y": -0.0999730874,
				"z": 0.5449974401,
				"element": "O" 
			},
			{
				"x": -2.6829269785,
				"y": 1.4963542343,
				"z": -0.9316077804,
				"element": "N" 
			},
			{
				"x": -1.8558338141,
				"y": 2.2186356123,
				"z": -1.8163322734,
				"element": "C" 
			},
			{
				"x": -1.975230663,
				"y": 3.6169658034,
				"z": -1.8707587134,
				"element": "C" 
			},
			{
				"x": -1.2050706514,
				"y": 4.3565311679,
				"z": -2.7650537227,
				"element": "C" 
			},
			{
				"x": -0.2875254538,
				"y": 3.7203489835,
				"z": -3.6047761756,
				"element": "C" 
			},
			{
				"x": -0.1680756413,
				"y": 2.3312025225,
				"z": -3.5566819274,
				"element": "C" 
			},
			{
				"x": -0.9550798719,
				"y": 1.5779223878,
				"z": -2.6842777876,
				"element": "C" 
			},
			{
				"x": 0.8683106571,
				"y": -1.2090330219,
				"z": 0.5863856631,
				"element": "C" 
			},
			{
				"x": 1.482481697,
				"y": -2.2511308603,
				"z": 1.275129205,
				"element": "C" 
			},
			{
				"x": 2.5298351176,
				"y": -4.2165485923,
				"z": 2.6895640457,
				"element": "H" 
			},
			{
				"x": 1.2384375164,
				"y": -4.2034153436,
				"z": 3.9008012732,
				"element": "H" 
			},
			{
				"x": 1.1184374545,
				"y": -5.2531792621,
				"z": 2.486940852,
				"element": "H" 
			},
			{
				"x": -1.0468326499,
				"y": -4.7406070592,
				"z": 3.0964775697,
				"element": "H" 
			},
			{
				"x": -2.3871858222,
				"y": -3.7786970644,
				"z": 2.8097981987,
				"element": "H" 
			},
			{
				"x": -2.340024267,
				"y": -1.7808401668,
				"z": 1.5512345789,
				"element": "H" 
			},
			{
				"x": -0.4297390968,
				"y": 0.6130564279,
				"z": -0.5270473135,
				"element": "H" 
			},
			{
				"x": -3.6057032947,
				"y": 1.865451679,
				"z": -0.7501286737,
				"element": "H" 
			},
			{
				"x": -2.670022558,
				"y": 4.1166517895,
				"z": -1.2011727655,
				"element": "H" 
			},
			{
				"x": -1.3132184762,
				"y": 5.4369381526,
				"z": -2.7950378572,
				"element": "H" 
			},
			{
				"x": 0.3199817901,
				"y": 4.2999967378,
				"z": -4.2926922421,
				"element": "H" 
			},
			{
				"x": 0.5250884273,
				"y": 1.8208527913,
				"z": -4.2192693787,
				"element": "H" 
			},
			{
				"x": -0.8984817398,
				"y": 0.4944288595,
				"z": -2.6991538264,
				"element": "H" 
			},
			{
				"x": 1.4605461359,
				"y": -0.5312665134,
				"z": -0.02315614,
				"element": "H" 
			},
			{
				"x": 2.5599479264,
				"y": -2.3738610214,
				"z": 1.1940769187,
				"element": "H" 
			}
		],
		 "valence_orbital": [ 
			{
				"type": "occ",
				"energy": -0.26341,
				"method": "rhf"
			},
			{
				"type": "occ",
				"energy": -0.25869,
				"method": "rhf"
			},
			{
				"type": "occ",
				"energy": -0.22951,
				"method": "rhf"
			},
			{
				"type": "occ",
				"energy": -0.2101,
				"method": "rhf"
			},
			{
				"type": "occ",
				"energy": -0.18828,
				"method": "rhf"
			},
			{
				"type": "unocc",
				"energy": -0.01596,
				"method": "rhf"
			},
			{
				"type": "unocc",
				"energy": -0.01514,
				"method": "rhf"
			},
			{
				"type": "unocc",
				"energy": 0.01539,
				"method": "rhf"
			},
			{
				"type": "unocc",
				"energy": 0.02459,
				"method": "rhf"
			},
			{
				"type": "unocc",
				"energy": 0.07662,
				"method": "rhf"
			}
		],
		"cosmo_sigma_profile": { 
			"-0.025": 0.0,
			"-0.024": 0.0,
			"-0.023": 0.0,
			"-0.022": 0.0,
			"-0.021": 0.0,
			"-0.02": 0.0,
			"-0.019": 0.0,
			"-0.018": 0.0,
			"-0.017": 0.0,
			"-0.016": 0.0,
			"-0.015": 0.0643921958371,
			"-0.014": 0.706361679108,
			"-0.013": 0.997859576018,
			"-0.012": 3.0247455848,
			"-0.011": 4.23023101364,
			"-0.01": 4.06373021073,
			"-0.009": 5.43926641736,
			"-0.008": 6.1837705237,
			"-0.007": 6.43096640962,
			"-0.006": 13.3910441408,
			"-0.005": 17.4975366397,
			"-0.004": 22.2476696761,
			"-0.003": 20.6305323023,
			"-0.002": 17.6316327497,
			"-0.001": 16.3403148165,
			"0.0": 20.021000209,
			"0.001": 18.1181903801,
			"0.002": 16.6328367047,
			"0.003": 16.5119110378,
			"0.004": 18.6500783772,
			"0.005": 19.4703941657,
			"0.006": 12.3761922895,
			"0.007": 10.1957581549,
			"0.008": 3.91548081733,
			"0.009": 2.51380135525,
			"0.01": 2.19189484512,
			"0.011": 1.99145298202,
			"0.012": 2.38847961795,
			"0.013": 4.44912567352,
			"0.014": 3.47698359758,
			"0.015": 0.242667941363,
			"0.016": 0.0,
			"0.017": 0.0,
			"0.018": 0.0,
			"0.019": 0.0,
			"0.02": 0.0,
			"0.021": 0.0,
			"0.022": 0.0,
			"0.023": 0.0,
			"0.024": 0.0,
			"0.025": 0.0
		}
	}
}
