{
	 "smiles": "CN1C=C(C(O)=O)C(=O)N(C)C1=O", 
	 "Tm": 463.15, 
	 "num_atms": 21, 
	 "gaussian": { 
		 "optdone": 1, 
		 "sigma_profile": "yes", 
		 "theory": "DFT", 
		 "functional": "B3LYP", 
		 "basiset": "6-31G**", 
		 "properties": { 
			 "R2extent": 3110.169, 
			 "electric_dipole_moment_norm": 4.90589608227, 
			 "electric_quadrupole_moment_norm": 24.5528552368, 
			 "total_energy": -682.020879202, 
			 "HOMO_LUMO_gap": 0.19137, 
			 "cosmo_polarized_energy": -17.19, 
			 "cosmo_cavitation_energy": 25.16, 
			 "cosmo_dispersion_energy": -18.93, 
			 "cosmo_repulsion_energy": 1.47, 
			 "cosmo_total_nonelectrostatic_energy": 7.7, 
			 "SMD_solvation_energy": 7.35 
		},
		"coords": [
			{
				"x": -0.3420239029,
				"y": -0.6108297561,
				"z": -1.7236531275,
				"element": "C" 
			},
			{
				"x": -0.0650357632,
				"y": 0.0877764572,
				"z": -0.4610405887,
				"element": "N" 
			},
			{
				"x": -0.8114211664,
				"y": 1.16146266,
				"z": -0.0918532188,
				"element": "C" 
			},
			{
				"x": -0.6059384464,
				"y": 1.8497829551,
				"z": 1.0621197924,
				"element": "C" 
			},
			{
				"x": -1.4970475915,
				"y": 3.0192133144,
				"z": 1.359572009,
				"element": "C" 
			},
			{
				"x": -1.2538374907,
				"y": 3.661400467,
				"z": 2.5052637755,
				"element": "O" 
			},
			{
				"x": -2.382092902,
				"y": 3.3514181699,
				"z": 0.596948108,
				"element": "O" 
			},
			{
				"x": 0.4593329834,
				"y": 1.4290970182,
				"z": 1.9538385757,
				"element": "C" 
			},
			{
				"x": 0.7237883774,
				"y": 1.9909243848,
				"z": 3.0255154958,
				"element": "O" 
			},
			{
				"x": 1.1994349598,
				"y": 0.3179104169,
				"z": 1.5284880454,
				"element": "N" 
			},
			{
				"x": 2.2980532402,
				"y": -0.176313378,
				"z": 2.3710666143,
				"element": "C" 
			},
			{
				"x": 0.9868526532,
				"y": -0.3867407747,
				"z": 0.3440773881,
				"element": "C" 
			},
			{
				"x": 1.6669320468,
				"y": -1.3477262249,
				"z": 0.029818107,
				"element": "O" 
			},
			{
				"x": 0.3692586668,
				"y": -1.4287038549,
				"z": -1.8128123548,
				"element": "H" 
			},
			{
				"x": -1.3607895157,
				"y": -1.0063787509,
				"z": -1.7156276073,
				"element": "H" 
			},
			{
				"x": -0.2219339023,
				"y": 0.0766188535,
				"z": -2.5647234004,
				"element": "H" 
			},
			{
				"x": -1.6060090553,
				"y": 1.4696945352,
				"z": -0.7640447457,
				"element": "H" 
			},
			{
				"x": -0.4941534088,
				"y": 3.2211292179,
				"z": 2.9619535647,
				"element": "H" 
			},
			{
				"x": 2.3476812838,
				"y": 0.4605022689,
				"z": 3.2504975042,
				"element": "H" 
			},
			{
				"x": 2.1057900711,
				"y": -1.2125549876,
				"z": 2.6552104076,
				"element": "H" 
			},
			{
				"x": 3.2353588625,
				"y": -0.1374829916,
				"z": 1.8129856555,
				"element": "H" 
			}
		],
		 "valence_orbital": [ 
			{
				"type": "occ",
				"energy": -0.30446,
				"method": "rhf"
			},
			{
				"type": "occ",
				"energy": -0.29827,
				"method": "rhf"
			},
			{
				"type": "occ",
				"energy": -0.29492,
				"method": "rhf"
			},
			{
				"type": "occ",
				"energy": -0.27081,
				"method": "rhf"
			},
			{
				"type": "occ",
				"energy": -0.26322,
				"method": "rhf"
			},
			{
				"type": "unocc",
				"energy": -0.07185,
				"method": "rhf"
			},
			{
				"type": "unocc",
				"energy": -0.02687,
				"method": "rhf"
			},
			{
				"type": "unocc",
				"energy": 0.03205,
				"method": "rhf"
			},
			{
				"type": "unocc",
				"energy": 0.07956,
				"method": "rhf"
			},
			{
				"type": "unocc",
				"energy": 0.09204,
				"method": "rhf"
			}
		],
		"cosmo_sigma_profile": { 
			"-0.025": 0.0,
			"-0.024": 0.0,
			"-0.023": 0.0,
			"-0.022": 0.0,
			"-0.021": 0.0,
			"-0.02": 0.0,
			"-0.019": 0.0,
			"-0.018": 0.0,
			"-0.017": 0.0,
			"-0.016": 0.0,
			"-0.015": 0.0,
			"-0.014": 0.0,
			"-0.013": 0.0,
			"-0.012": 0.0,
			"-0.011": 0.588891588796,
			"-0.01": 2.25490136426,
			"-0.009": 2.41911233194,
			"-0.008": 4.93888920529,
			"-0.007": 9.80420512727,
			"-0.006": 15.3671989454,
			"-0.005": 21.6309040272,
			"-0.004": 23.082122824,
			"-0.003": 21.4695538126,
			"-0.002": 12.7627860538,
			"-0.001": 7.03874255994,
			"0.0": 5.76361996052,
			"0.001": 5.46829709939,
			"0.002": 5.40641712173,
			"0.003": 5.19245876224,
			"0.004": 3.77122686529,
			"0.005": 4.69209497335,
			"0.006": 4.77893398689,
			"0.007": 5.10649822067,
			"0.008": 5.25272510882,
			"0.009": 6.18773805933,
			"0.01": 8.3925710241,
			"0.011": 9.3915463453,
			"0.012": 7.11198395429,
			"0.013": 2.44109322853,
			"0.014": 0.792611360977,
			"0.015": 0.0,
			"0.016": 0.0,
			"0.017": 0.0,
			"0.018": 0.0,
			"0.019": 0.0,
			"0.02": 0.0,
			"0.021": 0.0,
			"0.022": 0.0,
			"0.023": 0.0,
			"0.024": 0.0,
			"0.025": 0.0
		}
	}
}
