{
	 "smiles": "OC(=O)C1=C2N=CC=CC2=CC(Cl)=C1", 
	 "Tm": 498.15, 
	 "num_atms": 20, 
	 "gaussian": { 
		 "optdone": 1, 
		 "sigma_profile": "yes", 
		 "theory": "DFT", 
		 "functional": "B3LYP", 
		 "basiset": "6-31G**", 
		 "properties": { 
			 "R2extent": 4327.6482, 
			 "electric_dipole_moment_norm": 2.40511711149, 
			 "electric_quadrupole_moment_norm": 13.0198381987, 
			 "total_energy": -1050.08462276, 
			 "HOMO_LUMO_gap": 0.17007, 
			 "cosmo_polarized_energy": -14.61, 
			 "cosmo_cavitation_energy": 27.04, 
			 "cosmo_dispersion_energy": -20.12, 
			 "cosmo_repulsion_energy": 1.57, 
			 "cosmo_total_nonelectrostatic_energy": 8.5, 
			 "SMD_solvation_energy": 4.38 
		},
		"coords": [
			{
				"x": 1.3038237623,
				"y": 3.2632309212,
				"z": -3.1166561436,
				"element": "O" 
			},
			{
				"x": 0.4203379503,
				"y": 2.607020114,
				"z": -2.3149053807,
				"element": "C" 
			},
			{
				"x": -0.730894402,
				"y": 2.9567832751,
				"z": -2.2005203541,
				"element": "O" 
			},
			{
				"x": 1.0809041165,
				"y": 1.4769732085,
				"z": -1.5879679384,
				"element": "C" 
			},
			{
				"x": 0.3653110611,
				"y": 0.277074698,
				"z": -1.2664210561,
				"element": "C" 
			},
			{
				"x": -0.8953491691,
				"y": 0.09651639,
				"z": -1.7446830703,
				"element": "N" 
			},
			{
				"x": -1.5245629568,
				"y": -1.0181512277,
				"z": -1.4344948483,
				"element": "C" 
			},
			{
				"x": -0.9730439476,
				"y": -2.0502202137,
				"z": -0.6342551414,
				"element": "C" 
			},
			{
				"x": 0.3081392838,
				"y": -1.8996609228,
				"z": -0.1636419098,
				"element": "C" 
			},
			{
				"x": 1.029472294,
				"y": -0.7179446806,
				"z": -0.4772575745,
				"element": "C" 
			},
			{
				"x": 2.3642454118,
				"y": -0.5155751387,
				"z": -0.0436869308,
				"element": "C" 
			},
			{
				"x": 3.0227486767,
				"y": 0.6362960911,
				"z": -0.4008103074,
				"element": "C" 
			},
			{
				"x": 4.680131719,
				"y": 0.8965629506,
				"z": 0.1137276438,
				"element": "Cl" 
			},
			{
				"x": 2.3921113018,
				"y": 1.6326896646,
				"z": -1.1768239978,
				"element": "C" 
			},
			{
				"x": 0.8069092214,
				"y": 4.0081277044,
				"z": -3.4945452464,
				"element": "H" 
			},
			{
				"x": -2.5305416136,
				"y": -1.1301151482,
				"z": -1.8373239907,
				"element": "H" 
			},
			{
				"x": -1.5564448871,
				"y": -2.9389434732,
				"z": -0.4161778562,
				"element": "H" 
			},
			{
				"x": 0.7831464912,
				"y": -2.6691415512,
				"z": 0.4391604416,
				"element": "H" 
			},
			{
				"x": 2.8574891914,
				"y": -1.2719059212,
				"z": 0.5582889284,
				"element": "H" 
			},
			{
				"x": 2.9374664947,
				"y": 2.5308832599,
				"z": -1.4386052673,
				"element": "H" 
			}
		],
		 "valence_orbital": [ 
			{
				"type": "occ",
				"energy": -0.31556,
				"method": "rhf"
			},
			{
				"type": "occ",
				"energy": -0.28301,
				"method": "rhf"
			},
			{
				"type": "occ",
				"energy": -0.26419,
				"method": "rhf"
			},
			{
				"type": "occ",
				"energy": -0.25359,
				"method": "rhf"
			},
			{
				"type": "occ",
				"energy": -0.24703,
				"method": "rhf"
			},
			{
				"type": "unocc",
				"energy": -0.07696,
				"method": "rhf"
			},
			{
				"type": "unocc",
				"energy": -0.03398,
				"method": "rhf"
			},
			{
				"type": "unocc",
				"energy": -0.0202,
				"method": "rhf"
			},
			{
				"type": "unocc",
				"energy": 0.01892,
				"method": "rhf"
			},
			{
				"type": "unocc",
				"energy": 0.04165,
				"method": "rhf"
			}
		],
		"cosmo_sigma_profile": { 
			"-0.025": 0.0,
			"-0.024": 0.0,
			"-0.023": 0.0,
			"-0.022": 0.0,
			"-0.021": 0.0,
			"-0.02": 0.0,
			"-0.019": 0.0435159531449,
			"-0.018": 0.92903571678,
			"-0.017": 0.737190188077,
			"-0.016": 1.08674160023,
			"-0.015": 0.866779977852,
			"-0.014": 0.586192886792,
			"-0.013": 0.342974136238,
			"-0.012": 0.382015578492,
			"-0.011": 1.15786661353,
			"-0.01": 0.843654441395,
			"-0.009": 2.7614817568,
			"-0.008": 5.77360364692,
			"-0.007": 10.0796500698,
			"-0.006": 11.0452747065,
			"-0.005": 9.43808231253,
			"-0.004": 7.66319068931,
			"-0.003": 10.6792335843,
			"-0.002": 12.5849017483,
			"-0.001": 17.5842417275,
			"0.0": 30.4067460873,
			"0.001": 24.4439095519,
			"0.002": 14.2053597739,
			"0.003": 10.0958278585,
			"0.004": 12.8869405857,
			"0.005": 4.84024421445,
			"0.006": 2.9515783113,
			"0.007": 3.07863066445,
			"0.008": 2.79860931726,
			"0.009": 3.46914885939,
			"0.01": 2.06541422293,
			"0.011": 4.43290682193,
			"0.012": 3.82540849455,
			"0.013": 1.36815920201,
			"0.014": 1.67385797358,
			"0.015": 1.174166583,
			"0.016": 1.25537616447,
			"0.017": 0.653859933933,
			"0.018": 0.102293223009,
			"0.019": 0.0,
			"0.02": 0.0,
			"0.021": 0.0,
			"0.022": 0.0,
			"0.023": 0.0,
			"0.024": 0.0,
			"0.025": 0.0
		}
	}
}
