{
	 "smiles": "NC(=O)CC1=CC=C(O)C=C1", 
	 "Tm": 451.15, 
	 "num_atms": 20, 
	 "gaussian": { 
		 "optdone": 1, 
		 "sigma_profile": "yes", 
		 "theory": "DFT", 
		 "functional": "B3LYP", 
		 "basiset": "6-31G**", 
		 "properties": { 
			 "R2extent": 2338.3609, 
			 "electric_dipole_moment_norm": 4.10318203106, 
			 "electric_quadrupole_moment_norm": 18.7092424403, 
			 "total_energy": -515.490873911, 
			 "HOMO_LUMO_gap": 0.20629, 
			 "cosmo_polarized_energy": -16.81, 
			 "cosmo_cavitation_energy": 24.32, 
			 "cosmo_dispersion_energy": -17.65, 
			 "cosmo_repulsion_energy": 1.45, 
			 "cosmo_total_nonelectrostatic_energy": 8.12, 
			 "SMD_solvation_energy": 5.26 
		},
		"coords": [
			{
				"x": -0.3803717358,
				"y": -0.2777117246,
				"z": 2.1381880517,
				"element": "N" 
			},
			{
				"x": 0.7987658718,
				"y": 0.3959602356,
				"z": 2.2545115062,
				"element": "C" 
			},
			{
				"x": 1.2263511391,
				"y": 0.8090799186,
				"z": 3.322210612,
				"element": "O" 
			},
			{
				"x": 1.5669847989,
				"y": 0.6524206128,
				"z": 0.9429122097,
				"element": "C" 
			},
			{
				"x": 1.1138434539,
				"y": -0.0931293929,
				"z": -0.2908684917,
				"element": "C" 
			},
			{
				"x": 1.6231510537,
				"y": -1.3627074427,
				"z": -0.5963365518,
				"element": "C" 
			},
			{
				"x": 1.1946491329,
				"y": -2.0668504235,
				"z": -1.721055891,
				"element": "C" 
			},
			{
				"x": 0.2349535191,
				"y": -1.5068363949,
				"z": -2.5713458472,
				"element": "C" 
			},
			{
				"x": -0.2263655541,
				"y": -2.1419826483,
				"z": -3.6888217545,
				"element": "O" 
			},
			{
				"x": -0.2877638967,
				"y": -0.2407488103,
				"z": -2.2853525162,
				"element": "C" 
			},
			{
				"x": 0.1523104129,
				"y": 0.4496860641,
				"z": -1.1591966101,
				"element": "C" 
			},
			{
				"x": -0.9002109318,
				"y": -0.4691466953,
				"z": 2.9805720063,
				"element": "H" 
			},
			{
				"x": -0.6893061056,
				"y": -0.6613206242,
				"z": 1.2597469456,
				"element": "H" 
			},
			{
				"x": 2.6144199084,
				"y": 0.4344475304,
				"z": 1.1724015584,
				"element": "H" 
			},
			{
				"x": 1.5149429035,
				"y": 1.7350049613,
				"z": 0.7778910432,
				"element": "H" 
			},
			{
				"x": 2.3716285824,
				"y": -1.8092830975,
				"z": 0.0535239924,
				"element": "H" 
			},
			{
				"x": 1.6094321689,
				"y": -3.0488613872,
				"z": -1.9397502625,
				"element": "H" 
			},
			{
				"x": 0.2205033979,
				"y": -2.9937407075,
				"z": -3.777958561,
				"element": "H" 
			},
			{
				"x": -1.0259328654,
				"y": 0.1860748445,
				"z": -2.9563141122,
				"element": "H" 
			},
			{
				"x": -0.2549852539,
				"y": 1.4365451816,
				"z": -0.9526573273,
				"element": "H" 
			}
		],
		 "valence_orbital": [ 
			{
				"type": "occ",
				"energy": -0.33846,
				"method": "rhf"
			},
			{
				"type": "occ",
				"energy": -0.26395,
				"method": "rhf"
			},
			{
				"type": "occ",
				"energy": -0.25837,
				"method": "rhf"
			},
			{
				"type": "occ",
				"energy": -0.2488,
				"method": "rhf"
			},
			{
				"type": "occ",
				"energy": -0.22009,
				"method": "rhf"
			},
			{
				"type": "unocc",
				"energy": -0.0138,
				"method": "rhf"
			},
			{
				"type": "unocc",
				"energy": 0.00072,
				"method": "rhf"
			},
			{
				"type": "unocc",
				"energy": 0.03956,
				"method": "rhf"
			},
			{
				"type": "unocc",
				"energy": 0.06327,
				"method": "rhf"
			},
			{
				"type": "unocc",
				"energy": 0.08622,
				"method": "rhf"
			}
		],
		"cosmo_sigma_profile": { 
			"-0.025": 0.0,
			"-0.024": 0.0,
			"-0.023": 0.0,
			"-0.022": 0.0,
			"-0.021": 0.0,
			"-0.02": 0.0,
			"-0.019": 0.0,
			"-0.018": 0.272211514695,
			"-0.017": 1.01897793738,
			"-0.016": 1.36557629918,
			"-0.015": 0.735876417104,
			"-0.014": 1.73403023124,
			"-0.013": 2.64421701786,
			"-0.012": 2.24273350681,
			"-0.011": 2.07332905943,
			"-0.01": 3.06439864481,
			"-0.009": 3.77392044401,
			"-0.008": 2.34513162299,
			"-0.007": 3.02304731955,
			"-0.006": 10.3479755071,
			"-0.005": 15.4528313458,
			"-0.004": 13.2388671764,
			"-0.003": 11.8104923773,
			"-0.002": 10.6425026534,
			"-0.001": 10.6547783503,
			"0.0": 7.92271682348,
			"0.001": 10.2930090216,
			"0.002": 9.60417092619,
			"0.003": 11.12216084,
			"0.004": 14.25462886,
			"0.005": 9.1539398096,
			"0.006": 4.89408597971,
			"0.007": 2.32179497032,
			"0.008": 3.02062787508,
			"0.009": 2.92943793148,
			"0.01": 2.67527243225,
			"0.011": 3.31554873984,
			"0.012": 2.27363591378,
			"0.013": 2.45455569959,
			"0.014": 6.25995944623,
			"0.015": 3.26372785753,
			"0.016": 0.21254867684,
			"0.017": 0.0,
			"0.018": 0.0,
			"0.019": 0.0,
			"0.02": 0.0,
			"0.021": 0.0,
			"0.022": 0.0,
			"0.023": 0.0,
			"0.024": 0.0,
			"0.025": 0.0
		}
	}
}
