{
	 "smiles": "CCOC(=O)C1=C(O)C2=C(C=CC(OC(F)(F)F)=C2)N=C1", 
	 "Tm": 574.15, 
	 "num_atms": 31, 
	 "gaussian": { 
		 "optdone": 1, 
		 "sigma_profile": "yes", 
		 "theory": "DFT", 
		 "functional": "B3LYP", 
		 "basiset": "6-31G**", 
		 "properties": { 
			 "R2extent": 8959.8919, 
			 "electric_dipole_moment_norm": 3.24272826644, 
			 "electric_quadrupole_moment_norm": 13.6676518082, 
			 "total_energy": -1156.61886845, 
			 "HOMO_LUMO_gap": 0.16306, 
			 "cosmo_polarized_energy": -8.31, 
			 "cosmo_cavitation_energy": 37.26, 
			 "cosmo_dispersion_energy": -27.03, 
			 "cosmo_repulsion_energy": 1.99, 
			 "cosmo_total_nonelectrostatic_energy": 12.22, 
			 "SMD_solvation_energy": 7.53 
		},
		"coords": [
			{
				"x": 2.653946426,
				"y": 3.3066993956,
				"z": -3.4860709449,
				"element": "C" 
			},
			{
				"x": 2.6423468502,
				"y": 1.8031031781,
				"z": -3.7110654244,
				"element": "C" 
			},
			{
				"x": 2.3932912354,
				"y": 1.0873246149,
				"z": -2.4716148689,
				"element": "O" 
			},
			{
				"x": 1.1169629193,
				"y": 0.9082561601,
				"z": -2.1116409077,
				"element": "C" 
			},
			{
				"x": 0.1671475598,
				"y": 1.3175799718,
				"z": -2.7908615037,
				"element": "O" 
			},
			{
				"x": 0.9423615828,
				"y": 0.1832728442,
				"z": -0.8494492525,
				"element": "C" 
			},
			{
				"x": -0.3600644357,
				"y": -0.0586719117,
				"z": -0.3889600966,
				"element": "C" 
			},
			{
				"x": -1.4500666939,
				"y": 0.3359782149,
				"z": -1.0423815228,
				"element": "O" 
			},
			{
				"x": -0.5252939856,
				"y": -0.7648578466,
				"z": 0.8431695927,
				"element": "C" 
			},
			{
				"x": 0.6540725883,
				"y": -1.1790103702,
				"z": 1.5266300321,
				"element": "C" 
			},
			{
				"x": 0.503615011,
				"y": -1.8805276698,
				"z": 2.7495146724,
				"element": "C" 
			},
			{
				"x": -0.7459852371,
				"y": -2.1507536255,
				"z": 3.2567964601,
				"element": "C" 
			},
			{
				"x": -1.90049412,
				"y": -1.7290364614,
				"z": 2.5595376256,
				"element": "C" 
			},
			{
				"x": -3.0890436895,
				"y": -2.0777810065,
				"z": 3.2012162637,
				"element": "O" 
			},
			{
				"x": -4.2962021204,
				"y": -1.7529622275,
				"z": 2.6733427015,
				"element": "C" 
			},
			{
				"x": -5.2279780485,
				"y": -2.2157027216,
				"z": 3.5046408634,
				"element": "F" 
			},
			{
				"x": -4.4929371544,
				"y": -2.3025475863,
				"z": 1.4599204223,
				"element": "F" 
			},
			{
				"x": -4.4605485435,
				"y": -0.4228886479,
				"z": 2.5426129927,
				"element": "F" 
			},
			{
				"x": -1.8105816348,
				"y": -1.0445469885,
				"z": 1.3680660597,
				"element": "C" 
			},
			{
				"x": 1.9233311324,
				"y": -0.9361411764,
				"z": 1.0661875183,
				"element": "N" 
			},
			{
				"x": 2.0367808624,
				"y": -0.2861040789,
				"z": -0.0671302617,
				"element": "C" 
			},
			{
				"x": 1.6669469715,
				"y": 3.6595614559,
				"z": -3.1776375875,
				"element": "H" 
			},
			{
				"x": 2.9238691032,
				"y": 3.8149907709,
				"z": -4.4175499815,
				"element": "H" 
			},
			{
				"x": 3.385488256,
				"y": 3.5812256523,
				"z": -2.7207538343,
				"element": "H" 
			},
			{
				"x": 3.6185394487,
				"y": 1.4361322891,
				"z": -4.0347587862,
				"element": "H" 
			},
			{
				"x": 1.883540625,
				"y": 1.5139907455,
				"z": -4.4410479817,
				"element": "H" 
			},
			{
				"x": -1.133258443,
				"y": 0.8015097198,
				"z": -1.8627439333,
				"element": "H" 
			},
			{
				"x": 1.4037201501,
				"y": -2.1941440205,
				"z": 3.2667002133,
				"element": "H" 
			},
			{
				"x": -0.8749303193,
				"y": -2.6866046765,
				"z": 4.1911849203,
				"element": "H" 
			},
			{
				"x": -2.6810917473,
				"y": -0.7135461461,
				"z": 0.8194746825,
				"element": "H" 
			},
			{
				"x": 3.0447154511,
				"y": -0.0955978511,
				"z": -0.4280281331,
				"element": "H" 
			}
		],
		 "valence_orbital": [ 
			{
				"type": "occ",
				"energy": -0.3024,
				"method": "rhf"
			},
			{
				"type": "occ",
				"energy": -0.28664,
				"method": "rhf"
			},
			{
				"type": "occ",
				"energy": -0.26191,
				"method": "rhf"
			},
			{
				"type": "occ",
				"energy": -0.26089,
				"method": "rhf"
			},
			{
				"type": "occ",
				"energy": -0.23201,
				"method": "rhf"
			},
			{
				"type": "unocc",
				"energy": -0.06895,
				"method": "rhf"
			},
			{
				"type": "unocc",
				"energy": -0.04118,
				"method": "rhf"
			},
			{
				"type": "unocc",
				"energy": 0.01065,
				"method": "rhf"
			},
			{
				"type": "unocc",
				"energy": 0.02254,
				"method": "rhf"
			},
			{
				"type": "unocc",
				"energy": 0.0916,
				"method": "rhf"
			}
		],
		"cosmo_sigma_profile": { 
			"-0.025": 0.0,
			"-0.024": 0.0,
			"-0.023": 0.0,
			"-0.022": 0.0,
			"-0.021": 0.0,
			"-0.02": 0.0,
			"-0.019": 0.0,
			"-0.018": 0.0,
			"-0.017": 0.0,
			"-0.016": 0.0,
			"-0.015": 0.0,
			"-0.014": 0.0,
			"-0.013": 0.0,
			"-0.012": 0.0,
			"-0.011": 0.0,
			"-0.01": 0.0,
			"-0.009": 0.136529993201,
			"-0.008": 1.94846669154,
			"-0.007": 4.7584985452,
			"-0.006": 8.03651229646,
			"-0.005": 14.3153137542,
			"-0.004": 21.4097055221,
			"-0.003": 22.8258292108,
			"-0.002": 24.7290156686,
			"-0.001": 35.8381243265,
			"0.0": 38.0213871187,
			"0.001": 43.650244823,
			"0.002": 36.5315459772,
			"0.003": 10.9737708657,
			"0.004": 7.67426533515,
			"0.005": 6.31031194276,
			"0.006": 4.76492030617,
			"0.007": 4.12143059364,
			"0.008": 3.88173288262,
			"0.009": 1.73568049106,
			"0.01": 2.76339172802,
			"0.011": 1.43370512991,
			"0.012": 0.888022752903,
			"0.013": 0.172136425566,
			"0.014": 1.05933191894,
			"0.015": 0.809360465999,
			"0.016": 0.426351063967,
			"0.017": 0.0,
			"0.018": 0.0,
			"0.019": 0.0,
			"0.02": 0.0,
			"0.021": 0.0,
			"0.022": 0.0,
			"0.023": 0.0,
			"0.024": 0.0,
			"0.025": 0.0
		}
	}
}
