{
	 "smiles": "CC12CC3CC(C1)CC(C)(C3)C2", 
	 "Tm": 243.15, 
	 "num_atms": 32, 
	 "gaussian": { 
		 "optdone": 1, 
		 "sigma_profile": "yes", 
		 "theory": "DFT", 
		 "functional": "B3LYP", 
		 "basiset": "6-31G**", 
		 "properties": { 
			 "R2extent": 1852.5593, 
			 "electric_dipole_moment_norm": 0.105870581372, 
			 "electric_quadrupole_moment_norm": 0.523128053157, 
			 "total_energy": -469.377695824, 
			 "HOMO_LUMO_gap": 0.34012, 
			 "cosmo_polarized_energy": -0.65, 
			 "cosmo_cavitation_energy": 28.27, 
			 "cosmo_dispersion_energy": -21.05, 
			 "cosmo_repulsion_energy": 1.62, 
			 "cosmo_total_nonelectrostatic_energy": 8.84, 
			 "SMD_solvation_energy": 3.58 
		},
		"coords": [
			{
				"x": 0.8099768613,
				"y": -1.7857639209,
				"z": 2.046611392,
				"element": "C" 
			},
			{
				"x": 0.3724874117,
				"y": -0.6691147109,
				"z": 1.0913859954,
				"element": "C" 
			},
			{
				"x": 1.0408329865,
				"y": -0.8432973337,
				"z": -0.2934912254,
				"element": "C" 
			},
			{
				"x": 0.5964062011,
				"y": 0.2762767211,
				"z": -1.2561664089,
				"element": "C" 
			},
			{
				"x": 1.003638175,
				"y": 1.644768402,
				"z": -0.6736854652,
				"element": "C" 
			},
			{
				"x": 0.3242546795,
				"y": 1.8402439284,
				"z": 0.6967660729,
				"element": "C" 
			},
			{
				"x": 0.7694402619,
				"y": 0.7166406129,
				"z": 1.6543934205,
				"element": "C" 
			},
			{
				"x": -1.2068739599,
				"y": 1.7867008238,
				"z": 0.5219920436,
				"element": "C" 
			},
			{
				"x": -1.6417826662,
				"y": 0.4214927961,
				"z": -0.0627396283,
				"element": "C" 
			},
			{
				"x": -3.1647488381,
				"y": 0.3662066494,
				"z": -0.2309137242,
				"element": "C" 
			},
			{
				"x": -0.9354346463,
				"y": 0.2267707056,
				"z": -1.4258255097,
				"element": "C" 
			},
			{
				"x": -1.1626617464,
				"y": -0.69375149,
				"z": 0.8972469278,
				"element": "C" 
			},
			{
				"x": 1.8967299263,
				"y": -1.778129941,
				"z": 2.1918560018,
				"element": "H" 
			},
			{
				"x": 0.3405337268,
				"y": -1.6713660162,
				"z": 3.0309238625,
				"element": "H" 
			},
			{
				"x": 0.5319555669,
				"y": -2.7720939298,
				"z": 1.656500471,
				"element": "H" 
			},
			{
				"x": 2.1336877408,
				"y": -0.831596574,
				"z": -0.1801668553,
				"element": "H" 
			},
			{
				"x": 0.7768603105,
				"y": -1.8254547725,
				"z": -0.709648072,
				"element": "H" 
			},
			{
				"x": 1.0774611422,
				"y": 0.1318933468,
				"z": -2.2321950853,
				"element": "H" 
			},
			{
				"x": 0.7098066308,
				"y": 2.4503171191,
				"z": -1.3597408946,
				"element": "H" 
			},
			{
				"x": 2.0950837263,
				"y": 1.7003529451,
				"z": -0.5660843428,
				"element": "H" 
			},
			{
				"x": 0.610784036,
				"y": 2.8133301586,
				"z": 1.1161622537,
				"element": "H" 
			},
			{
				"x": 0.3097730671,
				"y": 0.8589018275,
				"z": 2.642311898,
				"element": "H" 
			},
			{
				"x": 1.8573147729,
				"y": 0.756916085,
				"z": 1.8033967189,
				"element": "H" 
			},
			{
				"x": -1.539206968,
				"y": 2.5959074618,
				"z": -0.1428702046,
				"element": "H" 
			},
			{
				"x": -1.7028115576,
				"y": 1.9486375758,
				"z": 1.4891158561,
				"element": "H" 
			},
			{
				"x": -3.6745417073,
				"y": 0.5023341658,
				"z": 0.7302883268,
				"element": "H" 
			},
			{
				"x": -3.5160358143,
				"y": 1.1523760606,
				"z": -0.9096795516,
				"element": "H" 
			},
			{
				"x": -3.4826845297,
				"y": -0.5984632859,
				"z": -0.6440400377,
				"element": "H" 
			},
			{
				"x": -1.2628381815,
				"y": 1.0074919873,
				"z": -2.1262342311,
				"element": "H" 
			},
			{
				"x": -1.235602534,
				"y": -0.7357679594,
				"z": -1.8627722704,
				"element": "H" 
			},
			{
				"x": -1.658701797,
				"y": -0.5786126978,
				"z": 1.8717238428,
				"element": "H" 
			},
			{
				"x": -1.4681022775,
				"y": -1.6740467408,
				"z": 0.5039784233,
				"element": "H" 
			}
		],
		 "valence_orbital": [ 
			{
				"type": "occ",
				"energy": -0.30942,
				"method": "rhf"
			},
			{
				"type": "occ",
				"energy": -0.30704,
				"method": "rhf"
			},
			{
				"type": "occ",
				"energy": -0.27536,
				"method": "rhf"
			},
			{
				"type": "occ",
				"energy": -0.27354,
				"method": "rhf"
			},
			{
				"type": "occ",
				"energy": -0.27144,
				"method": "rhf"
			},
			{
				"type": "unocc",
				"energy": 0.06868,
				"method": "rhf"
			},
			{
				"type": "unocc",
				"energy": 0.10951,
				"method": "rhf"
			},
			{
				"type": "unocc",
				"energy": 0.11687,
				"method": "rhf"
			},
			{
				"type": "unocc",
				"energy": 0.12072,
				"method": "rhf"
			},
			{
				"type": "unocc",
				"energy": 0.12311,
				"method": "rhf"
			}
		],
		"cosmo_sigma_profile": { 
			"-0.025": 0.0,
			"-0.024": 0.0,
			"-0.023": 0.0,
			"-0.022": 0.0,
			"-0.021": 0.0,
			"-0.02": 0.0,
			"-0.019": 0.0,
			"-0.018": 0.0,
			"-0.017": 0.0,
			"-0.016": 0.0,
			"-0.015": 0.0,
			"-0.014": 0.0,
			"-0.013": 0.0,
			"-0.012": 0.0,
			"-0.011": 0.0,
			"-0.01": 0.0,
			"-0.009": 0.0,
			"-0.008": 0.0,
			"-0.007": 0.0,
			"-0.006": 0.0,
			"-0.005": 0.0,
			"-0.004": 0.0,
			"-0.003": 0.688401020825,
			"-0.002": 20.5994660662,
			"-0.001": 65.8452639525,
			"0.0": 52.1294718832,
			"0.001": 40.9286325325,
			"0.002": 31.5331431233,
			"0.003": 2.75336835242,
			"0.004": 0.0,
			"0.005": 0.0,
			"0.006": 0.0,
			"0.007": 0.0,
			"0.008": 0.0,
			"0.009": 0.0,
			"0.01": 0.0,
			"0.011": 0.0,
			"0.012": 0.0,
			"0.013": 0.0,
			"0.014": 0.0,
			"0.015": 0.0,
			"0.016": 0.0,
			"0.017": 0.0,
			"0.018": 0.0,
			"0.019": 0.0,
			"0.02": 0.0,
			"0.021": 0.0,
			"0.022": 0.0,
			"0.023": 0.0,
			"0.024": 0.0,
			"0.025": 0.0
		}
	}
}
