{
	 "smiles": "OC(=O)C(=CC1=CC=C(Cl)C=C1)C1=CC=C(F)C=C1", 
	 "Tm": 478.15, 
	 "num_atms": 29, 
	 "gaussian": { 
		 "optdone": 1, 
		 "sigma_profile": "yes", 
		 "theory": "DFT", 
		 "functional": "B3LYP", 
		 "basiset": "6-31G**", 
		 "properties": { 
			 "R2extent": 7149.1114, 
			 "electric_dipole_moment_norm": 3.2840091428, 
			 "electric_quadrupole_moment_norm": 22.1670532315, 
			 "total_energy": -1288.09674365, 
			 "HOMO_LUMO_gap": 0.16183, 
			 "cosmo_polarized_energy": -14.21, 
			 "cosmo_cavitation_energy": 36.69, 
			 "cosmo_dispersion_energy": -25.4, 
			 "cosmo_repulsion_energy": 1.94, 
			 "cosmo_total_nonelectrostatic_energy": 13.23, 
			 "SMD_solvation_energy": 7.49 
		},
		"coords": [
			{
				"x": 2.6665032608,
				"y": 1.7320915074,
				"z": 2.0804051278,
				"element": "O" 
			},
			{
				"x": 2.5946665649,
				"y": 1.5327518845,
				"z": 0.7417783603,
				"element": "C" 
			},
			{
				"x": 3.5425375579,
				"y": 1.804685369,
				"z": 0.0390266612,
				"element": "O" 
			},
			{
				"x": 1.2911003653,
				"y": 0.9735853837,
				"z": 0.2193296704,
				"element": "C" 
			},
			{
				"x": 1.2072385954,
				"y": 0.862221868,
				"z": -1.1266251252,
				"element": "C" 
			},
			{
				"x": 0.1468451939,
				"y": 0.3451028411,
				"z": -1.9937146017,
				"element": "C" 
			},
			{
				"x": 0.2149811865,
				"y": 0.6703452001,
				"z": -3.3631691616,
				"element": "C" 
			},
			{
				"x": -0.7407832702,
				"y": 0.223753099,
				"z": -4.2702890971,
				"element": "C" 
			},
			{
				"x": -1.7810218886,
				"y": -0.5836189235,
				"z": -3.8112481475,
				"element": "C" 
			},
			{
				"x": -2.9915457724,
				"y": -1.162141398,
				"z": -4.9410052315,
				"element": "Cl" 
			},
			{
				"x": -1.8670617067,
				"y": -0.9469161001,
				"z": -2.4656985929,
				"element": "C" 
			},
			{
				"x": -0.9115236545,
				"y": -0.4826695358,
				"z": -1.5678279533,
				"element": "C" 
			},
			{
				"x": 0.2104378188,
				"y": 0.6510037771,
				"z": 1.1973081198,
				"element": "C" 
			},
			{
				"x": -0.9519450862,
				"y": 1.4408221209,
				"z": 1.2672441955,
				"element": "C" 
			},
			{
				"x": -1.9597630765,
				"y": 1.1587374038,
				"z": 2.1866613925,
				"element": "C" 
			},
			{
				"x": -1.7971940437,
				"y": 0.0784175637,
				"z": 3.0489202694,
				"element": "C" 
			},
			{
				"x": -2.7677959832,
				"y": -0.1980002167,
				"z": 3.9395433481,
				"element": "F" 
			},
			{
				"x": -0.6599257572,
				"y": -0.7207271374,
				"z": 3.0197701955,
				"element": "C" 
			},
			{
				"x": 0.3417118628,
				"y": -0.4268322577,
				"z": 2.0933091694,
				"element": "C" 
			},
			{
				"x": 1.8229137436,
				"y": 1.491386287,
				"z": 2.4947411411,
				"element": "H" 
			},
			{
				"x": 2.0896072223,
				"y": 1.2235491735,
				"z": -1.6523536784,
				"element": "H" 
			},
			{
				"x": 1.0324790521,
				"y": 1.2911166375,
				"z": -3.719018568,
				"element": "H" 
			},
			{
				"x": -0.67876555,
				"y": 0.4901272263,
				"z": -5.319432847,
				"element": "H" 
			},
			{
				"x": -2.6725322545,
				"y": -1.5902323189,
				"z": -2.1292061968,
				"element": "H" 
			},
			{
				"x": -0.9817922841,
				"y": -0.7843055384,
				"z": -0.5305447393,
				"element": "H" 
			},
			{
				"x": -1.0635836455,
				"y": 2.2805567803,
				"z": 0.5885696889,
				"element": "H" 
			},
			{
				"x": -2.8593386104,
				"y": 1.7615895077,
				"z": 2.2471435746,
				"element": "H" 
			},
			{
				"x": -0.5705721178,
				"y": -1.5535790384,
				"z": 3.7086319388,
				"element": "H" 
			},
			{
				"x": 1.2305222773,
				"y": -1.0502211657,
				"z": 2.0534510872,
				"element": "H" 
			}
		],
		 "valence_orbital": [ 
			{
				"type": "occ",
				"energy": -0.28664,
				"method": "rhf"
			},
			{
				"type": "occ",
				"energy": -0.28376,
				"method": "rhf"
			},
			{
				"type": "occ",
				"energy": -0.27588,
				"method": "rhf"
			},
			{
				"type": "occ",
				"energy": -0.25844,
				"method": "rhf"
			},
			{
				"type": "occ",
				"energy": -0.23834,
				"method": "rhf"
			},
			{
				"type": "unocc",
				"energy": -0.07651,
				"method": "rhf"
			},
			{
				"type": "unocc",
				"energy": -0.03938,
				"method": "rhf"
			},
			{
				"type": "unocc",
				"energy": -0.02767,
				"method": "rhf"
			},
			{
				"type": "unocc",
				"energy": -0.02284,
				"method": "rhf"
			},
			{
				"type": "unocc",
				"energy": 0.0074,
				"method": "rhf"
			}
		],
		"cosmo_sigma_profile": { 
			"-0.025": 0.0,
			"-0.024": 0.0,
			"-0.023": 0.0,
			"-0.022": 0.0,
			"-0.021": 0.0,
			"-0.02": 0.0,
			"-0.019": 0.0,
			"-0.018": 0.0,
			"-0.017": 0.0,
			"-0.016": 0.0,
			"-0.015": 0.0691765857247,
			"-0.014": 0.40055622178,
			"-0.013": 0.757033458711,
			"-0.012": 0.463232086805,
			"-0.011": 0.992869579107,
			"-0.01": 0.934005699583,
			"-0.009": 0.8994893681,
			"-0.008": 5.49106892043,
			"-0.007": 16.7475167624,
			"-0.006": 17.084571743,
			"-0.005": 17.0711589273,
			"-0.004": 14.4314049658,
			"-0.003": 16.5849864342,
			"-0.002": 17.9737269403,
			"-0.001": 18.930166245,
			"0.0": 27.2926902122,
			"0.001": 33.2293789712,
			"0.002": 30.2829184274,
			"0.003": 22.1347668831,
			"0.004": 21.9282605688,
			"0.005": 6.96134028787,
			"0.006": 1.36231224499,
			"0.007": 1.96467293412,
			"0.008": 3.62872320058,
			"0.009": 3.29813098836,
			"0.01": 3.77050404842,
			"0.011": 4.95559714164,
			"0.012": 5.56178641579,
			"0.013": 2.25113138537,
			"0.014": 0.272902452006,
			"0.015": 0.0,
			"0.016": 0.0,
			"0.017": 0.0,
			"0.018": 0.0,
			"0.019": 0.0,
			"0.02": 0.0,
			"0.021": 0.0,
			"0.022": 0.0,
			"0.023": 0.0,
			"0.024": 0.0,
			"0.0": 0.0
		}
	}
}
