{
	 "smiles": "COC1=CC(OC)=C(C=O)C(Br)=C1", 
	 "Tm": 363.15, 
	 "num_atms": 22, 
	 "gaussian": { 
		 "optdone": 1, 
		 "sigma_profile": "yes", 
		 "theory": "DFT", 
		 "functional": "B3LYP", 
		 "basiset": "6-31G**", 
		 "properties": { 
			 "R2extent": 5298.5632, 
			 "electric_dipole_moment_norm": 6.01743560331, 
			 "electric_quadrupole_moment_norm": 26.4014975748, 
			 "total_energy": -3145.41620011, 
			 "HOMO_LUMO_gap": 0.17547, 
			 "cosmo_polarized_energy": -12.67, 
			 "cosmo_cavitation_energy": 28.38, 
			 "cosmo_dispersion_energy": -21.22, 
			 "cosmo_repulsion_energy": 1.68, 
			 "cosmo_total_nonelectrostatic_energy": 8.83, 
			 "SMD_solvation_energy": 6.5 
		},
		"coords": [
			{
				"x": -1.7271991257,
				"y": 2.6410689334,
				"z": -0.8304249666,
				"element": "C" 
			},
			{
				"x": -1.1495654471,
				"y": 2.0325262428,
				"z": 0.3200694025,
				"element": "O" 
			},
			{
				"x": 0.0604859219,
				"y": 1.4333580168,
				"z": 0.2009655018,
				"element": "C" 
			},
			{
				"x": 0.5614509582,
				"y": 0.8577086406,
				"z": 1.3769767961,
				"element": "C" 
			},
			{
				"x": 1.7955611508,
				"y": 0.2195545285,
				"z": 1.3564684354,
				"element": "C" 
			},
			{
				"x": 2.3383092745,
				"y": -0.3584476016,
				"z": 2.4603836146,
				"element": "O" 
			},
			{
				"x": 1.6221258374,
				"y": -0.3122784566,
				"z": 3.6876301097,
				"element": "C" 
			},
			{
				"x": 2.5761190221,
				"y": 0.1316265426,
				"z": 0.1620819603,
				"element": "C" 
			},
			{
				"x": 3.8813437836,
				"y": -0.567599467,
				"z": 0.2287441457,
				"element": "C" 
			},
			{
				"x": 4.6592484361,
				"y": -0.7263762632,
				"z": -0.6951853812,
				"element": "O" 
			},
			{
				"x": 2.0286246831,
				"y": 0.7247328305,
				"z": -0.9877935547,
				"element": "C" 
			},
			{
				"x": 2.9261100385,
				"y": 0.7071897117,
				"z": -2.6714949021,
				"element": "Br" 
			},
			{
				"x": 0.7925094424,
				"y": 1.3695631073,
				"z": -0.9881758111,
				"element": "C" 
			},
			{
				"x": -1.9015562509,
				"y": 1.9077542883,
				"z": -1.6265925792,
				"element": "H" 
			},
			{
				"x": -2.6824053763,
				"y": 3.0513655624,
				"z": -0.501207919,
				"element": "H" 
			},
			{
				"x": -1.0963986055,
				"y": 3.4514633877,
				"z": -1.2143349933,
				"element": "H" 
			},
			{
				"x": -0.0385863661,
				"y": 0.9308517471,
				"z": 2.2736133067,
				"element": "H" 
			},
			{
				"x": 1.4607078324,
				"y": 0.7204760911,
				"z": 4.0189135344,
				"element": "H" 
			},
			{
				"x": 2.2472655713,
				"y": -0.8319937365,
				"z": 4.4144769429,
				"element": "H" 
			},
			{
				"x": 0.6555812742,
				"y": -0.8238500488,
				"z": 3.6071612548,
				"element": "H" 
			},
			{
				"x": 4.1196248064,
				"y": -0.9608583379,
				"z": 1.2325985761,
				"element": "H" 
			},
			{
				"x": 0.4263431386,
				"y": 1.8061642809,
				"z": -1.906173474,
				"element": "H" 
			}
		],
		 "valence_orbital": [ 
			{
				"type": "occ",
				"energy": -0.28343,
				"method": "rhf"
			},
			{
				"type": "occ",
				"energy": -0.28282,
				"method": "rhf"
			},
			{
				"type": "occ",
				"energy": -0.23974,
				"method": "rhf"
			},
			{
				"type": "occ",
				"energy": -0.23418,
				"method": "rhf"
			},
			{
				"type": "occ",
				"energy": -0.22879,
				"method": "rhf"
			},
			{
				"type": "unocc",
				"energy": -0.05332,
				"method": "rhf"
			},
			{
				"type": "unocc",
				"energy": -0.00765,
				"method": "rhf"
			},
			{
				"type": "unocc",
				"energy": 0.00964,
				"method": "rhf"
			},
			{
				"type": "unocc",
				"energy": 0.0475,
				"method": "rhf"
			},
			{
				"type": "unocc",
				"energy": 0.08851,
				"method": "rhf"
			}
		],
		"cosmo_sigma_profile": { 
			"-0.025": 0.0,
			"-0.024": 0.0,
			"-0.023": 0.0,
			"-0.022": 0.0,
			"-0.021": 0.0,
			"-0.02": 0.0,
			"-0.019": 0.0,
			"-0.018": 0.0,
			"-0.017": 0.0,
			"-0.016": 0.0,
			"-0.015": 0.0,
			"-0.014": 0.0,
			"-0.013": 0.0,
			"-0.012": 0.0,
			"-0.011": 0.0,
			"-0.01": 0.0,
			"-0.009": 0.0,
			"-0.008": 1.09203586816,
			"-0.007": 7.9457302633,
			"-0.006": 19.1886355492,
			"-0.005": 18.1983041234,
			"-0.004": 22.3284946577,
			"-0.003": 16.9571650517,
			"-0.002": 12.5580071907,
			"-0.001": 11.9894842045,
			"0.0": 14.2235535377,
			"0.001": 24.8043116214,
			"0.002": 20.0259036237,
			"0.003": 12.3517851123,
			"0.004": 12.6672715793,
			"0.005": 7.87539614923,
			"0.006": 4.69842755197,
			"0.007": 3.27472966838,
			"0.008": 3.54437749968,
			"0.009": 3.40083099695,
			"0.01": 1.87088200382,
			"0.011": 3.3061836609,
			"0.012": 5.08353582697,
			"0.013": 2.06193828164,
			"0.014": 0.217762833436,
			"0.015": 0.0,
			"0.016": 0.0,
			"0.017": 0.0,
			"0.018": 0.0,
			"0.019": 0.0,
			"0.02": 0.0,
			"0.021": 0.0,
			"0.022": 0.0,
			"0.023": 0.0,
			"0.024": 0.0,
			"0.025": 0.0
		}
	}
}
