{
	 "smiles": "CC(C)C1(CC=C)C(=O)NC(=O)N(C)C1=O", 
	 "Tm": 329.65, 
	 "num_atms": 32, 
	 "gaussian": { 
		 "optdone": 1, 
		 "sigma_profile": "yes", 
		 "theory": "DFT", 
		 "functional": "B3LYP", 
		 "basiset": "6-31G**", 
		 "properties": { 
			 "R2extent": 3408.9856, 
			 "electric_dipole_moment_norm": 1.48294207574, 
			 "electric_quadrupole_moment_norm": 7.58681463659, 
			 "total_energy": -764.016336409, 
			 "HOMO_LUMO_gap": 0.20115, 
			 "cosmo_polarized_energy": -14.14, 
			 "cosmo_cavitation_energy": 33.01, 
			 "cosmo_dispersion_energy": -22.93, 
			 "cosmo_repulsion_energy": 1.75, 
			 "cosmo_total_nonelectrostatic_energy": 11.83, 
			 "SMD_solvation_energy": 8.21 
		},
		"coords": [
			{
				"x": 1.8790963007,
				"y": -2.1780030208,
				"z": 0.2018837051,
				"element": "C" 
			},
			{
				"x": 1.5783643749,
				"y": -1.1221725053,
				"z": -0.8758225139,
				"element": "C" 
			},
			{
				"x": 1.9781372819,
				"y": -1.6250661652,
				"z": -2.2729064489,
				"element": "C" 
			},
			{
				"x": 0.0824232791,
				"y": -0.5609374299,
				"z": -0.8400732222,
				"element": "C" 
			},
			{
				"x": -1.009559936,
				"y": -1.4901605984,
				"z": -1.4565390063,
				"element": "C" 
			},
			{
				"x": -1.0078307449,
				"y": -2.9625770915,
				"z": -1.1310356905,
				"element": "C" 
			},
			{
				"x": -1.9180027177,
				"y": -3.5770355388,
				"z": -0.3759614996,
				"element": "C" 
			},
			{
				"x": 0.1271418845,
				"y": 0.724188462,
				"z": -1.6787724473,
				"element": "C" 
			},
			{
				"x": -0.0879534219,
				"y": 0.7743817114,
				"z": -2.8759549103,
				"element": "O" 
			},
			{
				"x": 0.5323976341,
				"y": 1.8612427215,
				"z": -0.9952712586,
				"element": "N" 
			},
			{
				"x": 0.6295208885,
				"y": 2.0488228279,
				"z": 0.3812002037,
				"element": "C" 
			},
			{
				"x": 0.9832598857,
				"y": 3.1142790129,
				"z": 0.8495919919,
				"element": "O" 
			},
			{
				"x": 0.256760577,
				"y": 0.9497871565,
				"z": 1.1554084243,
				"element": "N" 
			},
			{
				"x": 0.1409470567,
				"y": 1.1513486077,
				"z": 2.6058285238,
				"element": "C" 
			},
			{
				"x": -0.2557364551,
				"y": -0.2436891249,
				"z": 0.6223620868,
				"element": "C" 
			},
			{
				"x": -0.8689040182,
				"y": -1.0090664624,
				"z": 1.3410221535,
				"element": "O" 
			},
			{
				"x": 1.2443939294,
				"y": -3.0602104022,
				"z": 0.1043563674,
				"element": "H" 
			},
			{
				"x": 2.9228982981,
				"y": -2.4943798559,
				"z": 0.1040661844,
				"element": "H" 
			},
			{
				"x": 1.7457343365,
				"y": -1.7881741298,
				"z": 1.2140328535,
				"element": "H" 
			},
			{
				"x": 2.2150529073,
				"y": -0.2560238669,
				"z": -0.6515445035,
				"element": "H" 
			},
			{
				"x": 3.0553908789,
				"y": -1.8195842292,
				"z": -2.2898167153,
				"element": "H" 
			},
			{
				"x": 1.7516764131,
				"y": -0.8978103631,
				"z": -3.0555912585,
				"element": "H" 
			},
			{
				"x": 1.4745175946,
				"y": -2.5617048112,
				"z": -2.5275158944,
				"element": "H" 
			},
			{
				"x": -1.981623477,
				"y": -1.0710882225,
				"z": -1.1761302268,
				"element": "H" 
			},
			{
				"x": -0.9234973084,
				"y": -1.3701710157,
				"z": -2.5407195406,
				"element": "H" 
			},
			{
				"x": -0.2443481213,
				"y": -3.5671238986,
				"z": -1.6182130194,
				"element": "H" 
			},
			{
				"x": -1.9016331019,
				"y": -4.65330503,
				"z": -0.2305917441,
				"element": "H" 
			},
			{
				"x": -2.7011786766,
				"y": -3.0242723784,
				"z": 0.1350013703,
				"element": "H" 
			},
			{
				"x": 0.677733945,
				"y": 2.6975498504,
				"z": -1.5485772554,
				"element": "H" 
			},
			{
				"x": 0.7940039393,
				"y": 1.9756119745,
				"z": 2.8830926099,
				"element": "H" 
			},
			{
				"x": 0.4326440907,
				"y": 0.2319212607,
				"z": 3.1123801867,
				"element": "H" 
			},
			{
				"x": -0.890027517,
				"y": 1.3888225555,
				"z": 2.8824104945,
				"element": "H" 
			}
		],
		 "valence_orbital": [ 
			{
				"type": "occ",
				"energy": -0.30008,
				"method": "rhf"
			},
			{
				"type": "occ",
				"energy": -0.29512,
				"method": "rhf"
			},
			{
				"type": "occ",
				"energy": -0.28485,
				"method": "rhf"
			},
			{
				"type": "occ",
				"energy": -0.26454,
				"method": "rhf"
			},
			{
				"type": "occ",
				"energy": -0.24941,
				"method": "rhf"
			},
			{
				"type": "unocc",
				"energy": -0.04826,
				"method": "rhf"
			},
			{
				"type": "unocc",
				"energy": -0.00074,
				"method": "rhf"
			},
			{
				"type": "unocc",
				"energy": 0.01742,
				"method": "rhf"
			},
			{
				"type": "unocc",
				"energy": 0.04829,
				"method": "rhf"
			},
			{
				"type": "unocc",
				"energy": 0.07701,
				"method": "rhf"
			}
		],
		"cosmo_sigma_profile": { 
			"-0.025": 0.0,
			"-0.024": 0.0,
			"-0.023": 0.0,
			"-0.022": 0.0,
			"-0.021": 0.0,
			"-0.02": 0.0,
			"-0.019": 0.0,
			"-0.018": 0.0,
			"-0.017": 0.126163553055,
			"-0.016": 0.752060031457,
			"-0.015": 0.902909609905,
			"-0.014": 1.1153723848,
			"-0.013": 0.768428754196,
			"-0.012": 0.605102267896,
			"-0.011": 0.556025063578,
			"-0.01": 1.45862163108,
			"-0.009": 1.89501981575,
			"-0.008": 1.92456175445,
			"-0.007": 2.77909010633,
			"-0.006": 8.16129767142,
			"-0.005": 18.1368009666,
			"-0.004": 25.7691565754,
			"-0.003": 30.8638933549,
			"-0.002": 27.6276058441,
			"-0.001": 21.629036432,
			"0.0": 23.4965253213,
			"0.001": 13.7460418966,
			"0.002": 8.83120892957,
			"0.003": 7.53990316299,
			"0.004": 7.40990267881,
			"0.005": 6.9347788365,
			"0.006": 6.3213784007,
			"0.007": 5.19960519717,
			"0.008": 4.93412204409,
			"0.009": 4.94942607314,
			"0.01": 6.81999015896,
			"0.011": 12.3162608033,
			"0.012": 5.38328917296,
			"0.013": 0.0144193957859,
			"0.014": 0.0,
			"0.015": 0.0,
			"0.016": 0.0,
			"0.017": 0.0,
			"0.018": 0.0,
			"0.019": 0.0,
			"0.02": 0.0,
			"0.021": 0.0,
			"0.022": 0.0,
			"0.023": 0.0,
			"0.024": 0.0,
			"0.025": 0.0
		}
	}
}
