{
	 "smiles": "C1CC(CCN1)OC1=CC=CC=C1", 
	 "Tm": 308.15, 
	 "num_atms": 28, 
	 "gaussian": { 
		 "optdone": 1, 
		 "sigma_profile": "yes", 
		 "theory": "DFT", 
		 "functional": "B3LYP", 
		 "basiset": "6-31G**", 
		 "properties": { 
			 "R2extent": 4370.1731, 
			 "electric_dipole_moment_norm": 0.870368433481, 
			 "electric_quadrupole_moment_norm": 6.09706932386, 
			 "total_energy": -558.168391409, 
			 "HOMO_LUMO_gap": 0.21368, 
			 "cosmo_polarized_energy": -7.91, 
			 "cosmo_cavitation_energy": 29.19, 
			 "cosmo_dispersion_energy": -21.7, 
			 "cosmo_repulsion_energy": 1.72, 
			 "cosmo_total_nonelectrostatic_energy": 9.22, 
			 "SMD_solvation_energy": 2.08 
		},
		"coords": [
			{
				"x": 0.0695734106,
				"y": 1.194979751,
				"z": 1.1532034857,
				"element": "C" 
			},
			{
				"x": -0.1254430777,
				"y": -0.2480077778,
				"z": 1.6174770886,
				"element": "C" 
			},
			{
				"x": -1.173455121,
				"y": -0.9826975036,
				"z": 0.7619000313,
				"element": "C" 
			},
			{
				"x": -2.2723422255,
				"y": -0.0084313302,
				"z": 0.2737627706,
				"element": "C" 
			},
			{
				"x": -2.4047133263,
				"y": 1.1813030698,
				"z": 1.2373591625,
				"element": "C" 
			},
			{
				"x": -1.1666646032,
				"y": 1.9649159781,
				"z": 1.3839325562,
				"element": "N" 
			},
			{
				"x": -0.4568208064,
				"y": -1.5530923061,
				"z": -0.3464643052,
				"element": "O" 
			},
			{
				"x": -1.0145457687,
				"y": -2.5527351607,
				"z": -1.0923742798,
				"element": "C" 
			},
			{
				"x": -0.2339934202,
				"y": -3.0036976245,
				"z": -2.1688482394,
				"element": "C" 
			},
			{
				"x": -0.692920143,
				"y": -4.0323280445,
				"z": -2.9840148166,
				"element": "C" 
			},
			{
				"x": -1.934847213,
				"y": -4.6302174959,
				"z": -2.7438140603,
				"element": "C" 
			},
			{
				"x": -2.7073324228,
				"y": -4.1797192843,
				"z": -1.6757131023,
				"element": "C" 
			},
			{
				"x": -2.2604784832,
				"y": -3.1447527253,
				"z": -0.8479406198,
				"element": "C" 
			},
			{
				"x": 0.8906367635,
				"y": 1.6631449242,
				"z": 1.7100995303,
				"element": "H" 
			},
			{
				"x": 0.3738275189,
				"y": 1.1768175325,
				"z": 0.0931592294,
				"element": "H" 
			},
			{
				"x": -0.4503355876,
				"y": -0.245979396,
				"z": 2.6642381986,
				"element": "H" 
			},
			{
				"x": 0.815162816,
				"y": -0.8035233248,
				"z": 1.5685728581,
				"element": "H" 
			},
			{
				"x": -1.6091310388,
				"y": -1.7962687834,
				"z": 1.356311674,
				"element": "H" 
			},
			{
				"x": -3.2346573522,
				"y": -0.5171348228,
				"z": 0.1559094752,
				"element": "H" 
			},
			{
				"x": -1.9799912931,
				"y": 0.3552041449,
				"z": -0.7184227798,
				"element": "H" 
			},
			{
				"x": -3.2027216267,
				"y": 1.8523469935,
				"z": 0.9039310745,
				"element": "H" 
			},
			{
				"x": -2.7186005958,
				"y": 0.808688954,
				"z": 2.2236592605,
				"element": "H" 
			},
			{
				"x": -1.1904955028,
				"y": 2.7570810704,
				"z": 0.7507628547,
				"element": "H" 
			},
			{
				"x": 0.7285118663,
				"y": -2.5321606291,
				"z": -2.3393690565,
				"element": "H" 
			},
			{
				"x": -0.0764693779,
				"y": -4.3704311383,
				"z": -3.8124239112,
				"element": "H" 
			},
			{
				"x": -2.2924075029,
				"y": -5.4323645172,
				"z": -3.3818560242,
				"element": "H" 
			},
			{
				"x": -3.6754568137,
				"y": -4.6311274254,
				"z": -1.4762346052,
				"element": "H" 
			},
			{
				"x": -2.8861890727,
				"y": -2.8122131285,
				"z": -0.0286034499,
				"element": "H" 
			}
		],
		 "valence_orbital": [ 
			{
				"type": "occ",
				"energy": -0.30824,
				"method": "rhf"
			},
			{
				"type": "occ",
				"energy": -0.30193,
				"method": "rhf"
			},
			{
				"type": "occ",
				"energy": -0.24572,
				"method": "rhf"
			},
			{
				"type": "occ",
				"energy": -0.21335,
				"method": "rhf"
			},
			{
				"type": "occ",
				"energy": -0.21043,
				"method": "rhf"
			},
			{
				"type": "unocc",
				"energy": 0.00325,
				"method": "rhf"
			},
			{
				"type": "unocc",
				"energy": 0.01775,
				"method": "rhf"
			},
			{
				"type": "unocc",
				"energy": 0.07371,
				"method": "rhf"
			},
			{
				"type": "unocc",
				"energy": 0.09136,
				"method": "rhf"
			},
			{
				"type": "unocc",
				"energy": 0.09857,
				"method": "rhf"
			}
		],
		"cosmo_sigma_profile": { 
			"-0.025": 0.0,
			"-0.024": 0.0,
			"-0.023": 0.0,
			"-0.022": 0.0,
			"-0.021": 0.0,
			"-0.02": 0.0,
			"-0.019": 0.0,
			"-0.018": 0.0,
			"-0.017": 0.0,
			"-0.016": 0.0,
			"-0.015": 0.0,
			"-0.014": 0.0,
			"-0.013": 0.0,
			"-0.012": 0.0,
			"-0.011": 0.0,
			"-0.01": 0.454807940168,
			"-0.009": 1.41219930606,
			"-0.008": 1.47471195045,
			"-0.007": 1.98241150748,
			"-0.006": 6.11965572744,
			"-0.005": 13.3848635092,
			"-0.004": 20.9237604441,
			"-0.003": 27.6778675542,
			"-0.002": 27.0245721941,
			"-0.001": 24.2210011109,
			"0.0": 20.4342595297,
			"0.001": 12.2998346262,
			"0.002": 9.64777834715,
			"0.003": 10.426464329,
			"0.004": 13.0235603127,
			"0.005": 11.7748179552,
			"0.006": 12.1311053025,
			"0.007": 4.15056549343,
			"0.008": 2.05323821407,
			"0.009": 1.74382197094,
			"0.01": 1.32390819103,
			"0.011": 0.925030440059,
			"0.012": 0.224530488757,
			"0.013": 1.13933980496,
			"0.014": 0.541056779912,
			"0.015": 0.0140528772369,
			"0.016": 0.151351602012,
			"0.017": 1.25125878224,
			"0.018": 0.33237742055,
			"0.019": 0.304254975197,
			"0.02": 0.0,
			"0.021": 0.0,
			"0.022": 0.0,
			"0.023": 0.0,
			"0.024": 0.0,
			"0.025": 0.0
		}
	}
}
