{
	 "smiles": "CC(C)(C)OC(=O)N1CC(O)(C1)C1=CC(F)=C(F)C=C1", 
	 "Tm": 343.15, 
	 "num_atms": 37, 
	 "gaussian": { 
		 "optdone": 1, 
		 "sigma_profile": "yes", 
		 "theory": "DFT", 
		 "functional": "B3LYP", 
		 "basiset": "6-31G**", 
		 "properties": { 
			 "R2extent": 7827.8856, 
			 "electric_dipole_moment_norm": 3.21344277372, 
			 "electric_quadrupole_moment_norm": 16.5837223484, 
			 "total_energy": -1023.81824987, 
			 "HOMO_LUMO_gap": 0.21632, 
			 "cosmo_polarized_energy": -14.45, 
			 "cosmo_cavitation_energy": 40.92, 
			 "cosmo_dispersion_energy": -27.58, 
			 "cosmo_repulsion_energy": 2.09, 
			 "cosmo_total_nonelectrostatic_energy": 15.43, 
			 "SMD_solvation_energy": 7.87 
		},
		"coords": [
			{
				"x": -1.967090695,
				"y": -2.5821007082,
				"z": -2.630218659,
				"element": "C" 
			},
			{
				"x": -2.9593300548,
				"y": -1.462405452,
				"z": -2.2974700553,
				"element": "C" 
			},
			{
				"x": -3.6067519874,
				"y": -0.8695368448,
				"z": -3.553532391,
				"element": "C" 
			},
			{
				"x": -4.0258744106,
				"y": -1.9543866338,
				"z": -1.3157416059,
				"element": "C" 
			},
			{
				"x": -2.2839604156,
				"y": -0.4022432929,
				"z": -1.5326089978,
				"element": "O" 
			},
			{
				"x": -1.2642531376,
				"y": 0.304721937,
				"z": -2.0794723554,
				"element": "C" 
			},
			{
				"x": -0.7716202523,
				"y": 0.1502647374,
				"z": -3.1865210475,
				"element": "O" 
			},
			{
				"x": -0.8451222814,
				"y": 1.2602414088,
				"z": -1.2009404593,
				"element": "N" 
			},
			{
				"x": 0.4230572057,
				"y": 1.986051108,
				"z": -1.2513159742,
				"element": "C" 
			},
			{
				"x": 0.3230337138,
				"y": 2.202379967,
				"z": 0.295155195,
				"element": "C" 
			},
			{
				"x": 0.106496547,
				"y": 3.5776003561,
				"z": 0.5475078569,
				"element": "O" 
			},
			{
				"x": -1.0062271347,
				"y": 1.3662604002,
				"z": 0.2499301032,
				"element": "C" 
			},
			{
				"x": 1.4684703212,
				"y": 1.638443782,
				"z": 1.1207576314,
				"element": "C" 
			},
			{
				"x": 1.6798982771,
				"y": 0.253725935,
				"z": 1.2196344154,
				"element": "C" 
			},
			{
				"x": 2.7491599168,
				"y": -0.2350024,
				"z": 1.9536796382,
				"element": "C" 
			},
			{
				"x": 2.952940952,
				"y": -1.5592819526,
				"z": 2.0544541547,
				"element": "F" 
			},
			{
				"x": 3.6269948928,
				"y": 0.6354558917,
				"z": 2.6007186549,
				"element": "C" 
			},
			{
				"x": 4.6488898498,
				"y": 0.1275393726,
				"z": 3.3089998805,
				"element": "F" 
			},
			{
				"x": 3.4382487779,
				"y": 2.0053473377,
				"z": 2.5043427064,
				"element": "C" 
			},
			{
				"x": 2.3640314194,
				"y": 2.5025085319,
				"z": 1.7622353014,
				"element": "C" 
			},
			{
				"x": -1.4947570513,
				"y": -2.9556310199,
				"z": -1.7157993058,
				"element": "H" 
			},
			{
				"x": -1.1922021567,
				"y": -2.2263640899,
				"z": -3.309593549,
				"element": "H" 
			},
			{
				"x": -2.4972633879,
				"y": -3.4158704578,
				"z": -3.1019732726,
				"element": "H" 
			},
			{
				"x": -4.1990328401,
				"y": -1.6386153291,
				"z": -4.0600182701,
				"element": "H" 
			},
			{
				"x": -4.2771262285,
				"y": -0.04754002,
				"z": -3.2830694493,
				"element": "H" 
			},
			{
				"x": -2.849183895,
				"y": -0.4962197269,
				"z": -4.2430692288,
				"element": "H" 
			},
			{
				"x": -3.5627817445,
				"y": -2.3346328955,
				"z": -0.4003635664,
				"element": "H" 
			},
			{
				"x": -4.7066418525,
				"y": -1.1417666074,
				"z": -1.0459612592,
				"element": "H" 
			},
			{
				"x": -4.6103632508,
				"y": -2.7608203535,
				"z": -1.7684861187,
				"element": "H" 
			},
			{
				"x": 1.2675137043,
				"y": 1.378707426,
				"z": -1.5910121294,
				"element": "H" 
			},
			{
				"x": 0.3866153548,
				"y": 2.9241821991,
				"z": -1.8130952308,
				"element": "H" 
			},
			{
				"x": -0.1282075053,
				"y": 3.6765973394,
				"z": 1.4811264176,
				"element": "H" 
			},
			{
				"x": -0.9997563215,
				"y": 0.4065103742,
				"z": 0.7759802638,
				"element": "H" 
			},
			{
				"x": -1.8836779861,
				"y": 1.94389675,
				"z": 0.5612110654,
				"element": "H" 
			},
			{
				"x": 1.0332090005,
				"y": -0.465853054,
				"z": 0.7288534202,
				"element": "H" 
			},
			{
				"x": 4.135393632,
				"y": 2.6676606319,
				"z": 3.0065186488,
				"element": "H" 
			},
			{
				"x": 2.2256710245,
				"y": 3.5730753524,
				"z": 1.6677575718,
				"element": "H" 
			}
		],
		 "valence_orbital": [ 
			{
				"type": "occ",
				"energy": -0.28597,
				"method": "rhf"
			},
			{
				"type": "occ",
				"energy": -0.26877,
				"method": "rhf"
			},
			{
				"type": "occ",
				"energy": -0.25973,
				"method": "rhf"
			},
			{
				"type": "occ",
				"energy": -0.24958,
				"method": "rhf"
			},
			{
				"type": "occ",
				"energy": -0.24222,
				"method": "rhf"
			},
			{
				"type": "unocc",
				"energy": -0.0259,
				"method": "rhf"
			},
			{
				"type": "unocc",
				"energy": -0.01383,
				"method": "rhf"
			},
			{
				"type": "unocc",
				"energy": 0.04409,
				"method": "rhf"
			},
			{
				"type": "unocc",
				"energy": 0.06326,
				"method": "rhf"
			},
			{
				"type": "unocc",
				"energy": 0.06971,
				"method": "rhf"
			}
		],
		"cosmo_sigma_profile": { 
			"-0.025": 0.0,
			"-0.024": 0.0,
			"-0.023": 0.0,
			"-0.022": 0.0,
			"-0.021": 0.0,
			"-0.02": 0.0,
			"-0.019": 0.0,
			"-0.018": 0.0,
			"-0.017": 0.162888387766,
			"-0.016": 0.582939272552,
			"-0.015": 1.25824865157,
			"-0.014": 0.531980782865,
			"-0.013": 1.20502175348,
			"-0.012": 0.955278083351,
			"-0.011": 1.04897438516,
			"-0.01": 1.30758028893,
			"-0.009": 1.13484800068,
			"-0.008": 4.39842300795,
			"-0.007": 6.35518396153,
			"-0.006": 8.84956470811,
			"-0.005": 13.5570385903,
			"-0.004": 22.5245392962,
			"-0.003": 29.0501167701,
			"-0.002": 23.0660233491,
			"-0.001": 30.781222527,
			"0.0": 37.448114864,
			"0.001": 33.5623600718,
			"0.002": 19.8333299449,
			"0.003": 23.4451479331,
			"0.004": 25.6829675853,
			"0.005": 6.76681090503,
			"0.006": 4.85420536872,
			"0.007": 4.8910541202,
			"0.008": 3.02218992653,
			"0.009": 1.85829615946,
			"0.01": 2.4432033493,
			"0.011": 3.05192112678,
			"0.012": 3.23460222892,
			"0.013": 3.60607794599,
			"0.014": 2.00912244727,
			"0.015": 0.00485352791816,
			"0.016": 0.0,
			"0.017": 0.0,
			"0.018": 0.0,
			"0.019": 0.0,
			"0.02": 0.0,
			"0.021": 0.0,
			"0.022": 0.0,
			"0.023": 0.0,
			"0.024": 0.0,
			"0.025": 0.0
		}
	}
}
