{
	 "smiles": "ClC1=CC=C2OC3=C(C=CC=C3)N=C(N3CCNCC3)C2=C1", 
	 "Tm": 449.15, 
	 "num_atms": 38, 
	 "gaussian": { 
		 "optdone": 1, 
		 "sigma_profile": "yes", 
		 "theory": "DFT", 
		 "functional": "B3LYP", 
		 "basiset": "6-31G**", 
		 "properties": { 
			 "R2extent": 8161.2041, 
			 "electric_dipole_moment_norm": 1.30432195412, 
			 "electric_quadrupole_moment_norm": 8.81140398745, 
			 "total_energy": -1357.10012195, 
			 "HOMO_LUMO_gap": 0.14907, 
			 "cosmo_polarized_energy": -10.88, 
			 "cosmo_cavitation_energy": 41.44, 
			 "cosmo_dispersion_energy": -29.5, 
			 "cosmo_repulsion_energy": 2.25, 
			 "cosmo_total_nonelectrostatic_energy": 14.18, 
			 "SMD_solvation_energy": 2.53 
		},
		"coords": [
			{
				"x": -0.2274594931,
				"y": -3.4614080818,
				"z": 3.1666862459,
				"element": "Cl" 
			},
			{
				"x": -1.1251786977,
				"y": -2.4734782032,
				"z": 2.0222870497,
				"element": "C" 
			},
			{
				"x": -2.4798052228,
				"y": -2.7328133656,
				"z": 1.8064015078,
				"element": "C" 
			},
			{
				"x": -3.188081014,
				"y": -1.9269133691,
				"z": 0.9183770032,
				"element": "C" 
			},
			{
				"x": -2.5426455047,
				"y": -0.8921603493,
				"z": 0.2417358675,
				"element": "C" 
			},
			{
				"x": -3.2726439973,
				"y": -0.1176876955,
				"z": -0.639040634,
				"element": "O" 
			},
			{
				"x": -3.4114343081,
				"y": 1.2058894884,
				"z": -0.201855562,
				"element": "C" 
			},
			{
				"x": -2.2734825444,
				"y": 2.031446575,
				"z": -0.0909775863,
				"element": "C" 
			},
			{
				"x": -2.4881332755,
				"y": 3.3658249431,
				"z": 0.3028895357,
				"element": "C" 
			},
			{
				"x": -3.7645644777,
				"y": 3.843970994,
				"z": 0.5846833616,
				"element": "C" 
			},
			{
				"x": -4.8748243361,
				"y": 3.0047902054,
				"z": 0.4570664512,
				"element": "C" 
			},
			{
				"x": -4.6918719799,
				"y": 1.678857335,
				"z": 0.0624543541,
				"element": "C" 
			},
			{
				"x": -0.9889715573,
				"y": 1.6480954357,
				"z": -0.4644202928,
				"element": "N" 
			},
			{
				"x": -0.4922572329,
				"y": 0.4642972315,
				"z": -0.2987299785,
				"element": "C" 
			},
			{
				"x": 0.820605627,
				"y": 0.2304179948,
				"z": -0.6833934473,
				"element": "N" 
			},
			{
				"x": 1.6232967621,
				"y": 1.3562490134,
				"z": -1.1801389175,
				"element": "C" 
			},
			{
				"x": 1.5789945595,
				"y": 1.4441067778,
				"z": -2.7085400358,
				"element": "C" 
			},
			{
				"x": 2.03909577,
				"y": 0.1680214668,
				"z": -3.266104001,
				"element": "N" 
			},
			{
				"x": 1.1855395492,
				"y": -0.9380093154,
				"z": -2.8352174953,
				"element": "C" 
			},
			{
				"x": 1.2242298327,
				"y": -1.0416511824,
				"z": -1.3043606971,
				"element": "C" 
			},
			{
				"x": -1.1724885965,
				"y": -0.6535196668,
				"z": 0.4249190509,
				"element": "C" 
			},
			{
				"x": -0.4712223095,
				"y": -1.4498499262,
				"z": 1.3446027774,
				"element": "C" 
			},
			{
				"x": -2.9717940112,
				"y": -3.5416848481,
				"z": 2.3348338292,
				"element": "H" 
			},
			{
				"x": -4.2451865111,
				"y": -2.0885008676,
				"z": 0.7374238698,
				"element": "H" 
			},
			{
				"x": -1.6201112324,
				"y": 4.0139131688,
				"z": 0.3714704271,
				"element": "H" 
			},
			{
				"x": -3.8955491914,
				"y": 4.8777944514,
				"z": 0.8906709495,
				"element": "H" 
			},
			{
				"x": -5.8744249131,
				"y": 3.376955765,
				"z": 0.6592466559,
				"element": "H" 
			},
			{
				"x": -5.5300627871,
				"y": 0.9989677636,
				"z": -0.0528473733,
				"element": "H" 
			},
			{
				"x": 1.2482409786,
				"y": 2.272925815,
				"z": -0.7279715955,
				"element": "H" 
			},
			{
				"x": 2.6588919033,
				"y": 1.1819827811,
				"z": -0.8631730462,
				"element": "H" 
			},
			{
				"x": 0.5516178492,
				"y": 1.7085211058,
				"z": -3.0137822654,
				"element": "H" 
			},
			{
				"x": 2.2491114087,
				"y": 2.241683625,
				"z": -3.0483646862,
				"element": "H" 
			},
			{
				"x": 2.0567039367,
				"y": 0.2173211249,
				"z": -4.2806906456,
				"element": "H" 
			},
			{
				"x": 1.5624252375,
				"y": -1.8717880707,
				"z": -3.2681637952,
				"element": "H" 
			},
			{
				"x": 0.1303205375,
				"y": -0.8227196407,
				"z": -3.1493080156,
				"element": "H" 
			},
			{
				"x": 0.5719847499,
				"y": -1.8465540517,
				"z": -0.9670561005,
				"element": "H" 
			},
			{
				"x": 2.2487901828,
				"y": -1.2689816683,
				"z": -0.9859881387,
				"element": "H" 
			},
			{
				"x": 0.5805443091,
				"y": -1.2597127591,
				"z": 1.5236753732,
				"element": "H" 
			}
		],
		 "valence_orbital": [ 
			{
				"type": "occ",
				"energy": -0.24854,
				"method": "rhf"
			},
			{
				"type": "occ",
				"energy": -0.24282,
				"method": "rhf"
			},
			{
				"type": "occ",
				"energy": -0.23751,
				"method": "rhf"
			},
			{
				"type": "occ",
				"energy": -0.22809,
				"method": "rhf"
			},
			{
				"type": "occ",
				"energy": -0.19782,
				"method": "rhf"
			},
			{
				"type": "unocc",
				"energy": -0.04875,
				"method": "rhf"
			},
			{
				"type": "unocc",
				"energy": -0.01923,
				"method": "rhf"
			},
			{
				"type": "unocc",
				"energy": -0.00087,
				"method": "rhf"
			},
			{
				"type": "unocc",
				"energy": 0.00863,
				"method": "rhf"
			},
			{
				"type": "unocc",
				"energy": 0.02364,
				"method": "rhf"
			}
		],
		"cosmo_sigma_profile": { 
			"-0.025": 0.0,
			"-0.024": 0.0,
			"-0.023": 0.0,
			"-0.022": 0.0,
			"-0.021": 0.0,
			"-0.02": 0.0,
			"-0.019": 0.0,
			"-0.018": 0.0,
			"-0.017": 0.0,
			"-0.016": 0.0,
			"-0.015": 0.0,
			"-0.014": 0.0,
			"-0.013": 0.0,
			"-0.012": 0.0,
			"-0.011": 0.190556231844,
			"-0.01": 1.51534032117,
			"-0.009": 0.720833087594,
			"-0.008": 3.412034783,
			"-0.007": 6.67713180071,
			"-0.006": 10.2163020102,
			"-0.005": 16.1998943724,
			"-0.004": 27.9829714158,
			"-0.003": 34.3561923922,
			"-0.002": 31.6917053494,
			"-0.001": 29.4569176087,
			"0.0": 24.7618032148,
			"0.001": 29.1847704304,
			"0.002": 25.0966090148,
			"0.003": 21.9274251885,
			"0.004": 23.2148423688,
			"0.005": 19.9619918054,
			"0.006": 8.43341306079,
			"0.007": 3.58270456266,
			"0.008": 3.18115384641,
			"0.009": 3.33559533304,
			"0.01": 2.48390214049,
			"0.011": 1.03135999783,
			"0.012": 0.445415017166,
			"0.013": 0.260192458193,
			"0.014": 1.0157366273,
			"0.015": 0.311246678958,
			"0.016": 0.604460249616,
			"0.017": 0.224859823167,
			"0.018": 0.205723530718,
			"0.019": 0.0,
			"0.02": 0.0,
			"0.021": 0.0,
			"0.022": 0.0,
			"0.023": 0.0,
			"0.024": 0.0,
			"0.025": 0.0
		}
	}
}
