{
	 "smiles": "CCN=C=S", 
	 "Tm": 267.25, 
	 "num_atms": 10, 
	 "gaussian": { 
		 "optdone": 1, 
		 "sigma_profile": "yes", 
		 "theory": "DFT", 
		 "functional": "B3LYP", 
		 "basiset": "6-31G**", 
		 "properties": { 
			 "R2extent": 1380.267, 
			 "electric_dipole_moment_norm": 3.928750944, 
			 "electric_quadrupole_moment_norm": 10.3203039403, 
			 "total_energy": -570.266664248, 
			 "HOMO_LUMO_gap": 0.23279, 
			 "cosmo_polarized_energy": -5.42, 
			 "cosmo_cavitation_energy": 16.36, 
			 "cosmo_dispersion_energy": -12.56, 
			 "cosmo_repulsion_energy": 1.1, 
			 "cosmo_total_nonelectrostatic_energy": 4.9, 
			 "SMD_solvation_energy": 2.73 
		},
		"coords": [
			{
				"x": -0.3157233204,
				"y": -2.0045917315,
				"z": -0.7758745652,
				"element": "C" 
			},
			{
				"x": -0.5685128506,
				"y": -0.6605570867,
				"z": -0.0926748965,
				"element": "C" 
			},
			{
				"x": -0.3504562272,
				"y": -0.7340687326,
				"z": 1.3224660308,
				"element": "N" 
			},
			{
				"x": -0.3154780893,
				"y": -0.2814012601,
				"z": 2.4232162306,
				"element": "C" 
			},
			{
				"x": -0.2373608395,
				"y": 0.2263512834,
				"z": 3.9333687184,
				"element": "S" 
			},
			{
				"x": -0.4914872125,
				"y": -1.9094661993,
				"z": -1.8513599046,
				"element": "H" 
			},
			{
				"x": -0.9852057235,
				"y": -2.7734418853,
				"z": -0.3811636118,
				"element": "H" 
			},
			{
				"x": 0.7155857729,
				"y": -2.3321006462,
				"z": -0.6200785325,
				"element": "H" 
			},
			{
				"x": -1.6003093434,
				"y": -0.3309934267,
				"z": -0.2682525271,
				"element": "H" 
			},
			{
				"x": 0.0952478335,
				"y": 0.108969685,
				"z": -0.5065469421,
				"element": "H" 
			}
		],
		 "valence_orbital": [ 
			{
				"type": "occ",
				"energy": -0.40336,
				"method": "rhf"
			},
			{
				"type": "occ",
				"energy": -0.36962,
				"method": "rhf"
			},
			{
				"type": "occ",
				"energy": -0.36275,
				"method": "rhf"
			},
			{
				"type": "occ",
				"energy": -0.24826,
				"method": "rhf"
			},
			{
				"type": "occ",
				"energy": -0.24254,
				"method": "rhf"
			},
			{
				"type": "unocc",
				"energy": -0.00975,
				"method": "rhf"
			},
			{
				"type": "unocc",
				"energy": 0.00993,
				"method": "rhf"
			},
			{
				"type": "unocc",
				"energy": 0.09178,
				"method": "rhf"
			},
			{
				"type": "unocc",
				"energy": 0.09458,
				"method": "rhf"
			},
			{
				"type": "unocc",
				"energy": 0.12639,
				"method": "rhf"
			}
		],
		"cosmo_sigma_profile": { 
			"-0.025": 0.0,
			"-0.024": 0.0,
			"-0.023": 0.0,
			"-0.022": 0.0,
			"-0.021": 0.0,
			"-0.02": 0.0,
			"-0.019": 0.0,
			"-0.018": 0.0,
			"-0.017": 0.0,
			"-0.016": 0.0,
			"-0.015": 0.0,
			"-0.014": 0.0,
			"-0.013": 0.0,
			"-0.012": 0.0,
			"-0.011": 0.0,
			"-0.01": 0.0,
			"-0.009": 0.0,
			"-0.008": 0.00535842482702,
			"-0.007": 3.90519150305,
			"-0.006": 6.17131997655,
			"-0.005": 8.94974868521,
			"-0.004": 15.2178784322,
			"-0.003": 10.5209760828,
			"-0.002": 9.25001868417,
			"-0.001": 9.92939286026,
			"0.0": 11.3862907528,
			"0.001": 10.6314726482,
			"0.002": 8.7780577265,
			"0.003": 7.51453771656,
			"0.004": 5.50179727933,
			"0.005": 6.4306435945,
			"0.006": 11.1965238717,
			"0.007": 8.188730821,
			"0.008": 0.0231710404398,
			"0.009": 0.0,
			"0.01": 0.0,
			"0.011": 0.0,
			"0.012": 0.0,
			"0.013": 0.0,
			"0.014": 0.0,
			"0.015": 0.0,
			"0.016": 0.0,
			"0.017": 0.0,
			"0.018": 0.0,
			"0.019": 0.0,
			"0.02": 0.0,
			"0.021": 0.0,
			"0.022": 0.0,
			"0.023": 0.0,
			"0.024": 0.0,
			"0.025": 0.0
		}
	}
}
