{
	 "smiles": "C1=CC2=CC3=CC=C4C=CC=C5C6=CC=CC=C6C(=C2C=C1)C3=C45", 
	 "Tm": 435.15, 
	 "num_atms": 38, 
	 "gaussian": { 
		 "optdone": 1, 
		 "sigma_profile": "yes", 
		 "theory": "DFT", 
		 "functional": "B3LYP", 
		 "basiset": "6-31G**", 
		 "properties": { 
			 "R2extent": 7839.0598, 
			 "electric_dipole_moment_norm": 0.0545459439372, 
			 "electric_quadrupole_moment_norm": 16.4699871736, 
			 "total_energy": -923.048635262, 
			 "HOMO_LUMO_gap": 0.12521, 
			 "cosmo_polarized_energy": -8.12, 
			 "cosmo_cavitation_energy": 39.28, 
			 "cosmo_dispersion_energy": -29.52, 
			 "cosmo_repulsion_energy": 2.09, 
			 "cosmo_total_nonelectrostatic_energy": 11.84, 
			 "SMD_solvation_energy": 5.02 
		},
		"coords": [
			{
				"x": -3.0011397126,
				"y": -3.6992194582,
				"z": -2.9676193896,
				"element": "C" 
			},
			{
				"x": -1.9821205033,
				"y": -3.0391312147,
				"z": -3.6088836855,
				"element": "C" 
			},
			{
				"x": -1.031157634,
				"y": -2.2665571667,
				"z": -2.8823360853,
				"element": "C" 
			},
			{
				"x": 0.091088502,
				"y": -1.7185353026,
				"z": -3.5341010355,
				"element": "C" 
			},
			{
				"x": 1.1035463087,
				"y": -1.0967063906,
				"z": -2.822943526,
				"element": "C" 
			},
			{
				"x": 2.3214161705,
				"y": -0.6832606795,
				"z": -3.4721005122,
				"element": "C" 
			},
			{
				"x": 3.3498100921,
				"y": -0.154856072,
				"z": -2.7657371329,
				"element": "C" 
			},
			{
				"x": 3.2546203537,
				"y": 0.0353486995,
				"z": -1.3405778913,
				"element": "C" 
			},
			{
				"x": 4.3471641229,
				"y": 0.5089111545,
				"z": -0.6018257226,
				"element": "C" 
			},
			{
				"x": 4.2506516619,
				"y": 0.6639544705,
				"z": 0.7774594656,
				"element": "C" 
			},
			{
				"x": 3.054397877,
				"y": 0.3869641373,
				"z": 1.4327730417,
				"element": "C" 
			},
			{
				"x": 1.9211851694,
				"y": -0.05925517,
				"z": 0.7301942291,
				"element": "C" 
			},
			{
				"x": 0.6139105458,
				"y": -0.2298524418,
				"z": 1.3616737439,
				"element": "C" 
			},
			{
				"x": 0.377498793,
				"y": 0.2056926577,
				"z": 2.684462945,
				"element": "C" 
			},
			{
				"x": -0.8881842042,
				"y": 0.1929738654,
				"z": 3.2426514978,
				"element": "C" 
			},
			{
				"x": -1.9793121038,
				"y": -0.2161340466,
				"z": 2.4642724107,
				"element": "C" 
			},
			{
				"x": -1.7718954991,
				"y": -0.6697162992,
				"z": 1.1733734177,
				"element": "C" 
			},
			{
				"x": -0.4762718869,
				"y": -0.75382568,
				"z": 0.6056167858,
				"element": "C" 
			},
			{
				"x": -0.252032682,
				"y": -1.2519117816,
				"z": -0.7540794083,
				"element": "C" 
			},
			{
				"x": -1.1833218773,
				"y": -2.0974546967,
				"z": -1.4615242911,
				"element": "C" 
			},
			{
				"x": -2.207442091,
				"y": -2.8648428216,
				"z": -0.8310327283,
				"element": "C" 
			},
			{
				"x": -3.0864025044,
				"y": -3.6388335537,
				"z": -1.5564653734,
				"element": "C" 
			},
			{
				"x": 0.9415052013,
				"y": -0.866923752,
				"z": -1.4084205686,
				"element": "C" 
			},
			{
				"x": 2.0306856189,
				"y": -0.2775890316,
				"z": -0.6712719056,
				"element": "C" 
			},
			{
				"x": -3.7121254617,
				"y": -4.2960594826,
				"z": -3.5313242048,
				"element": "H" 
			},
			{
				"x": -1.861862211,
				"y": -3.1206121958,
				"z": -4.6861181713,
				"element": "H" 
			},
			{
				"x": 0.1938753121,
				"y": -1.8506959036,
				"z": -4.6085534121,
				"element": "H" 
			},
			{
				"x": 2.4044199405,
				"y": -0.8350265936,
				"z": -4.5450062359,
				"element": "H" 
			},
			{
				"x": 4.2759693748,
				"y": 0.12604435,
				"z": -3.260102863,
				"element": "H" 
			},
			{
				"x": 5.2753508874,
				"y": 0.7390741308,
				"z": -1.1179961581,
				"element": "H" 
			},
			{
				"x": 5.1078365701,
				"y": 1.0103395665,
				"z": 1.347450694,
				"element": "H" 
			},
			{
				"x": 3.0095048264,
				"y": 0.524098638,
				"z": 2.5067486214,
				"element": "H" 
			},
			{
				"x": 1.1976160054,
				"y": 0.6004674495,
				"z": 3.272524132,
				"element": "H" 
			},
			{
				"x": -1.0371604968,
				"y": 0.5425291419,
				"z": 4.2600438901,
				"element": "H" 
			},
			{
				"x": -2.9890248628,
				"y": -0.158255232,
				"z": 2.8601866492,
				"element": "H" 
			},
			{
				"x": -2.6319157475,
				"y": -0.9204619771,
				"z": 0.5673740819,
				"element": "H" 
			},
			{
				"x": -2.2659379033,
				"y": -2.8866412959,
				"z": 0.2490024164,
				"element": "H" 
			},
			{
				"x": -3.8395459525,
				"y": -4.223840022,
				"z": -1.0364877208,
				"element": "H" 
			}
		],
		 "valence_orbital": [ 
			{
				"type": "occ",
				"energy": -0.25301,
				"method": "rhf"
			},
			{
				"type": "occ",
				"energy": -0.24666,
				"method": "rhf"
			},
			{
				"type": "occ",
				"energy": -0.24171,
				"method": "rhf"
			},
			{
				"type": "occ",
				"energy": -0.2122,
				"method": "rhf"
			},
			{
				"type": "occ",
				"energy": -0.18898,
				"method": "rhf"
			},
			{
				"type": "unocc",
				"energy": -0.06377,
				"method": "rhf"
			},
			{
				"type": "unocc",
				"energy": -0.04104,
				"method": "rhf"
			},
			{
				"type": "unocc",
				"energy": -0.01478,
				"method": "rhf"
			},
			{
				"type": "unocc",
				"energy": -0.0081,
				"method": "rhf"
			},
			{
				"type": "unocc",
				"energy": 0.00285,
				"method": "rhf"
			}
		],
		"cosmo_sigma_profile": { 
			"-0.025": 0.0,
			"-0.024": 0.0,
			"-0.023": 0.0,
			"-0.022": 0.0,
			"-0.021": 0.0,
			"-0.02": 0.0,
			"-0.019": 0.0,
			"-0.018": 0.0,
			"-0.017": 0.0,
			"-0.016": 0.0,
			"-0.015": 0.0,
			"-0.014": 0.0,
			"-0.013": 0.0,
			"-0.012": 0.0,
			"-0.011": 0.0,
			"-0.01": 0.0,
			"-0.009": 0.186521669903,
			"-0.008": 1.41096852066,
			"-0.007": 2.49573896947,
			"-0.006": 21.1346047217,
			"-0.005": 25.0007028091,
			"-0.004": 29.5515038559,
			"-0.003": 22.3482267729,
			"-0.002": 17.3620347275,
			"-0.001": 17.4189258298,
			"0.0": 15.4392593985,
			"0.001": 18.9120509194,
			"0.002": 31.7340146484,
			"0.003": 49.515947176,
			"0.004": 41.1072398665,
			"0.005": 22.8293527332,
			"0.006": 1.30098986391,
			"0.007": 0.0,
			"0.008": 0.0,
			"0.009": 0.0,
			"0.01": 0.0,
			"0.011": 0.0,
			"0.012": 0.0,
			"0.013": 0.0,
			"0.014": 0.0,
			"0.015": 0.0,
			"0.016": 0.0,
			"0.017": 0.0,
			"0.018": 0.0,
			"0.019": 0.0,
			"0.02": 0.0,
			"0.021": 0.0,
			"0.022": 0.0,
			"0.023": 0.0,
			"0.024": 0.0,
			"0.025": 0.0
		}
	}
}
