{
	 "smiles": "CC1(C)CC2=C(SC(N)=N2)C(=O)C1", 
	 "Tm": 486.15, 
	 "num_atms": 25, 
	 "gaussian": { 
		 "optdone": 1, 
		 "sigma_profile": "yes", 
		 "theory": "DFT", 
		 "functional": "B3LYP", 
		 "basiset": "6-31G**", 
		 "properties": { 
			 "R2extent": 3360.9761, 
			 "electric_dipole_moment_norm": 4.05556439845, 
			 "electric_quadrupole_moment_norm": 22.6922224936, 
			 "total_energy": -933.12618521, 
			 "HOMO_LUMO_gap": 0.17079, 
			 "cosmo_polarized_energy": -15.57, 
			 "cosmo_cavitation_energy": 28.72, 
			 "cosmo_dispersion_energy": -21.34, 
			 "cosmo_repulsion_energy": 1.64, 
			 "cosmo_total_nonelectrostatic_energy": 9.03, 
			 "SMD_solvation_energy": 3.18 
		},
		"coords": [
			{
				"x": 1.7017958802,
				"y": -0.3448097811,
				"z": -1.4151502838,
				"element": "C" 
			},
			{
				"x": 1.1307354876,
				"y": -0.1413274304,
				"z": 0.0034721421,
				"element": "C" 
			},
			{
				"x": 2.2828664571,
				"y": -0.2158637372,
				"z": 1.0201607327,
				"element": "C" 
			},
			{
				"x": 0.0942909148,
				"y": -1.2507232954,
				"z": 0.3266104896,
				"element": "C" 
			},
			{
				"x": -1.2040546983,
				"y": -1.0574320298,
				"z": -0.4032538053,
				"element": "C" 
			},
			{
				"x": -1.5993840445,
				"y": 0.1808890882,
				"z": -0.856512612,
				"element": "C" 
			},
			{
				"x": -3.1623679342,
				"y": 0.0564506072,
				"z": -1.652821235,
				"element": "S" 
			},
			{
				"x": -3.1226033527,
				"y": -1.6691383543,
				"z": -1.2868113557,
				"element": "C" 
			},
			{
				"x": -4.1629831922,
				"y": -2.4877201256,
				"z": -1.6113874597,
				"element": "N" 
			},
			{
				"x": -2.0572552312,
				"y": -2.0992449457,
				"z": -0.6454831115,
				"element": "N" 
			},
			{
				"x": -0.8361506401,
				"y": 1.4070365209,
				"z": -0.7154764645,
				"element": "C" 
			},
			{
				"x": -1.1932133896,
				"y": 2.4881149925,
				"z": -1.1705283401,
				"element": "O" 
			},
			{
				"x": 0.4469104749,
				"y": 1.2463908931,
				"z": 0.1052873114,
				"element": "C" 
			},
			{
				"x": 0.9195923131,
				"y": -0.3203297633,
				"z": -2.1794545979,
				"element": "H" 
			},
			{
				"x": 2.427471262,
				"y": 0.4399158808,
				"z": -1.6545700124,
				"element": "H" 
			},
			{
				"x": 2.215305117,
				"y": -1.3096754053,
				"z": -1.4909094072,
				"element": "H" 
			},
			{
				"x": 1.923396804,
				"y": -0.063677559,
				"z": 2.0440805021,
				"element": "H" 
			},
			{
				"x": 2.7784672824,
				"y": -1.1925617069,
				"z": 0.979755723,
				"element": "H" 
			},
			{
				"x": 3.0384108062,
				"y": 0.5496052288,
				"z": 0.8124645899,
				"element": "H" 
			},
			{
				"x": 0.4983504688,
				"y": -2.2411197681,
				"z": 0.0885500259,
				"element": "H" 
			},
			{
				"x": -0.1120548908,
				"y": -1.2568473239,
				"z": 1.4072343246,
				"element": "H" 
			},
			{
				"x": -4.793869208,
				"y": -2.2142921355,
				"z": -2.3483508112,
				"element": "H" 
			},
			{
				"x": -3.9727921243,
				"y": -3.4760957356,
				"z": -1.5257572981,
				"element": "H" 
			},
			{
				"x": 0.1723753312,
				"y": 1.4390929036,
				"z": 1.1531774965,
				"element": "H" 
			},
			{
				"x": 1.1307601066,
				"y": 2.0475629818,
				"z": -0.1924265434,
				"element": "H" 
			}
		],
		 "valence_orbital": [ 
			{
				"type": "occ",
				"energy": -0.3143,
				"method": "rhf"
			},
			{
				"type": "occ",
				"energy": -0.28544,
				"method": "rhf"
			},
			{
				"type": "occ",
				"energy": -0.27799,
				"method": "rhf"
			},
			{
				"type": "occ",
				"energy": -0.23326,
				"method": "rhf"
			},
			{
				"type": "occ",
				"energy": -0.21736,
				"method": "rhf"
			},
			{
				"type": "unocc",
				"energy": -0.04657,
				"method": "rhf"
			},
			{
				"type": "unocc",
				"energy": 0.00811,
				"method": "rhf"
			},
			{
				"type": "unocc",
				"energy": 0.02634,
				"method": "rhf"
			},
			{
				"type": "unocc",
				"energy": 0.06302,
				"method": "rhf"
			},
			{
				"type": "unocc",
				"energy": 0.06907,
				"method": "rhf"
			}
		],
		"cosmo_sigma_profile": { 
			"-0.025": 0.0,
			"-0.024": 0.0,
			"-0.023": 0.0,
			"-0.022": 0.0,
			"-0.021": 0.0,
			"-0.02": 0.0,
			"-0.019": 0.0,
			"-0.018": 0.0,
			"-0.017": 0.0,
			"-0.016": 0.471503099752,
			"-0.015": 2.44237003555,
			"-0.014": 2.39937258474,
			"-0.013": 2.05845830391,
			"-0.012": 2.71613208517,
			"-0.011": 2.5488863154,
			"-0.01": 2.52607903281,
			"-0.009": 1.33943997537,
			"-0.008": 1.91814137603,
			"-0.007": 1.13975207486,
			"-0.006": 2.1163208917,
			"-0.005": 8.33104203619,
			"-0.004": 13.8525650513,
			"-0.003": 23.9706791079,
			"-0.002": 20.6754637574,
			"-0.001": 22.2704172237,
			"0.0": 23.0985781906,
			"0.001": 24.2070640862,
			"0.002": 13.8379471038,
			"0.003": 9.94654589529,
			"0.004": 8.58112620567,
			"0.005": 4.80546948708,
			"0.006": 3.16333132563,
			"0.007": 4.21889809929,
			"0.008": 3.29596873724,
			"0.009": 2.45017553642,
			"0.01": 2.71615745876,
			"0.011": 2.98408972701,
			"0.012": 4.25348173458,
			"0.013": 5.72281486837,
			"0.014": 2.60486544128,
			"0.015": 0.626612132135,
			"0.016": 0.0,
			"0.017": 0.0,
			"0.018": 0.0,
			"0.019": 0.0,
			"0.02": 0.0,
			"0.021": 0.0,
			"0.022": 0.0,
			"0.023": 0.0,
			"0.024": 0.0,
			"0.025": 0.0
		}
	}
}
