{
	 "smiles": "C1CCCCCC1", 
	 "Tm": 265.15, 
	 "num_atms": 21, 
	 "gaussian": { 
		 "optdone": 1, 
		 "sigma_profile": "yes", 
		 "theory": "DFT", 
		 "functional": "B3LYP", 
		 "basiset": "6-31G**", 
		 "properties": { 
			 "R2extent": 946.8101, 
			 "electric_dipole_moment_norm": 0.0011874342087, 
			 "electric_quadrupole_moment_norm": 0.29588283154, 
			 "total_energy": -275.198065579, 
			 "HOMO_LUMO_gap": 0.37718, 
			 "cosmo_polarized_energy": -0.39, 
			 "cosmo_cavitation_energy": 20.48, 
			 "cosmo_dispersion_energy": -15.81, 
			 "cosmo_repulsion_energy": 1.33, 
			 "cosmo_total_nonelectrostatic_energy": 6.01, 
			 "SMD_solvation_energy": 2.41 
		},
		"coords": [
			{
				"x": 1.6378604332,
				"y": -1.0653821956,
				"z": -1.2041728541,
				"element": "C" 
			},
			{
				"x": 1.6057528636,
				"y": 0.4532124964,
				"z": -0.9472235477,
				"element": "C" 
			},
			{
				"x": 0.212032769,
				"y": 1.091530015,
				"z": -0.7704391541,
				"element": "C" 
			},
			{
				"x": -0.8399903877,
				"y": 0.2703769249,
				"z": 0.0041914707,
				"element": "C" 
			},
			{
				"x": -0.3282195557,
				"y": -0.5348049543,
				"z": 1.2136344972,
				"element": "C" 
			},
			{
				"x": 0.247256274,
				"y": -1.9127133211,
				"z": 0.8401129126,
				"element": "C" 
			},
			{
				"x": 1.5826298476,
				"y": -1.9112711875,
				"z": 0.0807777517,
				"element": "C" 
			},
			{
				"x": 0.8276200858,
				"y": -1.3567577874,
				"z": -1.8874448145,
				"element": "H" 
			},
			{
				"x": 2.5716907281,
				"y": -1.3098914744,
				"z": -1.7258677048,
				"element": "H" 
			},
			{
				"x": 2.109344525,
				"y": 0.973354255,
				"z": -1.7715366566,
				"element": "H" 
			},
			{
				"x": 2.216597973,
				"y": 0.6568294307,
				"z": -0.0574189583,
				"element": "H" 
			},
			{
				"x": -0.204953272,
				"y": 1.322932153,
				"z": -1.759259894,
				"element": "H" 
			},
			{
				"x": 0.3478047561,
				"y": 2.0610073838,
				"z": -0.2735738113,
				"element": "H" 
			},
			{
				"x": -1.3340519885,
				"y": -0.4306920088,
				"z": -0.6819019895,
				"element": "H" 
			},
			{
				"x": -1.6272136919,
				"y": 0.960542632,
				"z": 0.332200514,
				"element": "H" 
			},
			{
				"x": -1.1665805361,
				"y": -0.6978619116,
				"z": 1.9025175265,
				"element": "H" 
			},
			{
				"x": 0.4138897313,
				"y": 0.0481047934,
				"z": 1.7772956356,
				"element": "H" 
			},
			{
				"x": -0.5057281138,
				"y": -2.4438150026,
				"z": 0.2398180015,
				"element": "H" 
			},
			{
				"x": 0.3755721355,
				"y": -2.5066487236,
				"z": 1.754629835,
				"element": "H" 
			},
			{
				"x": 2.3772382099,
				"y": -1.5581271429,
				"z": 0.7540590825,
				"element": "H" 
			},
			{
				"x": 1.8368472138,
				"y": -2.9509243745,
				"z": -0.1642978423,
				"element": "H" 
			}
		],
		 "valence_orbital": [ 
			{
				"type": "occ",
				"energy": -0.32019,
				"method": "rhf"
			},
			{
				"type": "occ",
				"energy": -0.31421,
				"method": "rhf"
			},
			{
				"type": "occ",
				"energy": -0.30249,
				"method": "rhf"
			},
			{
				"type": "occ",
				"energy": -0.29714,
				"method": "rhf"
			},
			{
				"type": "occ",
				"energy": -0.297,
				"method": "rhf"
			},
			{
				"type": "unocc",
				"energy": 0.08018,
				"method": "rhf"
			},
			{
				"type": "unocc",
				"energy": 0.10913,
				"method": "rhf"
			},
			{
				"type": "unocc",
				"energy": 0.11961,
				"method": "rhf"
			},
			{
				"type": "unocc",
				"energy": 0.13712,
				"method": "rhf"
			},
			{
				"type": "unocc",
				"energy": 0.13726,
				"method": "rhf"
			}
		],
		"cosmo_sigma_profile": { 
			"-0.025": 0.0,
			"-0.024": 0.0,
			"-0.023": 0.0,
			"-0.022": 0.0,
			"-0.021": 0.0,
			"-0.02": 0.0,
			"-0.019": 0.0,
			"-0.018": 0.0,
			"-0.017": 0.0,
			"-0.016": 0.0,
			"-0.015": 0.0,
			"-0.014": 0.0,
			"-0.013": 0.0,
			"-0.012": 0.0,
			"-0.011": 0.0,
			"-0.01": 0.0,
			"-0.009": 0.0,
			"-0.008": 0.0,
			"-0.007": 0.0,
			"-0.006": 0.0,
			"-0.005": 0.0,
			"-0.004": 0.0,
			"-0.003": 0.131167484874,
			"-0.002": 15.6302029106,
			"-0.001": 39.1658465415,
			"0.0": 46.210051291,
			"0.001": 37.8030084864,
			"0.002": 17.1333627849,
			"0.003": 0.00471376176583,
			"0.004": 0.0,
			"0.005": 0.0,
			"0.006": 0.0,
			"0.007": 0.0,
			"0.008": 0.0,
			"0.009": 0.0,
			"0.01": 0.0,
			"0.011": 0.0,
			"0.012": 0.0,
			"0.013": 0.0,
			"0.014": 0.0,
			"0.015": 0.0,
			"0.016": 0.0,
			"0.017": 0.0,
			"0.018": 0.0,
			"0.019": 0.0,
			"0.02": 0.0,
			"0.021": 0.0,
			"0.022": 0.0,
			"0.023": 0.0,
			"0.024": 0.0,
			"0.025": 0.0
		}
	}
}
