{
	 "smiles": "OP(=O)(OC1=CC=C(C=C1)[N+]([O-])=O)OC1=CC=C(C=C1)[N+]([O-])=O", 
	 "Tm": 447.15, 
	 "num_atms": 32, 
	 "gaussian": { 
		 "optdone": 1, 
		 "sigma_profile": "yes", 
		 "theory": "DFT", 
		 "functional": "B3LYP", 
		 "basiset": "6-31G**", 
		 "properties": { 
			 "R2extent": 11376.9247, 
			 "electric_dipole_moment_norm": 3.37490528163, 
			 "electric_quadrupole_moment_norm": 40.2592789661, 
			 "total_energy": -1515.21959014, 
			 "HOMO_LUMO_gap": 0.18227, 
			 "cosmo_polarized_energy": -22.71, 
			 "cosmo_cavitation_energy": 41.85, 
			 "cosmo_dispersion_energy": -29.36, 
			 "cosmo_repulsion_energy": 2.22, 
			 "cosmo_total_nonelectrostatic_energy": 14.71, 
			 "SMD_solvation_energy": 13.89 
		},
		"coords": [
			{
				"x": -2.1983940325,
				"y": -1.0306820668,
				"z": 1.5024203108,
				"element": "O" 
			},
			{
				"x": -0.7824919671,
				"y": -1.7717008773,
				"z": 1.2732384937,
				"element": "P" 
			},
			{
				"x": -0.3533956762,
				"y": -2.6556836296,
				"z": 2.3695692516,
				"element": "O" 
			},
			{
				"x": -0.893044275,
				"y": -2.5271839658,
				"z": -0.1431274379,
				"element": "O" 
			},
			{
				"x": -1.2201476483,
				"y": -1.921132599,
				"z": -1.3537809026,
				"element": "C" 
			},
			{
				"x": -0.1889666085,
				"y": -1.6256168381,
				"z": -2.2463245738,
				"element": "C" 
			},
			{
				"x": -0.5016468178,
				"y": -1.0875588604,
				"z": -3.4904361458,
				"element": "C" 
			},
			{
				"x": -1.8402263421,
				"y": -0.8598725646,
				"z": -3.8074672459,
				"element": "C" 
			},
			{
				"x": -2.8737089603,
				"y": -1.1568310923,
				"z": -2.9207384415,
				"element": "C" 
			},
			{
				"x": -2.558896322,
				"y": -1.6972817553,
				"z": -1.6775066913,
				"element": "C" 
			},
			{
				"x": -2.1731112349,
				"y": -0.28923718,
				"z": -5.1223225037,
				"element": "N" 
			},
			{
				"x": -3.3619220928,
				"y": -0.1005816006,
				"z": -5.3761025802,
				"element": "O" 
			},
			{
				"x": -1.241521831,
				"y": -0.0354760852,
				"z": -5.8844769255,
				"element": "O" 
			},
			{
				"x": 0.175281916,
				"y": -0.5395186366,
				"z": 0.8407409107,
				"element": "O" 
			},
			{
				"x": 0.6172291839,
				"y": 0.443535796,
				"z": 1.7211476292,
				"element": "C" 
			},
			{
				"x": 0.6085538897,
				"y": 1.7549609512,
				"z": 1.2424387302,
				"element": "C" 
			},
			{
				"x": 1.0887545237,
				"y": 2.7781833291,
				"z": 2.0518214052,
				"element": "C" 
			},
			{
				"x": 1.5639516083,
				"y": 2.4621965907,
				"z": 3.3241861837,
				"element": "C" 
			},
			{
				"x": 1.5776544019,
				"y": 1.1539179183,
				"z": 3.8040359126,
				"element": "C" 
			},
			{
				"x": 1.1038548813,
				"y": 0.1269223215,
				"z": 2.9925307809,
				"element": "C" 
			},
			{
				"x": 2.0682287854,
				"y": 3.5427737304,
				"z": 4.1841750038,
				"element": "N" 
			},
			{
				"x": 2.0496029945,
				"y": 4.6865981187,
				"z": 3.7308297928,
				"element": "O" 
			},
			{
				"x": 2.4765764721,
				"y": 3.2364748299,
				"z": 5.3035970161,
				"element": "O" 
			},
			{
				"x": -2.6653490732,
				"y": -1.4292757783,
				"z": 2.2518139987,
				"element": "H" 
			},
			{
				"x": 0.8374610752,
				"y": -1.8208919906,
				"z": -1.9584873353,
				"element": "H" 
			},
			{
				"x": 0.266312751,
				"y": -0.8440176274,
				"z": -4.2136119106,
				"element": "H" 
			},
			{
				"x": -3.8983123838,
				"y": -0.966420006,
				"z": -3.2139211542,
				"element": "H" 
			},
			{
				"x": -3.3344749224,
				"y": -1.9444932873,
				"z": -0.9627355549,
				"element": "H" 
			},
			{
				"x": 0.2271985989,
				"y": 1.9551946129,
				"z": 0.247608028,
				"element": "H" 
			},
			{
				"x": 1.0982346783,
				"y": 3.8084291977,
				"z": 1.7194032538,
				"element": "H" 
			},
			{
				"x": 1.9627026879,
				"y": 0.9553617309,
				"z": 4.7963021097,
				"element": "H" 
			},
			{
				"x": 1.1107117399,
				"y": -0.9028926863,
				"z": 3.3301805918,
				"element": "H" 
			}
		],
		 "valence_orbital": [ 
			{
				"type": "occ",
				"energy": -0.29798,
				"method": "rhf"
			},
			{
				"type": "occ",
				"energy": -0.29703,
				"method": "rhf"
			},
			{
				"type": "occ",
				"energy": -0.29366,
				"method": "rhf"
			},
			{
				"type": "occ",
				"energy": -0.29011,
				"method": "rhf"
			},
			{
				"type": "occ",
				"energy": -0.28285,
				"method": "rhf"
			},
			{
				"type": "unocc",
				"energy": -0.10058,
				"method": "rhf"
			},
			{
				"type": "unocc",
				"energy": -0.0965,
				"method": "rhf"
			},
			{
				"type": "unocc",
				"energy": -0.04632,
				"method": "rhf"
			},
			{
				"type": "unocc",
				"energy": -0.04376,
				"method": "rhf"
			},
			{
				"type": "unocc",
				"energy": -0.01436,
				"method": "rhf"
			}
		],
		"cosmo_sigma_profile": { 
			"-0.025": 0.0,
			"-0.024": 0.0,
			"-0.023": 0.0,
			"-0.022": 0.0,
			"-0.021": 0.0306867566268,
			"-0.02": 0.813013574751,
			"-0.019": 1.22852658927,
			"-0.018": 1.06467588255,
			"-0.017": 0.839017483541,
			"-0.016": 0.603169733184,
			"-0.015": 0.834095662663,
			"-0.014": 0.847709413568,
			"-0.013": 0.93740582779,
			"-0.012": 0.914002243096,
			"-0.011": 0.693913026597,
			"-0.01": 0.812107184534,
			"-0.009": 2.53988410358,
			"-0.008": 11.6442210759,
			"-0.007": 15.9226602528,
			"-0.006": 16.0085094893,
			"-0.005": 13.665737437,
			"-0.004": 17.684501565,
			"-0.003": 18.9368043672,
			"-0.002": 23.6884769108,
			"-0.001": 32.8995466968,
			"0.0": 37.6418266082,
			"0.001": 23.1463274296,
			"0.002": 11.9263906136,
			"0.003": 8.49331904912,
			"0.004": 9.77003519725,
			"0.005": 9.30374170819,
			"0.006": 11.4498659823,
			"0.007": 19.8025534075,
			"0.008": 15.6144537166,
			"0.009": 9.75930996466,
			"0.01": 5.72550913449,
			"0.011": 1.85040298003,
			"0.012": 4.09818452926,
			"0.013": 3.4368445619,
			"0.014": 0.0581770718758,
			"0.015": 0.0,
			"0.016": 0.0,
			"0.017": 0.0,
			"0.018": 0.0,
			"0.019": 0.0,
			"0.02": 0.0,
			"0.021": 0.0,
			"0.022": 0.0,
			"0.023": 0.0,
			"0.024": 0.0,
			"0.025": 0.0
		}
	}
}
