{
	 "smiles": "NS(=O)(=O)C1=CC=C(NCC(O)=O)C=C1", 
	 "Tm": 513.15, 
	 "num_atms": 25, 
	 "gaussian": { 
		 "optdone": 1, 
		 "sigma_profile": "yes", 
		 "theory": "DFT", 
		 "functional": "B3LYP", 
		 "basiset": "6-31G**", 
		 "properties": { 
			 "R2extent": 5443.9524, 
			 "electric_dipole_moment_norm": 8.33916893341, 
			 "electric_quadrupole_moment_norm": 30.6027576586, 
			 "total_energy": -1119.40605755, 
			 "HOMO_LUMO_gap": 0.19859, 
			 "cosmo_polarized_energy": -28.9, 
			 "cosmo_cavitation_energy": 31.51, 
			 "cosmo_dispersion_energy": -23.07, 
			 "cosmo_repulsion_energy": 1.79, 
			 "cosmo_total_nonelectrostatic_energy": 10.22, 
			 "SMD_solvation_energy": 5.35 
		},
		"coords": [
			{
				"x": 0.401867169,
				"y": -2.2532764222,
				"z": -3.8881461009,
				"element": "N" 
			},
			{
				"x": 0.0124900103,
				"y": -0.6192577323,
				"z": -4.054424367,
				"element": "S" 
			},
			{
				"x": -1.1102100765,
				"y": -0.5856368765,
				"z": -4.9916220363,
				"element": "O" 
			},
			{
				"x": 1.2850705416,
				"y": 0.0553775589,
				"z": -4.3101424102,
				"element": "O" 
			},
			{
				"x": -0.5900504132,
				"y": -0.0532779301,
				"z": -2.4693298221,
				"element": "C" 
			},
			{
				"x": -1.9508747329,
				"y": -0.1633818015,
				"z": -2.1587895682,
				"element": "C" 
			},
			{
				"x": -2.4090107477,
				"y": 0.2483442339,
				"z": -0.9172993372,
				"element": "C" 
			},
			{
				"x": -1.5233604237,
				"y": 0.7807860344,
				"z": 0.0439759529,
				"element": "C" 
			},
			{
				"x": -2.041920137,
				"y": 1.2294533908,
				"z": 1.2532638957,
				"element": "N" 
			},
			{
				"x": -1.2121862039,
				"y": 1.5183516967,
				"z": 2.3932913888,
				"element": "C" 
			},
			{
				"x": -0.6171731376,
				"y": 0.2792793283,
				"z": 3.0658214615,
				"element": "C" 
			},
			{
				"x": 0.3402289791,
				"y": 0.6272381591,
				"z": 3.9545261461,
				"element": "O" 
			},
			{
				"x": -0.968290016,
				"y": -0.8595928683,
				"z": 2.8671875076,
				"element": "O" 
			},
			{
				"x": -0.1589244423,
				"y": 0.8911996745,
				"z": -0.2874142739,
				"element": "C" 
			},
			{
				"x": 0.2991541319,
				"y": 0.4817779831,
				"z": -1.5359468407,
				"element": "C" 
			},
			{
				"x": 1.1580739428,
				"y": -2.4019524338,
				"z": -3.2267340156,
				"element": "H" 
			},
			{
				"x": -0.4128425559,
				"y": -2.8223213966,
				"z": -3.6787284314,
				"element": "H" 
			},
			{
				"x": -2.6430145783,
				"y": -0.5488339932,
				"z": -2.9001298455,
				"element": "H" 
			},
			{
				"x": -3.4676320929,
				"y": 0.1757052465,
				"z": -0.6815621023,
				"element": "H" 
			},
			{
				"x": -2.9352124573,
				"y": 0.8202713905,
				"z": 1.4891411466,
				"element": "H" 
			},
			{
				"x": -1.8117261564,
				"y": 2.0407040526,
				"z": 3.1478744915,
				"element": "H" 
			},
			{
				"x": -0.4065173542,
				"y": 2.2089315185,
				"z": 2.1293525087,
				"element": "H" 
			},
			{
				"x": 0.6460285801,
				"y": -0.1954761172,
				"z": 4.3730368164,
				"element": "H" 
			},
			{
				"x": 0.5521197577,
				"y": 1.3004082367,
				"z": 0.4211964772,
				"element": "H" 
			},
			{
				"x": 1.3471124129,
				"y": 0.5904790673,
				"z": -1.7951986416,
				"element": "H" 
			}
		],
		 "valence_orbital": [ 
			{
				"type": "occ",
				"energy": -0.29487,
				"method": "rhf"
			},
			{
				"type": "occ",
				"energy": -0.29429,
				"method": "rhf"
			},
			{
				"type": "occ",
				"energy": -0.29228,
				"method": "rhf"
			},
			{
				"type": "occ",
				"energy": -0.26964,
				"method": "rhf"
			},
			{
				"type": "occ",
				"energy": -0.22278,
				"method": "rhf"
			},
			{
				"type": "unocc",
				"energy": -0.02419,
				"method": "rhf"
			},
			{
				"type": "unocc",
				"energy": -0.0214,
				"method": "rhf"
			},
			{
				"type": "unocc",
				"energy": -0.00805,
				"method": "rhf"
			},
			{
				"type": "unocc",
				"energy": 0.05686,
				"method": "rhf"
			},
			{
				"type": "unocc",
				"energy": 0.0594,
				"method": "rhf"
			}
		],
		"cosmo_sigma_profile": { 
			"-0.025": 0.0,
			"-0.024": 0.0,
			"-0.023": 0.0,
			"-0.022": 0.0,
			"-0.021": 0.0,
			"-0.02": 0.0,
			"-0.019": 0.222137860021,
			"-0.018": 0.954854049529,
			"-0.017": 1.00269899196,
			"-0.016": 1.23548672652,
			"-0.015": 1.49428787663,
			"-0.014": 4.12722743111,
			"-0.013": 4.33020063488,
			"-0.012": 5.1096299812,
			"-0.011": 5.13088476089,
			"-0.01": 4.8836440412,
			"-0.009": 6.98842071835,
			"-0.008": 9.50084509176,
			"-0.007": 10.156753694,
			"-0.006": 12.3388217025,
			"-0.005": 14.1711052468,
			"-0.004": 9.4608643921,
			"-0.003": 8.96684229172,
			"-0.002": 10.2653587999,
			"-0.001": 7.84771418596,
			"0.0": 7.34388337034,
			"0.001": 8.55748404998,
			"0.002": 10.5666963654,
			"0.003": 15.6317609678,
			"0.004": 16.8023706534,
			"0.005": 7.86239056753,
			"0.006": 6.38175034496,
			"0.007": 5.93741184274,
			"0.008": 8.85209758033,
			"0.009": 8.33786065796,
			"0.01": 8.69903355122,
			"0.011": 14.7611400802,
			"0.012": 11.0153698253,
			"0.013": 1.05388772681,
			"0.014": 0.0,
			"0.015": 0.0,
			"0.016": 0.0,
			"0.017": 0.0,
			"0.018": 0.0,
			"0.019": 0.0,
			"0.02": 0.0,
			"0.021": 0.0,
			"0.022": 0.0,
			"0.023": 0.0,
			"0.024": 0.0,
			"0.025": 0.0
		}
	}
}
