{
	 "smiles": "CC1=CC(F)=C(C=C1)N1CC(CC1=O)C(O)=O", 
	 "Tm": 386.15, 
	 "num_atms": 29, 
	 "gaussian": { 
		 "optdone": 1, 
		 "sigma_profile": "yes", 
		 "theory": "DFT", 
		 "functional": "B3LYP", 
		 "basiset": "6-31G**", 
		 "properties": { 
			 "R2extent": 4613.6826, 
			 "electric_dipole_moment_norm": 6.1046995872, 
			 "electric_quadrupole_moment_norm": 19.9751804295, 
			 "total_energy": -844.792850076, 
			 "HOMO_LUMO_gap": 0.21604, 
			 "cosmo_polarized_energy": -19.68, 
			 "cosmo_cavitation_energy": 32.88, 
			 "cosmo_dispersion_energy": -23.15, 
			 "cosmo_repulsion_energy": 1.78, 
			 "cosmo_total_nonelectrostatic_energy": 11.51, 
			 "SMD_solvation_energy": 7.58 
		},
		"coords": [
			{
				"x": 0.6085764737,
				"y": 1.4821118234,
				"z": 4.4333422419,
				"element": "C" 
			},
			{
				"x": 0.4083413064,
				"y": 0.9676229071,
				"z": 3.0280420421,
				"element": "C" 
			},
			{
				"x": 1.4605519436,
				"y": 1.0119409128,
				"z": 2.1020340188,
				"element": "C" 
			},
			{
				"x": 1.2679928924,
				"y": 0.5172896947,
				"z": 0.8232211624,
				"element": "C" 
			},
			{
				"x": 2.272452466,
				"y": 0.6026249193,
				"z": -0.0790868128,
				"element": "F" 
			},
			{
				"x": 0.0570682365,
				"y": -0.0458585404,
				"z": 0.4111238825,
				"element": "C" 
			},
			{
				"x": -0.9896804028,
				"y": -0.0858900552,
				"z": 1.3338878872,
				"element": "C" 
			},
			{
				"x": -0.8168533863,
				"y": 0.4227892821,
				"z": 2.6214175391,
				"element": "C" 
			},
			{
				"x": -0.0590616665,
				"y": -0.5290985727,
				"z": -0.9180057848,
				"element": "N" 
			},
			{
				"x": -1.027026291,
				"y": -0.0090043426,
				"z": -1.8885050875,
				"element": "C" 
			},
			{
				"x": -0.4870706029,
				"y": -0.5484647349,
				"z": -3.2366508901,
				"element": "C" 
			},
			{
				"x": 0.2029129693,
				"y": -1.8708842736,
				"z": -2.8253554715,
				"element": "C" 
			},
			{
				"x": 0.6096431128,
				"y": -1.6679389048,
				"z": -1.3658295898,
				"element": "C" 
			},
			{
				"x": 1.3662643865,
				"y": -2.3467838172,
				"z": -0.7043655727,
				"element": "O" 
			},
			{
				"x": 0.4877898862,
				"y": 0.4229269165,
				"z": -3.9102500888,
				"element": "C" 
			},
			{
				"x": 1.4782196738,
				"y": 0.9373021762,
				"z": -3.1424141103,
				"element": "O" 
			},
			{
				"x": 0.4017463637,
				"y": 0.7229032236,
				"z": -5.0757083556,
				"element": "O" 
			},
			{
				"x": 1.1871859925,
				"y": 0.7693775616,
				"z": 5.0331782621,
				"element": "H" 
			},
			{
				"x": -0.3471568921,
				"y": 1.6404899557,
				"z": 4.9397182092,
				"element": "H" 
			},
			{
				"x": 1.1573145546,
				"y": 2.4292077439,
				"z": 4.4382131367,
				"element": "H" 
			},
			{
				"x": 2.4256746434,
				"y": 1.4357942271,
				"z": 2.3605505551,
				"element": "H" 
			},
			{
				"x": -1.9397724144,
				"y": -0.5215188606,
				"z": 1.0398713731,
				"element": "H" 
			},
			{
				"x": -1.643967601,
				"y": 0.3850364895,
				"z": 3.3242219105,
				"element": "H" 
			},
			{
				"x": -2.0393725665,
				"y": -0.3893201221,
				"z": -1.6961041921,
				"element": "H" 
			},
			{
				"x": -1.0637288602,
				"y": 1.0834964457,
				"z": -1.8464750961,
				"element": "H" 
			},
			{
				"x": -1.290546482,
				"y": -0.7061649297,
				"z": -3.9562357773,
				"element": "H" 
			},
			{
				"x": 1.0721186181,
				"y": -2.1361605983,
				"z": -3.4310910368,
				"element": "H" 
			},
			{
				"x": -0.4983230178,
				"y": -2.7118249587,
				"z": -2.8745308525,
				"element": "H" 
			},
			{
				"x": 1.443106664,
				"y": 0.6206984316,
				"z": -2.223713502,
				"element": "H" 
			}
		],
		 "valence_orbital": [ 
			{
				"type": "occ",
				"energy": -0.28518,
				"method": "rhf"
			},
			{
				"type": "occ",
				"energy": -0.26998,
				"method": "rhf"
			},
			{
				"type": "occ",
				"energy": -0.26861,
				"method": "rhf"
			},
			{
				"type": "occ",
				"energy": -0.26226,
				"method": "rhf"
			},
			{
				"type": "occ",
				"energy": -0.24703,
				"method": "rhf"
			},
			{
				"type": "unocc",
				"energy": -0.03099,
				"method": "rhf"
			},
			{
				"type": "unocc",
				"energy": -0.01495,
				"method": "rhf"
			},
			{
				"type": "unocc",
				"energy": 0.00035,
				"method": "rhf"
			},
			{
				"type": "unocc",
				"energy": 0.01696,
				"method": "rhf"
			},
			{
				"type": "unocc",
				"energy": 0.06237,
				"method": "rhf"
			}
		],
		"cosmo_sigma_profile": { 
			"-0.025": 0.0,
			"-0.024": 0.0,
			"-0.023": 0.0,
			"-0.022": 0.0,
			"-0.021": 0.0,
			"-0.02": 0.0,
			"-0.019": 0.0,
			"-0.018": 0.0,
			"-0.017": 0.0,
			"-0.016": 0.0,
			"-0.015": 0.0,
			"-0.014": 0.0,
			"-0.013": 0.0,
			"-0.012": 0.145027276362,
			"-0.011": 0.252777103951,
			"-0.01": 0.610598900098,
			"-0.009": 1.37261247045,
			"-0.008": 6.55276850377,
			"-0.007": 21.212725194,
			"-0.006": 21.6629057918,
			"-0.005": 20.8676896053,
			"-0.004": 20.9589966391,
			"-0.003": 17.7161612821,
			"-0.002": 15.0618470398,
			"-0.001": 16.4422789661,
			"0.0": 15.2695050197,
			"0.001": 12.7705471187,
			"0.002": 11.1611996059,
			"0.003": 14.7111759797,
			"0.004": 11.5273425759,
			"0.005": 3.50415563434,
			"0.006": 4.52021855114,
			"0.007": 4.47700227654,
			"0.008": 5.03875071594,
			"0.009": 4.80510696011,
			"0.01": 6.68781546772,
			"0.011": 8.05189687299,
			"0.012": 9.55798111561,
			"0.013": 5.61102267997,
			"0.014": 0.582672560934,
			"0.015": 0.0,
			"0.016": 0.0,
			"0.017": 0.0,
			"0.018": 0.0,
			"0.019": 0.0,
			"0.02": 0.0,
			"0.021": 0.0,
			"0.022": 0.0,
			"0.023": 0.0,
			"0.024": 0.0,
			"0.025": 0.0
		}
	}
}
