{
	 "smiles": "COC1=CC(I)=CC(OC)=C1OC", 
	 "Tm": 359.15, 
	 "num_atms": 24, 
	 "gaussian": { 
		 "optdone": 1, 
		 "sigma_profile": "no", 
		 "theory": "DFT", 
		 "functional": "B3LYP", 
		 "basiset": "6-31G**", 
		 "properties": { 
			 "R2extent": 3000.5444, 
			 "electric_dipole_moment_norm": 3.03378987572, 
			 "electric_quadrupole_moment_norm": 3.67741540623, 
			 "total_energy": -586.590253678, 
			 "HOMO_LUMO_gap": 0.19257, 
			 "cosmo_polarized_energy": -99785.07, 
			 "cosmo_cavitation_energy": 31.13, 
			 "cosmo_dispersion_energy": -23.05, 
			 "cosmo_repulsion_energy": 1.84, 
			 "cosmo_total_nonelectrostatic_energy": 9.91, 
			 "SMD_solvation_energy": 6.79 
		},
		"coords": [
			{
				"x": 1.555690035,
				"y": 1.9862450213,
				"z": -0.4174946966,
				"element": "C" 
			},
			{
				"x": 0.4064129091,
				"y": 1.4261614303,
				"z": 0.2306808873,
				"element": "O" 
			},
			{
				"x": 0.4639061463,
				"y": 0.079151407,
				"z": 0.4847126058,
				"element": "C" 
			},
			{
				"x": 0.4741211786,
				"y": -0.3443736499,
				"z": 1.8175558373,
				"element": "C" 
			},
			{
				"x": 0.4490095083,
				"y": -1.7098640218,
				"z": 2.0959398808,
				"element": "C" 
			},
			{
				"x": 0.4504332947,
				"y": -2.3566023391,
				"z": 4.117539863,
				"element": "I" 
			},
			{
				"x": 0.4375721763,
				"y": -2.660294821,
				"z": 1.0765458972,
				"element": "C" 
			},
			{
				"x": 0.4271629957,
				"y": -2.2312663935,
				"z": -0.2546072952,
				"element": "C" 
			},
			{
				"x": 0.3328886492,
				"y": -3.1786004063,
				"z": -1.242350231,
				"element": "O" 
			},
			{
				"x": 1.4702178856,
				"y": -3.2906812938,
				"z": -2.1074993674,
				"element": "C" 
			},
			{
				"x": 0.4364014993,
				"y": -0.8597447403,
				"z": -0.5604609171,
				"element": "C" 
			},
			{
				"x": 0.4171835992,
				"y": -0.4400668679,
				"z": -1.872030633,
				"element": "O" 
			},
			{
				"x": -0.9059318945,
				"y": -0.2429161105,
				"z": -2.392343639,
				"element": "C" 
			},
			{
				"x": 1.7193131481,
				"y": 1.5327930278,
				"z": -1.3988524499,
				"element": "H" 
			},
			{
				"x": 2.4511150383,
				"y": 1.8579443326,
				"z": 0.2035641151,
				"element": "H" 
			},
			{
				"x": 1.3476777317,
				"y": 3.0518119662,
				"z": -0.5319455984,
				"element": "H" 
			},
			{
				"x": 0.4842599802,
				"y": 0.4050208725,
				"z": 2.5994165671,
				"element": "H" 
			},
			{
				"x": 0.41895549,
				"y": -3.7242426108,
				"z": 1.2782188352,
				"element": "H" 
			},
			{
				"x": 1.2319371137,
				"y": -4.0854900631,
				"z": -2.8169404275,
				"element": "H" 
			},
			{
				"x": 1.6546041604,
				"y": -2.3566809811,
				"z": -2.6451255287,
				"element": "H" 
			},
			{
				"x": 2.3642203611,
				"y": -3.5722021875,
				"z": -1.5369784547,
				"element": "H" 
			},
			{
				"x": -0.7838311173,
				"y": 0.0856012305,
				"z": -3.4264326038,
				"element": "H" 
			},
			{
				"x": -1.4745773529,
				"y": -1.178983205,
				"z": -2.3694667731,
				"element": "H" 
			},
			{
				"x": -1.4354425362,
				"y": 0.5282804035,
				"z": -1.8223458735,
				"element": "H" 
			}
		],
		 "valence_orbital": [ 
			{
				"type": "occ",
				"energy": -0.27158,
				"method": "rhf"
			},
			{
				"type": "occ",
				"energy": -0.27138,
				"method": "rhf"
			},
			{
				"type": "occ",
				"energy": -0.26269,
				"method": "rhf"
			},
			{
				"type": "occ",
				"energy": -0.23982,
				"method": "rhf"
			},
			{
				"type": "occ",
				"energy": -0.22946,
				"method": "rhf"
			},
			{
				"type": "unocc",
				"energy": -0.03689,
				"method": "rhf"
			},
			{
				"type": "unocc",
				"energy": -0.0144,
				"method": "rhf"
			},
			{
				"type": "unocc",
				"energy": -0.00613,
				"method": "rhf"
			},
			{
				"type": "unocc",
				"energy": 0.04715,
				"method": "rhf"
			},
			{
				"type": "unocc",
				"energy": 0.0504,
				"method": "rhf"
			}
		],
		"cosmo_sigma_profile": { 
			"0.0": 0.0,
			"0.0": 0.0,
			"0.0": 0.0,
			"0.0": 0.0,
			"0.0": 0.0,
			"0.0": 0.0,
			"0.0": 0.0,
			"0.0": 0.0,
			"0.0": 0.0,
			"0.0": 0.0,
			"0.0": 0.0,
			"0.0": 0.0,
			"0.0": 0.0,
			"0.0": 0.0,
			"0.0": 0.0,
			"0.0": 0.0,
			"0.0": 0.0,
			"0.0": 0.0,
			"0.0": 0.0,
			"0.0": 0.0,
			"0.0": 0.0,
			"0.0": 0.0,
			"0.0": 0.0,
			"0.0": 0.0,
			"0.0": 0.0,
			"0.0": 0.0,
			"0.0": 0.0,
			"0.0": 0.0,
			"0.0": 0.0,
			"0.0": 0.0,
			"0.0": 0.0,
			"0.0": 0.0,
			"0.0": 0.0,
			"0.0": 0.0,
			"0.0": 0.0,
			"0.0": 0.0,
			"0.0": 0.0,
			"0.0": 0.0,
			"0.0": 0.0,
			"0.0": 0.0,
			"0.0": 0.0,
			"0.0": 0.0,
			"0.0": 0.0,
			"0.0": 0.0,
			"0.0": 0.0,
			"0.0": 0.0,
			"0.0": 0.0,
			"0.0": 0.0,
			"0.0": 0.0,
			"0.0": 0.0,
			"0.0": 0.0
		}
	}
}
