{
	 "smiles": "COC(=O)C1=C(N)SC=C1CC(C)C", 
	 "Tm": 340.15, 
	 "num_atms": 29, 
	 "gaussian": { 
		 "optdone": 1, 
		 "sigma_profile": "yes", 
		 "theory": "DFT", 
		 "functional": "B3LYP", 
		 "basiset": "6-31G**", 
		 "properties": { 
			 "R2extent": 4095.2324, 
			 "electric_dipole_moment_norm": 0.686203883696, 
			 "electric_quadrupole_moment_norm": 10.0689888524, 
			 "total_energy": -993.504558365, 
			 "HOMO_LUMO_gap": 0.17924, 
			 "cosmo_polarized_energy": -8.88, 
			 "cosmo_cavitation_energy": 32.21, 
			 "cosmo_dispersion_energy": -23.86, 
			 "cosmo_repulsion_energy": 1.85, 
			 "cosmo_total_nonelectrostatic_energy": 10.2, 
			 "SMD_solvation_energy": 6.56 
		},
		"coords": [
			{
				"x": 4.2113023808,
				"y": -0.8775420538,
				"z": -1.6487746224,
				"element": "C" 
			},
			{
				"x": 2.9794937532,
				"y": -0.5077155178,
				"z": -1.0134645811,
				"element": "O" 
			},
			{
				"x": 2.6456698182,
				"y": 0.8023195588,
				"z": -1.11396687,
				"element": "C" 
			},
			{
				"x": 3.3735724112,
				"y": 1.5940618628,
				"z": -1.7160441997,
				"element": "O" 
			},
			{
				"x": 1.3935030901,
				"y": 1.1624197789,
				"z": -0.4585748244,
				"element": "C" 
			},
			{
				"x": 0.9839283015,
				"y": 2.5001851988,
				"z": -0.5099845382,
				"element": "C" 
			},
			{
				"x": 1.5823650423,
				"y": 3.5201273792,
				"z": -1.1759996831,
				"element": "N" 
			},
			{
				"x": -0.5053442228,
				"y": 2.7465481824,
				"z": 0.3631064196,
				"element": "S" 
			},
			{
				"x": -0.56883793,
				"y": 1.0471275475,
				"z": 0.8008293504,
				"element": "C" 
			},
			{
				"x": 0.4723840782,
				"y": 0.3237040701,
				"z": 0.3088263952,
				"element": "C" 
			},
			{
				"x": 0.6891577859,
				"y": -1.1641155551,
				"z": 0.5128658812,
				"element": "C" 
			},
			{
				"x": -0.3283128541,
				"y": -2.0022094779,
				"z": 1.3214600629,
				"element": "C" 
			},
			{
				"x": -0.4019203105,
				"y": -1.6287679265,
				"z": 2.8119684792,
				"element": "C" 
			},
			{
				"x": -1.7180372979,
				"y": -2.0963787106,
				"z": 0.6689251751,
				"element": "C" 
			},
			{
				"x": 4.3170370037,
				"y": -1.949139569,
				"z": -1.4772928832,
				"element": "H" 
			},
			{
				"x": 4.176181881,
				"y": -0.6625190741,
				"z": -2.7197251981,
				"element": "H" 
			},
			{
				"x": 5.0530817901,
				"y": -0.3351288892,
				"z": -1.2108494914,
				"element": "H" 
			},
			{
				"x": 2.5002340644,
				"y": 3.2906540419,
				"z": -1.5485537494,
				"element": "H" 
			},
			{
				"x": 1.3697685526,
				"y": 4.47216962,
				"z": -0.9249879733,
				"element": "H" 
			},
			{
				"x": -1.398078338,
				"y": 0.7166702977,
				"z": 1.4034737117,
				"element": "H" 
			},
			{
				"x": 1.6759979698,
				"y": -1.2949729286,
				"z": 0.9730577473,
				"element": "H" 
			},
			{
				"x": 0.7900955426,
				"y": -1.6209705514,
				"z": -0.478985493,
				"element": "H" 
			},
			{
				"x": 0.0892109426,
				"y": -3.0193106204,
				"z": 1.2875966005,
				"element": "H" 
			},
			{
				"x": 0.5963237663,
				"y": -1.6255847021,
				"z": 3.263514195,
				"element": "H" 
			},
			{
				"x": -1.0122593692,
				"y": -2.3557691669,
				"z": 3.3591887721,
				"element": "H" 
			},
			{
				"x": -0.8377967597,
				"y": -0.6405235438,
				"z": 2.9813701292,
				"element": "H" 
			},
			{
				"x": -1.6384153645,
				"y": -2.4239634568,
				"z": -0.3735139234,
				"element": "H" 
			},
			{
				"x": -2.3421116318,
				"y": -2.8239552754,
				"z": 1.1996412712,
				"element": "H" 
			},
			{
				"x": -2.2520940962,
				"y": -1.1424205187,
				"z": 0.6691938403,
				"element": "H" 
			}
		],
		 "valence_orbital": [ 
			{
				"type": "occ",
				"energy": -0.30446,
				"method": "rhf"
			},
			{
				"type": "occ",
				"energy": -0.2945,
				"method": "rhf"
			},
			{
				"type": "occ",
				"energy": -0.27006,
				"method": "rhf"
			},
			{
				"type": "occ",
				"energy": -0.24276,
				"method": "rhf"
			},
			{
				"type": "occ",
				"energy": -0.19422,
				"method": "rhf"
			},
			{
				"type": "unocc",
				"energy": -0.01498,
				"method": "rhf"
			},
			{
				"type": "unocc",
				"energy": 0.01578,
				"method": "rhf"
			},
			{
				"type": "unocc",
				"energy": 0.02128,
				"method": "rhf"
			},
			{
				"type": "unocc",
				"energy": 0.08184,
				"method": "rhf"
			},
			{
				"type": "unocc",
				"energy": 0.09813,
				"method": "rhf"
			}
		],
		"cosmo_sigma_profile": { 
			"-0.025": 0.0,
			"-0.024": 0.0,
			"-0.023": 0.0,
			"-0.022": 0.0,
			"-0.021": 0.0,
			"-0.02": 0.0,
			"-0.019": 0.0,
			"-0.018": 0.0,
			"-0.017": 0.0,
			"-0.016": 0.0,
			"-0.015": 0.444989277502,
			"-0.014": 1.41003993428,
			"-0.013": 1.12585449411,
			"-0.012": 1.34081568932,
			"-0.011": 1.40447199278,
			"-0.01": 1.16022575003,
			"-0.009": 1.92900060254,
			"-0.008": 2.57825487538,
			"-0.007": 3.61301387063,
			"-0.006": 6.56387168927,
			"-0.005": 9.90101502037,
			"-0.004": 10.7220868023,
			"-0.003": 16.4253790292,
			"-0.002": 28.228986974,
			"-0.001": 26.9186347962,
			"0.0": 23.9267279207,
			"0.001": 28.5352663894,
			"0.002": 25.421001243,
			"0.003": 15.8271278472,
			"0.004": 17.7357900979,
			"0.005": 12.6679177003,
			"0.006": 4.63663771526,
			"0.007": 1.73361189422,
			"0.008": 3.00412686273,
			"0.009": 1.87763073956,
			"0.01": 1.46405570779,
			"0.011": 1.49389011474,
			"0.012": 2.2698171081,
			"0.013": 0.827460841276,
			"0.014": 0.0,
			"0.015": 0.0,
			"0.016": 0.0,
			"0.017": 0.0,
			"0.018": 0.0,
			"0.019": 0.0,
			"0.02": 0.0,
			"0.021": 0.0,
			"0.022": 0.0,
			"0.023": 0.0,
			"0.024": 0.0,
			"0.025": 0.0
		}
	}
}
