{
	 "smiles": "OC(=O)C1=C(CSC2=NN=CN2)C2=C(O1)C=CC=C2", 
	 "Tm": 433.15, 
	 "num_atms": 28, 
	 "gaussian": { 
		 "optdone": 1, 
		 "sigma_profile": "yes", 
		 "theory": "DFT", 
		 "functional": "B3LYP", 
		 "basiset": "6-31G**", 
		 "properties": { 
			 "R2extent": 5405.1794, 
			 "electric_dipole_moment_norm": 7.83534938978, 
			 "electric_quadrupole_moment_norm": 25.242429207, 
			 "total_energy": -1250.7920805, 
			 "HOMO_LUMO_gap": 0.13658, 
			 "cosmo_polarized_energy": -24.39, 
			 "cosmo_cavitation_energy": 34.43, 
			 "cosmo_dispersion_energy": -24.99, 
			 "cosmo_repulsion_energy": 1.86, 
			 "cosmo_total_nonelectrostatic_energy": 11.3, 
			 "SMD_solvation_energy": 4.81 
		},
		"coords": [
			{
				"x": -1.2016286922,
				"y": 3.1295282049,
				"z": 1.6189113938,
				"element": "O" 
			},
			{
				"x": -0.2676866251,
				"y": 2.1660471596,
				"z": 1.5581933225,
				"element": "C" 
			},
			{
				"x": 0.7681734575,
				"y": 2.2616817963,
				"z": 2.1992264184,
				"element": "O" 
			},
			{
				"x": -0.5771501949,
				"y": 1.0273892839,
				"z": 0.6862373588,
				"element": "C" 
			},
			{
				"x": 0.0422557878,
				"y": -0.180797814,
				"z": 0.4955506632,
				"element": "C" 
			},
			{
				"x": 1.2549461243,
				"y": -0.6907662448,
				"z": 1.2016767386,
				"element": "C" 
			},
			{
				"x": 2.7527104534,
				"y": -0.9366439132,
				"z": 0.1405906896,
				"element": "S" 
			},
			{
				"x": 3.1141071547,
				"y": 0.7017849487,
				"z": -0.4061918062,
				"element": "C" 
			},
			{
				"x": 3.7423584914,
				"y": 0.9441134654,
				"z": -1.536106564,
				"element": "N" 
			},
			{
				"x": 3.9698725901,
				"y": 2.3071507502,
				"z": -1.5924161278,
				"element": "N" 
			},
			{
				"x": 3.4579106291,
				"y": 2.8304590241,
				"z": -0.5053584435,
				"element": "C" 
			},
			{
				"x": 2.9170492528,
				"y": 1.8625717267,
				"z": 0.2964313119,
				"element": "N" 
			},
			{
				"x": -0.7610680611,
				"y": -0.8759895265,
				"z": -0.4827337253,
				"element": "C" 
			},
			{
				"x": -1.82746739,
				"y": -0.0150336837,
				"z": -0.7976700945,
				"element": "C" 
			},
			{
				"x": -1.7220146454,
				"y": 1.1491935883,
				"z": -0.0839136659,
				"element": "O" 
			},
			{
				"x": -2.8313047456,
				"y": -0.3270786588,
				"z": -1.7072686987,
				"element": "C" 
			},
			{
				"x": -2.7370952607,
				"y": -1.5753486175,
				"z": -2.3174405187,
				"element": "C" 
			},
			{
				"x": -1.6800891878,
				"y": -2.4624662112,
				"z": -2.0263581053,
				"element": "C" 
			},
			{
				"x": -0.6859265405,
				"y": -2.1286276059,
				"z": -1.1155685932,
				"element": "C" 
			},
			{
				"x": -1.9522701293,
				"y": 2.8948971426,
				"z": 1.0484223506,
				"element": "H" 
			},
			{
				"x": 1.0695047049,
				"y": -1.7016010484,
				"z": 1.5791215646,
				"element": "H" 
			},
			{
				"x": 1.5012702599,
				"y": -0.0565038399,
				"z": 2.0529968393,
				"element": "H" 
			},
			{
				"x": 3.4419841882,
				"y": 3.8816345462,
				"z": -0.2550747179,
				"element": "H" 
			},
			{
				"x": 2.3740033041,
				"y": 1.9984952107,
				"z": 1.1478942172,
				"element": "H" 
			},
			{
				"x": -3.6362409803,
				"y": 0.3656083308,
				"z": -1.9253022261,
				"element": "H" 
			},
			{
				"x": -3.4939686687,
				"y": -1.870586558,
				"z": -3.0374144582,
				"element": "H" 
			},
			{
				"x": -1.6423208634,
				"y": -3.4220361862,
				"z": -2.5320174397,
				"element": "H" 
			},
			{
				"x": 0.1345855868,
				"y": -2.8077752701,
				"z": -0.9103176836,
				"element": "H" 
			}
		],
		 "valence_orbital": [ 
			{
				"type": "occ",
				"energy": -0.28913,
				"method": "rhf"
			},
			{
				"type": "occ",
				"energy": -0.26979,
				"method": "rhf"
			},
			{
				"type": "occ",
				"energy": -0.25664,
				"method": "rhf"
			},
			{
				"type": "occ",
				"energy": -0.2466,
				"method": "rhf"
			},
			{
				"type": "occ",
				"energy": -0.22538,
				"method": "rhf"
			},
			{
				"type": "unocc",
				"energy": -0.0888,
				"method": "rhf"
			},
			{
				"type": "unocc",
				"energy": -0.02096,
				"method": "rhf"
			},
			{
				"type": "unocc",
				"energy": -0.01325,
				"method": "rhf"
			},
			{
				"type": "unocc",
				"energy": 0.00717,
				"method": "rhf"
			},
			{
				"type": "unocc",
				"energy": 0.03639,
				"method": "rhf"
			}
		],
		"cosmo_sigma_profile": { 
			"-0.025": 0.0,
			"-0.024": 0.0,
			"-0.023": 0.0,
			"-0.022": 0.0,
			"-0.021": 0.0,
			"-0.02": 0.0,
			"-0.019": 0.0,
			"-0.018": 0.0370808355079,
			"-0.017": 0.554126799774,
			"-0.016": 1.01952909214,
			"-0.015": 0.351948725493,
			"-0.014": 0.472400891456,
			"-0.013": 0.902585380067,
			"-0.012": 1.30108886058,
			"-0.011": 1.47657746854,
			"-0.01": 4.9718426648,
			"-0.009": 7.20536898665,
			"-0.008": 9.69185905201,
			"-0.007": 11.6441076333,
			"-0.006": 16.1190343979,
			"-0.005": 19.819594713,
			"-0.004": 15.7625417511,
			"-0.003": 13.7739929363,
			"-0.002": 16.5845063267,
			"-0.001": 15.8724273982,
			"0.0": 19.43605248,
			"0.001": 16.6724294233,
			"0.002": 18.7759928982,
			"0.003": 18.1590082952,
			"0.004": 13.0260084604,
			"0.005": 6.42876235531,
			"0.006": 6.8280218122,
			"0.007": 5.73865016972,
			"0.008": 5.10563894869,
			"0.009": 6.52413939847,
			"0.01": 4.69983678408,
			"0.011": 4.30131555369,
			"0.012": 3.59154728043,
			"0.013": 3.62192938342,
			"0.014": 3.4061205977,
			"0.015": 2.59431360454,
			"0.016": 2.61779384404,
			"0.017": 0.894570575956,
			"0.018": 0.0,
			"0.019": 0.0,
			"0.02": 0.0,
			"0.021": 0.0,
			"0.022": 0.0,
			"0.023": 0.0,
			"0.024": 0.0,
			"0.025": 0.0
		}
	}
}
