{
	 "smiles": "SC1=NC2=C(C=NN2C2=CC=CC=C2)C(=O)N1", 
	 "Tm": 385.15, 
	 "num_atms": 25, 
	 "gaussian": { 
		 "optdone": 1, 
		 "sigma_profile": "yes", 
		 "theory": "DFT", 
		 "functional": "B3LYP", 
		 "basiset": "6-31G**", 
		 "properties": { 
			 "R2extent": 5222.1313, 
			 "electric_dipole_moment_norm": 3.65852315149, 
			 "electric_quadrupole_moment_norm": 10.7862264889, 
			 "total_energy": -1116.40906398, 
			 "HOMO_LUMO_gap": 0.17754, 
			 "cosmo_polarized_energy": -14.47, 
			 "cosmo_cavitation_energy": 31.74, 
			 "cosmo_dispersion_energy": -24.07, 
			 "cosmo_repulsion_energy": 1.78, 
			 "cosmo_total_nonelectrostatic_energy": 9.45, 
			 "SMD_solvation_energy": 4.33 
		},
		"coords": [
			{
				"x": 3.1912772495,
				"y": -1.6841498425,
				"z": 3.0053840266,
				"element": "S" 
			},
			{
				"x": 2.1908316295,
				"y": -0.5666217302,
				"z": 2.0475399355,
				"element": "C" 
			},
			{
				"x": 1.1783840857,
				"y": -1.010645234,
				"z": 1.3590389081,
				"element": "N" 
			},
			{
				"x": 0.5043830837,
				"y": -0.0376441784,
				"z": 0.6747190517,
				"element": "C" 
			},
			{
				"x": 0.810303908,
				"y": 1.3297112764,
				"z": 0.6630282034,
				"element": "C" 
			},
			{
				"x": -0.1624330938,
				"y": 1.9150361563,
				"z": -0.1785131667,
				"element": "C" 
			},
			{
				"x": -0.9952596115,
				"y": 1.0054379524,
				"z": -0.647932064,
				"element": "N" 
			},
			{
				"x": -0.5934728301,
				"y": -0.2031776674,
				"z": -0.1280358504,
				"element": "N" 
			},
			{
				"x": -1.3309172275,
				"y": -1.3757765156,
				"z": -0.4780663761,
				"element": "C" 
			},
			{
				"x": -2.4310388311,
				"y": -1.2405419485,
				"z": -1.3360058571,
				"element": "C" 
			},
			{
				"x": -3.1675082644,
				"y": -2.3670312594,
				"z": -1.6934820433,
				"element": "C" 
			},
			{
				"x": -2.8219453161,
				"y": -3.6291573016,
				"z": -1.2066663254,
				"element": "C" 
			},
			{
				"x": -1.725711941,
				"y": -3.7531535945,
				"z": -0.3536795598,
				"element": "C" 
			},
			{
				"x": -0.9749748517,
				"y": -2.6369635509,
				"z": 0.0164443648,
				"element": "C" 
			},
			{
				"x": 1.9280216724,
				"y": 1.8246268362,
				"z": 1.4221250496,
				"element": "C" 
			},
			{
				"x": 2.3536171332,
				"y": 2.9600207633,
				"z": 1.5425856995,
				"element": "O" 
			},
			{
				"x": 2.5754476518,
				"y": 0.7444543836,
				"z": 2.105518467,
				"element": "N" 
			},
			{
				"x": 2.4753157161,
				"y": -2.7670936349,
				"z": 2.6538177246,
				"element": "H" 
			},
			{
				"x": -0.2795158107,
				"y": 2.9543212013,
				"z": -0.4523468837,
				"element": "H" 
			},
			{
				"x": -2.6920435891,
				"y": -0.2590882161,
				"z": -1.7087027468,
				"element": "H" 
			},
			{
				"x": -4.0183549476,
				"y": -2.2527525779,
				"z": -2.3587405451,
				"element": "H" 
			},
			{
				"x": -3.399950254,
				"y": -4.503903038,
				"z": -1.4888911335,
				"element": "H" 
			},
			{
				"x": -1.4442302102,
				"y": -4.7282245375,
				"z": 0.0334285948,
				"element": "H" 
			},
			{
				"x": -0.126362966,
				"y": -2.7384419597,
				"z": 0.6777552095,
				"element": "H" 
			},
			{
				"x": 3.3753376151,
				"y": 1.0232582177,
				"z": 2.6621773168,
				"element": "H" 
			}
		],
		 "valence_orbital": [ 
			{
				"type": "occ",
				"energy": -0.29332,
				"method": "rhf"
			},
			{
				"type": "occ",
				"energy": -0.2746,
				"method": "rhf"
			},
			{
				"type": "occ",
				"energy": -0.25583,
				"method": "rhf"
			},
			{
				"type": "occ",
				"energy": -0.24037,
				"method": "rhf"
			},
			{
				"type": "occ",
				"energy": -0.22919,
				"method": "rhf"
			},
			{
				"type": "unocc",
				"energy": -0.05165,
				"method": "rhf"
			},
			{
				"type": "unocc",
				"energy": -0.023,
				"method": "rhf"
			},
			{
				"type": "unocc",
				"energy": -0.02151,
				"method": "rhf"
			},
			{
				"type": "unocc",
				"energy": -0.00832,
				"method": "rhf"
			},
			{
				"type": "unocc",
				"energy": 0.00063,
				"method": "rhf"
			}
		],
		"cosmo_sigma_profile": { 
			"-0.025": 0.0,
			"-0.024": 0.0,
			"-0.023": 0.0,
			"-0.022": 0.0,
			"-0.021": 0.0,
			"-0.02": 0.0,
			"-0.019": 0.0,
			"-0.018": 0.207796615785,
			"-0.017": 0.776340135098,
			"-0.016": 1.26095034986,
			"-0.015": 0.784294059679,
			"-0.014": 1.28899398269,
			"-0.013": 1.51979140024,
			"-0.012": 2.53150962021,
			"-0.011": 1.60212576415,
			"-0.01": 2.29939237121,
			"-0.009": 3.0980674264,
			"-0.008": 3.67897030245,
			"-0.007": 3.43707925354,
			"-0.006": 10.578132212,
			"-0.005": 11.7221422853,
			"-0.004": 17.3963815858,
			"-0.003": 17.0968387448,
			"-0.002": 16.8800060993,
			"-0.001": 19.4225871619,
			"0.0": 23.4032114877,
			"0.001": 20.5332601003,
			"0.002": 19.5398105647,
			"0.003": 18.4641347165,
			"0.004": 17.2372615777,
			"0.005": 16.3222382226,
			"0.006": 5.08910062089,
			"0.007": 2.47193764571,
			"0.008": 2.95904475228,
			"0.009": 2.89804580039,
			"0.01": 2.8612448056,
			"0.011": 2.91207810156,
			"0.012": 5.43978199276,
			"0.013": 3.40470245082,
			"0.014": 0.0811648051062,
			"0.015": 0.0,
			"0.016": 0.0,
			"0.017": 0.0,
			"0.018": 0.0,
			"0.019": 0.0,
			"0.02": 0.0,
			"0.021": 0.0,
			"0.022": 0.0,
			"0.023": 0.0,
			"0.024": 0.0,
			"0.025": 0.0
		}
	}
}
