{
	 "smiles": "BrC1=CC(Br)=C(OC2=C(Br)C(Br)=C(Br)C=C2)C=C1", 
	 "Tm": 393.15, 
	 "num_atms": 23, 
	 "gaussian": { 
		 "optdone": 1, 
		 "sigma_profile": "yes", 
		 "theory": "DFT", 
		 "functional": "B3LYP", 
		 "basiset": "6-31G**", 
		 "properties": { 
			 "R2extent": 17585.8138, 
			 "electric_dipole_moment_norm": 2.27316320136, 
			 "electric_quadrupole_moment_norm": 5.97631490051, 
			 "total_energy": -13392.5044092, 
			 "HOMO_LUMO_gap": 0.19003, 
			 "cosmo_polarized_energy": -8.19, 
			 "cosmo_cavitation_energy": 39.88, 
			 "cosmo_dispersion_energy": -29.74, 
			 "cosmo_repulsion_energy": 2.32, 
			 "cosmo_total_nonelectrostatic_energy": 12.47, 
			 "SMD_solvation_energy": 1.56 
		},
		"coords": [
			{
				"x": -1.7055837201,
				"y": 6.0205361579,
				"z": 0.451492254,
				"element": "Br" 
			},
			{
				"x": -0.7977253087,
				"y": 4.3622235733,
				"z": 0.2012545301,
				"element": "C" 
			},
			{
				"x": 0.0904413486,
				"y": 3.9187462009,
				"z": 1.1779981247,
				"element": "C" 
			},
			{
				"x": 0.7491974918,
				"y": 2.7019046373,
				"z": 0.9987168457,
				"element": "C" 
			},
			{
				"x": 1.9519512022,
				"y": 2.0874106007,
				"z": 2.3340206439,
				"element": "Br" 
			},
			{
				"x": 0.5275500468,
				"y": 1.9405784662,
				"z": -0.1548906004,
				"element": "C" 
			},
			{
				"x": 1.2612670643,
				"y": 0.7918132993,
				"z": -0.3454522418,
				"element": "O" 
			},
			{
				"x": 0.6300147513,
				"y": -0.3871770453,
				"z": -0.6525800762,
				"element": "C" 
			},
			{
				"x": 1.3386311969,
				"y": -1.3147937371,
				"z": -1.4327866513,
				"element": "C" 
			},
			{
				"x": 3.0571061542,
				"y": -0.8229588646,
				"z": -2.0611330602,
				"element": "Br" 
			},
			{
				"x": 0.7691793766,
				"y": -2.5660130471,
				"z": -1.7250389712,
				"element": "C" 
			},
			{
				"x": 1.7172785715,
				"y": -3.8235865017,
				"z": -2.7750014561,
				"element": "Br" 
			},
			{
				"x": -0.51105685,
				"y": -2.8685029282,
				"z": -1.2363715847,
				"element": "C" 
			},
			{
				"x": -1.3640766085,
				"y": -4.5309141585,
				"z": -1.5880172351,
				"element": "Br" 
			},
			{
				"x": -1.2042091141,
				"y": -1.9381550783,
				"z": -0.4634150028,
				"element": "C" 
			},
			{
				"x": -0.63849817,
				"y": -0.7048619163,
				"z": -0.1669801119,
				"element": "C" 
			},
			{
				"x": -0.3609427624,
				"y": 2.4074592149,
				"z": -1.1277173288,
				"element": "C" 
			},
			{
				"x": -1.0315012877,
				"y": 3.6148342014,
				"z": -0.953089985,
				"element": "C" 
			},
			{
				"x": 0.2684416038,
				"y": 4.503063485,
				"z": 2.0716000504,
				"element": "H" 
			},
			{
				"x": -2.1880590869,
				"y": -2.1898528836,
				"z": -0.0861482189,
				"element": "H" 
			},
			{
				"x": -1.174593865,
				"y": 0.0104835757,
				"z": 0.4458566623,
				"element": "H" 
			},
			{
				"x": -0.5161840477,
				"y": 1.8192193305,
				"z": -2.0260710338,
				"element": "H" 
			},
			{
				"x": -1.718327987,
				"y": 3.9752434175,
				"z": -1.7096455527,
				"element": "H" 
			}
		],
		 "valence_orbital": [ 
			{
				"type": "occ",
				"energy": -0.27309,
				"method": "rhf"
			},
			{
				"type": "occ",
				"energy": -0.27025,
				"method": "rhf"
			},
			{
				"type": "occ",
				"energy": -0.25802,
				"method": "rhf"
			},
			{
				"type": "occ",
				"energy": -0.25639,
				"method": "rhf"
			},
			{
				"type": "occ",
				"energy": -0.23812,
				"method": "rhf"
			},
			{
				"type": "unocc",
				"energy": -0.04809,
				"method": "rhf"
			},
			{
				"type": "unocc",
				"energy": -0.04588,
				"method": "rhf"
			},
			{
				"type": "unocc",
				"energy": -0.03882,
				"method": "rhf"
			},
			{
				"type": "unocc",
				"energy": -0.03485,
				"method": "rhf"
			},
			{
				"type": "unocc",
				"energy": -0.02784,
				"method": "rhf"
			}
		],
		"cosmo_sigma_profile": { 
			"-0.025": 0.0,
			"-0.024": 0.0,
			"-0.023": 0.0,
			"-0.022": 0.0,
			"-0.021": 0.0,
			"-0.02": 0.0,
			"-0.019": 0.0,
			"-0.018": 0.0,
			"-0.017": 0.0,
			"-0.016": 0.0,
			"-0.015": 0.0,
			"-0.014": 0.0,
			"-0.013": 0.0,
			"-0.012": 0.0,
			"-0.011": 0.0,
			"-0.01": 0.0,
			"-0.009": 1.66203147906,
			"-0.008": 8.54756780007,
			"-0.007": 10.0304190352,
			"-0.006": 10.6519330539,
			"-0.005": 13.85193507,
			"-0.004": 16.2585506131,
			"-0.003": 15.8038451452,
			"-0.002": 18.4960424585,
			"-0.001": 32.0840929699,
			"0.0": 41.9797888142,
			"0.001": 43.0893068872,
			"0.002": 31.6078335528,
			"0.003": 37.4863640698,
			"0.004": 42.1215412674,
			"0.005": 8.9078603239,
			"0.006": 2.5581018878,
			"0.007": 2.44458243293,
			"0.008": 0.616794788129,
			"0.009": 0.0,
			"0.01": 0.0,
			"0.011": 0.0,
			"0.012": 0.0,
			"0.013": 0.0,
			"0.014": 0.0,
			"0.015": 0.0,
			"0.016": 0.0,
			"0.017": 0.0,
			"0.018": 0.0,
			"0.019": 0.0,
			"0.02": 0.0,
			"0.021": 0.0,
			"0.022": 0.0,
			"0.023": 0.0,
			"0.024": 0.0,
			"0.025": 0.0
		}
	}
}
