{
	 "smiles": "CC1=NC(=NO1)C1=CC=C(Br)C=C1", 
	 "Tm": 371.65, 
	 "num_atms": 20, 
	 "gaussian": { 
		 "optdone": 1, 
		 "sigma_profile": "yes", 
		 "theory": "DFT", 
		 "functional": "B3LYP", 
		 "basiset": "6-31G**", 
		 "properties": { 
			 "R2extent": 6108.3932, 
			 "electric_dipole_moment_norm": 2.75706152634, 
			 "electric_quadrupole_moment_norm": 12.3154691246, 
			 "total_energy": -3103.28065929, 
			 "HOMO_LUMO_gap": 0.18685, 
			 "cosmo_polarized_energy": -7.86, 
			 "cosmo_cavitation_energy": 27.53, 
			 "cosmo_dispersion_energy": -20.95, 
			 "cosmo_repulsion_energy": 1.65, 
			 "cosmo_total_nonelectrostatic_energy": 8.23, 
			 "SMD_solvation_energy": 2.25 
		},
		"coords": [
			{
				"x": -1.7547763427,
				"y": 4.1478306072,
				"z": 0.5400892499,
				"element": "C" 
			},
			{
				"x": -1.329088161,
				"y": 2.7258902475,
				"z": 0.4418031475,
				"element": "C" 
			},
			{
				"x": -0.6478259022,
				"y": 2.1446837441,
				"z": -0.5003540314,
				"element": "N" 
			},
			{
				"x": -0.5622525159,
				"y": 0.8399597756,
				"z": -0.048142874,
				"element": "C" 
			},
			{
				"x": -1.1562111105,
				"y": 0.6285520276,
				"z": 1.1056187713,
				"element": "N" 
			},
			{
				"x": -1.672307583,
				"y": 1.8898820628,
				"z": 1.4396076835,
				"element": "O" 
			},
			{
				"x": 0.1319892197,
				"y": -0.2178527461,
				"z": -0.7929822964,
				"element": "C" 
			},
			{
				"x": 0.7433681683,
				"y": 0.0812008086,
				"z": -2.0180195085,
				"element": "C" 
			},
			{
				"x": 1.4062867006,
				"y": -0.9106658123,
				"z": -2.7379938755,
				"element": "C" 
			},
			{
				"x": 1.4543121452,
				"y": -2.2057663977,
				"z": -2.2247725935,
				"element": "C" 
			},
			{
				"x": 2.3607481447,
				"y": -3.5709229385,
				"z": -3.2057486944,
				"element": "Br" 
			},
			{
				"x": 0.8518466151,
				"y": -2.5245431123,
				"z": -1.0064339214,
				"element": "C" 
			},
			{
				"x": 0.1919591202,
				"y": -1.5283800527,
				"z": -0.2938122422,
				"element": "C" 
			},
			{
				"x": -1.4020682826,
				"y": 4.6886985687,
				"z": -0.3378921399,
				"element": "H" 
			},
			{
				"x": -1.3429790002,
				"y": 4.6113067584,
				"z": 1.4417633334,
				"element": "H" 
			},
			{
				"x": -2.8451603497,
				"y": 4.2199572187,
				"z": 0.5972183104,
				"element": "H" 
			},
			{
				"x": 0.6943678695,
				"y": 1.0951183262,
				"z": -2.3997042998,
				"element": "H" 
			},
			{
				"x": 1.8797319462,
				"y": -0.6814445502,
				"z": -3.6856815414,
				"element": "H" 
			},
			{
				"x": 0.899674141,
				"y": -3.5373644517,
				"z": -0.6234714127,
				"element": "H" 
			},
			{
				"x": -0.2809148228,
				"y": -1.7614400838,
				"z": 0.6544089352,
				"element": "H" 
			}
		],
		 "valence_orbital": [ 
			{
				"type": "occ",
				"energy": -0.30022,
				"method": "rhf"
			},
			{
				"type": "occ",
				"energy": -0.29017,
				"method": "rhf"
			},
			{
				"type": "occ",
				"energy": -0.29002,
				"method": "rhf"
			},
			{
				"type": "occ",
				"energy": -0.26888,
				"method": "rhf"
			},
			{
				"type": "occ",
				"energy": -0.23974,
				"method": "rhf"
			},
			{
				"type": "unocc",
				"energy": -0.05289,
				"method": "rhf"
			},
			{
				"type": "unocc",
				"energy": -0.02,
				"method": "rhf"
			},
			{
				"type": "unocc",
				"energy": -0.00689,
				"method": "rhf"
			},
			{
				"type": "unocc",
				"energy": 0.00459,
				"method": "rhf"
			},
			{
				"type": "unocc",
				"energy": 0.06239,
				"method": "rhf"
			}
		],
		"cosmo_sigma_profile": { 
			"-0.025": 0.0,
			"-0.024": 0.0,
			"-0.023": 0.0,
			"-0.022": 0.0,
			"-0.021": 0.0,
			"-0.02": 0.0,
			"-0.019": 0.0,
			"-0.018": 0.0,
			"-0.017": 0.0,
			"-0.016": 0.0,
			"-0.015": 0.0,
			"-0.014": 0.0,
			"-0.013": 0.0,
			"-0.012": 0.0,
			"-0.011": 0.0,
			"-0.01": 0.0,
			"-0.009": 0.0,
			"-0.008": 2.0172414345,
			"-0.007": 10.5091252762,
			"-0.006": 13.6138064286,
			"-0.005": 13.5751038255,
			"-0.004": 15.7378934425,
			"-0.003": 17.5732133143,
			"-0.002": 13.5640013603,
			"-0.001": 13.648888348,
			"0.0": 17.9720136201,
			"0.001": 21.5571500473,
			"0.002": 25.338546717,
			"0.003": 17.5255369241,
			"0.004": 13.3740337471,
			"0.005": 7.46882261227,
			"0.006": 5.10751910615,
			"0.007": 5.58071900928,
			"0.008": 2.59582459184,
			"0.009": 2.22148750476,
			"0.01": 2.34782699174,
			"0.011": 1.95391613086,
			"0.012": 1.68700364283,
			"0.013": 0.115402612756,
			"0.014": 0.0,
			"0.015": 0.0,
			"0.016": 0.0,
			"0.017": 0.0,
			"0.018": 0.0,
			"0.019": 0.0,
			"0.02": 0.0,
			"0.021": 0.0,
			"0.022": 0.0,
			"0.023": 0.0,
			"0.024": 0.0,
			"0.025": 0.0
		}
	}
}
