{
	 "smiles": "[O-][N+](=O)C1=C(CBr)C=C(Cl)C=C1", 
	 "Tm": 335.15, 
	 "num_atms": 17, 
	 "gaussian": { 
		 "optdone": 1, 
		 "sigma_profile": "yes", 
		 "theory": "DFT", 
		 "functional": "B3LYP", 
		 "basiset": "6-31G**", 
		 "properties": { 
			 "R2extent": 5105.6806, 
			 "electric_dipole_moment_norm": 3.66503185525, 
			 "electric_quadrupole_moment_norm": 7.22374901211, 
			 "total_energy": -3506.45071194, 
			 "HOMO_LUMO_gap": 0.17261, 
			 "cosmo_polarized_energy": -9.86, 
			 "cosmo_cavitation_energy": 26.04, 
			 "cosmo_dispersion_energy": -19.4, 
			 "cosmo_repulsion_energy": 1.55, 
			 "cosmo_total_nonelectrostatic_energy": 8.19, 
			 "SMD_solvation_energy": 5.05 
		},
		"coords": [
			{
				"x": -1.9907654141,
				"y": 1.1045889041,
				"z": -0.9296975584,
				"element": "O" 
			},
			{
				"x": -1.2601646706,
				"y": 0.600991525,
				"z": -0.0785980035,
				"element": "N" 
			},
			{
				"x": -0.9118865682,
				"y": 1.1681184157,
				"z": 0.9560989919,
				"element": "O" 
			},
			{
				"x": -0.7616577889,
				"y": -0.7643328723,
				"z": -0.3381967173,
				"element": "C" 
			},
			{
				"x": -0.1777996799,
				"y": -1.5674467353,
				"z": 0.6643364301,
				"element": "C" 
			},
			{
				"x": -0.0035582634,
				"y": -1.1921359822,
				"z": 2.1071174041,
				"element": "C" 
			},
			{
				"x": -1.7121231554,
				"y": -1.3876735529,
				"z": 3.1124686931,
				"element": "Br" 
			},
			{
				"x": 0.2584382852,
				"y": -2.8423707221,
				"z": 0.2793831894,
				"element": "C" 
			},
			{
				"x": 0.1333725752,
				"y": -3.2866431224,
				"z": -1.0353146909,
				"element": "C" 
			},
			{
				"x": 0.7083499497,
				"y": -4.8821934544,
				"z": -1.4574003111,
				"element": "Cl" 
			},
			{
				"x": -0.4442180629,
				"y": -2.4795802232,
				"z": -2.0145434844,
				"element": "C" 
			},
			{
				"x": -0.8951185991,
				"y": -1.2166296577,
				"z": -1.6517251937,
				"element": "C" 
			},
			{
				"x": 0.6881210421,
				"y": -1.872386423,
				"z": 2.5991730939,
				"element": "H" 
			},
			{
				"x": 0.2874482627,
				"y": -0.1589195243,
				"z": 2.2497399704,
				"element": "H" 
			},
			{
				"x": 0.6971943607,
				"y": -3.4986978458,
				"z": 1.0228200089,
				"element": "H" 
			},
			{
				"x": -0.5389559641,
				"y": -2.8312321723,
				"z": -3.0351188161,
				"element": "H" 
			},
			{
				"x": -1.3570763089,
				"y": -0.5610565568,
				"z": -2.3785430062,
				"element": "H" 
			}
		],
		 "valence_orbital": [ 
			{
				"type": "occ",
				"energy": -0.30412,
				"method": "rhf"
			},
			{
				"type": "occ",
				"energy": -0.29521,
				"method": "rhf"
			},
			{
				"type": "occ",
				"energy": -0.28528,
				"method": "rhf"
			},
			{
				"type": "occ",
				"energy": -0.27891,
				"method": "rhf"
			},
			{
				"type": "occ",
				"energy": -0.27689,
				"method": "rhf"
			},
			{
				"type": "unocc",
				"energy": -0.10428,
				"method": "rhf"
			},
			{
				"type": "unocc",
				"energy": -0.05925,
				"method": "rhf"
			},
			{
				"type": "unocc",
				"energy": -0.02361,
				"method": "rhf"
			},
			{
				"type": "unocc",
				"energy": 0.00357,
				"method": "rhf"
			},
			{
				"type": "unocc",
				"energy": 0.00906,
				"method": "rhf"
			}
		],
		"cosmo_sigma_profile": { 
			"-0.025": 0.0,
			"-0.024": 0.0,
			"-0.023": 0.0,
			"-0.022": 0.0,
			"-0.021": 0.0,
			"-0.02": 0.0,
			"-0.019": 0.0,
			"-0.018": 0.0,
			"-0.017": 0.0,
			"-0.016": 0.0,
			"-0.015": 0.0,
			"-0.014": 0.0,
			"-0.013": 0.0,
			"-0.012": 0.0,
			"-0.011": 0.0935528760489,
			"-0.01": 1.31090403776,
			"-0.009": 4.91564791105,
			"-0.008": 7.45925906561,
			"-0.007": 7.09741823765,
			"-0.006": 8.95644558579,
			"-0.005": 10.6161566229,
			"-0.004": 11.0480795865,
			"-0.003": 11.9114029452,
			"-0.002": 14.0784724139,
			"-0.001": 22.9783489169,
			"0.0": 20.2512334195,
			"0.001": 13.3570853152,
			"0.002": 11.3597687147,
			"0.003": 16.5635528547,
			"0.004": 11.4837450761,
			"0.005": 12.8195988831,
			"0.006": 10.5029291044,
			"0.007": 7.44720459002,
			"0.008": 5.32579691245,
			"0.009": 3.92737031889,
			"0.01": 1.43937310958,
			"0.011": 0.0,
			"0.012": 0.0,
			"0.013": 0.0,
			"0.014": 0.0,
			"0.015": 0.0,
			"0.016": 0.0,
			"0.017": 0.0,
			"0.018": 0.0,
			"0.019": 0.0,
			"0.02": 0.0,
			"0.021": 0.0,
			"0.022": 0.0,
			"0.023": 0.0,
			"0.024": 0.0,
			"0.025": 0.0
		}
	}
}
