{
	 "smiles": "CN1C=CN=C1C(O)C(F)(F)F", 
	 "Tm": 409.15, 
	 "num_atms": 19, 
	 "gaussian": { 
		 "optdone": 1, 
		 "sigma_profile": "yes", 
		 "theory": "DFT", 
		 "functional": "B3LYP", 
		 "basiset": "6-31G**", 
		 "properties": { 
			 "R2extent": 2625.4572, 
			 "electric_dipole_moment_norm": 4.74863351081, 
			 "electric_quadrupole_moment_norm": 7.69756184775, 
			 "total_energy": -717.097302299, 
			 "HOMO_LUMO_gap": 0.24608, 
			 "cosmo_polarized_energy": -10.92, 
			 "cosmo_cavitation_energy": 23.83, 
			 "cosmo_dispersion_energy": -17.02, 
			 "cosmo_repulsion_energy": 1.29, 
			 "cosmo_total_nonelectrostatic_energy": 8.1, 
			 "SMD_solvation_energy": 4.46 
		},
		"coords": [
			{
				"x": 1.9455366029,
				"y": 0.1602196998,
				"z": 0.9697415208,
				"element": "C" 
			},
			{
				"x": 0.7422330528,
				"y": -0.389019224,
				"z": 0.3584701315,
				"element": "N" 
			},
			{
				"x": 0.0596525384,
				"y": -1.5079349918,
				"z": 0.8005295006,
				"element": "C" 
			},
			{
				"x": -0.9849822458,
				"y": -1.6858445486,
				"z": -0.0704069778,
				"element": "C" 
			},
			{
				"x": -0.961511814,
				"y": -0.7108369913,
				"z": -1.0366605528,
				"element": "N" 
			},
			{
				"x": 0.0834022578,
				"y": 0.0445406034,
				"z": -0.7582511014,
				"element": "C" 
			},
			{
				"x": 0.4113028134,
				"y": 1.236034917,
				"z": -1.6247287034,
				"element": "C" 
			},
			{
				"x": -0.7117445034,
				"y": 1.5887789092,
				"z": -2.3834644432,
				"element": "O" 
			},
			{
				"x": 1.5892480927,
				"y": 0.9461013748,
				"z": -2.5709227332,
				"element": "C" 
			},
			{
				"x": 1.8727290171,
				"y": 2.0176083837,
				"z": -3.3286422528,
				"element": "F" 
			},
			{
				"x": 1.3387413978,
				"y": -0.0905790342,
				"z": -3.38478313,
				"element": "F" 
			},
			{
				"x": 2.7091358796,
				"y": 0.6487197998,
				"z": -1.8555169647,
				"element": "F" 
			},
			{
				"x": 1.9123577081,
				"y": -0.0250850503,
				"z": 2.0449331461,
				"element": "H" 
			},
			{
				"x": 1.9882655489,
				"y": 1.2378989449,
				"z": 0.8049720134,
				"element": "H" 
			},
			{
				"x": 2.8462206973,
				"y": -0.2923961313,
				"z": 0.5480979167,
				"element": "H" 
			},
			{
				"x": 0.3759597344,
				"y": -2.0507313634,
				"z": 1.6783843096,
				"element": "H" 
			},
			{
				"x": -1.7502683286,
				"y": -2.4485456013,
				"z": -0.0502367978,
				"element": "H" 
			},
			{
				"x": 0.7238414524,
				"y": 2.0969343063,
				"z": -1.0166182803,
				"element": "H" 
			},
			{
				"x": -1.2814199019,
				"y": 0.7967359971,
				"z": -2.3845966015,
				"element": "H" 
			}
		],
		 "valence_orbital": [ 
			{
				"type": "occ",
				"energy": -0.35456,
				"method": "rhf"
			},
			{
				"type": "occ",
				"energy": -0.2903,
				"method": "rhf"
			},
			{
				"type": "occ",
				"energy": -0.28703,
				"method": "rhf"
			},
			{
				"type": "occ",
				"energy": -0.28199,
				"method": "rhf"
			},
			{
				"type": "occ",
				"energy": -0.23789,
				"method": "rhf"
			},
			{
				"type": "unocc",
				"energy": 0.00819,
				"method": "rhf"
			},
			{
				"type": "unocc",
				"energy": 0.05136,
				"method": "rhf"
			},
			{
				"type": "unocc",
				"energy": 0.07511,
				"method": "rhf"
			},
			{
				"type": "unocc",
				"energy": 0.09589,
				"method": "rhf"
			},
			{
				"type": "unocc",
				"energy": 0.10396,
				"method": "rhf"
			}
		],
		"cosmo_sigma_profile": { 
			"-0.025": 0.0,
			"-0.024": 0.0,
			"-0.023": 0.0,
			"-0.022": 0.0,
			"-0.021": 0.0,
			"-0.02": 0.0,
			"-0.019": 0.0,
			"-0.018": 0.0,
			"-0.017": 0.0,
			"-0.016": 0.0,
			"-0.015": 0.0,
			"-0.014": 0.0,
			"-0.013": 0.0,
			"-0.012": 0.0,
			"-0.011": 0.190148078098,
			"-0.01": 2.03667708498,
			"-0.009": 4.82433691981,
			"-0.008": 6.573395418,
			"-0.007": 8.50539605067,
			"-0.006": 9.95824222368,
			"-0.005": 10.7403928765,
			"-0.004": 12.9474838707,
			"-0.003": 10.4476500515,
			"-0.002": 7.90116232002,
			"-0.001": 8.84441139318,
			"0.0": 9.2802704587,
			"0.001": 9.76481233238,
			"0.002": 22.8847049593,
			"0.003": 27.7436905001,
			"0.004": 8.60182830097,
			"0.005": 7.7723605142,
			"0.006": 3.56362130269,
			"0.007": 2.66058399043,
			"0.008": 3.08676164449,
			"0.009": 2.67966575873,
			"0.01": 3.16933066491,
			"0.011": 2.01594869774,
			"0.012": 2.87090986651,
			"0.013": 0.636724726642,
			"0.014": 0.0,
			"0.015": 0.0,
			"0.016": 0.0,
			"0.017": 0.0,
			"0.018": 0.0,
			"0.019": 0.0,
			"0.02": 0.0,
			"0.021": 0.0,
			"0.022": 0.0,
			"0.023": 0.0,
			"0.024": 0.0,
			"0.025": 0.0
		}
	}
}
