{
	 "smiles": "FC1=CC=C(C=C1)S(=O)(=O)CCCBr", 
	 "Tm": 310.15, 
	 "num_atms": 24, 
	 "gaussian": { 
		 "optdone": 1, 
		 "sigma_profile": "yes", 
		 "theory": "DFT", 
		 "functional": "B3LYP", 
		 "basiset": "6-31G**", 
		 "properties": { 
			 "R2extent": 5656.118, 
			 "electric_dipole_moment_norm": 3.4918859675, 
			 "electric_quadrupole_moment_norm": 19.2814577112, 
			 "total_energy": -3568.79816174, 
			 "HOMO_LUMO_gap": 0.22682, 
			 "cosmo_polarized_energy": -16.55, 
			 "cosmo_cavitation_energy": 31.7, 
			 "cosmo_dispersion_energy": -22.8, 
			 "cosmo_repulsion_energy": 1.75, 
			 "cosmo_total_nonelectrostatic_energy": 10.64, 
			 "SMD_solvation_energy": 3.74 
		},
		"coords": [
			{
				"x": -1.9742417702,
				"y": 3.3012840133,
				"z": -2.0893727586,
				"element": "F" 
			},
			{
				"x": -1.2308349325,
				"y": 2.2044696883,
				"z": -1.8687134783,
				"element": "C" 
			},
			{
				"x": -1.5707633453,
				"y": 1.3652765456,
				"z": -0.8111054667,
				"element": "C" 
			},
			{
				"x": -0.7954723641,
				"y": 0.2293451099,
				"z": -0.583769275,
				"element": "C" 
			},
			{
				"x": 0.2976378231,
				"y": -0.0334985682,
				"z": -1.4136552405,
				"element": "C" 
			},
			{
				"x": 0.6150125139,
				"y": 0.8065343939,
				"z": -2.4853062316,
				"element": "C" 
			},
			{
				"x": -0.154088891,
				"y": 1.9448998923,
				"z": -2.7138257628,
				"element": "C" 
			},
			{
				"x": 1.2765228013,
				"y": -1.517434872,
				"z": -1.1346413154,
				"element": "S" 
			},
			{
				"x": 1.6986286993,
				"y": -2.0181896702,
				"z": -2.4528013481,
				"element": "O" 
			},
			{
				"x": 0.5304733483,
				"y": -2.3661307358,
				"z": -0.1898495245,
				"element": "O" 
			},
			{
				"x": 2.8164249826,
				"y": -0.9806066316,
				"z": -0.3020328828,
				"element": "C" 
			},
			{
				"x": 2.7036690629,
				"y": -0.6465081366,
				"z": 1.1912116339,
				"element": "C" 
			},
			{
				"x": 2.2342303175,
				"y": 0.7770213244,
				"z": 1.468953757,
				"element": "C" 
			},
			{
				"x": 2.238398573,
				"y": 1.1528338368,
				"z": 3.4102522401,
				"element": "Br" 
			},
			{
				"x": -2.4295122867,
				"y": 1.6022767686,
				"z": -0.1929846121,
				"element": "H" 
			},
			{
				"x": -1.0383393471,
				"y": -0.4622488696,
				"z": 0.2158404414,
				"element": "H" 
			},
			{
				"x": 1.4383611143,
				"y": 0.5567940566,
				"z": -3.1462760848,
				"element": "H" 
			},
			{
				"x": 0.0567174644,
				"y": 2.6203898368,
				"z": -3.5353990697,
				"element": "H" 
			},
			{
				"x": 3.2315862946,
				"y": -0.1648925393,
				"z": -0.9020110676,
				"element": "H" 
			},
			{
				"x": 3.4545440716,
				"y": -1.8573870568,
				"z": -0.4508988335,
				"element": "H" 
			},
			{
				"x": 2.038608714,
				"y": -1.3695149278,
				"z": 1.6724669703,
				"element": "H" 
			},
			{
				"x": 3.6946182566,
				"y": -0.7823151252,
				"z": 1.6366926137,
				"element": "H" 
			},
			{
				"x": 2.8964459944,
				"y": 1.5226712943,
				"z": 1.0271774936,
				"element": "H" 
			},
			{
				"x": 1.212972905,
				"y": 0.9630303723,
				"z": 1.1432478019,
				"element": "H" 
			}
		],
		 "valence_orbital": [ 
			{
				"type": "occ",
				"energy": -0.29424,
				"method": "rhf"
			},
			{
				"type": "occ",
				"energy": -0.29116,
				"method": "rhf"
			},
			{
				"type": "occ",
				"energy": -0.28213,
				"method": "rhf"
			},
			{
				"type": "occ",
				"energy": -0.28058,
				"method": "rhf"
			},
			{
				"type": "occ",
				"energy": -0.27538,
				"method": "rhf"
			},
			{
				"type": "unocc",
				"energy": -0.04856,
				"method": "rhf"
			},
			{
				"type": "unocc",
				"energy": -0.0419,
				"method": "rhf"
			},
			{
				"type": "unocc",
				"energy": -0.00904,
				"method": "rhf"
			},
			{
				"type": "unocc",
				"energy": 0.04829,
				"method": "rhf"
			},
			{
				"type": "unocc",
				"energy": 0.06759,
				"method": "rhf"
			}
		],
		"cosmo_sigma_profile": { 
			"-0.025": 0.0,
			"-0.024": 0.0,
			"-0.023": 0.0,
			"-0.022": 0.0,
			"-0.021": 0.0,
			"-0.02": 0.0,
			"-0.019": 0.0,
			"-0.018": 0.0,
			"-0.017": 0.0,
			"-0.016": 0.0,
			"-0.015": 0.0,
			"-0.014": 0.0,
			"-0.013": 0.0,
			"-0.012": 0.0,
			"-0.011": 0.0,
			"-0.01": 0.102619887222,
			"-0.009": 3.44555162277,
			"-0.008": 13.7220021995,
			"-0.007": 14.9361493779,
			"-0.006": 17.9481909249,
			"-0.005": 14.5102128355,
			"-0.004": 15.0258541397,
			"-0.003": 14.2017710944,
			"-0.002": 13.2721857917,
			"-0.001": 18.4946949609,
			"0.0": 18.112482251,
			"0.001": 18.9910607348,
			"0.002": 12.5407017496,
			"0.003": 13.9063298852,
			"0.004": 13.912342108,
			"0.005": 8.17172676175,
			"0.006": 13.6874942398,
			"0.007": 4.09558243081,
			"0.008": 2.71044479279,
			"0.009": 3.74900687631,
			"0.01": 4.34147553557,
			"0.011": 8.26296376197,
			"0.012": 7.21115807031,
			"0.013": 0.446088954654,
			"0.014": 0.0,
			"0.015": 0.0,
			"0.016": 0.0,
			"0.017": 0.0,
			"0.018": 0.0,
			"0.019": 0.0,
			"0.02": 0.0,
			"0.021": 0.0,
			"0.022": 0.0,
			"0.023": 0.0,
			"0.024": 0.0,
			"0.025": 0.0
		}
	}
}
