{
	 "smiles": "OC(=O)C1CCCN1C(=O)C1=CC=NC=C1", 
	 "Tm": 353.15, 
	 "num_atms": 28, 
	 "gaussian": { 
		 "optdone": 1, 
		 "sigma_profile": "yes", 
		 "theory": "DFT", 
		 "functional": "B3LYP", 
		 "basiset": "6-31G**", 
		 "properties": { 
			 "R2extent": 4377.6, 
			 "electric_dipole_moment_norm": 4.83816905554, 
			 "electric_quadrupole_moment_norm": 29.0195852312, 
			 "total_energy": -761.598183462, 
			 "HOMO_LUMO_gap": 0.19239, 
			 "cosmo_polarized_energy": -17.79, 
			 "cosmo_cavitation_energy": 31.0, 
			 "cosmo_dispersion_energy": -22.44, 
			 "cosmo_repulsion_energy": 1.74, 
			 "cosmo_total_nonelectrostatic_energy": 10.29, 
			 "SMD_solvation_energy": 4.8 
		},
		"coords": [
			{
				"x": 2.2852883132,
				"y": -3.3706539964,
				"z": 0.9340229512,
				"element": "O" 
			},
			{
				"x": 1.1268300091,
				"y": -3.8194673097,
				"z": 0.4519921331,
				"element": "C" 
			},
			{
				"x": 0.5774596727,
				"y": -4.8041867124,
				"z": 0.8921116684,
				"element": "O" 
			},
			{
				"x": 0.5508469065,
				"y": -3.0006837974,
				"z": -0.7390548052,
				"element": "C" 
			},
			{
				"x": -0.7822884871,
				"y": -3.580437269,
				"z": -1.2592459657,
				"element": "C" 
			},
			{
				"x": -1.7561944337,
				"y": -2.3875524423,
				"z": -1.335095088,
				"element": "C" 
			},
			{
				"x": -1.2371779071,
				"y": -1.4422089255,
				"z": -0.2482474538,
				"element": "C" 
			},
			{
				"x": 0.222585834,
				"y": -1.6007928208,
				"z": -0.3630783837,
				"element": "N" 
			},
			{
				"x": 1.1961511466,
				"y": -0.6745334769,
				"z": -0.2100310463,
				"element": "C" 
			},
			{
				"x": 2.4001630103,
				"y": -0.9930076728,
				"z": -0.1826933625,
				"element": "O" 
			},
			{
				"x": 0.8350800893,
				"y": 0.7793139434,
				"z": -0.0884494998,
				"element": "C" 
			},
			{
				"x": 1.3813941065,
				"y": 1.521390113,
				"z": 0.962845218,
				"element": "C" 
			},
			{
				"x": 1.1018013411,
				"y": 2.8857771433,
				"z": 1.0339042648,
				"element": "C" 
			},
			{
				"x": 0.3573536355,
				"y": 3.5413693398,
				"z": 0.1338120484,
				"element": "N" 
			},
			{
				"x": -0.1349275073,
				"y": 2.8284592029,
				"z": -0.8857262946,
				"element": "C" 
			},
			{
				"x": 0.0660150882,
				"y": 1.4559914668,
				"z": -1.0414162661,
				"element": "C" 
			},
			{
				"x": 2.5309497706,
				"y": -2.518789156,
				"z": 0.4823223723,
				"element": "H" 
			},
			{
				"x": 1.3302674586,
				"y": -2.9572307957,
				"z": -1.5084425709,
				"element": "H" 
			},
			{
				"x": -0.6525513131,
				"y": -4.0764723488,
				"z": -2.2236861071,
				"element": "H" 
			},
			{
				"x": -1.1259783365,
				"y": -4.3306009463,
				"z": -0.5432621416,
				"element": "H" 
			},
			{
				"x": -1.6967282295,
				"y": -1.8927184535,
				"z": -2.3109324629,
				"element": "H" 
			},
			{
				"x": -2.7957111589,
				"y": -2.6809243055,
				"z": -1.1684959196,
				"element": "H" 
			},
			{
				"x": -1.5338148201,
				"y": -0.4027067076,
				"z": -0.3726623755,
				"element": "H" 
			},
			{
				"x": -1.560950831,
				"y": -1.7749284726,
				"z": 0.7469591643,
				"element": "H" 
			},
			{
				"x": 2.0137063552,
				"y": 1.0422955352,
				"z": 1.702440912,
				"element": "H" 
			},
			{
				"x": 1.5014184715,
				"y": 3.4824345732,
				"z": 1.8515277528,
				"element": "H" 
			},
			{
				"x": -0.7200284654,
				"y": 3.3797064014,
				"z": -1.6195903807,
				"element": "H" 
			},
			{
				"x": -0.3481597194,
				"y": 0.9389578903,
				"z": -1.9015283612,
				"element": "H" 
			}
		],
		 "valence_orbital": [ 
			{
				"type": "occ",
				"energy": -0.29614,
				"method": "rhf"
			},
			{
				"type": "occ",
				"energy": -0.28509,
				"method": "rhf"
			},
			{
				"type": "occ",
				"energy": -0.27997,
				"method": "rhf"
			},
			{
				"type": "occ",
				"energy": -0.2696,
				"method": "rhf"
			},
			{
				"type": "occ",
				"energy": -0.2557,
				"method": "rhf"
			},
			{
				"type": "unocc",
				"energy": -0.06331,
				"method": "rhf"
			},
			{
				"type": "unocc",
				"energy": -0.03181,
				"method": "rhf"
			},
			{
				"type": "unocc",
				"energy": 0.0015,
				"method": "rhf"
			},
			{
				"type": "unocc",
				"energy": 0.0116,
				"method": "rhf"
			},
			{
				"type": "unocc",
				"energy": 0.06122,
				"method": "rhf"
			}
		],
		"cosmo_sigma_profile": { 
			"-0.025": 0.0,
			"-0.024": 0.0,
			"-0.023": 0.0,
			"-0.022": 0.0,
			"-0.021": 0.0,
			"-0.02": 0.0,
			"-0.019": 0.0,
			"-0.018": 0.0,
			"-0.017": 0.0,
			"-0.016": 0.0,
			"-0.015": 0.0,
			"-0.014": 0.0,
			"-0.013": 0.0,
			"-0.012": 0.0,
			"-0.011": 0.0,
			"-0.01": 0.0,
			"-0.009": 0.355942501455,
			"-0.008": 3.55955122136,
			"-0.007": 13.8024634226,
			"-0.006": 17.0429288942,
			"-0.005": 24.5469044115,
			"-0.004": 28.2655623229,
			"-0.003": 22.8274922973,
			"-0.002": 17.0486509496,
			"-0.001": 15.7816614427,
			"0.0": 12.6491352154,
			"0.001": 16.3100572307,
			"0.002": 9.16677054464,
			"0.003": 6.68417098713,
			"0.004": 4.61924860047,
			"0.005": 4.34623881661,
			"0.006": 5.22324584356,
			"0.007": 5.96054488389,
			"0.008": 5.02549470646,
			"0.009": 5.4264197331,
			"0.01": 5.51337233798,
			"0.011": 9.24287088292,
			"0.012": 7.30833983432,
			"0.013": 3.27710936243,
			"0.014": 1.10934825388,
			"0.015": 0.78597043554,
			"0.016": 0.704546121863,
			"0.017": 0.0455455494939,
			"0.018": 0.0,
			"0.019": 0.0,
			"0.02": 0.0,
			"0.021": 0.0,
			"0.022": 0.0,
			"0.023": 0.0,
			"0.024": 0.0,
			"0.025": 0.0
		}
	}
}
