{
	 "smiles": "CCCCC1=CC=C(NC(=O)C=NO)C=C1", 
	 "Tm": 394.15, 
	 "num_atms": 32, 
	 "gaussian": { 
		 "optdone": 1, 
		 "sigma_profile": "yes", 
		 "theory": "DFT", 
		 "functional": "B3LYP", 
		 "basiset": "6-31G**", 
		 "properties": { 
			 "R2extent": 5593.6692, 
			 "electric_dipole_moment_norm": 3.72137624542, 
			 "electric_quadrupole_moment_norm": 21.8328934667, 
			 "total_energy": -726.822360259, 
			 "HOMO_LUMO_gap": 0.20314, 
			 "cosmo_polarized_energy": -15.24, 
			 "cosmo_cavitation_energy": 35.7, 
			 "cosmo_dispersion_energy": -24.72, 
			 "cosmo_repulsion_energy": 1.99, 
			 "cosmo_total_nonelectrostatic_energy": 12.97, 
			 "SMD_solvation_energy": 6.47 
		},
		"coords": [
			{
				"x": 2.2357583062,
				"y": -3.1108222175,
				"z": -2.9043711223,
				"element": "C" 
			},
			{
				"x": 0.8568123796,
				"y": -3.0152583001,
				"z": -2.2405939034,
				"element": "C" 
			},
			{
				"x": -0.1165977978,
				"y": -2.0508508919,
				"z": -2.9371007041,
				"element": "C" 
			},
			{
				"x": 0.2695881905,
				"y": -0.5547099933,
				"z": -2.8682196219,
				"element": "C" 
			},
			{
				"x": 0.2629505545,
				"y": 0.0200881337,
				"z": -1.4667734276,
				"element": "C" 
			},
			{
				"x": 1.4530310818,
				"y": 0.278330184,
				"z": -0.7734996466,
				"element": "C" 
			},
			{
				"x": 1.4398912925,
				"y": 0.8039380518,
				"z": 0.5172217689,
				"element": "C" 
			},
			{
				"x": 0.2234831778,
				"y": 1.068241488,
				"z": 1.1572960756,
				"element": "C" 
			},
			{
				"x": 0.2403925397,
				"y": 1.5733679223,
				"z": 2.4848710313,
				"element": "N" 
			},
			{
				"x": -0.4902336078,
				"y": 2.5902438999,
				"z": 3.0433064951,
				"element": "C" 
			},
			{
				"x": -0.3803663294,
				"y": 2.8978925597,
				"z": 4.22071959,
				"element": "O" 
			},
			{
				"x": -1.3698941584,
				"y": 3.4236226714,
				"z": 2.1334944972,
				"element": "C" 
			},
			{
				"x": -2.6342975874,
				"y": 3.3347231448,
				"z": 1.9892208043,
				"element": "N" 
			},
			{
				"x": -3.1478775628,
				"y": 2.2017668168,
				"z": 2.6423943032,
				"element": "O" 
			},
			{
				"x": -0.9772828606,
				"y": 0.7915276983,
				"z": 0.4911543003,
				"element": "C" 
			},
			{
				"x": -0.9454840187,
				"y": 0.2923344164,
				"z": -0.8092672112,
				"element": "C" 
			},
			{
				"x": 2.8665032104,
				"y": -3.8474230324,
				"z": -2.3960603315,
				"element": "H" 
			},
			{
				"x": 2.7705656337,
				"y": -2.1552978856,
				"z": -2.8826061533,
				"element": "H" 
			},
			{
				"x": 2.1494620767,
				"y": -3.4154734526,
				"z": -3.9540095781,
				"element": "H" 
			},
			{
				"x": 0.9730229249,
				"y": -2.7197975501,
				"z": -1.1903605625,
				"element": "H" 
			},
			{
				"x": 0.4007330617,
				"y": -4.0131867832,
				"z": -2.2262064353,
				"element": "H" 
			},
			{
				"x": -1.1145812276,
				"y": -2.1724915341,
				"z": -2.4969722093,
				"element": "H" 
			},
			{
				"x": -0.2106040611,
				"y": -2.3346645009,
				"z": -3.9941693557,
				"element": "H" 
			},
			{
				"x": 1.2573173236,
				"y": -0.4057236307,
				"z": -3.3187711144,
				"element": "H" 
			},
			{
				"x": -0.4370700059,
				"y": 0.0086725038,
				"z": -3.490362306,
				"element": "H" 
			},
			{
				"x": 2.4071014431,
				"y": 0.0822424754,
				"z": -1.2560293345,
				"element": "H" 
			},
			{
				"x": 2.3735691584,
				"y": 1.0217596167,
				"z": 1.0289269464,
				"element": "H" 
			},
			{
				"x": 0.9114907084,
				"y": 1.1754910833,
				"z": 3.1318147787,
				"element": "H" 
			},
			{
				"x": -0.9091896196,
				"y": 4.2771592308,
				"z": 1.6399799981,
				"element": "H" 
			},
			{
				"x": -4.0977095893,
				"y": 2.2794484052,
				"z": 2.4792167528,
				"element": "H" 
			},
			{
				"x": -1.9220818015,
				"y": 0.9513082978,
				"z": 0.9984690512,
				"element": "H" 
			},
			{
				"x": -1.8858028355,
				"y": 0.0946411721,
				"z": -1.3185133752,
				"element": "H" 
			}
		],
		 "valence_orbital": [ 
			{
				"type": "occ",
				"energy": -0.29073,
				"method": "rhf"
			},
			{
				"type": "occ",
				"energy": -0.27489,
				"method": "rhf"
			},
			{
				"type": "occ",
				"energy": -0.25653,
				"method": "rhf"
			},
			{
				"type": "occ",
				"energy": -0.25044,
				"method": "rhf"
			},
			{
				"type": "occ",
				"energy": -0.22686,
				"method": "rhf"
			},
			{
				"type": "unocc",
				"energy": -0.02372,
				"method": "rhf"
			},
			{
				"type": "unocc",
				"energy": -0.01085,
				"method": "rhf"
			},
			{
				"type": "unocc",
				"energy": -0.00282,
				"method": "rhf"
			},
			{
				"type": "unocc",
				"energy": 0.02141,
				"method": "rhf"
			},
			{
				"type": "unocc",
				"energy": 0.06735,
				"method": "rhf"
			}
		],
		"cosmo_sigma_profile": { 
			"-0.025": 0.0,
			"-0.024": 0.0,
			"-0.023": 0.0,
			"-0.022": 0.0,
			"-0.021": 0.0,
			"-0.02": 0.0,
			"-0.019": 0.0360867956259,
			"-0.018": 0.784067510399,
			"-0.017": 1.2047751051,
			"-0.016": 0.381438539046,
			"-0.015": 1.52892426166,
			"-0.014": 2.13585876015,
			"-0.013": 2.06151749454,
			"-0.012": 1.33572969936,
			"-0.011": 1.49005669674,
			"-0.01": 2.85871513097,
			"-0.009": 4.47320695738,
			"-0.008": 3.42094370823,
			"-0.007": 4.39075961066,
			"-0.006": 5.70233642505,
			"-0.005": 7.7335036383,
			"-0.004": 13.5539937322,
			"-0.003": 20.2114330324,
			"-0.002": 25.3731513933,
			"-0.001": 28.6581899355,
			"0.0": 31.9071025748,
			"0.001": 29.7704956489,
			"0.002": 20.1191496582,
			"0.003": 13.0155810816,
			"0.004": 12.2808791983,
			"0.005": 12.4145980387,
			"0.006": 5.2753516745,
			"0.007": 3.00411936428,
			"0.008": 3.98675230769,
			"0.009": 4.84976640902,
			"0.01": 3.07182278162,
			"0.011": 3.1600171396,
			"0.012": 6.0270079328,
			"0.013": 4.16938291538,
			"0.014": 0.390500090138,
			"0.015": 0.0,
			"0.016": 0.0,
			"0.017": 0.0,
			"0.018": 0.0,
			"0.019": 0.0,
			"0.02": 0.0,
			"0.021": 0.0,
			"0.022": 0.0,
			"0.023": 0.0,
			"0.024": 0.0,
			"0.025": 0.0
		}
	}
}
