{
	 "smiles": "CC1=C(O)C(=CC(=C1)[N+]([O-])=O)[N+]([O-])=O", 
	 "Tm": 362.15, 
	 "num_atms": 20, 
	 "gaussian": { 
		 "optdone": 1, 
		 "sigma_profile": "yes", 
		 "theory": "DFT", 
		 "functional": "B3LYP", 
		 "basiset": "6-31G**", 
		 "properties": { 
			 "R2extent": 3078.598, 
			 "electric_dipole_moment_norm": 6.7142987683, 
			 "electric_quadrupole_moment_norm": 20.464667817, 
			 "total_energy": -755.773098378, 
			 "HOMO_LUMO_gap": 0.17463, 
			 "cosmo_polarized_energy": -18.68, 
			 "cosmo_cavitation_energy": 26.02, 
			 "cosmo_dispersion_energy": -19.07, 
			 "cosmo_repulsion_energy": 1.49, 
			 "cosmo_total_nonelectrostatic_energy": 8.44, 
			 "SMD_solvation_energy": 9.41 
		},
		"coords": [
			{
				"x": -1.7157814093,
				"y": -2.3942489884,
				"z": -1.9198795744,
				"element": "C" 
			},
			{
				"x": -1.1580010375,
				"y": -1.122117342,
				"z": -1.3265119379,
				"element": "C" 
			},
			{
				"x": -1.2044137683,
				"y": -0.9276897753,
				"z": 0.0775380889,
				"element": "C" 
			},
			{
				"x": -1.7159123402,
				"y": -1.8669796771,
				"z": 0.8915939004,
				"element": "O" 
			},
			{
				"x": -0.6734730396,
				"y": 0.2621957092,
				"z": 0.6221907157,
				"element": "C" 
			},
			{
				"x": -0.0988982053,
				"y": 1.2338888991,
				"z": -0.1899896642,
				"element": "C" 
			},
			{
				"x": -0.076364969,
				"y": 1.0255808991,
				"z": -1.5592779268,
				"element": "C" 
			},
			{
				"x": -0.598680004,
				"y": -0.1368260465,
				"z": -2.129510256,
				"element": "C" 
			},
			{
				"x": 0.5120866407,
				"y": 2.048367901,
				"z": -2.4297829721,
				"element": "N" 
			},
			{
				"x": 0.5220098046,
				"y": 1.823708687,
				"z": -3.6406421254,
				"element": "O" 
			},
			{
				"x": 0.9572069443,
				"y": 3.0630953687,
				"z": -1.8969630599,
				"element": "O" 
			},
			{
				"x": -0.7020991786,
				"y": 0.5393411287,
				"z": 2.0678990816,
				"element": "N" 
			},
			{
				"x": -1.5527138111,
				"y": -0.0240282614,
				"z": 2.748321433,
				"element": "O" 
			},
			{
				"x": 0.1264349896,
				"y": 1.3453920854,
				"z": 2.4923126372,
				"element": "O" 
			},
			{
				"x": -1.6220662909,
				"y": -2.3848297228,
				"z": -3.0072366887,
				"element": "H" 
			},
			{
				"x": -1.1821486526,
				"y": -3.2845382492,
				"z": -1.5603661373,
				"element": "H" 
			},
			{
				"x": -2.781350997,
				"y": -2.5220505119,
				"z": -1.6882624928,
				"element": "H" 
			},
			{
				"x": -1.9853310015,
				"y": -2.635982938,
				"z": 0.3708170285,
				"element": "H" 
			},
			{
				"x": 0.3196563715,
				"y": 2.1293955954,
				"z": 0.2485999498,
				"element": "H" 
			},
			{
				"x": -0.555260046,
				"y": -0.2556747611,
				"z": -3.2055499995,
				"element": "H" 
			}
		],
		 "valence_orbital": [ 
			{
				"type": "occ",
				"energy": -0.31327,
				"method": "rhf"
			},
			{
				"type": "occ",
				"energy": -0.3058,
				"method": "rhf"
			},
			{
				"type": "occ",
				"energy": -0.30051,
				"method": "rhf"
			},
			{
				"type": "occ",
				"energy": -0.29032,
				"method": "rhf"
			},
			{
				"type": "occ",
				"energy": -0.27419,
				"method": "rhf"
			},
			{
				"type": "unocc",
				"energy": -0.09956,
				"method": "rhf"
			},
			{
				"type": "unocc",
				"energy": -0.09364,
				"method": "rhf"
			},
			{
				"type": "unocc",
				"energy": -0.03181,
				"method": "rhf"
			},
			{
				"type": "unocc",
				"energy": -0.00222,
				"method": "rhf"
			},
			{
				"type": "unocc",
				"energy": 0.02795,
				"method": "rhf"
			}
		],
		"cosmo_sigma_profile": { 
			"-0.025": 0.0,
			"-0.024": 0.0,
			"-0.023": 0.0,
			"-0.022": 0.0,
			"-0.021": 0.0,
			"-0.02": 0.0,
			"-0.019": 0.103054594325,
			"-0.018": 0.653405246018,
			"-0.017": 0.772559976251,
			"-0.016": 1.34961552042,
			"-0.015": 1.12304098372,
			"-0.014": 0.805281248642,
			"-0.013": 1.24397729669,
			"-0.012": 1.69765240199,
			"-0.011": 1.20075537306,
			"-0.01": 0.753772789355,
			"-0.009": 2.64704189073,
			"-0.008": 4.65628029795,
			"-0.007": 8.06266642095,
			"-0.006": 9.77097350916,
			"-0.005": 11.5108337033,
			"-0.004": 14.120496972,
			"-0.003": 19.5989888863,
			"-0.002": 21.7768535576,
			"-0.001": 14.3602779779,
			"0.0": 7.41571318497,
			"0.001": 5.0072142439,
			"0.002": 5.00010994355,
			"0.003": 4.8458686521,
			"0.004": 6.20517011328,
			"0.005": 5.83792767451,
			"0.006": 8.47754348916,
			"0.007": 17.0767323487,
			"0.008": 15.4214212777,
			"0.009": 9.77096795176,
			"0.01": 5.07723539834,
			"0.011": 1.57993675883,
			"0.012": 0.469361025433,
			"0.013": 0.000200476396428,
			"0.014": 0.0,
			"0.015": 0.0,
			"0.016": 0.0,
			"0.017": 0.0,
			"0.018": 0.0,
			"0.019": 0.0,
			"0.02": 0.0,
			"0.021": 0.0,
			"0.022": 0.0,
			"0.023": 0.0,
			"0.024": 0.0,
			"0.025": 0.0
		}
	}
}
