{
	 "smiles": "COC1=CC=C(C=C1)C1=CSC(=N1)C(=N/NC1=CC=NC=C1)C#N", 
	 "Tm": 528.15, 
	 "num_atms": 37, 
	 "gaussian": { 
		 "optdone": 1, 
		 "sigma_profile": "yes", 
		 "theory": "DFT", 
		 "functional": "B3LYP", 
		 "basiset": "6-31G**", 
		 "properties": { 
			 "R2extent": 12266.4617, 
			 "electric_dipole_moment_norm": 6.84523200118, 
			 "electric_quadrupole_moment_norm": 13.4147789617, 
			 "total_energy": -1402.74793932, 
			 "HOMO_LUMO_gap": 0.12515, 
			 "cosmo_polarized_energy": -17.51, 
			 "cosmo_cavitation_energy": 45.76, 
			 "cosmo_dispersion_energy": -32.09, 
			 "cosmo_repulsion_energy": 2.35, 
			 "cosmo_total_nonelectrostatic_energy": 16.02, 
			 "SMD_solvation_energy": 6.96 
		},
		"coords": [
			{
				"x": -4.1146516457,
				"y": 0.8731644503,
				"z": 3.0988319565,
				"element": "C" 
			},
			{
				"x": -3.3478252063,
				"y": -0.2658022295,
				"z": 3.4628645006,
				"element": "O" 
			},
			{
				"x": -2.3491720393,
				"y": -0.667128529,
				"z": 2.6303323655,
				"element": "C" 
			},
			{
				"x": -2.0130834242,
				"y": -0.0405066367,
				"z": 1.4236914943,
				"element": "C" 
			},
			{
				"x": -0.9653783402,
				"y": -0.5436021347,
				"z": 0.6521872473,
				"element": "C" 
			},
			{
				"x": -0.2340494962,
				"y": -1.6685840877,
				"z": 1.053962481,
				"element": "C" 
			},
			{
				"x": -0.5824259211,
				"y": -2.2812038391,
				"z": 2.2726908382,
				"element": "C" 
			},
			{
				"x": -1.6221313806,
				"y": -1.7937607322,
				"z": 3.0484413317,
				"element": "C" 
			},
			{
				"x": 0.8573664046,
				"y": -2.194542199,
				"z": 0.2163783749,
				"element": "C" 
			},
			{
				"x": 1.3334437759,
				"y": -3.4861415067,
				"z": 0.2138798362,
				"element": "C" 
			},
			{
				"x": 2.6131504875,
				"y": -3.686291979,
				"z": -0.9270526517,
				"element": "S" 
			},
			{
				"x": 2.4379987342,
				"y": -1.9918311406,
				"z": -1.3591751015,
				"element": "C" 
			},
			{
				"x": 1.4964730172,
				"y": -1.3667198746,
				"z": -0.6846172558,
				"element": "N" 
			},
			{
				"x": 3.2838466899,
				"y": -1.3483073776,
				"z": -2.3586836305,
				"element": "C" 
			},
			{
				"x": 3.268341167,
				"y": -0.078176851,
				"z": -2.6934035516,
				"element": "N" 
			},
			{
				"x": 2.4261136694,
				"y": 0.74515697,
				"z": -2.100693022,
				"element": "N" 
			},
			{
				"x": 2.404290302,
				"y": 2.1006207999,
				"z": -2.4325139589,
				"element": "C" 
			},
			{
				"x": 1.5172147042,
				"y": 2.947076565,
				"z": -1.7543256567,
				"element": "C" 
			},
			{
				"x": 1.5013403316,
				"y": 4.2965255474,
				"z": -2.0968319477,
				"element": "C" 
			},
			{
				"x": 2.2818694814,
				"y": 4.8443766189,
				"z": -3.036702909,
				"element": "N" 
			},
			{
				"x": 3.123829397,
				"y": 4.0151864739,
				"z": -3.6715038042,
				"element": "C" 
			},
			{
				"x": 3.2322057397,
				"y": 2.650859016,
				"z": -3.4192997907,
				"element": "C" 
			},
			{
				"x": 4.2410208089,
				"y": -2.1607035372,
				"z": -3.0536570593,
				"element": "C" 
			},
			{
				"x": 5.0011564177,
				"y": -2.8606133492,
				"z": -3.5887721993,
				"element": "N" 
			},
			{
				"x": -3.4898850708,
				"y": 1.7717349592,
				"z": 3.0188168785,
				"element": "H" 
			},
			{
				"x": -4.8433724218,
				"y": 1.0125910762,
				"z": 3.8983632012,
				"element": "H" 
			},
			{
				"x": -4.6443949628,
				"y": 0.7171239861,
				"z": 2.1506111295,
				"element": "H" 
			},
			{
				"x": -2.5594445255,
				"y": 0.8274257075,
				"z": 1.0744305131,
				"element": "H" 
			},
			{
				"x": -0.723443824,
				"y": -0.0639729877,
				"z": -0.2905302193,
				"element": "H" 
			},
			{
				"x": -0.0162864589,
				"y": -3.1368045066,
				"z": 2.628872871,
				"element": "H" 
			},
			{
				"x": -1.8868878144,
				"y": -2.2594787142,
				"z": 3.9918221078,
				"element": "H" 
			},
			{
				"x": 0.979199641,
				"y": -4.3267317918,
				"z": 0.7919489224,
				"element": "H" 
			},
			{
				"x": 1.7974522411,
				"y": 0.3649564015,
				"z": -1.3816456549,
				"element": "H" 
			},
			{
				"x": 0.8612366345,
				"y": 2.5645834117,
				"z": -0.9775793462,
				"element": "H" 
			},
			{
				"x": 0.8208757324,
				"y": 4.9731179754,
				"z": -1.5826768961,
				"element": "H" 
			},
			{
				"x": 3.7550628692,
				"y": 4.468746124,
				"z": -4.4335076695,
				"element": "H" 
			},
			{
				"x": 3.9303442853,
				"y": 2.027257921,
				"z": -3.9632537249,
				"element": "H" 
			}
		],
		 "valence_orbital": [ 
			{
				"type": "occ",
				"energy": -0.26938,
				"method": "rhf"
			},
			{
				"type": "occ",
				"energy": -0.26831,
				"method": "rhf"
			},
			{
				"type": "occ",
				"energy": -0.2585,
				"method": "rhf"
			},
			{
				"type": "occ",
				"energy": -0.23665,
				"method": "rhf"
			},
			{
				"type": "occ",
				"energy": -0.2169,
				"method": "rhf"
			},
			{
				"type": "unocc",
				"energy": -0.09175,
				"method": "rhf"
			},
			{
				"type": "unocc",
				"energy": -0.04139,
				"method": "rhf"
			},
			{
				"type": "unocc",
				"energy": -0.0201,
				"method": "rhf"
			},
			{
				"type": "unocc",
				"energy": -0.01726,
				"method": "rhf"
			},
			{
				"type": "unocc",
				"energy": -0.01139,
				"method": "rhf"
			}
		],
		"cosmo_sigma_profile": { 
			"-0.025": 0.0,
			"-0.024": 0.0,
			"-0.023": 0.0,
			"-0.022": 0.0,
			"-0.021": 0.0,
			"-0.02": 0.0,
			"-0.019": 0.0,
			"-0.018": 0.0,
			"-0.017": 0.0,
			"-0.016": 0.0,
			"-0.015": 0.0,
			"-0.014": 0.0,
			"-0.013": 0.0,
			"-0.012": 0.0,
			"-0.011": 0.229617950623,
			"-0.01": 2.42958692717,
			"-0.009": 4.27130342031,
			"-0.008": 3.85040817527,
			"-0.007": 9.7443342812,
			"-0.006": 21.7733981039,
			"-0.005": 27.3298307201,
			"-0.004": 27.7218002213,
			"-0.003": 26.1592300628,
			"-0.002": 24.8906071591,
			"-0.001": 26.4291302278,
			"0.0": 31.0094383198,
			"0.001": 35.7306054777,
			"0.002": 34.3485850719,
			"0.003": 21.5559093532,
			"0.004": 20.1369544094,
			"0.005": 16.0083800678,
			"0.006": 5.40188974048,
			"0.007": 5.30474020973,
			"0.008": 5.72893224415,
			"0.009": 6.03991894937,
			"0.01": 4.89783925476,
			"0.011": 3.63312314681,
			"0.012": 3.24389084528,
			"0.013": 1.30192084941,
			"0.014": 0.800385866567,
			"0.015": 0.904479155394,
			"0.016": 0.951441076693,
			"0.017": 0.360623496974,
			"0.018": 0.0,
			"0.019": 0.0,
			"0.02": 0.0,
			"0.021": 0.0,
			"0.022": 0.0,
			"0.023": 0.0,
			"0.024": 0.0,
			"0.025": 0.0
		}
	}
}
