{
	 "smiles": "OC(=O)CN1CCOC2=C1C=C(Cl)C=C2", 
	 "Tm": 430.15, 
	 "num_atms": 25, 
	 "gaussian": { 
		 "optdone": 1, 
		 "sigma_profile": "yes", 
		 "theory": "DFT", 
		 "functional": "B3LYP", 
		 "basiset": "6-31G**", 
		 "properties": { 
			 "R2extent": 4238.64, 
			 "electric_dipole_moment_norm": 6.03823033015, 
			 "electric_quadrupole_moment_norm": 20.788302474, 
			 "total_energy": -1127.70022904, 
			 "HOMO_LUMO_gap": 0.19913, 
			 "cosmo_polarized_energy": -17.25, 
			 "cosmo_cavitation_energy": 29.96, 
			 "cosmo_dispersion_energy": -21.94, 
			 "cosmo_repulsion_energy": 1.72, 
			 "cosmo_total_nonelectrostatic_energy": 9.74, 
			 "SMD_solvation_energy": 6.12 
		},
		"coords": [
			{
				"x": 1.9619224899,
				"y": -1.90355248,
				"z": 2.7019834956,
				"element": "O" 
			},
			{
				"x": 1.1650673108,
				"y": -2.5548566719,
				"z": 1.8377590635,
				"element": "C" 
			},
			{
				"x": 0.5490039546,
				"y": -3.5501327655,
				"z": 2.126888809,
				"element": "O" 
			},
			{
				"x": 1.1407660938,
				"y": -1.9530781176,
				"z": 0.4213631772,
				"element": "C" 
			},
			{
				"x": 1.6841197486,
				"y": -0.5968736704,
				"z": 0.3638269305,
				"element": "N" 
			},
			{
				"x": 2.6496802575,
				"y": -0.3453357457,
				"z": -0.7114608476,
				"element": "C" 
			},
			{
				"x": 3.2596822757,
				"y": 1.0332176125,
				"z": -0.5139668852,
				"element": "C" 
			},
			{
				"x": 2.2570220587,
				"y": 2.0427236566,
				"z": -0.5765996419,
				"element": "O" 
			},
			{
				"x": 1.1126626561,
				"y": 1.7762633369,
				"z": 0.1329362799,
				"element": "C" 
			},
			{
				"x": 0.7845845847,
				"y": 0.4815037765,
				"z": 0.5953238166,
				"element": "C" 
			},
			{
				"x": -0.4145622487,
				"y": 0.3085596588,
				"z": 1.3020349746,
				"element": "C" 
			},
			{
				"x": -1.2593186769,
				"y": 1.3951953328,
				"z": 1.5235257951,
				"element": "C" 
			},
			{
				"x": -2.7555297837,
				"y": 1.1395727519,
				"z": 2.4100105023,
				"element": "Cl" 
			},
			{
				"x": -0.9447844666,
				"y": 2.668175064,
				"z": 1.0570540395,
				"element": "C" 
			},
			{
				"x": 0.2510472643,
				"y": 2.8458565634,
				"z": 0.3648265087,
				"element": "C" 
			},
			{
				"x": 2.3007749483,
				"y": -1.1202773551,
				"z": 2.2226216631,
				"element": "H" 
			},
			{
				"x": 0.1181814508,
				"y": -2.0253244432,
				"z": 0.0338132263,
				"element": "H" 
			},
			{
				"x": 1.7639650637,
				"y": -2.6043744002,
				"z": -0.1995280299,
				"element": "H" 
			},
			{
				"x": 2.1768194852,
				"y": -0.3974789849,
				"z": -1.704326597,
				"element": "H" 
			},
			{
				"x": 3.4346761535,
				"y": -1.1067951746,
				"z": -0.6656733078,
				"element": "H" 
			},
			{
				"x": 3.7796493816,
				"y": 1.0809290731,
				"z": 0.452929853,
				"element": "H" 
			},
			{
				"x": 3.97327242,
				"y": 1.2622231234,
				"z": -1.3086370975,
				"element": "H" 
			},
			{
				"x": -0.7013532246,
				"y": -0.6623184747,
				"z": 1.6860501278,
				"element": "H" 
			},
			{
				"x": -1.6129343328,
				"y": 3.5022324376,
				"z": 1.2354806355,
				"element": "H" 
			},
			{
				"x": 0.5383851353,
				"y": 3.8213458963,
				"z": -0.0131364913,
				"element": "H" 
			}
		],
		 "valence_orbital": [ 
			{
				"type": "occ",
				"energy": -0.31276,
				"method": "rhf"
			},
			{
				"type": "occ",
				"energy": -0.3035,
				"method": "rhf"
			},
			{
				"type": "occ",
				"energy": -0.27377,
				"method": "rhf"
			},
			{
				"type": "occ",
				"energy": -0.24767,
				"method": "rhf"
			},
			{
				"type": "occ",
				"energy": -0.21754,
				"method": "rhf"
			},
			{
				"type": "unocc",
				"energy": -0.01841,
				"method": "rhf"
			},
			{
				"type": "unocc",
				"energy": -0.00959,
				"method": "rhf"
			},
			{
				"type": "unocc",
				"energy": 0.00604,
				"method": "rhf"
			},
			{
				"type": "unocc",
				"energy": 0.02825,
				"method": "rhf"
			},
			{
				"type": "unocc",
				"energy": 0.06053,
				"method": "rhf"
			}
		],
		"cosmo_sigma_profile": { 
			"-0.025": 0.0,
			"-0.024": 0.0,
			"-0.023": 0.0,
			"-0.022": 0.0,
			"-0.021": 0.0,
			"-0.02": 0.0,
			"-0.019": 0.0,
			"-0.018": 0.0,
			"-0.017": 0.0,
			"-0.016": 0.0,
			"-0.015": 0.0,
			"-0.014": 0.0329091359702,
			"-0.013": 0.356842793142,
			"-0.012": 0.456837913689,
			"-0.011": 1.0369999162,
			"-0.01": 2.12138251932,
			"-0.009": 5.60261940419,
			"-0.008": 4.96573054869,
			"-0.007": 12.9757684005,
			"-0.006": 20.123033848,
			"-0.005": 23.3738836417,
			"-0.004": 15.6668501466,
			"-0.003": 11.1297431028,
			"-0.002": 9.28454846708,
			"-0.001": 9.08074746572,
			"0.0": 9.89202320071,
			"0.001": 11.0296628322,
			"0.002": 16.3590623169,
			"0.003": 19.8330740759,
			"0.004": 18.7778032332,
			"0.005": 13.3469830929,
			"0.006": 3.93953181477,
			"0.007": 3.38568603813,
			"0.008": 3.42561380991,
			"0.009": 5.10716140116,
			"0.01": 6.59068047752,
			"0.011": 4.4971425107,
			"0.012": 5.98159162965,
			"0.013": 2.0495829202,
			"0.014": 0.0535215975679,
			"0.015": 0.0,
			"0.016": 0.0,
			"0.017": 0.0,
			"0.018": 0.0,
			"0.019": 0.0,
			"0.02": 0.0,
			"0.021": 0.0,
			"0.022": 0.0,
			"0.023": 0.0,
			"0.024": 0.0,
			"0.025": 0.0
		}
	}
}
