{
	 "smiles": "CCOC(=O)C1=NOC(=C1)C(=O)CBr", 
	 "Tm": 345.15, 
	 "num_atms": 22, 
	 "gaussian": { 
		 "optdone": 1, 
		 "sigma_profile": "yes", 
		 "theory": "DFT", 
		 "functional": "B3LYP", 
		 "basiset": "6-31G**", 
		 "properties": { 
			 "R2extent": 6416.7768, 
			 "electric_dipole_moment_norm": 2.1191937783, 
			 "electric_quadrupole_moment_norm": 12.1358526145, 
			 "total_energy": -3236.6677748, 
			 "HOMO_LUMO_gap": 0.17886, 
			 "cosmo_polarized_energy": -12.14, 
			 "cosmo_cavitation_energy": 30.79, 
			 "cosmo_dispersion_energy": -22.23, 
			 "cosmo_repulsion_energy": 1.8, 
			 "cosmo_total_nonelectrostatic_energy": 10.36, 
			 "SMD_solvation_energy": 5.91 
		},
		"coords": [
			{
				"x": -2.33237501,
				"y": 3.865073179,
				"z": -0.4586825322,
				"element": "C" 
			},
			{
				"x": -1.8787314352,
				"y": 3.4700548323,
				"z": 0.9376998733,
				"element": "C" 
			},
			{
				"x": -0.865050076,
				"y": 2.4305028721,
				"z": 0.8850634593,
				"element": "O" 
			},
			{
				"x": -1.3055919788,
				"y": 1.1702002914,
				"z": 0.8105563387,
				"element": "C" 
			},
			{
				"x": -2.4688307127,
				"y": 0.8219604225,
				"z": 0.7917096469,
				"element": "O" 
			},
			{
				"x": -0.1914239405,
				"y": 0.1798432962,
				"z": 0.7559894263,
				"element": "C" 
			},
			{
				"x": 1.0828839197,
				"y": 0.5317100346,
				"z": 0.7758981516,
				"element": "N" 
			},
			{
				"x": 1.7908412353,
				"y": -0.6487699911,
				"z": 0.7079747458,
				"element": "O" 
			},
			{
				"x": 0.9252618463,
				"y": -1.6951407839,
				"z": 0.6495771905,
				"element": "C" 
			},
			{
				"x": -0.3559981434,
				"y": -1.2285005939,
				"z": 0.6795310251,
				"element": "C" 
			},
			{
				"x": 1.4654143949,
				"y": -3.0725523045,
				"z": 0.5983950082,
				"element": "C" 
			},
			{
				"x": 0.7120391539,
				"y": -4.0265617283,
				"z": 0.6589924251,
				"element": "O" 
			},
			{
				"x": 2.9686016609,
				"y": -3.2437445195,
				"z": 0.4800064547,
				"element": "C" 
			},
			{
				"x": 3.4995106841,
				"y": -2.9212039631,
				"z": -1.3967046668,
				"element": "Br" 
			},
			{
				"x": -3.0334383319,
				"y": 4.7036132891,
				"z": -0.3936735872,
				"element": "H" 
			},
			{
				"x": -2.8406844988,
				"y": 3.0322684102,
				"z": -0.9507765614,
				"element": "H" 
			},
			{
				"x": -1.4811090621,
				"y": 4.1749467178,
				"z": -1.0713374359,
				"element": "H" 
			},
			{
				"x": -2.7148458115,
				"y": 3.1129652323,
				"z": 1.5432386108,
				"element": "H" 
			},
			{
				"x": -1.3821794628,
				"y": 4.2963518924,
				"z": 1.4502091463,
				"element": "H" 
			},
			{
				"x": -1.2760867559,
				"y": -1.7890007106,
				"z": 0.6513783875,
				"element": "H" 
			},
			{
				"x": 3.5281696237,
				"y": -2.5265600616,
				"z": 1.0788884437,
				"element": "H" 
			},
			{
				"x": 3.236222701,
				"y": -4.2714558133,
				"z": 0.7128664497,
				"element": "H" 
			}
		],
		 "valence_orbital": [ 
			{
				"type": "occ",
				"energy": -0.30514,
				"method": "rhf"
			},
			{
				"type": "occ",
				"energy": -0.29643,
				"method": "rhf"
			},
			{
				"type": "occ",
				"energy": -0.29535,
				"method": "rhf"
			},
			{
				"type": "occ",
				"energy": -0.28851,
				"method": "rhf"
			},
			{
				"type": "occ",
				"energy": -0.27884,
				"method": "rhf"
			},
			{
				"type": "unocc",
				"energy": -0.09998,
				"method": "rhf"
			},
			{
				"type": "unocc",
				"energy": -0.05856,
				"method": "rhf"
			},
			{
				"type": "unocc",
				"energy": -0.01683,
				"method": "rhf"
			},
			{
				"type": "unocc",
				"energy": 0.05561,
				"method": "rhf"
			},
			{
				"type": "unocc",
				"energy": 0.0818,
				"method": "rhf"
			}
		],
		"cosmo_sigma_profile": { 
			"-0.025": 0.0,
			"-0.024": 0.0,
			"-0.023": 0.0,
			"-0.022": 0.0,
			"-0.021": 0.0,
			"-0.02": 0.0,
			"-0.019": 0.0,
			"-0.018": 0.0,
			"-0.017": 0.0,
			"-0.016": 0.0,
			"-0.015": 0.0,
			"-0.014": 0.0,
			"-0.013": 0.0,
			"-0.012": 0.0,
			"-0.011": 0.303971920702,
			"-0.01": 2.82146466951,
			"-0.009": 5.82989020846,
			"-0.008": 4.74936107453,
			"-0.007": 6.29785178718,
			"-0.006": 9.69419394191,
			"-0.005": 15.3180767496,
			"-0.004": 23.432919635,
			"-0.003": 23.8497001826,
			"-0.002": 20.8890082749,
			"-0.001": 19.6697498965,
			"0.0": 15.7813506266,
			"0.001": 10.6715230778,
			"0.002": 12.0570588142,
			"0.003": 12.4555964535,
			"0.004": 15.1748178848,
			"0.005": 11.8609577564,
			"0.006": 6.54515480856,
			"0.007": 4.02699871046,
			"0.008": 5.59720542895,
			"0.009": 7.58619246904,
			"0.01": 8.4710376752,
			"0.011": 5.28526946015,
			"0.012": 0.969271062497,
			"0.013": 0.0124717519039,
			"0.014": 0.0,
			"0.015": 0.0,
			"0.016": 0.0,
			"0.017": 0.0,
			"0.018": 0.0,
			"0.019": 0.0,
			"0.02": 0.0,
			"0.021": 0.0,
			"0.022": 0.0,
			"0.023": 0.0,
			"0.024": 0.0,
			"0.025": 0.0
		}
	}
}
