{
	 "smiles": "CS(=O)(=O)CCS(Cl)(=O)=O", 
	 "Tm": 393.15, 
	 "num_atms": 17, 
	 "gaussian": { 
		 "optdone": 1, 
		 "sigma_profile": "yes", 
		 "theory": "DFT", 
		 "functional": "B3LYP", 
		 "basiset": "6-31G**", 
		 "properties": { 
			 "R2extent": 4642.075, 
			 "electric_dipole_moment_norm": 7.17144137813, 
			 "electric_quadrupole_moment_norm": 11.4489253893, 
			 "total_energy": -1675.86438157, 
			 "HOMO_LUMO_gap": 0.21542, 
			 "cosmo_polarized_energy": -24.72, 
			 "cosmo_cavitation_energy": 25.44, 
			 "cosmo_dispersion_energy": -19.42, 
			 "cosmo_repulsion_energy": 1.49, 
			 "cosmo_total_nonelectrostatic_energy": 7.51, 
			 "SMD_solvation_energy": 2.74 
		},
		"coords": [
			{
				"x": -1.4104439846,
				"y": 0.1405928293,
				"z": 0.0964244039,
				"element": "C" 
			},
			{
				"x": -0.0333228427,
				"y": 0.6829665731,
				"z": -0.9414950424,
				"element": "S" 
			},
			{
				"x": -0.0375856426,
				"y": 2.1478040302,
				"z": -0.9578732753,
				"element": "O" 
			},
			{
				"x": -0.0713988329,
				"y": -0.0970358666,
				"z": -2.1905748117,
				"element": "O" 
			},
			{
				"x": 1.4333017676,
				"y": 0.0734837036,
				"z": 0.0045623218,
				"element": "C" 
			},
			{
				"x": 2.5694935248,
				"y": -0.3537539879,
				"z": -0.9175242464,
				"element": "C" 
			},
			{
				"x": 3.7879605008,
				"y": 0.94541692,
				"z": -1.296345793,
				"element": "S" 
			},
			{
				"x": 4.6531313175,
				"y": 1.1841979026,
				"z": 0.6528883124,
				"element": "Cl" 
			},
			{
				"x": 3.1193009016,
				"y": 2.1963843816,
				"z": -1.6136785272,
				"element": "O" 
			},
			{
				"x": 4.8137708175,
				"y": 0.3584569723,
				"z": -2.1461968221,
				"element": "O" 
			},
			{
				"x": -2.3128100601,
				"y": 0.5130830748,
				"z": -0.3919888583,
				"element": "H" 
			},
			{
				"x": -1.430250751,
				"y": -0.9489706578,
				"z": 0.145950855,
				"element": "H" 
			},
			{
				"x": -1.3139250334,
				"y": 0.5877260385,
				"z": 1.0874921825,
				"element": "H" 
			},
			{
				"x": 1.7175081883,
				"y": 0.8510862074,
				"z": 0.7168452421,
				"element": "H" 
			},
			{
				"x": 1.0913356453,
				"y": -0.8033541603,
				"z": 0.561423752,
				"element": "H" 
			},
			{
				"x": 3.158321788,
				"y": -1.1691394308,
				"z": -0.4939620271,
				"element": "H" 
			},
			{
				"x": 2.188712696,
				"y": -0.65684453,
				"z": -1.9000476661,
				"element": "H" 
			}
		],
		 "valence_orbital": [ 
			{
				"type": "occ",
				"energy": -0.33828,
				"method": "rhf"
			},
			{
				"type": "occ",
				"energy": -0.32933,
				"method": "rhf"
			},
			{
				"type": "occ",
				"energy": -0.32339,
				"method": "rhf"
			},
			{
				"type": "occ",
				"energy": -0.31446,
				"method": "rhf"
			},
			{
				"type": "occ",
				"energy": -0.3072,
				"method": "rhf"
			},
			{
				"type": "unocc",
				"energy": -0.09178,
				"method": "rhf"
			},
			{
				"type": "unocc",
				"energy": 0.01752,
				"method": "rhf"
			},
			{
				"type": "unocc",
				"energy": 0.03213,
				"method": "rhf"
			},
			{
				"type": "unocc",
				"energy": 0.03867,
				"method": "rhf"
			},
			{
				"type": "unocc",
				"energy": 0.04734,
				"method": "rhf"
			}
		],
		"cosmo_sigma_profile": { 
			"-0.025": 0.0,
			"-0.024": 0.0,
			"-0.023": 0.0,
			"-0.022": 0.0,
			"-0.021": 0.0,
			"-0.02": 0.0,
			"-0.019": 0.0,
			"-0.018": 0.0,
			"-0.017": 0.0,
			"-0.016": 0.0,
			"-0.015": 0.0,
			"-0.014": 0.0,
			"-0.013": 0.302777893567,
			"-0.012": 2.22697074383,
			"-0.011": 8.22400436439,
			"-0.01": 9.39324821023,
			"-0.009": 11.7981051999,
			"-0.008": 9.79856879848,
			"-0.007": 10.7833462805,
			"-0.006": 8.32614640068,
			"-0.005": 8.02175923975,
			"-0.004": 8.62924314574,
			"-0.003": 6.19612743086,
			"-0.002": 5.78417197392,
			"-0.001": 6.9916631452,
			"0.0": 7.20170770019,
			"0.001": 7.21052213939,
			"0.002": 11.1860374666,
			"0.003": 12.8517127918,
			"0.004": 8.43862057083,
			"0.005": 4.3667079104,
			"0.006": 4.11871468251,
			"0.007": 8.50780994675,
			"0.008": 14.2753284876,
			"0.009": 7.22635482242,
			"0.01": 6.16737953166,
			"0.011": 10.6579306666,
			"0.012": 5.64145868283,
			"0.013": 0.0687937124395,
			"0.014": 0.0,
			"0.015": 0.0,
			"0.016": 0.0,
			"0.017": 0.0,
			"0.018": 0.0,
			"0.019": 0.0,
			"0.02": 0.0,
			"0.021": 0.0,
			"0.022": 0.0,
			"0.023": 0.0,
			"0.024": 0.0,
			"0.025": 0.0
		}
	}
}
