{
	 "smiles": "OC(=O)C1=CN=C(Cl)C=N1", 
	 "Tm": 428.15, 
	 "num_atms": 13, 
	 "gaussian": { 
		 "optdone": 1, 
		 "sigma_profile": "yes", 
		 "theory": "DFT", 
		 "functional": "B3LYP", 
		 "basiset": "6-31G**", 
		 "properties": { 
			 "R2extent": 2143.4739, 
			 "electric_dipole_moment_norm": 1.56374896323, 
			 "electric_quadrupole_moment_norm": 4.84956801375, 
			 "total_energy": -912.476926795, 
			 "HOMO_LUMO_gap": 0.18713, 
			 "cosmo_polarized_energy": -11.11, 
			 "cosmo_cavitation_energy": 20.7, 
			 "cosmo_dispersion_energy": -15.65, 
			 "cosmo_repulsion_energy": 1.28, 
			 "cosmo_total_nonelectrostatic_energy": 6.32, 
			 "SMD_solvation_energy": 2.14 
		},
		"coords": [
			{
				"x": 0.1775067239,
				"y": -2.5679828818,
				"z": -1.2364642609,
				"element": "O" 
			},
			{
				"x": -0.3174548784,
				"y": -2.3184457066,
				"z": -0.0128723221,
				"element": "C" 
			},
			{
				"x": -0.8894983955,
				"y": -3.1483979672,
				"z": 0.6654594608,
				"element": "O" 
			},
			{
				"x": -0.0964865403,
				"y": -0.9094961096,
				"z": 0.441163364,
				"element": "C" 
			},
			{
				"x": -0.5697352464,
				"y": -0.5317723484,
				"z": 1.702298697,
				"element": "C" 
			},
			{
				"x": -0.4049110841,
				"y": 0.7123056923,
				"z": 2.1681175231,
				"element": "N" 
			},
			{
				"x": 0.2266309392,
				"y": 1.5533039891,
				"z": 1.3700897835,
				"element": "C" 
			},
			{
				"x": 0.4663021798,
				"y": 3.1914463977,
				"z": 1.9351263165,
				"element": "Cl" 
			},
			{
				"x": 0.708942979,
				"y": 1.1917939422,
				"z": 0.1001573656,
				"element": "C" 
			},
			{
				"x": 0.5437654319,
				"y": -0.0432110358,
				"z": -0.3589286779,
				"element": "N" 
			},
			{
				"x": -0.0235687052,
				"y": -3.5012368563,
				"z": -1.4200668405,
				"element": "H" 
			},
			{
				"x": -1.0855686685,
				"y": -1.2463173384,
				"z": 2.3359444794,
				"element": "H" 
			},
			{
				"x": 1.2245752645,
				"y": 1.9104102227,
				"z": -0.5304248886,
				"element": "H" 
			}
		],
		 "valence_orbital": [ 
			{
				"type": "occ",
				"energy": -0.33419,
				"method": "rhf"
			},
			{
				"type": "occ",
				"energy": -0.32788,
				"method": "rhf"
			},
			{
				"type": "occ",
				"energy": -0.30436,
				"method": "rhf"
			},
			{
				"type": "occ",
				"energy": -0.28519,
				"method": "rhf"
			},
			{
				"type": "occ",
				"energy": -0.2749,
				"method": "rhf"
			},
			{
				"type": "unocc",
				"energy": -0.08777,
				"method": "rhf"
			},
			{
				"type": "unocc",
				"energy": -0.06637,
				"method": "rhf"
			},
			{
				"type": "unocc",
				"energy": 0.01875,
				"method": "rhf"
			},
			{
				"type": "unocc",
				"energy": 0.02378,
				"method": "rhf"
			},
			{
				"type": "unocc",
				"energy": 0.06845,
				"method": "rhf"
			}
		],
		"cosmo_sigma_profile": { 
			"-0.025": 0.0,
			"-0.024": 0.0,
			"-0.023": 0.0,
			"-0.022": 0.0,
			"-0.021": 0.0,
			"-0.02": 0.0058507197576,
			"-0.019": 0.660767156717,
			"-0.018": 0.943457491066,
			"-0.017": 0.881615095133,
			"-0.016": 1.09972274063,
			"-0.015": 0.628662841047,
			"-0.014": 0.48961384535,
			"-0.013": 0.485461185336,
			"-0.012": 0.982489202566,
			"-0.011": 1.08124715208,
			"-0.01": 0.825534579099,
			"-0.009": 3.10662222299,
			"-0.008": 4.0969446302,
			"-0.007": 4.0338202183,
			"-0.006": 5.81919986817,
			"-0.005": 9.30862043315,
			"-0.004": 16.577432625,
			"-0.003": 13.0575649019,
			"-0.002": 10.164186434,
			"-0.001": 9.21003793968,
			"0.0": 9.62552425235,
			"0.001": 9.86471442593,
			"0.002": 9.08891579296,
			"0.003": 13.3210805873,
			"0.004": 7.89864814889,
			"0.005": 4.02916110675,
			"0.006": 4.10899894805,
			"0.007": 3.70920288353,
			"0.008": 4.32818928608,
			"0.009": 4.029087708,
			"0.01": 5.70947456672,
			"0.011": 6.07608105655,
			"0.012": 2.2332717427,
			"0.013": 1.26841112959,
			"0.014": 0.86074924536,
			"0.015": 0.00476451414456,
			"0.016": 0.0,
			"0.017": 0.0,
			"0.018": 0.0,
			"0.019": 0.0,
			"0.02": 0.0,
			"0.021": 0.0,
			"0.022": 0.0,
			"0.023": 0.0,
			"0.024": 0.0,
			"0.025": 0.0
		}
	}
}
