{
	 "smiles": "CC(=O)C1=CC=C(O)C(F)=C1", 
	 "Tm": 401.15, 
	 "num_atms": 18, 
	 "gaussian": { 
		 "optdone": 1, 
		 "sigma_profile": "yes", 
		 "theory": "DFT", 
		 "functional": "B3LYP", 
		 "basiset": "6-31G**", 
		 "properties": { 
			 "R2extent": 2193.1937, 
			 "electric_dipole_moment_norm": 1.78865244528, 
			 "electric_quadrupole_moment_norm": 20.6768079217, 
			 "total_energy": -559.346567299, 
			 "HOMO_LUMO_gap": 0.18298, 
			 "cosmo_polarized_energy": -13.22, 
			 "cosmo_cavitation_energy": 23.07, 
			 "cosmo_dispersion_energy": -16.81, 
			 "cosmo_repulsion_energy": 1.32, 
			 "cosmo_total_nonelectrostatic_energy": 7.58, 
			 "SMD_solvation_energy": 5.63 
		},
		"coords": [
			{
				"x": 1.6516732857,
				"y": 1.2653307189,
				"z": -3.5130922672,
				"element": "C" 
			},
			{
				"x": 0.597788661,
				"y": 1.779845001,
				"z": -2.546278235,
				"element": "C" 
			},
			{
				"x": 0.1739970318,
				"y": 2.9230271217,
				"z": -2.6390397031,
				"element": "O" 
			},
			{
				"x": 0.0866741832,
				"y": 0.8619164286,
				"z": -1.4827475955,
				"element": "C" 
			},
			{
				"x": -0.8866169405,
				"y": 1.3442478998,
				"z": -0.596215722,
				"element": "C" 
			},
			{
				"x": -1.3976143862,
				"y": 0.5345168956,
				"z": 0.4118062625,
				"element": "C" 
			},
			{
				"x": -0.9481761425,
				"y": -0.7829766568,
				"z": 0.5612130597,
				"element": "C" 
			},
			{
				"x": -1.3939821393,
				"y": -1.6373183021,
				"z": 1.5160573914,
				"element": "O" 
			},
			{
				"x": 0.0262043625,
				"y": -1.258853254,
				"z": -0.3298246909,
				"element": "C" 
			},
			{
				"x": 0.4592921261,
				"y": -2.5257198832,
				"z": -0.1871517373,
				"element": "F" 
			},
			{
				"x": 0.5398105826,
				"y": -0.4607913188,
				"z": -1.3349750778,
				"element": "C" 
			},
			{
				"x": 2.5566979553,
				"y": 0.9534107537,
				"z": -2.9799587655,
				"element": "H" 
			},
			{
				"x": 1.2847647098,
				"y": 0.395855507,
				"z": -4.0698713231,
				"element": "H" 
			},
			{
				"x": 1.9014686953,
				"y": 2.0631697454,
				"z": -4.2127767989,
				"element": "H" 
			},
			{
				"x": -1.2291908523,
				"y": 2.3657282206,
				"z": -0.7188903017,
				"element": "H" 
			},
			{
				"x": -2.1527094442,
				"y": 0.9178326269,
				"z": 1.0949429353,
				"element": "H" 
			},
			{
				"x": -2.0565844795,
				"y": -1.1884429326,
				"z": 2.0577041957,
				"element": "H" 
			},
			{
				"x": 1.2902027913,
				"y": -0.8892785719,
				"z": -1.9896016264,
				"element": "H" 
			}
		],
		 "valence_orbital": [ 
			{
				"type": "occ",
				"energy": -0.36364,
				"method": "rhf"
			},
			{
				"type": "occ",
				"energy": -0.33606,
				"method": "rhf"
			},
			{
				"type": "occ",
				"energy": -0.26474,
				"method": "rhf"
			},
			{
				"type": "occ",
				"energy": -0.24819,
				"method": "rhf"
			},
			{
				"type": "occ",
				"energy": -0.23571,
				"method": "rhf"
			},
			{
				"type": "unocc",
				"energy": -0.05273,
				"method": "rhf"
			},
			{
				"type": "unocc",
				"energy": -0.01274,
				"method": "rhf"
			},
			{
				"type": "unocc",
				"energy": 0.04543,
				"method": "rhf"
			},
			{
				"type": "unocc",
				"energy": 0.05234,
				"method": "rhf"
			},
			{
				"type": "unocc",
				"energy": 0.08067,
				"method": "rhf"
			}
		],
		"cosmo_sigma_profile": { 
			"-0.025": 0.0,
			"-0.024": 0.0,
			"-0.023": 0.0,
			"-0.022": 0.0,
			"-0.021": 0.0,
			"-0.02": 0.0,
			"-0.019": 0.507157759647,
			"-0.018": 1.44016739291,
			"-0.017": 1.21263680093,
			"-0.016": 1.06883209858,
			"-0.015": 0.830299141842,
			"-0.014": 0.713877727733,
			"-0.013": 1.03091324118,
			"-0.012": 1.05179468229,
			"-0.011": 1.45856913783,
			"-0.01": 1.08452617001,
			"-0.009": 0.826965251604,
			"-0.008": 2.40792048918,
			"-0.007": 5.84319448879,
			"-0.006": 9.00197020172,
			"-0.005": 11.1136661517,
			"-0.004": 9.55911367614,
			"-0.003": 8.7920207807,
			"-0.002": 10.2822078789,
			"-0.001": 12.8189706486,
			"0.0": 14.8065567373,
			"0.001": 14.0456312695,
			"0.002": 15.0281055608,
			"0.003": 13.3745275231,
			"0.004": 12.3820833339,
			"0.005": 5.38844874457,
			"0.006": 4.45094637277,
			"0.007": 3.76661065658,
			"0.008": 2.32941323674,
			"0.009": 4.27335600049,
			"0.01": 4.11775428136,
			"0.011": 2.55326869436,
			"0.012": 4.36310552657,
			"0.013": 1.95851039924,
			"0.014": 0.313260413423,
			"0.015": 0.0,
			"0.016": 0.0,
			"0.017": 0.0,
			"0.018": 0.0,
			"0.019": 0.0,
			"0.02": 0.0,
			"0.021": 0.0,
			"0.022": 0.0,
			"0.023": 0.0,
			"0.024": 0.0,
			"0.025": 0.0
		}
	}
}
