{
	 "smiles": "OC(=O)CCCCC1=CC=CS1", 
	 "Tm": 314.15, 
	 "num_atms": 24, 
	 "gaussian": { 
		 "optdone": 1, 
		 "sigma_profile": "yes", 
		 "theory": "DFT", 
		 "functional": "B3LYP", 
		 "basiset": "6-31G**", 
		 "properties": { 
			 "R2extent": 4016.0071, 
			 "electric_dipole_moment_norm": 1.72948355586, 
			 "electric_quadrupole_moment_norm": 10.9784579222, 
			 "total_energy": -898.836333135, 
			 "HOMO_LUMO_gap": 0.21636, 
			 "cosmo_polarized_energy": -10.94, 
			 "cosmo_cavitation_energy": 29.27, 
			 "cosmo_dispersion_energy": -21.27, 
			 "cosmo_repulsion_energy": 1.69, 
			 "cosmo_total_nonelectrostatic_energy": 9.68, 
			 "SMD_solvation_energy": 5.66 
		},
		"coords": [
			{
				"x": -1.3941924098,
				"y": 3.1037866894,
				"z": -3.4471339863,
				"element": "O" 
			},
			{
				"x": -1.4681817853,
				"y": 2.9569882313,
				"z": -2.1008908512,
				"element": "C" 
			},
			{
				"x": -2.5082694996,
				"y": 3.0824666905,
				"z": -1.4916789468,
				"element": "O" 
			},
			{
				"x": -0.110452631,
				"y": 2.6577202279,
				"z": -1.4992152124,
				"element": "C" 
			},
			{
				"x": -0.1820310957,
				"y": 2.1859635572,
				"z": -0.0418294291,
				"element": "C" 
			},
			{
				"x": -0.7929869885,
				"y": 0.7897813957,
				"z": 0.1617082071,
				"element": "C" 
			},
			{
				"x": 0.0648701963,
				"y": -0.3618732809,
				"z": -0.4046232233,
				"element": "C" 
			},
			{
				"x": -0.5196808271,
				"y": -1.7281426627,
				"z": -0.1751177514,
				"element": "C" 
			},
			{
				"x": -1.0899196109,
				"y": -2.5747244037,
				"z": -1.0895556087,
				"element": "C" 
			},
			{
				"x": -1.5697837787,
				"y": -3.7967547474,
				"z": -0.5238138936,
				"element": "C" 
			},
			{
				"x": -1.3606072083,
				"y": -3.8722417533,
				"z": 0.8238303673,
				"element": "C" 
			},
			{
				"x": -0.5723169182,
				"y": -2.4449748684,
				"z": 1.4220447499,
				"element": "S" 
			},
			{
				"x": -2.2940095656,
				"y": 3.3221879959,
				"z": -3.7433712959,
				"element": "H" 
			},
			{
				"x": 0.4048028945,
				"y": 1.9427186011,
				"z": -2.149349959,
				"element": "H" 
			},
			{
				"x": 0.4719125043,
				"y": 3.5859865222,
				"z": -1.5714044045,
				"element": "H" 
			},
			{
				"x": -0.7739140422,
				"y": 2.9132041352,
				"z": 0.523177319,
				"element": "H" 
			},
			{
				"x": 0.8316176226,
				"y": 2.2056006308,
				"z": 0.378366036,
				"element": "H" 
			},
			{
				"x": -1.7932331772,
				"y": 0.7552329934,
				"z": -0.2833436371,
				"element": "H" 
			},
			{
				"x": -0.9330349006,
				"y": 0.6260910277,
				"z": 1.2368060967,
				"element": "H" 
			},
			{
				"x": 1.0725753291,
				"y": -0.3041234649,
				"z": 0.0295790096,
				"element": "H" 
			},
			{
				"x": 0.1917281661,
				"y": -0.2419243436,
				"z": -1.4869970864,
				"element": "H" 
			},
			{
				"x": -1.1623687466,
				"y": -2.3299894323,
				"z": -2.1443007561,
				"element": "H" 
			},
			{
				"x": -2.0468026187,
				"y": -4.5826343765,
				"z": -1.0987393665,
				"element": "H" 
			},
			{
				"x": -1.6168209089,
				"y": -4.6739453644,
				"z": 1.5023536227,
				"element": "H" 
			}
		],
		 "valence_orbital": [ 
			{
				"type": "occ",
				"energy": -0.32529,
				"method": "rhf"
			},
			{
				"type": "occ",
				"energy": -0.31882,
				"method": "rhf"
			},
			{
				"type": "occ",
				"energy": -0.27671,
				"method": "rhf"
			},
			{
				"type": "occ",
				"energy": -0.24401,
				"method": "rhf"
			},
			{
				"type": "occ",
				"energy": -0.22178,
				"method": "rhf"
			},
			{
				"type": "unocc",
				"energy": -0.00542,
				"method": "rhf"
			},
			{
				"type": "unocc",
				"energy": 0.00762,
				"method": "rhf"
			},
			{
				"type": "unocc",
				"energy": 0.03479,
				"method": "rhf"
			},
			{
				"type": "unocc",
				"energy": 0.07251,
				"method": "rhf"
			},
			{
				"type": "unocc",
				"energy": 0.07679,
				"method": "rhf"
			}
		],
		"cosmo_sigma_profile": { 
			"-0.025": 0.0,
			"-0.024": 0.0,
			"-0.023": 0.0,
			"-0.022": 0.0,
			"-0.021": 0.0,
			"-0.02": 0.0,
			"-0.019": 0.0,
			"-0.018": 0.399894675033,
			"-0.017": 1.03555992809,
			"-0.016": 0.958632233225,
			"-0.015": 0.692945688749,
			"-0.014": 0.586699986186,
			"-0.013": 0.854448229283,
			"-0.012": 0.950170910224,
			"-0.011": 0.352102090982,
			"-0.01": 0.700691559449,
			"-0.009": 0.55350506888,
			"-0.008": 1.68304885469,
			"-0.007": 3.74218001599,
			"-0.006": 9.97955468869,
			"-0.005": 13.1006629304,
			"-0.004": 16.3172414524,
			"-0.003": 25.2035993212,
			"-0.002": 24.3535866402,
			"-0.001": 19.1720353058,
			"0.0": 16.1564796241,
			"0.001": 12.1113985483,
			"0.002": 10.9646723343,
			"0.003": 12.3456531057,
			"0.004": 13.8588806424,
			"0.005": 13.8660637113,
			"0.006": 10.5515012589,
			"0.007": 5.31171322622,
			"0.008": 2.84360926134,
			"0.009": 2.93673639522,
			"0.01": 2.85701105686,
			"0.011": 2.93038520102,
			"0.012": 4.63897070159,
			"0.013": 0.539626645321,
			"0.014": 0.0,
			"0.015": 0.0,
			"0.016": 0.0,
			"0.017": 0.0,
			"0.018": 0.0,
			"0.019": 0.0,
			"0.02": 0.0,
			"0.021": 0.0,
			"0.022": 0.0,
			"0.023": 0.0,
			"0.024": 0.0,
			"0.025": 0.0
		}
	}
}
