{
	 "smiles": "O=C(C1=CC2=C(O1)C=CC=C2)C1=CC2=C(O1)C=CC=C2", 
	 "Tm": 447.15, 
	 "num_atms": 30, 
	 "gaussian": { 
		 "optdone": 1, 
		 "sigma_profile": "yes", 
		 "theory": "DFT", 
		 "functional": "B3LYP", 
		 "basiset": "6-31G**", 
		 "properties": { 
			 "R2extent": 7313.9873, 
			 "electric_dipole_moment_norm": 2.36324439278, 
			 "electric_quadrupole_moment_norm": 19.4325735838, 
			 "total_energy": -879.487059467, 
			 "HOMO_LUMO_gap": 0.14434, 
			 "cosmo_polarized_energy": -10.49, 
			 "cosmo_cavitation_energy": 35.91, 
			 "cosmo_dispersion_energy": -26.26, 
			 "cosmo_repulsion_energy": 1.97, 
			 "cosmo_total_nonelectrostatic_energy": 11.62, 
			 "SMD_solvation_energy": 6.97 
		},
		"coords": [
			{
				"x": -2.5989361581,
				"y": 0.5301104089,
				"z": 1.0616886874,
				"element": "O" 
			},
			{
				"x": -1.6537986583,
				"y": 0.1323974815,
				"z": 0.3788126682,
				"element": "C" 
			},
			{
				"x": -0.5804134783,
				"y": 1.0776108136,
				"z": 0.0285068496,
				"element": "C" 
			},
			{
				"x": -0.4948064688,
				"y": 2.3973850403,
				"z": 0.3800460475,
				"element": "C" 
			},
			{
				"x": 0.7207535022,
				"y": 2.8929537072,
				"z": -0.1922016547,
				"element": "C" 
			},
			{
				"x": 1.2905384178,
				"y": 1.7921615597,
				"z": -0.8669590449,
				"element": "C" 
			},
			{
				"x": 0.5020645242,
				"y": 0.6888046746,
				"z": -0.7343294958,
				"element": "O" 
			},
			{
				"x": 2.4938358924,
				"y": 1.8558649345,
				"z": -1.5634863081,
				"element": "C" 
			},
			{
				"x": 3.1381676498,
				"y": 3.0899655482,
				"z": -1.5704312268,
				"element": "C" 
			},
			{
				"x": 2.595370705,
				"y": 4.2106435165,
				"z": -0.9056887936,
				"element": "C" 
			},
			{
				"x": 1.3932218744,
				"y": 4.1286277521,
				"z": -0.2154876679,
				"element": "C" 
			},
			{
				"x": -1.6340602928,
				"y": -1.2727799566,
				"z": -0.0609338269,
				"element": "C" 
			},
			{
				"x": -2.5715775547,
				"y": -2.2340960596,
				"z": 0.2029909288,
				"element": "C" 
			},
			{
				"x": -2.1150652834,
				"y": -3.4332305927,
				"z": -0.4328779089,
				"element": "C" 
			},
			{
				"x": -0.8950484741,
				"y": -3.0855255418,
				"z": -1.0512293829,
				"element": "C" 
			},
			{
				"x": -0.6010102889,
				"y": -1.7741286356,
				"z": -0.8266372821,
				"element": "O" 
			},
			{
				"x": -0.121005217,
				"y": -3.9811970565,
				"z": -1.7831681577,
				"element": "C" 
			},
			{
				"x": -0.612148154,
				"y": -5.2797577495,
				"z": -1.8867958085,
				"element": "C" 
			},
			{
				"x": -1.8287332655,
				"y": -5.6601585102,
				"z": -1.2804547017,
				"element": "C" 
			},
			{
				"x": -2.5881262351,
				"y": -4.7528118156,
				"z": -0.5536045511,
				"element": "C" 
			},
			{
				"x": -1.225725476,
				"y": 2.9237151434,
				"z": 0.975491839,
				"element": "H" 
			},
			{
				"x": 2.8992330569,
				"y": 0.9869274027,
				"z": -2.0697203981,
				"element": "H" 
			},
			{
				"x": 4.0806407678,
				"y": 3.1931799098,
				"z": -2.099685774,
				"element": "H" 
			},
			{
				"x": 3.1325345294,
				"y": 5.1536719925,
				"z": -0.9376347249,
				"element": "H" 
			},
			{
				"x": 0.9812044471,
				"y": 4.994409353,
				"z": 0.2937737039,
				"element": "H" 
			},
			{
				"x": -3.4681124635,
				"y": -2.0756533852,
				"z": 0.7834611541,
				"element": "H" 
			},
			{
				"x": 0.8117389724,
				"y": -3.6752820137,
				"z": -2.2436841411,
				"element": "H" 
			},
			{
				"x": -0.0461481995,
				"y": -6.0176730873,
				"z": -2.4472801285,
				"element": "H" 
			},
			{
				"x": -2.1734505814,
				"y": -6.6841645469,
				"z": -1.3874601031,
				"element": "H" 
			},
			{
				"x": -3.5230380899,
				"y": -5.0518702873,
				"z": -0.0897207969,
				"element": "H" 
			}
		],
		 "valence_orbital": [ 
			{
				"type": "occ",
				"energy": -0.26235,
				"method": "rhf"
			},
			{
				"type": "occ",
				"energy": -0.2479,
				"method": "rhf"
			},
			{
				"type": "occ",
				"energy": -0.24502,
				"method": "rhf"
			},
			{
				"type": "occ",
				"energy": -0.23139,
				"method": "rhf"
			},
			{
				"type": "occ",
				"energy": -0.2279,
				"method": "rhf"
			},
			{
				"type": "unocc",
				"energy": -0.08356,
				"method": "rhf"
			},
			{
				"type": "unocc",
				"energy": -0.02672,
				"method": "rhf"
			},
			{
				"type": "unocc",
				"energy": 0.00056,
				"method": "rhf"
			},
			{
				"type": "unocc",
				"energy": 0.00574,
				"method": "rhf"
			},
			{
				"type": "unocc",
				"energy": 0.01621,
				"method": "rhf"
			}
		],
		"cosmo_sigma_profile": { 
			"-0.025": 0.0,
			"-0.024": 0.0,
			"-0.023": 0.0,
			"-0.022": 0.0,
			"-0.021": 0.0,
			"-0.02": 0.0,
			"-0.019": 0.0,
			"-0.018": 0.0,
			"-0.017": 0.0,
			"-0.016": 0.0,
			"-0.015": 0.0,
			"-0.014": 0.0,
			"-0.013": 0.0,
			"-0.012": 0.0,
			"-0.011": 0.0,
			"-0.01": 0.0,
			"-0.009": 0.349226811953,
			"-0.008": 2.7005763856,
			"-0.007": 10.0014549621,
			"-0.006": 19.5195465314,
			"-0.005": 22.7011481227,
			"-0.004": 19.3913528479,
			"-0.003": 17.4446885173,
			"-0.002": 16.6008118453,
			"-0.001": 18.257075252,
			"0.0": 26.0700185255,
			"0.001": 28.5022399926,
			"0.002": 31.074604815,
			"0.003": 24.7995048376,
			"0.004": 21.3968272657,
			"0.005": 9.09207008872,
			"0.006": 2.66745982627,
			"0.007": 2.40980187247,
			"0.008": 4.07150865041,
			"0.009": 2.3832161097,
			"0.01": 3.67322654948,
			"0.011": 3.32490015684,
			"0.012": 4.22611892383,
			"0.013": 0.216833667666,
			"0.014": 0.0,
			"0.015": 0.0,
			"0.016": 0.0,
			"0.017": 0.0,
			"0.018": 0.0,
			"0.019": 0.0,
			"0.02": 0.0,
			"0.021": 0.0,
			"0.022": 0.0,
			"0.023": 0.0,
			"0.024": 0.0,
			"0.025": 0.0
		}
	}
}
