{
	 "smiles": "NC1=C(Br)C=C(OC(F)(F)F)C=C1Br", 
	 "Tm": 309.15, 
	 "num_atms": 18, 
	 "gaussian": { 
		 "optdone": 1, 
		 "sigma_profile": "yes", 
		 "theory": "DFT", 
		 "functional": "B3LYP", 
		 "basiset": "6-31G**", 
		 "properties": { 
			 "R2extent": 10682.6169, 
			 "electric_dipole_moment_norm": 2.46532648751, 
			 "electric_quadrupole_moment_norm": 11.22382375, 
			 "total_energy": -5841.4640376, 
			 "HOMO_LUMO_gap": 0.19082, 
			 "cosmo_polarized_energy": -6.03, 
			 "cosmo_cavitation_energy": 28.67, 
			 "cosmo_dispersion_energy": -21.45, 
			 "cosmo_repulsion_energy": 1.64, 
			 "cosmo_total_nonelectrostatic_energy": 8.87, 
			 "SMD_solvation_energy": 4.09 
		},
		"coords": [
			{
				"x": 4.0810311637,
				"y": -3.2153410391,
				"z": -2.2467734846,
				"element": "N" 
			},
			{
				"x": 3.4554365945,
				"y": -2.120763022,
				"z": -1.7079740265,
				"element": "C" 
			},
			{
				"x": 3.3545885926,
				"y": -1.9219547977,
				"z": -0.311870007,
				"element": "C" 
			},
			{
				"x": 4.049714803,
				"y": -3.2624684498,
				"z": 0.8634674292,
				"element": "Br" 
			},
			{
				"x": 2.7697983266,
				"y": -0.7930473818,
				"z": 0.2467065821,
				"element": "C" 
			},
			{
				"x": 2.2562581358,
				"y": 0.1857418204,
				"z": -0.5966648978,
				"element": "C" 
			},
			{
				"x": 1.7300638551,
				"y": 1.3636915998,
				"z": -0.0466951259,
				"element": "O" 
			},
			{
				"x": 0.3986205066,
				"y": 1.3693455821,
				"z": 0.2262971239,
				"element": "C" 
			},
			{
				"x": 0.0559369642,
				"y": 0.4186301021,
				"z": 1.1170491806,
				"element": "F" 
			},
			{
				"x": -0.3494740845,
				"y": 1.1687347662,
				"z": -0.8759184951,
				"element": "F" 
			},
			{
				"x": 0.0968413881,
				"y": 2.5616976927,
				"z": 0.7364592835,
				"element": "F" 
			},
			{
				"x": 2.3181047047,
				"y": 0.0441880412,
				"z": -1.9783765027,
				"element": "C" 
			},
			{
				"x": 2.908074962,
				"y": -1.0943377841,
				"z": -2.5114472333,
				"element": "C" 
			},
			{
				"x": 2.9780606737,
				"y": -1.2764292316,
				"z": -4.4150306961,
				"element": "Br" 
			},
			{
				"x": 3.8953896551,
				"y": -3.4161395388,
				"z": -3.2178513815,
				"element": "H" 
			},
			{
				"x": 4.2154855536,
				"y": -4.0099223788,
				"z": -1.6398642306,
				"element": "H" 
			},
			{
				"x": 2.7132596437,
				"y": -0.6721176089,
				"z": 1.3208620241,
				"element": "H" 
			},
			{
				"x": 1.9124085616,
				"y": 0.8122916282,
				"z": -2.6241755421,
				"element": "H" 
			}
		],
		 "valence_orbital": [ 
			{
				"type": "occ",
				"energy": -0.3124,
				"method": "rhf"
			},
			{
				"type": "occ",
				"energy": -0.30873,
				"method": "rhf"
			},
			{
				"type": "occ",
				"energy": -0.30342,
				"method": "rhf"
			},
			{
				"type": "occ",
				"energy": -0.25758,
				"method": "rhf"
			},
			{
				"type": "occ",
				"energy": -0.22464,
				"method": "rhf"
			},
			{
				"type": "unocc",
				"energy": -0.03382,
				"method": "rhf"
			},
			{
				"type": "unocc",
				"energy": -0.02913,
				"method": "rhf"
			},
			{
				"type": "unocc",
				"energy": -0.01318,
				"method": "rhf"
			},
			{
				"type": "unocc",
				"energy": 0.01619,
				"method": "rhf"
			},
			{
				"type": "unocc",
				"energy": 0.08413,
				"method": "rhf"
			}
		],
		"cosmo_sigma_profile": { 
			"-0.025": 0.0,
			"-0.024": 0.0,
			"-0.023": 0.0,
			"-0.022": 0.0,
			"-0.021": 0.0,
			"-0.02": 0.0,
			"-0.019": 0.0,
			"-0.018": 0.0,
			"-0.017": 0.0,
			"-0.016": 0.0,
			"-0.015": 0.0,
			"-0.014": 0.0,
			"-0.013": 0.305282939354,
			"-0.012": 1.60070098509,
			"-0.011": 1.9303386592,
			"-0.01": 2.25525276445,
			"-0.009": 2.61682641932,
			"-0.008": 3.64034565365,
			"-0.007": 4.70708423464,
			"-0.006": 4.40403927166,
			"-0.005": 8.04689675914,
			"-0.004": 8.75623483453,
			"-0.003": 8.80259304149,
			"-0.002": 12.8100459326,
			"-0.001": 16.2720159515,
			"0.0": 24.6801887722,
			"0.001": 43.8408875921,
			"0.002": 48.2067058086,
			"0.003": 21.7146586321,
			"0.004": 13.9508350059,
			"0.005": 2.22335800158,
			"0.006": 2.11902676258,
			"0.007": 2.14419941798,
			"0.008": 0.642658631534,
			"0.009": 0.584459504167,
			"0.01": 0.590221110542,
			"0.011": 0.131304285021,
			"0.012": 0.0,
			"0.013": 0.0,
			"0.014": 0.0,
			"0.015": 0.0,
			"0.016": 0.0,
			"0.017": 0.0,
			"0.018": 0.0,
			"0.019": 0.0,
			"0.02": 0.0,
			"0.021": 0.0,
			"0.022": 0.0,
			"0.023": 0.0,
			"0.024": 0.0,
			"0.025": 0.0
		}
	}
}
