{
	 "smiles": "COC1=CC=C(F)C(C#N)=C1Cl", 
	 "Tm": 375.15, 
	 "num_atms": 17, 
	 "gaussian": { 
		 "optdone": 1, 
		 "sigma_profile": "yes", 
		 "theory": "DFT", 
		 "functional": "B3LYP", 
		 "basiset": "6-31G**", 
		 "properties": { 
			 "R2extent": 4373.0348, 
			 "electric_dipole_moment_norm": 5.74698992604, 
			 "electric_quadrupole_moment_norm": 17.2180693653, 
			 "total_energy": -997.821359301, 
			 "HOMO_LUMO_gap": 0.19334, 
			 "cosmo_polarized_energy": -10.12, 
			 "cosmo_cavitation_energy": 24.96, 
			 "cosmo_dispersion_energy": -17.48, 
			 "cosmo_repulsion_energy": 1.38, 
			 "cosmo_total_nonelectrostatic_energy": 8.85, 
			 "SMD_solvation_energy": 6.64 
		},
		"coords": [
			{
				"x": -2.3623797786,
				"y": 0.9840165953,
				"z": -0.8624052801,
				"element": "C" 
			},
			{
				"x": -2.7463470793,
				"y": -0.3261330762,
				"z": -1.2999881304,
				"element": "O" 
			},
			{
				"x": -1.8634805171,
				"y": -1.3241626046,
				"z": -0.9950829542,
				"element": "C" 
			},
			{
				"x": -2.0346497309,
				"y": -2.0651333802,
				"z": 0.179454297,
				"element": "C" 
			},
			{
				"x": -1.192570201,
				"y": -3.1282882832,
				"z": 0.4958959609,
				"element": "C" 
			},
			{
				"x": -0.1654860354,
				"y": -3.4462463621,
				"z": -0.3793010925,
				"element": "C" 
			},
			{
				"x": 0.6567229267,
				"y": -4.4648144741,
				"z": -0.0939630661,
				"element": "F" 
			},
			{
				"x": 0.0447997173,
				"y": -2.7349765371,
				"z": -1.5710283425,
				"element": "C" 
			},
			{
				"x": 1.1169259151,
				"y": -3.1156949087,
				"z": -2.4352430943,
				"element": "C" 
			},
			{
				"x": 1.9957981247,
				"y": -3.4383025612,
				"z": -3.1243159423,
				"element": "N" 
			},
			{
				"x": -0.8208622335,
				"y": -1.6623609358,
				"z": -1.8708227145,
				"element": "C" 
			},
			{
				"x": -0.6105222474,
				"y": -0.7670710082,
				"z": -3.3452083229,
				"element": "Cl" 
			},
			{
				"x": -3.1688928325,
				"y": 1.6531241883,
				"z": -1.1654593579,
				"element": "H" 
			},
			{
				"x": -1.4271040044,
				"y": 1.3037434713,
				"z": -1.3347367399,
				"element": "H" 
			},
			{
				"x": -2.2500227608,
				"y": 1.0165139164,
				"z": 0.2284414681,
				"element": "H" 
			},
			{
				"x": -2.8568372285,
				"y": -1.7966171048,
				"z": 0.8344934809,
				"element": "H" 
			},
			{
				"x": -1.3207920344,
				"y": -3.7110969353,
				"z": 1.4005698306,
				"element": "H" 
			}
		],
		 "valence_orbital": [ 
			{
				"type": "occ",
				"energy": -0.34277,
				"method": "rhf"
			},
			{
				"type": "occ",
				"energy": -0.32989,
				"method": "rhf"
			},
			{
				"type": "occ",
				"energy": -0.29915,
				"method": "rhf"
			},
			{
				"type": "occ",
				"energy": -0.27669,
				"method": "rhf"
			},
			{
				"type": "occ",
				"energy": -0.26253,
				"method": "rhf"
			},
			{
				"type": "unocc",
				"energy": -0.06919,
				"method": "rhf"
			},
			{
				"type": "unocc",
				"energy": -0.03165,
				"method": "rhf"
			},
			{
				"type": "unocc",
				"energy": 0.00676,
				"method": "rhf"
			},
			{
				"type": "unocc",
				"energy": 0.02459,
				"method": "rhf"
			},
			{
				"type": "unocc",
				"energy": 0.0615,
				"method": "rhf"
			}
		],
		"cosmo_sigma_profile": { 
			"-0.025": 0.0,
			"-0.024": 0.0,
			"-0.023": 0.0,
			"-0.022": 0.0,
			"-0.021": 0.0,
			"-0.02": 0.0,
			"-0.019": 0.0,
			"-0.018": 0.0,
			"-0.017": 0.0,
			"-0.016": 0.0,
			"-0.015": 0.0,
			"-0.014": 0.0,
			"-0.013": 0.0,
			"-0.012": 0.0,
			"-0.011": 0.0,
			"-0.01": 0.0566730281627,
			"-0.009": 2.79255413834,
			"-0.008": 4.18691181117,
			"-0.007": 4.32244903043,
			"-0.006": 6.54515949163,
			"-0.005": 10.7176746006,
			"-0.004": 17.1492984125,
			"-0.003": 22.8966322928,
			"-0.002": 21.5501524369,
			"-0.001": 16.1285133347,
			"0.0": 15.0297640421,
			"0.001": 12.0789462965,
			"0.002": 15.0163965752,
			"0.003": 17.3777003741,
			"0.004": 5.74595670935,
			"0.005": 4.92124874685,
			"0.006": 3.94165044352,
			"0.007": 5.08077750723,
			"0.008": 4.71572234437,
			"0.009": 4.52902743168,
			"0.01": 4.13594137514,
			"0.011": 3.05572454201,
			"0.012": 1.8021482411,
			"0.013": 0.185681368676,
			"0.014": 0.0,
			"0.015": 0.0,
			"0.016": 0.0,
			"0.017": 0.0,
			"0.018": 0.0,
			"0.019": 0.0,
			"0.02": 0.0,
			"0.021": 0.0,
			"0.022": 0.0,
			"0.023": 0.0,
			"0.024": 0.0,
			"0.025": 0.0
		}
	}
}
