{
	 "smiles": "ClC1=C2C3=C(CCCC3)SC2=NC(C=CC2=CC=C(Br)C=C2)=N1", 
	 "Tm": 442.15, 
	 "num_atms": 37, 
	 "gaussian": { 
		 "optdone": 1, 
		 "sigma_profile": "yes", 
		 "theory": "DFT", 
		 "functional": "B3LYP", 
		 "basiset": "6-31G**", 
		 "properties": { 
			 "R2extent": 23140.66, 
			 "electric_dipole_moment_norm": 4.13045027328, 
			 "electric_quadrupole_moment_norm": 7.75450047585, 
			 "total_energy": -4233.65741703, 
			 "HOMO_LUMO_gap": 0.13486, 
			 "cosmo_polarized_energy": -9.06, 
			 "cosmo_cavitation_energy": 46.21, 
			 "cosmo_dispersion_energy": -34.97, 
			 "cosmo_repulsion_energy": 2.6, 
			 "cosmo_total_nonelectrostatic_energy": 13.84, 
			 "SMD_solvation_energy": 2.11 
		},
		"coords": [
			{
				"x": -0.8921072012,
				"y": -2.773498723,
				"z": -2.9944451384,
				"element": "Cl" 
			},
			{
				"x": -0.2842817755,
				"y": -1.594010783,
				"z": -1.8307267648,
				"element": "C" 
			},
			{
				"x": 0.4744514125,
				"y": -2.0010408357,
				"z": -0.7176086691,
				"element": "C" 
			},
			{
				"x": 0.9635181225,
				"y": -3.2649966445,
				"z": -0.2112509191,
				"element": "C" 
			},
			{
				"x": 1.64394054,
				"y": -3.1074285989,
				"z": 0.9648106955,
				"element": "C" 
			},
			{
				"x": 2.2690314839,
				"y": -4.2136801273,
				"z": 1.769341064,
				"element": "C" 
			},
			{
				"x": 1.7267088981,
				"y": -5.5805716859,
				"z": 1.3188212906,
				"element": "C" 
			},
			{
				"x": 1.7128798167,
				"y": -5.6803122968,
				"z": -0.2111343095,
				"element": "C" 
			},
			{
				"x": 0.7847968625,
				"y": -4.6285885988,
				"z": -0.8431357427,
				"element": "C" 
			},
			{
				"x": 1.7515075857,
				"y": -1.4346344895,
				"z": 1.5083975056,
				"element": "S" 
			},
			{
				"x": 0.8364894366,
				"y": -0.9007484648,
				"z": 0.1117802311,
				"element": "C" 
			},
			{
				"x": 0.536181103,
				"y": 0.3698532027,
				"z": -0.1041245462,
				"element": "N" 
			},
			{
				"x": -0.1799323183,
				"y": 0.611626599,
				"z": -1.2142790137,
				"element": "C" 
			},
			{
				"x": -0.5551836694,
				"y": 1.9837236525,
				"z": -1.5455980573,
				"element": "C" 
			},
			{
				"x": -0.2202621293,
				"y": 3.0527882692,
				"z": -0.7944593991,
				"element": "C" 
			},
			{
				"x": -0.5540118352,
				"y": 4.4518443724,
				"z": -1.0545984866,
				"element": "C" 
			},
			{
				"x": -0.1120150438,
				"y": 5.4333640516,
				"z": -0.1479049379,
				"element": "C" 
			},
			{
				"x": -0.3955261304,
				"y": 6.7836646252,
				"z": -0.3369658398,
				"element": "C" 
			},
			{
				"x": -1.1354880085,
				"y": 7.1691335952,
				"z": -1.4527131231,
				"element": "C" 
			},
			{
				"x": -1.5341487136,
				"y": 9.0155614463,
				"z": -1.7291078517,
				"element": "Br" 
			},
			{
				"x": -1.5907945358,
				"y": 6.2227253538,
				"z": -2.3738089186,
				"element": "C" 
			},
			{
				"x": -1.2999391168,
				"y": 4.8788296783,
				"z": -2.1716374373,
				"element": "C" 
			},
			{
				"x": -0.6007458522,
				"y": -0.3446077581,
				"z": -2.0795835831,
				"element": "N" 
			},
			{
				"x": 3.3613232413,
				"y": -4.1843207927,
				"z": 1.6452832024,
				"element": "H" 
			},
			{
				"x": 2.0809894138,
				"y": -4.0590489515,
				"z": 2.8387072285,
				"element": "H" 
			},
			{
				"x": 2.33676459,
				"y": -6.3790709639,
				"z": 1.7545130173,
				"element": "H" 
			},
			{
				"x": 0.7072356273,
				"y": -5.7115904032,
				"z": 1.7036636719,
				"element": "H" 
			},
			{
				"x": 1.3979530016,
				"y": -6.6802570378,
				"z": -0.5280216098,
				"element": "H" 
			},
			{
				"x": 2.7340710551,
				"y": -5.537397343,
				"z": -0.5886808168,
				"element": "H" 
			},
			{
				"x": -0.2630478603,
				"y": -4.9419779428,
				"z": -0.7403243041,
				"element": "H" 
			},
			{
				"x": 0.970274612,
				"y": -4.5689293972,
				"z": -1.9192263398,
				"element": "H" 
			},
			{
				"x": -1.1340004694,
				"y": 2.0754960173,
				"z": -2.4590513932,
				"element": "H" 
			},
			{
				"x": 0.3616035042,
				"y": 2.8621092553,
				"z": 0.1049595162,
				"element": "H" 
			},
			{
				"x": 0.4649247846,
				"y": 5.1298283351,
				"z": 0.7214731493,
				"element": "H" 
			},
			{
				"x": -0.0472483973,
				"y": 7.5264770814,
				"z": 0.37153219,
				"element": "H" 
			},
			{
				"x": -2.1655295886,
				"y": 6.5378917508,
				"z": -3.2372689623,
				"element": "H" 
			},
			{
				"x": -1.6594824459,
				"y": 4.1538945524,
				"z": -2.8947265985,
				"element": "H" 
			}
		],
		 "valence_orbital": [ 
			{
				"type": "occ",
				"energy": -0.26772,
				"method": "rhf"
			},
			{
				"type": "occ",
				"energy": -0.26701,
				"method": "rhf"
			},
			{
				"type": "occ",
				"energy": -0.26484,
				"method": "rhf"
			},
			{
				"type": "occ",
				"energy": -0.24223,
				"method": "rhf"
			},
			{
				"type": "occ",
				"energy": -0.2126,
				"method": "rhf"
			},
			{
				"type": "unocc",
				"energy": -0.07774,
				"method": "rhf"
			},
			{
				"type": "unocc",
				"energy": -0.04078,
				"method": "rhf"
			},
			{
				"type": "unocc",
				"energy": -0.01946,
				"method": "rhf"
			},
			{
				"type": "unocc",
				"energy": -0.01488,
				"method": "rhf"
			},
			{
				"type": "unocc",
				"energy": 0.00295,
				"method": "rhf"
			}
		],
		"cosmo_sigma_profile": { 
			"-0.025": 0.0,
			"-0.024": 0.0,
			"-0.023": 0.0,
			"-0.022": 0.0,
			"-0.021": 0.0,
			"-0.02": 0.0,
			"-0.019": 0.0,
			"-0.018": 0.0,
			"-0.017": 0.0,
			"-0.016": 0.0,
			"-0.015": 0.0,
			"-0.014": 0.0,
			"-0.013": 0.0,
			"-0.012": 0.0,
			"-0.011": 0.0,
			"-0.01": 0.0,
			"-0.009": 0.311336392701,
			"-0.008": 2.18438837813,
			"-0.007": 8.71413548754,
			"-0.006": 10.0872016031,
			"-0.005": 14.1617973635,
			"-0.004": 18.1486663256,
			"-0.003": 35.0202664896,
			"-0.002": 41.3041155947,
			"-0.001": 41.2032458766,
			"0.0": 36.8155389814,
			"0.001": 39.173504655,
			"0.002": 39.5946080375,
			"0.003": 40.6161367105,
			"0.004": 25.5420168356,
			"0.005": 9.83355271878,
			"0.006": 3.64758444877,
			"0.007": 2.57432479449,
			"0.008": 3.03879409191,
			"0.009": 2.45681581558,
			"0.01": 1.27040635575,
			"0.011": 0.595050088001,
			"0.012": 0.559702295733,
			"0.013": 0.613207718706,
			"0.014": 0.0,
			"0.015": 0.0,
			"0.016": 0.0,
			"0.017": 0.0,
			"0.018": 0.0,
			"0.019": 0.0,
			"0.02": 0.0,
			"0.021": 0.0,
			"0.022": 0.0,
			"0.023": 0.0,
			"0.024": 0.0,
			"0.025": 0.0
		}
	}
}
