{
	 "smiles": "CC(C)=C1CC(=C(C)C)C1=O", 
	 "Tm": 360.15, 
	 "num_atms": 25, 
	 "gaussian": { 
		 "optdone": 1, 
		 "sigma_profile": "yes", 
		 "theory": "DFT", 
		 "functional": "B3LYP", 
		 "basiset": "6-31G**", 
		 "properties": { 
			 "R2extent": 2512.7838, 
			 "electric_dipole_moment_norm": 3.09026242575, 
			 "electric_quadrupole_moment_norm": 7.87264363095, 
			 "total_energy": -464.69128811, 
			 "HOMO_LUMO_gap": 0.16788, 
			 "cosmo_polarized_energy": -7.97, 
			 "cosmo_cavitation_energy": 27.83, 
			 "cosmo_dispersion_energy": -19.76, 
			 "cosmo_repulsion_energy": 1.62, 
			 "cosmo_total_nonelectrostatic_energy": 9.69, 
			 "SMD_solvation_energy": 5.55 
		},
		"coords": [
			{
				"x": -2.6622842132,
				"y": -0.9447485278,
				"z": -2.8116438308,
				"element": "C" 
			},
			{
				"x": -1.9277109083,
				"y": -0.0648774902,
				"z": -1.8368679687,
				"element": "C" 
			},
			{
				"x": -2.4791582405,
				"y": 1.3201333783,
				"z": -1.6199135155,
				"element": "C" 
			},
			{
				"x": -0.830088248,
				"y": -0.4825501526,
				"z": -1.1839236689,
				"element": "C" 
			},
			{
				"x": -0.0052276526,
				"y": -1.7783533448,
				"z": -1.1487994544,
				"element": "C" 
			},
			{
				"x": 0.9067513419,
				"y": -1.08639075,
				"z": -0.1239855426,
				"element": "C" 
			},
			{
				"x": 2.0073382639,
				"y": -1.433020959,
				"z": 0.56457187,
				"element": "C" 
			},
			{
				"x": 2.6436103887,
				"y": -2.7894820972,
				"z": 0.4262469115,
				"element": "C" 
			},
			{
				"x": 2.6619872903,
				"y": -0.4674807458,
				"z": 1.5177709652,
				"element": "C" 
			},
			{
				"x": 0.0799909285,
				"y": 0.1612226362,
				"z": -0.1834676794,
				"element": "C" 
			},
			{
				"x": 0.1278760381,
				"y": 1.2539009226,
				"z": 0.3605142593,
				"element": "O" 
			},
			{
				"x": -3.705422953,
				"y": -1.0818444931,
				"z": -2.4978903816,
				"element": "H" 
			},
			{
				"x": -2.2005754264,
				"y": -1.9297843093,
				"z": -2.9118661663,
				"element": "H" 
			},
			{
				"x": -2.6973410073,
				"y": -0.476447825,
				"z": -3.8040386793,
				"element": "H" 
			},
			{
				"x": -1.8816203539,
				"y": 1.8800770979,
				"z": -0.8993594618,
				"element": "H" 
			},
			{
				"x": -2.5076236429,
				"y": 1.8737516958,
				"z": -2.5677757817,
				"element": "H" 
			},
			{
				"x": -3.5155730223,
				"y": 1.2677251854,
				"z": -1.2609686087,
				"element": "H" 
			},
			{
				"x": -0.5402948843,
				"y": -2.6599086788,
				"z": -0.774220206,
				"element": "H" 
			},
			{
				"x": 0.4794037312,
				"y": -2.0467062965,
				"z": -2.0958268038,
				"element": "H" 
			},
			{
				"x": 2.6769521188,
				"y": -3.3012138309,
				"z": 1.3970181144,
				"element": "H" 
			},
			{
				"x": 2.1103919086,
				"y": -3.428333638,
				"z": -0.2816144039,
				"element": "H" 
			},
			{
				"x": 3.6847980213,
				"y": -2.6952664445,
				"z": 0.090941622,
				"element": "H" 
			},
			{
				"x": 2.1310636592,
				"y": 0.4848261512,
				"z": 1.5497325774,
				"element": "H" 
			},
			{
				"x": 2.695757602,
				"y": -0.8921284946,
				"z": 2.5298391247,
				"element": "H" 
			},
			{
				"x": 3.70419926,
				"y": -0.2860989891,
				"z": 1.2234267089,
				"element": "H" 
			}
		],
		 "valence_orbital": [ 
			{
				"type": "occ",
				"energy": -0.33417,
				"method": "rhf"
			},
			{
				"type": "occ",
				"energy": -0.33257,
				"method": "rhf"
			},
			{
				"type": "occ",
				"energy": -0.24429,
				"method": "rhf"
			},
			{
				"type": "occ",
				"energy": -0.24351,
				"method": "rhf"
			},
			{
				"type": "occ",
				"energy": -0.22964,
				"method": "rhf"
			},
			{
				"type": "unocc",
				"energy": -0.06176,
				"method": "rhf"
			},
			{
				"type": "unocc",
				"energy": 0.03951,
				"method": "rhf"
			},
			{
				"type": "unocc",
				"energy": 0.09409,
				"method": "rhf"
			},
			{
				"type": "unocc",
				"energy": 0.09944,
				"method": "rhf"
			},
			{
				"type": "unocc",
				"energy": 0.10717,
				"method": "rhf"
			}
		],
		"cosmo_sigma_profile": { 
			"-0.025": 0.0,
			"-0.024": 0.0,
			"-0.023": 0.0,
			"-0.022": 0.0,
			"-0.021": 0.0,
			"-0.02": 0.0,
			"-0.019": 0.0,
			"-0.018": 0.0,
			"-0.017": 0.0,
			"-0.016": 0.0,
			"-0.015": 0.0,
			"-0.014": 0.0,
			"-0.013": 0.0,
			"-0.012": 0.0,
			"-0.011": 0.0,
			"-0.01": 0.0,
			"-0.009": 0.0,
			"-0.008": 0.0,
			"-0.007": 0.0,
			"-0.006": 0.0,
			"-0.005": 5.38267580033,
			"-0.004": 28.030798218,
			"-0.003": 24.399393437,
			"-0.002": 29.5489623109,
			"-0.001": 31.381858125,
			"0.0": 32.4155776503,
			"0.001": 17.1838647275,
			"0.002": 10.9602447424,
			"0.003": 11.3229726207,
			"0.004": 5.1725939463,
			"0.005": 3.11609094182,
			"0.006": 2.6037583879,
			"0.007": 2.11905241986,
			"0.008": 2.32803970613,
			"0.009": 1.39316803572,
			"0.01": 2.1354680377,
			"0.011": 2.36491021124,
			"0.012": 4.03973859213,
			"0.013": 2.83308417001,
			"0.014": 0.0,
			"0.015": 0.0,
			"0.016": 0.0,
			"0.017": 0.0,
			"0.018": 0.0,
			"0.019": 0.0,
			"0.02": 0.0,
			"0.021": 0.0,
			"0.022": 0.0,
			"0.023": 0.0,
			"0.024": 0.0,
			"0.025": 0.0
		}
	}
}
