{
	 "smiles": "OC(=O)C1CCCCN1C1=NS(=O)(=O)C2=C1C=CC=C2", 
	 "Tm": 459.15, 
	 "num_atms": 34, 
	 "gaussian": { 
		 "optdone": 1, 
		 "sigma_profile": "yes", 
		 "theory": "DFT", 
		 "functional": "B3LYP", 
		 "basiset": "6-31G**", 
		 "properties": { 
			 "R2extent": 6502.2778, 
			 "electric_dipole_moment_norm": 8.22462720553, 
			 "electric_quadrupole_moment_norm": 38.5116541087, 
			 "total_energy": -1312.34436377, 
			 "HOMO_LUMO_gap": 0.1726, 
			 "cosmo_polarized_energy": -27.94, 
			 "cosmo_cavitation_energy": 37.35, 
			 "cosmo_dispersion_energy": -27.27, 
			 "cosmo_repulsion_energy": 2.05, 
			 "cosmo_total_nonelectrostatic_energy": 12.13, 
			 "SMD_solvation_energy": 4.59 
		},
		"coords": [
			{
				"x": 0.6350673082,
				"y": -3.3542020157,
				"z": 0.916593847,
				"element": "O" 
			},
			{
				"x": 0.5349845336,
				"y": -2.2081151455,
				"z": 0.2116200152,
				"element": "C" 
			},
			{
				"x": 1.4220359052,
				"y": -1.7781225708,
				"z": -0.4894417622,
				"element": "O" 
			},
			{
				"x": -0.8615195623,
				"y": -1.5972593713,
				"z": 0.3904649215,
				"element": "C" 
			},
			{
				"x": -1.9071874429,
				"y": -2.2902873777,
				"z": -0.5024759025,
				"element": "C" 
			},
			{
				"x": -1.6559602761,
				"y": -2.0718646308,
				"z": -2.0091998024,
				"element": "C" 
			},
			{
				"x": -0.965839338,
				"y": -0.7172127014,
				"z": -2.2788929997,
				"element": "C" 
			},
			{
				"x": -1.2695150325,
				"y": 0.3258977365,
				"z": -1.1982119268,
				"element": "C" 
			},
			{
				"x": -0.8590504059,
				"y": -0.1523264885,
				"z": 0.1343762237,
				"element": "N" 
			},
			{
				"x": -0.3150764485,
				"y": 0.6322678821,
				"z": 1.1000866338,
				"element": "C" 
			},
			{
				"x": 0.3028524421,
				"y": 0.0533884254,
				"z": 2.1021038758,
				"element": "N" 
			},
			{
				"x": 0.8908655364,
				"y": 1.1882601965,
				"z": 3.1934693474,
				"element": "S" 
			},
			{
				"x": 0.176826854,
				"y": 1.0856698997,
				"z": 4.4685148407,
				"element": "O" 
			},
			{
				"x": 2.3542723317,
				"y": 1.1660243245,
				"z": 3.1896845694,
				"element": "O" 
			},
			{
				"x": 0.2690671693,
				"y": 2.6010515791,
				"z": 2.2736722092,
				"element": "C" 
			},
			{
				"x": -0.413555407,
				"y": 2.1346731465,
				"z": 1.1462155052,
				"element": "C" 
			},
			{
				"x": -1.0929194,
				"y": 3.0643762116,
				"z": 0.3502698649,
				"element": "C" 
			},
			{
				"x": -1.0246949302,
				"y": 4.4221390372,
				"z": 0.6806292306,
				"element": "C" 
			},
			{
				"x": -0.3050983718,
				"y": 4.8622332256,
				"z": 1.7937511717,
				"element": "C" 
			},
			{
				"x": 0.3447449341,
				"y": 3.9395166513,
				"z": 2.6195751142,
				"element": "C" 
			},
			{
				"x": 1.5324322636,
				"y": -3.695849045,
				"z": 0.7646041737,
				"element": "H" 
			},
			{
				"x": -1.1266561752,
				"y": -1.7478714999,
				"z": 1.4394911971,
				"element": "H" 
			},
			{
				"x": -1.9270671878,
				"y": -3.3546323599,
				"z": -0.2526895239,
				"element": "H" 
			},
			{
				"x": -2.8846396122,
				"y": -1.88395692,
				"z": -0.2196208029,
				"element": "H" 
			},
			{
				"x": -2.6131713832,
				"y": -2.1312619896,
				"z": -2.5382813232,
				"element": "H" 
			},
			{
				"x": -1.031000547,
				"y": -2.8764514464,
				"z": -2.410017889,
				"element": "H" 
			},
			{
				"x": -1.2759355798,
				"y": -0.3083040735,
				"z": -3.2462333746,
				"element": "H" 
			},
			{
				"x": 0.1175080122,
				"y": -0.8527410482,
				"z": -2.3099403099,
				"element": "H" 
			},
			{
				"x": -0.7084025299,
				"y": 1.2315346692,
				"z": -1.4270266304,
				"element": "H" 
			},
			{
				"x": -2.3401324391,
				"y": 0.5788992768,
				"z": -1.1974518456,
				"element": "H" 
			},
			{
				"x": -1.687425726,
				"y": 2.7649492818,
				"z": -0.5018955175,
				"element": "H" 
			},
			{
				"x": -1.5488702788,
				"y": 5.1427676286,
				"z": 0.0604626484,
				"element": "H" 
			},
			{
				"x": -0.2648382914,
				"y": 5.9213463505,
				"z": 2.028899356,
				"element": "H" 
			},
			{
				"x": 0.8826990751,
				"y": 4.2561631613,
				"z": 3.5070948649,
				"element": "H" 
			}
		],
		 "valence_orbital": [ 
			{
				"type": "occ",
				"energy": -0.28609,
				"method": "rhf"
			},
			{
				"type": "occ",
				"energy": -0.28261,
				"method": "rhf"
			},
			{
				"type": "occ",
				"energy": -0.27671,
				"method": "rhf"
			},
			{
				"type": "occ",
				"energy": -0.26768,
				"method": "rhf"
			},
			{
				"type": "occ",
				"energy": -0.24096,
				"method": "rhf"
			},
			{
				"type": "unocc",
				"energy": -0.06836,
				"method": "rhf"
			},
			{
				"type": "unocc",
				"energy": -0.03929,
				"method": "rhf"
			},
			{
				"type": "unocc",
				"energy": 0.00025,
				"method": "rhf"
			},
			{
				"type": "unocc",
				"energy": 0.02931,
				"method": "rhf"
			},
			{
				"type": "unocc",
				"energy": 0.05734,
				"method": "rhf"
			}
		],
		"cosmo_sigma_profile": { 
			"-0.025": 0.0,
			"-0.024": 0.0,
			"-0.023": 0.0,
			"-0.022": 0.0,
			"-0.021": 0.0,
			"-0.02": 0.0,
			"-0.019": 0.308430851545,
			"-0.018": 0.755828688351,
			"-0.017": 1.25059213232,
			"-0.016": 0.660836688377,
			"-0.015": 0.888700868336,
			"-0.014": 0.500389205006,
			"-0.013": 0.645934258944,
			"-0.012": 0.510925860243,
			"-0.011": 1.13696311358,
			"-0.01": 0.628890151468,
			"-0.009": 2.20915609177,
			"-0.008": 7.62516439768,
			"-0.007": 14.7450261402,
			"-0.006": 17.8041056652,
			"-0.005": 20.1578752899,
			"-0.004": 26.061431407,
			"-0.003": 27.8807811305,
			"-0.002": 20.4074218286,
			"-0.001": 20.8085837122,
			"0.0": 17.3195107116,
			"0.001": 17.0935583138,
			"0.002": 13.595709035,
			"0.003": 5.22869977256,
			"0.004": 4.79479654903,
			"0.005": 5.45189280829,
			"0.006": 7.29271750752,
			"0.007": 6.39766669006,
			"0.008": 8.52913341628,
			"0.009": 8.94575970197,
			"0.01": 10.1830898741,
			"0.011": 18.7776443096,
			"0.012": 7.71039444891,
			"0.013": 0.0,
			"0.014": 0.0,
			"0.015": 0.0,
			"0.016": 0.0,
			"0.017": 0.0,
			"0.018": 0.0,
			"0.019": 0.0,
			"0.02": 0.0,
			"0.021": 0.0,
			"0.022": 0.0,
			"0.023": 0.0,
			"0.024": 0.0,
			"0.025": 0.0
		}
	}
}
