{
	 "smiles": "NC1=CC(CN2C=CN=C2)=CC=C1", 
	 "Tm": 346.15, 
	 "num_atms": 24, 
	 "gaussian": { 
		 "optdone": 1, 
		 "sigma_profile": "yes", 
		 "theory": "DFT", 
		 "functional": "B3LYP", 
		 "basiset": "6-31G**", 
		 "properties": { 
			 "R2extent": 3697.8171, 
			 "electric_dipole_moment_norm": 3.12253757543, 
			 "electric_quadrupole_moment_norm": 12.4564077924, 
			 "total_energy": -551.94062363, 
			 "HOMO_LUMO_gap": 0.20324, 
			 "cosmo_polarized_energy": -15.24, 
			 "cosmo_cavitation_energy": 27.83, 
			 "cosmo_dispersion_energy": -20.01, 
			 "cosmo_repulsion_energy": 1.59, 
			 "cosmo_total_nonelectrostatic_energy": 9.41, 
			 "SMD_solvation_energy": 3.52 
		},
		"coords": [
			{
				"x": 3.0914495556,
				"y": -2.0078704733,
				"z": 1.8502017872,
				"element": "N" 
			},
			{
				"x": 2.6300719611,
				"y": -0.6922451254,
				"z": 1.8761129497,
				"element": "C" 
			},
			{
				"x": 2.2500903487,
				"y": -0.0501833403,
				"z": 0.6839159593,
				"element": "C" 
			},
			{
				"x": 1.8340030224,
				"y": 1.280195621,
				"z": 0.6899564224,
				"element": "C" 
			},
			{
				"x": 1.4544715258,
				"y": 1.9975865034,
				"z": -0.5984139124,
				"element": "C" 
			},
			{
				"x": 1.0897803737,
				"y": 1.1241046789,
				"z": -1.7051776342,
				"element": "N" 
			},
			{
				"x": 1.919719283,
				"y": 0.6753204514,
				"z": -2.7159356945,
				"element": "C" 
			},
			{
				"x": 1.1556829922,
				"y": -0.1820782798,
				"z": -3.4690890459,
				"element": "C" 
			},
			{
				"x": -0.1168940744,
				"y": -0.2798424093,
				"z": -2.9521109053,
				"element": "N" 
			},
			{
				"x": -0.1177711219,
				"y": 0.509033555,
				"z": -1.8982574181,
				"element": "C" 
			},
			{
				"x": 1.7898484618,
				"y": 1.9923819357,
				"z": 1.8953519503,
				"element": "C" 
			},
			{
				"x": 2.1723779545,
				"y": 1.3616293192,
				"z": 3.0790842229,
				"element": "C" 
			},
			{
				"x": 2.5884338192,
				"y": 0.0327056984,
				"z": 3.079080086,
				"element": "C" 
			},
			{
				"x": 3.0137345163,
				"y": -2.5113107878,
				"z": 2.7228819059,
				"element": "H" 
			},
			{
				"x": 2.7782624109,
				"y": -2.5601476703,
				"z": 1.0638420291,
				"element": "H" 
			},
			{
				"x": 2.2799885379,
				"y": -0.6028661028,
				"z": -0.2511111255,
				"element": "H" 
			},
			{
				"x": 0.6165072158,
				"y": 2.6763623303,
				"z": -0.4078003955,
				"element": "H" 
			},
			{
				"x": 2.2868611515,
				"y": 2.6232877653,
				"z": -0.939985199,
				"element": "H" 
			},
			{
				"x": 2.9423463314,
				"y": 1.0112542438,
				"z": -2.7996680739,
				"element": "H" 
			},
			{
				"x": 1.4473637725,
				"y": -0.7255336975,
				"z": -4.3574169626,
				"element": "H" 
			},
			{
				"x": -0.955064377,
				"y": 0.6805705035,
				"z": -1.2345386945,
				"element": "H" 
			},
			{
				"x": 1.4567138672,
				"y": 3.0267777894,
				"z": 1.9085643198,
				"element": "H" 
			},
			{
				"x": 2.1361991016,
				"y": 1.9078182984,
				"z": 4.0176874897,
				"element": "H" 
			},
			{
				"x": 2.88142337,
				"y": -0.4496508074,
				"z": 4.008225939,
				"element": "H" 
			}
		],
		 "valence_orbital": [ 
			{
				"type": "occ",
				"energy": -0.26476,
				"method": "rhf"
			},
			{
				"type": "occ",
				"energy": -0.25825,
				"method": "rhf"
			},
			{
				"type": "occ",
				"energy": -0.24778,
				"method": "rhf"
			},
			{
				"type": "occ",
				"energy": -0.2204,
				"method": "rhf"
			},
			{
				"type": "occ",
				"energy": -0.20553,
				"method": "rhf"
			},
			{
				"type": "unocc",
				"energy": -0.00229,
				"method": "rhf"
			},
			{
				"type": "unocc",
				"energy": 0.0102,
				"method": "rhf"
			},
			{
				"type": "unocc",
				"energy": 0.03066,
				"method": "rhf"
			},
			{
				"type": "unocc",
				"energy": 0.0746,
				"method": "rhf"
			},
			{
				"type": "unocc",
				"energy": 0.07963,
				"method": "rhf"
			}
		],
		"cosmo_sigma_profile": { 
			"-0.025": 0.0,
			"-0.024": 0.0,
			"-0.023": 0.0,
			"-0.022": 0.0,
			"-0.021": 0.0,
			"-0.02": 0.0,
			"-0.019": 0.0,
			"-0.018": 0.0,
			"-0.017": 0.0,
			"-0.016": 0.0,
			"-0.015": 0.0,
			"-0.014": 0.0,
			"-0.013": 0.210828120277,
			"-0.012": 2.14077258457,
			"-0.011": 3.16508883941,
			"-0.01": 2.64532391384,
			"-0.009": 3.46777747923,
			"-0.008": 8.70991495128,
			"-0.007": 11.3811905253,
			"-0.006": 12.6634626421,
			"-0.005": 15.8766463605,
			"-0.004": 15.1700661073,
			"-0.003": 13.9158787051,
			"-0.002": 11.6986190277,
			"-0.001": 12.2228556847,
			"0.0": 10.0088772706,
			"0.001": 11.4120138755,
			"0.002": 10.8792792838,
			"0.003": 9.91562331731,
			"0.004": 10.570034809,
			"0.005": 11.7352565648,
			"0.006": 13.8270555527,
			"0.007": 9.5111587342,
			"0.008": 2.98865966567,
			"0.009": 2.36332973809,
			"0.01": 2.86325619168,
			"0.011": 2.1602713858,
			"0.012": 1.68884652308,
			"0.013": 1.7340522602,
			"0.014": 1.93408046618,
			"0.015": 1.49111308256,
			"0.016": 0.842296655963,
			"0.017": 1.22538653832,
			"0.018": 0.969216793337,
			"0.019": 0.246931018992,
			"0.02": 0.0,
			"0.021": 0.0,
			"0.022": 0.0,
			"0.023": 0.0,
			"0.024": 0.0,
			"0.025": 0.0
		}
	}
}
