{
	 "smiles": "CC1=CC2=CC=CC=C2C(Br)=C1C", 
	 "Tm": 336.15, 
	 "num_atms": 24, 
	 "gaussian": { 
		 "optdone": 1, 
		 "sigma_profile": "yes", 
		 "theory": "DFT", 
		 "functional": "B3LYP", 
		 "basiset": "6-31G**", 
		 "properties": { 
			 "R2extent": 3612.4082, 
			 "electric_dipole_moment_norm": 1.76241249712, 
			 "electric_quadrupole_moment_norm": 6.79572097941, 
			 "total_energy": -3035.33506622, 
			 "HOMO_LUMO_gap": 0.17009, 
			 "cosmo_polarized_energy": -4.68, 
			 "cosmo_cavitation_energy": 28.4, 
			 "cosmo_dispersion_energy": -21.49, 
			 "cosmo_repulsion_energy": 1.65, 
			 "cosmo_total_nonelectrostatic_energy": 8.56, 
			 "SMD_solvation_energy": 3.6 
		},
		"coords": [
			{
				"x": 0.8671599265,
				"y": 1.958617973,
				"z": -1.9303487658,
				"element": "C" 
			},
			{
				"x": 0.5595182011,
				"y": 0.9617062919,
				"z": -0.8356417763,
				"element": "C" 
			},
			{
				"x": 1.5576488616,
				"y": 0.1284137429,
				"z": -0.3800744053,
				"element": "C" 
			},
			{
				"x": 1.3421331145,
				"y": -0.8282684679,
				"z": 0.6413975672,
				"element": "C" 
			},
			{
				"x": 2.3849749085,
				"y": -1.6786473019,
				"z": 1.0975219359,
				"element": "C" 
			},
			{
				"x": 2.1613572034,
				"y": -2.6035625174,
				"z": 2.0907675598,
				"element": "C" 
			},
			{
				"x": 0.8760312521,
				"y": -2.7154785383,
				"z": 2.6716006887,
				"element": "C" 
			},
			{
				"x": -0.15705782,
				"y": -1.9068083305,
				"z": 2.2529452074,
				"element": "C" 
			},
			{
				"x": 0.0407097489,
				"y": -0.941469269,
				"z": 1.2293541527,
				"element": "C" 
			},
			{
				"x": -0.9683871036,
				"y": -0.0643368996,
				"z": 0.7345234632,
				"element": "C" 
			},
			{
				"x": -2.7311875892,
				"y": -0.1881058345,
				"z": 1.5016442161,
				"element": "Br" 
			},
			{
				"x": -0.7549147099,
				"y": 0.8704581076,
				"z": -0.2645692326,
				"element": "C" 
			},
			{
				"x": -1.8692463869,
				"y": 1.7710313344,
				"z": -0.7439149002,
				"element": "C" 
			},
			{
				"x": 0.2498284847,
				"y": 1.7938198977,
				"z": -2.8209452362,
				"element": "H" 
			},
			{
				"x": 1.91374218,
				"y": 1.8788900963,
				"z": -2.2348734624,
				"element": "H" 
			},
			{
				"x": 0.6946966018,
				"y": 2.9911656409,
				"z": -1.6055153052,
				"element": "H" 
			},
			{
				"x": 2.5518531657,
				"y": 0.1998936725,
				"z": -0.8144675875,
				"element": "H" 
			},
			{
				"x": 3.3674425686,
				"y": -1.5819561169,
				"z": 0.6425775376,
				"element": "H" 
			},
			{
				"x": 2.9669121271,
				"y": -3.2478242324,
				"z": 2.430672574,
				"element": "H" 
			},
			{
				"x": 0.7020248923,
				"y": -3.4465757395,
				"z": 3.4557043026,
				"element": "H" 
			},
			{
				"x": -1.1378101949,
				"y": -1.9997756313,
				"z": 2.7036089266,
				"element": "H" 
			},
			{
				"x": -1.5378249038,
				"y": 2.4470697844,
				"z": -1.531256073,
				"element": "H" 
			},
			{
				"x": -2.2657392923,
				"y": 2.3760690265,
				"z": 0.0782232871,
				"element": "H" 
			},
			{
				"x": -2.7085652362,
				"y": 1.1841733108,
				"z": -1.1316346746,
				"element": "H" 
			}
		],
		 "valence_orbital": [ 
			{
				"type": "occ",
				"energy": -0.30496,
				"method": "rhf"
			},
			{
				"type": "occ",
				"energy": -0.28064,
				"method": "rhf"
			},
			{
				"type": "occ",
				"energy": -0.2657,
				"method": "rhf"
			},
			{
				"type": "occ",
				"energy": -0.23862,
				"method": "rhf"
			},
			{
				"type": "occ",
				"energy": -0.21181,
				"method": "rhf"
			},
			{
				"type": "unocc",
				"energy": -0.04172,
				"method": "rhf"
			},
			{
				"type": "unocc",
				"energy": -0.0118,
				"method": "rhf"
			},
			{
				"type": "unocc",
				"energy": 0.01473,
				"method": "rhf"
			},
			{
				"type": "unocc",
				"energy": 0.03083,
				"method": "rhf"
			},
			{
				"type": "unocc",
				"energy": 0.08693,
				"method": "rhf"
			}
		],
		"cosmo_sigma_profile": { 
			"-0.025": 0.0,
			"-0.024": 0.0,
			"-0.023": 0.0,
			"-0.022": 0.0,
			"-0.021": 0.0,
			"-0.02": 0.0,
			"-0.019": 0.0,
			"-0.018": 0.0,
			"-0.017": 0.0,
			"-0.016": 0.0,
			"-0.015": 0.0,
			"-0.014": 0.0,
			"-0.013": 0.0,
			"-0.012": 0.0,
			"-0.011": 0.0,
			"-0.01": 0.0,
			"-0.009": 0.0,
			"-0.008": 0.0,
			"-0.007": 0.0216382803447,
			"-0.006": 6.72505033549,
			"-0.005": 12.5256368887,
			"-0.004": 22.2907134902,
			"-0.003": 20.0758368563,
			"-0.002": 20.024928198,
			"-0.001": 21.5637124082,
			"0.0": 22.8348965721,
			"0.001": 16.665798347,
			"0.002": 18.6316453279,
			"0.003": 28.1444720299,
			"0.004": 25.3786509255,
			"0.005": 13.5681598293,
			"0.006": 0.887385322055,
			"0.007": 0.0,
			"0.008": 0.0,
			"0.009": 0.0,
			"0.01": 0.0,
			"0.011": 0.0,
			"0.012": 0.0,
			"0.013": 0.0,
			"0.014": 0.0,
			"0.015": 0.0,
			"0.016": 0.0,
			"0.017": 0.0,
			"0.018": 0.0,
			"0.019": 0.0,
			"0.02": 0.0,
			"0.021": 0.0,
			"0.022": 0.0,
			"0.023": 0.0,
			"0.024": 0.0,
			"0.025": 0.0
		}
	}
}
