{
	 "smiles": "CC(=O)NC1=CC(=CC=C1)N1C(=O)C=CC1=O", 
	 "Tm": 459.15, 
	 "num_atms": 27, 
	 "gaussian": { 
		 "optdone": 1, 
		 "sigma_profile": "yes", 
		 "theory": "DFT", 
		 "functional": "B3LYP", 
		 "basiset": "6-31G**", 
		 "properties": { 
			 "R2extent": 4500.1009, 
			 "electric_dipole_moment_norm": 4.22678448114, 
			 "electric_quadrupole_moment_norm": 22.2021430186, 
			 "total_energy": -798.492230079, 
			 "HOMO_LUMO_gap": 0.11877, 
			 "cosmo_polarized_energy": -17.46, 
			 "cosmo_cavitation_energy": 32.44, 
			 "cosmo_dispersion_energy": -22.83, 
			 "cosmo_repulsion_energy": 1.74, 
			 "cosmo_total_nonelectrostatic_energy": 11.35, 
			 "SMD_solvation_energy": 7.88 
		},
		"coords": [
			{
				"x": 0.7278158755,
				"y": -2.1051474397,
				"z": -2.2071314033,
				"element": "C" 
			},
			{
				"x": -0.6593096961,
				"y": -2.7069299318,
				"z": -2.1046378109,
				"element": "C" 
			},
			{
				"x": -0.9381381615,
				"y": -3.7847449016,
				"z": -2.6092299405,
				"element": "O" 
			},
			{
				"x": -1.6517735134,
				"y": -2.0085758917,
				"z": -1.4271075797,
				"element": "N" 
			},
			{
				"x": -1.6599153512,
				"y": -0.7472390262,
				"z": -0.7979666923,
				"element": "C" 
			},
			{
				"x": -0.5823332461,
				"y": -0.2931163097,
				"z": -0.0284178697,
				"element": "C" 
			},
			{
				"x": -0.6333439391,
				"y": 0.9728032442,
				"z": 0.563257939,
				"element": "C" 
			},
			{
				"x": -1.7742476724,
				"y": 1.7730965867,
				"z": 0.449457587,
				"element": "C" 
			},
			{
				"x": -2.8652467741,
				"y": 1.2859672042,
				"z": -0.2697150787,
				"element": "C" 
			},
			{
				"x": -2.8123013694,
				"y": 0.0477120028,
				"z": -0.902439897,
				"element": "C" 
			},
			{
				"x": 0.4955661821,
				"y": 1.4343357181,
				"z": 1.303248565,
				"element": "N" 
			},
			{
				"x": 1.8437322521,
				"y": 1.2296908922,
				"z": 0.9356367509,
				"element": "C" 
			},
			{
				"x": 2.2417953796,
				"y": 0.6308593527,
				"z": -0.0409829543,
				"element": "O" 
			},
			{
				"x": 2.6727715542,
				"y": 1.8968350107,
				"z": 1.9912076544,
				"element": "C" 
			},
			{
				"x": 1.8609267849,
				"y": 2.4433252839,
				"z": 2.8990146812,
				"element": "C" 
			},
			{
				"x": 0.4390657446,
				"y": 2.1800912965,
				"z": 2.5028568531,
				"element": "C" 
			},
			{
				"x": -0.5632402318,
				"y": 2.5327385322,
				"z": 3.0848569697,
				"element": "O" 
			},
			{
				"x": 0.729219892,
				"y": -1.0149431316,
				"z": -2.2604198695,
				"element": "H" 
			},
			{
				"x": 1.1961220758,
				"y": -2.5284604825,
				"z": -3.0964215604,
				"element": "H" 
			},
			{
				"x": 1.3323486955,
				"y": -2.3955275071,
				"z": -1.3412320059,
				"element": "H" 
			},
			{
				"x": -2.5510245234,
				"y": -2.4616287041,
				"z": -1.5376703338,
				"element": "H" 
			},
			{
				"x": 0.2882384648,
				"y": -0.9148343853,
				"z": 0.1160563129,
				"element": "H" 
			},
			{
				"x": -1.8134539765,
				"y": 2.7421077451,
				"z": 0.9286604574,
				"element": "H" 
			},
			{
				"x": -3.761356408,
				"y": 1.8929280827,
				"z": -0.3551282459,
				"element": "H" 
			},
			{
				"x": -3.6550637498,
				"y": -0.3059956586,
				"z": -1.4895586117,
				"element": "H" 
			},
			{
				"x": 3.7537876243,
				"y": 1.8892656697,
				"z": 1.947427537,
				"element": "H" 
			},
			{
				"x": 2.1025580876,
				"y": 2.9982867481,
				"z": 3.7957785463,
				"element": "H" 
			}
		],
		 "valence_orbital": [ 
			{
				"type": "occ",
				"energy": -0.29471,
				"method": "rhf"
			},
			{
				"type": "occ",
				"energy": -0.28264,
				"method": "rhf"
			},
			{
				"type": "occ",
				"energy": -0.25187,
				"method": "rhf"
			},
			{
				"type": "occ",
				"energy": -0.25111,
				"method": "rhf"
			},
			{
				"type": "occ",
				"energy": -0.22685,
				"method": "rhf"
			},
			{
				"type": "unocc",
				"energy": -0.10808,
				"method": "rhf"
			},
			{
				"type": "unocc",
				"energy": -0.02498,
				"method": "rhf"
			},
			{
				"type": "unocc",
				"energy": -0.01663,
				"method": "rhf"
			},
			{
				"type": "unocc",
				"energy": 0.03057,
				"method": "rhf"
			},
			{
				"type": "unocc",
				"energy": 0.05402,
				"method": "rhf"
			}
		],
		"cosmo_sigma_profile": { 
			"-0.025": 0.0,
			"-0.024": 0.0,
			"-0.023": 0.0,
			"-0.022": 0.0,
			"-0.021": 0.0,
			"-0.02": 0.0,
			"-0.019": 0.0,
			"-0.018": 0.0,
			"-0.017": 0.0,
			"-0.016": 0.0,
			"-0.015": 0.0582964663794,
			"-0.014": 0.773188749331,
			"-0.013": 0.970220850263,
			"-0.012": 1.26136408595,
			"-0.011": 1.17398742204,
			"-0.01": 4.12512851261,
			"-0.009": 3.63444451834,
			"-0.008": 6.8990893882,
			"-0.007": 8.1338068165,
			"-0.006": 15.7912189869,
			"-0.005": 20.0784693203,
			"-0.004": 19.4783275513,
			"-0.003": 19.0085926129,
			"-0.002": 19.9291286703,
			"-0.001": 16.9273058557,
			"0.0": 15.6963859304,
			"0.001": 12.3256081673,
			"0.002": 12.116893585,
			"0.003": 14.4871846164,
			"0.004": 14.9466534556,
			"0.005": 6.824794124,
			"0.006": 4.69162035,
			"0.007": 4.51196877225,
			"0.008": 5.44814560568,
			"0.009": 5.95294796722,
			"0.01": 7.05817184832,
			"0.011": 6.18010674642,
			"0.012": 2.8224003586,
			"0.013": 5.53131372557,
			"0.014": 3.24769430258,
			"0.015": 0.373773288589,
			"0.016": 0.0,
			"0.017": 0.0,
			"0.018": 0.0,
			"0.019": 0.0,
			"0.02": 0.0,
			"0.021": 0.0,
			"0.022": 0.0,
			"0.023": 0.0,
			"0.024": 0.0,
			"0.025": 0.0
		}
	}
}
