{
	 "smiles": "CC(C)OC(=O)C1(CC1)S(=O)(=O)C1=CC=C(C)C=C1", 
	 "Tm": 338.65, 
	 "num_atms": 37, 
	 "gaussian": { 
		 "optdone": 1, 
		 "sigma_profile": "yes", 
		 "theory": "DFT", 
		 "functional": "B3LYP", 
		 "basiset": "6-31G**", 
		 "properties": { 
			 "R2extent": 6515.8435, 
			 "electric_dipole_moment_norm": 5.74466055916, 
			 "electric_quadrupole_moment_norm": 22.0309915235, 
			 "total_energy": -1243.35231686, 
			 "HOMO_LUMO_gap": 0.22377, 
			 "cosmo_polarized_energy": -16.17, 
			 "cosmo_cavitation_energy": 40.61, 
			 "cosmo_dispersion_energy": -28.01, 
			 "cosmo_repulsion_energy": 2.14, 
			 "cosmo_total_nonelectrostatic_energy": 14.74, 
			 "SMD_solvation_energy": 6.92 
		},
		"coords": [
			{
				"x": -2.3116114189,
				"y": -2.2778409992,
				"z": -0.6022107878,
				"element": "C" 
			},
			{
				"x": -2.2105104761,
				"y": -1.9888267554,
				"z": 0.8930262091,
				"element": "C" 
			},
			{
				"x": -3.3942891213,
				"y": -1.2148539584,
				"z": 1.4662018245,
				"element": "C" 
			},
			{
				"x": -0.9345854332,
				"y": -1.346462852,
				"z": 1.2326236293,
				"element": "O" 
			},
			{
				"x": -0.643509725,
				"y": -0.1201237119,
				"z": 0.7576807127,
				"element": "C" 
			},
			{
				"x": -1.3639417959,
				"y": 0.536909056,
				"z": 0.0345263854,
				"element": "O" 
			},
			{
				"x": 0.7132815016,
				"y": 0.3203456473,
				"z": 1.223878247,
				"element": "C" 
			},
			{
				"x": 1.852641282,
				"y": -0.692515301,
				"z": 1.2685969385,
				"element": "C" 
			},
			{
				"x": 1.2714266184,
				"y": -0.1952952719,
				"z": 2.5461717592,
				"element": "C" 
			},
			{
				"x": 1.1592311452,
				"y": 2.0510157677,
				"z": 0.8568557392,
				"element": "S" 
			},
			{
				"x": 2.5319461217,
				"y": 2.1974911285,
				"z": 1.3810143828,
				"element": "O" 
			},
			{
				"x": 0.0800607233,
				"y": 2.9204856429,
				"z": 1.3404549296,
				"element": "O" 
			},
			{
				"x": 1.2647746714,
				"y": 2.1896046102,
				"z": -0.9305739407,
				"element": "C" 
			},
			{
				"x": 2.497465395,
				"y": 1.978990112,
				"z": -1.5516311178,
				"element": "C" 
			},
			{
				"x": 2.5934680379,
				"y": 2.1236987322,
				"z": -2.9345931626,
				"element": "C" 
			},
			{
				"x": 1.4790443942,
				"y": 2.4881187215,
				"z": -3.702830337,
				"element": "C" 
			},
			{
				"x": 1.5967905154,
				"y": 2.6782030002,
				"z": -5.1959545351,
				"element": "C" 
			},
			{
				"x": 0.2566509587,
				"y": 2.7046504111,
				"z": -3.0487761652,
				"element": "C" 
			},
			{
				"x": 0.1389370203,
				"y": 2.5612272342,
				"z": -1.668680542,
				"element": "C" 
			},
			{
				"x": -1.4200945858,
				"y": -2.8065736719,
				"z": -0.9528499443,
				"element": "H" 
			},
			{
				"x": -2.4278452605,
				"y": -1.3580196255,
				"z": -1.1767879156,
				"element": "H" 
			},
			{
				"x": -3.1790006905,
				"y": -2.9202848203,
				"z": -0.7861114121,
				"element": "H" 
			},
			{
				"x": -2.1137353328,
				"y": -2.937244025,
				"z": 1.4305291047,
				"element": "H" 
			},
			{
				"x": -3.5367471136,
				"y": -0.2659557886,
				"z": 0.9475365985,
				"element": "H" 
			},
			{
				"x": -3.2439831238,
				"y": -1.0173905999,
				"z": 2.531625337,
				"element": "H" 
			},
			{
				"x": -4.3029353068,
				"y": -1.8162956854,
				"z": 1.358313417,
				"element": "H" 
			},
			{
				"x": 1.6051836223,
				"y": -1.6928069442,
				"z": 0.9313261418,
				"element": "H" 
			},
			{
				"x": 2.8325484569,
				"y": -0.3201800959,
				"z": 0.9908516969,
				"element": "H" 
			},
			{
				"x": 1.8607783734,
				"y": 0.5132724783,
				"z": 3.1175018688,
				"element": "H" 
			},
			{
				"x": 0.6088720001,
				"y": -0.8402089367,
				"z": 3.1108104539,
				"element": "H" 
			},
			{
				"x": 3.3674307771,
				"y": 1.7301435088,
				"z": -0.9542638878,
				"element": "H" 
			},
			{
				"x": 3.5505687506,
				"y": 1.9606284877,
				"z": -3.4230894877,
				"element": "H" 
			},
			{
				"x": 0.6850050593,
				"y": 2.3632372664,
				"z": -5.7124129932,
				"element": "H" 
			},
			{
				"x": 1.7613325159,
				"y": 3.7342076059,
				"z": -5.4437486382,
				"element": "H" 
			},
			{
				"x": 2.4363445419,
				"y": 2.1112458993,
				"z": -5.6079560979,
				"element": "H" 
			},
			{
				"x": -0.6160765974,
				"y": 2.9922240888,
				"z": -3.6293547258,
				"element": "H" 
			},
			{
				"x": -0.804616501,
				"y": 2.7238796444,
				"z": -1.163499685,
				"element": "H" 
			}
		],
		 "valence_orbital": [ 
			{
				"type": "occ",
				"energy": -0.2879,
				"method": "rhf"
			},
			{
				"type": "occ",
				"energy": -0.28103,
				"method": "rhf"
			},
			{
				"type": "occ",
				"energy": -0.27479,
				"method": "rhf"
			},
			{
				"type": "occ",
				"energy": -0.25968,
				"method": "rhf"
			},
			{
				"type": "occ",
				"energy": -0.25491,
				"method": "rhf"
			},
			{
				"type": "unocc",
				"energy": -0.03114,
				"method": "rhf"
			},
			{
				"type": "unocc",
				"energy": -0.01144,
				"method": "rhf"
			},
			{
				"type": "unocc",
				"energy": -0.00257,
				"method": "rhf"
			},
			{
				"type": "unocc",
				"energy": 0.054,
				"method": "rhf"
			},
			{
				"type": "unocc",
				"energy": 0.07797,
				"method": "rhf"
			}
		],
		"cosmo_sigma_profile": { 
			"-0.025": 0.0,
			"-0.024": 0.0,
			"-0.023": 0.0,
			"-0.022": 0.0,
			"-0.021": 0.0,
			"-0.02": 0.0,
			"-0.019": 0.0,
			"-0.018": 0.0,
			"-0.017": 0.0,
			"-0.016": 0.0,
			"-0.015": 0.0,
			"-0.014": 0.0,
			"-0.013": 0.0,
			"-0.012": 0.0,
			"-0.011": 0.0,
			"-0.01": 0.0,
			"-0.009": 0.0,
			"-0.008": 0.0,
			"-0.007": 2.8332040553,
			"-0.006": 13.08028351,
			"-0.005": 26.1797958926,
			"-0.004": 31.6996299679,
			"-0.003": 32.1035327169,
			"-0.002": 35.2534680994,
			"-0.001": 35.160151556,
			"0.0": 33.7029975705,
			"0.001": 20.517647486,
			"0.002": 16.1382637152,
			"0.003": 16.6434912767,
			"0.004": 10.650933897,
			"0.005": 5.78824190126,
			"0.006": 4.07083155247,
			"0.007": 4.12113163723,
			"0.008": 5.2121038052,
			"0.009": 5.5416822753,
			"0.01": 6.81109252083,
			"0.011": 9.2984067744,
			"0.012": 5.84164269863,
			"0.013": 0.105985155136,
			"0.014": 0.0,
			"0.015": 0.0,
			"0.016": 0.0,
			"0.017": 0.0,
			"0.018": 0.0,
			"0.019": 0.0,
			"0.02": 0.0,
			"0.021": 0.0,
			"0.022": 0.0,
			"0.023": 0.0,
			"0.024": 0.0,
			"0.025": 0.0
		}
	}
}
