{
	 "smiles": "OC(C1CCCCC1)C1=C(Br)C=NC=C1F", 
	 "Tm": 350.15, 
	 "num_atms": 31, 
	 "gaussian": { 
		 "optdone": 1, 
		 "sigma_profile": "yes", 
		 "theory": "DFT", 
		 "functional": "B3LYP", 
		 "basiset": "6-31G**", 
		 "properties": { 
			 "R2extent": 6468.8226, 
			 "electric_dipole_moment_norm": 1.42262051511, 
			 "electric_quadrupole_moment_norm": 9.25613505736, 
			 "total_energy": -3267.51964081, 
			 "HOMO_LUMO_gap": 0.20763, 
			 "cosmo_polarized_energy": -8.99, 
			 "cosmo_cavitation_energy": 34.14, 
			 "cosmo_dispersion_energy": -24.48, 
			 "cosmo_repulsion_energy": 1.89, 
			 "cosmo_total_nonelectrostatic_energy": 11.55, 
			 "SMD_solvation_energy": 3.05 
		},
		"coords": [
			{
				"x": -0.4614732694,
				"y": 0.0804540197,
				"z": 2.9704517459,
				"element": "O" 
			},
			{
				"x": -0.5670681715,
				"y": 0.3712899804,
				"z": 1.581635737,
				"element": "C" 
			},
			{
				"x": 0.7521579883,
				"y": -0.0625867636,
				"z": 0.9059185129,
				"element": "C" 
			},
			{
				"x": 1.1303827729,
				"y": -1.4979973257,
				"z": 1.3513514284,
				"element": "C" 
			},
			{
				"x": 2.1076108555,
				"y": -2.1401773911,
				"z": 0.3581944623,
				"element": "C" 
			},
			{
				"x": 1.4463886953,
				"y": -2.3517082767,
				"z": -1.0253515688,
				"element": "C" 
			},
			{
				"x": 0.3402826455,
				"y": -1.3074361924,
				"z": -1.2988707632,
				"element": "C" 
			},
			{
				"x": 0.6728106763,
				"y": 0.041392152,
				"z": -0.6449944321,
				"element": "C" 
			},
			{
				"x": -0.9168719849,
				"y": 1.8420633341,
				"z": 1.3495776798,
				"element": "C" 
			},
			{
				"x": -0.30484279,
				"y": 2.9510908604,
				"z": 1.9546439659,
				"element": "C" 
			},
			{
				"x": 1.1588393125,
				"y": 2.796436286,
				"z": 3.1718090243,
				"element": "Br" 
			},
			{
				"x": -0.7493983008,
				"y": 4.2490379465,
				"z": 1.6806551964,
				"element": "C" 
			},
			{
				"x": -1.7569860321,
				"y": 4.5174520209,
				"z": 0.8474346935,
				"element": "N" 
			},
			{
				"x": -2.3578488312,
				"y": 3.4869353268,
				"z": 0.2484934538,
				"element": "C" 
			},
			{
				"x": -1.9605775883,
				"y": 2.175679458,
				"z": 0.47949251,
				"element": "C" 
			},
			{
				"x": -2.6124579238,
				"y": 1.1881933759,
				"z": -0.1751428284,
				"element": "F" 
			},
			{
				"x": -1.3134022115,
				"y": 0.266220827,
				"z": 3.3859778579,
				"element": "H" 
			},
			{
				"x": -1.3788732019,
				"y": -0.2215659799,
				"z": 1.1384047455,
				"element": "H" 
			},
			{
				"x": 1.5355345059,
				"y": 0.6159147473,
				"z": 1.2606448147,
				"element": "H" 
			},
			{
				"x": 0.225596266,
				"y": -2.117094541,
				"z": 1.4212058428,
				"element": "H" 
			},
			{
				"x": 1.5511654632,
				"y": -1.4674917756,
				"z": 2.3591784042,
				"element": "H" 
			},
			{
				"x": 2.9873926732,
				"y": -1.4909621914,
				"z": 0.257435843,
				"element": "H" 
			},
			{
				"x": 2.4791202431,
				"y": -3.0930362651,
				"z": 0.7511782515,
				"element": "H" 
			},
			{
				"x": 1.0164946647,
				"y": -3.3586243738,
				"z": -1.0857669128,
				"element": "H" 
			},
			{
				"x": 2.2115070255,
				"y": -2.2979978498,
				"z": -1.8090644628,
				"element": "H" 
			},
			{
				"x": 0.1948227846,
				"y": -1.1801431581,
				"z": -2.3773576955,
				"element": "H" 
			},
			{
				"x": -0.6193008922,
				"y": -1.6685872318,
				"z": -0.9070728049,
				"element": "H" 
			},
			{
				"x": -0.0605706418,
				"y": 0.7956317823,
				"z": -0.9479746288,
				"element": "H" 
			},
			{
				"x": 1.6375216753,
				"y": 0.3937830192,
				"z": -1.0294692663,
				"element": "H" 
			},
			{
				"x": -0.2634493604,
				"y": 5.0948624891,
				"z": 2.1585938625,
				"element": "H" 
			},
			{
				"x": -3.1776070479,
				"y": 3.6926716903,
				"z": -0.4351126688,
				"element": "H" 
			}
		],
		 "valence_orbital": [ 
			{
				"type": "occ",
				"energy": -0.29561,
				"method": "rhf"
			},
			{
				"type": "occ",
				"energy": -0.28563,
				"method": "rhf"
			},
			{
				"type": "occ",
				"energy": -0.277,
				"method": "rhf"
			},
			{
				"type": "occ",
				"energy": -0.26421,
				"method": "rhf"
			},
			{
				"type": "occ",
				"energy": -0.25561,
				"method": "rhf"
			},
			{
				"type": "unocc",
				"energy": -0.04798,
				"method": "rhf"
			},
			{
				"type": "unocc",
				"energy": -0.02451,
				"method": "rhf"
			},
			{
				"type": "unocc",
				"energy": -0.00152,
				"method": "rhf"
			},
			{
				"type": "unocc",
				"energy": 0.07145,
				"method": "rhf"
			},
			{
				"type": "unocc",
				"energy": 0.08038,
				"method": "rhf"
			}
		],
		"cosmo_sigma_profile": { 
			"-0.025": 0.0,
			"-0.024": 0.0,
			"-0.023": 0.0,
			"-0.022": 0.0,
			"-0.021": 0.0,
			"-0.02": 0.0,
			"-0.019": 0.0,
			"-0.018": 0.0,
			"-0.017": 0.0647020298755,
			"-0.016": 0.949238854159,
			"-0.015": 0.976629980269,
			"-0.014": 1.13106570827,
			"-0.013": 0.700526558722,
			"-0.012": 1.13624190395,
			"-0.011": 0.911220337967,
			"-0.01": 0.736037650629,
			"-0.009": 1.0215755923,
			"-0.008": 2.96270873989,
			"-0.007": 4.36714274117,
			"-0.006": 3.97503201403,
			"-0.005": 5.61401784693,
			"-0.004": 8.20297766633,
			"-0.003": 14.044935189,
			"-0.002": 35.2387420724,
			"-0.001": 42.7912571192,
			"0.0": 42.0165979428,
			"0.001": 32.3892295391,
			"0.002": 16.7143545654,
			"0.003": 16.4118855167,
			"0.004": 11.8569374014,
			"0.005": 4.4706604397,
			"0.006": 3.24209300821,
			"0.007": 3.31512595601,
			"0.008": 2.52153129269,
			"0.009": 2.79265842018,
			"0.01": 2.13800380731,
			"0.011": 2.65052352371,
			"0.012": 2.36853174536,
			"0.013": 1.76241769719,
			"0.014": 0.654314978048,
			"0.015": 0.613084554203,
			"0.016": 0.0417344588085,
			"0.017": 0.0,
			"0.018": 0.0,
			"0.019": 0.0,
			"0.02": 0.0,
			"0.021": 0.0,
			"0.022": 0.0,
			"0.023": 0.0,
			"0.024": 0.0,
			"0.025": 0.0
		}
	}
}
