{
	 "smiles": "COC1=NC(OC)=C(N)C=C1", 
	 "Tm": 484.15, 
	 "num_atms": 21, 
	 "gaussian": { 
		 "optdone": 1, 
		 "sigma_profile": "yes", 
		 "theory": "DFT", 
		 "functional": "B3LYP", 
		 "basiset": "6-31G**", 
		 "properties": { 
			 "R2extent": 2593.6852, 
			 "electric_dipole_moment_norm": 1.70176851834, 
			 "electric_quadrupole_moment_norm": 10.7400323077, 
			 "total_energy": -532.712081005, 
			 "HOMO_LUMO_gap": 0.17932, 
			 "cosmo_polarized_energy": -9.25, 
			 "cosmo_cavitation_energy": 24.76, 
			 "cosmo_dispersion_energy": -18.27, 
			 "cosmo_repulsion_energy": 1.49, 
			 "cosmo_total_nonelectrostatic_energy": 7.99, 
			 "SMD_solvation_energy": 5.51 
		},
		"coords": [
			{
				"x": -2.8971135463,
				"y": 1.7581615758,
				"z": 0.4090511422,
				"element": "C" 
			},
			{
				"x": -2.6166020466,
				"y": 1.0537885693,
				"z": 1.6146038476,
				"element": "O" 
			},
			{
				"x": -1.8272507913,
				"y": -0.0495941704,
				"z": 1.5188594306,
				"element": "C" 
			},
			{
				"x": -1.3623312276,
				"y": -0.4204813963,
				"z": 0.3238850102,
				"element": "N" 
			},
			{
				"x": -0.5950052065,
				"y": -1.4997789995,
				"z": 0.2538057929,
				"element": "C" 
			},
			{
				"x": -0.1125802565,
				"y": -1.9118395255,
				"z": -0.9523418744,
				"element": "O" 
			},
			{
				"x": -0.4737242423,
				"y": -1.1388813516,
				"z": -2.0954694876,
				"element": "C" 
			},
			{
				"x": -0.2281142278,
				"y": -2.2921212848,
				"z": 1.3613964963,
				"element": "C" 
			},
			{
				"x": 0.6413173113,
				"y": -3.380119361,
				"z": 1.20061023,
				"element": "N" 
			},
			{
				"x": -0.7325432134,
				"y": -1.8790896254,
				"z": 2.5966607886,
				"element": "C" 
			},
			{
				"x": -1.5440446966,
				"y": -0.7492678504,
				"z": 2.6928004911,
				"element": "C" 
			},
			{
				"x": -3.5312583959,
				"y": 2.5971332993,
				"z": 0.701055338,
				"element": "H" 
			},
			{
				"x": -3.4236146412,
				"y": 1.1245316723,
				"z": -0.3124880448,
				"element": "H" 
			},
			{
				"x": -1.980150901,
				"y": 2.1279847626,
				"z": -0.061699724,
				"element": "H" 
			},
			{
				"x": -1.5591591212,
				"y": -1.1199063506,
				"z": -2.2347748744,
				"element": "H" 
			},
			{
				"x": 0.0066229869,
				"y": -1.6283127221,
				"z": -2.9443028942,
				"element": "H" 
			},
			{
				"x": -0.1177173845,
				"y": -0.1083486469,
				"z": -2.0034681263,
				"element": "H" 
			},
			{
				"x": 0.6724787548,
				"y": -3.7151794906,
				"z": 0.2463899782,
				"element": "H" 
			},
			{
				"x": 0.4803301728,
				"y": -4.1349293001,
				"z": 1.8548625624,
				"element": "H" 
			},
			{
				"x": -0.4830901398,
				"y": -2.4458364953,
				"z": 3.4902101593,
				"element": "H" 
			},
			{
				"x": -1.9480491874,
				"y": -0.4110133087,
				"z": 3.6392537582,
				"element": "H" 
			}
		],
		 "valence_orbital": [ 
			{
				"type": "occ",
				"energy": -0.31997,
				"method": "rhf"
			},
			{
				"type": "occ",
				"energy": -0.27925,
				"method": "rhf"
			},
			{
				"type": "occ",
				"energy": -0.27089,
				"method": "rhf"
			},
			{
				"type": "occ",
				"energy": -0.2532,
				"method": "rhf"
			},
			{
				"type": "occ",
				"energy": -0.17922,
				"method": "rhf"
			},
			{
				"type": "unocc",
				"energy": 0.0001,
				"method": "rhf"
			},
			{
				"type": "unocc",
				"energy": 0.03031,
				"method": "rhf"
			},
			{
				"type": "unocc",
				"energy": 0.09106,
				"method": "rhf"
			},
			{
				"type": "unocc",
				"energy": 0.10771,
				"method": "rhf"
			},
			{
				"type": "unocc",
				"energy": 0.11319,
				"method": "rhf"
			}
		],
		"cosmo_sigma_profile": { 
			"-0.025": 0.0,
			"-0.024": 0.0,
			"-0.023": 0.0,
			"-0.022": 0.0,
			"-0.021": 0.0,
			"-0.02": 0.0,
			"-0.019": 0.0,
			"-0.018": 0.0,
			"-0.017": 0.0,
			"-0.016": 0.0,
			"-0.015": 0.0,
			"-0.014": 0.0,
			"-0.013": 0.155386305583,
			"-0.012": 1.13802919903,
			"-0.011": 1.99678423793,
			"-0.01": 1.97304571624,
			"-0.009": 2.20444684447,
			"-0.008": 2.9768166455,
			"-0.007": 3.66574865628,
			"-0.006": 6.96337207425,
			"-0.005": 11.1215382478,
			"-0.004": 18.170688346,
			"-0.003": 19.2684871939,
			"-0.002": 17.506924102,
			"-0.001": 10.71613578,
			"0.0": 9.2496132746,
			"0.001": 9.86023256689,
			"0.002": 14.3282574863,
			"0.003": 14.1329911032,
			"0.004": 14.5007510327,
			"0.005": 10.9037779281,
			"0.006": 6.43005916265,
			"0.007": 5.99775100187,
			"0.008": 3.64378776975,
			"0.009": 2.23474501663,
			"0.01": 2.08474520445,
			"0.011": 1.70533220776,
			"0.012": 0.69176776531,
			"0.013": 0.661223624694,
			"0.014": 0.795403988998,
			"0.015": 0.523838697345,
			"0.016": 0.22571516776,
			"0.017": 0.0,
			"0.018": 0.0,
			"0.019": 0.0,
			"0.02": 0.0,
			"0.021": 0.0,
			"0.022": 0.0,
			"0.023": 0.0,
			"0.024": 0.0,
			"0.025": 0.0
		}
	}
}
