{
	 "smiles": "FC(F)(F)C1=CC(NC(=O)C=C)=CC=C1", 
	 "Tm": 353.15, 
	 "num_atms": 23, 
	 "gaussian": { 
		 "optdone": 1, 
		 "sigma_profile": "yes", 
		 "theory": "DFT", 
		 "functional": "B3LYP", 
		 "basiset": "6-31G**", 
		 "properties": { 
			 "R2extent": 5832.6024, 
			 "electric_dipole_moment_norm": 2.75093035172, 
			 "electric_quadrupole_moment_norm": 17.1212426123, 
			 "total_energy": -815.377890179, 
			 "HOMO_LUMO_gap": 0.18943, 
			 "cosmo_polarized_energy": -11.27, 
			 "cosmo_cavitation_energy": 29.59, 
			 "cosmo_dispersion_energy": -20.61, 
			 "cosmo_repulsion_energy": 1.56, 
			 "cosmo_total_nonelectrostatic_energy": 10.54, 
			 "SMD_solvation_energy": 7.65 
		},
		"coords": [
			{
				"x": -0.9716226444,
				"y": 5.246354361,
				"z": 0.5242227994,
				"element": "F" 
			},
			{
				"x": -0.2371274981,
				"y": 4.5546078752,
				"z": -0.3740861233,
				"element": "C" 
			},
			{
				"x": 1.0477978712,
				"y": 4.5804474921,
				"z": 0.0427895673,
				"element": "F" 
			},
			{
				"x": -0.2887597134,
				"y": 5.2438585929,
				"z": -1.5370825035,
				"element": "F" 
			},
			{
				"x": -0.7465824541,
				"y": 3.1471074341,
				"z": -0.5436906948,
				"element": "C" 
			},
			{
				"x": 0.1492622629,
				"y": 2.1214597846,
				"z": -0.8389906589,
				"element": "C" 
			},
			{
				"x": -0.3176693194,
				"y": 0.816041371,
				"z": -1.0485282126,
				"element": "C" 
			},
			{
				"x": 0.6236967986,
				"y": -0.2035515045,
				"z": -1.2981216398,
				"element": "N" 
			},
			{
				"x": 0.5518487216,
				"y": -1.3395151457,
				"z": -2.0948581337,
				"element": "C" 
			},
			{
				"x": 1.4201324484,
				"y": -2.1976381488,
				"z": -1.9961508386,
				"element": "O" 
			},
			{
				"x": -0.5562040719,
				"y": -1.4213926206,
				"z": -3.090234503,
				"element": "C" 
			},
			{
				"x": -0.771406779,
				"y": -2.5595219309,
				"z": -3.7541800329,
				"element": "C" 
			},
			{
				"x": -1.6933648531,
				"y": 0.5576625417,
				"z": -0.9446442543,
				"element": "C" 
			},
			{
				"x": -2.5823676002,
				"y": 1.5978748446,
				"z": -0.6757199578,
				"element": "C" 
			},
			{
				"x": -2.1196757107,
				"y": 2.89612671,
				"z": -0.4705937233,
				"element": "C" 
			},
			{
				"x": 1.2113572359,
				"y": 2.3316872467,
				"z": -0.9077129415,
				"element": "H" 
			},
			{
				"x": 1.4956649946,
				"y": -0.1600620589,
				"z": -0.7845859748,
				"element": "H" 
			},
			{
				"x": -1.1539322381,
				"y": -0.5362073819,
				"z": -3.2821123416,
				"element": "H" 
			},
			{
				"x": -0.1574688157,
				"y": -3.4319027267,
				"z": -3.5520364609,
				"element": "H" 
			},
			{
				"x": -1.5485769666,
				"y": -2.6422933407,
				"z": -4.507052739,
				"element": "H" 
			},
			{
				"x": -2.0596452991,
				"y": -0.4573541588,
				"z": -1.0506821652,
				"element": "H" 
			},
			{
				"x": -3.6439907774,
				"y": 1.3843019632,
				"z": -0.5983554316,
				"element": "H" 
			},
			{
				"x": -2.807965592,
				"y": 3.7010088004,
				"z": -0.2387930356,
				"element": "H" 
			}
		],
		 "valence_orbital": [ 
			{
				"type": "occ",
				"energy": -0.31522,
				"method": "rhf"
			},
			{
				"type": "occ",
				"energy": -0.284,
				"method": "rhf"
			},
			{
				"type": "occ",
				"energy": -0.27892,
				"method": "rhf"
			},
			{
				"type": "occ",
				"energy": -0.26222,
				"method": "rhf"
			},
			{
				"type": "occ",
				"energy": -0.24143,
				"method": "rhf"
			},
			{
				"type": "unocc",
				"energy": -0.052,
				"method": "rhf"
			},
			{
				"type": "unocc",
				"energy": -0.03786,
				"method": "rhf"
			},
			{
				"type": "unocc",
				"energy": -0.01914,
				"method": "rhf"
			},
			{
				"type": "unocc",
				"energy": 0.07747,
				"method": "rhf"
			},
			{
				"type": "unocc",
				"energy": 0.08521,
				"method": "rhf"
			}
		],
		"cosmo_sigma_profile": { 
			"-0.025": 0.0,
			"-0.024": 0.0,
			"-0.023": 0.0,
			"-0.022": 0.0,
			"-0.021": 0.0,
			"-0.02": 0.0,
			"-0.019": 0.0,
			"-0.018": 0.0,
			"-0.017": 0.0,
			"-0.016": 0.0,
			"-0.015": 0.282044131758,
			"-0.014": 1.3349828815,
			"-0.013": 1.01510627929,
			"-0.012": 1.07978155455,
			"-0.011": 1.04214417694,
			"-0.01": 1.14240871073,
			"-0.009": 1.48594980781,
			"-0.008": 2.04655006375,
			"-0.007": 7.67198068496,
			"-0.006": 12.4921937211,
			"-0.005": 14.6981178124,
			"-0.004": 13.0782293336,
			"-0.003": 13.5175106987,
			"-0.002": 14.4776842495,
			"-0.001": 15.169349515,
			"0.0": 17.8470154994,
			"0.001": 21.881128665,
			"0.002": 32.578312189,
			"0.003": 37.7500046524,
			"0.004": 6.12392519909,
			"0.005": 2.07948508115,
			"0.006": 1.17611117159,
			"0.007": 1.88588075345,
			"0.008": 1.6274280743,
			"0.009": 0.697528124856,
			"0.01": 1.13393277523,
			"0.011": 2.28370656091,
			"0.012": 2.65873659468,
			"0.013": 5.35683049383,
			"0.014": 1.83435520271,
			"0.015": 0.0,
			"0.016": 0.0,
			"0.017": 0.0,
			"0.018": 0.0,
			"0.019": 0.0,
			"0.02": 0.0,
			"0.021": 0.0,
			"0.022": 0.0,
			"0.023": 0.0,
			"0.024": 0.0,
			"0.025": 0.0
		}
	}
}
