{
	 "smiles": "CCC1CCC(C)(C)C2=C1C=C(C=C2)C(C)=NO", 
	 "Tm": 414.15, 
	 "num_atms": 41, 
	 "gaussian": { 
		 "optdone": 1, 
		 "sigma_profile": "yes", 
		 "theory": "DFT", 
		 "functional": "B3LYP", 
		 "basiset": "6-31G**", 
		 "properties": { 
			 "R2extent": 5368.7393, 
			 "electric_dipole_moment_norm": 1.09783150346, 
			 "electric_quadrupole_moment_norm": 5.05093060336, 
			 "total_energy": -753.511629885, 
			 "HOMO_LUMO_gap": 0.19032, 
			 "cosmo_polarized_energy": -8.43, 
			 "cosmo_cavitation_energy": 39.5, 
			 "cosmo_dispersion_energy": -27.45, 
			 "cosmo_repulsion_energy": 2.12, 
			 "cosmo_total_nonelectrostatic_energy": 14.16, 
			 "SMD_solvation_energy": 6.35 
		},
		"coords": [
			{
				"x": -2.3968526504,
				"y": 1.4974550351,
				"z": -1.5843681135,
				"element": "C" 
			},
			{
				"x": -1.1244344354,
				"y": 2.3062509278,
				"z": -1.3078817252,
				"element": "C" 
			},
			{
				"x": -0.5042162442,
				"y": 2.2001602315,
				"z": 0.1139889619,
				"element": "C" 
			},
			{
				"x": -1.4046902251,
				"y": 2.7708490475,
				"z": 1.2283484148,
				"element": "C" 
			},
			{
				"x": -2.3500537555,
				"y": 1.7292342022,
				"z": 1.8309414986,
				"element": "C" 
			},
			{
				"x": -1.6186727211,
				"y": 0.5118935942,
				"z": 2.4406239283,
				"element": "C" 
			},
			{
				"x": -2.6801162568,
				"y": -0.5752985197,
				"z": 2.7214730578,
				"element": "C" 
			},
			{
				"x": -0.9525164399,
				"y": 0.9062758107,
				"z": 3.7825702921,
				"element": "C" 
			},
			{
				"x": -0.5295705873,
				"y": 0.0030127924,
				"z": 1.4833312281,
				"element": "C" 
			},
			{
				"x": -0.0099173272,
				"y": 0.789682575,
				"z": 0.435510685,
				"element": "C" 
			},
			{
				"x": 1.0297859834,
				"y": 0.2715377601,
				"z": -0.3504304687,
				"element": "C" 
			},
			{
				"x": 1.5935466738,
				"y": -0.9955058186,
				"z": -0.1453487466,
				"element": "C" 
			},
			{
				"x": 1.0598793231,
				"y": -1.7721714198,
				"z": 0.9010588062,
				"element": "C" 
			},
			{
				"x": 0.0278738544,
				"y": -1.2724575298,
				"z": 1.6824006855,
				"element": "C" 
			},
			{
				"x": 2.6748135609,
				"y": -1.4681587425,
				"z": -1.0488770111,
				"element": "C" 
			},
			{
				"x": 2.7722811105,
				"y": -0.8775580716,
				"z": -2.4397586509,
				"element": "C" 
			},
			{
				"x": 3.5877392291,
				"y": -2.351210894,
				"z": -0.8215295248,
				"element": "N" 
			},
			{
				"x": 3.5654703921,
				"y": -2.8979917529,
				"z": 0.4732736213,
				"element": "O" 
			},
			{
				"x": -2.2610820023,
				"y": 0.4399762477,
				"z": -1.3350811728,
				"element": "H" 
			},
			{
				"x": -3.2547889335,
				"y": 1.8715326618,
				"z": -1.0177360646,
				"element": "H" 
			},
			{
				"x": -2.6607792998,
				"y": 1.5570948885,
				"z": -2.6456622082,
				"element": "H" 
			},
			{
				"x": -0.3590284795,
				"y": 2.0050893276,
				"z": -2.0334296286,
				"element": "H" 
			},
			{
				"x": -1.3209564514,
				"y": 3.3686088757,
				"z": -1.505271158,
				"element": "H" 
			},
			{
				"x": 0.3902407722,
				"y": 2.8375839953,
				"z": 0.071661852,
				"element": "H" 
			},
			{
				"x": -1.9807064723,
				"y": 3.6183263409,
				"z": 0.8369124459,
				"element": "H" 
			},
			{
				"x": -0.7702929375,
				"y": 3.1805286359,
				"z": 2.0236948801,
				"element": "H" 
			},
			{
				"x": -3.0427165659,
				"y": 1.3699098138,
				"z": 1.0628308337,
				"element": "H" 
			},
			{
				"x": -2.9690579704,
				"y": 2.1931565568,
				"z": 2.6093413953,
				"element": "H" 
			},
			{
				"x": -2.2735178015,
				"y": -1.4253269539,
				"z": 3.2766810072,
				"element": "H" 
			},
			{
				"x": -3.4915793381,
				"y": -0.1532476408,
				"z": 3.3251503239,
				"element": "H" 
			},
			{
				"x": -3.1135660296,
				"y": -0.9553642128,
				"z": 1.790695451,
				"element": "H" 
			},
			{
				"x": -1.7075051397,
				"y": 1.2563678977,
				"z": 4.4964909014,
				"element": "H" 
			},
			{
				"x": -0.4362533161,
				"y": 0.050193665,
				"z": 4.2281091717,
				"element": "H" 
			},
			{
				"x": -0.2125081596,
				"y": 1.7013327045,
				"z": 3.6518240852,
				"element": "H" 
			},
			{
				"x": 1.4227612749,
				"y": 0.901018613,
				"z": -1.1425764687,
				"element": "H" 
			},
			{
				"x": 1.4540439517,
				"y": -2.7588272974,
				"z": 1.0968870612,
				"element": "H" 
			},
			{
				"x": -0.3533614013,
				"y": -1.8991495914,
				"z": 2.4825240121,
				"element": "H" 
			},
			{
				"x": 3.5336547799,
				"y": -1.4151887643,
				"z": -3.0065959353,
				"element": "H" 
			},
			{
				"x": 1.8142340084,
				"y": -0.9440124741,
				"z": -2.9660460987,
				"element": "H" 
			},
			{
				"x": 3.0574525983,
				"y": 0.1802565069,
				"z": -2.4079501039,
				"element": "H" 
			},
			{
				"x": 4.3222634289,
				"y": -3.4973590241,
				"z": 0.4411184793,
				"element": "H" 
			}
		],
		 "valence_orbital": [ 
			{
				"type": "occ",
				"energy": -0.2953,
				"method": "rhf"
			},
			{
				"type": "occ",
				"energy": -0.26366,
				"method": "rhf"
			},
			{
				"type": "occ",
				"energy": -0.25868,
				"method": "rhf"
			},
			{
				"type": "occ",
				"energy": -0.23562,
				"method": "rhf"
			},
			{
				"type": "occ",
				"energy": -0.2187,
				"method": "rhf"
			},
			{
				"type": "unocc",
				"energy": -0.02838,
				"method": "rhf"
			},
			{
				"type": "unocc",
				"energy": 0.0023,
				"method": "rhf"
			},
			{
				"type": "unocc",
				"energy": 0.053,
				"method": "rhf"
			},
			{
				"type": "unocc",
				"energy": 0.07595,
				"method": "rhf"
			},
			{
				"type": "unocc",
				"energy": 0.08242,
				"method": "rhf"
			}
		],
		"cosmo_sigma_profile": { 
			"-0.025": 0.0,
			"-0.024": 0.0,
			"-0.023": 0.0,
			"-0.022": 0.0,
			"-0.021": 0.0,
			"-0.02": 0.0,
			"-0.019": 0.0,
			"-0.018": 0.0,
			"-0.017": 0.652310275056,
			"-0.016": 0.967566173286,
			"-0.015": 0.65679147684,
			"-0.014": 1.13276555671,
			"-0.013": 0.675215293863,
			"-0.012": 0.759950622372,
			"-0.011": 0.571717000596,
			"-0.01": 0.339460326962,
			"-0.009": 0.879466540445,
			"-0.008": 0.659249483986,
			"-0.007": 0.503649248671,
			"-0.006": 3.1293555225,
			"-0.005": 7.01289029305,
			"-0.004": 10.7277980636,
			"-0.003": 26.6467359916,
			"-0.002": 45.3153923913,
			"-0.001": 43.8489531655,
			"0.0": 43.7080344614,
			"0.001": 41.7003471202,
			"0.002": 21.2289127089,
			"0.003": 9.79468461434,
			"0.004": 9.85431568681,
			"0.005": 11.22958744,
			"0.006": 9.81702615576,
			"0.007": 4.52889175777,
			"0.008": 2.35084126548,
			"0.009": 2.61281557656,
			"0.01": 2.14014837228,
			"0.011": 1.64853577848,
			"0.012": 0.839062641837,
			"0.013": 0.917522173195,
			"0.014": 0.206966179531,
			"0.015": 0.0,
			"0.016": 0.0,
			"0.017": 0.0,
			"0.018": 0.0,
			"0.019": 0.0,
			"0.02": 0.0,
			"0.021": 0.0,
			"0.022": 0.0,
			"0.023": 0.0,
			"0.024": 0.0,
			"0.025": 0.0
		}
	}
}
