{
	 "smiles": "CON(C)S(=O)(=O)C1=CC(=CC=C1)C(O)=O", 
	 "Tm": 409.15, 
	 "num_atms": 27, 
	 "gaussian": { 
		 "optdone": 1, 
		 "sigma_profile": "yes", 
		 "theory": "DFT", 
		 "functional": "B3LYP", 
		 "basiset": "6-31G**", 
		 "properties": { 
			 "R2extent": 4521.3913, 
			 "electric_dipole_moment_norm": 3.71969771487, 
			 "electric_quadrupole_moment_norm": 21.0950021775, 
			 "total_energy": -1178.52267778, 
			 "HOMO_LUMO_gap": 0.18862, 
			 "cosmo_polarized_energy": -17.62, 
			 "cosmo_cavitation_energy": 33.16, 
			 "cosmo_dispersion_energy": -23.49, 
			 "cosmo_repulsion_energy": 1.8, 
			 "cosmo_total_nonelectrostatic_energy": 11.47, 
			 "SMD_solvation_energy": 7.32 
		},
		"coords": [
			{
				"x": 0.821801629,
				"y": -0.4393936833,
				"z": -3.8339785567,
				"element": "C" 
			},
			{
				"x": 1.5228032328,
				"y": -1.3868582865,
				"z": -3.0220935462,
				"element": "O" 
			},
			{
				"x": 0.8022676226,
				"y": -1.6085094219,
				"z": -1.8101022286,
				"element": "N" 
			},
			{
				"x": 0.7971880501,
				"y": -3.0618018934,
				"z": -1.5950104098,
				"element": "C" 
			},
			{
				"x": 1.6998883334,
				"y": -0.7533576981,
				"z": -0.5493949313,
				"element": "S" 
			},
			{
				"x": 2.843869425,
				"y": -1.5367635617,
				"z": -0.0648342694,
				"element": "O" 
			},
			{
				"x": 1.8743211391,
				"y": 0.6078886231,
				"z": -1.0566741046,
				"element": "O" 
			},
			{
				"x": 0.4510215905,
				"y": -0.7452774105,
				"z": 0.7430581003,
				"element": "C" 
			},
			{
				"x": -0.6991975983,
				"y": 0.0248681125,
				"z": 0.5714905889,
				"element": "C" 
			},
			{
				"x": -1.6513174314,
				"y": 0.0473517434,
				"z": 1.5953805118,
				"element": "C" 
			},
			{
				"x": -1.4363005027,
				"y": -0.6863781696,
				"z": 2.7716779568,
				"element": "C" 
			},
			{
				"x": -0.2768293483,
				"y": -1.4406606303,
				"z": 2.9293166903,
				"element": "C" 
			},
			{
				"x": 0.6786826987,
				"y": -1.4757224687,
				"z": 1.9105766187,
				"element": "C" 
			},
			{
				"x": -2.9081740731,
				"y": 0.8406957197,
				"z": 1.4875890627,
				"element": "C" 
			},
			{
				"x": -3.0111770065,
				"y": 1.5075061015,
				"z": 0.3143123806,
				"element": "O" 
			},
			{
				"x": -3.76247667,
				"y": 0.8954330243,
				"z": 2.3485766429,
				"element": "O" 
			},
			{
				"x": 1.3973701309,
				"y": -0.3900177234,
				"z": -4.7615246324,
				"element": "H" 
			},
			{
				"x": 0.7987215319,
				"y": 0.5445106318,
				"z": -3.359360415,
				"element": "H" 
			},
			{
				"x": -0.19683708,
				"y": -0.784130451,
				"z": -4.0446607733,
				"element": "H" 
			},
			{
				"x": 1.8074059337,
				"y": -3.4842366772,
				"z": -1.6015966873,
				"element": "H" 
			},
			{
				"x": 0.314780224,
				"y": -3.2716706711,
				"z": -0.6373030219,
				"element": "H" 
			},
			{
				"x": 0.2010473246,
				"y": -3.5046602584,
				"z": -2.3949247446,
				"element": "H" 
			},
			{
				"x": -0.8497881835,
				"y": 0.5979505531,
				"z": -0.3349979569,
				"element": "H" 
			},
			{
				"x": -2.1920478381,
				"y": -0.6457129867,
				"z": 3.548754506,
				"element": "H" 
			},
			{
				"x": -0.1116508012,
				"y": -2.0006763824,
				"z": 3.8442310297,
				"element": "H" 
			},
			{
				"x": 1.5940659368,
				"y": -2.0490833175,
				"z": 2.0100145033,
				"element": "H" 
			},
			{
				"x": -3.8534382701,
				"y": 1.9900071823,
				"z": 0.351077686,
				"element": "H" 
			}
		],
		 "valence_orbital": [ 
			{
				"type": "occ",
				"energy": -0.29614,
				"method": "rhf"
			},
			{
				"type": "occ",
				"energy": -0.29121,
				"method": "rhf"
			},
			{
				"type": "occ",
				"energy": -0.28655,
				"method": "rhf"
			},
			{
				"type": "occ",
				"energy": -0.27977,
				"method": "rhf"
			},
			{
				"type": "occ",
				"energy": -0.25898,
				"method": "rhf"
			},
			{
				"type": "unocc",
				"energy": -0.07036,
				"method": "rhf"
			},
			{
				"type": "unocc",
				"energy": -0.05018,
				"method": "rhf"
			},
			{
				"type": "unocc",
				"energy": 0.02553,
				"method": "rhf"
			},
			{
				"type": "unocc",
				"energy": 0.04236,
				"method": "rhf"
			},
			{
				"type": "unocc",
				"energy": 0.06133,
				"method": "rhf"
			}
		],
		"cosmo_sigma_profile": { 
			"-0.025": 0.0,
			"-0.024": 0.0,
			"-0.023": 0.0,
			"-0.022": 0.0,
			"-0.021": 0.0,
			"-0.02": 0.0,
			"-0.019": 0.302542820265,
			"-0.018": 1.153089014,
			"-0.017": 0.952658926893,
			"-0.016": 0.446970435303,
			"-0.015": 0.830277865672,
			"-0.014": 0.305137599901,
			"-0.013": 0.68214843562,
			"-0.012": 1.32370853175,
			"-0.011": 0.954097604614,
			"-0.01": 0.504049474185,
			"-0.009": 0.490973325179,
			"-0.008": 3.47424815787,
			"-0.007": 8.10100241767,
			"-0.006": 14.3678872524,
			"-0.005": 17.0898588638,
			"-0.004": 20.8472387611,
			"-0.003": 27.3697109473,
			"-0.002": 20.1357181346,
			"-0.001": 21.5219712486,
			"0.0": 20.9978200537,
			"0.001": 16.2509598494,
			"0.002": 9.41119455323,
			"0.003": 7.7151014369,
			"0.004": 7.79969965654,
			"0.005": 8.2271701343,
			"0.006": 7.37400399457,
			"0.007": 7.3621616366,
			"0.008": 7.62863516511,
			"0.009": 8.84136997374,
			"0.01": 10.3379244726,
			"0.011": 9.6011897802,
			"0.012": 1.66890078228,
			"0.013": 0.0,
			"0.014": 0.0,
			"0.015": 0.0,
			"0.016": 0.0,
			"0.017": 0.0,
			"0.018": 0.0,
			"0.019": 0.0,
			"0.02": 0.0,
			"0.021": 0.0,
			"0.022": 0.0,
			"0.023": 0.0,
			"0.024": 0.0,
			"0.025": 0.0
		}
	}
}
