{
	 "smiles": "NC1=C(Cl)C=CC(=C1)C(=O)N1CCCCC1", 
	 "Tm": 409.15, 
	 "num_atms": 31, 
	 "gaussian": { 
		 "optdone": 1, 
		 "sigma_profile": "yes", 
		 "theory": "DFT", 
		 "functional": "B3LYP", 
		 "basiset": "6-31G**", 
		 "properties": { 
			 "R2extent": 5981.9943, 
			 "electric_dipole_moment_norm": 5.22058829156, 
			 "electric_quadrupole_moment_norm": 6.56363602282, 
			 "total_energy": -1111.25796943, 
			 "HOMO_LUMO_gap": 0.18343, 
			 "cosmo_polarized_energy": -15.02, 
			 "cosmo_cavitation_energy": 34.35, 
			 "cosmo_dispersion_energy": -25.18, 
			 "cosmo_repulsion_energy": 1.98, 
			 "cosmo_total_nonelectrostatic_energy": 11.16, 
			 "SMD_solvation_energy": 4.61 
		},
		"coords": [
			{
				"x": -3.4839299962,
				"y": -1.7645212611,
				"z": -1.9553648228,
				"element": "N" 
			},
			{
				"x": -3.1118571853,
				"y": -1.1814416196,
				"z": -0.7541711732,
				"element": "C" 
			},
			{
				"x": -3.9903119284,
				"y": -1.108041221,
				"z": 0.3436815039,
				"element": "C" 
			},
			{
				"x": -5.5765042034,
				"y": -1.8703867243,
				"z": 0.2223318031,
				"element": "Cl" 
			},
			{
				"x": -3.6433675869,
				"y": -0.445834654,
				"z": 1.5188597439,
				"element": "C" 
			},
			{
				"x": -2.3967335513,
				"y": 0.1595325866,
				"z": 1.6350176848,
				"element": "C" 
			},
			{
				"x": -1.4832247181,
				"y": 0.0746429305,
				"z": 0.5754842371,
				"element": "C" 
			},
			{
				"x": -1.8477825334,
				"y": -0.5819203157,
				"z": -0.6016378746,
				"element": "C" 
			},
			{
				"x": -0.1771678782,
				"y": 0.8120572444,
				"z": 0.7212389588,
				"element": "C" 
			},
			{
				"x": -0.1603942773,
				"y": 1.924606054,
				"z": 1.2477220972,
				"element": "O" 
			},
			{
				"x": 0.97360706,
				"y": 0.2437735538,
				"z": 0.2279196902,
				"element": "N" 
			},
			{
				"x": 1.1660345061,
				"y": -1.1944606192,
				"z": -0.015834415,
				"element": "C" 
			},
			{
				"x": 2.4606575915,
				"y": -1.6804896383,
				"z": 0.6475477098,
				"element": "C" 
			},
			{
				"x": 3.7019612773,
				"y": -0.9541289363,
				"z": 0.0778780105,
				"element": "C" 
			},
			{
				"x": 3.3287077309,
				"y": 0.4393113843,
				"z": -0.4740883868,
				"element": "C" 
			},
			{
				"x": 2.1867093774,
				"y": 1.077820808,
				"z": 0.3160101084,
				"element": "C" 
			},
			{
				"x": -2.7271351007,
				"y": -2.0790826678,
				"z": -2.5442854111,
				"element": "H" 
			},
			{
				"x": -4.2596658128,
				"y": -2.4098433872,
				"z": -1.9118011636,
				"element": "H" 
			},
			{
				"x": -4.3579672052,
				"y": -0.4069402174,
				"z": 2.3338914516,
				"element": "H" 
			},
			{
				"x": -2.124342557,
				"y": 0.7073851388,
				"z": 2.5294794733,
				"element": "H" 
			},
			{
				"x": -1.1601275112,
				"y": -0.6101027033,
				"z": -1.4423548531,
				"element": "H" 
			},
			{
				"x": 0.3084765821,
				"y": -1.7359260969,
				"z": 0.384469864,
				"element": "H" 
			},
			{
				"x": 1.2043948189,
				"y": -1.4037560181,
				"z": -1.0955089688,
				"element": "H" 
			},
			{
				"x": 2.5475865654,
				"y": -2.764575548,
				"z": 0.5162440734,
				"element": "H" 
			},
			{
				"x": 2.3781563663,
				"y": -1.5011439487,
				"z": 1.7257635206,
				"element": "H" 
			},
			{
				"x": 4.1604424548,
				"y": -1.55043479,
				"z": -0.7189524904,
				"element": "H" 
			},
			{
				"x": 4.4582367778,
				"y": -0.8571920901,
				"z": 0.8646736928,
				"element": "H" 
			},
			{
				"x": 4.1956288543,
				"y": 1.1076940787,
				"z": -0.453680286,
				"element": "H" 
			},
			{
				"x": 3.0259852709,
				"y": 0.359167195,
				"z": -1.5253339362,
				"element": "H" 
			},
			{
				"x": 1.9402887481,
				"y": 2.0713143557,
				"z": -0.066003596,
				"element": "H" 
			},
			{
				"x": 2.4724380636,
				"y": 1.2172171273,
				"z": 1.3685037543,
				"element": "H" 
			}
		],
		 "valence_orbital": [ 
			{
				"type": "occ",
				"energy": -0.31401,
				"method": "rhf"
			},
			{
				"type": "occ",
				"energy": -0.25307,
				"method": "rhf"
			},
			{
				"type": "occ",
				"energy": -0.2419,
				"method": "rhf"
			},
			{
				"type": "occ",
				"energy": -0.23098,
				"method": "rhf"
			},
			{
				"type": "occ",
				"energy": -0.21066,
				"method": "rhf"
			},
			{
				"type": "unocc",
				"energy": -0.02723,
				"method": "rhf"
			},
			{
				"type": "unocc",
				"energy": 0.00219,
				"method": "rhf"
			},
			{
				"type": "unocc",
				"energy": 0.02964,
				"method": "rhf"
			},
			{
				"type": "unocc",
				"energy": 0.0549,
				"method": "rhf"
			},
			{
				"type": "unocc",
				"energy": 0.06896,
				"method": "rhf"
			}
		],
		"cosmo_sigma_profile": { 
			"-0.025": 0.0,
			"-0.024": 0.0,
			"-0.023": 0.0,
			"-0.022": 0.0,
			"-0.021": 0.0,
			"-0.02": 0.0,
			"-0.019": 0.0,
			"-0.018": 0.0,
			"-0.017": 0.0,
			"-0.016": 0.0,
			"-0.015": 0.0,
			"-0.014": 0.126319481977,
			"-0.013": 1.29941050785,
			"-0.012": 1.9614356126,
			"-0.011": 2.44667703747,
			"-0.01": 2.86904981309,
			"-0.009": 2.32538576367,
			"-0.008": 1.85062755126,
			"-0.007": 4.31896709045,
			"-0.006": 6.06284987354,
			"-0.005": 7.06480241425,
			"-0.004": 14.9680463911,
			"-0.003": 32.1927859205,
			"-0.002": 40.5649209823,
			"-0.001": 28.1759556719,
			"0.0": 22.8851819296,
			"0.001": 17.8530755937,
			"0.002": 14.9380661435,
			"0.003": 16.2009967738,
			"0.004": 17.8509232231,
			"0.005": 9.89803880226,
			"0.006": 2.40900887058,
			"0.007": 2.57584582079,
			"0.008": 2.85172584934,
			"0.009": 2.03292449786,
			"0.01": 2.13503243011,
			"0.011": 1.84960673723,
			"0.012": 2.56374123171,
			"0.013": 2.94428972979,
			"0.014": 5.04709752684,
			"0.015": 1.83598724177,
			"0.016": 0.0266068831647,
			"0.017": 0.0,
			"0.018": 0.0,
			"0.019": 0.0,
			"0.02": 0.0,
			"0.021": 0.0,
			"0.022": 0.0,
			"0.023": 0.0,
			"0.024": 0.0,
			"0.025": 0.0
		}
	}
}
