{
	 "smiles": "N#CC1=CC(=NC=C1)C#N", 
	 "Tm": 363.15, 
	 "num_atms": 13, 
	 "gaussian": { 
		 "optdone": 1, 
		 "sigma_profile": "yes", 
		 "theory": "DFT", 
		 "functional": "B3LYP", 
		 "basiset": "6-31G**", 
		 "properties": { 
			 "R2extent": 1573.7516, 
			 "electric_dipole_moment_norm": 3.37318327548, 
			 "electric_quadrupole_moment_norm": 20.1354184357, 
			 "total_energy": -432.75321797, 
			 "HOMO_LUMO_gap": 0.20034, 
			 "cosmo_polarized_energy": -13.81, 
			 "cosmo_cavitation_energy": 20.6, 
			 "cosmo_dispersion_energy": -14.0, 
			 "cosmo_repulsion_energy": 1.14, 
			 "cosmo_total_nonelectrostatic_energy": 7.75, 
			 "SMD_solvation_energy": 5.16 
		},
		"coords": [
			{
				"x": 2.767691983,
				"y": -1.3499282088,
				"z": -1.8345148424,
				"element": "N" 
			},
			{
				"x": 1.8017655687,
				"y": -1.230059049,
				"z": -1.1994622501,
				"element": "C" 
			},
			{
				"x": 0.6095319068,
				"y": -1.0867238504,
				"z": -0.4132731242,
				"element": "C" 
			},
			{
				"x": -0.1306024019,
				"y": 0.1019168555,
				"z": -0.4560112167,
				"element": "C" 
			},
			{
				"x": -1.2837223276,
				"y": 0.180503951,
				"z": 0.3333674744,
				"element": "C" 
			},
			{
				"x": -1.7206693736,
				"y": -0.8125419542,
				"z": 1.1262506854,
				"element": "N" 
			},
			{
				"x": -1.0008299506,
				"y": -1.9362242068,
				"z": 1.1522061902,
				"element": "C" 
			},
			{
				"x": 0.1651896978,
				"y": -2.1304858335,
				"z": 0.409365545,
				"element": "C" 
			},
			{
				"x": -2.071204988,
				"y": 1.3905690718,
				"z": 0.314256149,
				"element": "C" 
			},
			{
				"x": -2.683244966,
				"y": 2.3771964905,
				"z": 0.2771137667,
				"element": "N" 
			},
			{
				"x": 0.176531965,
				"y": 0.9342273718,
				"z": -1.078124518,
				"element": "H" 
			},
			{
				"x": -1.3725442682,
				"y": -2.7262026955,
				"z": 1.800247039,
				"element": "H" 
			},
			{
				"x": 0.7135071546,
				"y": -3.0638479423,
				"z": 0.4664791017,
				"element": "H" 
			}
		],
		 "valence_orbital": [ 
			{
				"type": "occ",
				"energy": -0.36358,
				"method": "rhf"
			},
			{
				"type": "occ",
				"energy": -0.35482,
				"method": "rhf"
			},
			{
				"type": "occ",
				"energy": -0.3217,
				"method": "rhf"
			},
			{
				"type": "occ",
				"energy": -0.30863,
				"method": "rhf"
			},
			{
				"type": "occ",
				"energy": -0.30443,
				"method": "rhf"
			},
			{
				"type": "unocc",
				"energy": -0.10409,
				"method": "rhf"
			},
			{
				"type": "unocc",
				"energy": -0.07883,
				"method": "rhf"
			},
			{
				"type": "unocc",
				"energy": 0.00055,
				"method": "rhf"
			},
			{
				"type": "unocc",
				"energy": 0.01682,
				"method": "rhf"
			},
			{
				"type": "unocc",
				"energy": 0.01849,
				"method": "rhf"
			}
		],
		"cosmo_sigma_profile": { 
			"-0.025": 0.0,
			"-0.024": 0.0,
			"-0.023": 0.0,
			"-0.022": 0.0,
			"-0.021": 0.0,
			"-0.02": 0.0,
			"-0.019": 0.0,
			"-0.018": 0.0,
			"-0.017": 0.0,
			"-0.016": 0.0,
			"-0.015": 0.0,
			"-0.014": 0.0,
			"-0.013": 0.0,
			"-0.012": 0.0,
			"-0.011": 2.13723329974,
			"-0.01": 5.28120861182,
			"-0.009": 7.66501484293,
			"-0.008": 6.70958871349,
			"-0.007": 5.19617317866,
			"-0.006": 7.72061304288,
			"-0.005": 10.0010272762,
			"-0.004": 15.8552206602,
			"-0.003": 14.4351537158,
			"-0.002": 9.5709205866,
			"-0.001": 6.23859784884,
			"0.0": 6.10859869582,
			"0.001": 5.49022554283,
			"0.002": 5.64354799968,
			"0.003": 5.59324987475,
			"0.004": 7.60166970832,
			"0.005": 5.54262778147,
			"0.006": 6.72035084828,
			"0.007": 8.1738983547,
			"0.008": 6.60095253447,
			"0.009": 7.18301743227,
			"0.01": 5.26324027219,
			"0.011": 5.59851028691,
			"0.012": 2.99174769247,
			"0.013": 0.239780305629,
			"0.014": 0.0,
			"0.015": 0.0,
			"0.016": 0.0,
			"0.017": 0.0,
			"0.018": 0.0,
			"0.019": 0.0,
			"0.02": 0.0,
			"0.021": 0.0,
			"0.022": 0.0,
			"0.023": 0.0,
			"0.024": 0.0,
			"0.025": 0.0
		}
	}
}
