{
	 "smiles": "CC(C)NS(=O)(=O)C1=CC(C(O)=O)=C(F)C=C1", 
	 "Tm": 441.15, 
	 "num_atms": 29, 
	 "gaussian": { 
		 "optdone": 1, 
		 "sigma_profile": "yes", 
		 "theory": "DFT", 
		 "functional": "B3LYP", 
		 "basiset": "6-31G**", 
		 "properties": { 
			 "R2extent": 5423.7199, 
			 "electric_dipole_moment_norm": 4.29684331225, 
			 "electric_quadrupole_moment_norm": 24.4354620959, 
			 "total_energy": -1241.91374819, 
			 "HOMO_LUMO_gap": 0.19938, 
			 "cosmo_polarized_energy": -19.71, 
			 "cosmo_cavitation_energy": 34.72, 
			 "cosmo_dispersion_energy": -24.54, 
			 "cosmo_repulsion_energy": 1.85, 
			 "cosmo_total_nonelectrostatic_energy": 12.04, 
			 "SMD_solvation_energy": 6.52 
		},
		"coords": [
			{
				"x": -2.1507832226,
				"y": -0.2035976434,
				"z": 0.7299536803,
				"element": "C" 
			},
			{
				"x": -1.5553902664,
				"y": 0.4597705582,
				"z": 1.9732227459,
				"element": "C" 
			},
			{
				"x": -2.2741746638,
				"y": 1.7658671531,
				"z": 2.3186562885,
				"element": "C" 
			},
			{
				"x": -0.1224004743,
				"y": 0.7932614019,
				"z": 1.7521057284,
				"element": "N" 
			},
			{
				"x": 1.0351111259,
				"y": -0.4308638431,
				"z": 1.7824602489,
				"element": "S" 
			},
			{
				"x": 0.4840213494,
				"y": -1.6620119331,
				"z": 2.3628352353,
				"element": "O" 
			},
			{
				"x": 2.2424161572,
				"y": 0.1956189803,
				"z": 2.3298177683,
				"element": "O" 
			},
			{
				"x": 1.3235618529,
				"y": -0.7751853103,
				"z": 0.0399672264,
				"element": "C" 
			},
			{
				"x": 1.5812855635,
				"y": 0.2677473235,
				"z": -0.844044905,
				"element": "C" 
			},
			{
				"x": 1.8740929619,
				"y": 0.004591364,
				"z": -2.1879831144,
				"element": "C" 
			},
			{
				"x": 2.11841693,
				"y": 1.1979919527,
				"z": -3.0809515117,
				"element": "C" 
			},
			{
				"x": 2.4314318069,
				"y": 0.9670916546,
				"z": -4.3699886399,
				"element": "O" 
			},
			{
				"x": 2.0356379334,
				"y": 2.3268569841,
				"z": -2.6568560562,
				"element": "O" 
			},
			{
				"x": 1.9049192757,
				"y": -1.3390122844,
				"z": -2.5787934184,
				"element": "C" 
			},
			{
				"x": 2.1876878928,
				"y": -1.6555122944,
				"z": -3.8751033883,
				"element": "F" 
			},
			{
				"x": 1.6554699239,
				"y": -2.3924997196,
				"z": -1.7114428957,
				"element": "C" 
			},
			{
				"x": 1.3597262608,
				"y": -2.1069953267,
				"z": -0.3803021809,
				"element": "C" 
			},
			{
				"x": -2.0620111997,
				"y": 0.4551274039,
				"z": -0.1397271809,
				"element": "H" 
			},
			{
				"x": -3.2105166432,
				"y": -0.4201139136,
				"z": 0.8970105091,
				"element": "H" 
			},
			{
				"x": -1.6524205523,
				"y": -1.1500303279,
				"z": 0.5051320468,
				"element": "H" 
			},
			{
				"x": -1.6436452727,
				"y": -0.233735525,
				"z": 2.8193258352,
				"element": "H" 
			},
			{
				"x": -1.8611956275,
				"y": 2.2238893711,
				"z": 3.2244465534,
				"element": "H" 
			},
			{
				"x": -2.1917568598,
				"y": 2.4854877112,
				"z": 1.4977190333,
				"element": "H" 
			},
			{
				"x": -3.3349237257,
				"y": 1.5708206538,
				"z": 2.4997420201,
				"element": "H" 
			},
			{
				"x": 0.2236421162,
				"y": 1.5187882629,
				"z": 2.3764578769,
				"element": "H" 
			},
			{
				"x": 1.5487517917,
				"y": 1.3040330003,
				"z": -0.5275510249,
				"element": "H" 
			},
			{
				"x": 2.4550828576,
				"y": 0.0154076023,
				"z": -4.5550560889,
				"element": "H" 
			},
			{
				"x": 1.6935720727,
				"y": -3.4096483174,
				"z": -2.084653512,
				"element": "H" 
			},
			{
				"x": 1.1518906355,
				"y": -2.899844939,
				"z": 0.32940112,
				"element": "H" 
			}
		],
		 "valence_orbital": [ 
			{
				"type": "occ",
				"energy": -0.31036,
				"method": "rhf"
			},
			{
				"type": "occ",
				"energy": -0.29653,
				"method": "rhf"
			},
			{
				"type": "occ",
				"energy": -0.29402,
				"method": "rhf"
			},
			{
				"type": "occ",
				"energy": -0.28767,
				"method": "rhf"
			},
			{
				"type": "occ",
				"energy": -0.27307,
				"method": "rhf"
			},
			{
				"type": "unocc",
				"energy": -0.07369,
				"method": "rhf"
			},
			{
				"type": "unocc",
				"energy": -0.05277,
				"method": "rhf"
			},
			{
				"type": "unocc",
				"energy": 0.02529,
				"method": "rhf"
			},
			{
				"type": "unocc",
				"energy": 0.04517,
				"method": "rhf"
			},
			{
				"type": "unocc",
				"energy": 0.06263,
				"method": "rhf"
			}
		],
		"cosmo_sigma_profile": { 
			"-0.025": 0.0,
			"-0.024": 0.0,
			"-0.023": 0.0,
			"-0.022": 0.0,
			"-0.021": 0.0,
			"-0.02": 0.0,
			"-0.019": 0.0,
			"-0.018": 0.0,
			"-0.017": 0.0,
			"-0.016": 0.0,
			"-0.015": 0.0,
			"-0.014": 0.664258490183,
			"-0.013": 1.21899295096,
			"-0.012": 2.50577779694,
			"-0.011": 2.86442359889,
			"-0.01": 3.39882603762,
			"-0.009": 5.06037003615,
			"-0.008": 7.19964074296,
			"-0.007": 6.56048448488,
			"-0.006": 7.99139350477,
			"-0.005": 9.08796207413,
			"-0.004": 21.3325104818,
			"-0.003": 27.4199591361,
			"-0.002": 30.5328518161,
			"-0.001": 27.8110549309,
			"0.0": 27.6671200543,
			"0.001": 13.456305396,
			"0.002": 8.75387936596,
			"0.003": 6.71902720992,
			"0.004": 5.85835051678,
			"0.005": 4.4088208965,
			"0.006": 5.09850567922,
			"0.007": 4.97089349249,
			"0.008": 6.53219192881,
			"0.009": 8.30392358151,
			"0.01": 12.0954965291,
			"0.011": 13.6798577105,
			"0.012": 4.20274921157,
			"0.013": 0.552702992947,
			"0.014": 0.0,
			"0.015": 0.0,
			"0.016": 0.0,
			"0.017": 0.0,
			"0.018": 0.0,
			"0.019": 0.0,
			"0.02": 0.0,
			"0.021": 0.0,
			"0.022": 0.0,
			"0.023": 0.0,
			"0.024": 0.0,
			"0.025": 0.0
		}
	}
}
