{
	 "smiles": "CN(C1=C(F)C(F)=C(C#N)C(F)=C1F)N(=O)=O", 
	 "Tm": 326.15, 
	 "num_atms": 20, 
	 "gaussian": { 
		 "optdone": 1, 
		 "sigma_profile": "yes", 
		 "theory": "DFT", 
		 "functional": "B3LYP", 
		 "basiset": "6-31G**", 
		 "properties": { 
			 "R2extent": 3924.5654, 
			 "electric_dipole_moment_norm": 4.23311917503, 
			 "electric_quadrupole_moment_norm": 26.8150536828, 
			 "total_energy": -1020.52001259, 
			 "HOMO_LUMO_gap": 0.18574, 
			 "cosmo_polarized_energy": -12.94, 
			 "cosmo_cavitation_energy": 29.15, 
			 "cosmo_dispersion_energy": -19.5, 
			 "cosmo_repulsion_energy": 1.44, 
			 "cosmo_total_nonelectrostatic_energy": 11.09, 
			 "SMD_solvation_energy": 10.38 
		},
		"coords": [
			{
				"x": 0.3379578129,
				"y": -2.4809636062,
				"z": 2.1253117316,
				"element": "C" 
			},
			{
				"x": 0.4083014353,
				"y": -1.1017039607,
				"z": 1.6412257185,
				"element": "N" 
			},
			{
				"x": 0.1359447071,
				"y": -0.7289714954,
				"z": 0.31068855,
				"element": "C" 
			},
			{
				"x": 1.0268018165,
				"y": 0.090264797,
				"z": -0.3975759451,
				"element": "C" 
			},
			{
				"x": 2.1325186912,
				"y": 0.5364894057,
				"z": 0.1915090891,
				"element": "F" 
			},
			{
				"x": 0.7706296688,
				"y": 0.4411121853,
				"z": -1.7174328926,
				"element": "C" 
			},
			{
				"x": 1.6319482044,
				"y": 1.2254317302,
				"z": -2.3630231888,
				"element": "F" 
			},
			{
				"x": -0.3652009696,
				"y": -0.0431778759,
				"z": -2.384697081,
				"element": "C" 
			},
			{
				"x": -0.6148799824,
				"y": 0.3003048268,
				"z": -3.7463773506,
				"element": "C" 
			},
			{
				"x": -0.8181099955,
				"y": 0.5771239948,
				"z": -4.8565258098,
				"element": "N" 
			},
			{
				"x": -1.2466647834,
				"y": -0.8768146937,
				"z": -1.6819470455,
				"element": "C" 
			},
			{
				"x": -2.3374849701,
				"y": -1.3513453989,
				"z": -2.2823289987,
				"element": "F" 
			},
			{
				"x": -1.0044009994,
				"y": -1.200632461,
				"z": -0.3524754949,
				"element": "C" 
			},
			{
				"x": -1.8736210923,
				"y": -1.9839774756,
				"z": 0.2980271755,
				"element": "F" 
			},
			{
				"x": 0.360217823,
				"y": -0.0934932286,
				"z": 2.6164439392,
				"element": "N" 
			},
			{
				"x": 0.4524782448,
				"y": -0.4762473535,
				"z": 3.7762567618,
				"element": "O" 
			},
			{
				"x": 0.2502174166,
				"y": 1.0592343819,
				"z": 2.2197762729,
				"element": "O" 
			},
			{
				"x": 0.4547436249,
				"y": -3.1338767496,
				"z": 1.2605806037,
				"element": "H" 
			},
			{
				"x": -0.6138067745,
				"y": -2.6903251317,
				"z": 2.6200896257,
				"element": "H" 
			},
			{
				"x": 1.1552101215,
				"y": -2.6559318908,
				"z": 2.8255743389,
				"element": "H" 
			}
		],
		 "valence_orbital": [ 
			{
				"type": "occ",
				"energy": -0.33152,
				"method": "rhf"
			},
			{
				"type": "occ",
				"energy": -0.32467,
				"method": "rhf"
			},
			{
				"type": "occ",
				"energy": -0.31276,
				"method": "rhf"
			},
			{
				"type": "occ",
				"energy": -0.28501,
				"method": "rhf"
			},
			{
				"type": "occ",
				"energy": -0.28197,
				"method": "rhf"
			},
			{
				"type": "unocc",
				"energy": -0.09623,
				"method": "rhf"
			},
			{
				"type": "unocc",
				"energy": -0.06318,
				"method": "rhf"
			},
			{
				"type": "unocc",
				"energy": -0.04246,
				"method": "rhf"
			},
			{
				"type": "unocc",
				"energy": -0.00056,
				"method": "rhf"
			},
			{
				"type": "unocc",
				"energy": 0.00438,
				"method": "rhf"
			}
		],
		"cosmo_sigma_profile": { 
			"-0.025": 0.0,
			"-0.024": 0.0,
			"-0.023": 0.0,
			"-0.022": 0.0,
			"-0.021": 0.0,
			"-0.02": 0.0,
			"-0.019": 0.0,
			"-0.018": 0.0,
			"-0.017": 0.0,
			"-0.016": 0.0,
			"-0.015": 0.0,
			"-0.014": 0.0,
			"-0.013": 0.0,
			"-0.012": 0.0,
			"-0.011": 0.0,
			"-0.01": 0.325901326381,
			"-0.009": 2.50500079045,
			"-0.008": 4.13882493745,
			"-0.007": 8.89026418565,
			"-0.006": 17.4110125547,
			"-0.005": 24.7661262268,
			"-0.004": 17.2333424928,
			"-0.003": 11.519544332,
			"-0.002": 10.7678341106,
			"-0.001": 9.44801570549,
			"0.0": 13.1888983112,
			"0.001": 26.9928159308,
			"0.002": 29.4619361561,
			"0.003": 5.86993892171,
			"0.004": 5.92892962863,
			"0.005": 6.62885020694,
			"0.006": 8.08334869819,
			"0.007": 13.5118497443,
			"0.008": 8.54096614826,
			"0.009": 6.09928876567,
			"0.01": 2.74936530218,
			"0.011": 2.20608756949,
			"0.012": 0.421176370255,
			"0.013": 0.0,
			"0.014": 0.0,
			"0.015": 0.0,
			"0.016": 0.0,
			"0.017": 0.0,
			"0.018": 0.0,
			"0.019": 0.0,
			"0.02": 0.0,
			"0.021": 0.0,
			"0.022": 0.0,
			"0.023": 0.0,
			"0.024": 0.0,
			"0.025": 0.0
		}
	}
}
