{
	 "smiles": "OC1=CC=C(NC(=O)C2=C(O)C=CC=C2)C=C1", 
	 "Tm": 452.15, 
	 "num_atms": 28, 
	 "gaussian": { 
		 "optdone": 1, 
		 "sigma_profile": "yes", 
		 "theory": "DFT", 
		 "functional": "B3LYP", 
		 "basiset": "6-31G**", 
		 "properties": { 
			 "R2extent": 4689.6026, 
			 "electric_dipole_moment_norm": 4.26711382318, 
			 "electric_quadrupole_moment_norm": 23.401952738, 
			 "total_energy": -782.434106024, 
			 "HOMO_LUMO_gap": 0.19015, 
			 "cosmo_polarized_energy": -22.98, 
			 "cosmo_cavitation_energy": 33.18, 
			 "cosmo_dispersion_energy": -23.05, 
			 "cosmo_repulsion_energy": 1.82, 
			 "cosmo_total_nonelectrostatic_energy": 11.95, 
			 "SMD_solvation_energy": 6.88 
		},
		"coords": [
			{
				"x": -0.7202568113,
				"y": 4.1334319427,
				"z": 0.462498847,
				"element": "O" 
			},
			{
				"x": -0.3629000634,
				"y": 2.894400439,
				"z": 0.9154030388,
				"element": "C" 
			},
			{
				"x": -1.2807612277,
				"y": 1.8518187967,
				"z": 1.0789336919,
				"element": "C" 
			},
			{
				"x": -0.8590807241,
				"y": 0.6128019544,
				"z": 1.5583472792,
				"element": "C" 
			},
			{
				"x": 0.4918021359,
				"y": 0.3880733608,
				"z": 1.8468079924,
				"element": "C" 
			},
			{
				"x": 0.9507744282,
				"y": -0.8593702504,
				"z": 2.3499071528,
				"element": "N" 
			},
			{
				"x": 0.5936818791,
				"y": -2.138404881,
				"z": 1.9717785632,
				"element": "C" 
			},
			{
				"x": 0.8641283634,
				"y": -3.0983634662,
				"z": 2.6788916381,
				"element": "O" 
			},
			{
				"x": -0.0424281021,
				"y": -2.3056719646,
				"z": 0.6155904306,
				"element": "C" 
			},
			{
				"x": -1.3018285916,
				"y": -2.91597497,
				"z": 0.4857531476,
				"element": "C" 
			},
			{
				"x": -2.0027724295,
				"y": -3.1652336238,
				"z": 1.6301512806,
				"element": "O" 
			},
			{
				"x": -1.8173215463,
				"y": -3.198199007,
				"z": -0.7829456089,
				"element": "C" 
			},
			{
				"x": -1.0818601452,
				"y": -2.880696638,
				"z": -1.9249017679,
				"element": "C" 
			},
			{
				"x": 0.1648689459,
				"y": -2.2659171241,
				"z": -1.8100405251,
				"element": "C" 
			},
			{
				"x": 0.6715391911,
				"y": -1.9797467733,
				"z": -0.541882613,
				"element": "C" 
			},
			{
				"x": 1.4053067811,
				"y": 1.438059115,
				"z": 1.6785230933,
				"element": "C" 
			},
			{
				"x": 0.9847942915,
				"y": 2.6851447159,
				"z": 1.2286625058,
				"element": "C" 
			},
			{
				"x": -1.6693289362,
				"y": 4.143759664,
				"z": 0.2836262935,
				"element": "H" 
			},
			{
				"x": -2.3326500614,
				"y": 2.0119057302,
				"z": 0.8514537262,
				"element": "H" 
			},
			{
				"x": -1.5814867676,
				"y": -0.1800953137,
				"z": 1.7189221051,
				"element": "H" 
			},
			{
				"x": 1.4828130144,
				"y": -0.8497259759,
				"z": 3.2124400296,
				"element": "H" 
			},
			{
				"x": -2.8239251113,
				"y": -3.6222027277,
				"z": 1.4068405119,
				"element": "H" 
			},
			{
				"x": -2.7966582993,
				"y": -3.6641992806,
				"z": -0.8727464973,
				"element": "H" 
			},
			{
				"x": -1.4915978406,
				"y": -3.110708184,
				"z": -2.9041588014,
				"element": "H" 
			},
			{
				"x": 0.7383723924,
				"y": -2.0141785536,
				"z": -2.696268972,
				"element": "H" 
			},
			{
				"x": 1.6425311591,
				"y": -1.5043881014,
				"z": -0.4396547212,
				"element": "H" 
			},
			{
				"x": 2.4554037555,
				"y": 1.2692323448,
				"z": 1.9000251248,
				"element": "H" 
			},
			{
				"x": 1.68704032,
				"y": 3.5021487718,
				"z": 1.1013430542,
				"element": "H" 
			}
		],
		 "valence_orbital": [ 
			{
				"type": "occ",
				"energy": -0.26348,
				"method": "rhf"
			},
			{
				"type": "occ",
				"energy": -0.25517,
				"method": "rhf"
			},
			{
				"type": "occ",
				"energy": -0.24141,
				"method": "rhf"
			},
			{
				"type": "occ",
				"energy": -0.22404,
				"method": "rhf"
			},
			{
				"type": "occ",
				"energy": -0.21036,
				"method": "rhf"
			},
			{
				"type": "unocc",
				"energy": -0.02021,
				"method": "rhf"
			},
			{
				"type": "unocc",
				"energy": -0.00744,
				"method": "rhf"
			},
			{
				"type": "unocc",
				"energy": -0.00096,
				"method": "rhf"
			},
			{
				"type": "unocc",
				"energy": 0.01317,
				"method": "rhf"
			},
			{
				"type": "unocc",
				"energy": 0.04524,
				"method": "rhf"
			}
		],
		"cosmo_sigma_profile": { 
			"-0.025": 0.0,
			"-0.024": 0.0,
			"-0.023": 0.0,
			"-0.022": 0.0,
			"-0.021": 0.0,
			"-0.02": 0.0,
			"-0.019": 0.0,
			"-0.018": 1.21661837238,
			"-0.017": 2.17238263409,
			"-0.016": 2.50197154777,
			"-0.015": 1.79239311614,
			"-0.014": 2.9980164005,
			"-0.013": 3.01519515722,
			"-0.012": 2.18068917791,
			"-0.011": 3.31763726529,
			"-0.01": 3.16475083329,
			"-0.009": 2.85873224461,
			"-0.008": 3.81104051714,
			"-0.007": 5.35731397495,
			"-0.006": 13.628245074,
			"-0.005": 15.3182568166,
			"-0.004": 17.2900604366,
			"-0.003": 12.6084968304,
			"-0.002": 14.6116507885,
			"-0.001": 12.3847692704,
			"0.0": 14.4885963181,
			"0.001": 14.0958125767,
			"0.002": 15.6485460149,
			"0.003": 17.8539668177,
			"0.004": 20.8086585023,
			"0.005": 21.2190864498,
			"0.006": 5.87810792856,
			"0.007": 2.83420335618,
			"0.008": 3.32215852408,
			"0.009": 4.27045009253,
			"0.01": 3.95254477537,
			"0.011": 4.24991605559,
			"0.012": 3.55077316705,
			"0.013": 7.05770973915,
			"0.014": 4.60032671488,
			"0.015": 0.40926248719,
			"0.016": 0.0,
			"0.017": 0.0,
			"0.018": 0.0,
			"0.019": 0.0,
			"0.02": 0.0,
			"0.021": 0.0,
			"0.022": 0.0,
			"0.023": 0.0,
			"0.024": 0.0,
			"0.025": 0.0
		}
	}
}
