{
	 "smiles": "COC(=O)CCCNC1=NC2=C(S1)C=CC=C2", 
	 "Tm": 388.15, 
	 "num_atms": 31, 
	 "gaussian": { 
		 "optdone": 1, 
		 "sigma_profile": "yes", 
		 "theory": "DFT", 
		 "functional": "B3LYP", 
		 "basiset": "6-31G**", 
		 "properties": { 
			 "R2extent": 6881.4455, 
			 "electric_dipole_moment_norm": 1.31309563247, 
			 "electric_quadrupole_moment_norm": 12.5360842032, 
			 "total_energy": -1123.87618012, 
			 "HOMO_LUMO_gap": 0.19437, 
			 "cosmo_polarized_energy": -15.28, 
			 "cosmo_cavitation_energy": 36.87, 
			 "cosmo_dispersion_energy": -26.69, 
			 "cosmo_repulsion_energy": 2.06, 
			 "cosmo_total_nonelectrostatic_energy": 12.24, 
			 "SMD_solvation_energy": 4.87 
		},
		"coords": [
			{
				"x": -3.0924644934,
				"y": -0.3643312443,
				"z": 3.4201406757,
				"element": "C" 
			},
			{
				"x": -2.7054431001,
				"y": -0.0074314105,
				"z": 2.0827354454,
				"element": "O" 
			},
			{
				"x": -3.7171355561,
				"y": 0.3667693978,
				"z": 1.2666195053,
				"element": "C" 
			},
			{
				"x": -4.8771292489,
				"y": 0.4061166988,
				"z": 1.6147404542,
				"element": "O" 
			},
			{
				"x": -3.2029352417,
				"y": 0.7187607807,
				"z": -0.1153463506,
				"element": "C" 
			},
			{
				"x": -2.1587524718,
				"y": 1.8480100416,
				"z": -0.1056867125,
				"element": "C" 
			},
			{
				"x": -1.6703818027,
				"y": 2.2240515932,
				"z": -1.5157082917,
				"element": "C" 
			},
			{
				"x": -0.9862442587,
				"y": 1.1618772399,
				"z": -2.2365788745,
				"element": "N" 
			},
			{
				"x": 0.3064489543,
				"y": 0.7773806429,
				"z": -2.0456009939,
				"element": "C" 
			},
			{
				"x": 0.8134914246,
				"y": -0.3028641725,
				"z": -2.5591610585,
				"element": "N" 
			},
			{
				"x": 2.1594493298,
				"y": -0.4109366503,
				"z": -2.2500336054,
				"element": "C" 
			},
			{
				"x": 2.6987333172,
				"y": 0.6306686216,
				"z": -1.4554671055,
				"element": "C" 
			},
			{
				"x": 1.430169276,
				"y": 1.8018389511,
				"z": -1.0928654024,
				"element": "S" 
			},
			{
				"x": 4.0353103729,
				"y": 0.6448975759,
				"z": -1.0638559378,
				"element": "C" 
			},
			{
				"x": 4.8541994492,
				"y": -0.4065850594,
				"z": -1.4792158274,
				"element": "C" 
			},
			{
				"x": 4.3378230836,
				"y": -1.4450699364,
				"z": -2.2677947441,
				"element": "C" 
			},
			{
				"x": 3.0004393157,
				"y": -1.4562466953,
				"z": -2.6557375383,
				"element": "C" 
			},
			{
				"x": -3.5811227191,
				"y": 0.4772255229,
				"z": 3.9174869796,
				"element": "H" 
			},
			{
				"x": -3.7811927406,
				"y": -1.2127753643,
				"z": 3.4074567339,
				"element": "H" 
			},
			{
				"x": -2.1682777309,
				"y": -0.629210635,
				"z": 3.9334197509,
				"element": "H" 
			},
			{
				"x": -2.7558274701,
				"y": -0.184432574,
				"z": -0.5487424507,
				"element": "H" 
			},
			{
				"x": -4.0743200728,
				"y": 0.9916045729,
				"z": -0.7173843563,
				"element": "H" 
			},
			{
				"x": -2.5905223566,
				"y": 2.7466343253,
				"z": 0.3528376159,
				"element": "H" 
			},
			{
				"x": -1.3059843977,
				"y": 1.5514762888,
				"z": 0.5123459591,
				"element": "H" 
			},
			{
				"x": -0.997929574,
				"y": 3.0874166331,
				"z": -1.4524993398,
				"element": "H" 
			},
			{
				"x": -2.5181082113,
				"y": 2.539946437,
				"z": -2.1337148604,
				"element": "H" 
			},
			{
				"x": -1.5342443997,
				"y": 0.4854669922,
				"z": -2.7494634436,
				"element": "H" 
			},
			{
				"x": 4.4333640813,
				"y": 1.4497939089,
				"z": -0.4538323651,
				"element": "H" 
			},
			{
				"x": 5.8998550078,
				"y": -0.4168265913,
				"z": -1.1870634882,
				"element": "H" 
			},
			{
				"x": 4.9914332627,
				"y": -2.2539455207,
				"z": -2.5812132167,
				"element": "H" 
			},
			{
				"x": 2.5930989712,
				"y": -2.2555803708,
				"z": -3.2661171567,
				"element": "H" 
			}
		],
		 "valence_orbital": [ 
			{
				"type": "occ",
				"energy": -0.28346,
				"method": "rhf"
			},
			{
				"type": "occ",
				"energy": -0.27221,
				"method": "rhf"
			},
			{
				"type": "occ",
				"energy": -0.27112,
				"method": "rhf"
			},
			{
				"type": "occ",
				"energy": -0.22778,
				"method": "rhf"
			},
			{
				"type": "occ",
				"energy": -0.20369,
				"method": "rhf"
			},
			{
				"type": "unocc",
				"energy": -0.00932,
				"method": "rhf"
			},
			{
				"type": "unocc",
				"energy": 0.00275,
				"method": "rhf"
			},
			{
				"type": "unocc",
				"energy": 0.00758,
				"method": "rhf"
			},
			{
				"type": "unocc",
				"energy": 0.00968,
				"method": "rhf"
			},
			{
				"type": "unocc",
				"energy": 0.05119,
				"method": "rhf"
			}
		],
		"cosmo_sigma_profile": { 
			"-0.025": 0.0,
			"-0.024": 0.0,
			"-0.023": 0.0,
			"-0.022": 0.0,
			"-0.021": 0.0,
			"-0.02": 0.0,
			"-0.019": 0.0,
			"-0.018": 0.0,
			"-0.017": 0.0,
			"-0.016": 0.0,
			"-0.015": 0.0,
			"-0.014": 0.687337774229,
			"-0.013": 1.10907989211,
			"-0.012": 1.09430647692,
			"-0.011": 1.29415661378,
			"-0.01": 0.967446743251,
			"-0.009": 1.62072878839,
			"-0.008": 1.44915404557,
			"-0.007": 3.91003067454,
			"-0.006": 16.8411635951,
			"-0.005": 28.0689589535,
			"-0.004": 29.9286574416,
			"-0.003": 29.1089554011,
			"-0.002": 21.5353926158,
			"-0.001": 17.2345035,
			"0.0": 14.6595670369,
			"0.001": 15.744081109,
			"0.002": 16.567791624,
			"0.003": 17.6880011444,
			"0.004": 18.7582207966,
			"0.005": 16.8337067204,
			"0.006": 11.0051642087,
			"0.007": 4.46064213855,
			"0.008": 3.01555201581,
			"0.009": 3.46006323038,
			"0.01": 2.80838955546,
			"0.011": 3.76209554335,
			"0.012": 6.23665229077,
			"0.013": 2.71379128185,
			"0.014": 0.828284013935,
			"0.015": 0.843995285389,
			"0.016": 0.142135143727,
			"0.017": 0.0,
			"0.018": 0.0,
			"0.019": 0.0,
			"0.02": 0.0,
			"0.021": 0.0,
			"0.022": 0.0,
			"0.023": 0.0,
			"0.024": 0.0,
			"0.025": 0.0
		}
	}
}
