{
	 "smiles": "CC1=C(COC2=CC=CC=C2)C=C(O1)C(O)=O", 
	 "Tm": 413.15, 
	 "num_atms": 29, 
	 "gaussian": { 
		 "optdone": 1, 
		 "sigma_profile": "yes", 
		 "theory": "DFT", 
		 "functional": "B3LYP", 
		 "basiset": "6-31G**", 
		 "properties": { 
			 "R2extent": 5843.2671, 
			 "electric_dipole_moment_norm": 4.59254327579, 
			 "electric_quadrupole_moment_norm": 33.4985953191, 
			 "total_energy": -803.495333972, 
			 "HOMO_LUMO_gap": 0.1776, 
			 "cosmo_polarized_energy": -15.25, 
			 "cosmo_cavitation_energy": 33.96, 
			 "cosmo_dispersion_energy": -23.87, 
			 "cosmo_repulsion_energy": 1.89, 
			 "cosmo_total_nonelectrostatic_energy": 11.98, 
			 "SMD_solvation_energy": 7.79 
		},
		"coords": [
			{
				"x": -1.1613971543,
				"y": 2.4071389445,
				"z": 0.9185256548,
				"element": "C" 
			},
			{
				"x": -1.5868506169,
				"y": 1.1423905152,
				"z": 1.5757039232,
				"element": "C" 
			},
			{
				"x": -1.9500368744,
				"y": -0.0983125488,
				"z": 1.1073823009,
				"element": "C" 
			},
			{
				"x": -2.0609958138,
				"y": -0.5422225838,
				"z": -0.32886891,
				"element": "C" 
			},
			{
				"x": -1.0502824624,
				"y": -0.016877679,
				"z": -1.1873697981,
				"element": "O" 
			},
			{
				"x": 0.2077262774,
				"y": -0.5704748358,
				"z": -1.1664042719,
				"element": "C" 
			},
			{
				"x": 0.6290067757,
				"y": -1.565528867,
				"z": -0.2780894772,
				"element": "C" 
			},
			{
				"x": 1.9357814097,
				"y": -2.0561440191,
				"z": -0.3696173226,
				"element": "C" 
			},
			{
				"x": 2.8212747649,
				"y": -1.5651310326,
				"z": -1.3264621517,
				"element": "C" 
			},
			{
				"x": 2.3912583574,
				"y": -0.5657563371,
				"z": -2.2056735964,
				"element": "C" 
			},
			{
				"x": 1.0940982043,
				"y": -0.0692568316,
				"z": -2.1298359583,
				"element": "C" 
			},
			{
				"x": -2.2557529603,
				"y": -0.8906931306,
				"z": 2.258266587,
				"element": "C" 
			},
			{
				"x": -2.0591414957,
				"y": -0.0950851411,
				"z": 3.3488431958,
				"element": "C" 
			},
			{
				"x": -1.6445562402,
				"y": 1.1513483988,
				"z": 2.9413240723,
				"element": "O" 
			},
			{
				"x": -2.2040076344,
				"y": -0.3484550294,
				"z": 4.7892207101,
				"element": "C" 
			},
			{
				"x": -1.9037934701,
				"y": 0.6978638292,
				"z": 5.5987787579,
				"element": "O" 
			},
			{
				"x": -2.5660013566,
				"y": -1.413729924,
				"z": 5.2339687903,
				"element": "O" 
			},
			{
				"x": -1.1355983484,
				"y": 2.2662823704,
				"z": -0.1621198902,
				"element": "H" 
			},
			{
				"x": -1.8493684281,
				"y": 3.2262626826,
				"z": 1.1573780952,
				"element": "H" 
			},
			{
				"x": -0.1613420118,
				"y": 2.706532112,
				"z": 1.2519041129,
				"element": "H" 
			},
			{
				"x": -2.9968020928,
				"y": -0.1836774359,
				"z": -0.7700595445,
				"element": "H" 
			},
			{
				"x": -2.0772148299,
				"y": -1.6384085698,
				"z": -0.378997479,
				"element": "H" 
			},
			{
				"x": -0.0320276829,
				"y": -1.9487869717,
				"z": 0.4893849743,
				"element": "H" 
			},
			{
				"x": 2.2569147249,
				"y": -2.8277883463,
				"z": 0.3243447178,
				"element": "H" 
			},
			{
				"x": 3.8336224552,
				"y": -1.9520140941,
				"z": -1.3874293841,
				"element": "H" 
			},
			{
				"x": 3.06912037,
				"y": -0.1725900448,
				"z": -2.9580445009,
				"element": "H" 
			},
			{
				"x": 0.7412714109,
				"y": 0.6999326575,
				"z": -2.8093610822,
				"element": "H" 
			},
			{
				"x": -2.5807218326,
				"y": -1.921017161,
				"z": 2.2865500311,
				"element": "H" 
			},
			{
				"x": -1.6323834448,
				"y": 1.4581990731,
				"z": 5.0608574434,
				"element": "H" 
			}
		],
		 "valence_orbital": [ 
			{
				"type": "occ",
				"energy": -0.29528,
				"method": "rhf"
			},
			{
				"type": "occ",
				"energy": -0.27545,
				"method": "rhf"
			},
			{
				"type": "occ",
				"energy": -0.25515,
				"method": "rhf"
			},
			{
				"type": "occ",
				"energy": -0.24155,
				"method": "rhf"
			},
			{
				"type": "occ",
				"energy": -0.22675,
				"method": "rhf"
			},
			{
				"type": "unocc",
				"energy": -0.04915,
				"method": "rhf"
			},
			{
				"type": "unocc",
				"energy": -0.00623,
				"method": "rhf"
			},
			{
				"type": "unocc",
				"energy": 0.00749,
				"method": "rhf"
			},
			{
				"type": "unocc",
				"energy": 0.02169,
				"method": "rhf"
			},
			{
				"type": "unocc",
				"energy": 0.08072,
				"method": "rhf"
			}
		],
		"cosmo_sigma_profile": { 
			"-0.025": 0.0,
			"-0.024": 0.0,
			"-0.023": 0.0,
			"-0.022": 0.0,
			"-0.021": 0.0,
			"-0.02": 0.0,
			"-0.019": 0.0,
			"-0.018": 0.0,
			"-0.017": 0.241294700998,
			"-0.016": 0.361290378894,
			"-0.015": 0.680381895006,
			"-0.014": 0.977278449106,
			"-0.013": 0.338561993996,
			"-0.012": 0.503267273432,
			"-0.011": 0.902508111501,
			"-0.01": 1.14866435021,
			"-0.009": 1.51334474668,
			"-0.008": 3.45033577127,
			"-0.007": 7.59178319863,
			"-0.006": 14.2956728679,
			"-0.005": 20.6482835472,
			"-0.004": 22.9198706453,
			"-0.003": 22.6205396002,
			"-0.002": 19.8253055282,
			"-0.001": 19.4805529646,
			"0.0": 18.2814538862,
			"0.001": 20.4274999286,
			"0.002": 17.7398213853,
			"0.003": 11.9767165389,
			"0.004": 11.7854190564,
			"0.005": 12.6826214932,
			"0.006": 11.1731892478,
			"0.007": 4.1200169025,
			"0.008": 3.24187258907,
			"0.009": 4.87350551808,
			"0.01": 4.87587448744,
			"0.011": 4.3412830513,
			"0.012": 6.09937152579,
			"0.013": 2.11641131298,
			"0.014": 0.160705098368,
			"0.015": 0.0,
			"0.016": 0.0,
			"0.017": 0.0,
			"0.018": 0.0,
			"0.019": 0.0,
			"0.02": 0.0,
			"0.021": 0.0,
			"0.022": 0.0,
			"0.023": 0.0,
			"0.024": 0.0,
			"0.025": 0.0
		}
	}
}
