{
	 "smiles": "COC(=O)CCC1=C(C)N(N=C1C)C1=CC=C(C=C1)C(O)=O", 
	 "Tm": 443.15, 
	 "num_atms": 40, 
	 "gaussian": { 
		 "optdone": 1, 
		 "sigma_profile": "yes", 
		 "theory": "DFT", 
		 "functional": "B3LYP", 
		 "basiset": "6-31G**", 
		 "properties": { 
			 "R2extent": 10315.7698, 
			 "electric_dipole_moment_norm": 4.87607703487, 
			 "electric_quadrupole_moment_norm": 8.42606148743, 
			 "total_energy": -1030.98048023, 
			 "HOMO_LUMO_gap": 0.16928, 
			 "cosmo_polarized_energy": -18.19, 
			 "cosmo_cavitation_energy": 44.04, 
			 "cosmo_dispersion_energy": -30.59, 
			 "cosmo_repulsion_energy": 2.36, 
			 "cosmo_total_nonelectrostatic_energy": 15.8, 
			 "SMD_solvation_energy": 9.11 
		},
		"coords": [
			{
				"x": -1.9689267729,
				"y": -4.9026532717,
				"z": -2.1890668498,
				"element": "C" 
			},
			{
				"x": -2.4235657778,
				"y": -3.5445476063,
				"z": -2.3216964198,
				"element": "O" 
			},
			{
				"x": -2.9040107967,
				"y": -2.9829664362,
				"z": -1.1923738881,
				"element": "C" 
			},
			{
				"x": -2.9501063625,
				"y": -3.5627385735,
				"z": -0.1270633811,
				"element": "O" 
			},
			{
				"x": -3.4113000556,
				"y": -1.5767891694,
				"z": -1.4486647432,
				"element": "C" 
			},
			{
				"x": -3.2882883072,
				"y": -0.6595489856,
				"z": -0.2164967199,
				"element": "C" 
			},
			{
				"x": -1.8731757448,
				"y": -0.304890567,
				"z": 0.1520826383,
				"element": "C" 
			},
			{
				"x": -1.0292460421,
				"y": 0.5671779369,
				"z": -0.5161950101,
				"element": "C" 
			},
			{
				"x": -1.3230441219,
				"y": 1.4301096172,
				"z": -1.7041973916,
				"element": "C" 
			},
			{
				"x": 0.1566947912,
				"y": 0.5726117586,
				"z": 0.1893290919,
				"element": "N" 
			},
			{
				"x": 0.0954850097,
				"y": -0.2385726544,
				"z": 1.2883774105,
				"element": "N" 
			},
			{
				"x": -1.1178000079,
				"y": -0.7738268497,
				"z": 1.2678441956,
				"element": "C" 
			},
			{
				"x": -1.5421162995,
				"y": -1.7279291865,
				"z": 2.3419457482,
				"element": "C" 
			},
			{
				"x": 1.3427784719,
				"y": 1.3100345663,
				"z": -0.0301035997,
				"element": "C" 
			},
			{
				"x": 2.0914882953,
				"y": 1.7317373058,
				"z": 1.0809224941,
				"element": "C" 
			},
			{
				"x": 3.2618834707,
				"y": 2.4513921097,
				"z": 0.8913409424,
				"element": "C" 
			},
			{
				"x": 3.706256786,
				"y": 2.7681727792,
				"z": -0.4013911732,
				"element": "C" 
			},
			{
				"x": 2.9643309146,
				"y": 2.332742781,
				"z": -1.5065281276,
				"element": "C" 
			},
			{
				"x": 1.7952370327,
				"y": 1.5996122503,
				"z": -1.3255171642,
				"element": "C" 
			},
			{
				"x": 4.9590427168,
				"y": 3.5491689134,
				"z": -0.5418407354,
				"element": "C" 
			},
			{
				"x": 5.2918010245,
				"y": 3.7960859505,
				"z": -1.8360096903,
				"element": "O" 
			},
			{
				"x": 5.6421052217,
				"y": 3.9446812819,
				"z": 0.3830915886,
				"element": "O" 
			},
			{
				"x": -1.1554476233,
				"y": -4.9652303668,
				"z": -1.4622714631,
				"element": "H" 
			},
			{
				"x": -1.6211298817,
				"y": -5.1945523511,
				"z": -3.1798270066,
				"element": "H" 
			},
			{
				"x": -2.784737488,
				"y": -5.5518717148,
				"z": -1.8614135258,
				"element": "H" 
			},
			{
				"x": -4.4681405526,
				"y": -1.6733261481,
				"z": -1.7334913727,
				"element": "H" 
			},
			{
				"x": -2.8907141636,
				"y": -1.1626631473,
				"z": -2.3161391328,
				"element": "H" 
			},
			{
				"x": -3.8667680718,
				"y": 0.2514691125,
				"z": -0.4164388789,
				"element": "H" 
			},
			{
				"x": -3.7709572118,
				"y": -1.1552515556,
				"z": 0.6304507759,
				"element": "H" 
			},
			{
				"x": -0.9870901858,
				"y": 0.9855733287,
				"z": -2.6491024848,
				"element": "H" 
			},
			{
				"x": -0.8541999595,
				"y": 2.4143440291,
				"z": -1.6182303257,
				"element": "H" 
			},
			{
				"x": -2.4035129257,
				"y": 1.57900986,
				"z": -1.7842422641,
				"element": "H" 
			},
			{
				"x": -0.6980506366,
				"y": -1.9352820911,
				"z": 3.0032269706,
				"element": "H" 
			},
			{
				"x": -1.9069516361,
				"y": -2.6652373597,
				"z": 1.9129705365,
				"element": "H" 
			},
			{
				"x": -2.354100462,
				"y": -1.3066601403,
				"z": 2.9472659501,
				"element": "H" 
			},
			{
				"x": 1.7393209027,
				"y": 1.4778206388,
				"z": 2.0727465856,
				"element": "H" 
			},
			{
				"x": 3.8486876208,
				"y": 2.7889721934,
				"z": 1.7388350319,
				"element": "H" 
			},
			{
				"x": 3.3139080736,
				"y": 2.5534673427,
				"z": -2.5085264185,
				"element": "H" 
			},
			{
				"x": 1.2571398208,
				"y": 1.2286305209,
				"z": -2.1885514459,
				"element": "H" 
			},
			{
				"x": 6.1184209351,
				"y": 4.3044238981,
				"z": -1.7996507473,
				"element": "H" 
			}
		],
		 "valence_orbital": [ 
			{
				"type": "occ",
				"energy": -0.27592,
				"method": "rhf"
			},
			{
				"type": "occ",
				"energy": -0.27457,
				"method": "rhf"
			},
			{
				"type": "occ",
				"energy": -0.26292,
				"method": "rhf"
			},
			{
				"type": "occ",
				"energy": -0.23438,
				"method": "rhf"
			},
			{
				"type": "occ",
				"energy": -0.22121,
				"method": "rhf"
			},
			{
				"type": "unocc",
				"energy": -0.05193,
				"method": "rhf"
			},
			{
				"type": "unocc",
				"energy": -0.01218,
				"method": "rhf"
			},
			{
				"type": "unocc",
				"energy": 0.00634,
				"method": "rhf"
			},
			{
				"type": "unocc",
				"energy": 0.01737,
				"method": "rhf"
			},
			{
				"type": "unocc",
				"energy": 0.0612,
				"method": "rhf"
			}
		],
		"cosmo_sigma_profile": { 
			"-0.025": 0.0,
			"-0.024": 0.0,
			"-0.023": 0.0,
			"-0.022": 0.0,
			"-0.021": 0.0,
			"-0.02": 0.0,
			"-0.019": 0.0801303913629,
			"-0.018": 0.693664402957,
			"-0.017": 1.13105200632,
			"-0.016": 0.860498830857,
			"-0.015": 0.4677595816,
			"-0.014": 0.407447655313,
			"-0.013": 0.522761954849,
			"-0.012": 0.813606493757,
			"-0.011": 0.909548780614,
			"-0.01": 0.754102057243,
			"-0.009": 0.513019179756,
			"-0.008": 1.50323611089,
			"-0.007": 5.88948386352,
			"-0.006": 16.222588311,
			"-0.005": 23.4610089443,
			"-0.004": 32.3201775903,
			"-0.003": 34.0378891243,
			"-0.002": 30.5801082459,
			"-0.001": 26.6549299813,
			"0.0": 28.2902822357,
			"0.001": 24.2440861639,
			"0.002": 24.2830858834,
			"0.003": 22.7169644029,
			"0.004": 13.1276325285,
			"0.005": 9.46337991429,
			"0.006": 8.28157986308,
			"0.007": 7.74605771134,
			"0.008": 6.80904666314,
			"0.009": 5.2082219139,
			"0.01": 4.80979013321,
			"0.011": 7.04933315186,
			"0.012": 7.26270750371,
			"0.013": 1.04072486673,
			"0.014": 0.579510475429,
			"0.015": 0.320709552605,
			"0.016": 0.0,
			"0.017": 0.0,
			"0.018": 0.0,
			"0.019": 0.0,
			"0.02": 0.0,
			"0.021": 0.0,
			"0.022": 0.0,
			"0.023": 0.0,
			"0.024": 0.0,
			"0.025": 0.0
		}
	}
}
