{
	 "smiles": "COC(=O)C(C#N)C1=C(Cl)N=C2C=CC=CC2=N1", 
	 "Tm": 471.15, 
	 "num_atms": 26, 
	 "gaussian": { 
		 "optdone": 1, 
		 "sigma_profile": "yes", 
		 "theory": "DFT", 
		 "functional": "B3LYP", 
		 "basiset": "6-31G**", 
		 "properties": { 
			 "R2extent": 5950.6342, 
			 "electric_dipole_moment_norm": 6.56753809125, 
			 "electric_quadrupole_moment_norm": 19.7136506708, 
			 "total_energy": -1236.96941274, 
			 "HOMO_LUMO_gap": 0.16966, 
			 "cosmo_polarized_energy": -15.92, 
			 "cosmo_cavitation_energy": 34.68, 
			 "cosmo_dispersion_energy": -23.71, 
			 "cosmo_repulsion_energy": 1.86, 
			 "cosmo_total_nonelectrostatic_energy": 12.83, 
			 "SMD_solvation_energy": 5.85 
		},
		"coords": [
			{
				"x": 2.1646144228,
				"y": -2.3044942271,
				"z": -2.7364394576,
				"element": "C" 
			},
			{
				"x": 1.6872561115,
				"y": -2.5475427482,
				"z": -1.3990332251,
				"element": "O" 
			},
			{
				"x": 0.3656171554,
				"y": -2.768404071,
				"z": -1.2958297549,
				"element": "C" 
			},
			{
				"x": -0.4064011386,
				"y": -2.8290704127,
				"z": -2.2183353103,
				"element": "O" 
			},
			{
				"x": 0.0085239143,
				"y": -2.9697201365,
				"z": 0.1888992518,
				"element": "C" 
			},
			{
				"x": -1.3714501651,
				"y": -3.4474888673,
				"z": 0.3421523222,
				"element": "C" 
			},
			{
				"x": -2.4573939878,
				"y": -3.8186329361,
				"z": 0.5078534618,
				"element": "N" 
			},
			{
				"x": 0.2171901077,
				"y": -1.6771434548,
				"z": 0.9812787472,
				"element": "C" 
			},
			{
				"x": 0.575246736,
				"y": -1.6708751237,
				"z": 2.3711993877,
				"element": "C" 
			},
			{
				"x": 0.8094274887,
				"y": -3.1976108539,
				"z": 3.2147434346,
				"element": "Cl" 
			},
			{
				"x": 0.7428829414,
				"y": -0.5816800739,
				"z": 3.0571463896,
				"element": "N" 
			},
			{
				"x": 0.5552731522,
				"y": 0.6046108984,
				"z": 2.4099297021,
				"element": "C" 
			},
			{
				"x": 0.7190498845,
				"y": 1.8259804355,
				"z": 3.1071327772,
				"element": "C" 
			},
			{
				"x": 0.5247483142,
				"y": 3.0173615851,
				"z": 2.4421017588,
				"element": "C" 
			},
			{
				"x": 0.1637881484,
				"y": 3.0351027478,
				"z": 1.0704183103,
				"element": "C" 
			},
			{
				"x": 0.0001027067,
				"y": 1.8601288833,
				"z": 0.369695377,
				"element": "C" 
			},
			{
				"x": 0.1935507687,
				"y": 0.6211265301,
				"z": 1.0285190573,
				"element": "C" 
			},
			{
				"x": 0.0346178481,
				"y": -0.5457859652,
				"z": 0.3441560581,
				"element": "N" 
			},
			{
				"x": 3.239552207,
				"y": -2.1563954358,
				"z": -2.6401293238,
				"element": "H" 
			},
			{
				"x": 1.6873527778,
				"y": -1.4141252731,
				"z": -3.1519606072,
				"element": "H" 
			},
			{
				"x": 1.9478823915,
				"y": -3.1602033123,
				"z": -3.3797926399,
				"element": "H" 
			},
			{
				"x": 0.6784915362,
				"y": -3.73941703,
				"z": 0.5873066487,
				"element": "H" 
			},
			{
				"x": 0.9935970039,
				"y": 1.787075632,
				"z": 4.1558282755,
				"element": "H" 
			},
			{
				"x": 0.647104006,
				"y": 3.9574676233,
				"z": 2.9713782255,
				"element": "H" 
			},
			{
				"x": 0.0147112081,
				"y": 3.9880602747,
				"z": 0.5720699374,
				"element": "H" 
			},
			{
				"x": -0.2784355398,
				"y": 1.8462753112,
				"z": -0.678688804,
				"element": "H" 
			}
		],
		 "valence_orbital": [ 
			{
				"type": "occ",
				"energy": -0.31974,
				"method": "rhf"
			},
			{
				"type": "occ",
				"energy": -0.29592,
				"method": "rhf"
			},
			{
				"type": "occ",
				"energy": -0.27823,
				"method": "rhf"
			},
			{
				"type": "occ",
				"energy": -0.27449,
				"method": "rhf"
			},
			{
				"type": "occ",
				"energy": -0.26498,
				"method": "rhf"
			},
			{
				"type": "unocc",
				"energy": -0.09532,
				"method": "rhf"
			},
			{
				"type": "unocc",
				"energy": -0.05127,
				"method": "rhf"
			},
			{
				"type": "unocc",
				"energy": -0.01333,
				"method": "rhf"
			},
			{
				"type": "unocc",
				"energy": -0.0109,
				"method": "rhf"
			},
			{
				"type": "unocc",
				"energy": 0.01622,
				"method": "rhf"
			}
		],
		"cosmo_sigma_profile": { 
			"-0.025": 0.0,
			"-0.024": 0.0,
			"-0.023": 0.0,
			"-0.022": 0.0,
			"-0.021": 0.0,
			"-0.02": 0.0,
			"-0.019": 0.0,
			"-0.018": 0.0,
			"-0.017": 0.0,
			"-0.016": 0.0,
			"-0.015": 0.0,
			"-0.014": 0.0,
			"-0.013": 0.0443649643373,
			"-0.012": 1.00148322913,
			"-0.011": 1.2942004529,
			"-0.01": 1.63249355781,
			"-0.009": 1.55283140853,
			"-0.008": 3.71014233427,
			"-0.007": 13.6952502512,
			"-0.006": 18.8853311681,
			"-0.005": 20.7104510786,
			"-0.004": 21.5809211352,
			"-0.003": 16.5411500814,
			"-0.002": 17.5775429672,
			"-0.001": 17.0812027455,
			"0.0": 22.3951563328,
			"0.001": 22.6810188939,
			"0.002": 21.5589777715,
			"0.003": 15.0797195403,
			"0.004": 10.8976033709,
			"0.005": 7.99959921635,
			"0.006": 8.82860989339,
			"0.007": 7.9061273871,
			"0.008": 7.76588368571,
			"0.009": 6.33171904092,
			"0.01": 8.40748272503,
			"0.011": 5.03332197405,
			"0.012": 2.08785218561,
			"0.013": 0.096916055238,
			"0.014": 0.0,
			"0.015": 0.0,
			"0.016": 0.0,
			"0.017": 0.0,
			"0.018": 0.0,
			"0.019": 0.0,
			"0.02": 0.0,
			"0.021": 0.0,
			"0.022": 0.0,
			"0.023": 0.0,
			"0.024": 0.0,
			"0.025": 0.0
		}
	}
}
