{
	 "smiles": "FC1=CC=C(NC(=O)CS)C=C1", 
	 "Tm": 366.15, 
	 "num_atms": 20, 
	 "gaussian": { 
		 "optdone": 1, 
		 "sigma_profile": "yes", 
		 "theory": "DFT", 
		 "functional": "B3LYP", 
		 "basiset": "6-31G**", 
		 "properties": { 
			 "R2extent": 4358.1534, 
			 "electric_dipole_moment_norm": 2.61482761382, 
			 "electric_quadrupole_moment_norm": 8.1078231425, 
			 "total_energy": -937.684784077, 
			 "HOMO_LUMO_gap": 0.20384, 
			 "cosmo_polarized_energy": -11.66, 
			 "cosmo_cavitation_energy": 26.5, 
			 "cosmo_dispersion_energy": -19.89, 
			 "cosmo_repulsion_energy": 1.52, 
			 "cosmo_total_nonelectrostatic_energy": 8.12, 
			 "SMD_solvation_energy": 5.16 
		},
		"coords": [
			{
				"x": 4.5324151472,
				"y": -2.3990593345,
				"z": 0.962960472,
				"element": "F" 
			},
			{
				"x": 3.229791207,
				"y": -2.0483303532,
				"z": 1.0310228672,
				"element": "C" 
			},
			{
				"x": 2.8927998908,
				"y": -0.7306522053,
				"z": 1.3132222536,
				"element": "C" 
			},
			{
				"x": 1.5503685135,
				"y": -0.3598938661,
				"z": 1.3852548351,
				"element": "C" 
			},
			{
				"x": 0.5506617811,
				"y": -1.3223860275,
				"z": 1.1722241654,
				"element": "C" 
			},
			{
				"x": -0.8296407211,
				"y": -1.0280445994,
				"z": 1.2273300525,
				"element": "N" 
			},
			{
				"x": -1.436501741,
				"y": 0.1654635024,
				"z": 1.4906865904,
				"element": "C" 
			},
			{
				"x": -0.864783926,
				"y": 1.2200854356,
				"z": 1.7350795441,
				"element": "O" 
			},
			{
				"x": -2.9725166941,
				"y": 0.1635261509,
				"z": 1.4166383435,
				"element": "C" 
			},
			{
				"x": -3.8692748276,
				"y": -1.436328099,
				"z": 1.5706569516,
				"element": "S" 
			},
			{
				"x": 0.9160824262,
				"y": -2.6476675971,
				"z": 0.8885583513,
				"element": "C" 
			},
			{
				"x": 2.2563022765,
				"y": -3.0169389178,
				"z": 0.8162756627,
				"element": "C" 
			},
			{
				"x": 3.6793912528,
				"y": -0.0014532334,
				"z": 1.4748782143,
				"element": "H" 
			},
			{
				"x": 1.2670375341,
				"y": 0.6599497646,
				"z": 1.6035230792,
				"element": "H" 
			},
			{
				"x": -1.4610566731,
				"y": -1.8047310337,
				"z": 1.0652698834,
				"element": "H" 
			},
			{
				"x": -3.2604075211,
				"y": 0.5548055855,
				"z": 0.4356777661,
				"element": "H" 
			},
			{
				"x": -3.3319179926,
				"y": 0.875008444,
				"z": 2.1608237202,
				"element": "H" 
			},
			{
				"x": -3.6578690148,
				"y": -1.6168483562,
				"z": 2.8901798523,
				"element": "H" 
			},
			{
				"x": 0.1460419218,
				"y": -3.3967834778,
				"z": 0.7214394524,
				"element": "H" 
			},
			{
				"x": 2.5494771605,
				"y": -4.037721782,
				"z": 0.5971979427,
				"element": "H" 
			}
		],
		 "valence_orbital": [ 
			{
				"type": "occ",
				"energy": -0.3065,
				"method": "rhf"
			},
			{
				"type": "occ",
				"energy": -0.2835,
				"method": "rhf"
			},
			{
				"type": "occ",
				"energy": -0.26316,
				"method": "rhf"
			},
			{
				"type": "occ",
				"energy": -0.25235,
				"method": "rhf"
			},
			{
				"type": "occ",
				"energy": -0.22167,
				"method": "rhf"
			},
			{
				"type": "unocc",
				"energy": -0.01783,
				"method": "rhf"
			},
			{
				"type": "unocc",
				"energy": -0.01352,
				"method": "rhf"
			},
			{
				"type": "unocc",
				"energy": 0.00714,
				"method": "rhf"
			},
			{
				"type": "unocc",
				"energy": 0.03215,
				"method": "rhf"
			},
			{
				"type": "unocc",
				"energy": 0.05625,
				"method": "rhf"
			}
		],
		"cosmo_sigma_profile": { 
			"-0.025": 0.0,
			"-0.024": 0.0,
			"-0.023": 0.0,
			"-0.022": 0.0,
			"-0.021": 0.0,
			"-0.02": 0.0,
			"-0.019": 0.0,
			"-0.018": 0.0,
			"-0.017": 0.0,
			"-0.016": 0.0,
			"-0.015": 0.0,
			"-0.014": 0.0,
			"-0.013": 0.161832409329,
			"-0.012": 0.621010111117,
			"-0.011": 1.28994331451,
			"-0.01": 3.8774488456,
			"-0.009": 4.3352586323,
			"-0.008": 6.82690008295,
			"-0.007": 12.6083138782,
			"-0.006": 11.7330829526,
			"-0.005": 11.5116717933,
			"-0.004": 11.3393752984,
			"-0.003": 8.49767839303,
			"-0.002": 10.0107069016,
			"-0.001": 10.0240269622,
			"0.0": 11.0270228148,
			"0.001": 16.1498271201,
			"0.002": 18.1332740169,
			"0.003": 19.4846798694,
			"0.004": 23.156652512,
			"0.005": 11.4955410772,
			"0.006": 4.18159681358,
			"0.007": 3.18039941821,
			"0.008": 1.92085558619,
			"0.009": 2.74342948555,
			"0.01": 1.77912368797,
			"0.011": 1.75460580814,
			"0.012": 3.12280352903,
			"0.013": 2.67726338621,
			"0.014": 0.823734294612,
			"0.015": 0.0,
			"0.016": 0.0,
			"0.017": 0.0,
			"0.018": 0.0,
			"0.019": 0.0,
			"0.02": 0.0,
			"0.021": 0.0,
			"0.022": 0.0,
			"0.023": 0.0,
			"0.024": 0.0,
			"0.025": 0.0
		}
	}
}
