{
	 "smiles": "OC#N", 
	 "Tm": 187.15, 
	 "num_atms": 4, 
	 "gaussian": { 
		 "optdone": 1, 
		 "sigma_profile": "yes", 
		 "theory": "DFT", 
		 "functional": "B3LYP", 
		 "basiset": "6-31G**", 
		 "properties": { 
			 "R2extent": 464.439, 
			 "electric_dipole_moment_norm": 3.89301318133, 
			 "electric_quadrupole_moment_norm": 9.83758383192, 
			 "total_energy": -168.633139096, 
			 "HOMO_LUMO_gap": 0.31581, 
			 "cosmo_polarized_energy": -12.88, 
			 "cosmo_cavitation_energy": 8.92, 
			 "cosmo_dispersion_energy": -6.02, 
			 "cosmo_repulsion_energy": 0.61, 
			 "cosmo_total_nonelectrostatic_energy": 3.51, 
			 "SMD_solvation_energy": 5.2 
		},
		"coords": [
			{
				"x": -0.3864182568,
				"y": -2.4903788494,
				"z": -0.9272909363,
				"element": "O" 
			},
			{
				"x": 0.5420571926,
				"y": -1.9384865736,
				"z": -0.1979821507,
				"element": "C" 
			},
			{
				"x": 1.4038236314,
				"y": -1.4355675789,
				"z": 0.4028177008,
				"element": "N" 
			},
			{
				"x": -1.1201625672,
				"y": -2.7868669981,
				"z": -0.3653446138,
				"element": "H" 
			}
		],
		 "valence_orbital": [ 
			{
				"type": "occ",
				"energy": -0.50546,
				"method": "rhf"
			},
			{
				"type": "occ",
				"energy": -0.46293,
				"method": "rhf"
			},
			{
				"type": "occ",
				"energy": -0.36906,
				"method": "rhf"
			},
			{
				"type": "occ",
				"energy": -0.33091,
				"method": "rhf"
			},
			{
				"type": "occ",
				"energy": -0.3078,
				"method": "rhf"
			},
			{
				"type": "unocc",
				"energy": 0.00801,
				"method": "rhf"
			},
			{
				"type": "unocc",
				"energy": 0.05144,
				"method": "rhf"
			},
			{
				"type": "unocc",
				"energy": 0.07267,
				"method": "rhf"
			},
			{
				"type": "unocc",
				"energy": 0.14854,
				"method": "rhf"
			},
			{
				"type": "unocc",
				"energy": 0.43283,
				"method": "rhf"
			}
		],
		"cosmo_sigma_profile": { 
			"-0.025": 0.0,
			"-0.024": 0.0,
			"-0.023": 0.924890804247,
			"-0.022": 1.92605591938,
			"-0.021": 0.533812737263,
			"-0.02": 1.45788649853,
			"-0.019": 1.09571585893,
			"-0.018": 1.08244682303,
			"-0.017": 0.669499342211,
			"-0.016": 0.813911061613,
			"-0.015": 0.77161427307,
			"-0.014": 0.551940971325,
			"-0.013": 0.163727863098,
			"-0.012": 0.62091849553,
			"-0.011": 1.57023910322,
			"-0.01": 1.27136657084,
			"-0.009": 0.488683282617,
			"-0.008": 0.490498300614,
			"-0.007": 0.7159174366,
			"-0.006": 0.987947195267,
			"-0.005": 1.32631401824,
			"-0.004": 1.03429516472,
			"-0.003": 1.80613834811,
			"-0.002": 4.67119760004,
			"-0.001": 4.69895105881,
			"0.0": 2.77029808497,
			"0.001": 2.96072640213,
			"0.002": 2.89781070156,
			"0.003": 4.22520047232,
			"0.004": 2.67150047112,
			"0.005": 4.00921915194,
			"0.006": 2.7658058242,
			"0.007": 2.34834233986,
			"0.008": 2.77541251129,
			"0.009": 3.06428200024,
			"0.01": 3.53274636467,
			"0.011": 3.21462829974,
			"0.012": 3.00161856997,
			"0.013": 2.34882057634,
			"0.014": 0.24101116536,
			"0.015": 0.0,
			"0.016": 0.0,
			"0.017": 0.0,
			"0.018": 0.0,
			"0.019": 0.0,
			"0.02": 0.0,
			"0.021": 0.0,
			"0.022": 0.0,
			"0.023": 0.0,
			"0.024": 0.0,
			"0.025": 0.0
		}
	}
}
