{
	 "smiles": "CN1N=CC=C1CO", 
	 "Tm": 332.15, 
	 "num_atms": 16, 
	 "gaussian": { 
		 "optdone": 1, 
		 "sigma_profile": "yes", 
		 "theory": "DFT", 
		 "functional": "B3LYP", 
		 "basiset": "6-31G**", 
		 "properties": { 
			 "R2extent": 1014.1298, 
			 "electric_dipole_moment_norm": 1.92734334253, 
			 "electric_quadrupole_moment_norm": 9.84525398606, 
			 "total_energy": -380.042226223, 
			 "HOMO_LUMO_gap": 0.2531, 
			 "cosmo_polarized_energy": -11.21, 
			 "cosmo_cavitation_energy": 19.52, 
			 "cosmo_dispersion_energy": -14.49, 
			 "cosmo_repulsion_energy": 1.21, 
			 "cosmo_total_nonelectrostatic_energy": 6.23, 
			 "SMD_solvation_energy": 2.84 
		},
		"coords": [
			{
				"x": -2.0998024243,
				"y": -0.8358480999,
				"z": -0.4226619097,
				"element": "C" 
			},
			{
				"x": -1.2346744875,
				"y": 0.2436518677,
				"z": 0.014695757,
				"element": "N" 
			},
			{
				"x": -1.7758654264,
				"y": 1.2986160085,
				"z": 0.6729040524,
				"element": "N" 
			},
			{
				"x": -0.7391680801,
				"y": 2.0837808537,
				"z": 0.9603447987,
				"element": "C" 
			},
			{
				"x": 0.4778993161,
				"y": 1.5398947353,
				"z": 0.4994235952,
				"element": "C" 
			},
			{
				"x": 0.1216801239,
				"y": 0.3461618436,
				"z": -0.1075155359,
				"element": "C" 
			},
			{
				"x": 0.9837050464,
				"y": -0.6805966374,
				"z": -0.7871794203,
				"element": "C" 
			},
			{
				"x": 2.2248255605,
				"y": -0.1406856913,
				"z": -1.2062357512,
				"element": "O" 
			},
			{
				"x": -1.9610424629,
				"y": -1.0417595248,
				"z": -1.4887540954,
				"element": "H" 
			},
			{
				"x": -1.9126933143,
				"y": -1.7545283482,
				"z": 0.1439357491,
				"element": "H" 
			},
			{
				"x": -3.1251356709,
				"y": -0.5111782696,
				"z": -0.249717912,
				"element": "H" 
			},
			{
				"x": -0.9054382988,
				"y": 3.0137360585,
				"z": 1.4878718541,
				"element": "H" 
			},
			{
				"x": 1.4763901645,
				"y": 1.9391130017,
				"z": 0.5932354605,
				"element": "H" 
			},
			{
				"x": 0.4348514615,
				"y": -1.1401085606,
				"z": -1.6267176237,
				"element": "H" 
			},
			{
				"x": 1.2370192838,
				"y": -1.4961772755,
				"z": -0.0982637447,
				"element": "H" 
			},
			{
				"x": 2.0317492085,
				"y": 0.6352280381,
				"z": -1.7496652742,
				"element": "H" 
			}
		],
		 "valence_orbital": [ 
			{
				"type": "occ",
				"energy": -0.34946,
				"method": "rhf"
			},
			{
				"type": "occ",
				"energy": -0.29179,
				"method": "rhf"
			},
			{
				"type": "occ",
				"energy": -0.27605,
				"method": "rhf"
			},
			{
				"type": "occ",
				"energy": -0.24413,
				"method": "rhf"
			},
			{
				"type": "occ",
				"energy": -0.23507,
				"method": "rhf"
			},
			{
				"type": "unocc",
				"energy": 0.01803,
				"method": "rhf"
			},
			{
				"type": "unocc",
				"energy": 0.07168,
				"method": "rhf"
			},
			{
				"type": "unocc",
				"energy": 0.07863,
				"method": "rhf"
			},
			{
				"type": "unocc",
				"energy": 0.08939,
				"method": "rhf"
			},
			{
				"type": "unocc",
				"energy": 0.1223,
				"method": "rhf"
			}
		],
		"cosmo_sigma_profile": { 
			"-0.025": 0.0,
			"-0.024": 0.0,
			"-0.023": 0.0,
			"-0.022": 0.0,
			"-0.021": 0.0,
			"-0.02": 0.0,
			"-0.019": 0.0,
			"-0.018": 0.0,
			"-0.017": 0.0,
			"-0.016": 0.124456585963,
			"-0.015": 0.959666297292,
			"-0.014": 0.870344801803,
			"-0.013": 0.801246043151,
			"-0.012": 0.723445903431,
			"-0.011": 1.01008638564,
			"-0.01": 1.09343029542,
			"-0.009": 0.179280618401,
			"-0.008": 0.746623847264,
			"-0.007": 4.56405478958,
			"-0.006": 15.4255404359,
			"-0.005": 15.6374394306,
			"-0.004": 13.7849814644,
			"-0.003": 14.7735881584,
			"-0.002": 8.86723013149,
			"-0.001": 6.08661697852,
			"0.0": 5.21220110181,
			"0.001": 6.64171670628,
			"0.002": 5.98894907619,
			"0.003": 5.83748776626,
			"0.004": 6.03631929741,
			"0.005": 6.70534253959,
			"0.006": 8.01429779552,
			"0.007": 3.64264199186,
			"0.008": 2.4857542015,
			"0.009": 2.94272342461,
			"0.01": 2.06201448165,
			"0.011": 2.87946634039,
			"0.012": 2.55166507725,
			"0.013": 3.06812009019,
			"0.014": 2.60976390863,
			"0.015": 1.09638992411,
			"0.016": 0.631426335081,
			"0.017": 0.107457794445,
			"0.018": 0.0,
			"0.019": 0.0,
			"0.02": 0.0,
			"0.021": 0.0,
			"0.022": 0.0,
			"0.023": 0.0,
			"0.024": 0.0,
			"0.025": 0.0
		}
	}
}
