{
	 "smiles": "CN(C)CC1=C2C=CC=CC2=CC=C1O", 
	 "Tm": 347.15, 
	 "num_atms": 30, 
	 "gaussian": { 
		 "optdone": 1, 
		 "sigma_profile": "yes", 
		 "theory": "DFT", 
		 "functional": "B3LYP", 
		 "basiset": "6-31G**", 
		 "properties": { 
			 "R2extent": 3377.6152, 
			 "electric_dipole_moment_norm": 0.754677328399, 
			 "electric_quadrupole_moment_norm": 4.94927847671, 
			 "total_energy": -634.390131428, 
			 "HOMO_LUMO_gap": 0.16634, 
			 "cosmo_polarized_energy": -9.26, 
			 "cosmo_cavitation_energy": 30.81, 
			 "cosmo_dispersion_energy": -22.56, 
			 "cosmo_repulsion_energy": 1.71, 
			 "cosmo_total_nonelectrostatic_energy": 9.96, 
			 "SMD_solvation_energy": 2.62 
		},
		"coords": [
			{
				"x": 1.1996484241,
				"y": 0.8077405537,
				"z": 3.0992872138,
				"element": "C" 
			},
			{
				"x": 0.9962944408,
				"y": -0.6170241734,
				"z": 2.8716804463,
				"element": "N" 
			},
			{
				"x": 2.1798098672,
				"y": -1.2506431719,
				"z": 2.3099574377,
				"element": "C" 
			},
			{
				"x": -0.261638875,
				"y": -0.9483231003,
				"z": 2.1817888068,
				"element": "C" 
			},
			{
				"x": -0.453322306,
				"y": -0.4809228063,
				"z": 0.73763456,
				"element": "C" 
			},
			{
				"x": -1.1060789135,
				"y": 0.7626173632,
				"z": 0.4207390005,
				"element": "C" 
			},
			{
				"x": -1.6646823114,
				"y": 1.6253661655,
				"z": 1.4077597199,
				"element": "C" 
			},
			{
				"x": -2.2911004225,
				"y": 2.8059202506,
				"z": 1.0691457567,
				"element": "C" 
			},
			{
				"x": -2.3989266403,
				"y": 3.2067289941,
				"z": -0.2810814559,
				"element": "C" 
			},
			{
				"x": -1.8819565838,
				"y": 2.397192779,
				"z": -1.2665233332,
				"element": "C" 
			},
			{
				"x": -1.2404985688,
				"y": 1.1713824495,
				"z": -0.9507394043,
				"element": "C" 
			},
			{
				"x": -0.7353564581,
				"y": 0.3280181337,
				"z": -1.9759408667,
				"element": "C" 
			},
			{
				"x": -0.144368477,
				"y": -0.8678262321,
				"z": -1.6712127623,
				"element": "C" 
			},
			{
				"x": -0.0093594992,
				"y": -1.2715476436,
				"z": -0.3182590761,
				"element": "C" 
			},
			{
				"x": 0.5766293778,
				"y": -2.4980704854,
				"z": -0.1641957446,
				"element": "O" 
			},
			{
				"x": 0.3497033767,
				"y": 1.2220937177,
				"z": 3.6498087659,
				"element": "H" 
			},
			{
				"x": 1.3311708452,
				"y": 1.400648348,
				"z": 2.1777369535,
				"element": "H" 
			},
			{
				"x": 2.0927880437,
				"y": 0.9436969573,
				"z": 3.7183787299,
				"element": "H" 
			},
			{
				"x": 2.4319684801,
				"y": -0.929162501,
				"z": 1.28436496,
				"element": "H" 
			},
			{
				"x": 2.0576458695,
				"y": -2.3414947989,
				"z": 2.3096740232,
				"element": "H" 
			},
			{
				"x": 3.0401602678,
				"y": -1.0290082681,
				"z": 2.9498338616,
				"element": "H" 
			},
			{
				"x": -1.0787882526,
				"y": -0.5665185557,
				"z": 2.799942083,
				"element": "H" 
			},
			{
				"x": -0.3685820328,
				"y": -2.0423783107,
				"z": 2.2326371233,
				"element": "H" 
			},
			{
				"x": -1.6054532868,
				"y": 1.3546310287,
				"z": 2.4546011158,
				"element": "H" 
			},
			{
				"x": -2.7067565184,
				"y": 3.4343807255,
				"z": 1.8519313768,
				"element": "H" 
			},
			{
				"x": -2.8901870556,
				"y": 4.1411647665,
				"z": -0.535255671,
				"element": "H" 
			},
			{
				"x": -1.961935609,
				"y": 2.6822562966,
				"z": -2.3127697814,
				"element": "H" 
			},
			{
				"x": -0.8360958834,
				"y": 0.641352334,
				"z": -3.0117269455,
				"element": "H" 
			},
			{
				"x": 0.2319085245,
				"y": -1.5352373424,
				"z": -2.4394088886,
				"element": "H" 
			},
			{
				"x": 0.6297601767,
				"y": -2.7208334736,
				"z": 0.7727119948,
				"element": "H" 
			}
		],
		 "valence_orbital": [ 
			{
				"type": "occ",
				"energy": -0.30391,
				"method": "rhf"
			},
			{
				"type": "occ",
				"energy": -0.2746,
				"method": "rhf"
			},
			{
				"type": "occ",
				"energy": -0.22864,
				"method": "rhf"
			},
			{
				"type": "occ",
				"energy": -0.21429,
				"method": "rhf"
			},
			{
				"type": "occ",
				"energy": -0.20084,
				"method": "rhf"
			},
			{
				"type": "unocc",
				"energy": -0.0345,
				"method": "rhf"
			},
			{
				"type": "unocc",
				"energy": -0.00026,
				"method": "rhf"
			},
			{
				"type": "unocc",
				"energy": 0.0294,
				"method": "rhf"
			},
			{
				"type": "unocc",
				"energy": 0.05661,
				"method": "rhf"
			},
			{
				"type": "unocc",
				"energy": 0.09389,
				"method": "rhf"
			}
		],
		"cosmo_sigma_profile": { 
			"-0.025": 0.0,
			"-0.024": 0.0,
			"-0.023": 0.0,
			"-0.022": 0.0,
			"-0.021": 0.0,
			"-0.02": 0.0,
			"-0.019": 0.0,
			"-0.018": 0.0,
			"-0.017": 0.0,
			"-0.016": 0.241225782575,
			"-0.015": 0.868803357303,
			"-0.014": 1.26030736884,
			"-0.013": 0.743084861511,
			"-0.012": 0.442270786774,
			"-0.011": 0.960289938313,
			"-0.01": 0.77200729749,
			"-0.009": 1.80288818608,
			"-0.008": 1.01320849114,
			"-0.007": 3.10358978166,
			"-0.006": 9.63281140025,
			"-0.005": 14.1346161424,
			"-0.004": 19.5619173244,
			"-0.003": 21.0192321063,
			"-0.002": 19.2070492485,
			"-0.001": 23.8062406551,
			"0.0": 21.4188230544,
			"0.001": 13.7653642368,
			"0.002": 15.1224494008,
			"0.003": 14.3142538552,
			"0.004": 21.8397212306,
			"0.005": 17.1508919348,
			"0.006": 8.30185209265,
			"0.007": 1.818135915,
			"0.008": 1.95626888441,
			"0.009": 2.52994991914,
			"0.01": 2.02090164567,
			"0.011": 2.08801987606,
			"0.012": 0.940020786982,
			"0.013": 0.62321238757,
			"0.014": 0.311498165342,
			"0.015": 0.611100997511,
			"0.016": 0.229376130492,
			"0.017": 0.0405414071125,
			"0.018": 0.0,
			"0.019": 0.0,
			"0.02": 0.0,
			"0.021": 0.0,
			"0.022": 0.0,
			"0.023": 0.0,
			"0.024": 0.0,
			"0.025": 0.0
		}
	}
}
