{
	 "smiles": "ClCCOCCN1C(=O)C2=CC=CC=C2C1=O", 
	 "Tm": 345.65, 
	 "num_atms": 29, 
	 "gaussian": { 
		 "optdone": 1, 
		 "sigma_profile": "yes", 
		 "theory": "DFT", 
		 "functional": "B3LYP", 
		 "basiset": "6-31G**", 
		 "properties": { 
			 "R2extent": 5772.7245, 
			 "electric_dipole_moment_norm": 3.38935423495, 
			 "electric_quadrupole_moment_norm": 22.7710462856, 
			 "total_energy": -1205.14991037, 
			 "HOMO_LUMO_gap": 0.17392, 
			 "cosmo_polarized_energy": -13.07, 
			 "cosmo_cavitation_energy": 35.1, 
			 "cosmo_dispersion_energy": -24.66, 
			 "cosmo_repulsion_energy": 1.92, 
			 "cosmo_total_nonelectrostatic_energy": 12.36, 
			 "SMD_solvation_energy": 6.34 
		},
		"coords": [
			{
				"x": -1.5406463343,
				"y": -5.109810397,
				"z": -1.0516036364,
				"element": "Cl" 
			},
			{
				"x": -0.3973771025,
				"y": -3.7199871286,
				"z": -0.8451073194,
				"element": "C" 
			},
			{
				"x": -0.4071525668,
				"y": -2.8406453607,
				"z": -2.0860763994,
				"element": "C" 
			},
			{
				"x": 0.5935763579,
				"y": -1.8540721505,
				"z": -1.8734438182,
				"element": "O" 
			},
			{
				"x": 0.649204382,
				"y": -0.8432518612,
				"z": -2.8625519703,
				"element": "C" 
			},
			{
				"x": -0.4407293766,
				"y": 0.2266671671,
				"z": -2.7006849586,
				"element": "C" 
			},
			{
				"x": -0.4058376381,
				"y": 0.850865482,
				"z": -1.3886625623,
				"element": "N" 
			},
			{
				"x": 0.4307713737,
				"y": 1.932397503,
				"z": -1.0643639702,
				"element": "C" 
			},
			{
				"x": 1.1757550874,
				"y": 2.4954003776,
				"z": -1.8425258001,
				"element": "O" 
			},
			{
				"x": 0.1910828837,
				"y": 2.2055511895,
				"z": 0.3836240101,
				"element": "C" 
			},
			{
				"x": 0.7394030788,
				"y": 3.1696750726,
				"z": 1.216584046,
				"element": "C" 
			},
			{
				"x": 0.3164249437,
				"y": 3.1827256699,
				"z": 2.5527419746,
				"element": "C" 
			},
			{
				"x": -0.6242306869,
				"y": 2.2572428955,
				"z": 3.0226535909,
				"element": "C" 
			},
			{
				"x": -1.1731266988,
				"y": 1.2877993882,
				"z": 2.1721569889,
				"element": "C" 
			},
			{
				"x": -0.7464294585,
				"y": 1.2820455618,
				"z": 0.8523782497,
				"element": "C" 
			},
			{
				"x": -1.137122938,
				"y": 0.3929540471,
				"z": -0.2821489855,
				"element": "C" 
			},
			{
				"x": -1.9305049633,
				"y": -0.5292490849,
				"z": -0.2918959007,
				"element": "O" 
			},
			{
				"x": 0.5942836408,
				"y": -4.1374227439,
				"z": -0.6677371458,
				"element": "H" 
			},
			{
				"x": -0.726230984,
				"y": -3.1541259352,
				"z": 0.0261382702,
				"element": "H" 
			},
			{
				"x": -0.179039242,
				"y": -3.4354437191,
				"z": -2.9834791191,
				"element": "H" 
			},
			{
				"x": -1.4021810222,
				"y": -2.3947924449,
				"z": -2.2018414563,
				"element": "H" 
			},
			{
				"x": 0.5833634896,
				"y": -1.270304766,
				"z": -3.8760318889,
				"element": "H" 
			},
			{
				"x": 1.6305538007,
				"y": -0.37094139,
				"z": -2.7578097551,
				"element": "H" 
			},
			{
				"x": -1.4393200728,
				"y": -0.1966413714,
				"z": -2.831592136,
				"element": "H" 
			},
			{
				"x": -0.2894263942,
				"y": 1.0085781565,
				"z": -3.450646836,
				"element": "H" 
			},
			{
				"x": 1.4669123502,
				"y": 3.8822075064,
				"z": 0.8415139299,
				"element": "H" 
			},
			{
				"x": 0.7233744202,
				"y": 3.921536907,
				"z": 3.236625729,
				"element": "H" 
			},
			{
				"x": -0.9318923753,
				"y": 2.293216287,
				"z": 4.0634206424,
				"element": "H" 
			},
			{
				"x": -1.9032579544,
				"y": 0.5667251424,
				"z": 2.5251662267,
				"element": "H" 
			}
		],
		 "valence_orbital": [ 
			{
				"type": "occ",
				"energy": -0.28979,
				"method": "rhf"
			},
			{
				"type": "occ",
				"energy": -0.28074,
				"method": "rhf"
			},
			{
				"type": "occ",
				"energy": -0.27772,
				"method": "rhf"
			},
			{
				"type": "occ",
				"energy": -0.27188,
				"method": "rhf"
			},
			{
				"type": "occ",
				"energy": -0.25915,
				"method": "rhf"
			},
			{
				"type": "unocc",
				"energy": -0.08523,
				"method": "rhf"
			},
			{
				"type": "unocc",
				"energy": -0.04371,
				"method": "rhf"
			},
			{
				"type": "unocc",
				"energy": 0.02496,
				"method": "rhf"
			},
			{
				"type": "unocc",
				"energy": 0.02911,
				"method": "rhf"
			},
			{
				"type": "unocc",
				"energy": 0.06725,
				"method": "rhf"
			}
		],
		"cosmo_sigma_profile": { 
			"-0.025": 0.0,
			"-0.024": 0.0,
			"-0.023": 0.0,
			"-0.022": 0.0,
			"-0.021": 0.0,
			"-0.02": 0.0,
			"-0.019": 0.0,
			"-0.018": 0.0,
			"-0.017": 0.0,
			"-0.016": 0.0,
			"-0.015": 0.0,
			"-0.014": 0.0,
			"-0.013": 0.0,
			"-0.012": 0.0,
			"-0.011": 0.0,
			"-0.01": 0.0,
			"-0.009": 0.0,
			"-0.008": 1.44153915903,
			"-0.007": 11.1004281845,
			"-0.006": 18.9002723245,
			"-0.005": 26.3624891897,
			"-0.004": 25.7222825071,
			"-0.003": 23.1126925153,
			"-0.002": 18.5660614639,
			"-0.001": 17.6497116021,
			"0.0": 21.7714072818,
			"0.001": 19.3441796954,
			"0.002": 21.3523178022,
			"0.003": 11.9674210698,
			"0.004": 10.6953767905,
			"0.005": 9.5810885981,
			"0.006": 13.7094510999,
			"0.007": 6.14631279759,
			"0.008": 3.4269133755,
			"0.009": 3.81541523698,
			"0.01": 5.67018313836,
			"0.011": 7.90030813893,
			"0.012": 3.28409004712,
			"0.013": 0.0499265806116,
			"0.014": 0.0,
			"0.015": 0.0,
			"0.016": 0.0,
			"0.017": 0.0,
			"0.018": 0.0,
			"0.019": 0.0,
			"0.02": 0.0,
			"0.021": 0.0,
			"0.022": 0.0,
			"0.023": 0.0,
			"0.024": 0.0,
			"0.025": 0.0
		}
	}
}
