{
	 "smiles": "CN1C2=C(NC(CCC(O)=O)=N2)C(=O)NC1=O", 
	 "Tm": 596.15, 
	 "num_atms": 27, 
	 "gaussian": { 
		 "optdone": 1, 
		 "sigma_profile": "yes", 
		 "theory": "DFT", 
		 "functional": "B3LYP", 
		 "basiset": "6-31G**", 
		 "properties": { 
			 "R2extent": 5805.3494, 
			 "electric_dipole_moment_norm": 2.82677678638, 
			 "electric_quadrupole_moment_norm": 26.379097103, 
			 "total_energy": -868.951698971, 
			 "HOMO_LUMO_gap": 0.18671, 
			 "cosmo_polarized_energy": -28.98, 
			 "cosmo_cavitation_energy": 32.63, 
			 "cosmo_dispersion_energy": -23.8, 
			 "cosmo_repulsion_energy": 1.87, 
			 "cosmo_total_nonelectrostatic_energy": 10.7, 
			 "SMD_solvation_energy": 6.74 
		},
		"coords": [
			{
				"x": 0.0181724287,
				"y": -0.7892466078,
				"z": -3.4207154056,
				"element": "C" 
			},
			{
				"x": 0.2796874652,
				"y": 0.4355545506,
				"z": -2.6685038645,
				"element": "N" 
			},
			{
				"x": -0.1224363923,
				"y": 0.5583297543,
				"z": -1.3561833276,
				"element": "C" 
			},
			{
				"x": 0.1041258263,
				"y": 1.7025891397,
				"z": -0.6172838024,
				"element": "C" 
			},
			{
				"x": -0.4318450558,
				"y": 1.4262670716,
				"z": 0.6273112912,
				"element": "N" 
			},
			{
				"x": -0.9451700567,
				"y": 0.1668227042,
				"z": 0.5737132205,
				"element": "C" 
			},
			{
				"x": -1.6577158364,
				"y": -0.4738255547,
				"z": 1.7243117498,
				"element": "C" 
			},
			{
				"x": -1.5283041095,
				"y": -1.9985980467,
				"z": 1.7062664114,
				"element": "C" 
			},
			{
				"x": -2.3706373029,
				"y": -2.6508065387,
				"z": 2.7931377938,
				"element": "C" 
			},
			{
				"x": -2.2981234729,
				"y": -4.0061688934,
				"z": 2.8496833057,
				"element": "O" 
			},
			{
				"x": -3.0668425322,
				"y": -2.0470250409,
				"z": 3.5707656,
				"element": "O" 
			},
			{
				"x": -0.7687296567,
				"y": -0.3922579301,
				"z": -0.6245996174,
				"element": "N" 
			},
			{
				"x": 0.7787685692,
				"y": 2.8586254772,
				"z": -1.1342747298,
				"element": "C" 
			},
			{
				"x": 1.0308934214,
				"y": 3.9089110896,
				"z": -0.5597996728,
				"element": "O" 
			},
			{
				"x": 1.1421135111,
				"y": 2.62535275,
				"z": -2.4770764767,
				"element": "N" 
			},
			{
				"x": 0.9437174148,
				"y": 1.499519933,
				"z": -3.2848151069,
				"element": "C" 
			},
			{
				"x": 1.3305189757,
				"y": 1.4686362441,
				"z": -4.4420766803,
				"element": "O" 
			},
			{
				"x": -1.0559819097,
				"y": -0.9888855356,
				"z": -3.4522761485,
				"element": "H" 
			},
			{
				"x": 0.4037156881,
				"y": -0.639466219,
				"z": -4.4272071643,
				"element": "H" 
			},
			{
				"x": 0.5196836601,
				"y": -1.6378952645,
				"z": -2.9477928882,
				"element": "H" 
			},
			{
				"x": -0.437805985,
				"y": 2.0608082276,
				"z": 1.4127639322,
				"element": "H" 
			},
			{
				"x": -1.2789568914,
				"y": -0.075802982,
				"z": 2.6714317181,
				"element": "H" 
			},
			{
				"x": -2.7224775183,
				"y": -0.2116159831,
				"z": 1.6971107292,
				"element": "H" 
			},
			{
				"x": -0.4806019581,
				"y": -2.2996790708,
				"z": 1.8361262543,
				"element": "H" 
			},
			{
				"x": -1.8325127809,
				"y": -2.3834051589,
				"z": 0.7256095816,
				"element": "H" 
			},
			{
				"x": -1.7101184262,
				"y": -4.3430897525,
				"z": 2.1584756373,
				"element": "H" 
			},
			{
				"x": 1.6255629244,
				"y": 3.3828516369,
				"z": -2.9439023398,
				"element": "H" 
			}
		],
		 "valence_orbital": [ 
			{
				"type": "occ",
				"energy": -0.29253,
				"method": "rhf"
			},
			{
				"type": "occ",
				"energy": -0.28411,
				"method": "rhf"
			},
			{
				"type": "occ",
				"energy": -0.28362,
				"method": "rhf"
			},
			{
				"type": "occ",
				"energy": -0.26451,
				"method": "rhf"
			},
			{
				"type": "occ",
				"energy": -0.2263,
				"method": "rhf"
			},
			{
				"type": "unocc",
				"energy": -0.03959,
				"method": "rhf"
			},
			{
				"type": "unocc",
				"energy": -0.00158,
				"method": "rhf"
			},
			{
				"type": "unocc",
				"energy": 0.01831,
				"method": "rhf"
			},
			{
				"type": "unocc",
				"energy": 0.02637,
				"method": "rhf"
			},
			{
				"type": "unocc",
				"energy": 0.04497,
				"method": "rhf"
			}
		],
		"cosmo_sigma_profile": { 
			"-0.025": 0.0,
			"-0.024": 0.0,
			"-0.023": 0.0,
			"-0.022": 0.0,
			"-0.021": 0.0,
			"-0.02": 0.0183573615082,
			"-0.019": 0.863326892133,
			"-0.018": 1.5415706118,
			"-0.017": 1.90547129041,
			"-0.016": 2.77822616664,
			"-0.015": 3.38526102757,
			"-0.014": 2.65983240352,
			"-0.013": 2.78962509443,
			"-0.012": 3.20436573995,
			"-0.011": 3.28003660651,
			"-0.01": 3.55209543652,
			"-0.009": 3.43096091499,
			"-0.008": 3.88187456672,
			"-0.007": 6.28110636922,
			"-0.006": 13.4922018251,
			"-0.005": 16.3960719794,
			"-0.004": 15.5086134023,
			"-0.003": 19.1228174821,
			"-0.002": 19.9297153626,
			"-0.001": 17.0149836598,
			"0.0": 16.2636828961,
			"0.001": 7.15607461967,
			"0.002": 6.09594926134,
			"0.003": 6.50873745699,
			"0.004": 7.99007268949,
			"0.005": 5.00356072916,
			"0.006": 5.74587093572,
			"0.007": 5.30748840779,
			"0.008": 6.52413139988,
			"0.009": 7.63445607953,
			"0.01": 8.0930951422,
			"0.011": 10.8575119926,
			"0.012": 12.7389725406,
			"0.013": 11.0921776038,
			"0.014": 0.968160275936,
			"0.015": 0.0,
			"0.016": 0.0,
			"0.017": 0.0,
			"0.018": 0.0,
			"0.019": 0.0,
			"0.02": 0.0,
			"0.021": 0.0,
			"0.022": 0.0,
			"0.023": 0.0,
			"0.024": 0.0,
			"0.025": 0.0
		}
	}
}
