{
	 "smiles": "CC1=CC(=C(OCC2CCCO2)C=C1)S(Cl)(=O)=O", 
	 "Tm": 350.15, 
	 "num_atms": 33, 
	 "gaussian": { 
		 "optdone": 1, 
		 "sigma_profile": "yes", 
		 "theory": "DFT", 
		 "functional": "B3LYP", 
		 "basiset": "6-31G**", 
		 "properties": { 
			 "R2extent": 6487.5695, 
			 "electric_dipole_moment_norm": 5.62889045727, 
			 "electric_quadrupole_moment_norm": 22.6983377894, 
			 "total_energy": -1625.51166846, 
			 "HOMO_LUMO_gap": 0.16315, 
			 "cosmo_polarized_energy": -13.42, 
			 "cosmo_cavitation_energy": 39.21, 
			 "cosmo_dispersion_energy": -27.78, 
			 "cosmo_repulsion_energy": 2.13, 
			 "cosmo_total_nonelectrostatic_energy": 13.56, 
			 "SMD_solvation_energy": 5.09 
		},
		"coords": [
			{
				"x": -5.0342014568,
				"y": 1.4328802265,
				"z": 0.3059700499,
				"element": "C" 
			},
			{
				"x": -3.5629657442,
				"y": 1.1337089168,
				"z": 0.141253984,
				"element": "C" 
			},
			{
				"x": -2.7840424284,
				"y": 0.7189062433,
				"z": 1.2239562003,
				"element": "C" 
			},
			{
				"x": -1.4173491138,
				"y": 0.4786291747,
				"z": 1.0685231792,
				"element": "C" 
			},
			{
				"x": -0.7757962656,
				"y": 0.6245920871,
				"z": -0.1792088055,
				"element": "C" 
			},
			{
				"x": 0.5396521067,
				"y": 0.3436793997,
				"z": -0.2423005865,
				"element": "O" 
			},
			{
				"x": 1.2329309015,
				"y": 0.4670347056,
				"z": -1.4880456944,
				"element": "C" 
			},
			{
				"x": 2.7041388509,
				"y": 0.1525974487,
				"z": -1.2218189674,
				"element": "C" 
			},
			{
				"x": 2.9844565893,
				"y": -1.3278502474,
				"z": -0.8932668236,
				"element": "C" 
			},
			{
				"x": 3.4310959751,
				"y": -1.9006048289,
				"z": -2.2488566005,
				"element": "C" 
			},
			{
				"x": 4.1490960225,
				"y": -0.6973678869,
				"z": -2.8612460701,
				"element": "C" 
			},
			{
				"x": 3.4005753507,
				"y": 0.4482843323,
				"z": -2.4406859083,
				"element": "O" 
			},
			{
				"x": -1.5617748269,
				"y": 1.0332158258,
				"z": -1.2652987257,
				"element": "C" 
			},
			{
				"x": -2.922696337,
				"y": 1.2805985697,
				"z": -1.0963110883,
				"element": "C" 
			},
			{
				"x": -0.507002762,
				"y": 0.0008267087,
				"z": 2.527066594,
				"element": "S" 
			},
			{
				"x": -0.0203375557,
				"y": -2.0406658737,
				"z": 2.088935238,
				"element": "Cl" 
			},
			{
				"x": 0.7590326116,
				"y": 0.7132812201,
				"z": 2.6236901092,
				"element": "O" 
			},
			{
				"x": -1.4341082174,
				"y": -0.0532942862,
				"z": 3.6525487121,
				"element": "O" 
			},
			{
				"x": -5.6085787167,
				"y": 1.0964176083,
				"z": -0.5627811188,
				"element": "H" 
			},
			{
				"x": -5.4439161114,
				"y": 0.9407041074,
				"z": 1.1920450577,
				"element": "H" 
			},
			{
				"x": -5.211578752,
				"y": 2.5095865688,
				"z": 0.4166259172,
				"element": "H" 
			},
			{
				"x": -3.2264179723,
				"y": 0.5801043748,
				"z": 2.204211927,
				"element": "H" 
			},
			{
				"x": 1.1426326466,
				"y": 1.4877908068,
				"z": -1.8777410796,
				"element": "H" 
			},
			{
				"x": 0.8153763022,
				"y": -0.2312517178,
				"z": -2.2254082666,
				"element": "H" 
			},
			{
				"x": 3.0569627707,
				"y": 0.8152723923,
				"z": -0.4216006262,
				"element": "H" 
			},
			{
				"x": 3.796594613,
				"y": -1.3995893693,
				"z": -0.163178906,
				"element": "H" 
			},
			{
				"x": 2.1127865352,
				"y": -1.826656097,
				"z": -0.4629060368,
				"element": "H" 
			},
			{
				"x": 2.5664539936,
				"y": -2.1790557888,
				"z": -2.8618535801,
				"element": "H" 
			},
			{
				"x": 4.0734056832,
				"y": -2.7803610086,
				"z": -2.1539168198,
				"element": "H" 
			},
			{
				"x": 5.1847368991,
				"y": -0.6291973928,
				"z": -2.4932919617,
				"element": "H" 
			},
			{
				"x": 4.1738832071,
				"y": -0.6998833,
				"z": -3.9553236216,
				"element": "H" 
			},
			{
				"x": -1.1133775787,
				"y": 1.1527314286,
				"z": -2.2438768853,
				"element": "H" 
			},
			{
				"x": -3.5034672199,
				"y": 1.5936356513,
				"z": -1.9604087957,
				"element": "H" 
			}
		],
		 "valence_orbital": [ 
			{
				"type": "occ",
				"energy": -0.31922,
				"method": "rhf"
			},
			{
				"type": "occ",
				"energy": -0.3025,
				"method": "rhf"
			},
			{
				"type": "occ",
				"energy": -0.28315,
				"method": "rhf"
			},
			{
				"type": "occ",
				"energy": -0.25733,
				"method": "rhf"
			},
			{
				"type": "occ",
				"energy": -0.24338,
				"method": "rhf"
			},
			{
				"type": "unocc",
				"energy": -0.08023,
				"method": "rhf"
			},
			{
				"type": "unocc",
				"energy": -0.03883,
				"method": "rhf"
			},
			{
				"type": "unocc",
				"energy": -0.01595,
				"method": "rhf"
			},
			{
				"type": "unocc",
				"energy": 0.05096,
				"method": "rhf"
			},
			{
				"type": "unocc",
				"energy": 0.07583,
				"method": "rhf"
			}
		],
		"cosmo_sigma_profile": { 
			"-0.025": 0.0,
			"-0.024": 0.0,
			"-0.023": 0.0,
			"-0.022": 0.0,
			"-0.021": 0.0,
			"-0.02": 0.0,
			"-0.019": 0.0,
			"-0.018": 0.0,
			"-0.017": 0.0,
			"-0.016": 0.0,
			"-0.015": 0.0,
			"-0.014": 0.0,
			"-0.013": 0.0,
			"-0.012": 0.0,
			"-0.011": 0.0,
			"-0.01": 0.0,
			"-0.009": 0.0278063985633,
			"-0.008": 1.98607219282,
			"-0.007": 6.92603173532,
			"-0.006": 11.7099573074,
			"-0.005": 18.8303264466,
			"-0.004": 25.806857461,
			"-0.003": 34.9802201427,
			"-0.002": 32.486733899,
			"-0.001": 30.0930318659,
			"0.0": 29.8747899072,
			"0.001": 22.6943050492,
			"0.002": 20.3092222334,
			"0.003": 17.0545209185,
			"0.004": 14.6493696177,
			"0.005": 5.75016222914,
			"0.006": 5.42323320888,
			"0.007": 5.83436779918,
			"0.008": 11.3303737058,
			"0.009": 10.3975373709,
			"0.01": 1.81473383619,
			"0.011": 1.07867199934,
			"0.012": 1.36273490461,
			"0.013": 1.28773228764,
			"0.014": 0.542444156109,
			"0.015": 0.0,
			"0.016": 0.0,
			"0.017": 0.0,
			"0.018": 0.0,
			"0.019": 0.0,
			"0.02": 0.0,
			"0.021": 0.0,
			"0.022": 0.0,
			"0.023": 0.0,
			"0.024": 0.0,
			"0.025": 0.0
		}
	}
}
