{
	 "smiles": "CC1=C(OCC(O)=O)C(Cl)=CC(Br)=C1", 
	 "Tm": 471.15, 
	 "num_atms": 22, 
	 "gaussian": { 
		 "optdone": 1, 
		 "sigma_profile": "yes", 
		 "theory": "DFT", 
		 "functional": "B3LYP", 
		 "basiset": "6-31G**", 
		 "properties": { 
			 "R2extent": 7522.1845, 
			 "electric_dipole_moment_norm": 4.36513036002, 
			 "electric_quadrupole_moment_norm": 16.1844556504, 
			 "total_energy": -3605.0449436, 
			 "HOMO_LUMO_gap": 0.21758, 
			 "cosmo_polarized_energy": -12.62, 
			 "cosmo_cavitation_energy": 30.89, 
			 "cosmo_dispersion_energy": -22.31, 
			 "cosmo_repulsion_energy": 1.77, 
			 "cosmo_total_nonelectrostatic_energy": 10.35, 
			 "SMD_solvation_energy": 5.38 
		},
		"coords": [
			{
				"x": -0.3418740089,
				"y": 1.6105807575,
				"z": -0.0511663359,
				"element": "C" 
			},
			{
				"x": 0.7097321197,
				"y": 0.9749710417,
				"z": 0.8243591127,
				"element": "C" 
			},
			{
				"x": 1.187209279,
				"y": -0.313959865,
				"z": 0.5346885401,
				"element": "C" 
			},
			{
				"x": 0.7263442693,
				"y": -0.9768739109,
				"z": -0.5846205574,
				"element": "O" 
			},
			{
				"x": -0.3757654076,
				"y": -1.880659949,
				"z": -0.3934525897,
				"element": "C" 
			},
			{
				"x": -0.3285606557,
				"y": -2.9717471387,
				"z": -1.4645859071,
				"element": "C" 
			},
			{
				"x": 0.8103356059,
				"y": -3.0329434244,
				"z": -2.1701385104,
				"element": "O" 
			},
			{
				"x": -1.2534752882,
				"y": -3.7270069055,
				"z": -1.6298650699,
				"element": "O" 
			},
			{
				"x": 2.1765576145,
				"y": -0.8943470412,
				"z": 1.3390688286,
				"element": "C" 
			},
			{
				"x": 2.7840525993,
				"y": -2.4887066197,
				"z": 0.9434242641,
				"element": "Cl" 
			},
			{
				"x": 2.696760685,
				"y": -0.2213726042,
				"z": 2.4432095437,
				"element": "C" 
			},
			{
				"x": 2.2102313449,
				"y": 1.0515638255,
				"z": 2.7259530253,
				"element": "C" 
			},
			{
				"x": 2.9049234813,
				"y": 1.9967216409,
				"z": 4.2300479369,
				"element": "Br" 
			},
			{
				"x": 1.2353746802,
				"y": 1.6503457788,
				"z": 1.9306182922,
				"element": "C" 
			},
			{
				"x": -0.4113715436,
				"y": 2.6834200861,
				"z": 0.1421909737,
				"element": "H" 
			},
			{
				"x": -0.1156740444,
				"y": 1.4584045236,
				"z": -1.1098208052,
				"element": "H" 
			},
			{
				"x": -1.3314543592,
				"y": 1.1764857692,
				"z": 0.1345945438,
				"element": "H" 
			},
			{
				"x": -0.3197810051,
				"y": -2.3625914497,
				"z": 0.5887010383,
				"element": "H" 
			},
			{
				"x": -1.3316569279,
				"y": -1.3536730098,
				"z": -0.4731797413,
				"element": "H" 
			},
			{
				"x": 1.3966796291,
				"y": -2.3220050049,
				"z": -1.8523544828,
				"element": "H" 
			},
			{
				"x": 3.4612806783,
				"y": -0.6815901599,
				"z": 3.0559217163,
				"element": "H" 
			},
			{
				"x": 0.8832312541,
				"y": 2.6477836596,
				"z": 2.1685061841,
				"element": "H" 
			}
		],
		 "valence_orbital": [ 
			{
				"type": "occ",
				"energy": -0.31105,
				"method": "rhf"
			},
			{
				"type": "occ",
				"energy": -0.30288,
				"method": "rhf"
			},
			{
				"type": "occ",
				"energy": -0.27642,
				"method": "rhf"
			},
			{
				"type": "occ",
				"energy": -0.27244,
				"method": "rhf"
			},
			{
				"type": "occ",
				"energy": -0.25624,
				"method": "rhf"
			},
			{
				"type": "unocc",
				"energy": -0.03866,
				"method": "rhf"
			},
			{
				"type": "unocc",
				"energy": -0.03769,
				"method": "rhf"
			},
			{
				"type": "unocc",
				"energy": -0.02039,
				"method": "rhf"
			},
			{
				"type": "unocc",
				"energy": 0.00464,
				"method": "rhf"
			},
			{
				"type": "unocc",
				"energy": 0.02419,
				"method": "rhf"
			}
		],
		"cosmo_sigma_profile": { 
			"-0.025": 0.0,
			"-0.024": 0.0,
			"-0.023": 0.0,
			"-0.022": 0.0,
			"-0.021": 0.0,
			"-0.02": 0.0,
			"-0.019": 0.0,
			"-0.018": 0.0,
			"-0.017": 0.0,
			"-0.016": 0.0,
			"-0.015": 0.0,
			"-0.014": 0.258773237781,
			"-0.013": 0.565546238971,
			"-0.012": 0.317911435046,
			"-0.011": 0.825439270943,
			"-0.01": 0.385281064343,
			"-0.009": 1.12447962261,
			"-0.008": 5.76125327397,
			"-0.007": 11.1579312507,
			"-0.006": 12.766360194,
			"-0.005": 14.6905703416,
			"-0.004": 13.7788110955,
			"-0.003": 16.1989710945,
			"-0.002": 17.3941907399,
			"-0.001": 22.3990350089,
			"0.0": 24.181164111,
			"0.001": 24.9103153689,
			"0.002": 19.8708652002,
			"0.003": 15.8734162264,
			"0.004": 17.846529034,
			"0.005": 4.46476562062,
			"0.006": 2.16175191395,
			"0.007": 2.19028531763,
			"0.008": 3.72335382793,
			"0.009": 3.8636012754,
			"0.01": 4.52817021382,
			"0.011": 5.23384380929,
			"0.012": 4.67400086815,
			"0.013": 0.939723256079,
			"0.014": 0.0,
			"0.015": 0.0,
			"0.016": 0.0,
			"0.017": 0.0,
			"0.018": 0.0,
			"0.019": 0.0,
			"0.02": 0.0,
			"0.021": 0.0,
			"0.022": 0.0,
			"0.023": 0.0,
			"0.024": 0.0,
			"0.025": 0.0
		}
	}
}
