{
	 "smiles": "ICCCCCCCCCCI", 
	 "Tm": 303.15, 
	 "num_atms": 32, 
	 "gaussian": { 
		 "optdone": 1, 
		 "sigma_profile": "no", 
		 "theory": "DFT", 
		 "functional": "B3LYP", 
		 "basiset": "6-31G**", 
		 "properties": { 
			 "R2extent": 3717.9068, 
			 "electric_dipole_moment_norm": 4.31111375981, 
			 "electric_quadrupole_moment_norm": 11.7206843636, 
			 "total_energy": -415.92893348, 
			 "HOMO_LUMO_gap": 0.20712, 
			 "cosmo_polarized_energy": -227089.37, 
			 "cosmo_cavitation_energy": 38.64, 
			 "cosmo_dispersion_energy": -27.67, 
			 "cosmo_repulsion_energy": 2.18, 
			 "cosmo_total_nonelectrostatic_energy": 13.14, 
			 "SMD_solvation_energy": 3.5 
		},
		"coords": [
			{
				"x": -4.2474873137,
				"y": 0.2267095081,
				"z": -0.2928935227,
				"element": "I" 
			},
			{
				"x": -2.5522376681,
				"y": -1.1203707437,
				"z": 0.0877171878,
				"element": "C" 
			},
			{
				"x": -1.8144932406,
				"y": -1.5475136345,
				"z": -1.1754505526,
				"element": "C" 
			},
			{
				"x": -1.0701315951,
				"y": -0.4391803855,
				"z": -1.9369399672,
				"element": "C" 
			},
			{
				"x": 0.0908036081,
				"y": 0.2319191813,
				"z": -1.1816384926,
				"element": "C" 
			},
			{
				"x": 1.2805776815,
				"y": -0.6982654052,
				"z": -0.895882304,
				"element": "C" 
			},
			{
				"x": 2.5273223198,
				"y": 0.0167195542,
				"z": -0.3443041798,
				"element": "C" 
			},
			{
				"x": 2.3779086248,
				"y": 0.6649846616,
				"z": 1.0440913695,
				"element": "C" 
			},
			{
				"x": 2.1192318864,
				"y": -0.337651076,
				"z": 2.1786198658,
				"element": "C" 
			},
			{
				"x": 2.1938985389,
				"y": 0.2652921888,
				"z": 3.5890433022,
				"element": "C" 
			},
			{
				"x": 1.2044704439,
				"y": 1.3792456156,
				"z": 3.9077959879,
				"element": "C" 
			},
			{
				"x": -0.8962392184,
				"y": 0.7351202982,
				"z": 3.893493358,
				"element": "I" 
			},
			{
				"x": -3.0097229328,
				"y": -1.9675041093,
				"z": 0.5967758513,
				"element": "H" 
			},
			{
				"x": -1.9294495814,
				"y": -0.5705822911,
				"z": 0.7926468273,
				"element": "H" 
			},
			{
				"x": -1.1011478194,
				"y": -2.3236669957,
				"z": -0.8599383652,
				"element": "H" 
			},
			{
				"x": -2.5189011837,
				"y": -2.0426321678,
				"z": -1.8529422316,
				"element": "H" 
			},
			{
				"x": -0.6821144631,
				"y": -0.8712653261,
				"z": -2.8687590856,
				"element": "H" 
			},
			{
				"x": -1.7953140508,
				"y": 0.3273755571,
				"z": -2.2348463971,
				"element": "H" 
			},
			{
				"x": -0.2788875367,
				"y": 0.6741681546,
				"z": -0.2477166397,
				"element": "H" 
			},
			{
				"x": 0.4455317225,
				"y": 1.0767232268,
				"z": -1.7875535329,
				"element": "H" 
			},
			{
				"x": 1.5624296585,
				"y": -1.2014288788,
				"z": -1.8311179719,
				"element": "H" 
			},
			{
				"x": 0.9802954898,
				"y": -1.4983123574,
				"z": -0.2071913362,
				"element": "H" 
			},
			{
				"x": 2.8312956658,
				"y": 0.7914184017,
				"z": -1.061150449,
				"element": "H" 
			},
			{
				"x": 3.3571444982,
				"y": -0.7021995952,
				"z": -0.3054655213,
				"element": "H" 
			},
			{
				"x": 3.30140893,
				"y": 1.2185695436,
				"z": 1.2646880969,
				"element": "H" 
			},
			{
				"x": 1.5769325737,
				"y": 1.4143793282,
				"z": 1.01415502,
				"element": "H" 
			},
			{
				"x": 2.863315217,
				"y": -1.1430334267,
				"z": 2.1187466203,
				"element": "H" 
			},
			{
				"x": 1.1411231846,
				"y": -0.8155666956,
				"z": 2.0480273449,
				"element": "H" 
			},
			{
				"x": 2.0942898275,
				"y": -0.5298291071,
				"z": 4.3361803207,
				"element": "H" 
			},
			{
				"x": 3.1932885918,
				"y": 0.7046668397,
				"z": 3.7365290246,
				"element": "H" 
			},
			{
				"x": 1.3439900803,
				"y": 1.7709876521,
				"z": 4.9143786009,
				"element": "H" 
			},
			{
				"x": 1.2367680608,
				"y": 2.200822484,
				"z": 3.1937017715,
				"element": "H" 
			}
		],
		 "valence_orbital": [ 
			{
				"type": "occ",
				"energy": -0.30949,
				"method": "rhf"
			},
			{
				"type": "occ",
				"energy": -0.25955,
				"method": "rhf"
			},
			{
				"type": "occ",
				"energy": -0.25824,
				"method": "rhf"
			},
			{
				"type": "occ",
				"energy": -0.25112,
				"method": "rhf"
			},
			{
				"type": "occ",
				"energy": -0.24934,
				"method": "rhf"
			},
			{
				"type": "unocc",
				"energy": -0.04222,
				"method": "rhf"
			},
			{
				"type": "unocc",
				"energy": -0.03377,
				"method": "rhf"
			},
			{
				"type": "unocc",
				"energy": 0.03284,
				"method": "rhf"
			},
			{
				"type": "unocc",
				"energy": 0.03618,
				"method": "rhf"
			},
			{
				"type": "unocc",
				"energy": 0.04981,
				"method": "rhf"
			}
		],
		"cosmo_sigma_profile": { 
			"0.0": 0.0,
			"0.0": 0.0,
			"0.0": 0.0,
			"0.0": 0.0,
			"0.0": 0.0,
			"0.0": 0.0,
			"0.0": 0.0,
			"0.0": 0.0,
			"0.0": 0.0,
			"0.0": 0.0,
			"0.0": 0.0,
			"0.0": 0.0,
			"0.0": 0.0,
			"0.0": 0.0,
			"0.0": 0.0,
			"0.0": 0.0,
			"0.0": 0.0,
			"0.0": 0.0,
			"0.0": 0.0,
			"0.0": 0.0,
			"0.0": 0.0,
			"0.0": 0.0,
			"0.0": 0.0,
			"0.0": 0.0,
			"0.0": 0.0,
			"0.0": 0.0,
			"0.0": 0.0,
			"0.0": 0.0,
			"0.0": 0.0,
			"0.0": 0.0,
			"0.0": 0.0,
			"0.0": 0.0,
			"0.0": 0.0,
			"0.0": 0.0,
			"0.0": 0.0,
			"0.0": 0.0,
			"0.0": 0.0,
			"0.0": 0.0,
			"0.0": 0.0,
			"0.0": 0.0,
			"0.0": 0.0,
			"0.0": 0.0,
			"0.0": 0.0,
			"0.0": 0.0,
			"0.0": 0.0,
			"0.0": 0.0,
			"0.0": 0.0,
			"0.0": 0.0,
			"0.0": 0.0,
			"0.0": 0.0,
			"0.0": 0.0
		}
	}
}
