{
	 "smiles": "CC(OC1=C(C)C(C)=CC=C1)C(O)=O", 
	 "Tm": 397.15, 
	 "num_atms": 28, 
	 "gaussian": { 
		 "optdone": 1, 
		 "sigma_profile": "yes", 
		 "theory": "DFT", 
		 "functional": "B3LYP", 
		 "basiset": "6-31G**", 
		 "properties": { 
			 "R2extent": 3154.2904, 
			 "electric_dipole_moment_norm": 1.81113233917, 
			 "electric_quadrupole_moment_norm": 8.58827366471, 
			 "total_energy": -653.297607895, 
			 "HOMO_LUMO_gap": 0.21323, 
			 "cosmo_polarized_energy": -11.72, 
			 "cosmo_cavitation_energy": 31.01, 
			 "cosmo_dispersion_energy": -21.75, 
			 "cosmo_repulsion_energy": 1.74, 
			 "cosmo_total_nonelectrostatic_energy": 11.0, 
			 "SMD_solvation_energy": 6.68 
		},
		"coords": [
			{
				"x": 0.751615892,
				"y": 0.7625181928,
				"z": 3.3152799084,
				"element": "C" 
			},
			{
				"x": -0.2288528473,
				"y": 0.4607514383,
				"z": 2.1795369201,
				"element": "C" 
			},
			{
				"x": 0.5410574655,
				"y": 0.1608343033,
				"z": 1.031630251,
				"element": "O" 
			},
			{
				"x": -0.0861763311,
				"y": -0.38038146,
				"z": -0.0798759683,
				"element": "C" 
			},
			{
				"x": 0.3333238992,
				"y": 0.112510286,
				"z": -1.3287594084,
				"element": "C" 
			},
			{
				"x": 1.3357276367,
				"y": 1.2407368694,
				"z": -1.3711432986,
				"element": "C" 
			},
			{
				"x": -0.2020123251,
				"y": -0.4724122996,
				"z": -2.4934933903,
				"element": "C" 
			},
			{
				"x": 0.2200233565,
				"y": -0.0014007172,
				"z": -3.8678835775,
				"element": "C" 
			},
			{
				"x": -1.1491048345,
				"y": -1.4997876156,
				"z": -2.3811730325,
				"element": "C" 
			},
			{
				"x": -1.5623221646,
				"y": -1.9613681224,
				"z": -1.1346379949,
				"element": "C" 
			},
			{
				"x": -1.0263042972,
				"y": -1.4071998523,
				"z": 0.0264278914,
				"element": "C" 
			},
			{
				"x": -1.1326522075,
				"y": 1.6690320534,
				"z": 1.919651825,
				"element": "C" 
			},
			{
				"x": -2.0955902773,
				"y": 1.7556437556,
				"z": 2.8689134637,
				"element": "O" 
			},
			{
				"x": -1.0121472689,
				"y": 2.4693718705,
				"z": 1.0227520902,
				"element": "O" 
			},
			{
				"x": 1.3860934144,
				"y": -0.1104901792,
				"z": 3.485514315,
				"element": "H" 
			},
			{
				"x": 0.2113644126,
				"y": 0.9988667552,
				"z": 4.2349500755,
				"element": "H" 
			},
			{
				"x": 1.3896485143,
				"y": 1.608503157,
				"z": 3.0456547823,
				"element": "H" 
			},
			{
				"x": -0.8715078264,
				"y": -0.3776791969,
				"z": 2.4725769517,
				"element": "H" 
			},
			{
				"x": 1.3284538814,
				"y": 1.7511282106,
				"z": -2.3359097225,
				"element": "H" 
			},
			{
				"x": 2.3569604062,
				"y": 0.8781429824,
				"z": -1.1957367555,
				"element": "H" 
			},
			{
				"x": 1.1102879553,
				"y": 1.9685150082,
				"z": -0.5894165463,
				"element": "H" 
			},
			{
				"x": -0.2275803038,
				"y": -0.6258702289,
				"z": -4.6456097115,
				"element": "H" 
			},
			{
				"x": -0.0906840818,
				"y": 1.0334671895,
				"z": -4.0566800088,
				"element": "H" 
			},
			{
				"x": 1.3074028347,
				"y": -0.0361789484,
				"z": -3.9959943608,
				"element": "H" 
			},
			{
				"x": -1.5616856544,
				"y": -1.9410068842,
				"z": -3.284487874,
				"element": "H" 
			},
			{
				"x": -2.2923535301,
				"y": -2.7624304092,
				"z": -1.0619821104,
				"element": "H" 
			},
			{
				"x": -1.3230958993,
				"y": -1.7900952122,
				"z": 0.9970634241,
				"element": "H" 
			},
			{
				"x": -2.6065898194,
				"y": 2.5581790541,
				"z": 2.6689318621,
				"element": "H" 
			}
		],
		 "valence_orbital": [ 
			{
				"type": "occ",
				"energy": -0.3231,
				"method": "rhf"
			},
			{
				"type": "occ",
				"energy": -0.29803,
				"method": "rhf"
			},
			{
				"type": "occ",
				"energy": -0.27877,
				"method": "rhf"
			},
			{
				"type": "occ",
				"energy": -0.22891,
				"method": "rhf"
			},
			{
				"type": "occ",
				"energy": -0.21617,
				"method": "rhf"
			},
			{
				"type": "unocc",
				"energy": -0.00294,
				"method": "rhf"
			},
			{
				"type": "unocc",
				"energy": 0.01058,
				"method": "rhf"
			},
			{
				"type": "unocc",
				"energy": 0.01632,
				"method": "rhf"
			},
			{
				"type": "unocc",
				"energy": 0.07094,
				"method": "rhf"
			},
			{
				"type": "unocc",
				"energy": 0.09601,
				"method": "rhf"
			}
		],
		"cosmo_sigma_profile": { 
			"-0.025": 0.0,
			"-0.024": 0.0,
			"-0.023": 0.0,
			"-0.022": 0.0,
			"-0.021": 0.0,
			"-0.02": 0.0,
			"-0.019": 0.148145756016,
			"-0.018": 1.02251468261,
			"-0.017": 0.715332981434,
			"-0.016": 1.13536915194,
			"-0.015": 0.930524753482,
			"-0.014": 0.357528966501,
			"-0.013": 0.521520206863,
			"-0.012": 0.761097683499,
			"-0.011": 0.887759072723,
			"-0.01": 1.07421498129,
			"-0.009": 0.714263809877,
			"-0.008": 2.21219113083,
			"-0.007": 3.88508627005,
			"-0.006": 4.05379972821,
			"-0.005": 11.1925478022,
			"-0.004": 21.9222271258,
			"-0.003": 24.8734396622,
			"-0.002": 23.2695086169,
			"-0.001": 23.3189146579,
			"0.0": 22.3792784989,
			"0.001": 17.0623887522,
			"0.002": 9.76987183705,
			"0.003": 10.6590446943,
			"0.004": 11.8392177107,
			"0.005": 12.0378603978,
			"0.006": 12.3459408722,
			"0.007": 7.45282017076,
			"0.008": 5.47780349986,
			"0.009": 4.8283662343,
			"0.01": 3.07855800592,
			"0.011": 3.30800095144,
			"0.012": 0.980748732246,
			"0.013": 0.0,
			"0.014": 0.0,
			"0.015": 0.0,
			"0.016": 0.0,
			"0.017": 0.0,
			"0.018": 0.0,
			"0.019": 0.0,
			"0.02": 0.0,
			"0.021": 0.0,
			"0.022": 0.0,
			"0.023": 0.0,
			"0.024": 0.0,
			"0.025": 0.0
		}
	}
}
