{
	 "smiles": "CC(C)C1=NC2=C(C(C)=NO2)C(=C1)C(O)=O", 
	 "Tm": 432.15, 
	 "num_atms": 28, 
	 "gaussian": { 
		 "optdone": 1, 
		 "sigma_profile": "yes", 
		 "theory": "DFT", 
		 "functional": "B3LYP", 
		 "basiset": "6-31G**", 
		 "properties": { 
			 "R2extent": 4416.1497, 
			 "electric_dipole_moment_norm": 4.31078743967, 
			 "electric_quadrupole_moment_norm": 12.0178948194, 
			 "total_energy": -761.558034942, 
			 "HOMO_LUMO_gap": 0.18065, 
			 "cosmo_polarized_energy": -17.5, 
			 "cosmo_cavitation_energy": 31.99, 
			 "cosmo_dispersion_energy": -22.95, 
			 "cosmo_repulsion_energy": 1.8, 
			 "cosmo_total_nonelectrostatic_energy": 10.84, 
			 "SMD_solvation_energy": 5.47 
		},
		"coords": [
			{
				"x": -1.871588001,
				"y": 2.1087542153,
				"z": 1.7226903567,
				"element": "C" 
			},
			{
				"x": -0.3982873631,
				"y": 2.2311443594,
				"z": 1.2903228037,
				"element": "C" 
			},
			{
				"x": -0.2332491073,
				"y": 3.2715474251,
				"z": 0.1670871654,
				"element": "C" 
			},
			{
				"x": 0.1435734237,
				"y": 0.8805203728,
				"z": 0.8550527329,
				"element": "C" 
			},
			{
				"x": -0.4377844871,
				"y": 0.315841585,
				"z": -0.2127845666,
				"element": "N" 
			},
			{
				"x": 0.0438880846,
				"y": -0.8677809925,
				"z": -0.5542999309,
				"element": "C" 
			},
			{
				"x": 1.0749731894,
				"y": -1.5976494762,
				"z": 0.0618914239,
				"element": "C" 
			},
			{
				"x": 1.1689513324,
				"y": -2.7946363398,
				"z": -0.7396087966,
				"element": "C" 
			},
			{
				"x": 2.078863404,
				"y": -3.9753714135,
				"z": -0.6224797139,
				"element": "C" 
			},
			{
				"x": 0.2857589606,
				"y": -2.7630241243,
				"z": -1.707534262,
				"element": "N" 
			},
			{
				"x": -0.4365644536,
				"y": -1.5540354858,
				"z": -1.6099691652,
				"element": "O" 
			},
			{
				"x": 1.6931219515,
				"y": -0.9931168696,
				"z": 1.1697368449,
				"element": "C" 
			},
			{
				"x": 1.2043380706,
				"y": 0.2592003056,
				"z": 1.5529195901,
				"element": "C" 
			},
			{
				"x": 2.780511686,
				"y": -1.6751063176,
				"z": 1.9509082991,
				"element": "C" 
			},
			{
				"x": 3.7159590892,
				"y": -0.8600531694,
				"z": 2.4981371183,
				"element": "O" 
			},
			{
				"x": 2.8343266219,
				"y": -2.8693380102,
				"z": 2.1186865824,
				"element": "O" 
			},
			{
				"x": -2.4824087179,
				"y": 1.752247904,
				"z": 0.8884852192,
				"element": "H" 
			},
			{
				"x": -1.9880179397,
				"y": 1.4060703665,
				"z": 2.5540629814,
				"element": "H" 
			},
			{
				"x": -2.2559382292,
				"y": 3.0821087229,
				"z": 2.0438836994,
				"element": "H" 
			},
			{
				"x": 0.1897099564,
				"y": 2.5599121818,
				"z": 2.1568466224,
				"element": "H" 
			},
			{
				"x": -0.781975324,
				"y": 2.9564204153,
				"z": -0.7247615622,
				"element": "H" 
			},
			{
				"x": 0.8184138386,
				"y": 3.4002985615,
				"z": -0.1093542066,
				"element": "H" 
			},
			{
				"x": -0.6210389291,
				"y": 4.2433318213,
				"z": 0.4887284977,
				"element": "H" 
			},
			{
				"x": 1.973725175,
				"y": -4.4460174402,
				"z": 0.3569612662,
				"element": "H" 
			},
			{
				"x": 1.8443227902,
				"y": -4.6919828683,
				"z": -1.4118214002,
				"element": "H" 
			},
			{
				"x": 3.125565779,
				"y": -3.670150063,
				"z": -0.7180251605,
				"element": "H" 
			},
			{
				"x": 1.6053566479,
				"y": 0.7573638665,
				"z": 2.4306085278,
				"element": "H" 
			},
			{
				"x": 3.6063925512,
				"y": 0.0428004672,
				"z": 2.1663290331,
				"element": "H" 
			}
		],
		 "valence_orbital": [ 
			{
				"type": "occ",
				"energy": -0.31846,
				"method": "rhf"
			},
			{
				"type": "occ",
				"energy": -0.30159,
				"method": "rhf"
			},
			{
				"type": "occ",
				"energy": -0.28414,
				"method": "rhf"
			},
			{
				"type": "occ",
				"energy": -0.27781,
				"method": "rhf"
			},
			{
				"type": "occ",
				"energy": -0.26933,
				"method": "rhf"
			},
			{
				"type": "unocc",
				"energy": -0.08868,
				"method": "rhf"
			},
			{
				"type": "unocc",
				"energy": -0.03141,
				"method": "rhf"
			},
			{
				"type": "unocc",
				"energy": 0.01343,
				"method": "rhf"
			},
			{
				"type": "unocc",
				"energy": 0.02565,
				"method": "rhf"
			},
			{
				"type": "unocc",
				"energy": 0.05389,
				"method": "rhf"
			}
		],
		"cosmo_sigma_profile": { 
			"-0.025": 0.0,
			"-0.024": 0.0,
			"-0.023": 0.0,
			"-0.022": 0.0,
			"-0.021": 0.0,
			"-0.02": 0.0,
			"-0.019": 0.706461616092,
			"-0.018": 1.07168018441,
			"-0.017": 1.01200925945,
			"-0.016": 0.44801642649,
			"-0.015": 1.00895656609,
			"-0.014": 1.56541450739,
			"-0.013": 1.30828592724,
			"-0.012": 1.42870902372,
			"-0.011": 0.958966394929,
			"-0.01": 1.04112157154,
			"-0.009": 1.70835171323,
			"-0.008": 3.0473045391,
			"-0.007": 4.34837933715,
			"-0.006": 6.5452823087,
			"-0.005": 7.88971260156,
			"-0.004": 13.0155248324,
			"-0.003": 28.0212329688,
			"-0.002": 32.9307381222,
			"-0.001": 29.7414462355,
			"0.0": 21.8386086616,
			"0.001": 18.2903572784,
			"0.002": 7.94661734798,
			"0.003": 6.41953474706,
			"0.004": 7.14353986129,
			"0.005": 6.07282411596,
			"0.006": 7.04798300765,
			"0.007": 9.47924643879,
			"0.008": 9.07077626299,
			"0.009": 7.00391761498,
			"0.01": 6.54954464509,
			"0.011": 4.49034285987,
			"0.012": 3.08038181558,
			"0.013": 1.25521752922,
			"0.014": 0.188925726502,
			"0.015": 0.0,
			"0.016": 0.0,
			"0.017": 0.0,
			"0.018": 0.0,
			"0.019": 0.0,
			"0.02": 0.0,
			"0.021": 0.0,
			"0.022": 0.0,
			"0.023": 0.0,
			"0.024": 0.0,
			"0.025": 0.0
		}
	}
}
