{
	 "smiles": "COC1=CC(C=C(C)[N+]([O-])=O)=CC=C1", 
	 "Tm": 319.15, 
	 "num_atms": 25, 
	 "gaussian": { 
		 "optdone": 1, 
		 "sigma_profile": "yes", 
		 "theory": "DFT", 
		 "functional": "B3LYP", 
		 "basiset": "6-31G**", 
		 "properties": { 
			 "R2extent": 3540.5878, 
			 "electric_dipole_moment_norm": 2.92832516808, 
			 "electric_quadrupole_moment_norm": 13.7180515136, 
			 "total_energy": -667.987892015, 
			 "HOMO_LUMO_gap": 0.13258, 
			 "cosmo_polarized_energy": -10.39, 
			 "cosmo_cavitation_energy": 29.41, 
			 "cosmo_dispersion_energy": -21.12, 
			 "cosmo_repulsion_energy": 1.65, 
			 "cosmo_total_nonelectrostatic_energy": 9.95, 
			 "SMD_solvation_energy": 8.01 
		},
		"coords": [
			{
				"x": 2.7192812538,
				"y": -1.3233669558,
				"z": -1.3092020022,
				"element": "C" 
			},
			{
				"x": 2.0099080773,
				"y": -0.4201872037,
				"z": -2.1479390718,
				"element": "O" 
			},
			{
				"x": 1.0272700418,
				"y": 0.3419724907,
				"z": -1.5923539215,
				"element": "C" 
			},
			{
				"x": 0.6530249147,
				"y": 0.2798981558,
				"z": -0.2498116597,
				"element": "C" 
			},
			{
				"x": -0.3791302269,
				"y": 1.1083532763,
				"z": 0.2375254937,
				"element": "C" 
			},
			{
				"x": -0.9164377811,
				"y": 1.1110511508,
				"z": 1.6029119086,
				"element": "C" 
			},
			{
				"x": -0.6102757893,
				"y": 0.6078205251,
				"z": 2.8226805867,
				"element": "C" 
			},
			{
				"x": -1.5290359531,
				"y": 0.7373290606,
				"z": 4.0076282816,
				"element": "C" 
			},
			{
				"x": 0.6147986086,
				"y": -0.1286457254,
				"z": 3.1391802581,
				"element": "N" 
			},
			{
				"x": 1.6158260136,
				"y": 0.0123332217,
				"z": 2.430706266,
				"element": "O" 
			},
			{
				"x": 0.5847772414,
				"y": -0.8352269124,
				"z": 4.1503890706,
				"element": "O" 
			},
			{
				"x": -1.0245726408,
				"y": 1.9822641691,
				"z": -0.6603869527,
				"element": "C" 
			},
			{
				"x": -0.6327824933,
				"y": 2.0486628327,
				"z": -1.9966716088,
				"element": "C" 
			},
			{
				"x": 0.3878210243,
				"y": 1.2340364178,
				"z": -2.4697162283,
				"element": "C" 
			},
			{
				"x": 2.0563810979,
				"y": -2.0925522355,
				"z": -0.8934473948,
				"element": "H" 
			},
			{
				"x": 3.4659466426,
				"y": -1.7987360342,
				"z": -1.9467876841,
				"element": "H" 
			},
			{
				"x": 3.2210755791,
				"y": -0.8012801438,
				"z": -0.4856562321,
				"element": "H" 
			},
			{
				"x": 1.1589362064,
				"y": -0.3877640842,
				"z": 0.4273308135,
				"element": "H" 
			},
			{
				"x": -1.860304556,
				"y": 1.65230748,
				"z": 1.6422249688,
				"element": "H" 
			},
			{
				"x": -1.9085384517,
				"y": -0.2395399517,
				"z": 4.3209033193,
				"element": "H" 
			},
			{
				"x": -2.3753817965,
				"y": 1.3789632636,
				"z": 3.7546532396,
				"element": "H" 
			},
			{
				"x": -1.0074700344,
				"y": 1.1647460839,
				"z": 4.8697396169,
				"element": "H" 
			},
			{
				"x": -1.8343296873,
				"y": 2.6126525365,
				"z": -0.3047446942,
				"element": "H" 
			},
			{
				"x": -1.1321219922,
				"y": 2.735096927,
				"z": -2.6737911528,
				"element": "H" 
			},
			{
				"x": 0.709234701,
				"y": 1.264511655,
				"z": -3.5055652206,
				"element": "H" 
			}
		],
		 "valence_orbital": [ 
			{
				"type": "occ",
				"energy": -0.30114,
				"method": "rhf"
			},
			{
				"type": "occ",
				"energy": -0.2978,
				"method": "rhf"
			},
			{
				"type": "occ",
				"energy": -0.28125,
				"method": "rhf"
			},
			{
				"type": "occ",
				"energy": -0.24654,
				"method": "rhf"
			},
			{
				"type": "occ",
				"energy": -0.22547,
				"method": "rhf"
			},
			{
				"type": "unocc",
				"energy": -0.09289,
				"method": "rhf"
			},
			{
				"type": "unocc",
				"energy": -0.02195,
				"method": "rhf"
			},
			{
				"type": "unocc",
				"energy": 0.00338,
				"method": "rhf"
			},
			{
				"type": "unocc",
				"energy": 0.05443,
				"method": "rhf"
			},
			{
				"type": "unocc",
				"energy": 0.07422,
				"method": "rhf"
			}
		],
		"cosmo_sigma_profile": { 
			"-0.025": 0.0,
			"-0.024": 0.0,
			"-0.023": 0.0,
			"-0.022": 0.0,
			"-0.021": 0.0,
			"-0.02": 0.0,
			"-0.019": 0.0,
			"-0.018": 0.0,
			"-0.017": 0.0,
			"-0.016": 0.0,
			"-0.015": 0.0,
			"-0.014": 0.0,
			"-0.013": 0.0,
			"-0.012": 0.0,
			"-0.011": 0.0,
			"-0.01": 0.0,
			"-0.009": 0.688288314031,
			"-0.008": 3.60883693685,
			"-0.007": 5.51240702535,
			"-0.006": 13.6053609879,
			"-0.005": 20.786040213,
			"-0.004": 21.4176313671,
			"-0.003": 22.112083137,
			"-0.002": 18.9345887507,
			"-0.001": 16.9747977991,
			"0.0": 13.1675240816,
			"0.001": 12.2262415959,
			"0.002": 12.8458281567,
			"0.003": 15.5453380111,
			"0.004": 15.1567270669,
			"0.005": 6.93333237188,
			"0.006": 5.04935736017,
			"0.007": 6.21477637674,
			"0.008": 10.3799289729,
			"0.009": 6.26771439602,
			"0.01": 5.41609082333,
			"0.011": 1.47138802666,
			"0.012": 0.0,
			"0.013": 0.0,
			"0.014": 0.0,
			"0.015": 0.0,
			"0.016": 0.0,
			"0.017": 0.0,
			"0.018": 0.0,
			"0.019": 0.0,
			"0.02": 0.0,
			"0.021": 0.0,
			"0.022": 0.0,
			"0.023": 0.0,
			"0.024": 0.0,
			"0.025": 0.0
		}
	}
}
