{
	 "smiles": "NC1=NC(SCC2=CC=CC=C2)=NS1", 
	 "Tm": 378.15, 
	 "num_atms": 23, 
	 "gaussian": { 
		 "optdone": 1, 
		 "sigma_profile": "yes", 
		 "theory": "DFT", 
		 "functional": "B3LYP", 
		 "basiset": "6-31G**", 
		 "properties": { 
			 "R2extent": 4415.5573, 
			 "electric_dipole_moment_norm": 4.95184063253, 
			 "electric_quadrupole_moment_norm": 25.7113598013, 
			 "total_energy": -1309.00432728, 
			 "HOMO_LUMO_gap": 0.19201, 
			 "cosmo_polarized_energy": -16.81, 
			 "cosmo_cavitation_energy": 30.76, 
			 "cosmo_dispersion_energy": -23.03, 
			 "cosmo_repulsion_energy": 1.74, 
			 "cosmo_total_nonelectrostatic_energy": 9.47, 
			 "SMD_solvation_energy": 2.47 
		},
		"coords": [
			{
				"x": 1.3767034454,
				"y": -4.1538331564,
				"z": -0.7615594323,
				"element": "N" 
			},
			{
				"x": 0.3802159908,
				"y": -3.3415496199,
				"z": -1.2065081691,
				"element": "C" 
			},
			{
				"x": 0.5380667336,
				"y": -2.062830211,
				"z": -1.4534231675,
				"element": "N" 
			},
			{
				"x": -0.6497855077,
				"y": -1.5642951648,
				"z": -1.9363375461,
				"element": "C" 
			},
			{
				"x": -0.7949461235,
				"y": 0.119703757,
				"z": -2.4761026825,
				"element": "S" 
			},
			{
				"x": 0.6988483013,
				"y": 0.9076941178,
				"z": -1.7099678197,
				"element": "C" 
			},
			{
				"x": 0.5224272184,
				"y": 1.3551609607,
				"z": -0.2811150724,
				"element": "C" 
			},
			{
				"x": -0.061182715,
				"y": 2.5957866436,
				"z": 0.0108983702,
				"element": "C" 
			},
			{
				"x": -0.2209649295,
				"y": 3.0159190069,
				"z": 1.3307517471,
				"element": "C" 
			},
			{
				"x": 0.2031681238,
				"y": 2.1995535618,
				"z": 2.3816969831,
				"element": "C" 
			},
			{
				"x": 0.7868298713,
				"y": 0.9628804455,
				"z": 2.1019848004,
				"element": "C" 
			},
			{
				"x": 0.9456616674,
				"y": 0.5439223359,
				"z": 0.7802746483,
				"element": "C" 
			},
			{
				"x": -1.7045741809,
				"y": -2.3330261734,
				"z": -2.0675127487,
				"element": "N" 
			},
			{
				"x": -1.2448415871,
				"y": -3.8930431905,
				"z": -1.5899718116,
				"element": "S" 
			},
			{
				"x": 1.1416088299,
				"y": -5.0260077811,
				"z": -0.315008984,
				"element": "H" 
			},
			{
				"x": 2.208762988,
				"y": -3.6891550558,
				"z": -0.4277470593,
				"element": "H" 
			},
			{
				"x": 0.8904065054,
				"y": 1.7611412031,
				"z": -2.3664127164,
				"element": "H" 
			},
			{
				"x": 1.5209109249,
				"y": 0.1993332114,
				"z": -1.8162114027,
				"element": "H" 
			},
			{
				"x": -0.3935309825,
				"y": 3.235833946,
				"z": -0.8030331685,
				"element": "H" 
			},
			{
				"x": -0.6734543795,
				"y": 3.9813592477,
				"z": 1.5390925339,
				"element": "H" 
			},
			{
				"x": 0.0812714151,
				"y": 2.5265375081,
				"z": 3.4103814161,
				"element": "H" 
			},
			{
				"x": 1.1213735305,
				"y": 0.3236142175,
				"z": 2.9145218837,
				"element": "H" 
			},
			{
				"x": 1.3916248601,
				"y": -0.42099981,
				"z": 0.5594093978,
				"element": "H" 
			}
		],
		 "valence_orbital": [ 
			{
				"type": "occ",
				"energy": -0.28032,
				"method": "rhf"
			},
			{
				"type": "occ",
				"energy": -0.25765,
				"method": "rhf"
			},
			{
				"type": "occ",
				"energy": -0.2474,
				"method": "rhf"
			},
			{
				"type": "occ",
				"energy": -0.24219,
				"method": "rhf"
			},
			{
				"type": "occ",
				"energy": -0.21381,
				"method": "rhf"
			},
			{
				"type": "unocc",
				"energy": -0.0218,
				"method": "rhf"
			},
			{
				"type": "unocc",
				"energy": -0.01508,
				"method": "rhf"
			},
			{
				"type": "unocc",
				"energy": -0.0048,
				"method": "rhf"
			},
			{
				"type": "unocc",
				"energy": 0.00192,
				"method": "rhf"
			},
			{
				"type": "unocc",
				"energy": 0.04111,
				"method": "rhf"
			}
		],
		"cosmo_sigma_profile": { 
			"-0.025": 0.0,
			"-0.024": 0.0,
			"-0.023": 0.0,
			"-0.022": 0.0,
			"-0.021": 0.0,
			"-0.02": 0.0,
			"-0.019": 0.0,
			"-0.018": 0.0,
			"-0.017": 0.0,
			"-0.016": 1.11847283061,
			"-0.015": 2.46365087889,
			"-0.014": 3.03726691124,
			"-0.013": 2.61530357229,
			"-0.012": 3.00546585269,
			"-0.011": 2.54197815925,
			"-0.01": 1.43717745192,
			"-0.009": 1.44301919892,
			"-0.008": 2.26296497735,
			"-0.007": 4.94759738846,
			"-0.006": 8.24772175468,
			"-0.005": 13.6922831441,
			"-0.004": 13.9543591806,
			"-0.003": 16.7117946971,
			"-0.002": 15.6717956474,
			"-0.001": 15.8217259404,
			"0.0": 16.3939599364,
			"0.001": 15.7370415586,
			"0.002": 18.6441239883,
			"0.003": 20.3644690369,
			"0.004": 18.7737482129,
			"0.005": 15.7124249647,
			"0.006": 15.7517624942,
			"0.007": 7.2473381323,
			"0.008": 4.39534182431,
			"0.009": 2.48833012757,
			"0.01": 0.808139925354,
			"0.011": 1.12966664594,
			"0.012": 1.84393760367,
			"0.013": 0.809540919587,
			"0.014": 1.09537618521,
			"0.015": 0.339560838031,
			"0.016": 0.0,
			"0.017": 0.0,
			"0.018": 0.0,
			"0.019": 0.0,
			"0.02": 0.0,
			"0.021": 0.0,
			"0.022": 0.0,
			"0.023": 0.0,
			"0.024": 0.0,
			"0.025": 0.0
		}
	}
}
