{
	 "smiles": "CCOC(=O)C1=C(C)C2=C(S1)N=C(NC2=O)C(C)Cl", 
	 "Tm": 441.15, 
	 "num_atms": 32, 
	 "gaussian": { 
		 "optdone": 1, 
		 "sigma_profile": "yes", 
		 "theory": "DFT", 
		 "functional": "B3LYP", 
		 "basiset": "6-31G**", 
		 "properties": { 
			 "R2extent": 10015.532, 
			 "electric_dipole_moment_norm": 1.6909965612, 
			 "electric_quadrupole_moment_norm": 25.3972215764, 
			 "total_energy": -1658.71965456, 
			 "HOMO_LUMO_gap": 0.15846, 
			 "cosmo_polarized_energy": -14.57, 
			 "cosmo_cavitation_energy": 39.35, 
			 "cosmo_dispersion_energy": -28.57, 
			 "cosmo_repulsion_energy": 2.18, 
			 "cosmo_total_nonelectrostatic_energy": 12.95, 
			 "SMD_solvation_energy": 6.06 
		},
		"coords": [
			{
				"x": 4.1696390458,
				"y": -2.1176945915,
				"z": 3.4748236728,
				"element": "C" 
			},
			{
				"x": 2.9606745938,
				"y": -3.0342567302,
				"z": 3.583039437,
				"element": "C" 
			},
			{
				"x": 1.9075479274,
				"y": -2.6303616747,
				"z": 2.671527503,
				"element": "O" 
			},
			{
				"x": 1.0748812774,
				"y": -1.6629911867,
				"z": 3.1136336502,
				"element": "C" 
			},
			{
				"x": 1.1621188411,
				"y": -1.1349783919,
				"z": 4.2095073973,
				"element": "O" 
			},
			{
				"x": 0.036451233,
				"y": -1.3069512596,
				"z": 2.1341625089,
				"element": "C" 
			},
			{
				"x": -0.2247735454,
				"y": -1.7830955378,
				"z": 0.8618341512,
				"element": "C" 
			},
			{
				"x": 0.5522578357,
				"y": -2.8557128029,
				"z": 0.1439635022,
				"element": "C" 
			},
			{
				"x": -1.3591749073,
				"y": -1.1095836146,
				"z": 0.2969347774,
				"element": "C" 
			},
			{
				"x": -1.921200618,
				"y": -0.1528145017,
				"z": 1.151251546,
				"element": "C" 
			},
			{
				"x": -1.0767085352,
				"y": -0.0531625565,
				"z": 2.659651406,
				"element": "S" 
			},
			{
				"x": -3.0043743208,
				"y": 0.6354101573,
				"z": 0.8930743648,
				"element": "N" 
			},
			{
				"x": -3.5448983986,
				"y": 0.4627248013,
				"z": -0.2802806585,
				"element": "C" 
			},
			{
				"x": -3.0833042878,
				"y": -0.4363574672,
				"z": -1.1939994196,
				"element": "N" 
			},
			{
				"x": -1.9769581083,
				"y": -1.3046045764,
				"z": -1.0073896617,
				"element": "C" 
			},
			{
				"x": -1.6692993677,
				"y": -2.0825582536,
				"z": -1.899786563,
				"element": "O" 
			},
			{
				"x": -4.6804944672,
				"y": 1.388595616,
				"z": -0.6629939234,
				"element": "C" 
			},
			{
				"x": -4.1948933089,
				"y": 2.6106462952,
				"z": -1.4418723186,
				"element": "C" 
			},
			{
				"x": -5.951993069,
				"y": 0.4988150123,
				"z": -1.6344633225,
				"element": "Cl" 
			},
			{
				"x": 4.5396079425,
				"y": -2.0793659867,
				"z": 2.4459891654,
				"element": "H" 
			},
			{
				"x": 3.9147594346,
				"y": -1.1060895171,
				"z": 3.7992683099,
				"element": "H" 
			},
			{
				"x": 4.9751512177,
				"y": -2.4913018371,
				"z": 4.1157965972,
				"element": "H" 
			},
			{
				"x": 3.2013451071,
				"y": -4.0549750332,
				"z": 3.2770953525,
				"element": "H" 
			},
			{
				"x": 2.5607065365,
				"y": -3.0426925519,
				"z": 4.599397288,
				"element": "H" 
			},
			{
				"x": 1.6040915004,
				"y": -2.572323341,
				"z": 0.0482065237,
				"element": "H" 
			},
			{
				"x": 0.1290787812,
				"y": -3.0249372207,
				"z": -0.8449512094,
				"element": "H" 
			},
			{
				"x": 0.5334004624,
				"y": -3.7903928961,
				"z": 0.7116735546,
				"element": "H" 
			},
			{
				"x": -3.5873071753,
				"y": -0.5677596334,
				"z": -2.0650409617,
				"element": "H" 
			},
			{
				"x": -5.170100838,
				"y": 1.6877550308,
				"z": 0.262897825,
				"element": "H" 
			},
			{
				"x": -5.0327728166,
				"y": 3.2740232834,
				"z": -1.6668508709,
				"element": "H" 
			},
			{
				"x": -3.4682943675,
				"y": 3.1542803388,
				"z": -0.8299282206,
				"element": "H" 
			},
			{
				"x": -3.7161636051,
				"y": 2.3189106271,
				"z": -2.3803714034,
				"element": "H" 
			}
		],
		 "valence_orbital": [ 
			{
				"type": "occ",
				"energy": -0.29881,
				"method": "rhf"
			},
			{
				"type": "occ",
				"energy": -0.28205,
				"method": "rhf"
			},
			{
				"type": "occ",
				"energy": -0.27136,
				"method": "rhf"
			},
			{
				"type": "occ",
				"energy": -0.2649,
				"method": "rhf"
			},
			{
				"type": "occ",
				"energy": -0.2323,
				"method": "rhf"
			},
			{
				"type": "unocc",
				"energy": -0.07384,
				"method": "rhf"
			},
			{
				"type": "unocc",
				"energy": -0.03105,
				"method": "rhf"
			},
			{
				"type": "unocc",
				"energy": -0.01505,
				"method": "rhf"
			},
			{
				"type": "unocc",
				"energy": 0.01122,
				"method": "rhf"
			},
			{
				"type": "unocc",
				"energy": 0.01986,
				"method": "rhf"
			}
		],
		"cosmo_sigma_profile": { 
			"-0.025": 0.0,
			"-0.024": 0.0,
			"-0.023": 0.0,
			"-0.022": 0.0,
			"-0.021": 0.0,
			"-0.02": 0.0,
			"-0.019": 0.0,
			"-0.018": 0.0,
			"-0.017": 0.0,
			"-0.016": 0.0,
			"-0.015": 0.01903950197,
			"-0.014": 0.418197905737,
			"-0.013": 0.90339736018,
			"-0.012": 1.04505322414,
			"-0.011": 1.31861436806,
			"-0.01": 1.27983389291,
			"-0.009": 2.14060843001,
			"-0.008": 2.66109651972,
			"-0.007": 2.9375683423,
			"-0.006": 9.28030382736,
			"-0.005": 17.7648216456,
			"-0.004": 27.047499903,
			"-0.003": 27.3011941658,
			"-0.002": 30.841543447,
			"-0.001": 38.6211535245,
			"0.0": 35.382642899,
			"0.001": 23.5063267238,
			"0.002": 19.3472869836,
			"0.003": 15.8827507452,
			"0.004": 12.2091195824,
			"0.005": 10.7178324014,
			"0.006": 6.0162170939,
			"0.007": 3.64434565825,
			"0.008": 3.715349322,
			"0.009": 3.27767665157,
			"0.01": 4.45679959407,
			"0.011": 6.29037041253,
			"0.012": 7.69117897815,
			"0.013": 1.24659751273,
			"0.014": 0.0,
			"0.015": 0.0,
			"0.016": 0.0,
			"0.017": 0.0,
			"0.018": 0.0,
			"0.019": 0.0,
			"0.02": 0.0,
			"0.021": 0.0,
			"0.022": 0.0,
			"0.023": 0.0,
			"0.024": 0.0,
			"0.025": 0.0
		}
	}
}
