{
	 "smiles": "NCCC(O)(C1=CC=CC=C1)C(F)(F)F", 
	 "Tm": 384.15, 
	 "num_atms": 27, 
	 "gaussian": { 
		 "optdone": 1, 
		 "sigma_profile": "yes", 
		 "theory": "DFT", 
		 "functional": "B3LYP", 
		 "basiset": "6-31G**", 
		 "properties": { 
			 "R2extent": 3470.345, 
			 "electric_dipole_moment_norm": 3.63558358864, 
			 "electric_quadrupole_moment_norm": 9.53397701224, 
			 "total_energy": -817.784881477, 
			 "HOMO_LUMO_gap": 0.21672, 
			 "cosmo_polarized_energy": -12.58, 
			 "cosmo_cavitation_energy": 30.15, 
			 "cosmo_dispersion_energy": -21.17, 
			 "cosmo_repulsion_energy": 1.61, 
			 "cosmo_total_nonelectrostatic_energy": 10.59, 
			 "SMD_solvation_energy": 4.71 
		},
		"coords": [
			{
				"x": -2.671801001,
				"y": 1.8252251627,
				"z": -2.1918854263,
				"element": "N" 
			},
			{
				"x": -1.9056318319,
				"y": 1.1232472305,
				"z": -1.1609165419,
				"element": "C" 
			},
			{
				"x": -0.6415190154,
				"y": 0.4100243876,
				"z": -1.6981185642,
				"element": "C" 
			},
			{
				"x": 0.2565272284,
				"y": -0.4363868806,
				"z": -0.7535459057,
				"element": "C" 
			},
			{
				"x": 1.5702440485,
				"y": -0.4962934479,
				"z": -1.3201934718,
				"element": "O" 
			},
			{
				"x": -0.2458720687,
				"y": -1.8588609869,
				"z": -0.4710280459,
				"element": "C" 
			},
			{
				"x": 0.6659159062,
				"y": -2.8022642982,
				"z": 0.0315626213,
				"element": "C" 
			},
			{
				"x": 0.2694257753,
				"y": -4.1144764476,
				"z": 0.2824137175,
				"element": "C" 
			},
			{
				"x": -1.0456254411,
				"y": -4.5116997005,
				"z": 0.0324370831,
				"element": "C" 
			},
			{
				"x": -1.9577512551,
				"y": -3.5854562928,
				"z": -0.4715377268,
				"element": "C" 
			},
			{
				"x": -1.5608637138,
				"y": -2.269981016,
				"z": -0.7215233643,
				"element": "C" 
			},
			{
				"x": 0.4856782839,
				"y": 0.3141613838,
				"z": 0.5784318427,
				"element": "C" 
			},
			{
				"x": -0.6443001906,
				"y": 0.3265716533,
				"z": 1.3201546121,
				"element": "F" 
			},
			{
				"x": 0.8432300241,
				"y": 1.5982220027,
				"z": 0.3620738609,
				"element": "F" 
			},
			{
				"x": 1.4509029587,
				"y": -0.2487601222,
				"z": 1.325556519,
				"element": "F" 
			},
			{
				"x": -2.9498788398,
				"y": 1.1782818584,
				"z": -2.9269564119,
				"element": "H" 
			},
			{
				"x": -2.0892731771,
				"y": 2.5295378931,
				"z": -2.639515597,
				"element": "H" 
			},
			{
				"x": -1.6177912244,
				"y": 1.8566637565,
				"z": -0.4037180857,
				"element": "H" 
			},
			{
				"x": -2.578939017,
				"y": 0.4224226521,
				"z": -0.6584146773,
				"element": "H" 
			},
			{
				"x": -0.9276423808,
				"y": -0.2404095042,
				"z": -2.535168952,
				"element": "H" 
			},
			{
				"x": 0.0234625578,
				"y": 1.17579364,
				"z": -2.110329774,
				"element": "H" 
			},
			{
				"x": 1.5332003295,
				"y": -1.1234424138,
				"z": -2.0544068688,
				"element": "H" 
			},
			{
				"x": 1.6884623024,
				"y": -2.4973551139,
				"z": 0.2207059051,
				"element": "H" 
			},
			{
				"x": 0.9900134649,
				"y": -4.8275897076,
				"z": 0.6725102985,
				"element": "H" 
			},
			{
				"x": -1.3551604438,
				"y": -5.5346444784,
				"z": 0.2260933082,
				"element": "H" 
			},
			{
				"x": -2.9823678516,
				"y": -3.8831716833,
				"z": -0.6748414558,
				"element": "H" 
			},
			{
				"x": -2.2890454274,
				"y": -1.572559527,
				"z": -1.1174388993,
				"element": "H" 
			}
		],
		 "valence_orbital": [ 
			{
				"type": "occ",
				"energy": -0.32973,
				"method": "rhf"
			},
			{
				"type": "occ",
				"energy": -0.29878,
				"method": "rhf"
			},
			{
				"type": "occ",
				"energy": -0.25918,
				"method": "rhf"
			},
			{
				"type": "occ",
				"energy": -0.25613,
				"method": "rhf"
			},
			{
				"type": "occ",
				"energy": -0.23529,
				"method": "rhf"
			},
			{
				"type": "unocc",
				"energy": -0.01857,
				"method": "rhf"
			},
			{
				"type": "unocc",
				"energy": -0.01035,
				"method": "rhf"
			},
			{
				"type": "unocc",
				"energy": 0.06787,
				"method": "rhf"
			},
			{
				"type": "unocc",
				"energy": 0.07573,
				"method": "rhf"
			},
			{
				"type": "unocc",
				"energy": 0.09255,
				"method": "rhf"
			}
		],
		"cosmo_sigma_profile": { 
			"-0.025": 0.0,
			"-0.024": 0.0,
			"-0.023": 0.0,
			"-0.022": 0.0,
			"-0.021": 0.0,
			"-0.02": 0.0,
			"-0.019": 0.0,
			"-0.018": 0.0,
			"-0.017": 0.0653641701132,
			"-0.016": 0.645606764325,
			"-0.015": 0.727839658203,
			"-0.014": 1.08357407342,
			"-0.013": 0.839156464909,
			"-0.012": 0.665408577068,
			"-0.011": 0.622918004185,
			"-0.01": 1.57353167947,
			"-0.009": 3.61462939606,
			"-0.008": 4.74269173841,
			"-0.007": 5.85841015769,
			"-0.006": 11.7180469486,
			"-0.005": 15.0622126485,
			"-0.004": 16.4878053855,
			"-0.003": 16.6282532043,
			"-0.002": 12.379855892,
			"-0.001": 13.7081708975,
			"0.0": 13.5853558746,
			"0.001": 14.5287731877,
			"0.002": 23.9783992066,
			"0.003": 32.5619311347,
			"0.004": 13.3092208469,
			"0.005": 11.5527257627,
			"0.006": 4.45017308969,
			"0.007": 2.76431414817,
			"0.008": 1.68868956472,
			"0.009": 1.51971142837,
			"0.01": 2.40876620824,
			"0.011": 2.49820292963,
			"0.012": 1.2200150392,
			"0.013": 0.608512514593,
			"0.014": 0.925186451593,
			"0.015": 0.710585032991,
			"0.016": 0.475154302904,
			"0.017": 0.50109715377,
			"0.018": 0.769149671174,
			"0.019": 0.668577574546,
			"0.02": 0.267300856835,
			"0.021": 0.0,
			"0.022": 0.0,
			"0.023": 0.0,
			"0.024": 0.0,
			"0.025": 0.0
		}
	}
}
