{
	 "smiles": "CC1=NSC2=C1C=C(C=N2)C(O)=O", 
	 "Tm": 453.15, 
	 "num_atms": 19, 
	 "gaussian": { 
		 "optdone": 1, 
		 "sigma_profile": "yes", 
		 "theory": "DFT", 
		 "functional": "B3LYP", 
		 "basiset": "6-31G**", 
		 "properties": { 
			 "R2extent": 3016.1733, 
			 "electric_dipole_moment_norm": 4.14375506395, 
			 "electric_quadrupole_moment_norm": 21.6378852245, 
			 "total_energy": -966.6046116, 
			 "HOMO_LUMO_gap": 0.17941, 
			 "cosmo_polarized_energy": -18.49, 
			 "cosmo_cavitation_energy": 25.8, 
			 "cosmo_dispersion_energy": -19.62, 
			 "cosmo_repulsion_energy": 1.48, 
			 "cosmo_total_nonelectrostatic_energy": 7.67, 
			 "SMD_solvation_energy": 2.32 
		},
		"coords": [
			{
				"x": -2.0527601266,
				"y": -1.6391985166,
				"z": 2.1010753135,
				"element": "C" 
			},
			{
				"x": -1.665917279,
				"y": -1.5134373361,
				"z": 0.6558685263,
				"element": "C" 
			},
			{
				"x": -2.0087397529,
				"y": -2.4469038425,
				"z": -0.1958779878,
				"element": "N" 
			},
			{
				"x": -1.4699715165,
				"y": -2.0930720184,
				"z": -1.7687614472,
				"element": "S" 
			},
			{
				"x": -0.7206054655,
				"y": -0.5889865035,
				"z": -1.2912421522,
				"element": "C" 
			},
			{
				"x": -0.9152837749,
				"y": -0.4089499347,
				"z": 0.0983353411,
				"element": "C" 
			},
			{
				"x": -0.380292215,
				"y": 0.7482294347,
				"z": 0.6764578979,
				"element": "C" 
			},
			{
				"x": 0.3014171024,
				"y": 1.6414860149,
				"z": -0.1483727367,
				"element": "C" 
			},
			{
				"x": 0.4054334335,
				"y": 1.3506861335,
				"z": -1.5314889493,
				"element": "C" 
			},
			{
				"x": -0.0818195951,
				"y": 0.2558293888,
				"z": -2.1063245989,
				"element": "N" 
			},
			{
				"x": 0.8930199281,
				"y": 2.9306270482,
				"z": 0.3309785242,
				"element": "C" 
			},
			{
				"x": 1.1773992284,
				"y": 3.01882814,
				"z": 1.6582579049,
				"element": "O" 
			},
			{
				"x": 1.1125380533,
				"y": 3.865943671,
				"z": -0.4005088956,
				"element": "O" 
			},
			{
				"x": -1.1669450391,
				"y": -1.657565429,
				"z": 2.7465209585,
				"element": "H" 
			},
			{
				"x": -2.6135207626,
				"y": -2.5626084862,
				"z": 2.2517051022,
				"element": "H" 
			},
			{
				"x": -2.6755361231,
				"y": -0.7943137611,
				"z": 2.4168491563,
				"element": "H" 
			},
			{
				"x": -0.530636671,
				"y": 0.9491899505,
				"z": 1.7349215262,
				"element": "H" 
			},
			{
				"x": 0.9175751554,
				"y": 2.0627082506,
				"z": -2.1727154009,
				"element": "H" 
			},
			{
				"x": 1.1328454202,
				"y": 2.1473077958,
				"z": 2.0747219172,
				"element": "H" 
			}
		],
		 "valence_orbital": [ 
			{
				"type": "occ",
				"energy": -0.31542,
				"method": "rhf"
			},
			{
				"type": "occ",
				"energy": -0.29282,
				"method": "rhf"
			},
			{
				"type": "occ",
				"energy": -0.28332,
				"method": "rhf"
			},
			{
				"type": "occ",
				"energy": -0.2793,
				"method": "rhf"
			},
			{
				"type": "occ",
				"energy": -0.26002,
				"method": "rhf"
			},
			{
				"type": "unocc",
				"energy": -0.08061,
				"method": "rhf"
			},
			{
				"type": "unocc",
				"energy": -0.0656,
				"method": "rhf"
			},
			{
				"type": "unocc",
				"energy": -0.0064,
				"method": "rhf"
			},
			{
				"type": "unocc",
				"energy": -0.00117,
				"method": "rhf"
			},
			{
				"type": "unocc",
				"energy": 0.0349,
				"method": "rhf"
			}
		],
		"cosmo_sigma_profile": { 
			"-0.025": 0.0,
			"-0.024": 0.0,
			"-0.023": 0.0,
			"-0.022": 0.0,
			"-0.021": 0.0,
			"-0.02": 0.142910344949,
			"-0.019": 1.22229768082,
			"-0.018": 1.04732325337,
			"-0.017": 1.0030620938,
			"-0.016": 1.11593165517,
			"-0.015": 1.03775832057,
			"-0.014": 1.35093632636,
			"-0.013": 0.749840190715,
			"-0.012": 1.3654363258,
			"-0.011": 1.22833767911,
			"-0.01": 1.52001088844,
			"-0.009": 1.7801155854,
			"-0.008": 3.42957657228,
			"-0.007": 5.2998928553,
			"-0.006": 9.24319189888,
			"-0.005": 10.0587139266,
			"-0.004": 10.9049444494,
			"-0.003": 14.6661693761,
			"-0.002": 23.4372827519,
			"-0.001": 20.3462871805,
			"0.0": 14.7886444774,
			"0.001": 12.217467873,
			"0.002": 9.99044569472,
			"0.003": 9.3208716142,
			"0.004": 5.51818562992,
			"0.005": 5.85478782176,
			"0.006": 4.82716037919,
			"0.007": 3.56796216445,
			"0.008": 5.04081352746,
			"0.009": 5.95443267614,
			"0.01": 6.8424449412,
			"0.011": 7.91869132846,
			"0.012": 4.35095025785,
			"0.013": 1.91625106794,
			"0.014": 0.967375855698,
			"0.015": 0.0157369131437,
			"0.016": 0.0,
			"0.017": 0.0,
			"0.018": 0.0,
			"0.019": 0.0,
			"0.02": 0.0,
			"0.021": 0.0,
			"0.022": 0.0,
			"0.023": 0.0,
			"0.024": 0.0,
			"0.025": 0.0
		}
	}
}
