{
	 "smiles": "C[C@H]1CC11[C@@H](OC(C)=O)C(=O)C2=C([C@H](O)[C@@H](OC(C)=O)[C@H]3C(C)(C)C(=O)CC[C@]23C)C1=O", 
	 "Tm": 474.15, 
	 "num_atms": 62, 
	 "gaussian": { 
		 "optdone": 1, 
		 "sigma_profile": "yes", 
		 "theory": "DFT", 
		 "functional": "B3LYP", 
		 "basiset": "6-31G**", 
		 "properties": { 
			 "R2extent": 13699.1462, 
			 "electric_dipole_moment_norm": 3.14382686864, 
			 "electric_quadrupole_moment_norm": 25.8058637699, 
			 "total_energy": -1534.40952297, 
			 "HOMO_LUMO_gap": 0.13737, 
			 "cosmo_polarized_energy": -23.45, 
			 "cosmo_cavitation_energy": 58.85, 
			 "cosmo_dispersion_energy": -36.97, 
			 "cosmo_repulsion_energy": 2.75, 
			 "cosmo_total_nonelectrostatic_energy": 24.63, 
			 "SMD_solvation_energy": 12.74 
		},
		"coords": [
			{
				"x": 3.006140244,
				"y": -4.6489342083,
				"z": -0.9876566907,
				"element": "C" 
			},
			{
				"x": 3.3912844018,
				"y": -3.2255246543,
				"z": -0.6426581578,
				"element": "C" 
			},
			{
				"x": 3.7365622576,
				"y": -2.2226028549,
				"z": -1.6935954065,
				"element": "C" 
			},
			{
				"x": 2.456790591,
				"y": -2.0416512295,
				"z": -0.8592577106,
				"element": "C" 
			},
			{
				"x": 1.1201087204,
				"y": -2.1921859809,
				"z": -1.5362355209,
				"element": "C" 
			},
			{
				"x": 0.1718118094,
				"y": -2.7862031352,
				"z": -0.6015738278,
				"element": "O" 
			},
			{
				"x": -0.4766880697,
				"y": -3.9208729974,
				"z": -0.9984952818,
				"element": "C" 
			},
			{
				"x": -1.4714441199,
				"y": -4.3473451086,
				"z": 0.0523667785,
				"element": "C" 
			},
			{
				"x": -0.2701986413,
				"y": -4.4885039708,
				"z": -2.0456780201,
				"element": "O" 
			},
			{
				"x": 0.4961537265,
				"y": -0.8425234777,
				"z": -1.9092582403,
				"element": "C" 
			},
			{
				"x": -0.0545247085,
				"y": -0.7128131975,
				"z": -2.9896131518,
				"element": "O" 
			},
			{
				"x": 0.5514484587,
				"y": 0.2443781714,
				"z": -0.8753726328,
				"element": "C" 
			},
			{
				"x": 1.539295856,
				"y": 0.1891141501,
				"z": 0.0551836641,
				"element": "C" 
			},
			{
				"x": 1.752495132,
				"y": 1.2449770784,
				"z": 1.1259431582,
				"element": "C" 
			},
			{
				"x": 1.3634267371,
				"y": 0.7296983044,
				"z": 2.3966213076,
				"element": "O" 
			},
			{
				"x": 0.9389231389,
				"y": 2.5122119311,
				"z": 0.8709967891,
				"element": "C" 
			},
			{
				"x": 1.6351162934,
				"y": 3.2821907712,
				"z": -0.1420855097,
				"element": "O" 
			},
			{
				"x": 2.4667623278,
				"y": 4.2693168896,
				"z": 0.2877534346,
				"element": "C" 
			},
			{
				"x": 3.1033573015,
				"y": 4.9752062775,
				"z": -0.8845706896,
				"element": "C" 
			},
			{
				"x": 2.6454854899,
				"y": 4.5421656288,
				"z": 1.4533630497,
				"element": "O" 
			},
			{
				"x": -0.4779449312,
				"y": 2.1546326685,
				"z": 0.4189793777,
				"element": "C" 
			},
			{
				"x": -1.510406909,
				"y": 3.3341185554,
				"z": 0.4967552508,
				"element": "C" 
			},
			{
				"x": -1.9930370592,
				"y": 3.4782029843,
				"z": 1.967764335,
				"element": "C" 
			},
			{
				"x": -0.988812573,
				"y": 4.7111359741,
				"z": 0.0423745383,
				"element": "C" 
			},
			{
				"x": -2.7684633615,
				"y": 2.9637677722,
				"z": -0.3150814267,
				"element": "C" 
			},
			{
				"x": -3.5018707547,
				"y": 3.8088447554,
				"z": -0.7937730713,
				"element": "O" 
			},
			{
				"x": -3.0785898805,
				"y": 1.479351684,
				"z": -0.4105849864,
				"element": "C" 
			},
			{
				"x": -1.9140103935,
				"y": 0.6284032077,
				"z": -0.9818344973,
				"element": "C" 
			},
			{
				"x": -0.5193845221,
				"y": 1.341536831,
				"z": -0.91697058,
				"element": "C" 
			},
			{
				"x": -0.3427021777,
				"y": 2.2143147105,
				"z": -2.189462478,
				"element": "C" 
			},
			{
				"x": 2.5122358775,
				"y": -0.9432711358,
				"z": 0.1520895887,
				"element": "C" 
			},
			{
				"x": 3.3571861244,
				"y": -0.9276923147,
				"z": 1.046146925,
				"element": "O" 
			},
			{
				"x": 2.4561029844,
				"y": -5.1166957012,
				"z": -0.1646409322,
				"element": "H" 
			},
			{
				"x": 2.3833291314,
				"y": -4.7165774734,
				"z": -1.8829445371,
				"element": "H" 
			},
			{
				"x": 3.9094446034,
				"y": -5.2434135688,
				"z": -1.1617161477,
				"element": "H" 
			},
			{
				"x": 3.9566900803,
				"y": -3.1159471647,
				"z": 0.2796664334,
				"element": "H" 
			},
			{
				"x": 4.5448465076,
				"y": -1.522369707,
				"z": -1.5074822837,
				"element": "H" 
			},
			{
				"x": 3.5916717344,
				"y": -2.4909804193,
				"z": -2.737033008,
				"element": "H" 
			},
			{
				"x": 1.1569980702,
				"y": -2.8080819739,
				"z": -2.4338327048,
				"element": "H" 
			},
			{
				"x": -1.8781579242,
				"y": -5.3231750475,
				"z": -0.2106613873,
				"element": "H" 
			},
			{
				"x": -2.2833768554,
				"y": -3.6153319678,
				"z": 0.1075239758,
				"element": "H" 
			},
			{
				"x": -0.9963877247,
				"y": -4.3838907473,
				"z": 1.0361534102,
				"element": "H" 
			},
			{
				"x": 2.8146505019,
				"y": 1.5162796825,
				"z": 1.139031245,
				"element": "H" 
			},
			{
				"x": 2.0350343947,
				"y": 0.0712602028,
				"z": 2.627886729,
				"element": "H" 
			},
			{
				"x": 0.9307140051,
				"y": 3.087982605,
				"z": 1.7978005998,
				"element": "H" 
			},
			{
				"x": 2.3380529098,
				"y": 5.5271671908,
				"z": -1.4396605096,
				"element": "H" 
			},
			{
				"x": 3.5494734145,
				"y": 4.2519749174,
				"z": -1.5723159534,
				"element": "H" 
			},
			{
				"x": 3.8605394585,
				"y": 5.6693093509,
				"z": -0.5213764002,
				"element": "H" 
			},
			{
				"x": -0.7852747293,
				"y": 1.4352411749,
				"z": 1.1916941601,
				"element": "H" 
			},
			{
				"x": -2.7143753472,
				"y": 4.2960898122,
				"z": 2.0506458525,
				"element": "H" 
			},
			{
				"x": -2.4665960167,
				"y": 2.5634923407,
				"z": 2.3393045244,
				"element": "H" 
			},
			{
				"x": -1.1475921649,
				"y": 3.7037272874,
				"z": 2.6254239157,
				"element": "H" 
			},
			{
				"x": -1.8254298267,
				"y": 5.4124376659,
				"z": 0.0192416407,
				"element": "H" 
			},
			{
				"x": -0.549880527,
				"y": 4.6832743883,
				"z": -0.9557798607,
				"element": "H" 
			},
			{
				"x": -0.2379387204,
				"y": 5.0916673569,
				"z": 0.7403691156,
				"element": "H" 
			},
			{
				"x": -3.3057169517,
				"y": 1.1425156821,
				"z": 0.6094248718,
				"element": "H" 
			},
			{
				"x": -3.9906419187,
				"y": 1.3599108548,
				"z": -0.9991299802,
				"element": "H" 
			},
			{
				"x": -1.864569495,
				"y": -0.3154234263,
				"z": -0.4271768317,
				"element": "H" 
			},
			{
				"x": -2.1205384513,
				"y": 0.367591838,
				"z": -2.0212293109,
				"element": "H" 
			},
			{
				"x": -1.1585609764,
				"y": 2.9370520383,
				"z": -2.279093307,
				"element": "H" 
			},
			{
				"x": 0.5982648366,
				"y": 2.7628557047,
				"z": -2.166590632,
				"element": "H" 
			},
			{
				"x": -0.3655813891,
				"y": 1.5776130237,
				"z": -3.0735830046,
				"element": "H" 
			}
		],
		 "valence_orbital": [ 
			{
				"type": "occ",
				"energy": -0.28354,
				"method": "rhf"
			},
			{
				"type": "occ",
				"energy": -0.27873,
				"method": "rhf"
			},
			{
				"type": "occ",
				"energy": -0.27373,
				"method": "rhf"
			},
			{
				"type": "occ",
				"energy": -0.25465,
				"method": "rhf"
			},
			{
				"type": "occ",
				"energy": -0.23846,
				"method": "rhf"
			},
			{
				"type": "unocc",
				"energy": -0.10109,
				"method": "rhf"
			},
			{
				"type": "unocc",
				"energy": -0.03578,
				"method": "rhf"
			},
			{
				"type": "unocc",
				"energy": -0.01629,
				"method": "rhf"
			},
			{
				"type": "unocc",
				"energy": -0.00401,
				"method": "rhf"
			},
			{
				"type": "unocc",
				"energy": 0.00324,
				"method": "rhf"
			}
		],
		"cosmo_sigma_profile": { 
			"-0.025": 0.0,
			"-0.024": 0.0,
			"-0.023": 0.0,
			"-0.022": 0.0,
			"-0.021": 0.0,
			"-0.02": 0.0,
			"-0.019": 0.0,
			"-0.018": 0.0,
			"-0.017": 0.0,
			"-0.016": 0.0,
			"-0.015": 0.0,
			"-0.014": 0.0,
			"-0.013": 0.169531664611,
			"-0.012": 0.668236157688,
			"-0.011": 0.640591997423,
			"-0.01": 0.70857053819,
			"-0.009": 1.35234769351,
			"-0.008": 2.23335871971,
			"-0.007": 8.30680512829,
			"-0.006": 23.7296749329,
			"-0.005": 31.6580314347,
			"-0.004": 42.6060675209,
			"-0.003": 47.0016592764,
			"-0.002": 57.9105841798,
			"-0.001": 50.3918522313,
			"0.0": 39.0534796432,
			"0.001": 28.9196923819,
			"0.002": 17.1650399721,
			"0.003": 14.4562763144,
			"0.004": 9.89162918745,
			"0.005": 9.74326509191,
			"0.006": 8.6714567721,
			"0.007": 7.67809611183,
			"0.008": 8.19343082716,
			"0.009": 9.42172035296,
			"0.01": 11.6585692032,
			"0.011": 13.9294332144,
			"0.012": 11.3510703959,
			"0.013": 2.28699761364,
			"0.014": 0.129145322532,
			"0.015": 0.0,
			"0.016": 0.0,
			"0.017": 0.0,
			"0.018": 0.0,
			"0.019": 0.0,
			"0.02": 0.0,
			"0.021": 0.0,
			"0.022": 0.0,
			"0.023": 0.0,
			"0.024": 0.0,
			"0.025": 0.0
		}
	}
}
