{
	 "smiles": "OC(=O)C1CCN(CC1)C1=NC(=CC=N1)C(F)(F)F", 
	 "Tm": 414.15, 
	 "num_atms": 31, 
	 "gaussian": { 
		 "optdone": 1, 
		 "sigma_profile": "yes", 
		 "theory": "DFT", 
		 "functional": "B3LYP", 
		 "basiset": "6-31G**", 
		 "properties": { 
			 "R2extent": 7785.3799, 
			 "electric_dipole_moment_norm": 2.49474475247, 
			 "electric_quadrupole_moment_norm": 28.707059809, 
			 "total_energy": -1040.64332959, 
			 "HOMO_LUMO_gap": 0.17124, 
			 "cosmo_polarized_energy": -17.44, 
			 "cosmo_cavitation_energy": 35.73, 
			 "cosmo_dispersion_energy": -25.2, 
			 "cosmo_repulsion_energy": 1.89, 
			 "cosmo_total_nonelectrostatic_energy": 12.41, 
			 "SMD_solvation_energy": 5.64 
		},
		"coords": [
			{
				"x": 1.9869179475,
				"y": 2.9135882495,
				"z": 2.2346244262,
				"element": "O" 
			},
			{
				"x": 1.3836392622,
				"y": 3.4050750414,
				"z": 1.1167467083,
				"element": "C" 
			},
			{
				"x": 1.535204989,
				"y": 4.5616544853,
				"z": 0.8126933088,
				"element": "O" 
			},
			{
				"x": 0.5444153835,
				"y": 2.4014181463,
				"z": 0.330987967,
				"element": "C" 
			},
			{
				"x": -0.0781706626,
				"y": 3.0366677916,
				"z": -0.9168729958,
				"element": "C" 
			},
			{
				"x": -1.0683710913,
				"y": 2.0653560505,
				"z": -1.5721275939,
				"element": "C" 
			},
			{
				"x": -0.5084286151,
				"y": 0.7061264554,
				"z": -1.6092678435,
				"element": "N" 
			},
			{
				"x": 0.9323693334,
				"y": 0.5736059147,
				"z": -1.4201742309,
				"element": "C" 
			},
			{
				"x": 1.3660154724,
				"y": 1.1290885886,
				"z": -0.049736075,
				"element": "C" 
			},
			{
				"x": -1.3041159157,
				"y": -0.3556661333,
				"z": -1.9191085371,
				"element": "C" 
			},
			{
				"x": -0.7425655399,
				"y": -1.5846931796,
				"z": -1.9532742881,
				"element": "N" 
			},
			{
				"x": -1.5535269041,
				"y": -2.594357353,
				"z": -2.2475552196,
				"element": "C" 
			},
			{
				"x": -2.9116498656,
				"y": -2.4454649339,
				"z": -2.5122133376,
				"element": "C" 
			},
			{
				"x": -3.3827938595,
				"y": -1.1313343912,
				"z": -2.4495128527,
				"element": "C" 
			},
			{
				"x": -2.6113274304,
				"y": -0.0876159206,
				"z": -2.1636551197,
				"element": "N" 
			},
			{
				"x": -0.8859217842,
				"y": -3.9586200278,
				"z": -2.274278293,
				"element": "C" 
			},
			{
				"x": -0.3508692195,
				"y": -4.2597106858,
				"z": -1.0758394896,
				"element": "F" 
			},
			{
				"x": -1.7685147127,
				"y": -4.9324139248,
				"z": -2.5850509099,
				"element": "F" 
			},
			{
				"x": 0.1040274732,
				"y": -3.9977625261,
				"z": -3.1849257811,
				"element": "F" 
			},
			{
				"x": 1.7692768437,
				"y": 1.9778465619,
				"z": 2.3519989747,
				"element": "H" 
			},
			{
				"x": -0.2757992826,
				"y": 2.0900816673,
				"z": 0.9952032065,
				"element": "H" 
			},
			{
				"x": -0.5992235028,
				"y": 3.9597453717,
				"z": -0.6523565689,
				"element": "H" 
			},
			{
				"x": 0.7163221559,
				"y": 3.3276721029,
				"z": -1.6120857035,
				"element": "H" 
			},
			{
				"x": -1.3303310187,
				"y": 2.4011478845,
				"z": -2.5843843482,
				"element": "H" 
			},
			{
				"x": -2.0033634314,
				"y": 2.0350525779,
				"z": -1.0048532277,
				"element": "H" 
			},
			{
				"x": 1.1928239751,
				"y": -0.4787806216,
				"z": -1.5151997405,
				"element": "H" 
			},
			{
				"x": 1.4517509053,
				"y": 1.1165697336,
				"z": -2.2210922949,
				"element": "H" 
			},
			{
				"x": 2.4368519421,
				"y": 1.3582021708,
				"z": -0.0972214556,
				"element": "H" 
			},
			{
				"x": 1.2363410018,
				"y": 0.3526378948,
				"z": 0.7134827205,
				"element": "H" 
			},
			{
				"x": -3.5513249505,
				"y": -3.2832766236,
				"z": -2.7518889655,
				"element": "H" 
			},
			{
				"x": -4.4318588986,
				"y": -0.9110403676,
				"z": -2.6428624397,
				"element": "H" 
			}
		],
		 "valence_orbital": [ 
			{
				"type": "occ",
				"energy": -0.32068,
				"method": "rhf"
			},
			{
				"type": "occ",
				"energy": -0.31478,
				"method": "rhf"
			},
			{
				"type": "occ",
				"energy": -0.2746,
				"method": "rhf"
			},
			{
				"type": "occ",
				"energy": -0.26118,
				"method": "rhf"
			},
			{
				"type": "occ",
				"energy": -0.227,
				"method": "rhf"
			},
			{
				"type": "unocc",
				"energy": -0.05576,
				"method": "rhf"
			},
			{
				"type": "unocc",
				"energy": -0.01602,
				"method": "rhf"
			},
			{
				"type": "unocc",
				"energy": 0.00434,
				"method": "rhf"
			},
			{
				"type": "unocc",
				"energy": 0.04398,
				"method": "rhf"
			},
			{
				"type": "unocc",
				"energy": 0.07363,
				"method": "rhf"
			}
		],
		"cosmo_sigma_profile": { 
			"-0.025": 0.0,
			"-0.024": 0.0,
			"-0.023": 0.0,
			"-0.022": 0.0,
			"-0.021": 0.0,
			"-0.02": 0.0,
			"-0.019": 0.0,
			"-0.018": 0.627413354828,
			"-0.017": 1.17482632345,
			"-0.016": 0.629383941908,
			"-0.015": 1.46786535941,
			"-0.014": 1.29098871262,
			"-0.013": 0.783705528993,
			"-0.012": 0.601364972726,
			"-0.011": 1.48999997417,
			"-0.01": 1.23271459035,
			"-0.009": 1.34070817087,
			"-0.008": 2.96834492628,
			"-0.007": 7.68337583533,
			"-0.006": 9.56718959819,
			"-0.005": 19.0879546581,
			"-0.004": 25.0739003686,
			"-0.003": 23.2029516444,
			"-0.002": 20.5390208057,
			"-0.001": 17.1753279858,
			"0.0": 20.88424201,
			"0.001": 18.0635792859,
			"0.002": 25.7741003384,
			"0.003": 25.7121277056,
			"0.004": 8.25312561005,
			"0.005": 6.24063234583,
			"0.006": 6.01551954634,
			"0.007": 6.37099176158,
			"0.008": 5.43011123304,
			"0.009": 4.35443807139,
			"0.01": 5.4428124733,
			"0.011": 6.23007227295,
			"0.012": 5.98182031679,
			"0.013": 2.24011361498,
			"0.014": 0.0522673090128,
			"0.015": 0.0,
			"0.016": 0.0,
			"0.017": 0.0,
			"0.018": 0.0,
			"0.019": 0.0,
			"0.02": 0.0,
			"0.021": 0.0,
			"0.022": 0.0,
			"0.023": 0.0,
			"0.024": 0.0,
			"0.025": 0.0
		}
	}
}
