{
	 "smiles": "COC(=O)CCC(C)C1CCC2C3C(O)C(O)C4CC(O)CCC4(C)C3CC(O)C12C", 
	 "Tm": 435.15, 
	 "num_atms": 73, 
	 "gaussian": { 
		 "optdone": 1, 
		 "sigma_profile": "yes", 
		 "theory": "DFT", 
		 "functional": "B3LYP", 
		 "basiset": "6-31G**", 
		 "properties": { 
			 "R2extent": 14581.2905, 
			 "electric_dipole_moment_norm": 1.7946186698, 
			 "electric_quadrupole_moment_norm": 29.4481689049, 
			 "total_energy": -1429.30093982, 
			 "HOMO_LUMO_gap": 0.25011, 
			 "cosmo_polarized_energy": -24.94, 
			 "cosmo_cavitation_energy": 61.39, 
			 "cosmo_dispersion_energy": -39.75, 
			 "cosmo_repulsion_energy": 2.91, 
			 "cosmo_total_nonelectrostatic_energy": 24.55, 
			 "SMD_solvation_energy": 10.19 
		},
		"coords": [
			{
				"x": 5.0983936205,
				"y": -0.0710077494,
				"z": -2.827445558,
				"element": "C" 
			},
			{
				"x": 3.796110834,
				"y": 0.1254267033,
				"z": -3.4036137073,
				"element": "O" 
			},
			{
				"x": 3.483989362,
				"y": -0.7171339456,
				"z": -4.4217463745,
				"element": "C" 
			},
			{
				"x": 4.2373949501,
				"y": -1.5795603799,
				"z": -4.818365178,
				"element": "O" 
			},
			{
				"x": 2.0985042375,
				"y": -0.4375215049,
				"z": -4.9654877895,
				"element": "C" 
			},
			{
				"x": 0.9726731767,
				"y": -0.6926337332,
				"z": -3.939040122,
				"element": "C" 
			},
			{
				"x": 0.963526452,
				"y": -2.1065974006,
				"z": -3.315953986,
				"element": "C" 
			},
			{
				"x": 0.7533892298,
				"y": -3.1803546669,
				"z": -4.4012676308,
				"element": "C" 
			},
			{
				"x": -0.0790140434,
				"y": -2.2867399995,
				"z": -2.1734895639,
				"element": "C" 
			},
			{
				"x": -1.422553625,
				"y": -1.5535761469,
				"z": -2.3051857272,
				"element": "C" 
			},
			{
				"x": -2.1248519028,
				"y": -1.9254024616,
				"z": -0.9925479622,
				"element": "C" 
			},
			{
				"x": -1.0091095631,
				"y": -1.978435693,
				"z": 0.0997908099,
				"element": "C" 
			},
			{
				"x": -1.1500721238,
				"y": -0.8152180143,
				"z": 1.1127646666,
				"element": "C" 
			},
			{
				"x": -0.3796596732,
				"y": -1.0190113172,
				"z": 2.4271090237,
				"element": "C" 
			},
			{
				"x": -0.7343696728,
				"y": -2.2662221514,
				"z": 3.0582591856,
				"element": "O" 
			},
			{
				"x": -0.6526957369,
				"y": 0.1183935489,
				"z": 3.4254681413,
				"element": "C" 
			},
			{
				"x": -1.983121865,
				"y": -0.0010708863,
				"z": 3.9443538391,
				"element": "O" 
			},
			{
				"x": -0.4837325636,
				"y": 1.5372523639,
				"z": 2.8545135631,
				"element": "C" 
			},
			{
				"x": 0.9695524758,
				"y": 2.0392531413,
				"z": 2.9129935315,
				"element": "C" 
			},
			{
				"x": 1.0348948671,
				"y": 3.5777481942,
				"z": 2.7393700633,
				"element": "C" 
			},
			{
				"x": 0.9682581457,
				"y": 4.2566707885,
				"z": 3.9940749175,
				"element": "O" 
			},
			{
				"x": -0.1506514229,
				"y": 4.1039018728,
				"z": 1.9147730645,
				"element": "C" 
			},
			{
				"x": -0.5701257739,
				"y": 3.1014308951,
				"z": 0.8340929438,
				"element": "C" 
			},
			{
				"x": -1.1114585256,
				"y": 1.7597653034,
				"z": 1.4314899064,
				"element": "C" 
			},
			{
				"x": -2.6418214002,
				"y": 1.9278273769,
				"z": 1.6036818329,
				"element": "C" 
			},
			{
				"x": -0.8543044799,
				"y": 0.5513412148,
				"z": 0.4503612793,
				"element": "C" 
			},
			{
				"x": 0.500098058,
				"y": 0.5419581795,
				"z": -0.3321195275,
				"element": "C" 
			},
			{
				"x": 1.252260839,
				"y": -0.7990350489,
				"z": -0.4813990092,
				"element": "C" 
			},
			{
				"x": 2.1158127467,
				"y": -1.007927333,
				"z": 0.6564795739,
				"element": "O" 
			},
			{
				"x": 0.3692250171,
				"y": -2.0683332,
				"z": -0.671994143,
				"element": "C" 
			},
			{
				"x": 1.1631780311,
				"y": -3.3089939376,
				"z": -0.2110381257,
				"element": "C" 
			},
			{
				"x": 5.2011870785,
				"y": 0.6964982997,
				"z": -2.0599153201,
				"element": "H" 
			},
			{
				"x": 5.1803842912,
				"y": -1.0680897747,
				"z": -2.3873214252,
				"element": "H" 
			},
			{
				"x": 5.8761692303,
				"y": 0.0419067658,
				"z": -3.5865403591,
				"element": "H" 
			},
			{
				"x": 1.9784130941,
				"y": -1.0556662987,
				"z": -5.8567393556,
				"element": "H" 
			},
			{
				"x": 2.0577116238,
				"y": 0.6124818726,
				"z": -5.2774507712,
				"element": "H" 
			},
			{
				"x": 1.0538404642,
				"y": 0.0671454762,
				"z": -3.1575188009,
				"element": "H" 
			},
			{
				"x": 0.0165032701,
				"y": -0.5130297074,
				"z": -4.445179549,
				"element": "H" 
			},
			{
				"x": 1.9571916115,
				"y": -2.2906433768,
				"z": -2.8823346179,
				"element": "H" 
			},
			{
				"x": 0.7772129473,
				"y": -4.1833097244,
				"z": -3.9635322885,
				"element": "H" 
			},
			{
				"x": 1.5338209269,
				"y": -3.1430913364,
				"z": -5.1663657887,
				"element": "H" 
			},
			{
				"x": -0.2165898127,
				"y": -3.0570717936,
				"z": -4.8985991309,
				"element": "H" 
			},
			{
				"x": -0.3426705502,
				"y": -3.3530704851,
				"z": -2.1967940962,
				"element": "H" 
			},
			{
				"x": -1.2851695631,
				"y": -0.4688636311,
				"z": -2.3787568511,
				"element": "H" 
			},
			{
				"x": -1.9898847825,
				"y": -1.8648485703,
				"z": -3.1895133123,
				"element": "H" 
			},
			{
				"x": -2.9320777291,
				"y": -1.2334003933,
				"z": -0.7300611382,
				"element": "H" 
			},
			{
				"x": -2.5835518188,
				"y": -2.915438241,
				"z": -1.099144372,
				"element": "H" 
			},
			{
				"x": -1.124029827,
				"y": -2.9044982058,
				"z": 0.6710447874,
				"element": "H" 
			},
			{
				"x": -2.2100466949,
				"y": -0.8004698443,
				"z": 1.4071142966,
				"element": "H" 
			},
			{
				"x": 0.6919948493,
				"y": -1.0790693421,
				"z": 2.2363994472,
				"element": "H" 
			},
			{
				"x": -1.6517921802,
				"y": -2.4566439403,
				"z": 2.819839966,
				"element": "H" 
			},
			{
				"x": 0.0568890323,
				"y": 0.0001548946,
				"z": 4.2603340628,
				"element": "H" 
			},
			{
				"x": -2.0155860105,
				"y": -0.8822813983,
				"z": 4.3437517251,
				"element": "H" 
			},
			{
				"x": -1.0410379566,
				"y": 2.1701541963,
				"z": 3.5561667646,
				"element": "H" 
			},
			{
				"x": 1.4196206084,
				"y": 1.7826473176,
				"z": 3.8808526851,
				"element": "H" 
			},
			{
				"x": 1.5852965949,
				"y": 1.5432484551,
				"z": 2.1545342159,
				"element": "H" 
			},
			{
				"x": 1.9771089784,
				"y": 3.8352198408,
				"z": 2.2271336113,
				"element": "H" 
			},
			{
				"x": 1.7438100016,
				"y": 4.0044247878,
				"z": 4.5118543175,
				"element": "H" 
			},
			{
				"x": -0.9762690703,
				"y": 4.2900562093,
				"z": 2.6108808364,
				"element": "H" 
			},
			{
				"x": 0.1043918412,
				"y": 5.0725242251,
				"z": 1.4725656258,
				"element": "H" 
			},
			{
				"x": 0.2923219986,
				"y": 2.9326789631,
				"z": 0.1826199015,
				"element": "H" 
			},
			{
				"x": -1.341200697,
				"y": 3.5432093559,
				"z": 0.1920518671,
				"element": "H" 
			},
			{
				"x": -3.090248547,
				"y": 1.0960388398,
				"z": 2.1486045273,
				"element": "H" 
			},
			{
				"x": -2.8593157325,
				"y": 2.8364741643,
				"z": 2.1759930773,
				"element": "H" 
			},
			{
				"x": -3.1335841238,
				"y": 2.0263822027,
				"z": 0.6286127254,
				"element": "H" 
			},
			{
				"x": -1.6244599265,
				"y": 0.6651406198,
				"z": -0.3216113126,
				"element": "H" 
			},
			{
				"x": 0.3147917094,
				"y": 0.9447421835,
				"z": -1.3339811615,
				"element": "H" 
			},
			{
				"x": 1.2228101009,
				"y": 1.2329588438,
				"z": 0.1112282079,
				"element": "H" 
			},
			{
				"x": 1.9076777157,
				"y": -0.710102536,
				"z": -1.356200502,
				"element": "H" 
			},
			{
				"x": 2.7484748433,
				"y": -0.278906234,
				"z": 0.668642815,
				"element": "H" 
			},
			{
				"x": 0.5733374119,
				"y": -4.2133851748,
				"z": -0.3963682271,
				"element": "H" 
			},
			{
				"x": 1.3959538247,
				"y": -3.2648719404,
				"z": 0.8532421555,
				"element": "H" 
			},
			{
				"x": 2.1109813032,
				"y": -3.4064295774,
				"z": -0.7524211759,
				"element": "H" 
			}
		],
		 "valence_orbital": [ 
			{
				"type": "occ",
				"energy": -0.27142,
				"method": "rhf"
			},
			{
				"type": "occ",
				"energy": -0.2709,
				"method": "rhf"
			},
			{
				"type": "occ",
				"energy": -0.26413,
				"method": "rhf"
			},
			{
				"type": "occ",
				"energy": -0.25977,
				"method": "rhf"
			},
			{
				"type": "occ",
				"energy": -0.24326,
				"method": "rhf"
			},
			{
				"type": "unocc",
				"energy": 0.00685,
				"method": "rhf"
			},
			{
				"type": "unocc",
				"energy": 0.04861,
				"method": "rhf"
			},
			{
				"type": "unocc",
				"energy": 0.0637,
				"method": "rhf"
			},
			{
				"type": "unocc",
				"energy": 0.06805,
				"method": "rhf"
			},
			{
				"type": "unocc",
				"energy": 0.07616,
				"method": "rhf"
			}
		],
		"cosmo_sigma_profile": { 
			"-0.025": 0.0,
			"-0.024": 0.0,
			"-0.023": 0.0,
			"-0.022": 0.0,
			"-0.021": 0.0,
			"-0.02": 0.0,
			"-0.019": 0.0,
			"-0.018": 0.0,
			"-0.017": 0.0,
			"-0.016": 0.0,
			"-0.015": 0.570381797763,
			"-0.014": 2.56235812673,
			"-0.013": 3.24401682061,
			"-0.012": 3.54575982893,
			"-0.011": 3.90314363185,
			"-0.01": 3.52765646193,
			"-0.009": 4.35523914978,
			"-0.008": 3.44303346266,
			"-0.007": 3.40354018191,
			"-0.006": 9.13502414215,
			"-0.005": 15.824031534,
			"-0.004": 20.4220815792,
			"-0.003": 40.3851844174,
			"-0.002": 72.9134345134,
			"-0.001": 65.0606695762,
			"0.0": 52.8705176085,
			"0.001": 39.8143967946,
			"0.002": 28.7838787424,
			"0.003": 13.6655102418,
			"0.004": 9.07512166107,
			"0.005": 9.79345975406,
			"0.006": 8.61191614987,
			"0.007": 7.7223013075,
			"0.008": 6.38335312504,
			"0.009": 7.24504822356,
			"0.01": 5.98140678718,
			"0.011": 6.74048537688,
			"0.012": 9.33507505236,
			"0.013": 5.71022952609,
			"0.014": 3.78196011523,
			"0.015": 1.98505874752,
			"0.016": 0.0,
			"0.017": 0.0,
			"0.018": 0.0,
			"0.019": 0.0,
			"0.02": 0.0,
			"0.021": 0.0,
			"0.022": 0.0,
			"0.023": 0.0,
			"0.024": 0.0,
			"0.025": 0.0
		}
	}
}
