{
	 "smiles": "NC1=CC=C(C=C1N)C1=CC(N)=C(N)C=C1", 
	 "Tm": 449.15, 
	 "num_atms": 30, 
	 "gaussian": { 
		 "optdone": 1, 
		 "sigma_profile": "yes", 
		 "theory": "DFT", 
		 "functional": "B3LYP", 
		 "basiset": "6-31G**", 
		 "properties": { 
			 "R2extent": 4977.2225, 
			 "electric_dipole_moment_norm": 2.42179936617, 
			 "electric_quadrupole_moment_norm": 29.0892242746, 
			 "total_energy": -684.730516191, 
			 "HOMO_LUMO_gap": 0.16944, 
			 "cosmo_polarized_energy": -21.49, 
			 "cosmo_cavitation_energy": 33.24, 
			 "cosmo_dispersion_energy": -24.65, 
			 "cosmo_repulsion_energy": 1.93, 
			 "cosmo_total_nonelectrostatic_energy": 10.52, 
			 "SMD_solvation_energy": 5.3 
		},
		"coords": [
			{
				"x": 0.2736708594,
				"y": 3.4494196433,
				"z": -3.6444273114,
				"element": "N" 
			},
			{
				"x": 0.3042296014,
				"y": 2.4398874485,
				"z": -2.6372711363,
				"element": "C" 
			},
			{
				"x": 1.3552297367,
				"y": 1.5321203265,
				"z": -2.5041353352,
				"element": "C" 
			},
			{
				"x": 1.3605961174,
				"y": 0.5633789602,
				"z": -1.5011688754,
				"element": "C" 
			},
			{
				"x": 0.2868142608,
				"y": 0.4678459827,
				"z": -0.6018516117,
				"element": "C" 
			},
			{
				"x": -0.7606593824,
				"y": 1.3952998546,
				"z": -0.7233578926,
				"element": "C" 
			},
			{
				"x": -0.7646261504,
				"y": 2.3870008713,
				"z": -1.7111129176,
				"element": "C" 
			},
			{
				"x": -1.7652898127,
				"y": 3.354483429,
				"z": -1.7550590805,
				"element": "N" 
			},
			{
				"x": 0.2656332616,
				"y": -0.5729105671,
				"z": 0.4550822728,
				"element": "C" 
			},
			{
				"x": -0.9351753171,
				"y": -1.1876496419,
				"z": 0.8506173749,
				"element": "C" 
			},
			{
				"x": -0.9794638406,
				"y": -2.170279082,
				"z": 1.8378412121,
				"element": "C" 
			},
			{
				"x": -2.1928556864,
				"y": -2.8142399054,
				"z": 2.2242350657,
				"element": "N" 
			},
			{
				"x": 0.2202752297,
				"y": -2.5933181762,
				"z": 2.4580362009,
				"element": "C" 
			},
			{
				"x": 0.2017544034,
				"y": -3.6455501282,
				"z": 3.3671280006,
				"element": "N" 
			},
			{
				"x": 1.4165036887,
				"y": -1.9624368163,
				"z": 2.0906441595,
				"element": "C" 
			},
			{
				"x": 1.4393191077,
				"y": -0.9712118792,
				"z": 1.1133907709,
				"element": "C" 
			},
			{
				"x": 1.149338715,
				"y": 3.488240038,
				"z": -4.1548430571,
				"element": "H" 
			},
			{
				"x": -0.4700037665,
				"y": 3.2827037763,
				"z": -4.3200372152,
				"element": "H" 
			},
			{
				"x": 2.17345199,
				"y": 1.5689348827,
				"z": -3.2209934927,
				"element": "H" 
			},
			{
				"x": 2.1763032416,
				"y": -0.1502677763,
				"z": -1.4482404761,
				"element": "H" 
			},
			{
				"x": -1.5684799362,
				"y": 1.3887748019,
				"z": 0.0038925762,
				"element": "H" 
			},
			{
				"x": -1.7137818155,
				"y": 4.0136298446,
				"z": -2.5154536183,
				"element": "H" 
			},
			{
				"x": -2.6954521919,
				"y": 3.0799328995,
				"z": -1.4819823554,
				"element": "H" 
			},
			{
				"x": -1.8651615512,
				"y": -0.899186721,
				"z": 0.3654355874,
				"element": "H" 
			},
			{
				"x": -2.4481621423,
				"y": -2.5836692614,
				"z": 3.1827892095,
				"element": "H" 
			},
			{
				"x": -2.9638788417,
				"y": -2.5369998005,
				"z": 1.6262826674,
				"element": "H" 
			},
			{
				"x": 0.8822681225,
				"y": -3.6399514691,
				"z": 4.1099796332,
				"element": "H" 
			},
			{
				"x": -0.7029118182,
				"y": -4.0182789821,
				"z": 3.6065697633,
				"element": "H" 
			},
			{
				"x": 2.3423090297,
				"y": -2.2712062099,
				"z": 2.5703886798,
				"element": "H" 
			},
			{
				"x": 2.3808048875,
				"y": -0.4891963425,
				"z": 0.8687212013,
				"element": "H" 
			}
		],
		 "valence_orbital": [ 
			{
				"type": "occ",
				"energy": -0.27194,
				"method": "rhf"
			},
			{
				"type": "occ",
				"energy": -0.22229,
				"method": "rhf"
			},
			{
				"type": "occ",
				"energy": -0.21035,
				"method": "rhf"
			},
			{
				"type": "occ",
				"energy": -0.18594,
				"method": "rhf"
			},
			{
				"type": "occ",
				"energy": -0.1668,
				"method": "rhf"
			},
			{
				"type": "unocc",
				"energy": 0.00264,
				"method": "rhf"
			},
			{
				"type": "unocc",
				"energy": 0.02013,
				"method": "rhf"
			},
			{
				"type": "unocc",
				"energy": 0.02606,
				"method": "rhf"
			},
			{
				"type": "unocc",
				"energy": 0.061,
				"method": "rhf"
			},
			{
				"type": "unocc",
				"energy": 0.07562,
				"method": "rhf"
			}
		],
		"cosmo_sigma_profile": { 
			"-0.025": 0.0,
			"-0.024": 0.0,
			"-0.023": 0.0,
			"-0.022": 0.0,
			"-0.021": 0.0,
			"-0.02": 0.0,
			"-0.019": 0.0,
			"-0.018": 0.0,
			"-0.017": 0.0,
			"-0.016": 0.0,
			"-0.015": 0.0,
			"-0.014": 0.0,
			"-0.013": 0.180254108718,
			"-0.012": 2.47118174867,
			"-0.011": 8.41384725843,
			"-0.01": 9.61316672475,
			"-0.009": 12.7690648433,
			"-0.008": 11.2012657536,
			"-0.007": 9.84196838437,
			"-0.006": 9.61273517693,
			"-0.005": 11.2087589627,
			"-0.004": 12.6355213563,
			"-0.003": 15.7005308081,
			"-0.002": 13.0577974823,
			"-0.001": 10.1577215207,
			"0.0": 10.619563724,
			"0.001": 9.74088056445,
			"0.002": 9.71691843647,
			"0.003": 11.072065865,
			"0.004": 11.7707597653,
			"0.005": 13.3839907808,
			"0.006": 17.7641186338,
			"0.007": 20.6059426108,
			"0.008": 11.5013062481,
			"0.009": 4.94841024788,
			"0.01": 2.56770999339,
			"0.011": 2.96405187022,
			"0.012": 2.72261127397,
			"0.013": 2.21413450042,
			"0.014": 2.19743037399,
			"0.015": 1.16432948204,
			"0.016": 0.197214589421,
			"0.017": 0.0,
			"0.018": 0.0,
			"0.019": 0.0,
			"0.02": 0.0,
			"0.021": 0.0,
			"0.022": 0.0,
			"0.023": 0.0,
			"0.024": 0.0,
			"0.025": 0.0
		}
	}
}
