{
	 "smiles": "OC1(O)C(=O)C2=CC=CC=C2C1=O", 
	 "Tm": 523.15, 
	 "num_atms": 19, 
	 "gaussian": { 
		 "optdone": 1, 
		 "sigma_profile": "yes", 
		 "theory": "DFT", 
		 "functional": "B3LYP", 
		 "basiset": "6-31G**", 
		 "properties": { 
			 "R2extent": 2292.2086, 
			 "electric_dipole_moment_norm": 3.67098719829, 
			 "electric_quadrupole_moment_norm": 14.5038865615, 
			 "total_energy": -647.448228935, 
			 "HOMO_LUMO_gap": 0.16122, 
			 "cosmo_polarized_energy": -14.47, 
			 "cosmo_cavitation_energy": 24.49, 
			 "cosmo_dispersion_energy": -17.71, 
			 "cosmo_repulsion_energy": 1.39, 
			 "cosmo_total_nonelectrostatic_energy": 8.17, 
			 "SMD_solvation_energy": 5.34 
		},
		"coords": [
			{
				"x": 2.0374789216,
				"y": 1.0904613313,
				"z": -0.6481583865,
				"element": "O" 
			},
			{
				"x": 0.9222623509,
				"y": 0.5419288402,
				"z": -1.2895736876,
				"element": "C" 
			},
			{
				"x": 1.1502808839,
				"y": 0.224285178,
				"z": -2.6323802239,
				"element": "O" 
			},
			{
				"x": -0.2847589767,
				"y": 1.5084760966,
				"z": -1.197446656,
				"element": "C" 
			},
			{
				"x": -0.2895835284,
				"y": 2.6453489996,
				"z": -1.6254478424,
				"element": "O" 
			},
			{
				"x": -1.3486875623,
				"y": 0.8246528928,
				"z": -0.4217684654,
				"element": "C" 
			},
			{
				"x": -2.6176939413,
				"y": 1.2964985112,
				"z": -0.0830947452,
				"element": "C" 
			},
			{
				"x": -3.4443270555,
				"y": 0.4653670151,
				"z": 0.6720852705,
				"element": "C" 
			},
			{
				"x": -3.0111348204,
				"y": -0.8086097306,
				"z": 1.0822539121,
				"element": "C" 
			},
			{
				"x": -1.7430157279,
				"y": -1.2795023519,
				"z": 0.7438311165,
				"element": "C" 
			},
			{
				"x": -0.9159746645,
				"y": -0.4472051933,
				"z": -0.0118052491,
				"element": "C" 
			},
			{
				"x": 0.4567835344,
				"y": -0.7121167588,
				"z": -0.5083658157,
				"element": "C" 
			},
			{
				"x": 1.0976342268,
				"y": -1.73963113,
				"z": -0.412368899,
				"element": "O" 
			},
			{
				"x": 2.1753053592,
				"y": 1.9657565286,
				"z": -1.0455630197,
				"element": "H" 
			},
			{
				"x": 1.7738752064,
				"y": -0.5201591617,
				"z": -2.6325762722,
				"element": "H" 
			},
			{
				"x": -2.939155181,
				"y": 2.2815691375,
				"z": -0.4059173899,
				"element": "H" 
			},
			{
				"x": -4.4385156144,
				"y": 0.802416414,
				"z": 0.9504220037,
				"element": "H" 
			},
			{
				"x": -3.678150092,
				"y": -1.4313148844,
				"z": 1.6711601919,
				"element": "H" 
			},
			{
				"x": -1.3962233189,
				"y": -2.2602217341,
				"z": 1.0534141578,
				"element": "H" 
			}
		],
		 "valence_orbital": [ 
			{
				"type": "occ",
				"energy": -0.30308,
				"method": "rhf"
			},
			{
				"type": "occ",
				"energy": -0.28593,
				"method": "rhf"
			},
			{
				"type": "occ",
				"energy": -0.28564,
				"method": "rhf"
			},
			{
				"type": "occ",
				"energy": -0.27566,
				"method": "rhf"
			},
			{
				"type": "occ",
				"energy": -0.24959,
				"method": "rhf"
			},
			{
				"type": "unocc",
				"energy": -0.08837,
				"method": "rhf"
			},
			{
				"type": "unocc",
				"energy": -0.07448,
				"method": "rhf"
			},
			{
				"type": "unocc",
				"energy": 0.01311,
				"method": "rhf"
			},
			{
				"type": "unocc",
				"energy": 0.02493,
				"method": "rhf"
			},
			{
				"type": "unocc",
				"energy": 0.07947,
				"method": "rhf"
			}
		],
		"cosmo_sigma_profile": { 
			"-0.025": 0.0,
			"-0.024": 0.0,
			"-0.023": 0.0,
			"-0.022": 0.0,
			"-0.021": 0.0,
			"-0.02": 0.0,
			"-0.019": 0.0,
			"-0.018": 0.0,
			"-0.017": 0.167569244119,
			"-0.016": 1.50836776438,
			"-0.015": 1.14673842264,
			"-0.014": 1.60273796909,
			"-0.013": 1.08751223228,
			"-0.012": 1.11124807114,
			"-0.011": 1.05323637334,
			"-0.01": 1.43027957876,
			"-0.009": 1.02366954561,
			"-0.008": 6.0475577492,
			"-0.007": 12.0495422111,
			"-0.006": 11.0094845104,
			"-0.005": 8.57700597891,
			"-0.004": 10.2108996853,
			"-0.003": 12.278407477,
			"-0.002": 13.3288130228,
			"-0.001": 13.8227077381,
			"0.0": 16.7768354365,
			"0.001": 17.2081646484,
			"0.002": 6.35107955803,
			"0.003": 4.71627249571,
			"0.004": 3.65020108762,
			"0.005": 4.75133491165,
			"0.006": 4.22552416071,
			"0.007": 6.27198001125,
			"0.008": 6.33897293924,
			"0.009": 8.87053383957,
			"0.01": 10.6416846112,
			"0.011": 8.27454133004,
			"0.012": 0.539296002768,
			"0.013": 0.0,
			"0.014": 0.0,
			"0.015": 0.0,
			"0.016": 0.0,
			"0.017": 0.0,
			"0.018": 0.0,
			"0.019": 0.0,
			"0.02": 0.0,
			"0.021": 0.0,
			"0.022": 0.0,
			"0.023": 0.0,
			"0.024": 0.0,
			"0.025": 0.0
		}
	}
}
