{
	 "smiles": "CC(=O)NC1=NC(C(O)=O)=C(Br)C=C1", 
	 "Tm": 463.15, 
	 "num_atms": 21, 
	 "gaussian": { 
		 "optdone": 1, 
		 "sigma_profile": "yes", 
		 "theory": "DFT", 
		 "functional": "B3LYP", 
		 "basiset": "6-31G**", 
		 "properties": { 
			 "R2extent": 5658.811, 
			 "electric_dipole_moment_norm": 5.84963529461, 
			 "electric_quadrupole_moment_norm": 22.9761589995, 
			 "total_energy": -3215.67110299, 
			 "HOMO_LUMO_gap": 0.16972, 
			 "cosmo_polarized_energy": -20.1, 
			 "cosmo_cavitation_energy": 28.49, 
			 "cosmo_dispersion_energy": -21.44, 
			 "cosmo_repulsion_energy": 1.68, 
			 "cosmo_total_nonelectrostatic_energy": 8.72, 
			 "SMD_solvation_energy": 5.43 
		},
		"coords": [
			{
				"x": 0.4031417025,
				"y": 3.4282691745,
				"z": -0.4459523444,
				"element": "C" 
			},
			{
				"x": 1.5995043774,
				"y": 2.5897665251,
				"z": -0.0539743693,
				"element": "C" 
			},
			{
				"x": 2.6292133008,
				"y": 3.0862682317,
				"z": 0.3680115491,
				"element": "O" 
			},
			{
				"x": 1.5450414176,
				"y": 1.1985137242,
				"z": -0.1709772633,
				"element": "N" 
			},
			{
				"x": 0.6026189071,
				"y": 0.2630277109,
				"z": -0.5905383493,
				"element": "C" 
			},
			{
				"x": 1.0426335124,
				"y": -0.998594102,
				"z": -0.5125576052,
				"element": "N" 
			},
			{
				"x": 0.269449811,
				"y": -2.0365977053,
				"z": -0.8755971947,
				"element": "C" 
			},
			{
				"x": 0.9531429472,
				"y": -3.385339999,
				"z": -0.7119540639,
				"element": "C" 
			},
			{
				"x": 2.2030012276,
				"y": -3.2846300391,
				"z": -0.2340234435,
				"element": "O" 
			},
			{
				"x": 0.4388481889,
				"y": -4.4441935828,
				"z": -0.9791101627,
				"element": "O" 
			},
			{
				"x": -1.0310017178,
				"y": -1.8426488099,
				"z": -1.3514820021,
				"element": "C" 
			},
			{
				"x": -2.2084031682,
				"y": -3.225435961,
				"z": -1.8905360776,
				"element": "Br" 
			},
			{
				"x": -1.497794265,
				"y": -0.5253244217,
				"z": -1.4356491126,
				"element": "C" 
			},
			{
				"x": -0.6959243154,
				"y": 0.5394875564,
				"z": -1.0599575459,
				"element": "C" 
			},
			{
				"x": -0.4757880068,
				"y": 3.1798887511,
				"z": 0.1572936836,
				"element": "H" 
			},
			{
				"x": 0.1484228858,
				"y": 3.2948769334,
				"z": -1.5020961761,
				"element": "H" 
			},
			{
				"x": 0.6697152276,
				"y": 4.4703566422,
				"z": -0.2734609782,
				"element": "H" 
			},
			{
				"x": 2.415689205,
				"y": 0.7718022458,
				"z": 0.1270115474,
				"element": "H" 
			},
			{
				"x": 2.3728604981,
				"y": -2.3288625327,
				"z": -0.1036942475,
				"element": "H" 
			},
			{
				"x": -2.5021790991,
				"y": -0.3418464933,
				"z": -1.8008370046,
				"element": "H" 
			},
			{
				"x": -1.0789926367,
				"y": 1.5455161517,
				"z": -1.1342188393,
				"element": "H" 
			}
		],
		 "valence_orbital": [ 
			{
				"type": "occ",
				"energy": -0.30938,
				"method": "rhf"
			},
			{
				"type": "occ",
				"energy": -0.30443,
				"method": "rhf"
			},
			{
				"type": "occ",
				"energy": -0.28175,
				"method": "rhf"
			},
			{
				"type": "occ",
				"energy": -0.26245,
				"method": "rhf"
			},
			{
				"type": "occ",
				"energy": -0.25127,
				"method": "rhf"
			},
			{
				"type": "unocc",
				"energy": -0.08155,
				"method": "rhf"
			},
			{
				"type": "unocc",
				"energy": -0.05849,
				"method": "rhf"
			},
			{
				"type": "unocc",
				"energy": -0.00768,
				"method": "rhf"
			},
			{
				"type": "unocc",
				"energy": 0.00099,
				"method": "rhf"
			},
			{
				"type": "unocc",
				"energy": 0.04416,
				"method": "rhf"
			}
		],
		"cosmo_sigma_profile": { 
			"-0.025": 0.0,
			"-0.024": 0.0,
			"-0.023": 0.0,
			"-0.022": 0.0,
			"-0.021": 0.0,
			"-0.02": 0.0,
			"-0.019": 0.0,
			"-0.018": 0.0,
			"-0.017": 0.0,
			"-0.016": 0.0,
			"-0.015": 0.0125429778266,
			"-0.014": 0.436726804497,
			"-0.013": 1.0696246326,
			"-0.012": 1.40505240835,
			"-0.011": 1.11045484403,
			"-0.01": 1.08296381979,
			"-0.009": 6.69255093291,
			"-0.008": 11.3266854748,
			"-0.007": 9.24120644289,
			"-0.006": 9.59613901867,
			"-0.005": 13.0497025534,
			"-0.004": 14.1669766705,
			"-0.003": 17.4823904937,
			"-0.002": 22.3752633164,
			"-0.001": 21.0858584721,
			"0.0": 14.9573616586,
			"0.001": 8.243447553,
			"0.002": 9.20607687686,
			"0.003": 9.61976641571,
			"0.004": 7.63597383722,
			"0.005": 5.31576156387,
			"0.006": 4.1772828999,
			"0.007": 4.08962937471,
			"0.008": 4.57486399558,
			"0.009": 5.82444266392,
			"0.01": 6.72141792473,
			"0.011": 8.26724416336,
			"0.012": 9.02673411331,
			"0.013": 3.62693326036,
			"0.014": 0.263501230425,
			"0.015": 0.0,
			"0.016": 0.0,
			"0.017": 0.0,
			"0.018": 0.0,
			"0.019": 0.0,
			"0.02": 0.0,
			"0.021": 0.0,
			"0.022": 0.0,
			"0.023": 0.0,
			"0.024": 0.0,
			"0.025": 0.0
		}
	}
}
