{
	 "smiles": "OC1(C2=CC=CC=C2)C2=CC=CC=C2OC2=C1C=CC=C2", 
	 "Tm": 433.15, 
	 "num_atms": 35, 
	 "gaussian": { 
		 "optdone": 1, 
		 "sigma_profile": "yes", 
		 "theory": "DFT", 
		 "functional": "B3LYP", 
		 "basiset": "6-31G**", 
		 "properties": { 
			 "R2extent": 5684.3565, 
			 "electric_dipole_moment_norm": 0.809315395875, 
			 "electric_quadrupole_moment_norm": 3.92565418243, 
			 "total_energy": -882.904455278, 
			 "HOMO_LUMO_gap": 0.19597, 
			 "cosmo_polarized_energy": -9.43, 
			 "cosmo_cavitation_energy": 37.9, 
			 "cosmo_dispersion_energy": -26.61, 
			 "cosmo_repulsion_energy": 2.02, 
			 "cosmo_total_nonelectrostatic_energy": 13.31, 
			 "SMD_solvation_energy": 6.61 
		},
		"coords": [
			{
				"x": 1.029629647,
				"y": 0.3945430571,
				"z": 0.7410118621,
				"element": "O" 
			},
			{
				"x": -0.0207253194,
				"y": -0.1995303256,
				"z": -0.0347006784,
				"element": "C" 
			},
			{
				"x": -1.3403050739,
				"y": 0.2933385249,
				"z": 0.5832175175,
				"element": "C" 
			},
			{
				"x": -2.5602230539,
				"y": -0.1247158846,
				"z": 0.0336709561,
				"element": "C" 
			},
			{
				"x": -3.7685626951,
				"y": 0.3080365497,
				"z": 0.5747348148,
				"element": "C" 
			},
			{
				"x": -3.7766450936,
				"y": 1.1677547731,
				"z": 1.6765515256,
				"element": "C" 
			},
			{
				"x": -2.5669151672,
				"y": 1.586961968,
				"z": 2.2276729567,
				"element": "C" 
			},
			{
				"x": -1.3532645772,
				"y": 1.1534637056,
				"z": 1.6857719905,
				"element": "C" 
			},
			{
				"x": 0.0731169184,
				"y": -1.7210641696,
				"z": 0.0447262902,
				"element": "C" 
			},
			{
				"x": 0.2386384243,
				"y": -2.3540728585,
				"z": 1.2858594351,
				"element": "C" 
			},
			{
				"x": 0.306338282,
				"y": -3.7389495446,
				"z": 1.3868973016,
				"element": "C" 
			},
			{
				"x": 0.2062555693,
				"y": -4.5240040072,
				"z": 0.2310754724,
				"element": "C" 
			},
			{
				"x": 0.0512037153,
				"y": -3.9203531081,
				"z": -1.0105021813,
				"element": "C" 
			},
			{
				"x": -0.0097840891,
				"y": -2.5244330378,
				"z": -1.0963220459,
				"element": "C" 
			},
			{
				"x": -0.1530598249,
				"y": -2.0091428287,
				"z": -2.362550847,
				"element": "O" 
			},
			{
				"x": 0.0071061566,
				"y": -0.6567966386,
				"z": -2.5492044399,
				"element": "C" 
			},
			{
				"x": 0.0909179451,
				"y": 0.2505946544,
				"z": -1.4890797294,
				"element": "C" 
			},
			{
				"x": 0.2745842978,
				"y": 1.6073268077,
				"z": -1.7956942607,
				"element": "C" 
			},
			{
				"x": 0.3590159886,
				"y": 2.0451183824,
				"z": -3.1124646654,
				"element": "C" 
			},
			{
				"x": 0.2577103205,
				"y": 1.1191043656,
				"z": -4.1586483725,
				"element": "C" 
			},
			{
				"x": 0.0847868793,
				"y": -0.2309582756,
				"z": -3.880495086,
				"element": "C" 
			},
			{
				"x": 1.8644998317,
				"y": 0.0906368866,
				"z": 0.3599636184,
				"element": "H" 
			},
			{
				"x": -2.565598474,
				"y": -0.7930003132,
				"z": -0.822987185,
				"element": "H" 
			},
			{
				"x": -4.7046707199,
				"y": -0.0259266651,
				"z": 0.1360819199,
				"element": "H" 
			},
			{
				"x": -4.7184328798,
				"y": 1.5059306899,
				"z": 2.0993133488,
				"element": "H" 
			},
			{
				"x": -2.5613898442,
				"y": 2.2552979329,
				"z": 3.0844837324,
				"element": "H" 
			},
			{
				"x": -0.4143499976,
				"y": 1.4801948201,
				"z": 2.1154543541,
				"element": "H" 
			},
			{
				"x": 0.3134808521,
				"y": -1.7315198339,
				"z": 2.1718745747,
				"element": "H" 
			},
			{
				"x": 0.4317963831,
				"y": -4.208092889,
				"z": 2.3578121472,
				"element": "H" 
			},
			{
				"x": 0.2548484927,
				"y": -5.6068153012,
				"z": 0.2988819019,
				"element": "H" 
			},
			{
				"x": -0.0161322487,
				"y": -4.5005850241,
				"z": -1.9248362941,
				"element": "H" 
			},
			{
				"x": 0.3500297446,
				"y": 2.3120266398,
				"z": -0.9735623268,
				"element": "H" 
			},
			{
				"x": 0.4984177883,
				"y": 3.1000991592,
				"z": -3.3271523475,
				"element": "H" 
			},
			{
				"x": 0.3193116625,
				"y": 1.4505977596,
				"z": -5.1910030736,
				"element": "H" 
			},
			{
				"x": 0.0160701598,
				"y": -0.9736659711,
				"z": -4.6684521864,
				"element": "H" 
			}
		],
		 "valence_orbital": [ 
			{
				"type": "occ",
				"energy": -0.25282,
				"method": "rhf"
			},
			{
				"type": "occ",
				"energy": -0.25205,
				"method": "rhf"
			},
			{
				"type": "occ",
				"energy": -0.24344,
				"method": "rhf"
			},
			{
				"type": "occ",
				"energy": -0.23105,
				"method": "rhf"
			},
			{
				"type": "occ",
				"energy": -0.21544,
				"method": "rhf"
			},
			{
				"type": "unocc",
				"energy": -0.01947,
				"method": "rhf"
			},
			{
				"type": "unocc",
				"energy": -0.01519,
				"method": "rhf"
			},
			{
				"type": "unocc",
				"energy": -0.00207,
				"method": "rhf"
			},
			{
				"type": "unocc",
				"energy": 0.00575,
				"method": "rhf"
			},
			{
				"type": "unocc",
				"energy": 0.01628,
				"method": "rhf"
			}
		],
		"cosmo_sigma_profile": { 
			"-0.025": 0.0,
			"-0.024": 0.0,
			"-0.023": 0.0,
			"-0.022": 0.0,
			"-0.021": 0.0,
			"-0.02": 0.0,
			"-0.019": 0.0,
			"-0.018": 0.0,
			"-0.017": 0.0,
			"-0.016": 0.443087612025,
			"-0.015": 0.806031727517,
			"-0.014": 0.888920357771,
			"-0.013": 0.478694785123,
			"-0.012": 0.968580597121,
			"-0.011": 0.591038197567,
			"-0.01": 0.910635246047,
			"-0.009": 0.772622258258,
			"-0.008": 1.0923700293,
			"-0.007": 1.75288513013,
			"-0.006": 13.1206770228,
			"-0.005": 22.4022548784,
			"-0.004": 29.2090548215,
			"-0.003": 24.7030649143,
			"-0.002": 19.5730582267,
			"-0.001": 18.560076989,
			"0.0": 18.2796819942,
			"0.001": 21.7751248907,
			"0.002": 26.2474622223,
			"0.003": 26.2598006655,
			"0.004": 28.9809035508,
			"0.005": 27.4072088072,
			"0.006": 11.2981416469,
			"0.007": 2.47712150253,
			"0.008": 2.09766757377,
			"0.009": 1.67126318038,
			"0.01": 0.916654788058,
			"0.011": 0.0120340798736,
			"0.012": 0.0,
			"0.013": 0.0,
			"0.014": 0.0,
			"0.015": 0.0,
			"0.016": 0.0,
			"0.017": 0.0,
			"0.018": 0.0,
			"0.019": 0.0,
			"0.02": 0.0,
			"0.021": 0.0,
			"0.022": 0.0,
			"0.023": 0.0,
			"0.024": 0.0,
			"0.025": 0.0
		}
	}
}
