{
	 "smiles": "OC1CCCCCCCCCCC1", 
	 "Tm": 350.15, 
	 "num_atms": 37, 
	 "gaussian": { 
		 "optdone": 1, 
		 "sigma_profile": "yes", 
		 "theory": "DFT", 
		 "functional": "B3LYP", 
		 "basiset": "6-31G**", 
		 "properties": { 
			 "R2extent": 3260.2679, 
			 "electric_dipole_moment_norm": 1.42281761305, 
			 "electric_quadrupole_moment_norm": 7.10304416782, 
			 "total_energy": -546.972808103, 
			 "HOMO_LUMO_gap": 0.32543, 
			 "cosmo_polarized_energy": -5.56, 
			 "cosmo_cavitation_energy": 32.63, 
			 "cosmo_dispersion_energy": -23.86, 
			 "cosmo_repulsion_energy": 1.88, 
			 "cosmo_total_nonelectrostatic_energy": 10.65, 
			 "SMD_solvation_energy": 3.9 
		},
		"coords": [
			{
				"x": 2.1149402178,
				"y": -2.0026115929,
				"z": 0.0169510028,
				"element": "O" 
			},
			{
				"x": 1.5439998982,
				"y": -0.8883636582,
				"z": 0.7064591984,
				"element": "C" 
			},
			{
				"x": 0.0253861904,
				"y": -1.1685395624,
				"z": 0.803368212,
				"element": "C" 
			},
			{
				"x": -0.6943695475,
				"y": -1.7006196517,
				"z": -0.4613732848,
				"element": "C" 
			},
			{
				"x": -1.1919588189,
				"y": -0.6812099952,
				"z": -1.505037227,
				"element": "C" 
			},
			{
				"x": -2.3721926469,
				"y": 0.2013450011,
				"z": -1.0389116864,
				"element": "C" 
			},
			{
				"x": -2.598936217,
				"y": 1.488540318,
				"z": -1.8723667873,
				"element": "C" 
			},
			{
				"x": -1.899966657,
				"y": 2.739426934,
				"z": -1.295220261,
				"element": "C" 
			},
			{
				"x": -0.3971221524,
				"y": 2.5267485055,
				"z": -1.0906775211,
				"element": "C" 
			},
			{
				"x": 0.3533820711,
				"y": 3.549564722,
				"z": -0.2332080964,
				"element": "C" 
			},
			{
				"x": 1.7499213216,
				"y": 3.0449827005,
				"z": 0.190857085,
				"element": "C" 
			},
			{
				"x": 1.7242441764,
				"y": 1.6864123784,
				"z": 0.9383763288,
				"element": "C" 
			},
			{
				"x": 1.9693577946,
				"y": 0.4428610219,
				"z": 0.0547426505,
				"element": "C" 
			},
			{
				"x": 3.0703727336,
				"y": -1.8686813665,
				"z": -0.0207508275,
				"element": "H" 
			},
			{
				"x": 1.9206662543,
				"y": -0.8691664044,
				"z": 1.7453494994,
				"element": "H" 
			},
			{
				"x": -0.0878507975,
				"y": -1.9353630349,
				"z": 1.5784787001,
				"element": "H" 
			},
			{
				"x": -0.4754051102,
				"y": -0.2763924,
				"z": 1.1983251505,
				"element": "H" 
			},
			{
				"x": -0.0255329056,
				"y": -2.4161859487,
				"z": -0.9487799407,
				"element": "H" 
			},
			{
				"x": -1.5628856439,
				"y": -2.2805323943,
				"z": -0.1203609741,
				"element": "H" 
			},
			{
				"x": -0.3591027126,
				"y": -0.0598575358,
				"z": -1.8458430058,
				"element": "H" 
			},
			{
				"x": -1.5141323422,
				"y": -1.2361450928,
				"z": -2.3964999974,
				"element": "H" 
			},
			{
				"x": -2.2389095216,
				"y": 0.4857206029,
				"z": 0.0140709767,
				"element": "H" 
			},
			{
				"x": -3.2808203917,
				"y": -0.4135104292,
				"z": -1.0580946191,
				"element": "H" 
			},
			{
				"x": -3.6735100464,
				"y": 1.6972199563,
				"z": -1.9399355821,
				"element": "H" 
			},
			{
				"x": -2.2610501883,
				"y": 1.3181617049,
				"z": -2.9042204428,
				"element": "H" 
			},
			{
				"x": -2.3595005519,
				"y": 2.9757433719,
				"z": -0.3243941243,
				"element": "H" 
			},
			{
				"x": -2.0906859018,
				"y": 3.6053639491,
				"z": -1.9429923914,
				"element": "H" 
			},
			{
				"x": -0.2869805898,
				"y": 1.5656815501,
				"z": -0.5932722209,
				"element": "H" 
			},
			{
				"x": 0.1008065005,
				"y": 2.4223888801,
				"z": -2.0656715276,
				"element": "H" 
			},
			{
				"x": -0.2322545276,
				"y": 3.751273599,
				"z": 0.6754855121,
				"element": "H" 
			},
			{
				"x": 0.447979936,
				"y": 4.5103247033,
				"z": -0.7561739088,
				"element": "H" 
			},
			{
				"x": 2.2104796181,
				"y": 3.8045292829,
				"z": 0.8338331877,
				"element": "H" 
			},
			{
				"x": 2.3994224101,
				"y": 2.9647939089,
				"z": -0.6918390674,
				"element": "H" 
			},
			{
				"x": 0.7618086187,
				"y": 1.5923940609,
				"z": 1.4591925448,
				"element": "H" 
			},
			{
				"x": 2.4819155114,
				"y": 1.6906478175,
				"z": 1.7318146545,
				"element": "H" 
			},
			{
				"x": 3.0485802236,
				"y": 0.3828318084,
				"z": -0.1526828546,
				"element": "H" 
			},
			{
				"x": 1.4914037944,
				"y": 0.5430222897,
				"z": -0.9228983547,
				"element": "H" 
			}
		],
		 "valence_orbital": [ 
			{
				"type": "occ",
				"energy": -0.30967,
				"method": "rhf"
			},
			{
				"type": "occ",
				"energy": -0.30322,
				"method": "rhf"
			},
			{
				"type": "occ",
				"energy": -0.29141,
				"method": "rhf"
			},
			{
				"type": "occ",
				"energy": -0.28808,
				"method": "rhf"
			},
			{
				"type": "occ",
				"energy": -0.25567,
				"method": "rhf"
			},
			{
				"type": "unocc",
				"energy": 0.06976,
				"method": "rhf"
			},
			{
				"type": "unocc",
				"energy": 0.08751,
				"method": "rhf"
			},
			{
				"type": "unocc",
				"energy": 0.10046,
				"method": "rhf"
			},
			{
				"type": "unocc",
				"energy": 0.10317,
				"method": "rhf"
			},
			{
				"type": "unocc",
				"energy": 0.11314,
				"method": "rhf"
			}
		],
		"cosmo_sigma_profile": { 
			"-0.025": 0.0,
			"-0.024": 0.0,
			"-0.023": 0.0,
			"-0.022": 0.0,
			"-0.021": 0.0,
			"-0.02": 0.0,
			"-0.019": 0.0,
			"-0.018": 0.0,
			"-0.017": 0.0,
			"-0.016": 0.0,
			"-0.015": 0.219191711652,
			"-0.014": 1.08107570905,
			"-0.013": 0.819716719296,
			"-0.012": 0.504028559773,
			"-0.011": 1.41024773789,
			"-0.01": 1.11290501144,
			"-0.009": 0.732980668191,
			"-0.008": 1.15249680186,
			"-0.007": 0.730615161444,
			"-0.006": 1.42569137684,
			"-0.005": 1.07581214716,
			"-0.004": 2.07656595887,
			"-0.003": 8.17498978151,
			"-0.002": 30.8141214168,
			"-0.001": 53.9676518492,
			"0.0": 56.911499073,
			"0.001": 45.3239748712,
			"0.002": 20.9710910807,
			"0.003": 2.81233880403,
			"0.004": 2.44662498327,
			"0.005": 1.88888298989,
			"0.006": 1.05563207247,
			"0.007": 0.92286923061,
			"0.008": 1.64920847953,
			"0.009": 1.81947656018,
			"0.01": 1.85538258649,
			"0.011": 1.13263737832,
			"0.012": 1.90233536789,
			"0.013": 1.45165312887,
			"0.014": 0.746528541901,
			"0.015": 0.423315778611,
			"0.016": 0.0,
			"0.017": 0.0,
			"0.018": 0.0,
			"0.019": 0.0,
			"0.02": 0.0,
			"0.021": 0.0,
			"0.022": 0.0,
			"0.023": 0.0,
			"0.024": 0.0,
			"0.025": 0.0
		}
	}
}
