{
	 "smiles": "OC1=C(Cl)C=C(Cl)C=C1Br", 
	 "Tm": 341.15, 
	 "num_atms": 13, 
	 "gaussian": { 
		 "optdone": 1, 
		 "sigma_profile": "yes", 
		 "theory": "DFT", 
		 "functional": "B3LYP", 
		 "basiset": "6-31G**", 
		 "properties": { 
			 "R2extent": 3719.0087, 
			 "electric_dipole_moment_norm": 1.31058884857, 
			 "electric_quadrupole_moment_norm": 4.76240078637, 
			 "total_energy": -3797.45082388, 
			 "HOMO_LUMO_gap": 0.20082, 
			 "cosmo_polarized_energy": -6.28, 
			 "cosmo_cavitation_energy": 23.41, 
			 "cosmo_dispersion_energy": -18.3, 
			 "cosmo_repulsion_energy": 1.49, 
			 "cosmo_total_nonelectrostatic_energy": 6.6, 
			 "SMD_solvation_energy": 2.75 
		},
		"coords": [
			{
				"x": -1.4487626714,
				"y": 0.5582133114,
				"z": 1.7460099402,
				"element": "O" 
			},
			{
				"x": -0.2703743837,
				"y": 0.6756204142,
				"z": 1.1019298378,
				"element": "C" 
			},
			{
				"x": 0.8681301964,
				"y": -0.0824287253,
				"z": 1.4253425904,
				"element": "C" 
			},
			{
				"x": 0.7382752948,
				"y": -1.2428388128,
				"z": 2.7414627911,
				"element": "Cl" 
			},
			{
				"x": 2.074855789,
				"y": 0.0552482186,
				"z": 0.7467830152,
				"element": "C" 
			},
			{
				"x": 2.1506162579,
				"y": 0.980582113,
				"z": -0.2905960809,
				"element": "C" 
			},
			{
				"x": 3.6593797636,
				"y": 1.17500998,
				"z": -1.1632254358,
				"element": "Cl" 
			},
			{
				"x": 1.0467105445,
				"y": 1.7542323031,
				"z": -0.6460874427,
				"element": "C" 
			},
			{
				"x": -0.1486653323,
				"y": 1.5970864663,
				"z": 0.0486162589,
				"element": "C" 
			},
			{
				"x": -1.6534284601,
				"y": 2.6510995394,
				"z": -0.435368742,
				"element": "Br" 
			},
			{
				"x": -1.3630039297,
				"y": -0.1149491606,
				"z": 2.4387977778,
				"element": "H" 
			},
			{
				"x": 2.9310863496,
				"y": -0.5466362979,
				"z": 1.0244580914,
				"element": "H" 
			},
			{
				"x": 1.1124805814,
				"y": 2.4719606507,
				"z": -1.4538226015,
				"element": "H" 
			}
		],
		 "valence_orbital": [ 
			{
				"type": "occ",
				"energy": -0.32638,
				"method": "rhf"
			},
			{
				"type": "occ",
				"energy": -0.30879,
				"method": "rhf"
			},
			{
				"type": "occ",
				"energy": -0.29494,
				"method": "rhf"
			},
			{
				"type": "occ",
				"energy": -0.26267,
				"method": "rhf"
			},
			{
				"type": "occ",
				"energy": -0.23995,
				"method": "rhf"
			},
			{
				"type": "unocc",
				"energy": -0.03913,
				"method": "rhf"
			},
			{
				"type": "unocc",
				"energy": -0.02882,
				"method": "rhf"
			},
			{
				"type": "unocc",
				"energy": -0.02235,
				"method": "rhf"
			},
			{
				"type": "unocc",
				"energy": 0.02459,
				"method": "rhf"
			},
			{
				"type": "unocc",
				"energy": 0.03743,
				"method": "rhf"
			}
		],
		"cosmo_sigma_profile": { 
			"-0.025": 0.0,
			"-0.024": 0.0,
			"-0.023": 0.0,
			"-0.022": 0.0,
			"-0.021": 0.0,
			"-0.02": 0.0,
			"-0.019": 0.0,
			"-0.018": 0.0,
			"-0.017": 0.066721839887,
			"-0.016": 0.653106993296,
			"-0.015": 0.619527965782,
			"-0.014": 0.701565016194,
			"-0.013": 0.397144606563,
			"-0.012": 0.89566727982,
			"-0.011": 1.21338437255,
			"-0.01": 0.866807691612,
			"-0.009": 2.5610693906,
			"-0.008": 4.13549650592,
			"-0.007": 3.50148531307,
			"-0.006": 4.82346445406,
			"-0.005": 5.77255601394,
			"-0.004": 6.2899613875,
			"-0.003": 10.0900961016,
			"-0.002": 12.0863562662,
			"-0.001": 17.0651834963,
			"0.0": 25.9542383933,
			"0.001": 26.8687688234,
			"0.002": 16.6177089536,
			"0.003": 20.8317305894,
			"0.004": 20.4057164935,
			"0.005": 4.98054566513,
			"0.006": 1.87176666231,
			"0.007": 1.93999091755,
			"0.008": 1.95232275897,
			"0.009": 2.43528013338,
			"0.01": 0.892193852569,
			"0.011": 0.0,
			"0.012": 0.0,
			"0.013": 0.0,
			"0.014": 0.0,
			"0.015": 0.0,
			"0.016": 0.0,
			"0.017": 0.0,
			"0.018": 0.0,
			"0.019": 0.0,
			"0.02": 0.0,
			"0.021": 0.0,
			"0.022": 0.0,
			"0.023": 0.0,
			"0.024": 0.0,
			"0.025": 0.0
		}
	}
}
