{
	 "smiles": "NC(=NO)C1=CC2=C(OCC2)C=C1", 
	 "Tm": 489.15, 
	 "num_atms": 23, 
	 "gaussian": { 
		 "optdone": 1, 
		 "sigma_profile": "yes", 
		 "theory": "DFT", 
		 "functional": "B3LYP", 
		 "basiset": "6-31G**", 
		 "properties": { 
			 "R2extent": 3144.0248, 
			 "electric_dipole_moment_norm": 1.67666967826, 
			 "electric_quadrupole_moment_norm": 9.25387557243, 
			 "total_energy": -608.880407831, 
			 "HOMO_LUMO_gap": 0.18443, 
			 "cosmo_polarized_energy": -13.23, 
			 "cosmo_cavitation_energy": 26.6, 
			 "cosmo_dispersion_energy": -20.32, 
			 "cosmo_repulsion_energy": 1.63, 
			 "cosmo_total_nonelectrostatic_energy": 7.92, 
			 "SMD_solvation_energy": 4.61 
		},
		"coords": [
			{
				"x": -0.7706079705,
				"y": 2.6615140889,
				"z": 2.3673627684,
				"element": "N" 
			},
			{
				"x": -0.7158468147,
				"y": 1.3376082366,
				"z": 1.9664573498,
				"element": "C" 
			},
			{
				"x": -1.3984437247,
				"y": 0.3880035061,
				"z": 2.5228974898,
				"element": "N" 
			},
			{
				"x": -2.0941623831,
				"y": 0.9018243314,
				"z": 3.6575813383,
				"element": "O" 
			},
			{
				"x": 0.1283956085,
				"y": 0.9941378893,
				"z": 0.7999138017,
				"element": "C" 
			},
			{
				"x": 0.597234617,
				"y": -0.3253605856,
				"z": 0.633390391,
				"element": "C" 
			},
			{
				"x": 1.3747902185,
				"y": -0.6350000943,
				"z": -0.4684361083,
				"element": "C" 
			},
			{
				"x": 1.7022427954,
				"y": 0.3584398212,
				"z": -1.3992416059,
				"element": "C" 
			},
			{
				"x": 2.4870296931,
				"y": -0.0919637668,
				"z": -2.4190904434,
				"element": "O" 
			},
			{
				"x": 2.5428977556,
				"y": -1.5394123272,
				"z": -2.3192927124,
				"element": "C" 
			},
			{
				"x": 2.0639222258,
				"y": -1.9127177572,
				"z": -0.8950795097,
				"element": "C" 
			},
			{
				"x": 1.2614704199,
				"y": 1.6694028957,
				"z": -1.2618403498,
				"element": "C" 
			},
			{
				"x": 0.4674539311,
				"y": 1.9705139962,
				"z": -0.1512840083,
				"element": "C" 
			},
			{
				"x": 0.0918173957,
				"y": 3.1785050072,
				"z": 2.2729012831,
				"element": "H" 
			},
			{
				"x": -1.2356233455,
				"y": 2.7882632177,
				"z": 3.2564930883,
				"element": "H" 
			},
			{
				"x": -2.5685270585,
				"y": 0.1214249637,
				"z": 3.9670808337,
				"element": "H" 
			},
			{
				"x": 0.3370973285,
				"y": -1.071991243,
				"z": 1.3760730149,
				"element": "H" 
			},
			{
				"x": 3.5684693391,
				"y": -1.8454758741,
				"z": -2.5364616925,
				"element": "H" 
			},
			{
				"x": 1.8795417793,
				"y": -1.9546732548,
				"z": -3.0874596683,
				"element": "H" 
			},
			{
				"x": 2.9067721928,
				"y": -2.1479547088,
				"z": -0.2332157924,
				"element": "H" 
			},
			{
				"x": 1.4017456294,
				"y": -2.7836523956,
				"z": -0.9041926848,
				"element": "H" 
			},
			{
				"x": 1.5140537743,
				"y": 2.4221324664,
				"z": -2.0004680223,
				"element": "H" 
			},
			{
				"x": 0.0754765931,
				"y": 2.9767315869,
				"z": -0.0410887609,
				"element": "H" 
			}
		],
		 "valence_orbital": [ 
			{
				"type": "occ",
				"energy": -0.30029,
				"method": "rhf"
			},
			{
				"type": "occ",
				"energy": -0.26628,
				"method": "rhf"
			},
			{
				"type": "occ",
				"energy": -0.24857,
				"method": "rhf"
			},
			{
				"type": "occ",
				"energy": -0.2257,
				"method": "rhf"
			},
			{
				"type": "occ",
				"energy": -0.19558,
				"method": "rhf"
			},
			{
				"type": "unocc",
				"energy": -0.01115,
				"method": "rhf"
			},
			{
				"type": "unocc",
				"energy": -0.00456,
				"method": "rhf"
			},
			{
				"type": "unocc",
				"energy": 0.06803,
				"method": "rhf"
			},
			{
				"type": "unocc",
				"energy": 0.08335,
				"method": "rhf"
			},
			{
				"type": "unocc",
				"energy": 0.09472,
				"method": "rhf"
			}
		],
		"cosmo_sigma_profile": { 
			"-0.025": 0.0,
			"-0.024": 0.0,
			"-0.023": 0.0,
			"-0.022": 0.0,
			"-0.021": 0.0,
			"-0.02": 0.0,
			"-0.019": 0.0,
			"-0.018": 0.0,
			"-0.017": 0.237124538042,
			"-0.016": 1.04188637226,
			"-0.015": 0.814193045591,
			"-0.014": 0.91958239524,
			"-0.013": 1.46471841821,
			"-0.012": 1.80066652764,
			"-0.011": 2.04745530408,
			"-0.01": 2.99902697906,
			"-0.009": 2.36859669466,
			"-0.008": 2.86935563745,
			"-0.007": 4.11407050527,
			"-0.006": 8.47307618195,
			"-0.005": 18.2090361243,
			"-0.004": 18.4919127088,
			"-0.003": 15.7787603391,
			"-0.002": 14.2918106153,
			"-0.001": 10.8455312973,
			"0.0": 7.81627559489,
			"0.001": 8.16805355658,
			"0.002": 10.8872352964,
			"0.003": 12.0491078505,
			"0.004": 14.8510556925,
			"0.005": 13.4385889722,
			"0.006": 6.87914507887,
			"0.007": 5.10953630619,
			"0.008": 6.64781657112,
			"0.009": 6.74963828123,
			"0.01": 4.38823944911,
			"0.011": 3.54403450321,
			"0.012": 1.63570696388,
			"0.013": 1.12110665696,
			"0.014": 0.671328232771,
			"0.015": 0.133218713294,
			"0.016": 0.0,
			"0.017": 0.0,
			"0.018": 0.0,
			"0.019": 0.0,
			"0.02": 0.0,
			"0.021": 0.0,
			"0.022": 0.0,
			"0.023": 0.0,
			"0.024": 0.0,
			"0.025": 0.0
		}
	}
}
