{
	 "smiles": "CC1=C(CNC2=CC=C(O)C=C2)C=NN1", 
	 "Tm": 424.15, 
	 "num_atms": 28, 
	 "gaussian": { 
		 "optdone": 1, 
		 "sigma_profile": "yes", 
		 "theory": "DFT", 
		 "functional": "B3LYP", 
		 "basiset": "6-31G**", 
		 "properties": { 
			 "R2extent": 3965.7369, 
			 "electric_dipole_moment_norm": 1.94425216986, 
			 "electric_quadrupole_moment_norm": 18.3168543356, 
			 "total_energy": -666.457991579, 
			 "HOMO_LUMO_gap": 0.18631, 
			 "cosmo_polarized_energy": -17.72, 
			 "cosmo_cavitation_energy": 31.6, 
			 "cosmo_dispersion_energy": -22.62, 
			 "cosmo_repulsion_energy": 1.8, 
			 "cosmo_total_nonelectrostatic_energy": 10.77, 
			 "SMD_solvation_energy": 4.66 
		},
		"coords": [
			{
				"x": 2.0452686309,
				"y": -1.8589616773,
				"z": 1.7575862169,
				"element": "C" 
			},
			{
				"x": 2.434826231,
				"y": -0.539988861,
				"z": 1.1687417292,
				"element": "C" 
			},
			{
				"x": 2.188118131,
				"y": 0.0379830886,
				"z": -0.0723150324,
				"element": "C" 
			},
			{
				"x": 1.4340607255,
				"y": -0.5305556685,
				"z": -1.2466801014,
				"element": "C" 
			},
			{
				"x": 0.1694810371,
				"y": -1.1850529602,
				"z": -0.9016912303,
				"element": "N" 
			},
			{
				"x": -1.0047097508,
				"y": -0.431707585,
				"z": -0.7085283191,
				"element": "C" 
			},
			{
				"x": -0.9884791464,
				"y": 0.9291134984,
				"z": -0.3700092496,
				"element": "C" 
			},
			{
				"x": -2.1827296523,
				"y": 1.6232333101,
				"z": -0.1569895733,
				"element": "C" 
			},
			{
				"x": -3.4141677233,
				"y": 0.97992743,
				"z": -0.2776495972,
				"element": "C" 
			},
			{
				"x": -4.6166424522,
				"y": 1.6132109526,
				"z": -0.0823344802,
				"element": "O" 
			},
			{
				"x": -3.4419532134,
				"y": -0.378081513,
				"z": -0.6137801271,
				"element": "C" 
			},
			{
				"x": -2.2550243106,
				"y": -1.0688147207,
				"z": -0.8230917201,
				"element": "C" 
			},
			{
				"x": 2.8526363771,
				"y": 1.2887046373,
				"z": -0.0173087424,
				"element": "C" 
			},
			{
				"x": 3.4624825918,
				"y": 1.492704067,
				"z": 1.1479234426,
				"element": "N" 
			},
			{
				"x": 3.1940548069,
				"y": 0.3668089008,
				"z": 1.8452365962,
				"element": "N" 
			},
			{
				"x": 2.8366565655,
				"y": -2.6091181933,
				"z": 1.6336451511,
				"element": "H" 
			},
			{
				"x": 1.1464683536,
				"y": -2.2264542455,
				"z": 1.259614763,
				"element": "H" 
			},
			{
				"x": 1.8358860084,
				"y": -1.7732288574,
				"z": 2.8295944634,
				"element": "H" 
			},
			{
				"x": 2.0460067675,
				"y": -1.2923883004,
				"z": -1.7455205774,
				"element": "H" 
			},
			{
				"x": 1.2822515757,
				"y": 0.2743355941,
				"z": -1.9848197572,
				"element": "H" 
			},
			{
				"x": -0.0025269038,
				"y": -2.0000836505,
				"z": -1.4750453117,
				"element": "H" 
			},
			{
				"x": -0.04707037,
				"y": 1.4514946718,
				"z": -0.2500092709,
				"element": "H" 
			},
			{
				"x": -2.1438611095,
				"y": 2.678643876,
				"z": 0.1066826875,
				"element": "H" 
			},
			{
				"x": -4.4478965238,
				"y": 2.5369299714,
				"z": 0.1423853448,
				"element": "H" 
			},
			{
				"x": -4.4009274244,
				"y": -0.8770369177,
				"z": -0.7093468873,
				"element": "H" 
			},
			{
				"x": -2.2929556675,
				"y": -2.1250996796,
				"z": -1.0812534968,
				"element": "H" 
			},
			{
				"x": 2.9029316791,
				"y": 2.0476170082,
				"z": -0.7886510009,
				"element": "H" 
			},
			{
				"x": 3.5348147669,
				"y": 0.2861658238,
				"z": 2.7912140806,
				"element": "H" 
			}
		],
		 "valence_orbital": [ 
			{
				"type": "occ",
				"energy": -0.26855,
				"method": "rhf"
			},
			{
				"type": "occ",
				"energy": -0.24765,
				"method": "rhf"
			},
			{
				"type": "occ",
				"energy": -0.24328,
				"method": "rhf"
			},
			{
				"type": "occ",
				"energy": -0.2262,
				"method": "rhf"
			},
			{
				"type": "occ",
				"energy": -0.18159,
				"method": "rhf"
			},
			{
				"type": "unocc",
				"energy": 0.00472,
				"method": "rhf"
			},
			{
				"type": "unocc",
				"energy": 0.02226,
				"method": "rhf"
			},
			{
				"type": "unocc",
				"energy": 0.03405,
				"method": "rhf"
			},
			{
				"type": "unocc",
				"energy": 0.0589,
				"method": "rhf"
			},
			{
				"type": "unocc",
				"energy": 0.07959,
				"method": "rhf"
			}
		],
		"cosmo_sigma_profile": { 
			"-0.025": 0.0,
			"-0.024": 0.0,
			"-0.023": 0.0,
			"-0.022": 0.0,
			"-0.021": 0.0,
			"-0.02": 0.0,
			"-0.019": 0.0,
			"-0.018": 0.155312542316,
			"-0.017": 0.66429823392,
			"-0.016": 1.63107003616,
			"-0.015": 2.16719673192,
			"-0.014": 2.54209373042,
			"-0.013": 1.87217496471,
			"-0.012": 2.38611051046,
			"-0.011": 3.071139759,
			"-0.01": 3.60978249832,
			"-0.009": 5.00273708067,
			"-0.008": 3.55130338995,
			"-0.007": 4.43478564113,
			"-0.006": 7.54219937852,
			"-0.005": 12.5475836988,
			"-0.004": 17.4360508348,
			"-0.003": 18.5385515761,
			"-0.002": 18.0984050994,
			"-0.001": 17.8102996111,
			"0.0": 15.8533696869,
			"0.001": 11.1235345784,
			"0.002": 10.4195472592,
			"0.003": 10.4549708619,
			"0.004": 13.5366002367,
			"0.005": 16.6876914592,
			"0.006": 16.0242999931,
			"0.007": 11.4812230234,
			"0.008": 3.18866667009,
			"0.009": 3.29701080711,
			"0.01": 2.77896476748,
			"0.011": 3.18581645727,
			"0.012": 3.46480933994,
			"0.013": 1.76975051279,
			"0.014": 1.17019061271,
			"0.015": 0.985482526733,
			"0.016": 1.27986596853,
			"0.017": 0.487156066798,
			"0.018": 0.0,
			"0.019": 0.0,
			"0.02": 0.0,
			"0.021": 0.0,
			"0.022": 0.0,
			"0.023": 0.0,
			"0.024": 0.0,
			"0.025": 0.0
		}
	}
}
