{
	 "smiles": "NCCNC1=NN=C(C=C1)C1=CC=CC=C1", 
	 "Tm": 387.15, 
	 "num_atms": 30, 
	 "gaussian": { 
		 "optdone": 1, 
		 "sigma_profile": "yes", 
		 "theory": "DFT", 
		 "functional": "B3LYP", 
		 "basiset": "6-31G**", 
		 "properties": { 
			 "R2extent": 6370.0066, 
			 "electric_dipole_moment_norm": 4.17190619382, 
			 "electric_quadrupole_moment_norm": 13.2701696997, 
			 "total_energy": -684.689207561, 
			 "HOMO_LUMO_gap": 0.16671, 
			 "cosmo_polarized_energy": -15.46, 
			 "cosmo_cavitation_energy": 33.25, 
			 "cosmo_dispersion_energy": -24.74, 
			 "cosmo_repulsion_energy": 1.93, 
			 "cosmo_total_nonelectrostatic_energy": 10.44, 
			 "SMD_solvation_energy": 2.53 
		},
		"coords": [
			{
				"x": 4.2848395716,
				"y": 1.3199156115,
				"z": 2.0385027755,
				"element": "N" 
			},
			{
				"x": 4.4664068466,
				"y": -0.1333518056,
				"z": 2.0315635056,
				"element": "C" 
			},
			{
				"x": 3.3733228859,
				"y": -0.8004673688,
				"z": 1.1905899733,
				"element": "C" 
			},
			{
				"x": 2.0263215021,
				"y": -0.564296171,
				"z": 1.7038761797,
				"element": "N" 
			},
			{
				"x": 1.0975891471,
				"y": 0.2542257351,
				"z": 1.0975934365,
				"element": "C" 
			},
			{
				"x": -0.1858350074,
				"y": -0.0685827077,
				"z": 1.3556876791,
				"element": "N" 
			},
			{
				"x": -1.1719772264,
				"y": 0.6502700371,
				"z": 0.8450474655,
				"element": "N" 
			},
			{
				"x": -0.9269263829,
				"y": 1.7029365754,
				"z": 0.0481704801,
				"element": "C" 
			},
			{
				"x": 0.3989067893,
				"y": 2.0999423746,
				"z": -0.2254357702,
				"element": "C" 
			},
			{
				"x": 1.4398354386,
				"y": 1.3734505715,
				"z": 0.308051602,
				"element": "C" 
			},
			{
				"x": -2.1119235881,
				"y": 2.4200769647,
				"z": -0.485627995,
				"element": "C" 
			},
			{
				"x": -2.0215523387,
				"y": 3.2572458931,
				"z": -1.6098637978,
				"element": "C" 
			},
			{
				"x": -3.1443638972,
				"y": 3.9284086078,
				"z": -2.0936388437,
				"element": "C" 
			},
			{
				"x": -4.3809864669,
				"y": 3.7719848233,
				"z": -1.466389136,
				"element": "C" 
			},
			{
				"x": -4.4851767155,
				"y": 2.933212092,
				"z": -0.3535614537,
				"element": "C" 
			},
			{
				"x": -3.3651198569,
				"y": 2.2637005996,
				"z": 0.1321233011,
				"element": "C" 
			},
			{
				"x": 3.4585100146,
				"y": 1.5456444058,
				"z": 2.5881780116,
				"element": "H" 
			},
			{
				"x": 5.0694571753,
				"y": 1.7703030545,
				"z": 2.5020240718,
				"element": "H" 
			},
			{
				"x": 5.436137894,
				"y": -0.3601388132,
				"z": 1.5717052009,
				"element": "H" 
			},
			{
				"x": 4.4714160722,
				"y": -0.5911890847,
				"z": 3.0363093772,
				"element": "H" 
			},
			{
				"x": 3.5518123106,
				"y": -1.8820964014,
				"z": 1.1629595727,
				"element": "H" 
			},
			{
				"x": 3.4402190444,
				"y": -0.4339439367,
				"z": 0.1604264756,
				"element": "H" 
			},
			{
				"x": 1.5764211616,
				"y": -1.3347723316,
				"z": 2.1817179879,
				"element": "H" 
			},
			{
				"x": 0.6015506637,
				"y": 2.9874356064,
				"z": -0.8155285917,
				"element": "H" 
			},
			{
				"x": 2.4758197761,
				"y": 1.670137917,
				"z": 0.1845914116,
				"element": "H" 
			},
			{
				"x": -1.0754365258,
				"y": 3.3721038892,
				"z": -2.1303313398,
				"element": "H" 
			},
			{
				"x": -3.0526364106,
				"y": 4.5675836534,
				"z": -2.9673812362,
				"element": "H" 
			},
			{
				"x": -5.2555744643,
				"y": 4.2947240861,
				"z": -1.8429833041,
				"element": "H" 
			},
			{
				"x": -5.4439899603,
				"y": 2.8027454757,
				"z": 0.1406221292,
				"element": "H" 
			},
			{
				"x": -3.4383674527,
				"y": 1.6087906468,
				"z": 0.9928008313,
				"element": "H" 
			}
		],
		 "valence_orbital": [ 
			{
				"type": "occ",
				"energy": -0.25532,
				"method": "rhf"
			},
			{
				"type": "occ",
				"energy": -0.24486,
				"method": "rhf"
			},
			{
				"type": "occ",
				"energy": -0.24297,
				"method": "rhf"
			},
			{
				"type": "occ",
				"energy": -0.21733,
				"method": "rhf"
			},
			{
				"type": "occ",
				"energy": -0.20358,
				"method": "rhf"
			},
			{
				"type": "unocc",
				"energy": -0.03687,
				"method": "rhf"
			},
			{
				"type": "unocc",
				"energy": -0.02628,
				"method": "rhf"
			},
			{
				"type": "unocc",
				"energy": 0.00805,
				"method": "rhf"
			},
			{
				"type": "unocc",
				"energy": 0.04061,
				"method": "rhf"
			},
			{
				"type": "unocc",
				"energy": 0.07308,
				"method": "rhf"
			}
		],
		"cosmo_sigma_profile": { 
			"-0.025": 0.0,
			"-0.024": 0.0,
			"-0.023": 0.0,
			"-0.022": 0.0,
			"-0.021": 0.0,
			"-0.02": 0.0,
			"-0.019": 0.0,
			"-0.018": 0.0,
			"-0.017": 0.0,
			"-0.016": 0.0,
			"-0.015": 0.0,
			"-0.014": 0.0,
			"-0.013": 0.397230547328,
			"-0.012": 0.667559650181,
			"-0.011": 1.14781261003,
			"-0.01": 2.22817751452,
			"-0.009": 2.87724649029,
			"-0.008": 5.7714499505,
			"-0.007": 6.60628868503,
			"-0.006": 10.2624801753,
			"-0.005": 17.9618315249,
			"-0.004": 24.0089389183,
			"-0.003": 24.0543296489,
			"-0.002": 21.3652037393,
			"-0.001": 20.1544419202,
			"0.0": 16.9428138027,
			"0.001": 18.7613031549,
			"0.002": 16.2595490879,
			"0.003": 12.8073042166,
			"0.004": 12.7108172744,
			"0.005": 15.2597173117,
			"0.006": 9.54849925913,
			"0.007": 2.83068999701,
			"0.008": 2.11544623979,
			"0.009": 2.61550636754,
			"0.01": 2.57051920921,
			"0.011": 2.3121842599,
			"0.012": 2.1327042226,
			"0.013": 2.91329682461,
			"0.014": 2.54402551557,
			"0.015": 2.67729703728,
			"0.016": 1.2805644494,
			"0.017": 0.169978629849,
			"0.018": 0.0,
			"0.019": 0.0,
			"0.02": 0.0,
			"0.021": 0.0,
			"0.022": 0.0,
			"0.023": 0.0,
			"0.024": 0.0,
			"0.025": 0.0
		}
	}
}
