{
	 "smiles": "COC1=CC=C(C=C1)C1=C(C(=NO1)C(=O)C1=CC=C(C)C=C1)S(=O)(=O)C1=CC=CC=C1", 
	 "Tm": 443.15, 
	 "num_atms": 50, 
	 "gaussian": { 
		 "optdone": 1, 
		 "sigma_profile": "yes", 
		 "theory": "DFT", 
		 "functional": "B3LYP", 
		 "basiset": "6-31G**", 
		 "properties": { 
			 "R2extent": 16595.8639, 
			 "electric_dipole_moment_norm": 4.18192478292, 
			 "electric_quadrupole_moment_norm": 44.682846962, 
			 "total_energy": -1754.93421201, 
			 "HOMO_LUMO_gap": 0.16144, 
			 "cosmo_polarized_energy": -19.84, 
			 "cosmo_cavitation_energy": 56.17, 
			 "cosmo_dispersion_energy": -38.65, 
			 "cosmo_repulsion_energy": 2.85, 
			 "cosmo_total_nonelectrostatic_energy": 20.37, 
			 "SMD_solvation_energy": 9.71 
		},
		"coords": [
			{
				"x": 5.2975731583,
				"y": -1.3073966417,
				"z": -5.4993454213,
				"element": "C" 
			},
			{
				"x": 4.1629964262,
				"y": -1.9353417467,
				"z": -4.9166806904,
				"element": "O" 
			},
			{
				"x": 3.5338449606,
				"y": -1.3141169511,
				"z": -3.8862451094,
				"element": "C" 
			},
			{
				"x": 2.4299858034,
				"y": -1.9927116427,
				"z": -3.3452198492,
				"element": "C" 
			},
			{
				"x": 1.7116380387,
				"y": -1.4480998522,
				"z": -2.2930618959,
				"element": "C" 
			},
			{
				"x": 2.0790381526,
				"y": -0.2003040876,
				"z": -1.7493336756,
				"element": "C" 
			},
			{
				"x": 3.1929424113,
				"y": 0.4659237673,
				"z": -2.2907560365,
				"element": "C" 
			},
			{
				"x": 3.9148376484,
				"y": -0.0757191537,
				"z": -3.3495463391,
				"element": "C" 
			},
			{
				"x": 1.3734695577,
				"y": 0.4196744473,
				"z": -0.6278996132,
				"element": "C" 
			},
			{
				"x": 0.0888569546,
				"y": 0.4409199169,
				"z": -0.108023965,
				"element": "C" 
			},
			{
				"x": 0.1607248036,
				"y": 1.3613240846,
				"z": 0.9876470818,
				"element": "C" 
			},
			{
				"x": 1.371669014,
				"y": 1.8390295489,
				"z": 1.1373422125,
				"element": "N" 
			},
			{
				"x": 2.133221815,
				"y": 1.2499877744,
				"z": 0.1226235077,
				"element": "O" 
			},
			{
				"x": -0.9502909872,
				"y": 1.9365501126,
				"z": 1.8494268038,
				"element": "C" 
			},
			{
				"x": -1.7709522819,
				"y": 2.6633503064,
				"z": 1.3082409798,
				"element": "O" 
			},
			{
				"x": -0.9649274652,
				"y": 1.6426050075,
				"z": 3.2983244073,
				"element": "C" 
			},
			{
				"x": -1.9926228854,
				"y": 2.2021562245,
				"z": 4.0785624534,
				"element": "C" 
			},
			{
				"x": -2.0542336682,
				"y": 1.9499955545,
				"z": 5.4407423736,
				"element": "C" 
			},
			{
				"x": -1.0986329065,
				"y": 1.1314796072,
				"z": 6.0691524544,
				"element": "C" 
			},
			{
				"x": -1.1904371519,
				"y": 0.8433299738,
				"z": 7.5471984297,
				"element": "C" 
			},
			{
				"x": -0.0769703247,
				"y": 0.5795656832,
				"z": 5.2860331775,
				"element": "C" 
			},
			{
				"x": -0.0068121224,
				"y": 0.8265986294,
				"z": 3.916836222,
				"element": "C" 
			},
			{
				"x": -1.4037818292,
				"y": -0.4097721177,
				"z": -0.5857496072,
				"element": "S" 
			},
			{
				"x": -1.0585586221,
				"y": -1.7638813211,
				"z": -1.0512128296,
				"element": "O" 
			},
			{
				"x": -2.327238133,
				"y": -0.2349261144,
				"z": 0.5421659325,
				"element": "O" 
			},
			{
				"x": -2.0194346781,
				"y": 0.5102336042,
				"z": -2.0019739899,
				"element": "C" 
			},
			{
				"x": -2.0248608701,
				"y": -0.1075179561,
				"z": -3.2532976185,
				"element": "C" 
			},
			{
				"x": -2.5294554421,
				"y": 0.5964806847,
				"z": -4.3479267477,
				"element": "C" 
			},
			{
				"x": -3.0139823628,
				"y": 1.8951019088,
				"z": -4.1812313489,
				"element": "C" 
			},
			{
				"x": -3.0004720083,
				"y": 2.4982525873,
				"z": -2.919995833,
				"element": "C" 
			},
			{
				"x": -2.5051485615,
				"y": 1.808055998,
				"z": -1.8144391116,
				"element": "C" 
			},
			{
				"x": 5.0398474165,
				"y": -0.3342583886,
				"z": -5.9353587693,
				"element": "H" 
			},
			{
				"x": 5.6369668075,
				"y": -1.9772240242,
				"z": -6.2903205164,
				"element": "H" 
			},
			{
				"x": 6.1038512736,
				"y": -1.173546356,
				"z": -4.7676765594,
				"element": "H" 
			},
			{
				"x": 2.1601375058,
				"y": -2.9563868446,
				"z": -3.764094875,
				"element": "H" 
			},
			{
				"x": 0.872226329,
				"y": -1.9898050922,
				"z": -1.8762786953,
				"element": "H" 
			},
			{
				"x": 3.4917936725,
				"y": 1.4248072523,
				"z": -1.8821794482,
				"element": "H" 
			},
			{
				"x": 4.7614021405,
				"y": 0.4706223038,
				"z": -3.7471287148,
				"element": "H" 
			},
			{
				"x": -2.7292872461,
				"y": 2.8301383507,
				"z": 3.5890981108,
				"element": "H" 
			},
			{
				"x": -2.8525647933,
				"y": 2.3892734701,
				"z": 6.0336835145,
				"element": "H" 
			},
			{
				"x": -2.0002830676,
				"y": 0.1337734509,
				"z": 7.7572696611,
				"element": "H" 
			},
			{
				"x": -0.263173263,
				"y": 0.4097568653,
				"z": 7.9308920949,
				"element": "H" 
			},
			{
				"x": -1.4048178486,
				"y": 1.7528536298,
				"z": 8.1179248964,
				"element": "H" 
			},
			{
				"x": 0.6731034356,
				"y": -0.051678509,
				"z": 5.7547265384,
				"element": "H" 
			},
			{
				"x": 0.798098524,
				"y": 0.3942423369,
				"z": 3.3332937291,
				"element": "H" 
			},
			{
				"x": -1.6507999654,
				"y": -1.1198612245,
				"z": -3.3543165618,
				"element": "H" 
			},
			{
				"x": -2.5448015627,
				"y": 0.1287811012,
				"z": -5.3277325262,
				"element": "H" 
			},
			{
				"x": -3.40490101,
				"y": 2.4395485695,
				"z": -5.0360234184,
				"element": "H" 
			},
			{
				"x": -3.3798586914,
				"y": 3.5078568481,
				"z": -2.7947457996,
				"element": "H" 
			},
			{
				"x": -2.4837261006,
				"y": 2.2659784243,
				"z": -0.8298890148,
				"element": "H" 
			}
		],
		 "valence_orbital": [ 
			{
				"type": "occ",
				"energy": -0.26407,
				"method": "rhf"
			},
			{
				"type": "occ",
				"energy": -0.26205,
				"method": "rhf"
			},
			{
				"type": "occ",
				"energy": -0.25785,
				"method": "rhf"
			},
			{
				"type": "occ",
				"energy": -0.25026,
				"method": "rhf"
			},
			{
				"type": "occ",
				"energy": -0.22717,
				"method": "rhf"
			},
			{
				"type": "unocc",
				"energy": -0.06573,
				"method": "rhf"
			},
			{
				"type": "unocc",
				"energy": -0.05672,
				"method": "rhf"
			},
			{
				"type": "unocc",
				"energy": -0.03392,
				"method": "rhf"
			},
			{
				"type": "unocc",
				"energy": -0.01622,
				"method": "rhf"
			},
			{
				"type": "unocc",
				"energy": -0.01207,
				"method": "rhf"
			}
		],
		"cosmo_sigma_profile": { 
			"-0.025": 0.0,
			"-0.024": 0.0,
			"-0.023": 0.0,
			"-0.022": 0.0,
			"-0.021": 0.0,
			"-0.02": 0.0,
			"-0.019": 0.0,
			"-0.018": 0.0,
			"-0.017": 0.0,
			"-0.016": 0.0,
			"-0.015": 0.0,
			"-0.014": 0.0,
			"-0.013": 0.0,
			"-0.012": 0.0,
			"-0.011": 0.0,
			"-0.01": 0.0,
			"-0.009": 0.0,
			"-0.008": 0.231423949904,
			"-0.007": 12.0375098179,
			"-0.006": 29.7476308335,
			"-0.005": 38.1779361455,
			"-0.004": 37.3825907164,
			"-0.003": 35.0666971308,
			"-0.002": 32.5944729877,
			"-0.001": 35.3960846723,
			"0.0": 33.5937374437,
			"0.001": 33.566701198,
			"0.002": 39.1515653367,
			"0.003": 47.1565026111,
			"0.004": 15.0982395867,
			"0.005": 10.165849629,
			"0.006": 9.51278499266,
			"0.007": 7.30497044548,
			"0.008": 9.33247766122,
			"0.009": 8.895890643,
			"0.01": 8.37841909183,
			"0.011": 7.46534505422,
			"0.012": 1.54983006898,
			"0.013": 0.0610500984448,
			"0.014": 0.0,
			"0.015": 0.0,
			"0.016": 0.0,
			"0.017": 0.0,
			"0.018": 0.0,
			"0.019": 0.0,
			"0.02": 0.0,
			"0.021": 0.0,
			"0.022": 0.0,
			"0.023": 0.0,
			"0.024": 0.0,
			"0.025": 0.0
		}
	}
}
