{
	 "smiles": "NC1=CC(=C(O)C=C1)S(N)(=O)=O", 
	 "Tm": 443.15, 
	 "num_atms": 20, 
	 "gaussian": { 
		 "optdone": 1, 
		 "sigma_profile": "yes", 
		 "theory": "DFT", 
		 "functional": "B3LYP", 
		 "basiset": "6-31G**", 
		 "properties": { 
			 "R2extent": 2751.4108, 
			 "electric_dipole_moment_norm": 7.04654552032, 
			 "electric_quadrupole_moment_norm": 23.3932369594, 
			 "total_energy": -966.747212054, 
			 "HOMO_LUMO_gap": 0.17684, 
			 "cosmo_polarized_energy": -26.12, 
			 "cosmo_cavitation_energy": 25.33, 
			 "cosmo_dispersion_energy": -19.54, 
			 "cosmo_repulsion_energy": 1.52, 
			 "cosmo_total_nonelectrostatic_energy": 7.3, 
			 "SMD_solvation_energy": 4.15 
		},
		"coords": [
			{
				"x": -0.918737931,
				"y": 0.039695865,
				"z": -2.8212325932,
				"element": "N" 
			},
			{
				"x": -0.5683643781,
				"y": -0.0913417437,
				"z": -1.4744965095,
				"element": "C" 
			},
			{
				"x": -0.3409029013,
				"y": 1.0415242854,
				"z": -0.6780001524,
				"element": "C" 
			},
			{
				"x": 0.0634641916,
				"y": 0.9112060478,
				"z": 0.6485516038,
				"element": "C" 
			},
			{
				"x": 0.2636463309,
				"y": -0.3540141329,
				"z": 1.2187383087,
				"element": "C" 
			},
			{
				"x": 0.7027250761,
				"y": -0.425819776,
				"z": 2.5181454608,
				"element": "O" 
			},
			{
				"x": 0.0440698099,
				"y": -1.4823614758,
				"z": 0.4284065746,
				"element": "C" 
			},
			{
				"x": -0.3729325543,
				"y": -1.3554631689,
				"z": -0.8950030786,
				"element": "C" 
			},
			{
				"x": 0.2287416586,
				"y": 2.4128758592,
				"z": 1.6313453097,
				"element": "S" 
			},
			{
				"x": 1.7420072088,
				"y": 2.3353214498,
				"z": 2.3517645827,
				"element": "N" 
			},
			{
				"x": 0.2818095429,
				"y": 3.5327035791,
				"z": 0.6895780244,
				"element": "O" 
			},
			{
				"x": -0.7544761301,
				"y": 2.3599620954,
				"z": 2.7093439285,
				"element": "O" 
			},
			{
				"x": -1.3577868942,
				"y": 0.9181034136,
				"z": -3.061608712,
				"element": "H" 
			},
			{
				"x": -1.4241274898,
				"y": -0.7452179608,
				"z": -3.2090909777,
				"element": "H" 
			},
			{
				"x": -0.4738663609,
				"y": 2.0411488702,
				"z": -1.0793877015,
				"element": "H" 
			},
			{
				"x": 0.6585696941,
				"y": -1.3402807024,
				"z": 2.8241003495,
				"element": "H" 
			},
			{
				"x": 0.2006977078,
				"y": -2.4729612137,
				"z": 0.850075452,
				"element": "H" 
			},
			{
				"x": -0.5363853616,
				"y": -2.2506150394,
				"z": -1.4890984531,
				"element": "H" 
			},
			{
				"x": 1.8319895521,
				"y": 1.4879370632,
				"z": 2.9077399008,
				"element": "H" 
			},
			{
				"x": 2.4830592285,
				"y": 2.432196685,
				"z": 1.6636286825,
				"element": "H" 
			}
		],
		 "valence_orbital": [ 
			{
				"type": "occ",
				"energy": -0.29855,
				"method": "rhf"
			},
			{
				"type": "occ",
				"energy": -0.29379,
				"method": "rhf"
			},
			{
				"type": "occ",
				"energy": -0.28869,
				"method": "rhf"
			},
			{
				"type": "occ",
				"energy": -0.26546,
				"method": "rhf"
			},
			{
				"type": "occ",
				"energy": -0.20853,
				"method": "rhf"
			},
			{
				"type": "unocc",
				"energy": -0.03169,
				"method": "rhf"
			},
			{
				"type": "unocc",
				"energy": 0.00303,
				"method": "rhf"
			},
			{
				"type": "unocc",
				"energy": 0.047,
				"method": "rhf"
			},
			{
				"type": "unocc",
				"energy": 0.06586,
				"method": "rhf"
			},
			{
				"type": "unocc",
				"energy": 0.07469,
				"method": "rhf"
			}
		],
		"cosmo_sigma_profile": { 
			"-0.025": 0.0,
			"-0.024": 0.0,
			"-0.023": 0.0,
			"-0.022": 0.0,
			"-0.021": 0.0,
			"-0.02": 0.0,
			"-0.019": 0.461644705182,
			"-0.018": 1.13165935383,
			"-0.017": 1.3146863121,
			"-0.016": 1.18864017296,
			"-0.015": 1.69063561048,
			"-0.014": 2.25799771688,
			"-0.013": 3.04102198207,
			"-0.012": 5.51414286478,
			"-0.011": 6.40241642662,
			"-0.01": 6.30078291454,
			"-0.009": 6.23954377745,
			"-0.008": 6.15619853821,
			"-0.007": 7.18105636637,
			"-0.006": 7.65006308141,
			"-0.005": 7.24801115204,
			"-0.004": 5.64579363276,
			"-0.003": 6.56950671569,
			"-0.002": 7.73979390745,
			"-0.001": 6.29390068606,
			"0.0": 7.48680017079,
			"0.001": 7.48751836943,
			"0.002": 9.92505595564,
			"0.003": 13.6530075545,
			"0.004": 13.712156707,
			"0.005": 6.34282853196,
			"0.006": 3.94370418297,
			"0.007": 5.24338390174,
			"0.008": 5.18763832117,
			"0.009": 5.91697668915,
			"0.01": 8.77270663544,
			"0.011": 14.188510381,
			"0.012": 7.19445730369,
			"0.013": 0.672831216816,
			"0.014": 1.03122626592,
			"0.015": 0.0729431989962,
			"0.016": 0.0,
			"0.017": 0.0,
			"0.018": 0.0,
			"0.019": 0.0,
			"0.02": 0.0,
			"0.021": 0.0,
			"0.022": 0.0,
			"0.023": 0.0,
			"0.024": 0.0,
			"0.025": 0.0
		}
	}
}
