{
	 "smiles": "CCOC(=O)C1=C(C)N(C2CCCCC2)C2=C1C=C(O)C=C2", 
	 "Tm": 521.15, 
	 "num_atms": 45, 
	 "gaussian": { 
		 "optdone": 1, 
		 "sigma_profile": "yes", 
		 "theory": "DFT", 
		 "functional": "B3LYP", 
		 "basiset": "6-31G**", 
		 "properties": { 
			 "R2extent": 8678.7704, 
			 "electric_dipole_moment_norm": 2.25136186785, 
			 "electric_quadrupole_moment_norm": 19.0652506899, 
			 "total_energy": -980.23996017, 
			 "HOMO_LUMO_gap": 0.17746, 
			 "cosmo_polarized_energy": -14.42, 
			 "cosmo_cavitation_energy": 44.6, 
			 "cosmo_dispersion_energy": -31.5, 
			 "cosmo_repulsion_energy": 2.41, 
			 "cosmo_total_nonelectrostatic_energy": 15.5, 
			 "SMD_solvation_energy": 7.67 
		},
		"coords": [
			{
				"x": -4.70999,
				"y": 0.0323440935,
				"z": -2.8936582297,
				"element": "C" 
			},
			{
				"x": -3.9967817618,
				"y": 1.3603838907,
				"z": -2.6815965137,
				"element": "C" 
			},
			{
				"x": -2.6024815222,
				"y": 1.1680339662,
				"z": -2.3615923684,
				"element": "O" 
			},
			{
				"x": -2.3089522613,
				"y": 0.9390360342,
				"z": -1.0487653232,
				"element": "C" 
			},
			{
				"x": -3.1808698256,
				"y": 0.9062732608,
				"z": -0.1906126433,
				"element": "O" 
			},
			{
				"x": -0.8744370183,
				"y": 0.7564330824,
				"z": -0.8380020985,
				"element": "C" 
			},
			{
				"x": -0.2800698909,
				"y": 0.5253498882,
				"z": 0.4060182192,
				"element": "C" 
			},
			{
				"x": -0.9625339173,
				"y": 0.406383357,
				"z": 1.7336722284,
				"element": "C" 
			},
			{
				"x": 1.0812155937,
				"y": 0.3959412822,
				"z": 0.2394375505,
				"element": "N" 
			},
			{
				"x": 2.1163372559,
				"y": 0.2034845661,
				"z": 1.2665680186,
				"element": "C" 
			},
			{
				"x": 1.902203837,
				"y": -1.0101422769,
				"z": 2.1873507353,
				"element": "C" 
			},
			{
				"x": 3.2123931171,
				"y": -1.3171961716,
				"z": 2.952512772,
				"element": "C" 
			},
			{
				"x": 4.0047663279,
				"y": -0.0345605732,
				"z": 3.3176981023,
				"element": "C" 
			},
			{
				"x": 3.0765968166,
				"y": 1.1826532082,
				"z": 3.4344390162,
				"element": "C" 
			},
			{
				"x": 2.390523549,
				"y": 1.4941995487,
				"z": 2.0849111462,
				"element": "C" 
			},
			{
				"x": 1.3880883035,
				"y": 0.5579465849,
				"z": -1.118273325,
				"element": "C" 
			},
			{
				"x": 0.1814384811,
				"y": 0.7804184857,
				"z": -1.823410401,
				"element": "C" 
			},
			{
				"x": 0.2219905726,
				"y": 0.9664163772,
				"z": -3.2158515342,
				"element": "C" 
			},
			{
				"x": 1.452477239,
				"y": 0.9321206725,
				"z": -3.8626174402,
				"element": "C" 
			},
			{
				"x": 1.5749598086,
				"y": 1.1058296936,
				"z": -5.2181989341,
				"element": "O" 
			},
			{
				"x": 2.6479260108,
				"y": 0.7165682516,
				"z": -3.1485964859,
				"element": "C" 
			},
			{
				"x": 2.6244355211,
				"y": 0.5293430885,
				"z": -1.7732870928,
				"element": "C" 
			},
			{
				"x": -5.7431954404,
				"y": 0.2092731198,
				"z": -3.2117047051,
				"element": "H" 
			},
			{
				"x": -4.209529819,
				"y": -0.5605008099,
				"z": -3.6653190457,
				"element": "H" 
			},
			{
				"x": -4.7296347798,
				"y": -0.5414268376,
				"z": -1.9642116149,
				"element": "H" 
			},
			{
				"x": -4.4695632814,
				"y": 1.9339978903,
				"z": -1.8811055666,
				"element": "H" 
			},
			{
				"x": -3.9868394399,
				"y": 1.9575648089,
				"z": -3.5974334517,
				"element": "H" 
			},
			{
				"x": -1.0273257115,
				"y": -0.640240245,
				"z": 2.0537990025,
				"element": "H" 
			},
			{
				"x": -1.9789977916,
				"y": 0.7840950048,
				"z": 1.6387977575,
				"element": "H" 
			},
			{
				"x": -0.4392603801,
				"y": 0.9591183237,
				"z": 2.5186736576,
				"element": "H" 
			},
			{
				"x": 3.0190442878,
				"y": -0.0225334251,
				"z": 0.6940453896,
				"element": "H" 
			},
			{
				"x": 1.1000483928,
				"y": -0.8076046268,
				"z": 2.9015036388,
				"element": "H" 
			},
			{
				"x": 1.5900008137,
				"y": -1.8775350015,
				"z": 1.5968001171,
				"element": "H" 
			},
			{
				"x": 2.9639234187,
				"y": -1.875570574,
				"z": 3.8617856291,
				"element": "H" 
			},
			{
				"x": 3.8461673401,
				"y": -1.9785395839,
				"z": 2.3502543544,
				"element": "H" 
			},
			{
				"x": 4.7610155035,
				"y": 0.1705956795,
				"z": 2.548574727,
				"element": "H" 
			},
			{
				"x": 4.557905699,
				"y": -0.1873412186,
				"z": 4.2504626715,
				"element": "H" 
			},
			{
				"x": 2.3167805585,
				"y": 0.9806733869,
				"z": 4.2003362553,
				"element": "H" 
			},
			{
				"x": 3.631131987,
				"y": 2.0615510456,
				"z": 3.7803980559,
				"element": "H" 
			},
			{
				"x": 1.4535539621,
				"y": 2.0325150526,
				"z": 2.2559939512,
				"element": "H" 
			},
			{
				"x": 3.0182377254,
				"y": 2.1596053596,
				"z": 1.4812160718,
				"element": "H" 
			},
			{
				"x": -0.6961582493,
				"y": 1.134775051,
				"z": -3.7678174112,
				"element": "H" 
			},
			{
				"x": 0.6949649108,
				"y": 1.2463916935,
				"z": -5.5904128905,
				"element": "H" 
			},
			{
				"x": 3.5833371479,
				"y": 0.7020106233,
				"z": -3.6973502219,
				"element": "H" 
			},
			{
				"x": 3.5561569095,
				"y": 0.3705649726,
				"z": -1.2402317703,
				"element": "H" 
			}
		],
		 "valence_orbital": [ 
			{
				"type": "occ",
				"energy": -0.28297,
				"method": "rhf"
			},
			{
				"type": "occ",
				"energy": -0.26701,
				"method": "rhf"
			},
			{
				"type": "occ",
				"energy": -0.25588,
				"method": "rhf"
			},
			{
				"type": "occ",
				"energy": -0.20278,
				"method": "rhf"
			},
			{
				"type": "occ",
				"energy": -0.19561,
				"method": "rhf"
			},
			{
				"type": "unocc",
				"energy": -0.01815,
				"method": "rhf"
			},
			{
				"type": "unocc",
				"energy": 0.00892,
				"method": "rhf"
			},
			{
				"type": "unocc",
				"energy": 0.04135,
				"method": "rhf"
			},
			{
				"type": "unocc",
				"energy": 0.06043,
				"method": "rhf"
			},
			{
				"type": "unocc",
				"energy": 0.07693,
				"method": "rhf"
			}
		],
		"cosmo_sigma_profile": { 
			"-0.025": 0.0,
			"-0.024": 0.0,
			"-0.023": 0.0,
			"-0.022": 0.0,
			"-0.021": 0.0,
			"-0.02": 0.0,
			"-0.019": 0.0,
			"-0.018": 0.0445912026968,
			"-0.017": 0.62379182732,
			"-0.016": 1.34686335476,
			"-0.015": 0.713409017877,
			"-0.014": 0.877903438753,
			"-0.013": 1.33270192489,
			"-0.012": 0.691671712648,
			"-0.011": 0.843771849203,
			"-0.01": 0.660995150496,
			"-0.009": 1.0022022133,
			"-0.008": 2.02498951099,
			"-0.007": 2.75361479801,
			"-0.006": 4.29587405076,
			"-0.005": 13.8663339674,
			"-0.004": 23.9502000135,
			"-0.003": 37.9413953835,
			"-0.002": 43.4616682468,
			"-0.001": 41.762522195,
			"0.0": 42.0613336559,
			"0.001": 28.8347513841,
			"0.002": 14.9124418748,
			"0.003": 13.0731671041,
			"0.004": 14.7672578596,
			"0.005": 19.9175538093,
			"0.006": 15.1008846144,
			"0.007": 3.92800217844,
			"0.008": 2.91610138834,
			"0.009": 2.62464559879,
			"0.01": 3.38010698653,
			"0.011": 3.82736387865,
			"0.012": 4.09283807743,
			"0.013": 2.13335559689,
			"0.014": 0.0439798126803,
			"0.015": 0.0,
			"0.016": 0.0,
			"0.017": 0.0,
			"0.018": 0.0,
			"0.019": 0.0,
			"0.02": 0.0,
			"0.021": 0.0,
			"0.022": 0.0,
			"0.023": 0.0,
			"0.024": 0.0,
			"0.025": 0.0
		}
	}
}
