{
	 "smiles": "CC1=CC=C(C=C1)S(=O)(=O)N1CC(=C/C2=CC=CC(Cl)=C2)N(C2=C1C=CC=C2)S(=O)(=O)C1=CC=C(C)C=C1", 
	 "Tm": 418.0, 
	 "num_atms": 63, 
	 "gaussian": { 
		 "optdone": 1, 
		 "sigma_profile": "yes", 
		 "theory": "DFT", 
		 "functional": "B3LYP", 
		 "basiset": "6-31G**", 
		 "properties": { 
			 "R2extent": 19495.4098, 
			 "electric_dipole_moment_norm": 5.36636282318, 
			 "electric_quadrupole_moment_norm": 40.5926166163, 
			 "total_energy": -2786.96594205, 
			 "HOMO_LUMO_gap": 0.15889, 
			 "cosmo_polarized_energy": -23.77, 
			 "cosmo_cavitation_energy": 69.44, 
			 "cosmo_dispersion_energy": -42.86, 
			 "cosmo_repulsion_energy": 3.1, 
			 "cosmo_total_nonelectrostatic_energy": 29.69, 
			 "SMD_solvation_energy": 8.59 
		},
		"coords": [
			{
				"x": 0.2033381745,
				"y": 4.1335631556,
				"z": -3.9798846358,
				"element": "C" 
			},
			{
				"x": -0.3596487845,
				"y": 2.9437201682,
				"z": -3.2403844885,
				"element": "C" 
			},
			{
				"x": -1.5417784029,
				"y": 3.0642942813,
				"z": -2.4924605733,
				"element": "C" 
			},
			{
				"x": -2.0998150411,
				"y": 1.9683957332,
				"z": -1.8411575312,
				"element": "C" 
			},
			{
				"x": -1.4565142367,
				"y": 0.7285736685,
				"z": -1.9224928584,
				"element": "C" 
			},
			{
				"x": -0.2768752397,
				"y": 0.5804849408,
				"z": -2.6541208811,
				"element": "C" 
			},
			{
				"x": 0.2597084293,
				"y": 1.6889854585,
				"z": -3.3091208016,
				"element": "C" 
			},
			{
				"x": -2.1630491339,
				"y": -0.7120118538,
				"z": -1.1189156873,
				"element": "S" 
			},
			{
				"x": -1.4823606132,
				"y": -1.8909777015,
				"z": -1.6554168548,
				"element": "O" 
			},
			{
				"x": -3.6186754115,
				"y": -0.5942212161,
				"z": -1.1798693112,
				"element": "O" 
			},
			{
				"x": -1.6780476221,
				"y": -0.6430603873,
				"z": 0.5281005527,
				"element": "N" 
			},
			{
				"x": -0.3454931537,
				"y": -1.2557248042,
				"z": 0.7560624417,
				"element": "C" 
			},
			{
				"x": -0.0207351823,
				"y": -1.2875170504,
				"z": 2.2226682738,
				"element": "C" 
			},
			{
				"x": 0.4111828421,
				"y": -2.348629083,
				"z": 2.9295725714,
				"element": "C" 
			},
			{
				"x": 0.7438819963,
				"y": -3.696761732,
				"z": 2.4410762401,
				"element": "C" 
			},
			{
				"x": 0.4214899681,
				"y": -4.8048413858,
				"z": 3.245840995,
				"element": "C" 
			},
			{
				"x": 0.7208418215,
				"y": -6.0987157792,
				"z": 2.8292615059,
				"element": "C" 
			},
			{
				"x": 1.3693112789,
				"y": -6.3229724213,
				"z": 1.6128819028,
				"element": "C" 
			},
			{
				"x": 1.7152528775,
				"y": -5.2228551836,
				"z": 0.8305964516,
				"element": "C" 
			},
			{
				"x": 2.5703094046,
				"y": -5.4777211482,
				"z": -0.6853117093,
				"element": "Cl" 
			},
			{
				"x": 1.4165528783,
				"y": -3.9212991831,
				"z": 1.2271280682,
				"element": "C" 
			},
			{
				"x": -0.1903938305,
				"y": -0.0293152913,
				"z": 2.8821382342,
				"element": "N" 
			},
			{
				"x": -1.4082782857,
				"y": 0.6651149581,
				"z": 2.5958711222,
				"element": "C" 
			},
			{
				"x": -2.1677634149,
				"y": 0.3344422543,
				"z": 1.4453730074,
				"element": "C" 
			},
			{
				"x": -3.4381902053,
				"y": 0.9238976572,
				"z": 1.3020304186,
				"element": "C" 
			},
			{
				"x": -3.9066472971,
				"y": 1.8565780233,
				"z": 2.221344587,
				"element": "C" 
			},
			{
				"x": -3.1480313374,
				"y": 2.1892800094,
				"z": 3.3423762798,
				"element": "C" 
			},
			{
				"x": -1.92359888,
				"y": 1.5645605454,
				"z": 3.5404135337,
				"element": "C" 
			},
			{
				"x": 1.2736564883,
				"y": 0.8261015795,
				"z": 3.2849447935,
				"element": "S" 
			},
			{
				"x": 2.0554547402,
				"y": -0.0957602813,
				"z": 4.1076481536,
				"element": "O" 
			},
			{
				"x": 0.8682304938,
				"y": 2.1413882498,
				"z": 3.7793392528,
				"element": "O" 
			},
			{
				"x": 2.1592897219,
				"y": 1.0595130359,
				"z": 1.7470856479,
				"element": "C" 
			},
			{
				"x": 3.1514295348,
				"y": 0.1471142698,
				"z": 1.3807509217,
				"element": "C" 
			},
			{
				"x": 3.8277589413,
				"y": 0.3318576327,
				"z": 0.1755722485,
				"element": "C" 
			},
			{
				"x": 3.5318133014,
				"y": 1.4151079554,
				"z": -0.6637919986,
				"element": "C" 
			},
			{
				"x": 4.2958171337,
				"y": 1.6297009551,
				"z": -1.9476879375,
				"element": "C" 
			},
			{
				"x": 2.5301491762,
				"y": 2.315322772,
				"z": -0.2680312438,
				"element": "C" 
			},
			{
				"x": 1.8412653791,
				"y": 2.1481970105,
				"z": 0.930306638,
				"element": "C" 
			},
			{
				"x": 0.1815375859,
				"y": 5.0363299285,
				"z": -3.3610186009,
				"element": "H" 
			},
			{
				"x": -0.3841902873,
				"y": 4.3471996062,
				"z": -4.8809198286,
				"element": "H" 
			},
			{
				"x": 1.2358374931,
				"y": 3.9602071715,
				"z": -4.2950840017,
				"element": "H" 
			},
			{
				"x": -2.0406580847,
				"y": 4.0279705458,
				"z": -2.4319094991,
				"element": "H" 
			},
			{
				"x": -3.0272401474,
				"y": 2.0697181758,
				"z": -1.2906825489,
				"element": "H" 
			},
			{
				"x": 0.190807057,
				"y": -0.3947024538,
				"z": -2.7289421379,
				"element": "H" 
			},
			{
				"x": 1.1670366026,
				"y": 1.5710650083,
				"z": -3.8956313332,
				"element": "H" 
			},
			{
				"x": -0.3707796887,
				"y": -2.2581930379,
				"z": 0.3382238439,
				"element": "H" 
			},
			{
				"x": 0.4309326619,
				"y": -0.6806578367,
				"z": 0.2287419339,
				"element": "H" 
			},
			{
				"x": 0.5379618081,
				"y": -2.1877053012,
				"z": 3.996284699,
				"element": "H" 
			},
			{
				"x": -0.0781173506,
				"y": -4.6425220128,
				"z": 4.1962569654,
				"element": "H" 
			},
			{
				"x": 0.4535985561,
				"y": -6.9446122581,
				"z": 3.4553822878,
				"element": "H" 
			},
			{
				"x": 1.6131535615,
				"y": -7.3263751359,
				"z": 1.2828478332,
				"element": "H" 
			},
			{
				"x": 1.7418505571,
				"y": -3.090417771,
				"z": 0.6126598539,
				"element": "H" 
			},
			{
				"x": -4.0682437654,
				"y": 0.6273248577,
				"z": 0.4767840743,
				"element": "H" 
			},
			{
				"x": -4.8875162932,
				"y": 2.2971956211,
				"z": 2.069203949,
				"element": "H" 
			},
			{
				"x": -3.5195671079,
				"y": 2.8954797316,
				"z": 4.0779401941,
				"element": "H" 
			},
			{
				"x": -1.3410829046,
				"y": 1.7647069715,
				"z": 4.4289223291,
				"element": "H" 
			},
			{
				"x": 3.3962011849,
				"y": -0.6766547367,
				"z": 2.04168334,
				"element": "H" 
			},
			{
				"x": 4.6040264023,
				"y": -0.3721116636,
				"z": -0.1121323578,
				"element": "H" 
			},
			{
				"x": 3.6588271833,
				"y": 2.0664810913,
				"z": -2.7226928456,
				"element": "H" 
			},
			{
				"x": 5.1356835567,
				"y": 2.3180466781,
				"z": -1.792161727,
				"element": "H" 
			},
			{
				"x": 4.7084654816,
				"y": 0.6924025935,
				"z": -2.3310079202,
				"element": "H" 
			},
			{
				"x": 2.287566157,
				"y": 3.1601039096,
				"z": -0.9063718653,
				"element": "H" 
			},
			{
				"x": 1.0806712716,
				"y": 2.856310505,
				"z": 1.2405860328,
				"element": "H" 
			}
		],
		 "valence_orbital": [ 
			{
				"type": "occ",
				"energy": -0.26872,
				"method": "rhf"
			},
			{
				"type": "occ",
				"energy": -0.25702,
				"method": "rhf"
			},
			{
				"type": "occ",
				"energy": -0.24479,
				"method": "rhf"
			},
			{
				"type": "occ",
				"energy": -0.22994,
				"method": "rhf"
			},
			{
				"type": "occ",
				"energy": -0.21351,
				"method": "rhf"
			},
			{
				"type": "unocc",
				"energy": -0.05462,
				"method": "rhf"
			},
			{
				"type": "unocc",
				"energy": -0.04907,
				"method": "rhf"
			},
			{
				"type": "unocc",
				"energy": -0.04207,
				"method": "rhf"
			},
			{
				"type": "unocc",
				"energy": -0.03092,
				"method": "rhf"
			},
			{
				"type": "unocc",
				"energy": -0.0259,
				"method": "rhf"
			}
		],
		"cosmo_sigma_profile": { 
			"-0.025": 0.0,
			"-0.024": 0.0,
			"-0.023": 0.0,
			"-0.022": 0.0,
			"-0.021": 0.0,
			"-0.02": 0.0,
			"-0.019": 0.0,
			"-0.018": 0.0,
			"-0.017": 0.0,
			"-0.016": 0.0,
			"-0.015": 0.0,
			"-0.014": 0.0,
			"-0.013": 0.0,
			"-0.012": 0.0,
			"-0.011": 0.0,
			"-0.01": 0.0,
			"-0.009": 0.0,
			"-0.008": 0.748441130761,
			"-0.007": 12.6421765938,
			"-0.006": 30.1657747231,
			"-0.005": 43.6500256167,
			"-0.004": 48.0822933849,
			"-0.003": 44.3858114661,
			"-0.002": 44.9294287127,
			"-0.001": 47.4324547683,
			"0.0": 40.6053594883,
			"0.001": 46.098254117,
			"0.002": 52.2028365797,
			"0.003": 48.3080640853,
			"0.004": 28.4892403045,
			"0.005": 18.6843845863,
			"0.006": 6.52871940247,
			"0.007": 7.31270292951,
			"0.008": 6.87873879013,
			"0.009": 9.94273040527,
			"0.01": 13.4899955434,
			"0.011": 7.90200696802,
			"0.012": 0.0981957746608,
			"0.013": 0.0,
			"0.014": 0.0,
			"0.015": 0.0,
			"0.016": 0.0,
			"0.017": 0.0,
			"0.018": 0.0,
			"0.019": 0.0,
			"0.02": 0.0,
			"0.021": 0.0,
			"0.022": 0.0,
			"0.023": 0.0,
			"0.024": 0.0,
			"0.025": 0.0
		}
	}
}
