{
	 "smiles": "OC(=O)CCC(=O)C1=CC2=C(CCCC2)C=C1", 
	 "Tm": 396.15, 
	 "num_atms": 33, 
	 "gaussian": { 
		 "optdone": 1, 
		 "sigma_profile": "yes", 
		 "theory": "DFT", 
		 "functional": "B3LYP", 
		 "basiset": "6-31G**", 
		 "properties": { 
			 "R2extent": 7434.8377, 
			 "electric_dipole_moment_norm": 3.36495035476, 
			 "electric_quadrupole_moment_norm": 11.7937755057, 
			 "total_energy": -768.844547543, 
			 "HOMO_LUMO_gap": 0.19121, 
			 "cosmo_polarized_energy": -14.62, 
			 "cosmo_cavitation_energy": 35.63, 
			 "cosmo_dispersion_energy": -25.72, 
			 "cosmo_repulsion_energy": 2.02, 
			 "cosmo_total_nonelectrostatic_energy": 11.93, 
			 "SMD_solvation_energy": 6.53 
		},
		"coords": [
			{
				"x": -2.7615915749,
				"y": 6.3002960505,
				"z": 1.475504372,
				"element": "O" 
			},
			{
				"x": -2.8583204684,
				"y": 5.1792217518,
				"z": 0.7247051042,
				"element": "C" 
			},
			{
				"x": -3.8021521267,
				"y": 4.4224051636,
				"z": 0.7987412849,
				"element": "O" 
			},
			{
				"x": -1.6888726205,
				"y": 5.0383099397,
				"z": -0.2271363263,
				"element": "C" 
			},
			{
				"x": -1.5476312911,
				"y": 3.6104924343,
				"z": -0.7446799229,
				"element": "C" 
			},
			{
				"x": -1.0487684887,
				"y": 2.65680519,
				"z": 0.3404962138,
				"element": "C" 
			},
			{
				"x": -0.7776716642,
				"y": 3.0838884907,
				"z": 1.4547289155,
				"element": "O" 
			},
			{
				"x": -0.8885538316,
				"y": 1.2076354921,
				"z": 0.0119120252,
				"element": "C" 
			},
			{
				"x": -1.1848341653,
				"y": 0.6757842645,
				"z": -1.2536851415,
				"element": "C" 
			},
			{
				"x": -1.0224295671,
				"y": -0.6841150136,
				"z": -1.5153918688,
				"element": "C" 
			},
			{
				"x": -0.5458424971,
				"y": -1.5357791566,
				"z": -0.500036017,
				"element": "C" 
			},
			{
				"x": -0.3847567929,
				"y": -2.9927990519,
				"z": -0.8525754266,
				"element": "C" 
			},
			{
				"x": 0.3668926143,
				"y": -3.1660772295,
				"z": -2.194034752,
				"element": "C" 
			},
			{
				"x": -0.1553612901,
				"y": -2.2209189628,
				"z": -3.3154442051,
				"element": "C" 
			},
			{
				"x": -1.3218978053,
				"y": -1.3168769623,
				"z": -2.8526086682,
				"element": "C" 
			},
			{
				"x": -0.2420703525,
				"y": -1.0063674403,
				"z": 0.7588915859,
				"element": "C" 
			},
			{
				"x": -0.4149251705,
				"y": 0.3494915679,
				"z": 1.0163002589,
				"element": "C" 
			},
			{
				"x": -3.5558042878,
				"y": 6.3172972272,
				"z": 2.0355770615,
				"element": "H" 
			},
			{
				"x": -0.7822731862,
				"y": 5.3697283111,
				"z": 0.2836002221,
				"element": "H" 
			},
			{
				"x": -1.8645596942,
				"y": 5.7299225092,
				"z": -1.0606443052,
				"element": "H" 
			},
			{
				"x": -0.8511105647,
				"y": 3.5783536778,
				"z": -1.591630632,
				"element": "H" 
			},
			{
				"x": -2.5143428454,
				"y": 3.2515156667,
				"z": -1.1143195659,
				"element": "H" 
			},
			{
				"x": -1.5500992261,
				"y": 1.3204170767,
				"z": -2.0479772732,
				"element": "H" 
			},
			{
				"x": 0.1317632045,
				"y": -3.533903222,
				"z": -0.0531208278,
				"element": "H" 
			},
			{
				"x": -1.3812495574,
				"y": -3.4500903794,
				"z": -0.9419929948,
				"element": "H" 
			},
			{
				"x": 1.4299857813,
				"y": -2.9700038746,
				"z": -2.0195078968,
				"element": "H" 
			},
			{
				"x": 0.2940497926,
				"y": -4.2123982589,
				"z": -2.5088363189,
				"element": "H" 
			},
			{
				"x": -0.4771617605,
				"y": -2.8009048993,
				"z": -4.186874339,
				"element": "H" 
			},
			{
				"x": 0.6622682607,
				"y": -1.5777419665,
				"z": -3.657663062,
				"element": "H" 
			},
			{
				"x": -2.2330711493,
				"y": -1.9270039472,
				"z": -2.7671493559,
				"element": "H" 
			},
			{
				"x": -1.5337966003,
				"y": -0.552816261,
				"z": -3.607961717,
				"element": "H" 
			},
			{
				"x": 0.1308876288,
				"y": -1.6637955462,
				"z": 1.5405693088,
				"element": "H" 
			},
			{
				"x": -0.1869987034,
				"y": 0.7735273581,
				"z": 1.988344264,
				"element": "H" 
			}
		],
		 "valence_orbital": [ 
			{
				"type": "occ",
				"energy": -0.31044,
				"method": "rhf"
			},
			{
				"type": "occ",
				"energy": -0.26943,
				"method": "rhf"
			},
			{
				"type": "occ",
				"energy": -0.25157,
				"method": "rhf"
			},
			{
				"type": "occ",
				"energy": -0.24667,
				"method": "rhf"
			},
			{
				"type": "occ",
				"energy": -0.24104,
				"method": "rhf"
			},
			{
				"type": "unocc",
				"energy": -0.04983,
				"method": "rhf"
			},
			{
				"type": "unocc",
				"energy": -0.00328,
				"method": "rhf"
			},
			{
				"type": "unocc",
				"energy": 0.01929,
				"method": "rhf"
			},
			{
				"type": "unocc",
				"energy": 0.04389,
				"method": "rhf"
			},
			{
				"type": "unocc",
				"energy": 0.08006,
				"method": "rhf"
			}
		],
		"cosmo_sigma_profile": { 
			"-0.025": 0.0,
			"-0.024": 0.0,
			"-0.023": 0.0,
			"-0.022": 0.0,
			"-0.021": 0.0,
			"-0.02": 0.0,
			"-0.019": 0.0,
			"-0.018": 0.59651556674,
			"-0.017": 1.12837979507,
			"-0.016": 0.927051635308,
			"-0.015": 0.354525306643,
			"-0.014": 0.858913203306,
			"-0.013": 0.639888361729,
			"-0.012": 0.651173843071,
			"-0.011": 0.542736732806,
			"-0.01": 0.945793136311,
			"-0.009": 0.446742073025,
			"-0.008": 0.596397788188,
			"-0.007": 3.27846857842,
			"-0.006": 10.9420743951,
			"-0.005": 15.6743431878,
			"-0.004": 23.2492170835,
			"-0.003": 27.8879969295,
			"-0.002": 31.6425186584,
			"-0.001": 30.3918124369,
			"0.0": 24.4761472388,
			"0.001": 17.9859963696,
			"0.002": 11.9174992078,
			"0.003": 11.9697278038,
			"0.004": 13.0701907947,
			"0.005": 11.1457209018,
			"0.006": 5.92706528972,
			"0.007": 5.04847948376,
			"0.008": 4.23031496042,
			"0.009": 5.22492296547,
			"0.01": 4.69982934585,
			"0.011": 5.62120205545,
			"0.012": 7.22468020449,
			"0.013": 0.398059812483,
			"0.014": 0.0,
			"0.015": 0.0,
			"0.016": 0.0,
			"0.017": 0.0,
			"0.018": 0.0,
			"0.019": 0.0,
			"0.02": 0.0,
			"0.021": 0.0,
			"0.022": 0.0,
			"0.023": 0.0,
			"0.024": 0.0,
			"0.025": 0.0
		}
	}
}
