{
	 "smiles": "NC1CCCN(C1=O)C1=CC=C(C=C1)C#N", 
	 "Tm": 375.15, 
	 "num_atms": 29, 
	 "gaussian": { 
		 "optdone": 1, 
		 "sigma_profile": "yes", 
		 "theory": "DFT", 
		 "functional": "B3LYP", 
		 "basiset": "6-31G**", 
		 "properties": { 
			 "R2extent": 4816.6273, 
			 "electric_dipole_moment_norm": 6.28440827525, 
			 "electric_quadrupole_moment_norm": 34.6750385273, 
			 "total_energy": -704.588114103, 
			 "HOMO_LUMO_gap": 0.18525, 
			 "cosmo_polarized_energy": -17.83, 
			 "cosmo_cavitation_energy": 32.46, 
			 "cosmo_dispersion_energy": -23.29, 
			 "cosmo_repulsion_energy": 1.81, 
			 "cosmo_total_nonelectrostatic_energy": 10.98, 
			 "SMD_solvation_energy": 5.26 
		},
		"coords": [
			{
				"x": 2.8660594527,
				"y": 1.6087653666,
				"z": 1.6974237155,
				"element": "N" 
			},
			{
				"x": 2.0332009097,
				"y": 0.4198477551,
				"z": 1.5811071103,
				"element": "C" 
			},
			{
				"x": 2.8301251658,
				"y": -0.7760273485,
				"z": 1.0652363805,
				"element": "C" 
			},
			{
				"x": 1.8880718551,
				"y": -1.9605849478,
				"z": 0.8719848977,
				"element": "C" 
			},
			{
				"x": 0.8186979481,
				"y": -1.6240847348,
				"z": -0.1617122056,
				"element": "C" 
			},
			{
				"x": 0.0991602868,
				"y": -0.3673124295,
				"z": 0.1404351873,
				"element": "N" 
			},
			{
				"x": 0.7206195587,
				"y": 0.6920963243,
				"z": 0.8012652681,
				"element": "C" 
			},
			{
				"x": 0.2308447894,
				"y": 1.8126369803,
				"z": 0.8497479936,
				"element": "O" 
			},
			{
				"x": -1.1662375903,
				"y": -0.1813566755,
				"z": -0.4887700204,
				"element": "C" 
			},
			{
				"x": -2.1736871815,
				"y": 0.5915019258,
				"z": 0.1179545322,
				"element": "C" 
			},
			{
				"x": -3.4170885376,
				"y": 0.7219421166,
				"z": -0.4832264344,
				"element": "C" 
			},
			{
				"x": -3.6937934769,
				"y": 0.0835073418,
				"z": -1.7052106491,
				"element": "C" 
			},
			{
				"x": -2.6933252745,
				"y": -0.6889016376,
				"z": -2.3118034971,
				"element": "C" 
			},
			{
				"x": -1.4460733565,
				"y": -0.8174106013,
				"z": -1.709769724,
				"element": "C" 
			},
			{
				"x": -4.9802421987,
				"y": 0.2165666867,
				"z": -2.3209170758,
				"element": "C" 
			},
			{
				"x": -6.0256401166,
				"y": 0.3222336117,
				"z": -2.8211332846,
				"element": "N" 
			},
			{
				"x": 2.261344783,
				"y": 2.3901243255,
				"z": 1.9449945788,
				"element": "H" 
			},
			{
				"x": 3.239808615,
				"y": 1.8430865927,
				"z": 0.7785246442,
				"element": "H" 
			},
			{
				"x": 1.6825838496,
				"y": 0.169613584,
				"z": 2.5951444455,
				"element": "H" 
			},
			{
				"x": 3.3060886834,
				"y": -0.5194920979,
				"z": 0.1075287407,
				"element": "H" 
			},
			{
				"x": 3.635949251,
				"y": -1.00376339,
				"z": 1.7689758636,
				"element": "H" 
			},
			{
				"x": 2.4287789885,
				"y": -2.8488747166,
				"z": 0.5284392897,
				"element": "H" 
			},
			{
				"x": 1.4134870247,
				"y": -2.2221306717,
				"z": 1.8260018752,
				"element": "H" 
			},
			{
				"x": 1.2893991365,
				"y": -1.5519098529,
				"z": -1.1530355003,
				"element": "H" 
			},
			{
				"x": 0.0750576364,
				"y": -2.4241071589,
				"z": -0.2134031661,
				"element": "H" 
			},
			{
				"x": -1.9753240136,
				"y": 1.0944815443,
				"z": 1.0531927238,
				"element": "H" 
			},
			{
				"x": -4.1876103002,
				"y": 1.3161084802,
				"z": -0.0035748972,
				"element": "H" 
			},
			{
				"x": -2.892448773,
				"y": -1.1826310152,
				"z": -3.2569661407,
				"element": "H" 
			},
			{
				"x": -0.6878071151,
				"y": -1.4079253573,
				"z": -2.2093346513,
				"element": "H" 
			}
		],
		 "valence_orbital": [ 
			{
				"type": "occ",
				"energy": -0.29517,
				"method": "rhf"
			},
			{
				"type": "occ",
				"energy": -0.27841,
				"method": "rhf"
			},
			{
				"type": "occ",
				"energy": -0.26795,
				"method": "rhf"
			},
			{
				"type": "occ",
				"energy": -0.24713,
				"method": "rhf"
			},
			{
				"type": "occ",
				"energy": -0.23787,
				"method": "rhf"
			},
			{
				"type": "unocc",
				"energy": -0.05262,
				"method": "rhf"
			},
			{
				"type": "unocc",
				"energy": -0.02242,
				"method": "rhf"
			},
			{
				"type": "unocc",
				"energy": 0.00274,
				"method": "rhf"
			},
			{
				"type": "unocc",
				"energy": 0.04045,
				"method": "rhf"
			},
			{
				"type": "unocc",
				"energy": 0.07103,
				"method": "rhf"
			}
		],
		"cosmo_sigma_profile": { 
			"-0.025": 0.0,
			"-0.024": 0.0,
			"-0.023": 0.0,
			"-0.022": 0.0,
			"-0.021": 0.0,
			"-0.02": 0.0,
			"-0.019": 0.0,
			"-0.018": 0.0,
			"-0.017": 0.0,
			"-0.016": 0.0,
			"-0.015": 0.0,
			"-0.014": 0.0,
			"-0.013": 0.0,
			"-0.012": 0.0,
			"-0.011": 0.0,
			"-0.01": 0.859268373318,
			"-0.009": 1.65370264902,
			"-0.008": 5.81880265491,
			"-0.007": 11.1578785739,
			"-0.006": 16.7376513725,
			"-0.005": 24.1796463141,
			"-0.004": 25.6253391414,
			"-0.003": 21.9921897186,
			"-0.002": 18.6506356954,
			"-0.001": 19.6111225443,
			"0.0": 15.6241650841,
			"0.001": 13.054865874,
			"0.002": 15.6632340257,
			"0.003": 9.8115636463,
			"0.004": 5.03979913588,
			"0.005": 4.95988037374,
			"0.006": 5.39500464528,
			"0.007": 4.0407368562,
			"0.008": 6.11581148362,
			"0.009": 5.74966610518,
			"0.01": 5.32899822591,
			"0.011": 5.63032736196,
			"0.012": 6.28846427382,
			"0.013": 5.02260208652,
			"0.014": 1.05735498333,
			"0.015": 0.347915488704,
			"0.016": 0.252222598615,
			"0.017": 0.830175931566,
			"0.018": 0.733810293531,
			"0.019": 0.307222980684,
			"0.02": 0.0,
			"0.021": 0.0,
			"0.022": 0.0,
			"0.023": 0.0,
			"0.024": 0.0,
			"0.025": 0.0
		}
	}
}
