{
	 "smiles": "CCCBr", 
	 "Tm": 163.15, 
	 "num_atms": 11, 
	 "gaussian": { 
		 "optdone": 1, 
		 "sigma_profile": "yes", 
		 "theory": "DFT", 
		 "functional": "B3LYP", 
		 "basiset": "6-31G**", 
		 "properties": { 
			 "R2extent": 824.3212, 
			 "electric_dipole_moment_norm": 2.17619017092, 
			 "electric_quadrupole_moment_norm": 1.96267028561, 
			 "total_energy": -2689.95506215, 
			 "HOMO_LUMO_gap": 0.27311, 
			 "cosmo_polarized_energy": -3.58, 
			 "cosmo_cavitation_energy": 15.64, 
			 "cosmo_dispersion_energy": -12.21, 
			 "cosmo_repulsion_energy": 1.11, 
			 "cosmo_total_nonelectrostatic_energy": 4.54, 
			 "SMD_solvation_energy": 1.71 
		},
		"coords": [
			{
				"x": 1.9010612319,
				"y": -0.881705749,
				"z": -0.0797940133,
				"element": "C" 
			},
			{
				"x": 0.4452443325,
				"y": -0.7515833257,
				"z": -0.531816064,
				"element": "C" 
			},
			{
				"x": -0.1888738615,
				"y": 0.6009267319,
				"z": -0.2403434178,
				"element": "C" 
			},
			{
				"x": -0.3712597134,
				"y": 0.9561528464,
				"z": 1.7082685783,
				"element": "Br" 
			},
			{
				"x": 1.9856045774,
				"y": -0.760752663,
				"z": 1.0036714648,
				"element": "H" 
			},
			{
				"x": 2.3037728907,
				"y": -1.8636991741,
				"z": -0.3456140603,
				"element": "H" 
			},
			{
				"x": 2.5318289359,
				"y": -0.1211460047,
				"z": -0.55378214,
				"element": "H" 
			},
			{
				"x": -0.1659848317,
				"y": -1.5409614675,
				"z": -0.0804089408,
				"element": "H" 
			},
			{
				"x": 0.3817337235,
				"y": -0.8932418095,
				"z": -1.6208498428,
				"element": "H" 
			},
			{
				"x": -1.2043816698,
				"y": 0.6731617784,
				"z": -0.6283500047,
				"element": "H" 
			},
			{
				"x": 0.4076543846,
				"y": 1.4307488368,
				"z": -0.6215815594,
				"element": "H" 
			}
		],
		 "valence_orbital": [ 
			{
				"type": "occ",
				"energy": -0.36437,
				"method": "rhf"
			},
			{
				"type": "occ",
				"energy": -0.35534,
				"method": "rhf"
			},
			{
				"type": "occ",
				"energy": -0.33684,
				"method": "rhf"
			},
			{
				"type": "occ",
				"energy": -0.2696,
				"method": "rhf"
			},
			{
				"type": "occ",
				"energy": -0.2675,
				"method": "rhf"
			},
			{
				"type": "unocc",
				"energy": 0.00561,
				"method": "rhf"
			},
			{
				"type": "unocc",
				"energy": 0.08976,
				"method": "rhf"
			},
			{
				"type": "unocc",
				"energy": 0.1299,
				"method": "rhf"
			},
			{
				"type": "unocc",
				"energy": 0.13593,
				"method": "rhf"
			},
			{
				"type": "unocc",
				"energy": 0.15425,
				"method": "rhf"
			}
		],
		"cosmo_sigma_profile": { 
			"-0.025": 0.0,
			"-0.024": 0.0,
			"-0.023": 0.0,
			"-0.022": 0.0,
			"-0.021": 0.0,
			"-0.02": 0.0,
			"-0.019": 0.0,
			"-0.018": 0.0,
			"-0.017": 0.0,
			"-0.016": 0.0,
			"-0.015": 0.0,
			"-0.014": 0.0,
			"-0.013": 0.0,
			"-0.012": 0.0,
			"-0.011": 0.0,
			"-0.01": 0.0,
			"-0.009": 0.0,
			"-0.008": 0.0,
			"-0.007": 1.28603111037,
			"-0.006": 4.95506349565,
			"-0.005": 5.5153950813,
			"-0.004": 11.0516785099,
			"-0.003": 13.870087763,
			"-0.002": 12.2178828826,
			"-0.001": 14.640000033,
			"0.0": 11.3692224808,
			"0.001": 12.4349517382,
			"0.002": 6.30569238808,
			"0.003": 4.82132113482,
			"0.004": 4.77508393745,
			"0.005": 6.81306965466,
			"0.006": 8.8003032126,
			"0.007": 6.43066586976,
			"0.008": 0.0281733007658,
			"0.009": 0.0,
			"0.01": 0.0,
			"0.011": 0.0,
			"0.012": 0.0,
			"0.013": 0.0,
			"0.014": 0.0,
			"0.015": 0.0,
			"0.016": 0.0,
			"0.017": 0.0,
			"0.018": 0.0,
			"0.019": 0.0,
			"0.02": 0.0,
			"0.021": 0.0,
			"0.022": 0.0,
			"0.023": 0.0,
			"0.024": 0.0,
			"0.025": 0.0
		}
	}
}
