{
	 "smiles": "COC1=CC(C=O)=CC=C1O", 
	 "Tm": 354.95, 
	 "num_atms": 19, 
	 "gaussian": { 
		 "optdone": 1, 
		 "sigma_profile": "yes", 
		 "theory": "DFT", 
		 "functional": "B3LYP", 
		 "basiset": "6-31G**", 
		 "properties": { 
			 "R2extent": 2303.2754, 
			 "electric_dipole_moment_norm": 2.74990054002, 
			 "electric_quadrupole_moment_norm": 22.1641032101, 
			 "total_energy": -535.32411709, 
			 "HOMO_LUMO_gap": 0.17149, 
			 "cosmo_polarized_energy": -10.55, 
			 "cosmo_cavitation_energy": 23.48, 
			 "cosmo_dispersion_energy": -17.31, 
			 "cosmo_repulsion_energy": 1.39, 
			 "cosmo_total_nonelectrostatic_energy": 7.56, 
			 "SMD_solvation_energy": 6.26 
		},
		"coords": [
			{
				"x": -0.6317251411,
				"y": 2.797559035,
				"z": 0.2603318067,
				"element": "C" 
			},
			{
				"x": 0.1797754942,
				"y": 1.7531159414,
				"z": -0.263972182,
				"element": "O" 
			},
			{
				"x": -0.42007356,
				"y": 0.5509100865,
				"z": -0.5390458254,
				"element": "C" 
			},
			{
				"x": -1.7542863313,
				"y": 0.2359847476,
				"z": -0.3591389225,
				"element": "C" 
			},
			{
				"x": -2.2147367871,
				"y": -1.053925652,
				"z": -0.6935544875,
				"element": "C" 
			},
			{
				"x": -3.6348444701,
				"y": -1.3893302204,
				"z": -0.5023042514,
				"element": "C" 
			},
			{
				"x": -4.4785255947,
				"y": -0.6250053702,
				"z": -0.065143559,
				"element": "O" 
			},
			{
				"x": -1.3260196548,
				"y": -2.0058394136,
				"z": -1.2032777862,
				"element": "C" 
			},
			{
				"x": 0.019855959,
				"y": -1.6906817383,
				"z": -1.3855653199,
				"element": "C" 
			},
			{
				"x": 0.4782309815,
				"y": -0.4170970361,
				"z": -1.0562239895,
				"element": "C" 
			},
			{
				"x": 1.7821278675,
				"y": -0.0976849102,
				"z": -1.2281056688,
				"element": "O" 
			},
			{
				"x": -1.0750933927,
				"y": 2.5097992375,
				"z": 1.220981696,
				"element": "H" 
			},
			{
				"x": -1.4310414575,
				"y": 3.0670784895,
				"z": -0.4401481848,
				"element": "H" 
			},
			{
				"x": 0.0295518306,
				"y": 3.6525067857,
				"z": 0.4054640401,
				"element": "H" 
			},
			{
				"x": -2.4726810099,
				"y": 0.9465346793,
				"z": 0.0331116797,
				"element": "H" 
			},
			{
				"x": -3.9054366566,
				"y": -2.4292309475,
				"z": -0.7935383928,
				"element": "H" 
			},
			{
				"x": -1.6900535076,
				"y": -2.9977757339,
				"z": -1.4583252817,
				"element": "H" 
			},
			{
				"x": 0.7288361248,
				"y": -2.4111297572,
				"z": -1.7791141902,
				"element": "H" 
			},
			{
				"x": 1.8918393058,
				"y": 0.8236117769,
				"z": -0.9423311809,
				"element": "H" 
			}
		],
		 "valence_orbital": [ 
			{
				"type": "occ",
				"energy": -0.35433,
				"method": "rhf"
			},
			{
				"type": "occ",
				"energy": -0.32579,
				"method": "rhf"
			},
			{
				"type": "occ",
				"energy": -0.2518,
				"method": "rhf"
			},
			{
				"type": "occ",
				"energy": -0.24751,
				"method": "rhf"
			},
			{
				"type": "occ",
				"energy": -0.22295,
				"method": "rhf"
			},
			{
				"type": "unocc",
				"energy": -0.05146,
				"method": "rhf"
			},
			{
				"type": "unocc",
				"energy": -0.00295,
				"method": "rhf"
			},
			{
				"type": "unocc",
				"energy": 0.05364,
				"method": "rhf"
			},
			{
				"type": "unocc",
				"energy": 0.06938,
				"method": "rhf"
			},
			{
				"type": "unocc",
				"energy": 0.09201,
				"method": "rhf"
			}
		],
		"cosmo_sigma_profile": { 
			"-0.025": 0.0,
			"-0.024": 0.0,
			"-0.023": 0.0,
			"-0.022": 0.0,
			"-0.021": 0.0,
			"-0.02": 0.0,
			"-0.019": 0.0,
			"-0.018": 0.0,
			"-0.017": 0.0,
			"-0.016": 0.0,
			"-0.015": 0.302958635106,
			"-0.014": 0.613504644114,
			"-0.013": 0.974727822296,
			"-0.012": 0.339799498721,
			"-0.011": 0.546292915251,
			"-0.01": 0.490451903108,
			"-0.009": 0.338913158483,
			"-0.008": 0.871691427586,
			"-0.007": 6.34280243951,
			"-0.006": 16.1171274549,
			"-0.005": 16.7828075213,
			"-0.004": 15.9269259699,
			"-0.003": 13.7834264915,
			"-0.002": 9.38353345169,
			"-0.001": 10.1227426597,
			"0.0": 9.9232192953,
			"0.001": 13.2214864245,
			"0.002": 15.18948382,
			"0.003": 15.5010859546,
			"0.004": 10.3407923671,
			"0.005": 3.01686677612,
			"0.006": 3.44572709898,
			"0.007": 2.58278902447,
			"0.008": 2.60045378264,
			"0.009": 3.82109085044,
			"0.01": 4.29886507476,
			"0.011": 3.82234872533,
			"0.012": 4.40600524514,
			"0.013": 1.90417811252,
			"0.014": 0.299188673914,
			"0.015": 0.0,
			"0.016": 0.0,
			"0.017": 0.0,
			"0.018": 0.0,
			"0.019": 0.0,
			"0.02": 0.0,
			"0.021": 0.0,
			"0.022": 0.0,
			"0.023": 0.0,
			"0.024": 0.0,
			"0.025": 0.0
		}
	}
}
