{
	 "smiles": "COC1=C(OC)C=C(CN2N=CC(C)=C2N)C=C1", 
	 "Tm": 372.15, 
	 "num_atms": 35, 
	 "gaussian": { 
		 "optdone": 1, 
		 "sigma_profile": "yes", 
		 "theory": "DFT", 
		 "functional": "B3LYP", 
		 "basiset": "6-31G**", 
		 "properties": { 
			 "R2extent": 7106.2946, 
			 "electric_dipole_moment_norm": 3.16245621946, 
			 "electric_quadrupole_moment_norm": 12.0409480109, 
			 "total_energy": -820.279568052, 
			 "HOMO_LUMO_gap": 0.1976, 
			 "cosmo_polarized_energy": -16.63, 
			 "cosmo_cavitation_energy": 38.41, 
			 "cosmo_dispersion_energy": -26.57, 
			 "cosmo_repulsion_energy": 2.09, 
			 "cosmo_total_nonelectrostatic_energy": 13.93, 
			 "SMD_solvation_energy": 7.15 
		},
		"coords": [
			{
				"x": -4.1972145776,
				"y": -3.8798775632,
				"z": 0.7822540736,
				"element": "C" 
			},
			{
				"x": -3.3259932201,
				"y": -3.6409634459,
				"z": -0.3291014563,
				"element": "O" 
			},
			{
				"x": -2.6878703067,
				"y": -2.4193683248,
				"z": -0.3094947991,
				"element": "C" 
			},
			{
				"x": -1.6846482617,
				"y": -2.1267473348,
				"z": 0.6314416598,
				"element": "C" 
			},
			{
				"x": -1.3245679615,
				"y": -3.0281354867,
				"z": 1.6106256612,
				"element": "O" 
			},
			{
				"x": -0.6477042504,
				"y": -4.1957987055,
				"z": 1.130268212,
				"element": "C" 
			},
			{
				"x": -1.0552533086,
				"y": -0.8809321759,
				"z": 0.6023268894,
				"element": "C" 
			},
			{
				"x": -1.3969757085,
				"y": 0.0780649858,
				"z": -0.3543203387,
				"element": "C" 
			},
			{
				"x": -0.7329019863,
				"y": 1.444818341,
				"z": -0.3460316572,
				"element": "C" 
			},
			{
				"x": -0.243443012,
				"y": 1.8757894699,
				"z": -1.6453794886,
				"element": "N" 
			},
			{
				"x": -1.0396903416,
				"y": 2.6577370057,
				"z": -2.4348650379,
				"element": "N" 
			},
			{
				"x": -0.3650809701,
				"y": 2.763580774,
				"z": -3.575380782,
				"element": "C" 
			},
			{
				"x": 0.8692469618,
				"y": 2.0727265459,
				"z": -3.5549196271,
				"element": "C" 
			},
			{
				"x": 1.9101899341,
				"y": 1.9673963506,
				"z": -4.6289887273,
				"element": "C" 
			},
			{
				"x": 0.90319145,
				"y": 1.5060038708,
				"z": -2.2850948492,
				"element": "C" 
			},
			{
				"x": 1.8395506247,
				"y": 0.6517524706,
				"z": -1.6940468714,
				"element": "N" 
			},
			{
				"x": -2.3767373595,
				"y": -0.2297056105,
				"z": -1.3059457504,
				"element": "C" 
			},
			{
				"x": -3.0157259951,
				"y": -1.4675127178,
				"z": -1.2777955704,
				"element": "C" 
			},
			{
				"x": -4.6230961546,
				"y": -4.8737789582,
				"z": 0.6292517575,
				"element": "H" 
			},
			{
				"x": -5.0069415209,
				"y": -3.139637189,
				"z": 0.8066384015,
				"element": "H" 
			},
			{
				"x": -3.6517408512,
				"y": -3.8527936673,
				"z": 1.7307695761,
				"element": "H" 
			},
			{
				"x": 0.2942648886,
				"y": -3.9227037164,
				"z": 0.6380198012,
				"element": "H" 
			},
			{
				"x": -1.2721972167,
				"y": -4.7600483798,
				"z": 0.4309021933,
				"element": "H" 
			},
			{
				"x": -0.4312207678,
				"y": -4.8070616356,
				"z": 2.0090223955,
				"element": "H" 
			},
			{
				"x": -0.2877865087,
				"y": -0.6844464797,
				"z": 1.3462590622,
				"element": "H" 
			},
			{
				"x": 0.0909874452,
				"y": 1.4564109977,
				"z": 0.3761931688,
				"element": "H" 
			},
			{
				"x": -1.4430853297,
				"y": 2.2173104438,
				"z": -0.037087663,
				"element": "H" 
			},
			{
				"x": -0.7752044901,
				"y": 3.3551534752,
				"z": -4.3849806317,
				"element": "H" 
			},
			{
				"x": 2.9274664828,
				"y": 2.0536976006,
				"z": -4.2242577305,
				"element": "H" 
			},
			{
				"x": 1.7917616893,
				"y": 2.7696494709,
				"z": -5.3634493391,
				"element": "H" 
			},
			{
				"x": 1.8600286381,
				"y": 1.0172836648,
				"z": -5.1768674334,
				"element": "H" 
			},
			{
				"x": 2.6755524365,
				"y": 0.5681559126,
				"z": -2.2593628041,
				"element": "H" 
			},
			{
				"x": 2.0948427068,
				"y": 0.9122461381,
				"z": -0.7472256276,
				"element": "H" 
			},
			{
				"x": -2.6360153197,
				"y": 0.5064271132,
				"z": -2.0606919193,
				"element": "H" 
			},
			{
				"x": -3.7838878386,
				"y": -1.71979324,
				"z": -2.0022847476,
				"element": "H" 
			}
		],
		 "valence_orbital": [ 
			{
				"type": "occ",
				"energy": -0.26137,
				"method": "rhf"
			},
			{
				"type": "occ",
				"energy": -0.24027,
				"method": "rhf"
			},
			{
				"type": "occ",
				"energy": -0.23086,
				"method": "rhf"
			},
			{
				"type": "occ",
				"energy": -0.22084,
				"method": "rhf"
			},
			{
				"type": "occ",
				"energy": -0.19602,
				"method": "rhf"
			},
			{
				"type": "unocc",
				"energy": 0.00158,
				"method": "rhf"
			},
			{
				"type": "unocc",
				"energy": 0.0035,
				"method": "rhf"
			},
			{
				"type": "unocc",
				"energy": 0.04096,
				"method": "rhf"
			},
			{
				"type": "unocc",
				"energy": 0.05842,
				"method": "rhf"
			},
			{
				"type": "unocc",
				"energy": 0.0852,
				"method": "rhf"
			}
		],
		"cosmo_sigma_profile": { 
			"-0.025": 0.0,
			"-0.024": 0.0,
			"-0.023": 0.0,
			"-0.022": 0.0,
			"-0.021": 0.0,
			"-0.02": 0.0,
			"-0.019": 0.0,
			"-0.018": 0.0,
			"-0.017": 0.0,
			"-0.016": 0.0,
			"-0.015": 0.0,
			"-0.014": 0.0,
			"-0.013": 0.942759651894,
			"-0.012": 2.81842164453,
			"-0.011": 3.38929584866,
			"-0.01": 3.28078884018,
			"-0.009": 2.70177342898,
			"-0.008": 3.75419810877,
			"-0.007": 4.75022605141,
			"-0.006": 10.6185379977,
			"-0.005": 16.3836559994,
			"-0.004": 24.2900250989,
			"-0.003": 32.2862359603,
			"-0.002": 29.8714106651,
			"-0.001": 22.4402141985,
			"0.0": 22.9729280319,
			"0.001": 16.8927557035,
			"0.002": 13.8180788718,
			"0.003": 17.6354133963,
			"0.004": 16.026588326,
			"0.005": 15.5309880622,
			"0.006": 11.1309497481,
			"0.007": 6.72812780485,
			"0.008": 4.60432922303,
			"0.009": 4.51018299388,
			"0.01": 4.23410031656,
			"0.011": 3.80118817406,
			"0.012": 2.71419734881,
			"0.013": 1.73688709731,
			"0.014": 1.5817933608,
			"0.015": 0.979055110462,
			"0.016": 0.717478270203,
			"0.017": 0.403809315937,
			"0.018": 0.0,
			"0.019": 0.0,
			"0.02": 0.0,
			"0.021": 0.0,
			"0.022": 0.0,
			"0.023": 0.0,
			"0.024": 0.0,
			"0.025": 0.0
		}
	}
}
