{
	 "smiles": "OC(=O)C1=CC(=CC=C1)S(=O)(=O)NC1CCCC1", 
	 "Tm": 483.15, 
	 "num_atms": 33, 
	 "gaussian": { 
		 "optdone": 1, 
		 "sigma_profile": "yes", 
		 "theory": "DFT", 
		 "functional": "B3LYP", 
		 "basiset": "6-31G**", 
		 "properties": { 
			 "R2extent": 6876.3048, 
			 "electric_dipole_moment_norm": 5.37478147091, 
			 "electric_quadrupole_moment_norm": 30.7320314133, 
			 "total_energy": -1220.09487267, 
			 "HOMO_LUMO_gap": 0.20503, 
			 "cosmo_polarized_energy": -21.56, 
			 "cosmo_cavitation_energy": 37.3, 
			 "cosmo_dispersion_energy": -26.58, 
			 "cosmo_repulsion_energy": 2.04, 
			 "cosmo_total_nonelectrostatic_energy": 12.75, 
			 "SMD_solvation_energy": 5.56 
		},
		"coords": [
			{
				"x": 5.2877023029,
				"y": 0.6694024647,
				"z": 1.0711909766,
				"element": "O" 
			},
			{
				"x": 5.3852086612,
				"y": -0.4675798308,
				"z": 0.3363372073,
				"element": "C" 
			},
			{
				"x": 6.4705616179,
				"y": -0.905002786,
				"z": 0.0368139282,
				"element": "O" 
			},
			{
				"x": 4.0998058842,
				"y": -1.1290897676,
				"z": -0.0746549763,
				"element": "C" 
			},
			{
				"x": 2.8784504167,
				"y": -0.8834980459,
				"z": 0.5592015442,
				"element": "C" 
			},
			{
				"x": 1.7324009839,
				"y": -1.5459421363,
				"z": 0.1169827889,
				"element": "C" 
			},
			{
				"x": 1.7824759997,
				"y": -2.4650680305,
				"z": -0.9287717193,
				"element": "C" 
			},
			{
				"x": 3.009936537,
				"y": -2.7208874646,
				"z": -1.5478999189,
				"element": "C" 
			},
			{
				"x": 4.1588473823,
				"y": -2.0623789852,
				"z": -1.1222869893,
				"element": "C" 
			},
			{
				"x": 0.1749882144,
				"y": -1.2578504698,
				"z": 0.9681291074,
				"element": "S" 
			},
			{
				"x": -0.8252329116,
				"y": -2.1274603735,
				"z": 0.3381151416,
				"element": "O" 
			},
			{
				"x": 0.4325629757,
				"y": -1.2989983553,
				"z": 2.4118430652,
				"element": "O" 
			},
			{
				"x": -0.1483151564,
				"y": 0.3727854398,
				"z": 0.6405327625,
				"element": "N" 
			},
			{
				"x": -1.0470883974,
				"y": 0.70772533,
				"z": -0.4830974174,
				"element": "C" 
			},
			{
				"x": -1.4817242282,
				"y": 2.1809523542,
				"z": -0.4019327853,
				"element": "C" 
			},
			{
				"x": -1.9670394121,
				"y": 2.5195639785,
				"z": -1.8332640366,
				"element": "C" 
			},
			{
				"x": -1.3289828791,
				"y": 1.4437374873,
				"z": -2.7653149687,
				"element": "C" 
			},
			{
				"x": -0.3822270965,
				"y": 0.6235804981,
				"z": -1.8647263748,
				"element": "C" 
			},
			{
				"x": 4.3725364314,
				"y": 0.9798996003,
				"z": 1.1043322375,
				"element": "H" 
			},
			{
				"x": 2.7993228263,
				"y": -0.2210480355,
				"z": 1.4162722349,
				"element": "H" 
			},
			{
				"x": 0.8747174104,
				"y": -2.9735018895,
				"z": -1.2342941976,
				"element": "H" 
			},
			{
				"x": 3.0648306296,
				"y": -3.4402387564,
				"z": -2.3588615852,
				"element": "H" 
			},
			{
				"x": 5.1223120811,
				"y": -2.2548272093,
				"z": -1.5815306273,
				"element": "H" 
			},
			{
				"x": -0.4606784742,
				"y": 0.7663454246,
				"z": 1.5268347991,
				"element": "H" 
			},
			{
				"x": -1.9329511056,
				"y": 0.0585033466,
				"z": -0.4700741404,
				"element": "H" 
			},
			{
				"x": -0.6056762983,
				"y": 2.7862814077,
				"z": -0.1390781788,
				"element": "H" 
			},
			{
				"x": -2.24573386,
				"y": 2.3550515836,
				"z": 0.362982602,
				"element": "H" 
			},
			{
				"x": -3.0588859124,
				"y": 2.482122181,
				"z": -1.8929455251,
				"element": "H" 
			},
			{
				"x": -1.6723881696,
				"y": 3.5341358361,
				"z": -2.1156206918,
				"element": "H" 
			},
			{
				"x": -0.8012268308,
				"y": 1.8851510149,
				"z": -3.6152279862,
				"element": "H" 
			},
			{
				"x": -2.1077292489,
				"y": 0.7954553404,
				"z": -3.1804797855,
				"element": "H" 
			},
			{
				"x": 0.6067337867,
				"y": 1.0937180784,
				"z": -1.8045154378,
				"element": "H" 
			},
			{
				"x": -0.2447141603,
				"y": -0.4031392301,
				"z": -2.214691053,
				"element": "H" 
			}
		],
		 "valence_orbital": [ 
			{
				"type": "occ",
				"energy": -0.31036,
				"method": "rhf"
			},
			{
				"type": "occ",
				"energy": -0.2983,
				"method": "rhf"
			},
			{
				"type": "occ",
				"energy": -0.29119,
				"method": "rhf"
			},
			{
				"type": "occ",
				"energy": -0.28137,
				"method": "rhf"
			},
			{
				"type": "occ",
				"energy": -0.27234,
				"method": "rhf"
			},
			{
				"type": "unocc",
				"energy": -0.06731,
				"method": "rhf"
			},
			{
				"type": "unocc",
				"energy": -0.05348,
				"method": "rhf"
			},
			{
				"type": "unocc",
				"energy": 0.02859,
				"method": "rhf"
			},
			{
				"type": "unocc",
				"energy": 0.03936,
				"method": "rhf"
			},
			{
				"type": "unocc",
				"energy": 0.06007,
				"method": "rhf"
			}
		],
		"cosmo_sigma_profile": { 
			"-0.025": 0.0,
			"-0.024": 0.0,
			"-0.023": 0.0,
			"-0.022": 0.0,
			"-0.021": 0.0,
			"-0.02": 0.040703429224,
			"-0.019": 0.908187800174,
			"-0.018": 1.15479513407,
			"-0.017": 0.792908515381,
			"-0.016": 1.00533790537,
			"-0.015": 1.51515844505,
			"-0.014": 1.25326683886,
			"-0.013": 1.88730708051,
			"-0.012": 1.90386864959,
			"-0.011": 2.49350114387,
			"-0.01": 1.51579535585,
			"-0.009": 2.29166135442,
			"-0.008": 4.68259685634,
			"-0.007": 8.86822553057,
			"-0.006": 8.33998789577,
			"-0.005": 7.80370391625,
			"-0.004": 13.5036975941,
			"-0.003": 28.7115033969,
			"-0.002": 33.7069696961,
			"-0.001": 31.083892711,
			"0.0": 30.6267548477,
			"0.001": 27.5540717534,
			"0.002": 9.05353472393,
			"0.003": 5.78839482752,
			"0.004": 4.90559164769,
			"0.005": 5.88639462395,
			"0.006": 5.77066110254,
			"0.007": 5.81144895612,
			"0.008": 6.29786549589,
			"0.009": 7.22493804003,
			"0.01": 13.3909899052,
			"0.011": 13.2905474376,
			"0.012": 4.72236288117,
			"0.013": 0.684479281833,
			"0.014": 0.0,
			"0.015": 0.0,
			"0.016": 0.0,
			"0.017": 0.0,
			"0.018": 0.0,
			"0.019": 0.0,
			"0.02": 0.0,
			"0.021": 0.0,
			"0.022": 0.0,
			"0.023": 0.0,
			"0.024": 0.0,
			"0.025": 0.0
		}
	}
}
