{
	 "smiles": "OC1=NC(O)=C2CCCC2=N1", 
	 "Tm": 598.15, 
	 "num_atms": 19, 
	 "gaussian": { 
		 "optdone": 1, 
		 "sigma_profile": "yes", 
		 "theory": "DFT", 
		 "functional": "B3LYP", 
		 "basiset": "6-31G**", 
		 "properties": { 
			 "R2extent": 1752.0663, 
			 "electric_dipole_moment_norm": 2.30682651493, 
			 "electric_quadrupole_moment_norm": 11.1265832725, 
			 "total_energy": -531.540930251, 
			 "HOMO_LUMO_gap": 0.21294, 
			 "cosmo_polarized_energy": -12.11, 
			 "cosmo_cavitation_energy": 22.48, 
			 "cosmo_dispersion_energy": -17.42, 
			 "cosmo_repulsion_energy": 1.42, 
			 "cosmo_total_nonelectrostatic_energy": 6.49, 
			 "SMD_solvation_energy": 1.24 
		},
		"coords": [
			{
				"x": -0.2462623481,
				"y": 0.8248784975,
				"z": 3.5725994627,
				"element": "O" 
			},
			{
				"x": 0.0271788858,
				"y": 0.6175855017,
				"z": 2.2712512208,
				"element": "C" 
			},
			{
				"x": 1.3067599983,
				"y": 0.7720362273,
				"z": 1.8978408461,
				"element": "N" 
			},
			{
				"x": 1.5810405708,
				"y": 0.567952006,
				"z": 0.6059950532,
				"element": "C" 
			},
			{
				"x": 2.8562781866,
				"y": 0.7257630276,
				"z": 0.2046356357,
				"element": "O" 
			},
			{
				"x": 0.5931986252,
				"y": 0.1987549386,
				"z": -0.3057545495,
				"element": "C" 
			},
			{
				"x": 0.61949983,
				"y": -0.0785325111,
				"z": -1.785912886,
				"element": "C" 
			},
			{
				"x": -0.7620325111,
				"y": -0.7581847657,
				"z": -2.0243483852,
				"element": "C" 
			},
			{
				"x": -1.6740870382,
				"y": -0.2965224707,
				"z": -0.8579369078,
				"element": "C" 
			},
			{
				"x": -0.6895621069,
				"y": 0.0761063973,
				"z": 0.2250728851,
				"element": "C" 
			},
			{
				"x": -1.0110066864,
				"y": 0.2806046999,
				"z": 1.5073305705,
				"element": "N" 
			},
			{
				"x": 0.5945582923,
				"y": 1.0578240971,
				"z": 3.9939399207,
				"element": "H" 
			},
			{
				"x": 3.3651177554,
				"y": 0.9722977076,
				"z": 0.9938044505,
				"element": "H" 
			},
			{
				"x": 0.7105906808,
				"y": 0.8555633713,
				"z": -2.3570108093,
				"element": "H" 
			},
			{
				"x": 1.4568578489,
				"y": -0.7142056036,
				"z": -2.0908269587,
				"element": "H" 
			},
			{
				"x": -1.1795472928,
				"y": -0.5216415433,
				"z": -3.006358649,
				"element": "H" 
			},
			{
				"x": -0.6393496283,
				"y": -1.8454346611,
				"z": -1.9766954477,
				"element": "H" 
			},
			{
				"x": -2.3832937851,
				"y": -1.0594803324,
				"z": -0.5244936672,
				"element": "H" 
			},
			{
				"x": -2.2653392768,
				"y": 0.589435416,
				"z": -1.126631785,
				"element": "H" 
			}
		],
		 "valence_orbital": [ 
			{
				"type": "occ",
				"energy": -0.31888,
				"method": "rhf"
			},
			{
				"type": "occ",
				"energy": -0.31367,
				"method": "rhf"
			},
			{
				"type": "occ",
				"energy": -0.28445,
				"method": "rhf"
			},
			{
				"type": "occ",
				"energy": -0.25694,
				"method": "rhf"
			},
			{
				"type": "occ",
				"energy": -0.23289,
				"method": "rhf"
			},
			{
				"type": "unocc",
				"energy": -0.01995,
				"method": "rhf"
			},
			{
				"type": "unocc",
				"energy": 0.00505,
				"method": "rhf"
			},
			{
				"type": "unocc",
				"energy": 0.07487,
				"method": "rhf"
			},
			{
				"type": "unocc",
				"energy": 0.0916,
				"method": "rhf"
			},
			{
				"type": "unocc",
				"energy": 0.09594,
				"method": "rhf"
			}
		],
		"cosmo_sigma_profile": { 
			"-0.025": 0.0,
			"-0.024": 0.0,
			"-0.023": 0.0,
			"-0.022": 0.0,
			"-0.021": 0.0,
			"-0.02": 0.0,
			"-0.019": 0.0,
			"-0.018": 0.463495583175,
			"-0.017": 1.61526601345,
			"-0.016": 1.75854185867,
			"-0.015": 1.53367283676,
			"-0.014": 0.830778405449,
			"-0.013": 1.42716644116,
			"-0.012": 1.56079312639,
			"-0.011": 1.50625240387,
			"-0.01": 1.57893652143,
			"-0.009": 0.78884988602,
			"-0.008": 0.275333006892,
			"-0.007": 1.658850646,
			"-0.006": 3.03942593908,
			"-0.005": 4.15587499427,
			"-0.004": 11.3517834089,
			"-0.003": 16.8486268767,
			"-0.002": 20.8985382863,
			"-0.001": 20.8656133801,
			"0.0": 22.013435491,
			"0.001": 10.6236466407,
			"0.002": 6.03798988758,
			"0.003": 5.57547123156,
			"0.004": 5.01666463696,
			"0.005": 3.74039396848,
			"0.006": 3.97205034857,
			"0.007": 5.13944499107,
			"0.008": 5.45308649425,
			"0.009": 4.01437245936,
			"0.01": 4.26082298464,
			"0.011": 2.90998769284,
			"0.012": 2.37994218642,
			"0.013": 1.12189910733,
			"0.014": 1.3012779627,
			"0.015": 1.16664858438,
			"0.016": 0.745354450046,
			"0.017": 0.0879467645448,
			"0.018": 0.0,
			"0.019": 0.0,
			"0.02": 0.0,
			"0.021": 0.0,
			"0.022": 0.0,
			"0.023": 0.0,
			"0.024": 0.0,
			"0.025": 0.0
		}
	}
}
