{
	 "smiles": "OC(=O)CSC1=NS(=O)(=O)C2=C1C=CC=C2", 
	 "Tm": 487.15, 
	 "num_atms": 23, 
	 "gaussian": { 
		 "optdone": 1, 
		 "sigma_profile": "yes", 
		 "theory": "DFT", 
		 "functional": "B3LYP", 
		 "basiset": "6-31G**", 
		 "properties": { 
			 "R2extent": 4500.8108, 
			 "electric_dipole_moment_norm": 5.26533730448, 
			 "electric_quadrupole_moment_norm": 26.6747013142, 
			 "total_energy": -1499.12323898, 
			 "HOMO_LUMO_gap": 0.17864, 
			 "cosmo_polarized_energy": -23.28, 
			 "cosmo_cavitation_energy": 31.53, 
			 "cosmo_dispersion_energy": -23.45, 
			 "cosmo_repulsion_energy": 1.76, 
			 "cosmo_total_nonelectrostatic_energy": 9.84, 
			 "SMD_solvation_energy": 4.62 
		},
		"coords": [
			{
				"x": -0.3483039565,
				"y": 0.9507888926,
				"z": -4.8388741467,
				"element": "O" 
			},
			{
				"x": -0.9654444453,
				"y": 0.2417583313,
				"z": -3.8697037936,
				"element": "C" 
			},
			{
				"x": -1.0391116196,
				"y": -0.9616347444,
				"z": -3.8576722661,
				"element": "O" 
			},
			{
				"x": -1.5655596207,
				"y": 1.2012632588,
				"z": -2.8477532373,
				"element": "C" 
			},
			{
				"x": -2.1797917754,
				"y": 0.3825374537,
				"z": -1.3461071361,
				"element": "S" 
			},
			{
				"x": -0.6551997633,
				"y": 0.0441207373,
				"z": -0.5444359099,
				"element": "C" 
			},
			{
				"x": 0.4804775349,
				"y": 0.4045444943,
				"z": -1.0415036915,
				"element": "N" 
			},
			{
				"x": 1.7533882049,
				"y": -0.0587654906,
				"z": 0.0265898349,
				"element": "S" 
			},
			{
				"x": 2.5796483853,
				"y": -1.0724443785,
				"z": -0.6245148465,
				"element": "O" 
			},
			{
				"x": 2.3664414013,
				"y": 1.1491735118,
				"z": 0.5761497659,
				"element": "O" 
			},
			{
				"x": 0.6458511528,
				"y": -0.8122872575,
				"z": 1.2288995045,
				"element": "C" 
			},
			{
				"x": -0.6601491806,
				"y": -0.6696815836,
				"z": 0.7618117948,
				"element": "C" 
			},
			{
				"x": -1.7261352343,
				"y": -1.1724835533,
				"z": 1.506231173,
				"element": "C" 
			},
			{
				"x": -1.4449069821,
				"y": -1.8106943699,
				"z": 2.7180187316,
				"element": "C" 
			},
			{
				"x": -0.128557122,
				"y": -1.9440853522,
				"z": 3.1731670641,
				"element": "C" 
			},
			{
				"x": 0.9441483466,
				"y": -1.4416192448,
				"z": 2.4258676468,
				"element": "C" 
			},
			{
				"x": 0.0189120491,
				"y": 0.3029358959,
				"z": -5.4639332578,
				"element": "H" 
			},
			{
				"x": -2.427543886,
				"y": 1.7074673013,
				"z": -3.2928305008,
				"element": "H" 
			},
			{
				"x": -0.8249137086,
				"y": 1.9558283803,
				"z": -2.5770380781,
				"element": "H" 
			},
			{
				"x": -2.7495402747,
				"y": -1.0767967104,
				"z": 1.1571586656,
				"element": "H" 
			},
			{
				"x": -2.2601802853,
				"y": -2.2100166924,
				"z": 3.3129798361,
				"element": "H" 
			},
			{
				"x": 0.0650274031,
				"y": -2.4447844292,
				"z": 4.1167553359,
				"element": "H" 
			},
			{
				"x": 1.9674433763,
				"y": -1.5434244504,
				"z": 2.7716375111,
				"element": "H" 
			}
		],
		 "valence_orbital": [ 
			{
				"type": "occ",
				"energy": -0.29591,
				"method": "rhf"
			},
			{
				"type": "occ",
				"energy": -0.29124,
				"method": "rhf"
			},
			{
				"type": "occ",
				"energy": -0.28597,
				"method": "rhf"
			},
			{
				"type": "occ",
				"energy": -0.28081,
				"method": "rhf"
			},
			{
				"type": "occ",
				"energy": -0.26588,
				"method": "rhf"
			},
			{
				"type": "unocc",
				"energy": -0.08724,
				"method": "rhf"
			},
			{
				"type": "unocc",
				"energy": -0.04728,
				"method": "rhf"
			},
			{
				"type": "unocc",
				"energy": -0.00686,
				"method": "rhf"
			},
			{
				"type": "unocc",
				"energy": -0.00091,
				"method": "rhf"
			},
			{
				"type": "unocc",
				"energy": 0.00895,
				"method": "rhf"
			}
		],
		"cosmo_sigma_profile": { 
			"-0.025": 0.0,
			"-0.024": 0.0,
			"-0.023": 0.0,
			"-0.022": 0.0,
			"-0.021": 0.0,
			"-0.02": 0.0,
			"-0.019": 0.456565051987,
			"-0.018": 1.15912496607,
			"-0.017": 0.718859399287,
			"-0.016": 0.690086922689,
			"-0.015": 1.08157162884,
			"-0.014": 0.55796800794,
			"-0.013": 1.00339173802,
			"-0.012": 0.647132590876,
			"-0.011": 2.66351544534,
			"-0.01": 3.79419483429,
			"-0.009": 6.71701739324,
			"-0.008": 11.0314407148,
			"-0.007": 14.8665049317,
			"-0.006": 13.0692459258,
			"-0.005": 12.1110044571,
			"-0.004": 14.3014779839,
			"-0.003": 11.2957879367,
			"-0.002": 12.7393381441,
			"-0.001": 14.1115259576,
			"0.0": 17.7885598681,
			"0.001": 20.6754950197,
			"0.002": 9.12824829497,
			"0.003": 6.95807135751,
			"0.004": 8.50885811604,
			"0.005": 7.93516415338,
			"0.006": 7.64442477052,
			"0.007": 7.96187139088,
			"0.008": 7.00681315652,
			"0.009": 9.625729887,
			"0.01": 17.7594082533,
			"0.011": 10.2352580052,
			"0.012": 1.30279142486,
			"0.013": 0.00365109970391,
			"0.014": 0.0,
			"0.015": 0.0,
			"0.016": 0.0,
			"0.017": 0.0,
			"0.018": 0.0,
			"0.019": 0.0,
			"0.02": 0.0,
			"0.021": 0.0,
			"0.022": 0.0,
			"0.023": 0.0,
			"0.024": 0.0,
			"0.025": 0.0
		}
	}
}
