{
	 "smiles": "CCOC(=O)C(NC(C)=O)C(=O)OCC", 
	 "Tm": 370.35, 
	 "num_atms": 30, 
	 "gaussian": { 
		 "optdone": 1, 
		 "sigma_profile": "yes", 
		 "theory": "DFT", 
		 "functional": "B3LYP", 
		 "basiset": "6-31G**", 
		 "properties": { 
			 "R2extent": 4126.1694, 
			 "electric_dipole_moment_norm": 1.97681500652, 
			 "electric_quadrupole_moment_norm": 27.3344606744, 
			 "total_energy": -782.904165106, 
			 "HOMO_LUMO_gap": 0.23687, 
			 "cosmo_polarized_energy": -17.52, 
			 "cosmo_cavitation_energy": 34.89, 
			 "cosmo_dispersion_energy": -23.15, 
			 "cosmo_repulsion_energy": 1.91, 
			 "cosmo_total_nonelectrostatic_energy": 13.65, 
			 "SMD_solvation_energy": 8.86 
		},
		"coords": [
			{
				"x": 0.8105914217,
				"y": -4.3621044776,
				"z": -1.4677634706,
				"element": "C" 
			},
			{
				"x": 0.0006138802,
				"y": -3.3229714047,
				"z": -2.2260291468,
				"element": "C" 
			},
			{
				"x": -0.3105390946,
				"y": -2.1805012267,
				"z": -1.3832267981,
				"element": "O" 
			},
			{
				"x": 0.6199996296,
				"y": -1.2109195411,
				"z": -1.3119123015,
				"element": "C" 
			},
			{
				"x": 1.6880265437,
				"y": -1.2191094791,
				"z": -1.8756808836,
				"element": "O" 
			},
			{
				"x": 0.1354192138,
				"y": -0.0863957313,
				"z": -0.3873389478,
				"element": "C" 
			},
			{
				"x": -0.2847068711,
				"y": -0.6232535055,
				"z": 0.8875529756,
				"element": "N" 
			},
			{
				"x": -0.1856825859,
				"y": -0.0291158289,
				"z": 2.1300862327,
				"element": "C" 
			},
			{
				"x": 0.6725758403,
				"y": 1.219846724,
				"z": 2.2352165994,
				"element": "C" 
			},
			{
				"x": -0.7548237258,
				"y": -0.5201174962,
				"z": 3.0927818017,
				"element": "O" 
			},
			{
				"x": -0.9347731607,
				"y": 0.7401008689,
				"z": -1.134322861,
				"element": "C" 
			},
			{
				"x": -1.0160644993,
				"y": 0.7905980217,
				"z": -2.3413242095,
				"element": "O" 
			},
			{
				"x": -1.7178572692,
				"y": 1.4156932605,
				"z": -0.2817614868,
				"element": "O" 
			},
			{
				"x": -2.7403394627,
				"y": 2.2530539448,
				"z": -0.8853418581,
				"element": "C" 
			},
			{
				"x": -3.5178590947,
				"y": 2.9050852174,
				"z": 0.2405313896,
				"element": "C" 
			},
			{
				"x": 1.7890570303,
				"y": -3.9620628338,
				"z": -1.1912465415,
				"element": "H" 
			},
			{
				"x": 0.9666650906,
				"y": -5.2412495026,
				"z": -2.1015757677,
				"element": "H" 
			},
			{
				"x": 0.2880662636,
				"y": -4.6815781739,
				"z": -0.5613702081,
				"element": "H" 
			},
			{
				"x": 0.5352003928,
				"y": -2.963867795,
				"z": -3.1079781021,
				"element": "H" 
			},
			{
				"x": -0.9765113837,
				"y": -3.7087410813,
				"z": -2.5241433604,
				"element": "H" 
			},
			{
				"x": 0.9957074984,
				"y": 0.5713830503,
				"z": -0.2432985872,
				"element": "H" 
			},
			{
				"x": -0.9303838443,
				"y": -1.402432488,
				"z": 0.8568842384,
				"element": "H" 
			},
			{
				"x": 0.69603354,
				"y": 1.5186857054,
				"z": 3.2825764692,
				"element": "H" 
			},
			{
				"x": 1.6968680483,
				"y": 1.0387040527,
				"z": 1.8918746914,
				"element": "H" 
			},
			{
				"x": 0.2511112096,
				"y": 2.0337234935,
				"z": 1.6369658685,
				"element": "H" 
			},
			{
				"x": -2.2507742254,
				"y": 2.9860605412,
				"z": -1.5337742333,
				"element": "H" 
			},
			{
				"x": -3.3731276027,
				"y": 1.6222639397,
				"z": -1.5165249199,
				"element": "H" 
			},
			{
				"x": -2.8665666926,
				"y": 3.530309503,
				"z": 0.8578276909,
				"element": "H" 
			},
			{
				"x": -3.9827783368,
				"y": 2.1520425308,
				"z": 0.8826490469,
				"element": "H" 
			},
			{
				"x": -4.3068477534,
				"y": 3.5384697119,
				"z": -0.1765333201,
				"element": "H" 
			}
		],
		 "valence_orbital": [ 
			{
				"type": "occ",
				"energy": -0.3114,
				"method": "rhf"
			},
			{
				"type": "occ",
				"energy": -0.30326,
				"method": "rhf"
			},
			{
				"type": "occ",
				"energy": -0.2924,
				"method": "rhf"
			},
			{
				"type": "occ",
				"energy": -0.2514,
				"method": "rhf"
			},
			{
				"type": "occ",
				"energy": -0.24574,
				"method": "rhf"
			},
			{
				"type": "unocc",
				"energy": -0.00887,
				"method": "rhf"
			},
			{
				"type": "unocc",
				"energy": -0.00496,
				"method": "rhf"
			},
			{
				"type": "unocc",
				"energy": 0.02769,
				"method": "rhf"
			},
			{
				"type": "unocc",
				"energy": 0.07969,
				"method": "rhf"
			},
			{
				"type": "unocc",
				"energy": 0.09334,
				"method": "rhf"
			}
		],
		"cosmo_sigma_profile": { 
			"-0.025": 0.0,
			"-0.024": 0.0,
			"-0.023": 0.0,
			"-0.022": 0.0,
			"-0.021": 0.0,
			"-0.02": 0.0,
			"-0.019": 0.0,
			"-0.018": 0.0,
			"-0.017": 0.0,
			"-0.016": 0.0,
			"-0.015": 0.0,
			"-0.014": 0.0,
			"-0.013": 0.0751763913084,
			"-0.012": 0.65239622855,
			"-0.011": 0.70191378333,
			"-0.01": 3.14484054723,
			"-0.009": 3.70902665857,
			"-0.008": 2.95147455235,
			"-0.007": 3.73633900594,
			"-0.006": 10.4470819811,
			"-0.005": 22.3391226324,
			"-0.004": 32.2609209068,
			"-0.003": 29.0315433717,
			"-0.002": 26.7424573084,
			"-0.001": 28.1508537491,
			"0.0": 20.8901649413,
			"0.001": 10.30912663,
			"0.002": 7.41270149826,
			"0.003": 8.1237629077,
			"0.004": 7.24451237685,
			"0.005": 6.95296930103,
			"0.006": 4.514678954,
			"0.007": 4.5833600223,
			"0.008": 5.43988443494,
			"0.009": 4.43140835483,
			"0.01": 6.80430626083,
			"0.011": 10.0778366453,
			"0.012": 3.01349051292,
			"0.013": 5.52081126041,
			"0.014": 3.92160867525,
			"0.015": 0.513347314265,
			"0.016": 0.0,
			"0.017": 0.0,
			"0.018": 0.0,
			"0.019": 0.0,
			"0.02": 0.0,
			"0.021": 0.0,
			"0.022": 0.0,
			"0.023": 0.0,
			"0.024": 0.0,
			"0.025": 0.0
		}
	}
}
