{
	 "smiles": "BrN1CCCCCC1=O", 
	 "Tm": 337.15, 
	 "num_atms": 19, 
	 "gaussian": { 
		 "optdone": 1, 
		 "sigma_profile": "yes", 
		 "theory": "DFT", 
		 "functional": "B3LYP", 
		 "basiset": "6-31G**", 
		 "properties": { 
			 "R2extent": 3611.8102, 
			 "electric_dipole_moment_norm": 4.28939133561, 
			 "electric_quadrupole_moment_norm": 15.2244865946, 
			 "total_energy": -2936.02318187, 
			 "HOMO_LUMO_gap": 0.18422, 
			 "cosmo_polarized_energy": -10.28, 
			 "cosmo_cavitation_energy": 22.57, 
			 "cosmo_dispersion_energy": -17.35, 
			 "cosmo_repulsion_energy": 1.41, 
			 "cosmo_total_nonelectrostatic_energy": 6.64, 
			 "SMD_solvation_energy": 2.14 
		},
		"coords": [
			{
				"x": -2.1136140553,
				"y": 3.0768764414,
				"z": 1.0706910368,
				"element": "Br" 
			},
			{
				"x": -1.2977852074,
				"y": 1.3803215993,
				"z": 1.3215858606,
				"element": "N" 
			},
			{
				"x": -0.412729788,
				"y": 0.9323991689,
				"z": 0.2395814159,
				"element": "C" 
			},
			{
				"x": -1.1295652973,
				"y": 0.1798339084,
				"z": -0.8935257298,
				"element": "C" 
			},
			{
				"x": -2.202066418,
				"y": -0.7999887269,
				"z": -0.3860188271,
				"element": "C" 
			},
			{
				"x": -1.7761810278,
				"y": -1.6912474296,
				"z": 0.79560216,
				"element": "C" 
			},
			{
				"x": -1.4301132565,
				"y": -0.9300410403,
				"z": 2.1142347946,
				"element": "C" 
			},
			{
				"x": -1.9789508775,
				"y": 0.5009906258,
				"z": 2.154547386,
				"element": "C" 
			},
			{
				"x": -2.9131445942,
				"y": 0.8318398384,
				"z": 2.8599266666,
				"element": "O" 
			},
			{
				"x": 0.1158972131,
				"y": 1.8093325558,
				"z": -0.1379057237,
				"element": "H" 
			},
			{
				"x": 0.3463187094,
				"y": 0.2920496782,
				"z": 0.7010376368,
				"element": "H" 
			},
			{
				"x": -1.5969291813,
				"y": 0.8980021534,
				"z": -1.5766682396,
				"element": "H" 
			},
			{
				"x": -0.3651604463,
				"y": -0.3549667041,
				"z": -1.4722534434,
				"element": "H" 
			},
			{
				"x": -3.0938649153,
				"y": -0.2325687255,
				"z": -0.0928453628,
				"element": "H" 
			},
			{
				"x": -2.5172275121,
				"y": -1.4409080885,
				"z": -1.2171773671,
				"element": "H" 
			},
			{
				"x": -2.598967703,
				"y": -2.3823635767,
				"z": 1.0038448752,
				"element": "H" 
			},
			{
				"x": -0.9204725312,
				"y": -2.3119831955,
				"z": 0.503953461,
				"element": "H" 
			},
			{
				"x": -1.8759862501,
				"y": -1.4306137665,
				"z": 2.9750734128,
				"element": "H" 
			},
			{
				"x": -0.3479568614,
				"y": -0.9104647161,
				"z": 2.2775159871,
				"element": "H" 
			}
		],
		 "valence_orbital": [ 
			{
				"type": "occ",
				"energy": -0.33216,
				"method": "rhf"
			},
			{
				"type": "occ",
				"energy": -0.31332,
				"method": "rhf"
			},
			{
				"type": "occ",
				"energy": -0.29123,
				"method": "rhf"
			},
			{
				"type": "occ",
				"energy": -0.25366,
				"method": "rhf"
			},
			{
				"type": "occ",
				"energy": -0.23962,
				"method": "rhf"
			},
			{
				"type": "unocc",
				"energy": -0.0554,
				"method": "rhf"
			},
			{
				"type": "unocc",
				"energy": 0.01819,
				"method": "rhf"
			},
			{
				"type": "unocc",
				"energy": 0.06831,
				"method": "rhf"
			},
			{
				"type": "unocc",
				"energy": 0.09474,
				"method": "rhf"
			},
			{
				"type": "unocc",
				"energy": 0.12303,
				"method": "rhf"
			}
		],
		"cosmo_sigma_profile": { 
			"-0.025": 0.0,
			"-0.024": 0.0,
			"-0.023": 0.0,
			"-0.022": 0.0,
			"-0.021": 0.0,
			"-0.02": 0.0,
			"-0.019": 0.0,
			"-0.018": 0.0,
			"-0.017": 0.0,
			"-0.016": 0.0,
			"-0.015": 0.0,
			"-0.014": 0.0,
			"-0.013": 0.0,
			"-0.012": 0.0,
			"-0.011": 0.0,
			"-0.01": 0.0,
			"-0.009": 0.0,
			"-0.008": 1.07334093565,
			"-0.007": 3.77393498086,
			"-0.006": 6.99169135289,
			"-0.005": 8.3041578269,
			"-0.004": 17.9338870941,
			"-0.003": 25.8797852969,
			"-0.002": 25.4007301962,
			"-0.001": 21.0877407852,
			"0.0": 13.3803134072,
			"0.001": 5.92925247797,
			"0.002": 5.18676512761,
			"0.003": 7.81112766584,
			"0.004": 9.52765101665,
			"0.005": 4.71955126087,
			"0.006": 2.21133665772,
			"0.007": 1.86344628252,
			"0.008": 1.84969774939,
			"0.009": 1.75462219366,
			"0.01": 1.42207158085,
			"0.011": 2.37933266869,
			"0.012": 4.10003538435,
			"0.013": 5.57718493706,
			"0.014": 1.40501417991,
			"0.015": 0.0,
			"0.016": 0.0,
			"0.017": 0.0,
			"0.018": 0.0,
			"0.019": 0.0,
			"0.02": 0.0,
			"0.021": 0.0,
			"0.022": 0.0,
			"0.023": 0.0,
			"0.024": 0.0,
			"0.025": 0.0
		}
	}
}
