{
	 "smiles": "CCCCCCCCCCCCCCCCCCCCCCCCC", 
	 "Tm": 326.65, 
	 "num_atms": 77, 
	 "gaussian": { 
		 "optdone": 1, 
		 "sigma_profile": "yes", 
		 "theory": "DFT", 
		 "functional": "B3LYP", 
		 "basiset": "6-31G**", 
		 "properties": { 
			 "R2extent": 30338.3244, 
			 "electric_dipole_moment_norm": 0.0318498037671, 
			 "electric_quadrupole_moment_norm": 0.697643633956, 
			 "total_energy": -984.087013521, 
			 "HOMO_LUMO_gap": 0.36799, 
			 "cosmo_polarized_energy": -1.56, 
			 "cosmo_cavitation_energy": 72.94, 
			 "cosmo_dispersion_energy": -48.8, 
			 "cosmo_repulsion_energy": 3.98, 
			 "cosmo_total_nonelectrostatic_energy": 28.12, 
			 "SMD_solvation_energy": 8.97 
		},
		"coords": [
			{
				"x": 4.6087445829,
				"y": -3.291366316,
				"z": 6.2146675747,
				"element": "C" 
			},
			{
				"x": 5.8640332179,
				"y": -2.5419962974,
				"z": 5.7515992569,
				"element": "C" 
			},
			{
				"x": 6.302017712,
				"y": -2.8600891563,
				"z": 4.3122279544,
				"element": "C" 
			},
			{
				"x": 5.3198146305,
				"y": -2.4019814413,
				"z": 3.2250406305,
				"element": "C" 
			},
			{
				"x": 5.8201097614,
				"y": -2.6785337847,
				"z": 1.8011931366,
				"element": "C" 
			},
			{
				"x": 4.8456066838,
				"y": -2.2225019795,
				"z": 0.7073729317,
				"element": "C" 
			},
			{
				"x": 5.3540894401,
				"y": -2.5056716999,
				"z": -0.7134208979,
				"element": "C" 
			},
			{
				"x": 4.4409420828,
				"y": -1.9964035567,
				"z": -1.8410648202,
				"element": "C" 
			},
			{
				"x": 3.0769291409,
				"y": -2.6959274311,
				"z": -1.9329341441,
				"element": "C" 
			},
			{
				"x": 2.234168123,
				"y": -2.209548363,
				"z": -3.1204997896,
				"element": "C" 
			},
			{
				"x": 0.8950657906,
				"y": -2.946196794,
				"z": -3.3033732802,
				"element": "C" 
			},
			{
				"x": -0.1238034531,
				"y": -2.7936782099,
				"z": -2.1597621657,
				"element": "C" 
			},
			{
				"x": -0.6269571854,
				"y": -1.3606507067,
				"z": -1.9354987668,
				"element": "C" 
			},
			{
				"x": -1.7049423856,
				"y": -1.2689800525,
				"z": -0.8455247377,
				"element": "C" 
			},
			{
				"x": -2.2985322731,
				"y": 0.1350101653,
				"z": -0.6407794618,
				"element": "C" 
			},
			{
				"x": -1.3066991309,
				"y": 1.1727266168,
				"z": -0.0920354655,
				"element": "C" 
			},
			{
				"x": -1.9356366389,
				"y": 2.5308771057,
				"z": 0.2620856595,
				"element": "C" 
			},
			{
				"x": -2.477432365,
				"y": 3.3226103916,
				"z": -0.9371205285,
				"element": "C" 
			},
			{
				"x": -3.025929781,
				"y": 4.701806703,
				"z": -0.5447321315,
				"element": "C" 
			},
			{
				"x": -3.4960483917,
				"y": 5.5672040322,
				"z": -1.7277005617,
				"element": "C" 
			},
			{
				"x": -4.6818277658,
				"y": 5.0188618441,
				"z": -2.5430470573,
				"element": "C" 
			},
			{
				"x": -5.9943448699,
				"y": 4.9013193533,
				"z": -1.7543783127,
				"element": "C" 
			},
			{
				"x": -7.1789021666,
				"y": 4.3496815402,
				"z": -2.5686612151,
				"element": "C" 
			},
			{
				"x": -7.646771651,
				"y": 5.2134897521,
				"z": -3.7536442409,
				"element": "C" 
			},
			{
				"x": -8.1769559861,
				"y": 6.5963711851,
				"z": -3.3570265318,
				"element": "C" 
			},
			{
				"x": 4.7452254275,
				"y": -4.376241103,
				"z": 6.1331601727,
				"element": "H" 
			},
			{
				"x": 4.3775153255,
				"y": -3.0643156572,
				"z": 7.2607134928,
				"element": "H" 
			},
			{
				"x": 3.72941228,
				"y": -3.0236592778,
				"z": 5.6199272893,
				"element": "H" 
			},
			{
				"x": 5.699566526,
				"y": -1.4597654604,
				"z": 5.8474260461,
				"element": "H" 
			},
			{
				"x": 6.691774496,
				"y": -2.7827476,
				"z": 6.4310603663,
				"element": "H" 
			},
			{
				"x": 6.4687586639,
				"y": -3.9429738377,
				"z": 4.2168207379,
				"element": "H" 
			},
			{
				"x": 7.2764737184,
				"y": -2.387415973,
				"z": 4.1275179654,
				"element": "H" 
			},
			{
				"x": 4.3493600728,
				"y": -2.8965223671,
				"z": 3.3642189883,
				"element": "H" 
			},
			{
				"x": 5.1309137523,
				"y": -1.3246310437,
				"z": 3.3405172004,
				"element": "H" 
			},
			{
				"x": 6.0135052589,
				"y": -3.7550466968,
				"z": 1.6880707189,
				"element": "H" 
			},
			{
				"x": 6.7897243816,
				"y": -2.1813513343,
				"z": 1.6538881684,
				"element": "H" 
			},
			{
				"x": 3.8773581269,
				"y": -2.7158934609,
				"z": 0.8645089658,
				"element": "H" 
			},
			{
				"x": 4.6578700927,
				"y": -1.1441553579,
				"z": 0.815103437,
				"element": "H" 
			},
			{
				"x": 6.3451437129,
				"y": -2.0458796743,
				"z": -0.8292467724,
				"element": "H" 
			},
			{
				"x": 5.5083117602,
				"y": -3.5877855287,
				"z": -0.8338305714,
				"element": "H" 
			},
			{
				"x": 4.2858198949,
				"y": -0.9144165995,
				"z": -1.7200308096,
				"element": "H" 
			},
			{
				"x": 4.9638010945,
				"y": -2.1196804613,
				"z": -2.7994328042,
				"element": "H" 
			},
			{
				"x": 3.2331846481,
				"y": -3.781354338,
				"z": -2.0212482175,
				"element": "H" 
			},
			{
				"x": 2.5214060885,
				"y": -2.5442389067,
				"z": -0.9995303216,
				"element": "H" 
			},
			{
				"x": 2.0574044583,
				"y": -1.130061334,
				"z": -3.0212397846,
				"element": "H" 
			},
			{
				"x": 2.8213459915,
				"y": -2.3296342161,
				"z": -4.0413155604,
				"element": "H" 
			},
			{
				"x": 1.100952993,
				"y": -4.0156313417,
				"z": -3.4489022507,
				"element": "H" 
			},
			{
				"x": 0.428955483,
				"y": -2.5995185866,
				"z": -4.2360115766,
				"element": "H" 
			},
			{
				"x": -0.9856868932,
				"y": -3.4389455242,
				"z": -2.3785908324,
				"element": "H" 
			},
			{
				"x": 0.3033243565,
				"y": -3.1782469507,
				"z": -1.2238080031,
				"element": "H" 
			},
			{
				"x": -1.0338257678,
				"y": -0.9686310175,
				"z": -2.879526648,
				"element": "H" 
			},
			{
				"x": 0.2163094476,
				"y": -0.7096738177,
				"z": -1.6749301065,
				"element": "H" 
			},
			{
				"x": -1.2882271917,
				"y": -1.627964297,
				"z": 0.1068401062,
				"element": "H" 
			},
			{
				"x": -2.5193489802,
				"y": -1.9618766769,
				"z": -1.0980266382,
				"element": "H" 
			},
			{
				"x": -2.7188922432,
				"y": 0.4852725118,
				"z": -1.5929472699,
				"element": "H" 
			},
			{
				"x": -3.1458764539,
				"y": 0.0601817233,
				"z": 0.0551319787,
				"element": "H" 
			},
			{
				"x": -0.4954063814,
				"y": 1.334216542,
				"z": -0.8143506336,
				"element": "H" 
			},
			{
				"x": -0.8322780037,
				"y": 0.759496027,
				"z": 0.8091034127,
				"element": "H" 
			},
			{
				"x": -1.1829800624,
				"y": 3.1440431541,
				"z": 0.7765093999,
				"element": "H" 
			},
			{
				"x": -2.7459636545,
				"y": 2.3754900178,
				"z": 0.9892345965,
				"element": "H" 
			},
			{
				"x": -3.2619289232,
				"y": 2.7420045669,
				"z": -1.4373273136,
				"element": "H" 
			},
			{
				"x": -1.6741028322,
				"y": 3.4503693682,
				"z": -1.6779070123,
				"element": "H" 
			},
			{
				"x": -3.8445040735,
				"y": 4.5742535238,
				"z": 0.1762909198,
				"element": "H" 
			},
			{
				"x": -2.2418405578,
				"y": 5.2523938381,
				"z": -0.0069573655,
				"element": "H" 
			},
			{
				"x": -3.762945412,
				"y": 6.5634660586,
				"z": -1.3487434451,
				"element": "H" 
			},
			{
				"x": -2.6461059935,
				"y": 5.721457018,
				"z": -2.4066987862,
				"element": "H" 
			},
			{
				"x": -4.4250050892,
				"y": 4.0375491073,
				"z": -2.9649952704,
				"element": "H" 
			},
			{
				"x": -4.8326506071,
				"y": 5.6814487971,
				"z": -3.4045886062,
				"element": "H" 
			},
			{
				"x": -5.8429977061,
				"y": 4.2416466184,
				"z": -0.8907371905,
				"element": "H" 
			},
			{
				"x": -6.2528522856,
				"y": 5.8835552822,
				"z": -1.3354569362,
				"element": "H" 
			},
			{
				"x": -8.0299982897,
				"y": 4.1991050332,
				"z": -1.890090515,
				"element": "H" 
			},
			{
				"x": -6.9124154374,
				"y": 3.3520392535,
				"z": -2.9443991309,
				"element": "H" 
			},
			{
				"x": -8.4379997105,
				"y": 4.6676065293,
				"z": -4.2835572801,
				"element": "H" 
			},
			{
				"x": -6.8303872701,
				"y": 5.3292836241,
				"z": -4.4778098246,
				"element": "H" 
			},
			{
				"x": -7.3997844704,
				"y": 7.2167346714,
				"z": -2.8985076634,
				"element": "H" 
			},
			{
				"x": -8.9991950734,
				"y": 6.5123361781,
				"z": -2.636566333,
				"element": "H" 
			},
			{
				"x": -8.5550558096,
				"y": 7.138876096,
				"z": -4.2299155245,
				"element": "H" 
			}
		],
		 "valence_orbital": [ 
			{
				"type": "occ",
				"energy": -0.29984,
				"method": "rhf"
			},
			{
				"type": "occ",
				"energy": -0.29912,
				"method": "rhf"
			},
			{
				"type": "occ",
				"energy": -0.2974,
				"method": "rhf"
			},
			{
				"type": "occ",
				"energy": -0.29333,
				"method": "rhf"
			},
			{
				"type": "occ",
				"energy": -0.29123,
				"method": "rhf"
			},
			{
				"type": "unocc",
				"energy": 0.07676,
				"method": "rhf"
			},
			{
				"type": "unocc",
				"energy": 0.08177,
				"method": "rhf"
			},
			{
				"type": "unocc",
				"energy": 0.09131,
				"method": "rhf"
			},
			{
				"type": "unocc",
				"energy": 0.09844,
				"method": "rhf"
			},
			{
				"type": "unocc",
				"energy": 0.10186,
				"method": "rhf"
			}
		],
		"cosmo_sigma_profile": { 
			"-0.025": 0.0,
			"-0.024": 0.0,
			"-0.023": 0.0,
			"-0.022": 0.0,
			"-0.021": 0.0,
			"-0.02": 0.0,
			"-0.019": 0.0,
			"-0.018": 0.0,
			"-0.017": 0.0,
			"-0.016": 0.0,
			"-0.015": 0.0,
			"-0.014": 0.0,
			"-0.013": 0.0,
			"-0.012": 0.0,
			"-0.011": 0.0,
			"-0.01": 0.0,
			"-0.009": 0.0,
			"-0.008": 0.0,
			"-0.007": 0.0,
			"-0.006": 0.0,
			"-0.005": 0.0,
			"-0.004": 0.0,
			"-0.003": 2.71071177813,
			"-0.002": 57.4943306509,
			"-0.001": 138.044059212,
			"0.0": 157.548242183,
			"0.001": 137.920818656,
			"0.002": 59.6711694285,
			"0.003": 1.80748193116,
			"0.004": 0.0,
			"0.005": 0.0,
			"0.006": 0.0,
			"0.007": 0.0,
			"0.008": 0.0,
			"0.009": 0.0,
			"0.01": 0.0,
			"0.011": 0.0,
			"0.012": 0.0,
			"0.013": 0.0,
			"0.014": 0.0,
			"0.015": 0.0,
			"0.016": 0.0,
			"0.017": 0.0,
			"0.018": 0.0,
			"0.019": 0.0,
			"0.02": 0.0,
			"0.021": 0.0,
			"0.022": 0.0,
			"0.023": 0.0,
			"0.024": 0.0,
			"0.025": 0.0
		}
	}
}
