{
	 "smiles": "CC1(C)OC(=O)CC1CC(O)=O", 
	 "Tm": 363.15, 
	 "num_atms": 24, 
	 "gaussian": { 
		 "optdone": 1, 
		 "sigma_profile": "yes", 
		 "theory": "DFT", 
		 "functional": "B3LYP", 
		 "basiset": "6-31G**", 
		 "properties": { 
			 "R2extent": 3576.3697, 
			 "electric_dipole_moment_norm": 4.95219554743, 
			 "electric_quadrupole_moment_norm": 15.0045260995, 
			 "total_energy": -613.015058889, 
			 "HOMO_LUMO_gap": 0.25848, 
			 "cosmo_polarized_energy": -17.41, 
			 "cosmo_cavitation_energy": 26.57, 
			 "cosmo_dispersion_energy": -18.75, 
			 "cosmo_repulsion_energy": 1.5, 
			 "cosmo_total_nonelectrostatic_energy": 9.31, 
			 "SMD_solvation_energy": 6.58 
		},
		"coords": [
			{
				"x": -0.5998185617,
				"y": 0.370031714,
				"z": -0.9921163988,
				"element": "C" 
			},
			{
				"x": 0.6463655136,
				"y": -0.5228435476,
				"z": -0.9471113459,
				"element": "C" 
			},
			{
				"x": 0.7284241623,
				"y": -1.2584564559,
				"z": 0.3867671333,
				"element": "C" 
			},
			{
				"x": 0.4965258362,
				"y": -1.5503728957,
				"z": -1.9778067517,
				"element": "O" 
			},
			{
				"x": 1.1263723708,
				"y": -1.201026802,
				"z": -3.1321600426,
				"element": "C" 
			},
			{
				"x": 1.075597985,
				"y": -1.871190317,
				"z": -4.1307753089,
				"element": "O" 
			},
			{
				"x": 1.8567634116,
				"y": 0.1198342008,
				"z": -2.9182570362,
				"element": "C" 
			},
			{
				"x": 1.9202551844,
				"y": 0.2736725147,
				"z": -1.3888221589,
				"element": "C" 
			},
			{
				"x": 3.2597982693,
				"y": -0.2681170575,
				"z": -0.8537569778,
				"element": "C" 
			},
			{
				"x": 3.5560099313,
				"y": -0.0466820291,
				"z": 0.615639228,
				"element": "C" 
			},
			{
				"x": 3.1130956248,
				"y": 1.1597043136,
				"z": 1.0567067096,
				"element": "O" 
			},
			{
				"x": 4.158354619,
				"y": -0.8151689511,
				"z": 1.3299273354,
				"element": "O" 
			},
			{
				"x": -0.6840863441,
				"y": 0.8993872934,
				"z": -1.9460683222,
				"element": "H" 
			},
			{
				"x": -1.4998794801,
				"y": -0.2370108723,
				"z": -0.862796008,
				"element": "H" 
			},
			{
				"x": -0.5637408623,
				"y": 1.1149647681,
				"z": -0.1910382594,
				"element": "H" 
			},
			{
				"x": -0.1906465753,
				"y": -1.8289053952,
				"z": 0.5466216495,
				"element": "H" 
			},
			{
				"x": 0.834411938,
				"y": -0.5452587215,
				"z": 1.2090163786,
				"element": "H" 
			},
			{
				"x": 1.5660631701,
				"y": -1.9583384452,
				"z": 0.4166891204,
				"element": "H" 
			},
			{
				"x": 2.8284685723,
				"y": 0.0967161084,
				"z": -3.4166155952,
				"element": "H" 
			},
			{
				"x": 1.2707439423,
				"y": 0.9149061415,
				"z": -3.3919114687,
				"element": "H" 
			},
			{
				"x": 1.8223619964,
				"y": 1.3167520464,
				"z": -1.07918663,
				"element": "H" 
			},
			{
				"x": 4.0682820753,
				"y": 0.2409161328,
				"z": -1.3957581958,
				"element": "H" 
			},
			{
				"x": 3.3799983319,
				"y": -1.336704406,
				"z": -1.0509485047,
				"element": "H" 
			},
			{
				"x": 3.3900788891,
				"y": 1.2218906625,
				"z": 1.9866614501,
				"element": "H" 
			}
		],
		 "valence_orbital": [ 
			{
				"type": "occ",
				"energy": -0.33786,
				"method": "rhf"
			},
			{
				"type": "occ",
				"energy": -0.32865,
				"method": "rhf"
			},
			{
				"type": "occ",
				"energy": -0.29225,
				"method": "rhf"
			},
			{
				"type": "occ",
				"energy": -0.28516,
				"method": "rhf"
			},
			{
				"type": "occ",
				"energy": -0.26385,
				"method": "rhf"
			},
			{
				"type": "unocc",
				"energy": -0.00537,
				"method": "rhf"
			},
			{
				"type": "unocc",
				"energy": 0.01178,
				"method": "rhf"
			},
			{
				"type": "unocc",
				"energy": 0.05446,
				"method": "rhf"
			},
			{
				"type": "unocc",
				"energy": 0.0785,
				"method": "rhf"
			},
			{
				"type": "unocc",
				"energy": 0.09994,
				"method": "rhf"
			}
		],
		"cosmo_sigma_profile": { 
			"-0.025": 0.0,
			"-0.024": 0.0,
			"-0.023": 0.0,
			"-0.022": 0.0,
			"-0.021": 0.0,
			"-0.02": 0.0,
			"-0.019": 0.0489948865289,
			"-0.018": 0.655511551352,
			"-0.017": 1.14717450063,
			"-0.016": 0.692871283731,
			"-0.015": 0.372706801492,
			"-0.014": 1.03548405927,
			"-0.013": 0.669836265997,
			"-0.012": 0.662141924046,
			"-0.011": 0.618029118761,
			"-0.01": 0.880686448603,
			"-0.009": 0.658197094602,
			"-0.008": 2.02569650085,
			"-0.007": 11.1993212144,
			"-0.006": 13.2370120205,
			"-0.005": 14.3011521429,
			"-0.004": 22.4628359771,
			"-0.003": 19.5571614217,
			"-0.002": 14.8406185356,
			"-0.001": 15.155761937,
			"0.0": 13.8087975408,
			"0.001": 7.49322476672,
			"0.002": 5.42960616149,
			"0.003": 4.42162842397,
			"0.004": 3.6383098012,
			"0.005": 4.99231577247,
			"0.006": 4.00439448332,
			"0.007": 3.93949350011,
			"0.008": 5.53341775122,
			"0.009": 5.18432157985,
			"0.01": 5.45252422096,
			"0.011": 8.47512011498,
			"0.012": 10.8624115145,
			"0.013": 3.4917289417,
			"0.014": 0.131427573623,
			"0.015": 0.0,
			"0.016": 0.0,
			"0.017": 0.0,
			"0.018": 0.0,
			"0.019": 0.0,
			"0.02": 0.0,
			"0.021": 0.0,
			"0.022": 0.0,
			"0.023": 0.0,
			"0.024": 0.0,
			"0.025": 0.0
		}
	}
}
