{
	 "smiles": "CC1(C)NC(=CC(=O)C2=CC=CC=C2)C(C)(C)N1O", 
	 "Tm": 454.15, 
	 "num_atms": 39, 
	 "gaussian": { 
		 "optdone": 1, 
		 "sigma_profile": "yes", 
		 "theory": "DFT", 
		 "functional": "B3LYP", 
		 "basiset": "6-31G**", 
		 "properties": { 
			 "R2extent": 5769.2097, 
			 "electric_dipole_moment_norm": 4.02872407097, 
			 "electric_quadrupole_moment_norm": 20.1746177887, 
			 "total_energy": -843.534067901, 
			 "HOMO_LUMO_gap": 0.16632, 
			 "cosmo_polarized_energy": -19.49, 
			 "cosmo_cavitation_energy": 39.6, 
			 "cosmo_dispersion_energy": -26.6, 
			 "cosmo_repulsion_energy": 2.04, 
			 "cosmo_total_nonelectrostatic_energy": 15.04, 
			 "SMD_solvation_energy": 6.31 
		},
		"coords": [
			{
				"x": -1.5984775395,
				"y": -2.0655021489,
				"z": -2.4038787829,
				"element": "C" 
			},
			{
				"x": -0.3600189754,
				"y": -1.6611801258,
				"z": -1.5995164982,
				"element": "C" 
			},
			{
				"x": -0.1327461378,
				"y": -2.6986962947,
				"z": -0.4830195784,
				"element": "C" 
			},
			{
				"x": -0.5056026274,
				"y": -0.2966331917,
				"z": -1.0496645638,
				"element": "N" 
			},
			{
				"x": 0.6910354892,
				"y": 0.3580650217,
				"z": -0.953684141,
				"element": "C" 
			},
			{
				"x": 1.0252556522,
				"y": 1.4747606255,
				"z": -0.2443208838,
				"element": "C" 
			},
			{
				"x": 0.2650294132,
				"y": 2.2243856266,
				"z": 0.7571756416,
				"element": "C" 
			},
			{
				"x": 0.8553348826,
				"y": 2.8848579521,
				"z": 1.6141056051,
				"element": "O" 
			},
			{
				"x": -1.2452450701,
				"y": 2.2316472314,
				"z": 0.7708047434,
				"element": "C" 
			},
			{
				"x": -1.9000116521,
				"y": 2.2897579512,
				"z": 2.0105068865,
				"element": "C" 
			},
			{
				"x": -3.2891309564,
				"y": 2.3706978226,
				"z": 2.0733956978,
				"element": "C" 
			},
			{
				"x": -4.0417702796,
				"y": 2.4289245506,
				"z": 0.8961800527,
				"element": "C" 
			},
			{
				"x": -3.3983822776,
				"y": 2.403673406,
				"z": -0.3424514292,
				"element": "C" 
			},
			{
				"x": -2.0068069801,
				"y": 2.29965367,
				"z": -0.4054673512,
				"element": "C" 
			},
			{
				"x": 1.6914675255,
				"y": -0.4196079439,
				"z": -1.8323780972,
				"element": "C" 
			},
			{
				"x": 2.8325206662,
				"y": -1.0391897133,
				"z": -0.999526987,
				"element": "C" 
			},
			{
				"x": 2.3240709132,
				"y": 0.4806181961,
				"z": -2.9068601433,
				"element": "C" 
			},
			{
				"x": 0.8669493566,
				"y": -1.5346735077,
				"z": -2.4365302112,
				"element": "N" 
			},
			{
				"x": 0.5109066524,
				"y": -1.2300055935,
				"z": -3.7855354867,
				"element": "O" 
			},
			{
				"x": -1.8871026334,
				"y": -1.3074426785,
				"z": -3.1322267964,
				"element": "H" 
			},
			{
				"x": -2.4381667468,
				"y": -2.2140270961,
				"z": -1.717694362,
				"element": "H" 
			},
			{
				"x": -1.4144458508,
				"y": -3.0027627701,
				"z": -2.9328406723,
				"element": "H" 
			},
			{
				"x": 0.6865214562,
				"y": -2.4181293815,
				"z": 0.1789456282,
				"element": "H" 
			},
			{
				"x": 0.0906043059,
				"y": -3.6752710201,
				"z": -0.9201813011,
				"element": "H" 
			},
			{
				"x": -1.0370156128,
				"y": -2.7886402883,
				"z": 0.1280234672,
				"element": "H" 
			},
			{
				"x": -1.2625845437,
				"y": -0.0723247565,
				"z": -0.4176114946,
				"element": "H" 
			},
			{
				"x": 2.0646107345,
				"y": 1.7842138847,
				"z": -0.2900772139,
				"element": "H" 
			},
			{
				"x": -1.297567942,
				"y": 2.2810287766,
				"z": 2.9130744531,
				"element": "H" 
			},
			{
				"x": -3.7871439374,
				"y": 2.4003552603,
				"z": 3.0384190367,
				"element": "H" 
			},
			{
				"x": -5.1244980212,
				"y": 2.5031533022,
				"z": 0.9452219392,
				"element": "H" 
			},
			{
				"x": -3.9778238986,
				"y": 2.4731920656,
				"z": -1.2588538801,
				"element": "H" 
			},
			{
				"x": -1.50458259,
				"y": 2.2918111404,
				"z": -1.3682417585,
				"element": "H" 
			},
			{
				"x": 3.4261295245,
				"y": -0.2508545431,
				"z": -0.5288558266,
				"element": "H" 
			},
			{
				"x": 2.4707553597,
				"y": -1.6979670902,
				"z": -0.2101341077,
				"element": "H" 
			},
			{
				"x": 3.4795326981,
				"y": -1.6238745583,
				"z": -1.6590947508,
				"element": "H" 
			},
			{
				"x": 2.9011966019,
				"y": -0.120570801,
				"z": -3.612516473,
				"element": "H" 
			},
			{
				"x": 1.5866261508,
				"y": 1.0591090339,
				"z": -3.467060704,
				"element": "H" 
			},
			{
				"x": 2.995201486,
				"y": 1.1925752612,
				"z": -2.42040606,
				"element": "H" 
			},
			{
				"x": 0.0027754039,
				"y": -0.3975272757,
				"z": -3.7743235966,
				"element": "H" 
			}
		],
		 "valence_orbital": [ 
			{
				"type": "occ",
				"energy": -0.25969,
				"method": "rhf"
			},
			{
				"type": "occ",
				"energy": -0.25639,
				"method": "rhf"
			},
			{
				"type": "occ",
				"energy": -0.25055,
				"method": "rhf"
			},
			{
				"type": "occ",
				"energy": -0.22823,
				"method": "rhf"
			},
			{
				"type": "occ",
				"energy": -0.21249,
				"method": "rhf"
			},
			{
				"type": "unocc",
				"energy": -0.04617,
				"method": "rhf"
			},
			{
				"type": "unocc",
				"energy": -0.00825,
				"method": "rhf"
			},
			{
				"type": "unocc",
				"energy": 0.00454,
				"method": "rhf"
			},
			{
				"type": "unocc",
				"energy": 0.0467,
				"method": "rhf"
			},
			{
				"type": "unocc",
				"energy": 0.07315,
				"method": "rhf"
			}
		],
		"cosmo_sigma_profile": { 
			"-0.025": 0.0,
			"-0.024": 0.0,
			"-0.023": 0.0,
			"-0.022": 0.0,
			"-0.021": 0.0,
			"-0.02": 0.0,
			"-0.019": 0.0,
			"-0.018": 0.0,
			"-0.017": 0.0,
			"-0.016": 0.0,
			"-0.015": 0.214491475344,
			"-0.014": 0.942440734708,
			"-0.013": 0.776434342701,
			"-0.012": 1.20427620177,
			"-0.011": 2.09158778723,
			"-0.01": 1.97061854996,
			"-0.009": 2.88443143014,
			"-0.008": 1.99038097361,
			"-0.007": 4.16461943556,
			"-0.006": 11.922722375,
			"-0.005": 21.5514719314,
			"-0.004": 30.0899579379,
			"-0.003": 28.2458871152,
			"-0.002": 27.3983618683,
			"-0.001": 31.7750971992,
			"0.0": 34.0315800025,
			"0.001": 18.2142195474,
			"0.002": 14.1672252026,
			"0.003": 12.333628231,
			"0.004": 13.2805799475,
			"0.005": 11.0828664927,
			"0.006": 4.30686114783,
			"0.007": 3.15757022769,
			"0.008": 3.99837018305,
			"0.009": 2.85352981773,
			"0.01": 3.86977618838,
			"0.011": 3.41474982835,
			"0.012": 4.58932941566,
			"0.013": 6.96026527778,
			"0.014": 5.23613387806,
			"0.015": 2.04874791186,
			"0.016": 0.0936766929151,
			"0.017": 0.0,
			"0.018": 0.0,
			"0.019": 0.0,
			"0.02": 0.0,
			"0.021": 0.0,
			"0.022": 0.0,
			"0.023": 0.0,
			"0.024": 0.0,
			"0.025": 0.0
		}
	}
}
