{
	 "smiles": "CCOC1=CC=C(NC(N)=S)C=C1", 
	 "Tm": 438.15, 
	 "num_atms": 25, 
	 "gaussian": { 
		 "optdone": 1, 
		 "sigma_profile": "yes", 
		 "theory": "DFT", 
		 "functional": "B3LYP", 
		 "basiset": "6-31G**", 
		 "properties": { 
			 "R2extent": 5395.0076, 
			 "electric_dipole_moment_norm": 6.93871091846, 
			 "electric_quadrupole_moment_norm": 37.5020104568, 
			 "total_energy": -933.116649775, 
			 "HOMO_LUMO_gap": 0.17664, 
			 "cosmo_polarized_energy": -18.56, 
			 "cosmo_cavitation_energy": 30.29, 
			 "cosmo_dispersion_energy": -22.69, 
			 "cosmo_repulsion_energy": 1.78, 
			 "cosmo_total_nonelectrostatic_energy": 9.39, 
			 "SMD_solvation_energy": 4.71 
		},
		"coords": [
			{
				"x": -1.589577427,
				"y": -2.2966675027,
				"z": -2.6939988219,
				"element": "C" 
			},
			{
				"x": -2.2442932115,
				"y": -1.827691937,
				"z": -1.3989307789,
				"element": "C" 
			},
			{
				"x": -1.2871395643,
				"y": -1.4878020803,
				"z": -0.3904296715,
				"element": "O" 
			},
			{
				"x": -0.6634759561,
				"y": -0.2764196806,
				"z": -0.420871358,
				"element": "C" 
			},
			{
				"x": 0.2934625773,
				"y": -0.0661590791,
				"z": 0.5845392299,
				"element": "C" 
			},
			{
				"x": 0.9897615358,
				"y": 1.1330264047,
				"z": 0.6625928265,
				"element": "C" 
			},
			{
				"x": 0.722780399,
				"y": 2.1700366785,
				"z": -0.247747535,
				"element": "C" 
			},
			{
				"x": 1.4370780855,
				"y": 3.3986977048,
				"z": -0.2145839739,
				"element": "N" 
			},
			{
				"x": 1.6657275037,
				"y": 4.2285660877,
				"z": 0.8472623167,
				"element": "C" 
			},
			{
				"x": 1.1432819395,
				"y": 3.8496230472,
				"z": 2.0441192232,
				"element": "N" 
			},
			{
				"x": 2.569640812,
				"y": 5.6367365812,
				"z": 0.6663847854,
				"element": "S" 
			},
			{
				"x": -0.2300312047,
				"y": 1.9572140656,
				"z": -1.2483949758,
				"element": "C" 
			},
			{
				"x": -0.9118478839,
				"y": 0.7436371091,
				"z": -1.3494279672,
				"element": "C" 
			},
			{
				"x": -0.9933671298,
				"y": -1.5065030017,
				"z": -3.1583214704,
				"element": "H" 
			},
			{
				"x": -2.3575766785,
				"y": -2.6099729197,
				"z": -3.4090009232,
				"element": "H" 
			},
			{
				"x": -0.9326632957,
				"y": -3.1488098465,
				"z": -2.4984884266,
				"element": "H" 
			},
			{
				"x": -2.8279840714,
				"y": -2.6382458295,
				"z": -0.954110138,
				"element": "H" 
			},
			{
				"x": -2.9296217532,
				"y": -0.9880891613,
				"z": -1.5711767023,
				"element": "H" 
			},
			{
				"x": 0.4894495144,
				"y": -0.8706812348,
				"z": 1.2856030734,
				"element": "H" 
			},
			{
				"x": 1.7552266329,
				"y": 1.265476015,
				"z": 1.4199920747,
				"element": "H" 
			},
			{
				"x": 1.7823729169,
				"y": 3.7719116839,
				"z": -1.0878090481,
				"element": "H" 
			},
			{
				"x": 0.4061502341,
				"y": 3.1594770686,
				"z": 2.0883794221,
				"element": "H" 
			},
			{
				"x": 1.1990446472,
				"y": 4.5349957633,
				"z": 2.7805611439,
				"element": "H" 
			},
			{
				"x": -0.4425392539,
				"y": 2.7509971689,
				"z": -1.9590470368,
				"element": "H" 
			},
			{
				"x": -1.6351593683,
				"y": 0.6145468948,
				"z": -2.1452952681,
				"element": "H" 
			}
		],
		 "valence_orbital": [ 
			{
				"type": "occ",
				"energy": -0.28329,
				"method": "rhf"
			},
			{
				"type": "occ",
				"energy": -0.26914,
				"method": "rhf"
			},
			{
				"type": "occ",
				"energy": -0.23016,
				"method": "rhf"
			},
			{
				"type": "occ",
				"energy": -0.20167,
				"method": "rhf"
			},
			{
				"type": "occ",
				"energy": -0.19922,
				"method": "rhf"
			},
			{
				"type": "unocc",
				"energy": -0.02258,
				"method": "rhf"
			},
			{
				"type": "unocc",
				"energy": -0.01773,
				"method": "rhf"
			},
			{
				"type": "unocc",
				"energy": 0.02153,
				"method": "rhf"
			},
			{
				"type": "unocc",
				"energy": 0.0732,
				"method": "rhf"
			},
			{
				"type": "unocc",
				"energy": 0.07962,
				"method": "rhf"
			}
		],
		"cosmo_sigma_profile": { 
			"-0.025": 0.0,
			"-0.024": 0.0,
			"-0.023": 0.0,
			"-0.022": 0.0,
			"-0.021": 0.0,
			"-0.02": 0.0,
			"-0.019": 0.0,
			"-0.018": 0.0,
			"-0.017": 0.0,
			"-0.016": 0.0,
			"-0.015": 0.225713874794,
			"-0.014": 2.07848108494,
			"-0.013": 2.92177051307,
			"-0.012": 2.58760843731,
			"-0.011": 3.32585177113,
			"-0.01": 3.53901151396,
			"-0.009": 2.55547955626,
			"-0.008": 2.65635529748,
			"-0.007": 6.97881386788,
			"-0.006": 11.5688707316,
			"-0.005": 14.0899033802,
			"-0.004": 18.1181718172,
			"-0.003": 20.4306575658,
			"-0.002": 17.2170951708,
			"-0.001": 13.6172073584,
			"0.0": 15.8312514725,
			"0.001": 15.0557164005,
			"0.002": 12.2831940238,
			"0.003": 12.778626841,
			"0.004": 13.777952033,
			"0.005": 9.07127059102,
			"0.006": 4.52142836566,
			"0.007": 4.47556228205,
			"0.008": 4.62829657655,
			"0.009": 5.12959318695,
			"0.01": 5.55367133124,
			"0.011": 7.81335449627,
			"0.012": 7.21575136283,
			"0.013": 2.69941163699,
			"0.014": 0.0,
			"0.015": 0.0,
			"0.016": 0.0,
			"0.017": 0.0,
			"0.018": 0.0,
			"0.019": 0.0,
			"0.02": 0.0,
			"0.021": 0.0,
			"0.022": 0.0,
			"0.023": 0.0,
			"0.024": 0.0,
			"0.025": 0.0
		}
	}
}
