{
	 "smiles": "OC1=CC2=C(NC(=O)CC2)C=C1", 
	 "Tm": 513.15, 
	 "num_atms": 21, 
	 "gaussian": { 
		 "optdone": 1, 
		 "sigma_profile": "yes", 
		 "theory": "DFT", 
		 "functional": "B3LYP", 
		 "basiset": "6-31G**", 
		 "properties": { 
			 "R2extent": 2349.2107, 
			 "electric_dipole_moment_norm": 3.34181583275, 
			 "electric_quadrupole_moment_norm": 16.1274406956, 
			 "total_energy": -553.604953391, 
			 "HOMO_LUMO_gap": 0.18969, 
			 "cosmo_polarized_energy": -15.65, 
			 "cosmo_cavitation_energy": 24.44, 
			 "cosmo_dispersion_energy": -18.5, 
			 "cosmo_repulsion_energy": 1.47, 
			 "cosmo_total_nonelectrostatic_energy": 7.41, 
			 "SMD_solvation_energy": 4.7 
		},
		"coords": [
			{
				"x": 2.7784713678,
				"y": -0.7725768698,
				"z": -3.3319946328,
				"element": "O" 
			},
			{
				"x": 1.940107003,
				"y": -0.5098447234,
				"z": -2.2823234785,
				"element": "C" 
			},
			{
				"x": 0.7340333535,
				"y": -1.1907864429,
				"z": -2.0872045913,
				"element": "C" 
			},
			{
				"x": -0.0899333373,
				"y": -0.8945741665,
				"z": -1.0006882796,
				"element": "C" 
			},
			{
				"x": 0.2969932805,
				"y": 0.1176941452,
				"z": -0.107169469,
				"element": "C" 
			},
			{
				"x": -0.5376213781,
				"y": 0.4188543757,
				"z": 0.988752852,
				"element": "N" 
			},
			{
				"x": -1.8687567933,
				"y": 0.0766315071,
				"z": 1.1027685395,
				"element": "C" 
			},
			{
				"x": -2.5368181471,
				"y": 0.4108387709,
				"z": 2.0691834412,
				"element": "O" 
			},
			{
				"x": -2.4185472089,
				"y": -0.7057074914,
				"z": -0.0830293938,
				"element": "C" 
			},
			{
				"x": -1.3725932379,
				"y": -1.6394697366,
				"z": -0.7105576001,
				"element": "C" 
			},
			{
				"x": 1.501981857,
				"y": 0.8006336163,
				"z": -0.3031861005,
				"element": "C" 
			},
			{
				"x": 2.3251533783,
				"y": 0.4865305499,
				"z": -1.3804888486,
				"element": "C" 
			},
			{
				"x": 2.3995035563,
				"y": -1.4786575366,
				"z": -3.870823152,
				"element": "H" 
			},
			{
				"x": 0.4320164405,
				"y": -1.9701710952,
				"z": -2.7852542703,
				"element": "H" 
			},
			{
				"x": -0.1838652584,
				"y": 1.0086733008,
				"z": 1.7308635258,
				"element": "H" 
			},
			{
				"x": -3.3016045875,
				"y": -1.2469530962,
				"z": 0.2621649653,
				"element": "H" 
			},
			{
				"x": -2.7552564263,
				"y": 0.0302076944,
				"z": -0.826151143,
				"element": "H" 
			},
			{
				"x": -1.1617986772,
				"y": -2.4621508361,
				"z": -0.011526819,
				"element": "H" 
			},
			{
				"x": -1.7685358884,
				"y": -2.0999885519,
				"z": -1.6213538474,
				"element": "H" 
			},
			{
				"x": 1.7957192383,
				"y": 1.5854430906,
				"z": 0.3890506719,
				"element": "H" 
			},
			{
				"x": 3.2612514653,
				"y": 1.0102734957,
				"z": -1.5408323698,
				"element": "H" 
			}
		],
		 "valence_orbital": [ 
			{
				"type": "occ",
				"energy": -0.33383,
				"method": "rhf"
			},
			{
				"type": "occ",
				"energy": -0.28537,
				"method": "rhf"
			},
			{
				"type": "occ",
				"energy": -0.25539,
				"method": "rhf"
			},
			{
				"type": "occ",
				"energy": -0.24876,
				"method": "rhf"
			},
			{
				"type": "occ",
				"energy": -0.20244,
				"method": "rhf"
			},
			{
				"type": "unocc",
				"energy": -0.01275,
				"method": "rhf"
			},
			{
				"type": "unocc",
				"energy": -0.00209,
				"method": "rhf"
			},
			{
				"type": "unocc",
				"energy": 0.04273,
				"method": "rhf"
			},
			{
				"type": "unocc",
				"energy": 0.06535,
				"method": "rhf"
			},
			{
				"type": "unocc",
				"energy": 0.08934,
				"method": "rhf"
			}
		],
		"cosmo_sigma_profile": { 
			"-0.025": 0.0,
			"-0.024": 0.0,
			"-0.023": 0.0,
			"-0.022": 0.0,
			"-0.021": 0.0,
			"-0.02": 0.0,
			"-0.019": 0.0,
			"-0.018": 0.130197421406,
			"-0.017": 0.921136742975,
			"-0.016": 1.4810272468,
			"-0.015": 0.974090496631,
			"-0.014": 1.92800066661,
			"-0.013": 2.39822107761,
			"-0.012": 2.14808075886,
			"-0.011": 2.203882723,
			"-0.01": 1.72177708714,
			"-0.009": 2.57778036488,
			"-0.008": 2.25338280198,
			"-0.007": 2.69745831628,
			"-0.006": 7.44313546735,
			"-0.005": 14.4991330784,
			"-0.004": 17.0931587049,
			"-0.003": 15.2783242672,
			"-0.002": 14.4048541126,
			"-0.001": 9.9993489375,
			"0.0": 7.73699073378,
			"0.001": 8.58205611272,
			"0.002": 10.4800217493,
			"0.003": 9.1967675623,
			"0.004": 12.3510605917,
			"0.005": 12.2767831236,
			"0.006": 4.78187972795,
			"0.007": 2.4615228102,
			"0.008": 3.10672538908,
			"0.009": 2.49190646756,
			"0.01": 2.28560267995,
			"0.011": 3.84100379955,
			"0.012": 3.27781372161,
			"0.013": 4.78775662556,
			"0.014": 4.77299036024,
			"0.015": 0.887984294826,
			"0.016": 0.0,
			"0.017": 0.0,
			"0.018": 0.0,
			"0.019": 0.0,
			"0.02": 0.0,
			"0.021": 0.0,
			"0.022": 0.0,
			"0.023": 0.0,
			"0.024": 0.0,
			"0.025": 0.0
		}
	}
}
