{
	 "smiles": "NC(=O)COC1=CC=CC=C1", 
	 "Tm": 375.15, 
	 "num_atms": 20, 
	 "gaussian": { 
		 "optdone": 1, 
		 "sigma_profile": "yes", 
		 "theory": "DFT", 
		 "functional": "B3LYP", 
		 "basiset": "6-31G**", 
		 "properties": { 
			 "R2extent": 2138.6872, 
			 "electric_dipole_moment_norm": 2.69319663411, 
			 "electric_quadrupole_moment_norm": 10.9670462806, 
			 "total_energy": -515.478630784, 
			 "HOMO_LUMO_gap": 0.21822, 
			 "cosmo_polarized_energy": -12.4, 
			 "cosmo_cavitation_energy": 24.03, 
			 "cosmo_dispersion_energy": -17.63, 
			 "cosmo_repulsion_energy": 1.45, 
			 "cosmo_total_nonelectrostatic_energy": 7.84, 
			 "SMD_solvation_energy": 5.15 
		},
		"coords": [
			{
				"x": -1.5141615921,
				"y": 0.7063621258,
				"z": -2.0548600083,
				"element": "N" 
			},
			{
				"x": -0.259563368,
				"y": 0.730213092,
				"z": -2.5764192243,
				"element": "C" 
			},
			{
				"x": 0.0985270976,
				"y": 0.0941128914,
				"z": -3.5564795503,
				"element": "O" 
			},
			{
				"x": 0.7022236786,
				"y": 1.6994677552,
				"z": -1.8751698811,
				"element": "C" 
			},
			{
				"x": 0.3436237379,
				"y": 2.0229265668,
				"z": -0.536949236,
				"element": "O" 
			},
			{
				"x": 0.678826044,
				"y": 1.137100869,
				"z": 0.4640801023,
				"element": "C" 
			},
			{
				"x": 1.1757083949,
				"y": -0.1524228518,
				"z": 0.2466092674,
				"element": "C" 
			},
			{
				"x": 1.4741011154,
				"y": -0.9623895268,
				"z": 1.3473077705,
				"element": "C" 
			},
			{
				"x": 1.2791616862,
				"y": -0.5047851271,
				"z": 2.6488439269,
				"element": "C" 
			},
			{
				"x": 0.7766700654,
				"y": 0.7845193461,
				"z": 2.8527325737,
				"element": "C" 
			},
			{
				"x": 0.4780243628,
				"y": 1.6048234209,
				"z": 1.7693052334,
				"element": "C" 
			},
			{
				"x": -2.1876108969,
				"y": 0.0656253015,
				"z": -2.4453301119,
				"element": "H" 
			},
			{
				"x": -1.7203879979,
				"y": 1.192992908,
				"z": -1.1965638777,
				"element": "H" 
			},
			{
				"x": 1.7139064812,
				"y": 1.2890042745,
				"z": -1.944262094,
				"element": "H" 
			},
			{
				"x": 0.6822152401,
				"y": 2.6473777475,
				"z": -2.4222555061,
				"element": "H" 
			},
			{
				"x": 1.3217621719,
				"y": -0.5386704029,
				"z": -0.7556275436,
				"element": "H" 
			},
			{
				"x": 1.8591072579,
				"y": -1.9631958018,
				"z": 1.1738279777,
				"element": "H" 
			},
			{
				"x": 1.5136450672,
				"y": -1.1425213305,
				"z": 3.4953812335,
				"element": "H" 
			},
			{
				"x": 0.6209066722,
				"y": 1.1559737793,
				"z": 3.8615818201,
				"element": "H" 
			},
			{
				"x": 0.0958147816,
				"y": 2.611084963,
				"z": 1.9079471277,
				"element": "H" 
			}
		],
		 "valence_orbital": [ 
			{
				"type": "occ",
				"energy": -0.3348,
				"method": "rhf"
			},
			{
				"type": "occ",
				"energy": -0.27212,
				"method": "rhf"
			},
			{
				"type": "occ",
				"energy": -0.2554,
				"method": "rhf"
			},
			{
				"type": "occ",
				"energy": -0.25503,
				"method": "rhf"
			},
			{
				"type": "occ",
				"energy": -0.22556,
				"method": "rhf"
			},
			{
				"type": "unocc",
				"energy": -0.00734,
				"method": "rhf"
			},
			{
				"type": "unocc",
				"energy": 0.00644,
				"method": "rhf"
			},
			{
				"type": "unocc",
				"energy": 0.02302,
				"method": "rhf"
			},
			{
				"type": "unocc",
				"energy": 0.08135,
				"method": "rhf"
			},
			{
				"type": "unocc",
				"energy": 0.08722,
				"method": "rhf"
			}
		],
		"cosmo_sigma_profile": { 
			"-0.025": 0.0,
			"-0.024": 0.0,
			"-0.023": 0.0,
			"-0.022": 0.0,
			"-0.021": 0.0,
			"-0.02": 0.0,
			"-0.019": 0.0,
			"-0.018": 0.0,
			"-0.017": 0.0,
			"-0.016": 0.0,
			"-0.015": 0.11801985524,
			"-0.014": 1.177689168,
			"-0.013": 1.88264251413,
			"-0.012": 2.04790575306,
			"-0.011": 1.49668580269,
			"-0.01": 2.53482742729,
			"-0.009": 1.77622794662,
			"-0.008": 3.43351783946,
			"-0.007": 5.01237352531,
			"-0.006": 11.7075996053,
			"-0.005": 14.9207638277,
			"-0.004": 15.0566017772,
			"-0.003": 14.5020576095,
			"-0.002": 10.205122662,
			"-0.001": 8.94954090074,
			"0.0": 10.656733717,
			"0.001": 9.40317676307,
			"0.002": 11.6487064137,
			"0.003": 11.2590455361,
			"0.004": 12.3282793891,
			"0.005": 12.0749038933,
			"0.006": 7.96303294798,
			"0.007": 1.5597372468,
			"0.008": 2.1526046904,
			"0.009": 1.95980871783,
			"0.01": 1.87327267318,
			"0.011": 1.40150975318,
			"0.012": 1.48119263435,
			"0.013": 4.89326705591,
			"0.014": 4.74771680013,
			"0.015": 0.799223478751,
			"0.016": 0.0,
			"0.017": 0.0,
			"0.018": 0.0,
			"0.019": 0.0,
			"0.02": 0.0,
			"0.021": 0.0,
			"0.022": 0.0,
			"0.023": 0.0,
			"0.024": 0.0,
			"0.025": 0.0
		}
	}
}
