{
	 "smiles": "NC1=NC2=C(S1)C=C1OC(F)(F)OC1=C2", 
	 "Tm": 465.15, 
	 "num_atms": 19, 
	 "gaussian": { 
		 "optdone": 1, 
		 "sigma_profile": "yes", 
		 "theory": "DFT", 
		 "functional": "B3LYP", 
		 "basiset": "6-31G**", 
		 "properties": { 
			 "R2extent": 6255.8309, 
			 "electric_dipole_moment_norm": 4.78295396382, 
			 "electric_quadrupole_moment_norm": 6.44369299703, 
			 "total_energy": -1165.08182194, 
			 "HOMO_LUMO_gap": 0.18861, 
			 "cosmo_polarized_energy": -11.21, 
			 "cosmo_cavitation_energy": 26.78, 
			 "cosmo_dispersion_energy": -20.76, 
			 "cosmo_repulsion_energy": 1.51, 
			 "cosmo_total_nonelectrostatic_energy": 7.54, 
			 "SMD_solvation_energy": 3.5 
		},
		"coords": [
			{
				"x": -2.2397795532,
				"y": -0.3929866086,
				"z": 1.1088900129,
				"element": "N" 
			},
			{
				"x": -0.9930416166,
				"y": -0.2122224179,
				"z": 0.5714631883,
				"element": "C" 
			},
			{
				"x": -0.7664230855,
				"y": 0.3799512045,
				"z": -0.5582527937,
				"element": "N" 
			},
			{
				"x": 0.5816363792,
				"y": 0.3450310644,
				"z": -0.873979322,
				"element": "C" 
			},
			{
				"x": 1.4203219767,
				"y": -0.298666147,
				"z": 0.0744546407,
				"element": "C" 
			},
			{
				"x": 0.433703196,
				"y": -0.8976173227,
				"z": 1.4037389142,
				"element": "S" 
			},
			{
				"x": 2.8100744799,
				"y": -0.4089444061,
				"z": -0.0813005801,
				"element": "C" 
			},
			{
				"x": 3.3035259026,
				"y": 0.1570429507,
				"z": -1.2379758984,
				"element": "C" 
			},
			{
				"x": 4.6159383822,
				"y": 0.2099497882,
				"z": -1.6754086268,
				"element": "O" 
			},
			{
				"x": 4.602103509,
				"y": 0.8817811768,
				"z": -2.8937577052,
				"element": "C" 
			},
			{
				"x": 5.113785896,
				"y": 0.0991329401,
				"z": -3.8588191434,
				"element": "F" 
			},
			{
				"x": 5.3815002065,
				"y": 1.9745887329,
				"z": -2.8275393686,
				"element": "F" 
			},
			{
				"x": 3.2971551101,
				"y": 1.2428986253,
				"z": -3.2114935177,
				"element": "O" 
			},
			{
				"x": 2.4943717153,
				"y": 0.7898677835,
				"z": -2.1790150478,
				"element": "C" 
			},
			{
				"x": 1.1298829704,
				"y": 0.9107153915,
				"z": -2.0438451201,
				"element": "C" 
			},
			{
				"x": -2.3143001241,
				"y": -0.4742455231,
				"z": 2.1120644932,
				"element": "H" 
			},
			{
				"x": -2.957942905,
				"y": 0.1690843898,
				"z": 0.6718757303,
				"element": "H" 
			},
			{
				"x": 3.4528164489,
				"y": -0.898322773,
				"z": 0.6402524794,
				"element": "H" 
			},
			{
				"x": 0.5039711116,
				"y": 1.4039611509,
				"z": -2.7766523352,
				"element": "H" 
			}
		],
		 "valence_orbital": [ 
			{
				"type": "occ",
				"energy": -0.30781,
				"method": "rhf"
			},
			{
				"type": "occ",
				"energy": -0.29036,
				"method": "rhf"
			},
			{
				"type": "occ",
				"energy": -0.28575,
				"method": "rhf"
			},
			{
				"type": "occ",
				"energy": -0.24138,
				"method": "rhf"
			},
			{
				"type": "occ",
				"energy": -0.21323,
				"method": "rhf"
			},
			{
				"type": "unocc",
				"energy": -0.02462,
				"method": "rhf"
			},
			{
				"type": "unocc",
				"energy": -0.01235,
				"method": "rhf"
			},
			{
				"type": "unocc",
				"energy": -0.00815,
				"method": "rhf"
			},
			{
				"type": "unocc",
				"energy": 0.04095,
				"method": "rhf"
			},
			{
				"type": "unocc",
				"energy": 0.05829,
				"method": "rhf"
			}
		],
		"cosmo_sigma_profile": { 
			"-0.025": 0.0,
			"-0.024": 0.0,
			"-0.023": 0.0,
			"-0.022": 0.0,
			"-0.021": 0.0,
			"-0.02": 0.0,
			"-0.019": 0.0,
			"-0.018": 0.0,
			"-0.017": 0.0,
			"-0.016": 0.0743262919749,
			"-0.015": 1.41439186576,
			"-0.014": 2.27730863469,
			"-0.013": 2.59723603474,
			"-0.012": 2.70777545617,
			"-0.011": 2.67199346972,
			"-0.01": 2.27276221017,
			"-0.009": 3.78547556957,
			"-0.008": 6.1786924415,
			"-0.007": 5.05543754311,
			"-0.006": 5.12465150509,
			"-0.005": 4.97443888954,
			"-0.004": 6.67806918228,
			"-0.003": 6.4228724165,
			"-0.002": 9.95859922873,
			"-0.001": 12.1864706894,
			"0.0": 17.5951522154,
			"0.001": 23.8064312858,
			"0.002": 40.873262891,
			"0.003": 26.271380923,
			"0.004": 9.22988953769,
			"0.005": 7.04334867968,
			"0.006": 6.29400516202,
			"0.007": 4.42760180142,
			"0.008": 0.901132127265,
			"0.009": 1.97114007191,
			"0.01": 1.5060425412,
			"0.011": 1.25825575243,
			"0.012": 0.7260052285,
			"0.013": 0.724088422684,
			"0.014": 1.08410282384,
			"0.015": 0.37667777619,
			"0.016": 0.0,
			"0.017": 0.0,
			"0.018": 0.0,
			"0.019": 0.0,
			"0.02": 0.0,
			"0.021": 0.0,
			"0.022": 0.0,
			"0.023": 0.0,
			"0.024": 0.0,
			"0.025": 0.0
		}
	}
}
