{
	 "smiles": "CCCCC(C)CC(O)C=CC1C(O)CC(=O)C1CCCCC=CC(O)=O", 
	 "Tm": 370.15, 
	 "num_atms": 63, 
	 "gaussian": { 
		 "optdone": 1, 
		 "sigma_profile": "yes", 
		 "theory": "DFT", 
		 "functional": "B3LYP", 
		 "basiset": "6-31G**", 
		 "properties": { 
			 "R2extent": 14957.3751, 
			 "electric_dipole_moment_norm": 5.05790623183, 
			 "electric_quadrupole_moment_norm": 37.6497921618, 
			 "total_energy": -1236.12692723, 
			 "HOMO_LUMO_gap": 0.20412, 
			 "cosmo_polarized_energy": -27.54, 
			 "cosmo_cavitation_energy": 61.44, 
			 "cosmo_dispersion_energy": -38.5, 
			 "cosmo_repulsion_energy": 3.0, 
			 "cosmo_total_nonelectrostatic_energy": 25.94, 
			 "SMD_solvation_energy": 10.69 
		},
		"coords": [
			{
				"x": -0.2845927875,
				"y": -6.5421201557,
				"z": -2.9859742173,
				"element": "C" 
			},
			{
				"x": -0.0388901006,
				"y": -5.0713344616,
				"z": -2.6348754285,
				"element": "C" 
			},
			{
				"x": -1.2104381803,
				"y": -4.4331890926,
				"z": -1.8716500935,
				"element": "C" 
			},
			{
				"x": -1.013101904,
				"y": -2.9474185987,
				"z": -1.4917660935,
				"element": "C" 
			},
			{
				"x": -1.6666996106,
				"y": -1.9292876911,
				"z": -2.4523805235,
				"element": "C" 
			},
			{
				"x": -1.1111986522,
				"y": -1.9946718427,
				"z": -3.8842462632,
				"element": "C" 
			},
			{
				"x": -1.6585066348,
				"y": -0.4824713282,
				"z": -1.8979569558,
				"element": "C" 
			},
			{
				"x": -0.3193289019,
				"y": 0.2742092823,
				"z": -1.8752660487,
				"element": "C" 
			},
			{
				"x": 0.5348417266,
				"y": -0.3544809163,
				"z": -0.9034310784,
				"element": "O" 
			},
			{
				"x": -0.5051213216,
				"y": 1.7647759142,
				"z": -1.632409488,
				"element": "C" 
			},
			{
				"x": -0.7550489507,
				"y": 2.4071810146,
				"z": -0.4829457472,
				"element": "C" 
			},
			{
				"x": -0.9626592353,
				"y": 1.8202457117,
				"z": 0.8894766623,
				"element": "C" 
			},
			{
				"x": -2.4236053124,
				"y": 2.0957253393,
				"z": 1.3953858076,
				"element": "C" 
			},
			{
				"x": -3.4346281431,
				"y": 1.9941747758,
				"z": 0.4123755603,
				"element": "O" 
			},
			{
				"x": -2.3897639915,
				"y": 3.5269613867,
				"z": 1.9415871497,
				"element": "C" 
			},
			{
				"x": -0.9395595467,
				"y": 3.761527715,
				"z": 2.3610945131,
				"element": "C" 
			},
			{
				"x": -0.503962102,
				"y": 4.7594615499,
				"z": 2.8935766221,
				"element": "O" 
			},
			{
				"x": -0.1171701066,
				"y": 2.5177422858,
				"z": 1.9953324257,
				"element": "C" 
			},
			{
				"x": 1.3629884645,
				"y": 2.8012926916,
				"z": 1.7258623927,
				"element": "C" 
			},
			{
				"x": 2.241249417,
				"y": 1.5412427432,
				"z": 1.6529567871,
				"element": "C" 
			},
			{
				"x": 2.4928238301,
				"y": 0.8541774242,
				"z": 3.0040917745,
				"element": "C" 
			},
			{
				"x": 3.2127955106,
				"y": -0.5108950773,
				"z": 2.8817606083,
				"element": "C" 
			},
			{
				"x": 2.3410063938,
				"y": -1.6018436832,
				"z": 2.3139383794,
				"element": "C" 
			},
			{
				"x": 1.9898373489,
				"y": -2.7708235559,
				"z": 2.8744520368,
				"element": "C" 
			},
			{
				"x": 2.3968734662,
				"y": -3.3188391495,
				"z": 4.2031067161,
				"element": "C" 
			},
			{
				"x": 2.4465332993,
				"y": -2.4502555363,
				"z": 5.2552494493,
				"element": "O" 
			},
			{
				"x": 2.6595841627,
				"y": -4.4851257563,
				"z": 4.3721168636,
				"element": "O" 
			},
			{
				"x": 0.5716830987,
				"y": -6.9778940608,
				"z": -3.5111568349,
				"element": "H" 
			},
			{
				"x": -1.1629984381,
				"y": -6.654642484,
				"z": -3.6321090523,
				"element": "H" 
			},
			{
				"x": -0.4610665049,
				"y": -7.140415039,
				"z": -2.0846678386,
				"element": "H" 
			},
			{
				"x": 0.8682255534,
				"y": -4.9885888788,
				"z": -2.0209616841,
				"element": "H" 
			},
			{
				"x": 0.1674985141,
				"y": -4.5073270494,
				"z": -3.552498135,
				"element": "H" 
			},
			{
				"x": -1.370127618,
				"y": -5.017984791,
				"z": -0.9562368143,
				"element": "H" 
			},
			{
				"x": -2.1348297037,
				"y": -4.5487869964,
				"z": -2.4565719075,
				"element": "H" 
			},
			{
				"x": 0.0547893911,
				"y": -2.7238162968,
				"z": -1.3940176361,
				"element": "H" 
			},
			{
				"x": -1.4403436788,
				"y": -2.7750112379,
				"z": -0.4955845729,
				"element": "H" 
			},
			{
				"x": -2.7320071901,
				"y": -2.2004747145,
				"z": -2.5134758167,
				"element": "H" 
			},
			{
				"x": -1.5630724093,
				"y": -1.2245007444,
				"z": -4.5204362008,
				"element": "H" 
			},
			{
				"x": -0.0246981487,
				"y": -1.8545105317,
				"z": -3.9066356425,
				"element": "H" 
			},
			{
				"x": -1.3239523482,
				"y": -2.9627711612,
				"z": -4.3459975626,
				"element": "H" 
			},
			{
				"x": -2.351188317,
				"y": 0.1191666064,
				"z": -2.4998445343,
				"element": "H" 
			},
			{
				"x": -2.0551731334,
				"y": -0.4881663608,
				"z": -0.8732370217,
				"element": "H" 
			},
			{
				"x": 0.1447767318,
				"y": 0.169404852,
				"z": -2.8667668621,
				"element": "H" 
			},
			{
				"x": 1.3958709283,
				"y": 0.0794699758,
				"z": -0.9647174622,
				"element": "H" 
			},
			{
				"x": -0.4483588378,
				"y": 2.3715434588,
				"z": -2.5359046045,
				"element": "H" 
			},
			{
				"x": -0.8626642494,
				"y": 3.4907076294,
				"z": -0.5496048368,
				"element": "H" 
			},
			{
				"x": -0.7621888487,
				"y": 0.7476355797,
				"z": 0.8596263376,
				"element": "H" 
			},
			{
				"x": -2.6185893671,
				"y": 1.3943078488,
				"z": 2.2239497098,
				"element": "H" 
			},
			{
				"x": -3.3727866524,
				"y": 1.1229300177,
				"z": -0.0010761688,
				"element": "H" 
			},
			{
				"x": -3.0814936246,
				"y": 3.716355691,
				"z": 2.7668373227,
				"element": "H" 
			},
			{
				"x": -2.6464587887,
				"y": 4.2308632691,
				"z": 1.1402759876,
				"element": "H" 
			},
			{
				"x": -0.2009154429,
				"y": 1.8833092748,
				"z": 2.8941893506,
				"element": "H" 
			},
			{
				"x": 1.4486978183,
				"y": 3.3515472048,
				"z": 0.7816880854,
				"element": "H" 
			},
			{
				"x": 1.7257656078,
				"y": 3.4787393363,
				"z": 2.5078972172,
				"element": "H" 
			},
			{
				"x": 1.7751348725,
				"y": 0.8327486193,
				"z": 0.9601572732,
				"element": "H" 
			},
			{
				"x": 3.21374887,
				"y": 1.8084573199,
				"z": 1.2187191201,
				"element": "H" 
			},
			{
				"x": 3.0998230637,
				"y": 1.5176541499,
				"z": 3.6324081134,
				"element": "H" 
			},
			{
				"x": 1.545050501,
				"y": 0.7090514856,
				"z": 3.5401414445,
				"element": "H" 
			},
			{
				"x": 3.6225769362,
				"y": -0.8078001043,
				"z": 3.8511846313,
				"element": "H" 
			},
			{
				"x": 4.0789396749,
				"y": -0.3865150256,
				"z": 2.2156880961,
				"element": "H" 
			},
			{
				"x": 1.9676626343,
				"y": -1.4270778511,
				"z": 1.3053604913,
				"element": "H" 
			},
			{
				"x": 1.4204967584,
				"y": -3.4860119682,
				"z": 2.2872289797,
				"element": "H" 
			},
			{
				"x": 2.0614142097,
				"y": -1.6038580123,
				"z": 4.9898872173,
				"element": "H" 
			}
		],
		 "valence_orbital": [ 
			{
				"type": "occ",
				"energy": -0.284,
				"method": "rhf"
			},
			{
				"type": "occ",
				"energy": -0.27748,
				"method": "rhf"
			},
			{
				"type": "occ",
				"energy": -0.26423,
				"method": "rhf"
			},
			{
				"type": "occ",
				"energy": -0.26065,
				"method": "rhf"
			},
			{
				"type": "occ",
				"energy": -0.24499,
				"method": "rhf"
			},
			{
				"type": "unocc",
				"energy": -0.04087,
				"method": "rhf"
			},
			{
				"type": "unocc",
				"energy": -0.02478,
				"method": "rhf"
			},
			{
				"type": "unocc",
				"energy": -0.0067,
				"method": "rhf"
			},
			{
				"type": "unocc",
				"energy": 0.04525,
				"method": "rhf"
			},
			{
				"type": "unocc",
				"energy": 0.05035,
				"method": "rhf"
			}
		],
		"cosmo_sigma_profile": { 
			"-0.025": 0.0,
			"-0.024": 0.0,
			"-0.023": 0.0,
			"-0.022": 0.0,
			"-0.021": 0.0,
			"-0.02": 0.0,
			"-0.019": 0.0,
			"-0.018": 0.0,
			"-0.017": 0.0,
			"-0.016": 0.173077300238,
			"-0.015": 0.885757516842,
			"-0.014": 1.59666994195,
			"-0.013": 2.05204372142,
			"-0.012": 3.16849506566,
			"-0.011": 3.29225044852,
			"-0.01": 3.74147104472,
			"-0.009": 2.37847978635,
			"-0.008": 3.78996897077,
			"-0.007": 6.7672818105,
			"-0.006": 15.1369955736,
			"-0.005": 20.8138412981,
			"-0.004": 27.7053223011,
			"-0.003": 41.304095001,
			"-0.002": 57.5351321694,
			"-0.001": 66.0509336322,
			"0.0": 50.3090600343,
			"0.001": 42.3729915743,
			"0.002": 28.3014689734,
			"0.003": 12.5290135653,
			"0.004": 8.34792025586,
			"0.005": 8.81674721119,
			"0.006": 8.12315604971,
			"0.007": 6.92268464221,
			"0.008": 7.75396100133,
			"0.009": 6.71133841918,
			"0.01": 7.16378908562,
			"0.011": 11.0288766016,
			"0.012": 12.615930424,
			"0.013": 6.49251399584,
			"0.014": 1.62110794649,
			"0.015": 0.00725693810643,
			"0.016": 0.0,
			"0.017": 0.0,
			"0.018": 0.0,
			"0.019": 0.0,
			"0.02": 0.0,
			"0.021": 0.0,
			"0.022": 0.0,
			"0.023": 0.0,
			"0.024": 0.0,
			"0.025": 0.0
		}
	}
}
