{
	 "smiles": "OC(=O)C1=CC=C(C=C1)C(=O)NC1=CC=CC=C1", 
	 "Tm": 583.15, 
	 "num_atms": 29, 
	 "gaussian": { 
		 "optdone": 1, 
		 "sigma_profile": "yes", 
		 "theory": "DFT", 
		 "functional": "B3LYP", 
		 "basiset": "6-31G**", 
		 "properties": { 
			 "R2extent": 5618.945, 
			 "electric_dipole_moment_norm": 2.4229450716, 
			 "electric_quadrupole_moment_norm": 21.3416702505, 
			 "total_energy": -820.574768239, 
			 "HOMO_LUMO_gap": 0.16481, 
			 "cosmo_polarized_energy": -16.11, 
			 "cosmo_cavitation_energy": 34.41, 
			 "cosmo_dispersion_energy": -24.29, 
			 "cosmo_repulsion_energy": 1.88, 
			 "cosmo_total_nonelectrostatic_energy": 12.0, 
			 "SMD_solvation_energy": 7.68 
		},
		"coords": [
			{
				"x": 2.9359631321,
				"y": -3.7809977995,
				"z": -2.0958811664,
				"element": "O" 
			},
			{
				"x": 3.1401075258,
				"y": -2.81783457,
				"z": -1.1632814537,
				"element": "C" 
			},
			{
				"x": 4.2507218056,
				"y": -2.4063861441,
				"z": -0.8915442953,
				"element": "O" 
			},
			{
				"x": 1.87935754,
				"y": -2.3397518933,
				"z": -0.5334663333,
				"element": "C" 
			},
			{
				"x": 0.6242211078,
				"y": -2.8571064741,
				"z": -0.8843238154,
				"element": "C" 
			},
			{
				"x": -0.5212403439,
				"y": -2.378473018,
				"z": -0.2568880822,
				"element": "C" 
			},
			{
				"x": -0.4332864178,
				"y": -1.361495285,
				"z": 0.704048051,
				"element": "C" 
			},
			{
				"x": 0.825234438,
				"y": -0.8529963587,
				"z": 1.0595746401,
				"element": "C" 
			},
			{
				"x": 1.9736554479,
				"y": -1.3440064788,
				"z": 0.4478285927,
				"element": "C" 
			},
			{
				"x": -1.7052687225,
				"y": -0.9568133451,
				"z": 1.3946721071,
				"element": "C" 
			},
			{
				"x": -2.593673055,
				"y": -1.7770517094,
				"z": 1.5969649329,
				"element": "O" 
			},
			{
				"x": -1.8385477368,
				"y": 0.335165647,
				"z": 1.8705289328,
				"element": "N" 
			},
			{
				"x": -1.2327918937,
				"y": 1.548344353,
				"z": 1.4507282071,
				"element": "C" 
			},
			{
				"x": -1.0351997716,
				"y": 2.5576759347,
				"z": 2.4033732068,
				"element": "C" 
			},
			{
				"x": -0.4862237402,
				"y": 3.7820712027,
				"z": 2.0253927442,
				"element": "C" 
			},
			{
				"x": -0.111593779,
				"y": 4.0070087053,
				"z": 0.6993929196,
				"element": "C" 
			},
			{
				"x": -0.3088021187,
				"y": 3.0018353017,
				"z": -0.2494116493,
				"element": "C" 
			},
			{
				"x": -0.8804347558,
				"y": 1.783219745,
				"z": 0.1143603808,
				"element": "C" 
			},
			{
				"x": 3.8167870467,
				"y": -4.014019806,
				"z": -2.4323277648,
				"element": "H" 
			},
			{
				"x": 0.5546220328,
				"y": -3.634667646,
				"z": -1.6362216445,
				"element": "H" 
			},
			{
				"x": -1.4974902809,
				"y": -2.7886870276,
				"z": -0.4913541596,
				"element": "H" 
			},
			{
				"x": 0.9073076935,
				"y": -0.0850673685,
				"z": 1.820550812,
				"element": "H" 
			},
			{
				"x": 2.9556344195,
				"y": -0.9699183028,
				"z": 0.7162752899,
				"element": "H" 
			},
			{
				"x": -2.6655706947,
				"y": 0.4252702332,
				"z": 2.4494310518,
				"element": "H" 
			},
			{
				"x": -1.3082821338,
				"y": 2.3726611394,
				"z": 3.4386252879,
				"element": "H" 
			},
			{
				"x": -0.3419569933,
				"y": 4.5567768828,
				"z": 2.7727987106,
				"element": "H" 
			},
			{
				"x": 0.3239687745,
				"y": 4.9574725834,
				"z": 0.4071298049,
				"element": "H" 
			},
			{
				"x": -0.0342403541,
				"y": 3.1707998268,
				"z": -1.286553357,
				"element": "H" 
			},
			{
				"x": -1.0598781721,
				"y": 1.0193716718,
				"z": -0.6339219507,
				"element": "H" 
			}
		],
		 "valence_orbital": [ 
			{
				"type": "occ",
				"energy": -0.2745,
				"method": "rhf"
			},
			{
				"type": "occ",
				"energy": -0.26997,
				"method": "rhf"
			},
			{
				"type": "occ",
				"energy": -0.26036,
				"method": "rhf"
			},
			{
				"type": "occ",
				"energy": -0.25486,
				"method": "rhf"
			},
			{
				"type": "occ",
				"energy": -0.23301,
				"method": "rhf"
			},
			{
				"type": "unocc",
				"energy": -0.0682,
				"method": "rhf"
			},
			{
				"type": "unocc",
				"energy": -0.02091,
				"method": "rhf"
			},
			{
				"type": "unocc",
				"energy": -0.01665,
				"method": "rhf"
			},
			{
				"type": "unocc",
				"energy": -0.00777,
				"method": "rhf"
			},
			{
				"type": "unocc",
				"energy": 0.01921,
				"method": "rhf"
			}
		],
		"cosmo_sigma_profile": { 
			"-0.025": 0.0,
			"-0.024": 0.0,
			"-0.023": 0.0,
			"-0.022": 0.0,
			"-0.021": 0.0,
			"-0.02": 0.0,
			"-0.019": 0.0422065614127,
			"-0.018": 1.06007340129,
			"-0.017": 0.578983645014,
			"-0.016": 1.37005048616,
			"-0.015": 0.711192268412,
			"-0.014": 1.63069914606,
			"-0.013": 1.62030230097,
			"-0.012": 1.16311621898,
			"-0.011": 1.50182983055,
			"-0.01": 2.08343329401,
			"-0.009": 1.49275628567,
			"-0.008": 2.0024509902,
			"-0.007": 5.75236416847,
			"-0.006": 16.4853556461,
			"-0.005": 18.4753498837,
			"-0.004": 18.7956746094,
			"-0.003": 18.4226183629,
			"-0.002": 17.3374863423,
			"-0.001": 19.8997544994,
			"0.0": 20.3026436966,
			"0.001": 20.7287086705,
			"0.002": 24.3215161753,
			"0.003": 17.2342368022,
			"0.004": 12.3797987432,
			"0.005": 11.5926859127,
			"0.006": 5.95993926703,
			"0.007": 5.50000335237,
			"0.008": 3.05157037159,
			"0.009": 2.3771248705,
			"0.01": 3.68509042147,
			"0.011": 6.21748006009,
			"0.012": 6.31077800141,
			"0.013": 4.97130319806,
			"0.014": 0.592651342061,
			"0.015": 0.0,
			"0.016": 0.0,
			"0.017": 0.0,
			"0.018": 0.0,
			"0.019": 0.0,
			"0.02": 0.0,
			"0.021": 0.0,
			"0.022": 0.0,
			"0.023": 0.0,
			"0.024": 0.0,
			"0.025": 0.0
		}
	}
}
