{
	 "smiles": "NC1=CC2=C(CCNC2=O)C=C1", 
	 "Tm": 393.15, 
	 "num_atms": 22, 
	 "gaussian": { 
		 "optdone": 1, 
		 "sigma_profile": "yes", 
		 "theory": "DFT", 
		 "functional": "B3LYP", 
		 "basiset": "6-31G**", 
		 "properties": { 
			 "R2extent": 2146.2721, 
			 "electric_dipole_moment_norm": 3.68421311137, 
			 "electric_quadrupole_moment_norm": 14.3198382494, 
			 "total_energy": -533.741629897, 
			 "HOMO_LUMO_gap": 0.17299, 
			 "cosmo_polarized_energy": -15.74, 
			 "cosmo_cavitation_energy": 24.93, 
			 "cosmo_dispersion_energy": -18.94, 
			 "cosmo_repulsion_energy": 1.51, 
			 "cosmo_total_nonelectrostatic_energy": 7.51, 
			 "SMD_solvation_energy": 3.69 
		},
		"coords": [
			{
				"x": 1.7520736432,
				"y": -2.3315967935,
				"z": 2.2570718764,
				"element": "N" 
			},
			{
				"x": 1.1361176647,
				"y": -1.2515291915,
				"z": 1.6225524017,
				"element": "C" 
			},
			{
				"x": -0.0338240714,
				"y": -1.4291833143,
				"z": 0.8721874314,
				"element": "C" 
			},
			{
				"x": -0.6144762634,
				"y": -0.3575528476,
				"z": 0.1935837452,
				"element": "C" 
			},
			{
				"x": -0.0427835732,
				"y": 0.9269933245,
				"z": 0.2372001424,
				"element": "C" 
			},
			{
				"x": -0.6790435145,
				"y": 2.0461522425,
				"z": -0.5551140733,
				"element": "C" 
			},
			{
				"x": -2.1939337731,
				"y": 1.8532822094,
				"z": -0.63573587,
				"element": "C" 
			},
			{
				"x": -2.489060698,
				"y": 0.4975113068,
				"z": -1.0916416296,
				"element": "N" 
			},
			{
				"x": -1.8700939687,
				"y": -0.6189866628,
				"z": -0.5817933677,
				"element": "C" 
			},
			{
				"x": -2.3168464351,
				"y": -1.7473625842,
				"z": -0.7693197422,
				"element": "O" 
			},
			{
				"x": 1.1233152778,
				"y": 1.0978148114,
				"z": 0.9881898134,
				"element": "C" 
			},
			{
				"x": 1.7057856134,
				"y": 0.034234127,
				"z": 1.6725535952,
				"element": "C" 
			},
			{
				"x": 2.3318337024,
				"y": -2.0944554933,
				"z": 3.0501247866,
				"element": "H" 
			},
			{
				"x": 1.1451939582,
				"y": -3.1157361134,
				"z": 2.4525507724,
				"element": "H" 
			},
			{
				"x": -0.5132215827,
				"y": -2.4007127164,
				"z": 0.7963700573,
				"element": "H" 
			},
			{
				"x": -0.2708495025,
				"y": 2.0618091786,
				"z": -1.5758132409,
				"element": "H" 
			},
			{
				"x": -0.4539005401,
				"y": 3.0191368816,
				"z": -0.1052143551,
				"element": "H" 
			},
			{
				"x": -2.6342290018,
				"y": 2.5596508013,
				"z": -1.3459634513,
				"element": "H" 
			},
			{
				"x": -2.6469130394,
				"y": 2.0484217719,
				"z": 0.3491778912,
				"element": "H" 
			},
			{
				"x": -3.396406385,
				"y": 0.3052757023,
				"z": -1.4953426893,
				"element": "H" 
			},
			{
				"x": 1.5859971023,
				"y": 2.0804570739,
				"z": 1.0434704089,
				"element": "H" 
			},
			{
				"x": 2.6125653869,
				"y": 0.1955762855,
				"z": 2.2508054974,
				"element": "H" 
			}
		],
		 "valence_orbital": [ 
			{
				"type": "occ",
				"energy": -0.29943,
				"method": "rhf"
			},
			{
				"type": "occ",
				"energy": -0.24796,
				"method": "rhf"
			},
			{
				"type": "occ",
				"energy": -0.24738,
				"method": "rhf"
			},
			{
				"type": "occ",
				"energy": -0.23702,
				"method": "rhf"
			},
			{
				"type": "occ",
				"energy": -0.20126,
				"method": "rhf"
			},
			{
				"type": "unocc",
				"energy": -0.02827,
				"method": "rhf"
			},
			{
				"type": "unocc",
				"energy": 0.0106,
				"method": "rhf"
			},
			{
				"type": "unocc",
				"energy": 0.071,
				"method": "rhf"
			},
			{
				"type": "unocc",
				"energy": 0.08517,
				"method": "rhf"
			},
			{
				"type": "unocc",
				"energy": 0.08848,
				"method": "rhf"
			}
		],
		"cosmo_sigma_profile": { 
			"-0.025": 0.0,
			"-0.024": 0.0,
			"-0.023": 0.0,
			"-0.022": 0.0,
			"-0.021": 0.0,
			"-0.02": 0.0,
			"-0.019": 0.0,
			"-0.018": 0.0,
			"-0.017": 0.0,
			"-0.016": 0.0,
			"-0.015": 0.0,
			"-0.014": 0.161757264377,
			"-0.013": 1.22204084868,
			"-0.012": 3.96450412205,
			"-0.011": 3.7084057228,
			"-0.01": 3.75718811231,
			"-0.009": 3.9745292556,
			"-0.008": 4.09196860139,
			"-0.007": 4.49211052363,
			"-0.006": 6.86286923153,
			"-0.005": 11.144349112,
			"-0.004": 16.9681340287,
			"-0.003": 19.0394703326,
			"-0.002": 14.363987726,
			"-0.001": 11.2834353299,
			"0.0": 8.79259272108,
			"0.001": 7.70306796307,
			"0.002": 8.36311500998,
			"0.003": 9.28891382176,
			"0.004": 10.3880431382,
			"0.005": 13.428510447,
			"0.006": 8.40795173332,
			"0.007": 1.77269491141,
			"0.008": 2.3472668296,
			"0.009": 3.20088357498,
			"0.01": 1.98401097164,
			"0.011": 2.23458073199,
			"0.012": 2.31927005323,
			"0.013": 2.97359608917,
			"0.014": 7.02835289056,
			"0.015": 1.48122104733,
			"0.016": 0.0,
			"0.017": 0.0,
			"0.018": 0.0,
			"0.019": 0.0,
			"0.02": 0.0,
			"0.021": 0.0,
			"0.022": 0.0,
			"0.023": 0.0,
			"0.024": 0.0,
			"0.025": 0.0
		}
	}
}
