{
	 "smiles": "CN1N=C(C)C(Br)=C1C(O)=O", 
	 "Tm": 499.15, 
	 "num_atms": 18, 
	 "gaussian": { 
		 "optdone": 1, 
		 "sigma_profile": "yes", 
		 "theory": "DFT", 
		 "functional": "B3LYP", 
		 "basiset": "6-31G**", 
		 "properties": { 
			 "R2extent": 4384.1687, 
			 "electric_dipole_moment_norm": 2.90312821797, 
			 "electric_quadrupole_moment_norm": 13.0449853411, 
			 "total_energy": -3064.20652551, 
			 "HOMO_LUMO_gap": 0.20383, 
			 "cosmo_polarized_energy": -9.85, 
			 "cosmo_cavitation_energy": 24.31, 
			 "cosmo_dispersion_energy": -18.43, 
			 "cosmo_repulsion_energy": 1.47, 
			 "cosmo_total_nonelectrostatic_energy": 7.35, 
			 "SMD_solvation_energy": 3.54 
		},
		"coords": [
			{
				"x": 0.4489213149,
				"y": -1.4099599886,
				"z": 0.5664810455,
				"element": "C" 
			},
			{
				"x": 0.9856214781,
				"y": -0.0514527937,
				"z": 0.5872126991,
				"element": "N" 
			},
			{
				"x": 1.267883353,
				"y": 0.5052973382,
				"z": 1.7747961274,
				"element": "N" 
			},
			{
				"x": 1.7389306396,
				"y": 1.733311051,
				"z": 1.5256927995,
				"element": "C" 
			},
			{
				"x": 2.1582763015,
				"y": 2.6489781599,
				"z": 2.6298613072,
				"element": "C" 
			},
			{
				"x": 1.750910569,
				"y": 1.9495714172,
				"z": 0.1377955837,
				"element": "C" 
			},
			{
				"x": 2.3320820406,
				"y": 3.5362396354,
				"z": -0.7116818572,
				"element": "Br" 
			},
			{
				"x": 1.2604208909,
				"y": 0.7859637742,
				"z": -0.4605674548,
				"element": "C" 
			},
			{
				"x": 1.0233830425,
				"y": 0.3737220314,
				"z": -1.8657223818,
				"element": "C" 
			},
			{
				"x": 1.3251111019,
				"y": 1.2662575589,
				"z": -2.8274115241,
				"element": "O" 
			},
			{
				"x": 0.5782632215,
				"y": -0.7164830325,
				"z": -2.1564600743,
				"element": "O" 
			},
			{
				"x": 0.3814115841,
				"y": -1.7203236976,
				"z": 1.6083503339,
				"element": "H" 
			},
			{
				"x": 1.1091151053,
				"y": -2.0732630156,
				"z": 0.0066365077,
				"element": "H" 
			},
			{
				"x": -0.5333430375,
				"y": -1.4256294874,
				"z": 0.0930497087,
				"element": "H" 
			},
			{
				"x": 1.5729815414,
				"y": 3.5746626463,
				"z": 2.6234513568,
				"element": "H" 
			},
			{
				"x": 3.2131826179,
				"y": 2.9282243014,
				"z": 2.5366211868,
				"element": "H" 
			},
			{
				"x": 2.0129674724,
				"y": 2.1513031317,
				"z": 3.5903773662,
				"element": "H" 
			},
			{
				"x": 1.6724807629,
				"y": 2.0968809697,
				"z": -2.4571827304,
				"element": "H" 
			}
		],
		 "valence_orbital": [ 
			{
				"type": "occ",
				"energy": -0.32197,
				"method": "rhf"
			},
			{
				"type": "occ",
				"energy": -0.30479,
				"method": "rhf"
			},
			{
				"type": "occ",
				"energy": -0.2848,
				"method": "rhf"
			},
			{
				"type": "occ",
				"energy": -0.26858,
				"method": "rhf"
			},
			{
				"type": "occ",
				"energy": -0.25545,
				"method": "rhf"
			},
			{
				"type": "unocc",
				"energy": -0.05162,
				"method": "rhf"
			},
			{
				"type": "unocc",
				"energy": -0.01128,
				"method": "rhf"
			},
			{
				"type": "unocc",
				"energy": 0.02861,
				"method": "rhf"
			},
			{
				"type": "unocc",
				"energy": 0.08438,
				"method": "rhf"
			},
			{
				"type": "unocc",
				"energy": 0.08851,
				"method": "rhf"
			}
		],
		"cosmo_sigma_profile": { 
			"-0.025": 0.0,
			"-0.024": 0.0,
			"-0.023": 0.0,
			"-0.022": 0.0,
			"-0.021": 0.0,
			"-0.02": 0.0,
			"-0.019": 0.0,
			"-0.018": 0.0,
			"-0.017": 0.0,
			"-0.016": 0.0,
			"-0.015": 0.0,
			"-0.014": 0.0,
			"-0.013": 0.0,
			"-0.012": 0.0315970853946,
			"-0.011": 0.711796047682,
			"-0.01": 1.40669692853,
			"-0.009": 2.39277705905,
			"-0.008": 1.49882217501,
			"-0.007": 2.23044414166,
			"-0.006": 9.49141023992,
			"-0.005": 13.7566020703,
			"-0.004": 20.1888365992,
			"-0.003": 20.3950154978,
			"-0.002": 16.5526414147,
			"-0.001": 19.0617433785,
			"0.0": 16.2859606718,
			"0.001": 14.5165720577,
			"0.002": 11.3132613613,
			"0.003": 7.84681333063,
			"0.004": 4.3765367255,
			"0.005": 4.01990447893,
			"0.006": 3.70955295283,
			"0.007": 2.81004517313,
			"0.008": 4.28639975426,
			"0.009": 4.82454979802,
			"0.01": 5.35497250997,
			"0.011": 4.76397706553,
			"0.012": 3.64046496249,
			"0.013": 1.54203040627,
			"0.014": 0.139929812734,
			"0.015": 0.0,
			"0.016": 0.0,
			"0.017": 0.0,
			"0.018": 0.0,
			"0.019": 0.0,
			"0.02": 0.0,
			"0.021": 0.0,
			"0.022": 0.0,
			"0.023": 0.0,
			"0.024": 0.0,
			"0.025": 0.0
		}
	}
}
