{
	 "smiles": "CC1(CCN(CC1)C(=O)C(F)(F)F)C#N", 
	 "Tm": 315.15, 
	 "num_atms": 26, 
	 "gaussian": { 
		 "optdone": 1, 
		 "sigma_profile": "yes", 
		 "theory": "DFT", 
		 "functional": "B3LYP", 
		 "basiset": "6-31G**", 
		 "properties": { 
			 "R2extent": 4035.0372, 
			 "electric_dipole_moment_norm": 3.29985824089, 
			 "electric_quadrupole_moment_norm": 18.5735472802, 
			 "total_energy": -833.835703685, 
			 "HOMO_LUMO_gap": 0.24891, 
			 "cosmo_polarized_energy": -13.76, 
			 "cosmo_cavitation_energy": 30.09, 
			 "cosmo_dispersion_energy": -20.44, 
			 "cosmo_repulsion_energy": 1.53, 
			 "cosmo_total_nonelectrostatic_energy": 11.19, 
			 "SMD_solvation_energy": 7.38 
		},
		"coords": [
			{
				"x": 2.6828857513,
				"y": 0.4868340491,
				"z": -0.6667339297,
				"element": "C" 
			},
			{
				"x": 1.5364114268,
				"y": 0.1950929977,
				"z": 0.3236985585,
				"element": "C" 
			},
			{
				"x": 0.7150447299,
				"y": 1.4827058208,
				"z": 0.6092448341,
				"element": "C" 
			},
			{
				"x": -0.5278070221,
				"y": 1.2083490934,
				"z": 1.4656496409,
				"element": "C" 
			},
			{
				"x": -1.3552809865,
				"y": 0.1692974628,
				"z": 0.843375046,
				"element": "N" 
			},
			{
				"x": -0.6570515357,
				"y": -1.1040832665,
				"z": 0.6350197885,
				"element": "C" 
			},
			{
				"x": 0.58467491,
				"y": -0.896620981,
				"z": -0.2403562437,
				"element": "C" 
			},
			{
				"x": -2.6111792153,
				"y": 0.3094200196,
				"z": 0.3338222452,
				"element": "C" 
			},
			{
				"x": -3.2342665786,
				"y": -0.5709103098,
				"z": -0.2386500272,
				"element": "O" 
			},
			{
				"x": -3.2827971128,
				"y": 1.6990780074,
				"z": 0.4983297937,
				"element": "C" 
			},
			{
				"x": -4.5045243285,
				"y": 1.6881647321,
				"z": -0.0243768251,
				"element": "F" 
			},
			{
				"x": -3.3836752235,
				"y": 2.0567096587,
				"z": 1.7997916583,
				"element": "F" 
			},
			{
				"x": -2.5642451537,
				"y": 2.6623489951,
				"z": -0.1328874261,
				"element": "F" 
			},
			{
				"x": 2.1190927794,
				"y": -0.2881551588,
				"z": 1.5936298704,
				"element": "C" 
			},
			{
				"x": 2.5653166666,
				"y": -0.6677948991,
				"z": 2.5965089649,
				"element": "N" 
			},
			{
				"x": 3.3587393628,
				"y": 1.2506141566,
				"z": -0.2718568493,
				"element": "H" 
			},
			{
				"x": 3.2663028731,
				"y": -0.4159987926,
				"z": -0.8679770538,
				"element": "H" 
			},
			{
				"x": 2.2673593298,
				"y": 0.8480072394,
				"z": -1.6125032736,
				"element": "H" 
			},
			{
				"x": 0.3974298075,
				"y": 1.9023903862,
				"z": -0.3523209076,
				"element": "H" 
			},
			{
				"x": 1.3469074295,
				"y": 2.2277181762,
				"z": 1.1043272507,
				"element": "H" 
			},
			{
				"x": -0.2278909844,
				"y": 0.85395197,
				"z": 2.4602534937,
				"element": "H" 
			},
			{
				"x": -1.0973514667,
				"y": 2.1221524672,
				"z": 1.6069504394,
				"element": "H" 
			},
			{
				"x": -0.3700188356,
				"y": -1.5098591988,
				"z": 1.6134209662,
				"element": "H" 
			},
			{
				"x": -1.357731676,
				"y": -1.7938113048,
				"z": 0.1657027624,
				"element": "H" 
			},
			{
				"x": 0.2706426032,
				"y": -0.5805574627,
				"z": -1.2420633307,
				"element": "H" 
			},
			{
				"x": 1.1240124493,
				"y": -1.8436438584,
				"z": -0.3478994461,
				"element": "H" 
			}
		],
		 "valence_orbital": [ 
			{
				"type": "occ",
				"energy": -0.35847,
				"method": "rhf"
			},
			{
				"type": "occ",
				"energy": -0.33305,
				"method": "rhf"
			},
			{
				"type": "occ",
				"energy": -0.32776,
				"method": "rhf"
			},
			{
				"type": "occ",
				"energy": -0.27896,
				"method": "rhf"
			},
			{
				"type": "occ",
				"energy": -0.2646,
				"method": "rhf"
			},
			{
				"type": "unocc",
				"energy": -0.01569,
				"method": "rhf"
			},
			{
				"type": "unocc",
				"energy": 0.02395,
				"method": "rhf"
			},
			{
				"type": "unocc",
				"energy": 0.02557,
				"method": "rhf"
			},
			{
				"type": "unocc",
				"energy": 0.06314,
				"method": "rhf"
			},
			{
				"type": "unocc",
				"energy": 0.08673,
				"method": "rhf"
			}
		],
		"cosmo_sigma_profile": { 
			"-0.025": 0.0,
			"-0.024": 0.0,
			"-0.023": 0.0,
			"-0.022": 0.0,
			"-0.021": 0.0,
			"-0.02": 0.0,
			"-0.019": 0.0,
			"-0.018": 0.0,
			"-0.017": 0.0,
			"-0.016": 0.0,
			"-0.015": 0.0,
			"-0.014": 0.0,
			"-0.013": 0.0,
			"-0.012": 0.0,
			"-0.011": 0.0,
			"-0.01": 0.0,
			"-0.009": 0.0,
			"-0.008": 0.0,
			"-0.007": 1.13253297752,
			"-0.006": 15.2965653341,
			"-0.005": 31.1783004349,
			"-0.004": 26.3713587308,
			"-0.003": 23.0571851587,
			"-0.002": 20.8630328059,
			"-0.001": 17.6742444909,
			"0.0": 10.5201743246,
			"0.001": 14.671437832,
			"0.002": 25.3859861416,
			"0.003": 6.43627860054,
			"0.004": 3.61102130482,
			"0.005": 3.61518077587,
			"0.006": 3.82443612926,
			"0.007": 3.23255115541,
			"0.008": 4.41934044971,
			"0.009": 4.96818154922,
			"0.01": 4.834792541,
			"0.011": 6.12748337567,
			"0.012": 7.73909835445,
			"0.013": 2.48312966757,
			"0.014": 0.316680785622,
			"0.015": 0.0,
			"0.016": 0.0,
			"0.017": 0.0,
			"0.018": 0.0,
			"0.019": 0.0,
			"0.02": 0.0,
			"0.021": 0.0,
			"0.022": 0.0,
			"0.023": 0.0,
			"0.024": 0.0,
			"0.025": 0.0
		}
	}
}
