{
	 "smiles": "NC1=C(Cl)C=C2OCOC2=C1", 
	 "Tm": 364.15, 
	 "num_atms": 17, 
	 "gaussian": { 
		 "optdone": 1, 
		 "sigma_profile": "yes", 
		 "theory": "DFT", 
		 "functional": "B3LYP", 
		 "basiset": "6-31G**", 
		 "properties": { 
			 "R2extent": 3241.7584, 
			 "electric_dipole_moment_norm": 1.94400544495, 
			 "electric_quadrupole_moment_norm": 12.7550702797, 
			 "total_energy": -935.723736857, 
			 "HOMO_LUMO_gap": 0.18414, 
			 "cosmo_polarized_energy": -9.25, 
			 "cosmo_cavitation_energy": 22.58, 
			 "cosmo_dispersion_energy": -17.74, 
			 "cosmo_repulsion_energy": 1.42, 
			 "cosmo_total_nonelectrostatic_energy": 6.26, 
			 "SMD_solvation_energy": 4.14 
		},
		"coords": [
			{
				"x": -1.8335352344,
				"y": -2.727344912,
				"z": 1.1565867453,
				"element": "N" 
			},
			{
				"x": -1.3903598921,
				"y": -1.4215792489,
				"z": 1.352267662,
				"element": "C" 
			},
			{
				"x": -0.3101099741,
				"y": -1.1223408168,
				"z": 2.2011051805,
				"element": "C" 
			},
			{
				"x": 0.5655599767,
				"y": -2.4477375481,
				"z": 2.9707342483,
				"element": "Cl" 
			},
			{
				"x": 0.1137549342,
				"y": 0.1914991442,
				"z": 2.4681043011,
				"element": "C" 
			},
			{
				"x": -0.5833210581,
				"y": 1.2058632703,
				"z": 1.8506117163,
				"element": "C" 
			},
			{
				"x": -0.3618582674,
				"y": 2.5672312289,
				"z": 1.899670878,
				"element": "O" 
			},
			{
				"x": -1.4817744897,
				"y": 3.1495092548,
				"z": 1.2297732614,
				"element": "C" 
			},
			{
				"x": -2.1498061032,
				"y": 2.1122768985,
				"z": 0.4968723773,
				"element": "O" 
			},
			{
				"x": -1.6542235013,
				"y": 0.9357192899,
				"z": 1.0021058405,
				"element": "C" 
			},
			{
				"x": -2.0786415294,
				"y": -0.346808075,
				"z": 0.7345909811,
				"element": "C" 
			},
			{
				"x": -1.1535039513,
				"y": -3.4438610477,
				"z": 1.3710999545,
				"element": "H" 
			},
			{
				"x": -2.3013095044,
				"y": -2.8880117843,
				"z": 0.2756574175,
				"element": "H" 
			},
			{
				"x": 0.954443967,
				"y": 0.383156595,
				"z": 3.1229710457,
				"element": "H" 
			},
			{
				"x": -1.1325555322,
				"y": 3.9169168779,
				"z": 0.5335074718,
				"element": "H" 
			},
			{
				"x": -2.1767917015,
				"y": 3.5756935831,
				"z": 1.9687823279,
				"element": "H" 
			},
			{
				"x": -2.9216681392,
				"y": -0.5359827101,
				"z": 0.0789585907,
				"element": "H" 
			}
		],
		 "valence_orbital": [ 
			{
				"type": "occ",
				"energy": -0.32924,
				"method": "rhf"
			},
			{
				"type": "occ",
				"energy": -0.3156,
				"method": "rhf"
			},
			{
				"type": "occ",
				"energy": -0.27355,
				"method": "rhf"
			},
			{
				"type": "occ",
				"energy": -0.23705,
				"method": "rhf"
			},
			{
				"type": "occ",
				"energy": -0.18965,
				"method": "rhf"
			},
			{
				"type": "unocc",
				"energy": -0.00551,
				"method": "rhf"
			},
			{
				"type": "unocc",
				"energy": 0.01958,
				"method": "rhf"
			},
			{
				"type": "unocc",
				"energy": 0.02984,
				"method": "rhf"
			},
			{
				"type": "unocc",
				"energy": 0.08556,
				"method": "rhf"
			},
			{
				"type": "unocc",
				"energy": 0.10204,
				"method": "rhf"
			}
		],
		"cosmo_sigma_profile": { 
			"-0.025": 0.0,
			"-0.024": 0.0,
			"-0.023": 0.0,
			"-0.022": 0.0,
			"-0.021": 0.0,
			"-0.02": 0.0,
			"-0.019": 0.0,
			"-0.018": 0.0,
			"-0.017": 0.0,
			"-0.016": 0.0,
			"-0.015": 0.0,
			"-0.014": 0.0286872542666,
			"-0.013": 0.942731783915,
			"-0.012": 1.5724599398,
			"-0.011": 2.3016144408,
			"-0.01": 2.88839653091,
			"-0.009": 2.96213774104,
			"-0.008": 6.44886249038,
			"-0.007": 9.99512398555,
			"-0.006": 11.1226966585,
			"-0.005": 8.1951873918,
			"-0.004": 6.84068303462,
			"-0.003": 5.0412905164,
			"-0.002": 7.98167001335,
			"-0.001": 9.80816793255,
			"0.0": 8.93765834532,
			"0.001": 11.9259859302,
			"0.002": 13.9744304667,
			"0.003": 22.1224540129,
			"0.004": 18.2919963604,
			"0.005": 10.5262434387,
			"0.006": 4.99413267572,
			"0.007": 3.76191496725,
			"0.008": 2.91246058716,
			"0.009": 4.46049569911,
			"0.01": 2.31558934288,
			"0.011": 0.864468163774,
			"0.012": 0.703721192674,
			"0.013": 0.478512832309,
			"0.014": 0.436424926308,
			"0.015": 0.0165768137718,
			"0.016": 0.0,
			"0.017": 0.0,
			"0.018": 0.0,
			"0.019": 0.0,
			"0.02": 0.0,
			"0.021": 0.0,
			"0.022": 0.0,
			"0.023": 0.0,
			"0.024": 0.0,
			"0.025": 0.0
		}
	}
}
