{
	 "smiles": "COC1=CC(=CC(OC)=C1OC)C(=O)NCCCCCC(O)=O", 
	 "Tm": 394.15, 
	 "num_atms": 46, 
	 "gaussian": { 
		 "optdone": 1, 
		 "sigma_profile": "yes", 
		 "theory": "DFT", 
		 "functional": "B3LYP", 
		 "basiset": "6-31G**", 
		 "properties": { 
			 "R2extent": 10994.3831, 
			 "electric_dipole_moment_norm": 4.40486693897, 
			 "electric_quadrupole_moment_norm": 18.2508327142, 
			 "total_energy": -1129.65301327, 
			 "HOMO_LUMO_gap": 0.19966, 
			 "cosmo_polarized_energy": -21.7, 
			 "cosmo_cavitation_energy": 49.85, 
			 "cosmo_dispersion_energy": -32.73, 
			 "cosmo_repulsion_energy": 2.58, 
			 "cosmo_total_nonelectrostatic_energy": 19.7, 
			 "SMD_solvation_energy": 11.39 
		},
		"coords": [
			{
				"x": -0.057252232,
				"y": 2.6943321906,
				"z": -2.9776264881,
				"element": "C" 
			},
			{
				"x": -0.6624297007,
				"y": 1.4714142438,
				"z": -3.4130936475,
				"element": "O" 
			},
			{
				"x": -1.474695209,
				"y": 0.8527023325,
				"z": -2.4954428733,
				"element": "C" 
			},
			{
				"x": -1.089082712,
				"y": -0.3897067059,
				"z": -1.9899586903,
				"element": "C" 
			},
			{
				"x": -1.9299573558,
				"y": -1.0959895454,
				"z": -1.1206123262,
				"element": "C" 
			},
			{
				"x": -3.1634893317,
				"y": -0.5447306388,
				"z": -0.7561310113,
				"element": "C" 
			},
			{
				"x": -3.5516798873,
				"y": 0.6990025095,
				"z": -1.2468131172,
				"element": "C" 
			},
			{
				"x": -4.7920765835,
				"y": 1.1947266277,
				"z": -0.9158399701,
				"element": "O" 
			},
			{
				"x": -4.7788468362,
				"y": 2.3391446627,
				"z": -0.0554484515,
				"element": "C" 
			},
			{
				"x": -2.7117328595,
				"y": 1.4084248248,
				"z": -2.1254997827,
				"element": "C" 
			},
			{
				"x": -3.0835769812,
				"y": 2.6369415031,
				"z": -2.6206243639,
				"element": "O" 
			},
			{
				"x": -4.0361175549,
				"y": 2.5707108061,
				"z": -3.6924098577,
				"element": "C" 
			},
			{
				"x": -1.5837058607,
				"y": -2.4395929331,
				"z": -0.5394464997,
				"element": "C" 
			},
			{
				"x": -2.4433729977,
				"y": -3.1754766036,
				"z": -0.058332833,
				"element": "O" 
			},
			{
				"x": -0.2606317836,
				"y": -2.793371099,
				"z": -0.573923726,
				"element": "N" 
			},
			{
				"x": 0.1950463238,
				"y": -4.0489779919,
				"z": 0.0122137108,
				"element": "C" 
			},
			{
				"x": 0.4601324892,
				"y": -4.0033840144,
				"z": 1.5294935112,
				"element": "C" 
			},
			{
				"x": 1.7939036315,
				"y": -3.3796721759,
				"z": 1.9731329907,
				"element": "C" 
			},
			{
				"x": 1.9996671256,
				"y": -1.9048882787,
				"z": 1.6000963084,
				"element": "C" 
			},
			{
				"x": 3.2419250352,
				"y": -1.3023509631,
				"z": 2.2597083339,
				"element": "C" 
			},
			{
				"x": 3.540137969,
				"y": 0.102886819,
				"z": 1.7836829236,
				"element": "C" 
			},
			{
				"x": 4.5046817992,
				"y": 0.6896861929,
				"z": 2.5337214013,
				"element": "O" 
			},
			{
				"x": 3.0160741741,
				"y": 0.663099575,
				"z": 0.8450273319,
				"element": "O" 
			},
			{
				"x": 0.561851136,
				"y": 3.0379794491,
				"z": -3.8089242549,
				"element": "H" 
			},
			{
				"x": 0.5794146384,
				"y": 2.522322032,
				"z": -2.1004403964,
				"element": "H" 
			},
			{
				"x": -0.8123456057,
				"y": 3.4501869482,
				"z": -2.7438321736,
				"element": "H" 
			},
			{
				"x": -0.146332323,
				"y": -0.7953848883,
				"z": -2.3418121159,
				"element": "H" 
			},
			{
				"x": -3.8228500092,
				"y": -1.0973306429,
				"z": -0.0970679845,
				"element": "H" 
			},
			{
				"x": -5.824205777,
				"y": 2.6059528571,
				"z": 0.1128888472,
				"element": "H" 
			},
			{
				"x": -4.2532746609,
				"y": 3.180136341,
				"z": -0.5181461984,
				"element": "H" 
			},
			{
				"x": -4.3093249118,
				"y": 2.0964760791,
				"z": 0.9062639854,
				"element": "H" 
			},
			{
				"x": -3.6157357238,
				"y": 2.031663306,
				"z": -4.548964221,
				"element": "H" 
			},
			{
				"x": -4.9595066187,
				"y": 2.0841587741,
				"z": -3.3627264988,
				"element": "H" 
			},
			{
				"x": -4.2456442309,
				"y": 3.6030987981,
				"z": -3.9795882062,
				"element": "H" 
			},
			{
				"x": 0.4204321835,
				"y": -2.0831378466,
				"z": -0.7903864884,
				"element": "H" 
			},
			{
				"x": 1.0948466509,
				"y": -4.370859844,
				"z": -0.5261699743,
				"element": "H" 
			},
			{
				"x": -0.5923178534,
				"y": -4.7796913086,
				"z": -0.1851282331,
				"element": "H" 
			},
			{
				"x": 0.432903891,
				"y": -5.0365281894,
				"z": 1.8991059883,
				"element": "H" 
			},
			{
				"x": -0.3817525597,
				"y": -3.4873722902,
				"z": 2.0054619604,
				"element": "H" 
			},
			{
				"x": 1.8678376975,
				"y": -3.4818314074,
				"z": 3.0645742261,
				"element": "H" 
			},
			{
				"x": 2.6245884112,
				"y": -3.9716916642,
				"z": 1.5614587119,
				"element": "H" 
			},
			{
				"x": 2.1065820235,
				"y": -1.7890103102,
				"z": 0.5163467288,
				"element": "H" 
			},
			{
				"x": 1.1183484496,
				"y": -1.3168391668,
				"z": 1.8826876809,
				"element": "H" 
			},
			{
				"x": 4.1326026256,
				"y": -1.9103398526,
				"z": 2.0479777551,
				"element": "H" 
			},
			{
				"x": 3.1531861381,
				"y": -1.2850352182,
				"z": 3.3522774849,
				"element": "H" 
			},
			{
				"x": 4.6460757671,
				"y": 1.5715467066,
				"z": 2.1499705033,
				"element": "H" 
			}
		],
		 "valence_orbital": [ 
			{
				"type": "occ",
				"energy": -0.26088,
				"method": "rhf"
			},
			{
				"type": "occ",
				"energy": -0.25037,
				"method": "rhf"
			},
			{
				"type": "occ",
				"energy": -0.24077,
				"method": "rhf"
			},
			{
				"type": "occ",
				"energy": -0.23281,
				"method": "rhf"
			},
			{
				"type": "occ",
				"energy": -0.22781,
				"method": "rhf"
			},
			{
				"type": "unocc",
				"energy": -0.02815,
				"method": "rhf"
			},
			{
				"type": "unocc",
				"energy": 0.00345,
				"method": "rhf"
			},
			{
				"type": "unocc",
				"energy": 0.00523,
				"method": "rhf"
			},
			{
				"type": "unocc",
				"energy": 0.06378,
				"method": "rhf"
			},
			{
				"type": "unocc",
				"energy": 0.07092,
				"method": "rhf"
			}
		],
		"cosmo_sigma_profile": { 
			"-0.025": 0.0,
			"-0.024": 0.0,
			"-0.023": 0.0,
			"-0.022": 0.0,
			"-0.021": 0.0,
			"-0.02": 0.0,
			"-0.019": 0.0,
			"-0.018": 0.527237206436,
			"-0.017": 0.985043976943,
			"-0.016": 0.787286502177,
			"-0.015": 1.1043690515,
			"-0.014": 0.383817647235,
			"-0.013": 1.14547254581,
			"-0.012": 1.71548508439,
			"-0.011": 2.01243671744,
			"-0.01": 2.2876719112,
			"-0.009": 2.53237301434,
			"-0.008": 2.16746712018,
			"-0.007": 2.69397298578,
			"-0.006": 9.23178988903,
			"-0.005": 20.1546793124,
			"-0.004": 32.357375704,
			"-0.003": 53.585896764,
			"-0.002": 49.7458193159,
			"-0.001": 38.6791220511,
			"0.0": 26.7299489652,
			"0.001": 21.8872480998,
			"0.002": 21.3302682756,
			"0.003": 18.2748221486,
			"0.004": 11.6586288376,
			"0.005": 9.39888390404,
			"0.006": 8.56296716282,
			"0.007": 8.50034181864,
			"0.008": 6.27609896355,
			"0.009": 7.0777863038,
			"0.01": 5.90031651094,
			"0.011": 8.27590817575,
			"0.012": 7.2591912938,
			"0.013": 2.68365718656,
			"0.014": 4.87063719865,
			"0.015": 0.379421865725,
			"0.016": 0.0,
			"0.017": 0.0,
			"0.018": 0.0,
			"0.019": 0.0,
			"0.02": 0.0,
			"0.021": 0.0,
			"0.022": 0.0,
			"0.023": 0.0,
			"0.024": 0.0,
			"0.025": 0.0
		}
	}
}
