{
	 "smiles": "CC(C)(C)OC(=O)NCCS(=O)(=O)CC#C", 
	 "Tm": 400.15, 
	 "num_atms": 33, 
	 "gaussian": { 
		 "optdone": 1, 
		 "sigma_profile": "yes", 
		 "theory": "DFT", 
		 "functional": "B3LYP", 
		 "basiset": "6-31G**", 
		 "properties": { 
			 "R2extent": 4549.3451, 
			 "electric_dipole_moment_norm": 3.46875038883, 
			 "electric_quadrupole_moment_norm": 18.0411504921, 
			 "total_energy": -1145.04261605, 
			 "HOMO_LUMO_gap": 0.26878, 
			 "cosmo_polarized_energy": -22.34, 
			 "cosmo_cavitation_energy": 37.34, 
			 "cosmo_dispersion_energy": -24.88, 
			 "cosmo_repulsion_energy": 1.9, 
			 "cosmo_total_nonelectrostatic_energy": 14.35, 
			 "SMD_solvation_energy": 7.08 
		},
		"coords": [
			{
				"x": 1.8730878122,
				"y": -0.36835546,
				"z": -3.8935393174,
				"element": "C" 
			},
			{
				"x": 1.9138735277,
				"y": 0.2084097264,
				"z": -2.4764123414,
				"element": "C" 
			},
			{
				"x": 2.9213199824,
				"y": 1.3579008813,
				"z": -2.3804472322,
				"element": "C" 
			},
			{
				"x": 2.1790462122,
				"y": -0.8941219327,
				"z": -1.4466328683,
				"element": "C" 
			},
			{
				"x": 0.5438585662,
				"y": 0.7344304997,
				"z": -2.3122042068,
				"element": "O" 
			},
			{
				"x": 0.1351391167,
				"y": 1.2613773774,
				"z": -1.147505755,
				"element": "C" 
			},
			{
				"x": 0.8261525323,
				"y": 1.4827583378,
				"z": -0.1596045953,
				"element": "O" 
			},
			{
				"x": -1.1995564688,
				"y": 1.5763462976,
				"z": -1.2284783277,
				"element": "N" 
			},
			{
				"x": -1.9352452021,
				"y": 1.9726225366,
				"z": -0.0483617527,
				"element": "C" 
			},
			{
				"x": -2.7603765893,
				"y": 0.8658022005,
				"z": 0.6313985456,
				"element": "C" 
			},
			{
				"x": -1.898846373,
				"y": -0.6531157065,
				"z": 1.1770086069,
				"element": "S" 
			},
			{
				"x": -2.88461029,
				"y": -1.4146120556,
				"z": 1.956400682,
				"element": "O" 
			},
			{
				"x": -1.245082672,
				"y": -1.2607065618,
				"z": 0.0069389908,
				"element": "O" 
			},
			{
				"x": -0.5903237927,
				"y": -0.0253498435,
				"z": 2.3231227514,
				"element": "C" 
			},
			{
				"x": 0.1047244874,
				"y": -1.1230815736,
				"z": 2.9643494137,
				"element": "C" 
			},
			{
				"x": 0.6801470591,
				"y": -2.0437650545,
				"z": 3.4904030711,
				"element": "C" 
			},
			{
				"x": 2.8513703181,
				"y": -0.7805284515,
				"z": -4.1575887428,
				"element": "H" 
			},
			{
				"x": 1.1296981902,
				"y": -1.1674995576,
				"z": -3.9634957813,
				"element": "H" 
			},
			{
				"x": 1.616849694,
				"y": 0.4083822745,
				"z": -4.6200529551,
				"element": "H" 
			},
			{
				"x": 2.6828839776,
				"y": 2.1374656087,
				"z": -3.1109988947,
				"element": "H" 
			},
			{
				"x": 3.9267632627,
				"y": 0.9835038665,
				"z": -2.5988180006,
				"element": "H" 
			},
			{
				"x": 2.9189438342,
				"y": 1.795140329,
				"z": -1.3814609836,
				"element": "H" 
			},
			{
				"x": 1.3676940654,
				"y": -1.6271800842,
				"z": -1.4564169055,
				"element": "H" 
			},
			{
				"x": 3.1144783775,
				"y": -1.4055882101,
				"z": -1.69595577,
				"element": "H" 
			},
			{
				"x": 2.2615512711,
				"y": -0.4844945172,
				"z": -0.4399236458,
				"element": "H" 
			},
			{
				"x": -1.6986225767,
				"y": 1.1701686516,
				"z": -2.0070035975,
				"element": "H" 
			},
			{
				"x": -2.6376968176,
				"y": 2.7742371764,
				"z": -0.3083183023,
				"element": "H" 
			},
			{
				"x": -1.2069919324,
				"y": 2.3981718943,
				"z": 0.6447114094,
				"element": "H" 
			},
			{
				"x": -3.2730599175,
				"y": 1.2579107487,
				"z": 1.5148052978,
				"element": "H" 
			},
			{
				"x": -3.5242549078,
				"y": 0.4621361396,
				"z": -0.0420230144,
				"element": "H" 
			},
			{
				"x": 0.0799491047,
				"y": 0.58508559,
				"z": 1.7062703858,
				"element": "H" 
			},
			{
				"x": -1.1079682275,
				"y": 0.6062562566,
				"z": 3.0538691527,
				"element": "H" 
			},
			{
				"x": 1.1873043757,
				"y": -2.8575073845,
				"z": 3.9548646832,
				"element": "H" 
			}
		],
		 "valence_orbital": [ 
			{
				"type": "occ",
				"energy": -0.29374,
				"method": "rhf"
			},
			{
				"type": "occ",
				"energy": -0.27752,
				"method": "rhf"
			},
			{
				"type": "occ",
				"energy": -0.27206,
				"method": "rhf"
			},
			{
				"type": "occ",
				"energy": -0.26962,
				"method": "rhf"
			},
			{
				"type": "occ",
				"energy": -0.25952,
				"method": "rhf"
			},
			{
				"type": "unocc",
				"energy": 0.00926,
				"method": "rhf"
			},
			{
				"type": "unocc",
				"energy": 0.04011,
				"method": "rhf"
			},
			{
				"type": "unocc",
				"energy": 0.04623,
				"method": "rhf"
			},
			{
				"type": "unocc",
				"energy": 0.06135,
				"method": "rhf"
			},
			{
				"type": "unocc",
				"energy": 0.06939,
				"method": "rhf"
			}
		],
		"cosmo_sigma_profile": { 
			"-0.025": 0.0,
			"-0.024": 0.0,
			"-0.023": 0.0,
			"-0.022": 0.0,
			"-0.021": 0.0,
			"-0.02": 0.0,
			"-0.019": 0.0,
			"-0.018": 0.0,
			"-0.017": 0.0,
			"-0.016": 0.0,
			"-0.015": 0.0827623511169,
			"-0.014": 0.972075077166,
			"-0.013": 1.89551772899,
			"-0.012": 3.22420829636,
			"-0.011": 3.49034185819,
			"-0.01": 5.62689744215,
			"-0.009": 9.04787526407,
			"-0.008": 7.57889600941,
			"-0.007": 10.9552668544,
			"-0.006": 9.917963477,
			"-0.005": 9.03352725417,
			"-0.004": 18.339555902,
			"-0.003": 19.6838069012,
			"-0.002": 17.8232852717,
			"-0.001": 20.742765707,
			"0.0": 28.0732639045,
			"0.001": 20.7081530587,
			"0.002": 12.0911538463,
			"0.003": 11.0514044276,
			"0.004": 14.1475421629,
			"0.005": 17.0256242759,
			"0.006": 12.4842165446,
			"0.007": 6.7939701832,
			"0.008": 4.47101790208,
			"0.009": 5.14533856255,
			"0.01": 5.80593953525,
			"0.011": 9.15951993689,
			"0.012": 7.81721738558,
			"0.013": 0.601161882104,
			"0.014": 0.0,
			"0.015": 0.0,
			"0.016": 0.0,
			"0.017": 0.0,
			"0.018": 0.0,
			"0.019": 0.0,
			"0.02": 0.0,
			"0.021": 0.0,
			"0.022": 0.0,
			"0.023": 0.0,
			"0.024": 0.0,
			"0.025": 0.0
		}
	}
}
