{
	 "smiles": "CCCCCCCCN(C)CCCCCCCC", 
	 "Tm": 243.05, 
	 "num_atms": 55, 
	 "gaussian": { 
		 "optdone": 1, 
		 "sigma_profile": "yes", 
		 "theory": "DFT", 
		 "functional": "B3LYP", 
		 "basiset": "6-31G**", 
		 "properties": { 
			 "R2extent": 8310.1727, 
			 "electric_dipole_moment_norm": 0.534770483479, 
			 "electric_quadrupole_moment_norm": 4.85609997941, 
			 "total_energy": -724.887129413, 
			 "HOMO_LUMO_gap": 0.25285, 
			 "cosmo_polarized_energy": -2.86, 
			 "cosmo_cavitation_energy": 51.93, 
			 "cosmo_dispersion_energy": -32.3, 
			 "cosmo_repulsion_energy": 2.57, 
			 "cosmo_total_nonelectrostatic_energy": 22.2, 
			 "SMD_solvation_energy": 5.0 
		},
		"coords": [
			{
				"x": -0.3206478001,
				"y": 2.4635069733,
				"z": -0.4084220971,
				"element": "C" 
			},
			{
				"x": 0.9171604537,
				"y": 2.9045225604,
				"z": 0.3822912374,
				"element": "C" 
			},
			{
				"x": 1.5497835196,
				"y": 1.7986718263,
				"z": 1.2437982777,
				"element": "C" 
			},
			{
				"x": 0.6661473014,
				"y": 1.3124291175,
				"z": 2.4027220315,
				"element": "C" 
			},
			{
				"x": 1.3647308598,
				"y": 0.3314481142,
				"z": 3.3617525864,
				"element": "C" 
			},
			{
				"x": 1.788306441,
				"y": -1.0178420473,
				"z": 2.752823567,
				"element": "C" 
			},
			{
				"x": 0.6131171561,
				"y": -1.8985931477,
				"z": 2.2991520159,
				"element": "C" 
			},
			{
				"x": 0.9672880354,
				"y": -3.359754188,
				"z": 1.9248987901,
				"element": "C" 
			},
			{
				"x": 1.5841106594,
				"y": -3.6446084309,
				"z": 0.6271994065,
				"element": "N" 
			},
			{
				"x": 2.9775446646,
				"y": -3.2502578822,
				"z": 0.4950952327,
				"element": "C" 
			},
			{
				"x": 0.7956750296,
				"y": -3.2840742744,
				"z": -0.5497858349,
				"element": "C" 
			},
			{
				"x": -0.5588875359,
				"y": -4.0011717393,
				"z": -0.6251548648,
				"element": "C" 
			},
			{
				"x": -1.2429635204,
				"y": -3.8879100145,
				"z": -1.9997148914,
				"element": "C" 
			},
			{
				"x": -1.6881261571,
				"y": -2.4767119194,
				"z": -2.4307293121,
				"element": "C" 
			},
			{
				"x": -2.8108228988,
				"y": -1.8829123809,
				"z": -1.5677860385,
				"element": "C" 
			},
			{
				"x": -3.2560621805,
				"y": -0.4532140405,
				"z": -1.9273920447,
				"element": "C" 
			},
			{
				"x": -3.8734584831,
				"y": -0.2629329814,
				"z": -3.331438161,
				"element": "C" 
			},
			{
				"x": -2.8787385292,
				"y": 0.1288312896,
				"z": -4.4326806468,
				"element": "C" 
			},
			{
				"x": -0.6951628619,
				"y": 3.275458282,
				"z": -1.0405875494,
				"element": "H" 
			},
			{
				"x": -1.1394358805,
				"y": 2.1574243658,
				"z": 0.250708147,
				"element": "H" 
			},
			{
				"x": -0.0870409752,
				"y": 1.6147654646,
				"z": -1.0624862721,
				"element": "H" 
			},
			{
				"x": 0.6548235697,
				"y": 3.7563403475,
				"z": 1.0249889236,
				"element": "H" 
			},
			{
				"x": 1.6729420475,
				"y": 3.2775067274,
				"z": -0.3208527356,
				"element": "H" 
			},
			{
				"x": 2.4964414447,
				"y": 2.1728825967,
				"z": 1.6581582849,
				"element": "H" 
			},
			{
				"x": 1.8166640817,
				"y": 0.9532642711,
				"z": 0.5948700101,
				"element": "H" 
			},
			{
				"x": -0.2499544978,
				"y": 0.8544424491,
				"z": 2.0098732906,
				"element": "H" 
			},
			{
				"x": 0.338261485,
				"y": 2.1864231979,
				"z": 2.9827874951,
				"element": "H" 
			},
			{
				"x": 2.2546049778,
				"y": 0.8236896147,
				"z": 3.7780602785,
				"element": "H" 
			},
			{
				"x": 0.6990414031,
				"y": 0.1377264077,
				"z": 4.2143199902,
				"element": "H" 
			},
			{
				"x": 2.4780632331,
				"y": -0.8434137326,
				"z": 1.9200373676,
				"element": "H" 
			},
			{
				"x": 2.3659738822,
				"y": -1.568766256,
				"z": 3.508183106,
				"element": "H" 
			},
			{
				"x": 0.0814207422,
				"y": -1.4254670741,
				"z": 1.4639846964,
				"element": "H" 
			},
			{
				"x": -0.1148443591,
				"y": -1.9469386202,
				"z": 3.1224363891,
				"element": "H" 
			},
			{
				"x": 1.6336010794,
				"y": -3.7705957816,
				"z": 2.6951738064,
				"element": "H" 
			},
			{
				"x": 0.0461602543,
				"y": -3.9508713087,
				"z": 1.9806684792,
				"element": "H" 
			},
			{
				"x": 3.1403275484,
				"y": -2.1690421703,
				"z": 0.3311787054,
				"element": "H" 
			},
			{
				"x": 3.4273059733,
				"y": -3.7772608334,
				"z": -0.3553793996,
				"element": "H" 
			},
			{
				"x": 3.5294883707,
				"y": -3.5367869538,
				"z": 1.3960676912,
				"element": "H" 
			},
			{
				"x": 0.6526726532,
				"y": -2.1892927357,
				"z": -0.6396287986,
				"element": "H" 
			},
			{
				"x": 1.3875019323,
				"y": -3.5785339784,
				"z": -1.4270083506,
				"element": "H" 
			},
			{
				"x": -0.3864464846,
				"y": -5.0610683613,
				"z": -0.4015162725,
				"element": "H" 
			},
			{
				"x": -1.2337187028,
				"y": -3.6285699722,
				"z": 0.1544409193,
				"element": "H" 
			},
			{
				"x": -2.1220840624,
				"y": -4.5465616333,
				"z": -2.0051504794,
				"element": "H" 
			},
			{
				"x": -0.562276386,
				"y": -4.2899240328,
				"z": -2.7626047602,
				"element": "H" 
			},
			{
				"x": -0.8274975158,
				"y": -1.7942027346,
				"z": -2.4332680238,
				"element": "H" 
			},
			{
				"x": -2.0271196998,
				"y": -2.5373628613,
				"z": -3.4718396044,
				"element": "H" 
			},
			{
				"x": -2.49704218,
				"y": -1.8812633275,
				"z": -0.5157864662,
				"element": "H" 
			},
			{
				"x": -3.6845580266,
				"y": -2.549302267,
				"z": -1.6183704387,
				"element": "H" 
			},
			{
				"x": -2.4072259597,
				"y": 0.2352320123,
				"z": -1.808399677,
				"element": "H" 
			},
			{
				"x": -3.9939876551,
				"y": -0.1452761487,
				"z": -1.1757997977,
				"element": "H" 
			},
			{
				"x": -4.4068815956,
				"y": -1.1788315753,
				"z": -3.6214035805,
				"element": "H" 
			},
			{
				"x": -4.640184215,
				"y": 0.5199359024,
				"z": -3.2751407262,
				"element": "H" 
			},
			{
				"x": -2.1000552361,
				"y": -0.6255895075,
				"z": -4.5770489046,
				"element": "H" 
			},
			{
				"x": -2.378560192,
				"y": 1.0724241453,
				"z": -4.1857423877,
				"element": "H" 
			},
			{
				"x": -3.388275208,
				"y": 0.2666792469,
				"z": -5.3926526098,
				"element": "H" 
			}
		],
		 "valence_orbital": [ 
			{
				"type": "occ",
				"energy": -0.30435,
				"method": "rhf"
			},
			{
				"type": "occ",
				"energy": -0.30198,
				"method": "rhf"
			},
			{
				"type": "occ",
				"energy": -0.2997,
				"method": "rhf"
			},
			{
				"type": "occ",
				"energy": -0.29868,
				"method": "rhf"
			},
			{
				"type": "occ",
				"energy": -0.19433,
				"method": "rhf"
			},
			{
				"type": "unocc",
				"energy": 0.05852,
				"method": "rhf"
			},
			{
				"type": "unocc",
				"energy": 0.0843,
				"method": "rhf"
			},
			{
				"type": "unocc",
				"energy": 0.09362,
				"method": "rhf"
			},
			{
				"type": "unocc",
				"energy": 0.09971,
				"method": "rhf"
			},
			{
				"type": "unocc",
				"energy": 0.10222,
				"method": "rhf"
			}
		],
		"cosmo_sigma_profile": { 
			"-0.025": 0.0,
			"-0.024": 0.0,
			"-0.023": 0.0,
			"-0.022": 0.0,
			"-0.021": 0.0,
			"-0.02": 0.0,
			"-0.019": 0.0,
			"-0.018": 0.0,
			"-0.017": 0.0,
			"-0.016": 0.0,
			"-0.015": 0.0,
			"-0.014": 0.0,
			"-0.013": 0.0,
			"-0.012": 0.0,
			"-0.011": 0.0,
			"-0.01": 0.0,
			"-0.009": 0.0,
			"-0.008": 0.0,
			"-0.007": 0.0,
			"-0.006": 0.0,
			"-0.005": 0.0,
			"-0.004": 0.319403646604,
			"-0.003": 9.87793760468,
			"-0.002": 57.3847065024,
			"-0.001": 93.1478430367,
			"0.0": 106.194575191,
			"0.001": 86.9040386739,
			"0.002": 31.0425251945,
			"0.003": 1.87139227134,
			"0.004": 1.55333023514,
			"0.005": 0.968483190751,
			"0.006": 0.873110188078,
			"0.007": 1.01471562719,
			"0.008": 0.769588927743,
			"0.009": 0.727580475016,
			"0.01": 0.91134538388,
			"0.011": 0.35633788808,
			"0.012": 0.61800552026,
			"0.013": 0.692204881721,
			"0.014": 0.140822625724,
			"0.015": 0.624357658809,
			"0.016": 0.304479538475,
			"0.017": 0.0444111649917,
			"0.018": 0.0,
			"0.019": 0.0,
			"0.02": 0.0,
			"0.021": 0.0,
			"0.022": 0.0,
			"0.023": 0.0,
			"0.024": 0.0,
			"0.025": 0.0
		}
	}
}
