{
	 "smiles": "CSC1=NC(CCl)=CC(Cl)=N1", 
	 "Tm": 303.15, 
	 "num_atms": 17, 
	 "gaussian": { 
		 "optdone": 1, 
		 "sigma_profile": "yes", 
		 "theory": "DFT", 
		 "functional": "B3LYP", 
		 "basiset": "6-31G**", 
		 "properties": { 
			 "R2extent": 4204.0838, 
			 "electric_dipole_moment_norm": 0.864927575003, 
			 "electric_quadrupole_moment_norm": 6.1937289923, 
			 "total_energy": -1660.33407787, 
			 "HOMO_LUMO_gap": 0.18287, 
			 "cosmo_polarized_energy": -7.3, 
			 "cosmo_cavitation_energy": 26.73, 
			 "cosmo_dispersion_energy": -20.48, 
			 "cosmo_repulsion_energy": 1.64, 
			 "cosmo_total_nonelectrostatic_energy": 7.89, 
			 "SMD_solvation_energy": 1.73 
		},
		"coords": [
			{
				"x": 0.3441899173,
				"y": 0.6164070535,
				"z": 3.9956606697,
				"element": "C" 
			},
			{
				"x": 0.9538558748,
				"y": -0.0950613809,
				"z": 2.4301459813,
				"element": "S" 
			},
			{
				"x": -0.112703972,
				"y": 0.6759284897,
				"z": 1.2513413145,
				"element": "C" 
			},
			{
				"x": 0.1182464455,
				"y": 0.324237679,
				"z": -0.0181402959,
				"element": "N" 
			},
			{
				"x": -0.6656851043,
				"y": 0.8832937848,
				"z": -0.9474269409,
				"element": "C" 
			},
			{
				"x": -0.3319931007,
				"y": 0.4278894241,
				"z": -2.3519503293,
				"element": "C" 
			},
			{
				"x": -1.3584089191,
				"y": 1.1438687277,
				"z": -3.6497484898,
				"element": "Cl" 
			},
			{
				"x": -1.6770283464,
				"y": 1.7888067633,
				"z": -0.6252548525,
				"element": "C" 
			},
			{
				"x": -1.8081226601,
				"y": 2.0658246461,
				"z": 0.7348425922,
				"element": "C" 
			},
			{
				"x": -3.0474246945,
				"y": 3.1908562583,
				"z": 1.2581734503,
				"element": "Cl" 
			},
			{
				"x": -1.0531400927,
				"y": 1.5333195299,
				"z": 1.678902233,
				"element": "N" 
			},
			{
				"x": 0.9666275011,
				"y": 0.1775032224,
				"z": 4.7783848853,
				"element": "H" 
			},
			{
				"x": -0.7010001353,
				"y": 0.353617727,
				"z": 4.1600370142,
				"element": "H" 
			},
			{
				"x": 0.4536944079,
				"y": 1.701077157,
				"z": 3.9973811396,
				"element": "H" 
			},
			{
				"x": -0.4372913914,
				"y": -0.6565502766,
				"z": -2.414863522,
				"element": "H" 
			},
			{
				"x": 0.7044349971,
				"y": 0.6841950708,
				"z": -2.5783771651,
				"element": "H" 
			},
			{
				"x": -2.3120507271,
				"y": 2.242386124,
				"z": -1.3723076846,
				"element": "H" 
			}
		],
		 "valence_orbital": [ 
			{
				"type": "occ",
				"energy": -0.31567,
				"method": "rhf"
			},
			{
				"type": "occ",
				"energy": -0.30817,
				"method": "rhf"
			},
			{
				"type": "occ",
				"energy": -0.30095,
				"method": "rhf"
			},
			{
				"type": "occ",
				"energy": -0.27995,
				"method": "rhf"
			},
			{
				"type": "occ",
				"energy": -0.24142,
				"method": "rhf"
			},
			{
				"type": "unocc",
				"energy": -0.05855,
				"method": "rhf"
			},
			{
				"type": "unocc",
				"energy": -0.04152,
				"method": "rhf"
			},
			{
				"type": "unocc",
				"energy": 0.01256,
				"method": "rhf"
			},
			{
				"type": "unocc",
				"energy": 0.01454,
				"method": "rhf"
			},
			{
				"type": "unocc",
				"energy": 0.03586,
				"method": "rhf"
			}
		],
		"cosmo_sigma_profile": { 
			"-0.025": 0.0,
			"-0.024": 0.0,
			"-0.023": 0.0,
			"-0.022": 0.0,
			"-0.021": 0.0,
			"-0.02": 0.0,
			"-0.019": 0.0,
			"-0.018": 0.0,
			"-0.017": 0.0,
			"-0.016": 0.0,
			"-0.015": 0.0,
			"-0.014": 0.0,
			"-0.013": 0.0,
			"-0.012": 0.0,
			"-0.011": 0.0,
			"-0.01": 0.196298299765,
			"-0.009": 3.30830186209,
			"-0.008": 4.14558152396,
			"-0.007": 7.62416751517,
			"-0.006": 9.3065250918,
			"-0.005": 9.98741463001,
			"-0.004": 12.2221425622,
			"-0.003": 17.4664333999,
			"-0.002": 23.1347788524,
			"-0.001": 19.847767436,
			"0.0": 14.1844441609,
			"0.001": 12.2724280494,
			"0.002": 14.9966407641,
			"0.003": 19.7374893648,
			"0.004": 16.9170936413,
			"0.005": 15.3542514267,
			"0.006": 8.93576593286,
			"0.007": 5.20658353189,
			"0.008": 2.18079801197,
			"0.009": 2.05567531959,
			"0.01": 0.476628832592,
			"0.011": 0.604610940925,
			"0.012": 0.569247164129,
			"0.013": 0.0157749345347,
			"0.014": 0.0,
			"0.015": 0.0,
			"0.016": 0.0,
			"0.017": 0.0,
			"0.018": 0.0,
			"0.019": 0.0,
			"0.02": 0.0,
			"0.021": 0.0,
			"0.022": 0.0,
			"0.023": 0.0,
			"0.024": 0.0,
			"0.025": 0.0
		}
	}
}
