{
	 "smiles": "CC1C(=O)OC(C)(C)OC1=O", 
	 "Tm": 384.15, 
	 "num_atms": 21, 
	 "gaussian": { 
		 "optdone": 1, 
		 "sigma_profile": "yes", 
		 "theory": "DFT", 
		 "functional": "B3LYP", 
		 "basiset": "6-31G**", 
		 "properties": { 
			 "R2extent": 2035.5053, 
			 "electric_dipole_moment_norm": 3.45538777274, 
			 "electric_quadrupole_moment_norm": 16.2228757642, 
			 "total_energy": -573.692517508, 
			 "HOMO_LUMO_gap": 0.26101, 
			 "cosmo_polarized_energy": -13.94, 
			 "cosmo_cavitation_energy": 24.09, 
			 "cosmo_dispersion_energy": -17.5, 
			 "cosmo_repulsion_energy": 1.41, 
			 "cosmo_total_nonelectrostatic_energy": 8.0, 
			 "SMD_solvation_energy": 6.49 
		},
		"coords": [
			{
				"x": 1.8502235124,
				"y": 0.2819510759,
				"z": -2.5525699546,
				"element": "C" 
			},
			{
				"x": 0.7008724587,
				"y": 0.6925720794,
				"z": -1.6308763083,
				"element": "C" 
			},
			{
				"x": 0.859580849,
				"y": 2.1155497788,
				"z": -1.1040760691,
				"element": "C" 
			},
			{
				"x": 1.5796917957,
				"y": 2.9436790553,
				"z": -1.5977202357,
				"element": "O" 
			},
			{
				"x": 0.127384222,
				"y": 2.4299452483,
				"z": 0.0005201061,
				"element": "O" 
			},
			{
				"x": -0.7736118368,
				"y": 1.4802891055,
				"z": 0.5947863717,
				"element": "C" 
			},
			{
				"x": -2.1301414414,
				"y": 1.5173642508,
				"z": -0.107586695,
				"element": "C" 
			},
			{
				"x": -0.8619780194,
				"y": 1.8615644409,
				"z": 2.0638967429,
				"element": "C" 
			},
			{
				"x": -0.2301135855,
				"y": 0.1495556961,
				"z": 0.5707632746,
				"element": "O" 
			},
			{
				"x": 0.4801891704,
				"y": -0.3057151364,
				"z": -0.4985398483,
				"element": "C" 
			},
			{
				"x": 0.8935402536,
				"y": -1.4358302177,
				"z": -0.5023322926,
				"element": "O" 
			},
			{
				"x": 2.7963473187,
				"y": 0.2701883447,
				"z": -2.0066796373,
				"element": "H" 
			},
			{
				"x": 1.9392348008,
				"y": 0.9930195676,
				"z": -3.3748489402,
				"element": "H" 
			},
			{
				"x": 1.6709071383,
				"y": -0.7191699709,
				"z": -2.9466507663,
				"element": "H" 
			},
			{
				"x": -0.2353428553,
				"y": 0.6943341455,
				"z": -2.2103374416,
				"element": "H" 
			},
			{
				"x": -2.0550382422,
				"y": 1.2419060485,
				"z": -1.1619811173,
				"element": "H" 
			},
			{
				"x": -2.8142555703,
				"y": 0.8193676724,
				"z": 0.3806979857,
				"element": "H" 
			},
			{
				"x": -2.5466983763,
				"y": 2.5254908091,
				"z": -0.0459434512,
				"element": "H" 
			},
			{
				"x": -1.5215060383,
				"y": 1.1672924313,
				"z": 2.5892430366,
				"element": "H" 
			},
			{
				"x": 0.1327262075,
				"y": 1.8173799975,
				"z": 2.5116400326,
				"element": "H" 
			},
			{
				"x": -1.2531117617,
				"y": 2.8766655776,
				"z": 2.1616952074,
				"element": "H" 
			}
		],
		 "valence_orbital": [ 
			{
				"type": "occ",
				"energy": -0.35827,
				"method": "rhf"
			},
			{
				"type": "occ",
				"energy": -0.32328,
				"method": "rhf"
			},
			{
				"type": "occ",
				"energy": -0.31087,
				"method": "rhf"
			},
			{
				"type": "occ",
				"energy": -0.29597,
				"method": "rhf"
			},
			{
				"type": "occ",
				"energy": -0.27883,
				"method": "rhf"
			},
			{
				"type": "unocc",
				"energy": -0.01782,
				"method": "rhf"
			},
			{
				"type": "unocc",
				"energy": 0.00188,
				"method": "rhf"
			},
			{
				"type": "unocc",
				"energy": 0.06506,
				"method": "rhf"
			},
			{
				"type": "unocc",
				"energy": 0.09022,
				"method": "rhf"
			},
			{
				"type": "unocc",
				"energy": 0.0939,
				"method": "rhf"
			}
		],
		"cosmo_sigma_profile": { 
			"-0.025": 0.0,
			"-0.024": 0.0,
			"-0.023": 0.0,
			"-0.022": 0.0,
			"-0.021": 0.0,
			"-0.02": 0.0,
			"-0.019": 0.0,
			"-0.018": 0.0,
			"-0.017": 0.0,
			"-0.016": 0.0,
			"-0.015": 0.0,
			"-0.014": 0.0,
			"-0.013": 0.0,
			"-0.012": 0.790571773774,
			"-0.011": 2.93213692258,
			"-0.01": 3.00621627432,
			"-0.009": 2.51375174029,
			"-0.008": 3.09268346415,
			"-0.007": 3.33342690916,
			"-0.006": 11.6396316011,
			"-0.005": 16.4884898375,
			"-0.004": 17.3529723439,
			"-0.003": 17.4792928117,
			"-0.002": 18.9788847559,
			"-0.001": 16.3988357104,
			"0.0": 9.6516234128,
			"0.001": 4.29253938219,
			"0.002": 3.81608343809,
			"0.003": 4.77296766604,
			"0.004": 4.56241130787,
			"0.005": 4.25017903983,
			"0.006": 4.83376709707,
			"0.007": 5.07461526369,
			"0.008": 5.31233620439,
			"0.009": 7.3530066408,
			"0.01": 7.54752426585,
			"0.011": 10.623826901,
			"0.012": 3.21675322236,
			"0.013": 0.0859146172067,
			"0.014": 0.0,
			"0.015": 0.0,
			"0.016": 0.0,
			"0.017": 0.0,
			"0.018": 0.0,
			"0.019": 0.0,
			"0.02": 0.0,
			"0.021": 0.0,
			"0.022": 0.0,
			"0.023": 0.0,
			"0.024": 0.0,
			"0.025": 0.0
		}
	}
}
