{
	 "smiles": "OCCC1=CC=CC=N1", 
	 "Tm": 265.25, 
	 "num_atms": 18, 
	 "gaussian": { 
		 "optdone": 1, 
		 "sigma_profile": "yes", 
		 "theory": "DFT", 
		 "functional": "B3LYP", 
		 "basiset": "6-31G**", 
		 "properties": { 
			 "R2extent": 1614.9801, 
			 "electric_dipole_moment_norm": 4.11223450815, 
			 "electric_quadrupole_moment_norm": 10.174772139, 
			 "total_energy": -402.139549622, 
			 "HOMO_LUMO_gap": 0.20622, 
			 "cosmo_polarized_energy": -8.17, 
			 "cosmo_cavitation_energy": 20.97, 
			 "cosmo_dispersion_energy": -15.91, 
			 "cosmo_repulsion_energy": 1.32, 
			 "cosmo_total_nonelectrostatic_energy": 6.38, 
			 "SMD_solvation_energy": 2.95 
		},
		"coords": [
			{
				"x": 1.1182428915,
				"y": -2.5028739284,
				"z": -0.7875114951,
				"element": "O" 
			},
			{
				"x": 1.8355097677,
				"y": -1.6242637419,
				"z": 0.0514737396,
				"element": "C" 
			},
			{
				"x": 1.169306687,
				"y": -1.4426552414,
				"z": 1.4281718407,
				"element": "C" 
			},
			{
				"x": -0.1451810193,
				"y": -0.6939986477,
				"z": 1.3703467975,
				"element": "C" 
			},
			{
				"x": -0.4957406136,
				"y": 0.2605466949,
				"z": 2.334711311,
				"element": "C" 
			},
			{
				"x": -1.7259314081,
				"y": 0.906988114,
				"z": 2.2418396747,
				"element": "C" 
			},
			{
				"x": -2.576268673,
				"y": 0.5912764017,
				"z": 1.1824915574,
				"element": "C" 
			},
			{
				"x": -2.1464151551,
				"y": -0.3612049373,
				"z": 0.260732488,
				"element": "C" 
			},
			{
				"x": -0.9695862037,
				"y": -0.9928082703,
				"z": 0.3467991311,
				"element": "N" 
			},
			{
				"x": 0.202279282,
				"y": -2.1696158518,
				"z": -0.7745299013,
				"element": "H" 
			},
			{
				"x": 2.8328446432,
				"y": -2.0560333332,
				"z": 0.1925670459,
				"element": "H" 
			},
			{
				"x": 1.9748682822,
				"y": -0.6325196833,
				"z": -0.4136961089,
				"element": "H" 
			},
			{
				"x": 1.8535781758,
				"y": -0.9254362357,
				"z": 2.1108999892,
				"element": "H" 
			},
			{
				"x": 0.9925141038,
				"y": -2.4427951059,
				"z": 1.846548267,
				"element": "H" 
			},
			{
				"x": 0.1917046308,
				"y": 0.4882717874,
				"z": 3.1436078486,
				"element": "H" 
			},
			{
				"x": -2.0145618692,
				"y": 1.6480665176,
				"z": 2.9819453013,
				"element": "H" 
			},
			{
				"x": -3.543497286,
				"y": 1.0696157213,
				"z": 1.0685820201,
				"element": "H" 
			},
			{
				"x": -2.7730662361,
				"y": -0.6335602601,
				"z": -0.5862795068,
				"element": "H" 
			}
		],
		 "valence_orbital": [ 
			{
				"type": "occ",
				"energy": -0.31827,
				"method": "rhf"
			},
			{
				"type": "occ",
				"energy": -0.29554,
				"method": "rhf"
			},
			{
				"type": "occ",
				"energy": -0.26473,
				"method": "rhf"
			},
			{
				"type": "occ",
				"energy": -0.26035,
				"method": "rhf"
			},
			{
				"type": "occ",
				"energy": -0.24081,
				"method": "rhf"
			},
			{
				"type": "unocc",
				"energy": -0.03459,
				"method": "rhf"
			},
			{
				"type": "unocc",
				"energy": -0.01789,
				"method": "rhf"
			},
			{
				"type": "unocc",
				"energy": 0.08481,
				"method": "rhf"
			},
			{
				"type": "unocc",
				"energy": 0.11468,
				"method": "rhf"
			},
			{
				"type": "unocc",
				"energy": 0.12466,
				"method": "rhf"
			}
		],
		"cosmo_sigma_profile": { 
			"-0.025": 0.0,
			"-0.024": 0.0,
			"-0.023": 0.0,
			"-0.022": 0.0,
			"-0.021": 0.0,
			"-0.02": 0.0,
			"-0.019": 0.0,
			"-0.018": 0.0,
			"-0.017": 0.0,
			"-0.016": 0.0,
			"-0.015": 0.0,
			"-0.014": 0.0,
			"-0.013": 0.0,
			"-0.012": 0.0,
			"-0.011": 0.0,
			"-0.01": 0.0,
			"-0.009": 0.0,
			"-0.008": 0.0333127021377,
			"-0.007": 4.68412250162,
			"-0.006": 10.5611697758,
			"-0.005": 12.1853609048,
			"-0.004": 14.2069428229,
			"-0.003": 15.8158369597,
			"-0.002": 15.7781779956,
			"-0.001": 15.4532383952,
			"0.0": 10.5731370227,
			"0.001": 11.4396792914,
			"0.002": 15.9571802405,
			"0.003": 13.9439325886,
			"0.004": 5.72835307905,
			"0.005": 2.81739436306,
			"0.006": 1.76534980699,
			"0.007": 2.14740159824,
			"0.008": 1.30525173851,
			"0.009": 1.13472754829,
			"0.01": 0.757130195305,
			"0.011": 1.50099082792,
			"0.012": 1.66628907004,
			"0.013": 1.7513801661,
			"0.014": 0.947943192429,
			"0.015": 3.1001425206,
			"0.016": 0.802355625521,
			"0.017": 0.0,
			"0.018": 0.0,
			"0.019": 0.0,
			"0.02": 0.0,
			"0.021": 0.0,
			"0.022": 0.0,
			"0.023": 0.0,
			"0.024": 0.0,
			"0.025": 0.0
		}
	}
}
