{
	 "smiles": "CC1CC(=O)C=C(C)C11CCC(C1)=C(C)C", 
	 "Tm": 317.65, 
	 "num_atms": 38, 
	 "gaussian": { 
		 "optdone": 1, 
		 "sigma_profile": "yes", 
		 "theory": "DFT", 
		 "functional": "B3LYP", 
		 "basiset": "6-31G**", 
		 "properties": { 
			 "R2extent": 4550.4477, 
			 "electric_dipole_moment_norm": 4.5849065214, 
			 "electric_quadrupole_moment_norm": 19.4304171409, 
			 "total_energy": -660.071998061, 
			 "HOMO_LUMO_gap": 0.18208, 
			 "cosmo_polarized_energy": -9.56, 
			 "cosmo_cavitation_energy": 36.28, 
			 "cosmo_dispersion_energy": -25.15, 
			 "cosmo_repulsion_energy": 1.95, 
			 "cosmo_total_nonelectrostatic_energy": 13.08, 
			 "SMD_solvation_energy": 6.53 
		},
		"coords": [
			{
				"x": 0.6198178405,
				"y": 3.4635960471,
				"z": -1.5021659155,
				"element": "C" 
			},
			{
				"x": 0.8403942037,
				"y": 2.6983535595,
				"z": -0.1855320294,
				"element": "C" 
			},
			{
				"x": 2.3413208922,
				"y": 2.5709905864,
				"z": 0.127271174,
				"element": "C" 
			},
			{
				"x": 3.0500489175,
				"y": 1.570922717,
				"z": -0.7771778971,
				"element": "C" 
			},
			{
				"x": 4.2495296742,
				"y": 1.6492374334,
				"z": -1.0105946012,
				"element": "O" 
			},
			{
				"x": 2.2218267684,
				"y": 0.4924641624,
				"z": -1.3417216632,
				"element": "C" 
			},
			{
				"x": 0.8982807941,
				"y": 0.344603617,
				"z": -1.1089211424,
				"element": "C" 
			},
			{
				"x": 0.1568672171,
				"y": -0.7846166216,
				"z": -1.7798204107,
				"element": "C" 
			},
			{
				"x": 0.1598340421,
				"y": 1.2974220528,
				"z": -0.1572867599,
				"element": "C" 
			},
			{
				"x": 0.1609611495,
				"y": 0.702655618,
				"z": 1.29322076,
				"element": "C" 
			},
			{
				"x": -1.0482859362,
				"y": -0.2476996614,
				"z": 1.3777527389,
				"element": "C" 
			},
			{
				"x": -2.0376049431,
				"y": 0.2725961258,
				"z": 0.3383993809,
				"element": "C" 
			},
			{
				"x": -1.3669014163,
				"y": 1.3972707217,
				"z": -0.43936501,
				"element": "C" 
			},
			{
				"x": -3.2881946821,
				"y": -0.1812720644,
				"z": 0.1528038696,
				"element": "C" 
			},
			{
				"x": -4.2305604575,
				"y": 0.3840617898,
				"z": -0.8830102112,
				"element": "C" 
			},
			{
				"x": -3.8768238656,
				"y": -1.3033426703,
				"z": 0.9748874428,
				"element": "C" 
			},
			{
				"x": -0.4429845696,
				"y": 3.6253043951,
				"z": -1.7047538565,
				"element": "H" 
			},
			{
				"x": 1.0981935635,
				"y": 4.4472652493,
				"z": -1.4500271285,
				"element": "H" 
			},
			{
				"x": 1.0488455769,
				"y": 2.9326046689,
				"z": -2.3576525123,
				"element": "H" 
			},
			{
				"x": 0.3733554103,
				"y": 3.2867314787,
				"z": 0.6163851032,
				"element": "H" 
			},
			{
				"x": 2.4864028408,
				"y": 2.2261853317,
				"z": 1.1602163822,
				"element": "H" 
			},
			{
				"x": 2.8594759335,
				"y": 3.5315118702,
				"z": 0.0451576585,
				"element": "H" 
			},
			{
				"x": 2.7513767154,
				"y": -0.1994986174,
				"z": -1.9924973478,
				"element": "H" 
			},
			{
				"x": -0.353879423,
				"y": -1.4305944774,
				"z": -1.0592557996,
				"element": "H" 
			},
			{
				"x": -0.620830403,
				"y": -0.40342073,
				"z": -2.451812509,
				"element": "H" 
			},
			{
				"x": 0.8406423423,
				"y": -1.3992787664,
				"z": -2.3701760151,
				"element": "H" 
			},
			{
				"x": 1.1034694231,
				"y": 0.211934051,
				"z": 1.5487759421,
				"element": "H" 
			},
			{
				"x": 0.0228299861,
				"y": 1.5330656957,
				"z": 1.9969829852,
				"element": "H" 
			},
			{
				"x": -0.7477741539,
				"y": -1.2803053871,
				"z": 1.156651092,
				"element": "H" 
			},
			{
				"x": -1.471648362,
				"y": -0.265286393,
				"z": 2.3880068352,
				"element": "H" 
			},
			{
				"x": -1.7148919152,
				"y": 2.3684411586,
				"z": -0.0575454288,
				"element": "H" 
			},
			{
				"x": -1.602993292,
				"y": 1.3891944498,
				"z": -1.506646884,
				"element": "H" 
			},
			{
				"x": -3.7875039322,
				"y": 1.1862083345,
				"z": -1.4760749561,
				"element": "H" 
			},
			{
				"x": -5.13448532,
				"y": 0.7858693315,
				"z": -0.4054067687,
				"element": "H" 
			},
			{
				"x": -4.5711091607,
				"y": -0.3995899384,
				"z": -1.5732483544,
				"element": "H" 
			},
			{
				"x": -4.7713580017,
				"y": -0.9657170082,
				"z": 1.5156991669,
				"element": "H" 
			},
			{
				"x": -4.2026844067,
				"y": -2.1294096988,
				"z": 0.3283545397,
				"element": "H" 
			},
			{
				"x": -3.1769590507,
				"y": -1.7097584113,
				"z": 1.7074281302,
				"element": "H" 
			}
		],
		 "valence_orbital": [ 
			{
				"type": "occ",
				"energy": -0.31668,
				"method": "rhf"
			},
			{
				"type": "occ",
				"energy": -0.30631,
				"method": "rhf"
			},
			{
				"type": "occ",
				"energy": -0.25128,
				"method": "rhf"
			},
			{
				"type": "occ",
				"energy": -0.22826,
				"method": "rhf"
			},
			{
				"type": "occ",
				"energy": -0.22525,
				"method": "rhf"
			},
			{
				"type": "unocc",
				"energy": -0.04317,
				"method": "rhf"
			},
			{
				"type": "unocc",
				"energy": 0.015,
				"method": "rhf"
			},
			{
				"type": "unocc",
				"energy": 0.06534,
				"method": "rhf"
			},
			{
				"type": "unocc",
				"energy": 0.07461,
				"method": "rhf"
			},
			{
				"type": "unocc",
				"energy": 0.0921,
				"method": "rhf"
			}
		],
		"cosmo_sigma_profile": { 
			"-0.025": 0.0,
			"-0.024": 0.0,
			"-0.023": 0.0,
			"-0.022": 0.0,
			"-0.021": 0.0,
			"-0.02": 0.0,
			"-0.019": 0.0,
			"-0.018": 0.0,
			"-0.017": 0.0,
			"-0.016": 0.0,
			"-0.015": 0.0,
			"-0.014": 0.0,
			"-0.013": 0.0,
			"-0.012": 0.0,
			"-0.011": 0.0,
			"-0.01": 0.0,
			"-0.009": 0.0,
			"-0.008": 0.0,
			"-0.007": 0.0,
			"-0.006": 0.151720387083,
			"-0.005": 6.99880244446,
			"-0.004": 18.5016279361,
			"-0.003": 43.3450657683,
			"-0.002": 44.4184084465,
			"-0.001": 44.4722681197,
			"0.0": 36.6491160902,
			"0.001": 32.15765957,
			"0.002": 15.135620134,
			"0.003": 7.63283887832,
			"0.004": 5.48553925816,
			"0.005": 3.20793221331,
			"0.006": 2.270694444,
			"0.007": 2.40752038917,
			"0.008": 1.13461417627,
			"0.009": 1.65720133625,
			"0.01": 1.66473717727,
			"0.011": 1.71065448255,
			"0.012": 3.0163071045,
			"0.013": 4.92261802502,
			"0.014": 3.26548944937,
			"0.015": 0.853004242582,
			"0.016": 0.0,
			"0.017": 0.0,
			"0.018": 0.0,
			"0.019": 0.0,
			"0.02": 0.0,
			"0.021": 0.0,
			"0.022": 0.0,
			"0.023": 0.0,
			"0.024": 0.0,
			"0.025": 0.0
		}
	}
}
