{
	 "smiles": "COC1=CC=C(C(OC)=C1C(O)=O)[N+]([O-])=O", 
	 "Tm": 404.15, 
	 "num_atms": 25, 
	 "gaussian": { 
		 "optdone": 1, 
		 "sigma_profile": "yes", 
		 "theory": "DFT", 
		 "functional": "B3LYP", 
		 "basiset": "6-31G**", 
		 "properties": { 
			 "R2extent": 4374.4114, 
			 "electric_dipole_moment_norm": 5.94997431507, 
			 "electric_quadrupole_moment_norm": 22.9238563193, 
			 "total_energy": -854.347929224, 
			 "HOMO_LUMO_gap": 0.17158, 
			 "cosmo_polarized_energy": -16.93, 
			 "cosmo_cavitation_energy": 30.15, 
			 "cosmo_dispersion_energy": -21.7, 
			 "cosmo_repulsion_energy": 1.7, 
			 "cosmo_total_nonelectrostatic_energy": 10.15, 
			 "SMD_solvation_energy": 9.94 
		},
		"coords": [
			{
				"x": -3.3042450188,
				"y": -2.1376232691,
				"z": 0.6428735904,
				"element": "C" 
			},
			{
				"x": -2.4128906648,
				"y": -1.1993572997,
				"z": 0.0469301146,
				"element": "O" 
			},
			{
				"x": -1.7293538941,
				"y": -0.3481913858,
				"z": 0.8436815444,
				"element": "C" 
			},
			{
				"x": -1.8109866582,
				"y": -0.3367900786,
				"z": 2.2436814778,
				"element": "C" 
			},
			{
				"x": -1.0565834332,
				"y": 0.5803181805,
				"z": 2.9597552429,
				"element": "C" 
			},
			{
				"x": -0.1940195448,
				"y": 1.4681565354,
				"z": 2.3159869913,
				"element": "C" 
			},
			{
				"x": -0.085360698,
				"y": 1.4624562305,
				"z": 0.9045097182,
				"element": "C" 
			},
			{
				"x": 0.6436563999,
				"y": 2.3693222599,
				"z": 0.2057553789,
				"element": "O" 
			},
			{
				"x": 2.025573296,
				"y": 2.0361462123,
				"z": -0.0496456768,
				"element": "C" 
			},
			{
				"x": -0.874813561,
				"y": 0.5566006853,
				"z": 0.1831522023,
				"element": "C" 
			},
			{
				"x": -0.784703456,
				"y": 0.5557742843,
				"z": -1.3165594377,
				"element": "C" 
			},
			{
				"x": -1.943275672,
				"y": 0.931923348,
				"z": -1.8926864745,
				"element": "O" 
			},
			{
				"x": 0.2034970204,
				"y": 0.2599453632,
				"z": -1.9522122871,
				"element": "O" 
			},
			{
				"x": 0.5347491086,
				"y": 2.411463599,
				"z": 3.1644783099,
				"element": "N" 
			},
			{
				"x": 0.1130080022,
				"y": 2.576478436,
				"z": 4.312429985,
				"element": "O" 
			},
			{
				"x": 1.5237783105,
				"y": 2.9817743726,
				"z": 2.7057214202,
				"element": "O" 
			},
			{
				"x": -2.7715629585,
				"y": -2.8268739791,
				"z": 1.3083157478,
				"element": "H" 
			},
			{
				"x": -3.7392912911,
				"y": -2.6973942428,
				"z": -0.1851337576,
				"element": "H" 
			},
			{
				"x": -4.1016693508,
				"y": -1.6317502562,
				"z": 1.19917942,
				"element": "H" 
			},
			{
				"x": -2.4576820563,
				"y": -1.024856262,
				"z": 2.7723204618,
				"element": "H" 
			},
			{
				"x": -1.1223451659,
				"y": 0.6296996172,
				"z": 4.0394252435,
				"element": "H" 
			},
			{
				"x": 2.4333204003,
				"y": 2.8934134549,
				"z": -0.5862763124,
				"element": "H" 
			},
			{
				"x": 2.0798667896,
				"y": 1.142115736,
				"z": -0.6755195261,
				"element": "H" 
			},
			{
				"x": 2.5651637443,
				"y": 1.904593506,
				"z": 0.8898506093,
				"element": "H" 
			},
			{
				"x": -1.7951296483,
				"y": 0.8860549522,
				"z": -2.8531139862,
				"element": "H" 
			}
		],
		 "valence_orbital": [ 
			{
				"type": "occ",
				"energy": -0.29346,
				"method": "rhf"
			},
			{
				"type": "occ",
				"energy": -0.28531,
				"method": "rhf"
			},
			{
				"type": "occ",
				"energy": -0.27982,
				"method": "rhf"
			},
			{
				"type": "occ",
				"energy": -0.26552,
				"method": "rhf"
			},
			{
				"type": "occ",
				"energy": -0.25303,
				"method": "rhf"
			},
			{
				"type": "unocc",
				"energy": -0.08145,
				"method": "rhf"
			},
			{
				"type": "unocc",
				"energy": -0.04048,
				"method": "rhf"
			},
			{
				"type": "unocc",
				"energy": -0.00319,
				"method": "rhf"
			},
			{
				"type": "unocc",
				"energy": 0.014,
				"method": "rhf"
			},
			{
				"type": "unocc",
				"energy": 0.06805,
				"method": "rhf"
			}
		],
		"cosmo_sigma_profile": { 
			"-0.025": 0.0,
			"-0.024": 0.0,
			"-0.023": 0.0,
			"-0.022": 0.0,
			"-0.021": 0.0,
			"-0.02": 0.0,
			"-0.019": 0.379179537672,
			"-0.018": 1.25230667625,
			"-0.017": 0.439370900698,
			"-0.016": 1.08652084927,
			"-0.015": 0.69188430389,
			"-0.014": 0.661217747926,
			"-0.013": 0.782831842543,
			"-0.012": 0.721968247047,
			"-0.011": 0.403258057249,
			"-0.01": 0.688986633001,
			"-0.009": 0.968032906908,
			"-0.008": 5.76484593077,
			"-0.007": 10.1758319968,
			"-0.006": 15.8425749648,
			"-0.005": 13.8669345046,
			"-0.004": 19.7608160297,
			"-0.003": 19.6772662541,
			"-0.002": 13.2774807539,
			"-0.001": 16.7967020315,
			"0.0": 15.0661125834,
			"0.001": 13.7463305785,
			"0.002": 9.73928527743,
			"0.003": 8.18763797888,
			"0.004": 8.1318245179,
			"0.005": 9.54371453559,
			"0.006": 6.79611808355,
			"0.007": 9.45005285544,
			"0.008": 13.9220101132,
			"0.009": 10.033368122,
			"0.01": 8.54974842887,
			"0.011": 3.83711105435,
			"0.012": 0.228547795411,
			"0.013": 0.0,
			"0.014": 0.0,
			"0.015": 0.0,
			"0.016": 0.0,
			"0.017": 0.0,
			"0.018": 0.0,
			"0.019": 0.0,
			"0.02": 0.0,
			"0.021": 0.0,
			"0.022": 0.0,
			"0.023": 0.0,
			"0.024": 0.0,
			"0.025": 0.0
		}
	}
}
