{
	 "smiles": "CN1C=CN=C1CN1CCC(CC1)C(O)=O", 
	 "Tm": 447.15, 
	 "num_atms": 33, 
	 "gaussian": { 
		 "optdone": 1, 
		 "sigma_profile": "yes", 
		 "theory": "DFT", 
		 "functional": "B3LYP", 
		 "basiset": "6-31G**", 
		 "properties": { 
			 "R2extent": 5266.3737, 
			 "electric_dipole_moment_norm": 3.44833440519, 
			 "electric_quadrupole_moment_norm": 18.2721381538, 
			 "total_energy": -744.11769777, 
			 "HOMO_LUMO_gap": 0.21935, 
			 "cosmo_polarized_energy": -16.28, 
			 "cosmo_cavitation_energy": 34.59, 
			 "cosmo_dispersion_energy": -24.21, 
			 "cosmo_repulsion_energy": 1.89, 
			 "cosmo_total_nonelectrostatic_energy": 12.27, 
			 "SMD_solvation_energy": 4.68 
		},
		"coords": [
			{
				"x": -3.0829874592,
				"y": -0.3783894911,
				"z": 1.4653940167,
				"element": "C" 
			},
			{
				"x": -2.4636891192,
				"y": -1.6409952094,
				"z": 1.8412617157,
				"element": "N" 
			},
			{
				"x": -2.7384920382,
				"y": -2.3838833398,
				"z": 2.9718450869,
				"element": "C" 
			},
			{
				"x": -1.945652437,
				"y": -3.500860712,
				"z": 2.8867071681,
				"element": "C" 
			},
			{
				"x": -1.1920926572,
				"y": -3.4684583691,
				"z": 1.7373154015,
				"element": "N" 
			},
			{
				"x": -1.5271447093,
				"y": -2.3447546039,
				"z": 1.1246897534,
				"element": "C" 
			},
			{
				"x": -0.9629628919,
				"y": -1.8901449112,
				"z": -0.187791028,
				"element": "C" 
			},
			{
				"x": -0.2302221585,
				"y": -0.6192975117,
				"z": -0.0984850628,
				"element": "N" 
			},
			{
				"x": 0.0466086957,
				"y": -0.0848277866,
				"z": -1.4418485404,
				"element": "C" 
			},
			{
				"x": 1.0730892411,
				"y": 1.0457455235,
				"z": -1.3768439114,
				"element": "C" 
			},
			{
				"x": 2.4575940014,
				"y": 0.548008973,
				"z": -0.8638152946,
				"element": "C" 
			},
			{
				"x": 2.2820451153,
				"y": -0.7533952517,
				"z": -0.0334074011,
				"element": "C" 
			},
			{
				"x": 0.9734843044,
				"y": -0.6922543572,
				"z": 0.7636403885,
				"element": "C" 
			},
			{
				"x": 3.463948975,
				"y": 0.3335099894,
				"z": -1.9763656108,
				"element": "C" 
			},
			{
				"x": 2.9741675665,
				"y": -0.4535185969,
				"z": -2.9721198452,
				"element": "O" 
			},
			{
				"x": 4.5906180709,
				"y": 0.7776267817,
				"z": -2.0060774949,
				"element": "O" 
			},
			{
				"x": -3.9790309379,
				"y": -0.5391884619,
				"z": 0.8550356628,
				"element": "H" 
			},
			{
				"x": -3.368182346,
				"y": 0.1673073002,
				"z": 2.3676491984,
				"element": "H" 
			},
			{
				"x": -2.3554193325,
				"y": 0.2109899798,
				"z": 0.9041303532,
				"element": "H" 
			},
			{
				"x": -3.449364499,
				"y": -2.0470612952,
				"z": 3.7116353124,
				"element": "H" 
			},
			{
				"x": -1.8707250203,
				"y": -4.3188933766,
				"z": 3.5899868206,
				"element": "H" 
			},
			{
				"x": -1.7734218861,
				"y": -1.740308193,
				"z": -0.9143988395,
				"element": "H" 
			},
			{
				"x": -0.3463695375,
				"y": -2.721448821,
				"z": -0.569097809,
				"element": "H" 
			},
			{
				"x": 0.4178633072,
				"y": -0.8643044471,
				"z": -2.1304469828,
				"element": "H" 
			},
			{
				"x": -0.8946800726,
				"y": 0.2862135205,
				"z": -1.8671906624,
				"element": "H" 
			},
			{
				"x": 1.1661739773,
				"y": 1.5124932197,
				"z": -2.3618332588,
				"element": "H" 
			},
			{
				"x": 0.7016433026,
				"y": 1.8177202914,
				"z": -0.6940155123,
				"element": "H" 
			},
			{
				"x": 2.9029245776,
				"y": 1.3156290567,
				"z": -0.2254350126,
				"element": "H" 
			},
			{
				"x": 2.2656239046,
				"y": -1.6230375702,
				"z": -0.6993348242,
				"element": "H" 
			},
			{
				"x": 3.1337693337,
				"y": -0.8851175434,
				"z": 0.6418124275,
				"element": "H" 
			},
			{
				"x": 0.9988832648,
				"y": 0.1851719653,
				"z": 1.4252401169,
				"element": "H" 
			},
			{
				"x": 0.8857484955,
				"y": -1.5686005854,
				"z": 1.411575482,
				"element": "H" 
			},
			{
				"x": 3.6933509685,
				"y": -0.5445761671,
				"z": -3.6196118139,
				"element": "H" 
			}
		],
		 "valence_orbital": [ 
			{
				"type": "occ",
				"energy": -0.26932,
				"method": "rhf"
			},
			{
				"type": "occ",
				"energy": -0.26082,
				"method": "rhf"
			},
			{
				"type": "occ",
				"energy": -0.25685,
				"method": "rhf"
			},
			{
				"type": "occ",
				"energy": -0.21735,
				"method": "rhf"
			},
			{
				"type": "occ",
				"energy": -0.21118,
				"method": "rhf"
			},
			{
				"type": "unocc",
				"energy": 0.00817,
				"method": "rhf"
			},
			{
				"type": "unocc",
				"energy": 0.02664,
				"method": "rhf"
			},
			{
				"type": "unocc",
				"energy": 0.06361,
				"method": "rhf"
			},
			{
				"type": "unocc",
				"energy": 0.07439,
				"method": "rhf"
			},
			{
				"type": "unocc",
				"energy": 0.08471,
				"method": "rhf"
			}
		],
		"cosmo_sigma_profile": { 
			"-0.025": 0.0,
			"-0.024": 0.0,
			"-0.023": 0.0,
			"-0.022": 0.0,
			"-0.021": 0.0,
			"-0.02": 0.0,
			"-0.019": 0.0,
			"-0.018": 0.606279443811,
			"-0.017": 0.640700246481,
			"-0.016": 1.27393567499,
			"-0.015": 0.38931194164,
			"-0.014": 0.878387144449,
			"-0.013": 0.526497013018,
			"-0.012": 0.433436225048,
			"-0.011": 1.15520681517,
			"-0.01": 0.738758610611,
			"-0.009": 0.447054506666,
			"-0.008": 1.62438162049,
			"-0.007": 4.56652199263,
			"-0.006": 7.08122161469,
			"-0.005": 13.6228822656,
			"-0.004": 27.0495150693,
			"-0.003": 36.8285714052,
			"-0.002": 38.1794994785,
			"-0.001": 26.244222721,
			"0.0": 14.5852565107,
			"0.001": 11.310402363,
			"0.002": 9.65438708743,
			"0.003": 9.49987774655,
			"0.004": 8.95279674202,
			"0.005": 10.1689529766,
			"0.006": 9.03803722466,
			"0.007": 6.37361304944,
			"0.008": 3.89176575505,
			"0.009": 2.80189401201,
			"0.01": 3.80191693383,
			"0.011": 4.03633893705,
			"0.012": 6.37716966718,
			"0.013": 2.71903944394,
			"0.014": 0.882701805951,
			"0.015": 0.967885515083,
			"0.016": 0.677067001408,
			"0.017": 1.22022013774,
			"0.018": 0.636178833615,
			"0.019": 0.483142883202,
			"0.02": 0.0,
			"0.021": 0.0,
			"0.022": 0.0,
			"0.023": 0.0,
			"0.024": 0.0,
			"0.025": 0.0
		}
	}
}
