{
	 "smiles": "OC(=O)C1=C(Cl)C=C(C=C1)N1CCCS1(=O)=O", 
	 "Tm": 500.15, 
	 "num_atms": 27, 
	 "gaussian": { 
		 "optdone": 1, 
		 "sigma_profile": "yes", 
		 "theory": "DFT", 
		 "functional": "B3LYP", 
		 "basiset": "6-31G**", 
		 "properties": { 
			 "R2extent": 6478.7577, 
			 "electric_dipole_moment_norm": 8.22702272393, 
			 "electric_quadrupole_moment_norm": 20.0195295164, 
			 "total_energy": -1601.05253222, 
			 "HOMO_LUMO_gap": 0.1867, 
			 "cosmo_polarized_energy": -23.12, 
			 "cosmo_cavitation_energy": 33.31, 
			 "cosmo_dispersion_energy": -25.11, 
			 "cosmo_repulsion_energy": 1.87, 
			 "cosmo_total_nonelectrostatic_energy": 10.07, 
			 "SMD_solvation_energy": 4.92 
		},
		"coords": [
			{
				"x": 2.1400084751,
				"y": -1.8187387088,
				"z": -5.0589828266,
				"element": "O" 
			},
			{
				"x": 1.7619632159,
				"y": -0.6604742718,
				"z": -4.4902520764,
				"element": "C" 
			},
			{
				"x": 1.7814651973,
				"y": 0.3612675188,
				"z": -5.141960257,
				"element": "O" 
			},
			{
				"x": 1.3036021388,
				"y": -0.6481847564,
				"z": -3.0485612638,
				"element": "C" 
			},
			{
				"x": 1.2897977671,
				"y": -1.6855964863,
				"z": -2.0971556187,
				"element": "C" 
			},
			{
				"x": 1.8854490068,
				"y": -3.3178148637,
				"z": -2.4559645732,
				"element": "Cl" 
			},
			{
				"x": 0.838817772,
				"y": -1.5047497535,
				"z": -0.7962249783,
				"element": "C" 
			},
			{
				"x": 0.3417249051,
				"y": -0.2540388798,
				"z": -0.3933822789,
				"element": "C" 
			},
			{
				"x": 0.3449014067,
				"y": 0.802977757,
				"z": -1.3181860982,
				"element": "C" 
			},
			{
				"x": 0.8233298612,
				"y": 0.5946772789,
				"z": -2.6020177669,
				"element": "C" 
			},
			{
				"x": -0.1033827832,
				"y": -0.0689244865,
				"z": 0.9247956187,
				"element": "N" 
			},
			{
				"x": -0.4707234703,
				"y": 1.2470336953,
				"z": 1.4513801822,
				"element": "C" 
			},
			{
				"x": -0.7521152134,
				"y": 1.0244212891,
				"z": 2.9441561879,
				"element": "C" 
			},
			{
				"x": -1.6006029738,
				"y": -0.2437822623,
				"z": 3.0298987012,
				"element": "C" 
			},
			{
				"x": -0.9342923862,
				"y": -1.3544505048,
				"z": 1.7467169521,
				"element": "S" 
			},
			{
				"x": -2.0110972917,
				"y": -1.8853458438,
				"z": 0.9072982131,
				"element": "O" 
			},
			{
				"x": 0.0612368309,
				"y": -2.2721586495,
				"z": 2.3062688588,
				"element": "O" 
			},
			{
				"x": 2.0832649943,
				"y": -2.5608368844,
				"z": -4.434726354,
				"element": "H" 
			},
			{
				"x": 0.8928124608,
				"y": -2.3266565232,
				"z": -0.0931340855,
				"element": "H" 
			},
			{
				"x": -0.0298478919,
				"y": 1.7818458842,
				"z": -1.044348622,
				"element": "H" 
			},
			{
				"x": 0.8318501715,
				"y": 1.4036974268,
				"z": -3.3235059044,
				"element": "H" 
			},
			{
				"x": -1.3556452859,
				"y": 1.6602829997,
				"z": 0.9436079664,
				"element": "H" 
			},
			{
				"x": 0.3648690443,
				"y": 1.9363591722,
				"z": 1.3012950329,
				"element": "H" 
			},
			{
				"x": 0.1903492523,
				"y": 0.8852690372,
				"z": 3.4807666625,
				"element": "H" 
			},
			{
				"x": -1.2754873078,
				"y": 1.8787587646,
				"z": 3.3805747342,
				"element": "H" 
			},
			{
				"x": -1.5368350701,
				"y": -0.7774459968,
				"z": 3.9791866645,
				"element": "H" 
			},
			{
				"x": -2.6460128261,
				"y": -0.071991952,
				"z": 2.7627569296,
				"element": "H" 
			}
		],
		 "valence_orbital": [ 
			{
				"type": "occ",
				"energy": -0.31302,
				"method": "rhf"
			},
			{
				"type": "occ",
				"energy": -0.299,
				"method": "rhf"
			},
			{
				"type": "occ",
				"energy": -0.27205,
				"method": "rhf"
			},
			{
				"type": "occ",
				"energy": -0.27076,
				"method": "rhf"
			},
			{
				"type": "occ",
				"energy": -0.2425,
				"method": "rhf"
			},
			{
				"type": "unocc",
				"energy": -0.0558,
				"method": "rhf"
			},
			{
				"type": "unocc",
				"energy": -0.03146,
				"method": "rhf"
			},
			{
				"type": "unocc",
				"energy": 0.00244,
				"method": "rhf"
			},
			{
				"type": "unocc",
				"energy": 0.02689,
				"method": "rhf"
			},
			{
				"type": "unocc",
				"energy": 0.03293,
				"method": "rhf"
			}
		],
		"cosmo_sigma_profile": { 
			"-0.025": 0.0,
			"-0.024": 0.0,
			"-0.023": 0.0,
			"-0.022": 0.0,
			"-0.021": 0.0,
			"-0.02": 0.0,
			"-0.019": 0.0,
			"-0.018": 0.0,
			"-0.017": 0.0,
			"-0.016": 0.0,
			"-0.015": 0.0,
			"-0.014": 0.0,
			"-0.013": 0.0,
			"-0.012": 0.0982352683145,
			"-0.011": 0.876235983406,
			"-0.01": 1.61612505577,
			"-0.009": 6.63921250807,
			"-0.008": 10.3883193546,
			"-0.007": 17.4728427412,
			"-0.006": 25.7940158732,
			"-0.005": 19.4878280982,
			"-0.004": 16.5974221515,
			"-0.003": 13.4064140546,
			"-0.002": 11.4848008396,
			"-0.001": 11.4372626276,
			"0.0": 15.8729111791,
			"0.001": 22.3627456457,
			"0.002": 16.7340848008,
			"0.003": 9.75292648871,
			"0.004": 4.89774717061,
			"0.005": 5.17305601149,
			"0.006": 4.94742718603,
			"0.007": 5.17199344843,
			"0.008": 6.62604126911,
			"0.009": 6.89603424711,
			"0.01": 17.001218347,
			"0.011": 11.2174923256,
			"0.012": 4.23090061626,
			"0.013": 1.85587582085,
			"0.014": 0.123830397064,
			"0.015": 0.0,
			"0.016": 0.0,
			"0.017": 0.0,
			"0.018": 0.0,
			"0.019": 0.0,
			"0.02": 0.0,
			"0.021": 0.0,
			"0.022": 0.0,
			"0.023": 0.0,
			"0.024": 0.0,
			"0.025": 0.0
		}
	}
}
