{
	 "smiles": "OC1=CC(O)=C(O)C2=C1C(=O)C1=C(C=CC=C1)C2=O", 
	 "Tm": 532.15, 
	 "num_atms": 27, 
	 "gaussian": { 
		 "optdone": 1, 
		 "sigma_profile": "yes", 
		 "theory": "DFT", 
		 "functional": "B3LYP", 
		 "basiset": "6-31G**", 
		 "properties": { 
			 "R2extent": 5091.1402, 
			 "electric_dipole_moment_norm": 2.89461584498, 
			 "electric_quadrupole_moment_norm": 10.5309437469, 
			 "total_energy": -914.469362837, 
			 "HOMO_LUMO_gap": 0.10814, 
			 "cosmo_polarized_energy": -10.27, 
			 "cosmo_cavitation_energy": 30.84, 
			 "cosmo_dispersion_energy": -23.98, 
			 "cosmo_repulsion_energy": 1.75, 
			 "cosmo_total_nonelectrostatic_energy": 8.61, 
			 "SMD_solvation_energy": 6.49 
		},
		"coords": [
			{
				"x": 1.1068171362,
				"y": 2.9982817612,
				"z": 2.4681532932,
				"element": "O" 
			},
			{
				"x": 0.0720385736,
				"y": 2.1671281802,
				"z": 2.3301841574,
				"element": "C" 
			},
			{
				"x": -1.0065748606,
				"y": 2.2963778603,
				"z": 3.2340689656,
				"element": "C" 
			},
			{
				"x": -2.1011702972,
				"y": 1.4612248214,
				"z": 3.1344964865,
				"element": "C" 
			},
			{
				"x": -3.138074581,
				"y": 1.5712618978,
				"z": 3.9884202606,
				"element": "O" 
			},
			{
				"x": -2.1558493842,
				"y": 0.4586632042,
				"z": 2.1184665981,
				"element": "C" 
			},
			{
				"x": -3.2632254692,
				"y": -0.3045345365,
				"z": 2.1037696417,
				"element": "O" 
			},
			{
				"x": -1.098901429,
				"y": 0.3209461605,
				"z": 1.2210169439,
				"element": "C" 
			},
			{
				"x": 0.0378547504,
				"y": 1.1817413618,
				"z": 1.3175520472,
				"element": "C" 
			},
			{
				"x": 1.147235745,
				"y": 1.0550384546,
				"z": 0.3944634643,
				"element": "C" 
			},
			{
				"x": 2.1520267054,
				"y": 1.7990345114,
				"z": 0.4622919142,
				"element": "O" 
			},
			{
				"x": 1.0683255321,
				"y": 0.003722727,
				"z": -0.6557492789,
				"element": "C" 
			},
			{
				"x": -0.0535721541,
				"y": -0.8478311516,
				"z": -0.7531936373,
				"element": "C" 
			},
			{
				"x": -0.1004135371,
				"y": -1.8286758844,
				"z": -1.7520415601,
				"element": "C" 
			},
			{
				"x": 0.9570924282,
				"y": -1.9638462106,
				"z": -2.6471236344,
				"element": "C" 
			},
			{
				"x": 2.0699382219,
				"y": -1.1196608344,
				"z": -2.5509854654,
				"element": "C" 
			},
			{
				"x": 2.1254355033,
				"y": -0.1413632216,
				"z": -1.5609857131,
				"element": "C" 
			},
			{
				"x": -1.1843162253,
				"y": -0.7141269178,
				"z": 0.1925521721,
				"element": "C" 
			},
			{
				"x": -2.1811688992,
				"y": -1.4646305806,
				"z": 0.1126423491,
				"element": "O" 
			},
			{
				"x": 1.7539922857,
				"y": 2.7525306816,
				"z": 1.7488261429,
				"element": "H" 
			},
			{
				"x": -0.9669131328,
				"y": 3.0563880599,
				"z": 4.0055481022,
				"element": "H" 
			},
			{
				"x": -3.7910308106,
				"y": 0.8949601215,
				"z": 3.741458272,
				"element": "H" 
			},
			{
				"x": -3.1356995572,
				"y": -0.9419940058,
				"z": 1.3422075024,
				"element": "H" 
			},
			{
				"x": -0.9734720295,
				"y": -2.4700029792,
				"z": -1.8054189554,
				"element": "H" 
			},
			{
				"x": 0.9180262651,
				"y": -2.7251512817,
				"z": -3.4204407434,
				"element": "H" 
			},
			{
				"x": 2.8936265058,
				"y": -1.2272423116,
				"z": -3.2505561146,
				"element": "H" 
			},
			{
				"x": 2.9769727147,
				"y": 0.5236601126,
				"z": -1.4673232108,
				"element": "H" 
			}
		],
		 "valence_orbital": [ 
			{
				"type": "occ",
				"energy": -0.27901,
				"method": "rhf"
			},
			{
				"type": "occ",
				"energy": -0.27447,
				"method": "rhf"
			},
			{
				"type": "occ",
				"energy": -0.2688,
				"method": "rhf"
			},
			{
				"type": "occ",
				"energy": -0.25559,
				"method": "rhf"
			},
			{
				"type": "occ",
				"energy": -0.21944,
				"method": "rhf"
			},
			{
				"type": "unocc",
				"energy": -0.1113,
				"method": "rhf"
			},
			{
				"type": "unocc",
				"energy": -0.05768,
				"method": "rhf"
			},
			{
				"type": "unocc",
				"energy": -0.0252,
				"method": "rhf"
			},
			{
				"type": "unocc",
				"energy": -0.00124,
				"method": "rhf"
			},
			{
				"type": "unocc",
				"energy": 0.05209,
				"method": "rhf"
			}
		],
		"cosmo_sigma_profile": { 
			"-0.025": 0.0,
			"-0.024": 0.0,
			"-0.023": 0.0,
			"-0.022": 0.0,
			"-0.021": 0.0,
			"-0.02": 0.0,
			"-0.019": 0.0,
			"-0.018": 0.0,
			"-0.017": 0.0,
			"-0.016": 0.155566387146,
			"-0.015": 0.931971636484,
			"-0.014": 0.657648240481,
			"-0.013": 0.48306363432,
			"-0.012": 0.501848942954,
			"-0.011": 0.708159815241,
			"-0.01": 0.5224927105,
			"-0.009": 0.73588600583,
			"-0.008": 2.5835706041,
			"-0.007": 8.53685461938,
			"-0.006": 11.9229522551,
			"-0.005": 12.9621751094,
			"-0.004": 13.8423331252,
			"-0.003": 19.1500188238,
			"-0.002": 19.1967843807,
			"-0.001": 23.5597165471,
			"0.0": 26.0559528771,
			"0.001": 27.1168629537,
			"0.002": 21.0198415123,
			"0.003": 10.1401431588,
			"0.004": 7.67276910862,
			"0.005": 6.81941873503,
			"0.006": 6.79934744831,
			"0.007": 6.30720733243,
			"0.008": 5.04050149754,
			"0.009": 6.67323892828,
			"0.01": 6.53806730389,
			"0.011": 2.7692741178,
			"0.012": 0.0122436694012,
			"0.013": 0.0,
			"0.014": 0.0,
			"0.015": 0.0,
			"0.016": 0.0,
			"0.017": 0.0,
			"0.018": 0.0,
			"0.019": 0.0,
			"0.02": 0.0,
			"0.021": 0.0,
			"0.022": 0.0,
			"0.023": 0.0,
			"0.024": 0.0,
			"0.025": 0.0
		}
	}
}
