{
	 "smiles": "ClC1=CC=C(C=C1)N1CCC(Br)C1=O", 
	 "Tm": 357.15, 
	 "num_atms": 23, 
	 "gaussian": { 
		 "optdone": 1, 
		 "sigma_profile": "yes", 
		 "theory": "DFT", 
		 "functional": "B3LYP", 
		 "basiset": "6-31G**", 
		 "properties": { 
			 "R2extent": 6517.7548, 
			 "electric_dipole_moment_norm": 4.54110547334, 
			 "electric_quadrupole_moment_norm": 14.3245056159, 
			 "total_energy": -3548.07924862, 
			 "HOMO_LUMO_gap": 0.17522, 
			 "cosmo_polarized_energy": -12.13, 
			 "cosmo_cavitation_energy": 30.32, 
			 "cosmo_dispersion_energy": -22.85, 
			 "cosmo_repulsion_energy": 1.79, 
			 "cosmo_total_nonelectrostatic_energy": 9.26, 
			 "SMD_solvation_energy": 3.54 
		},
		"coords": [
			{
				"x": -1.8575046375,
				"y": -6.2214362056,
				"z": 0.7239563709,
				"element": "Cl" 
			},
			{
				"x": -1.1357362621,
				"y": -4.6841784205,
				"z": 0.2714084463,
				"element": "C" 
			},
			{
				"x": 0.1020679484,
				"y": -4.3170697345,
				"z": 0.7972530662,
				"element": "C" 
			},
			{
				"x": 0.6817610083,
				"y": -3.1030240322,
				"z": 0.4398261235,
				"element": "C" 
			},
			{
				"x": 0.0206498505,
				"y": -2.2382946864,
				"z": -0.4519738341,
				"element": "C" 
			},
			{
				"x": -1.2288254352,
				"y": -2.6226818698,
				"z": -0.9673425914,
				"element": "C" 
			},
			{
				"x": -1.805315635,
				"y": -3.8398998302,
				"z": -0.6096070796,
				"element": "C" 
			},
			{
				"x": 0.5860028801,
				"y": -1.0025242288,
				"z": -0.8476612741,
				"element": "N" 
			},
			{
				"x": -0.0090235272,
				"y": -0.1925438968,
				"z": -1.9194025369,
				"element": "C" 
			},
			{
				"x": 1.0780253699,
				"y": 0.8473781765,
				"z": -2.2287514849,
				"element": "C" 
			},
			{
				"x": 1.7905058318,
				"y": 1.0107869553,
				"z": -0.8969141975,
				"element": "C" 
			},
			{
				"x": 0.8734777955,
				"y": 2.3588693218,
				"z": 0.2537152413,
				"element": "Br" 
			},
			{
				"x": 1.643492621,
				"y": -0.3550996397,
				"z": -0.2239197835,
				"element": "C" 
			},
			{
				"x": 2.3427585909,
				"y": -0.7743540939,
				"z": 0.6799076007,
				"element": "O" 
			},
			{
				"x": 0.6173604613,
				"y": -4.9788594627,
				"z": 1.4846382288,
				"element": "H" 
			},
			{
				"x": 1.6371062297,
				"y": -2.8144031575,
				"z": 0.8530132073,
				"element": "H" 
			},
			{
				"x": -1.7740194773,
				"y": -1.9741069926,
				"z": -1.6423462775,
				"element": "H" 
			},
			{
				"x": -2.7710262473,
				"y": -4.1244922287,
				"z": -1.0121544005,
				"element": "H" 
			},
			{
				"x": -0.9353504383,
				"y": 0.2843671507,
				"z": -1.5752420984,
				"element": "H" 
			},
			{
				"x": -0.2406118111,
				"y": -0.8173137018,
				"z": -2.7859461505,
				"element": "H" 
			},
			{
				"x": 0.6770951095,
				"y": 1.7768079644,
				"z": -2.6342447158,
				"element": "H" 
			},
			{
				"x": 1.7908258911,
				"y": 0.4331843841,
				"z": -2.9522125719,
				"element": "H" 
			},
			{
				"x": 2.8269838829,
				"y": 1.3352882291,
				"z": -0.9345992885,
				"element": "H" 
			}
		],
		 "valence_orbital": [ 
			{
				"type": "occ",
				"energy": -0.29208,
				"method": "rhf"
			},
			{
				"type": "occ",
				"energy": -0.28679,
				"method": "rhf"
			},
			{
				"type": "occ",
				"energy": -0.26787,
				"method": "rhf"
			},
			{
				"type": "occ",
				"energy": -0.26367,
				"method": "rhf"
			},
			{
				"type": "occ",
				"energy": -0.22689,
				"method": "rhf"
			},
			{
				"type": "unocc",
				"energy": -0.05167,
				"method": "rhf"
			},
			{
				"type": "unocc",
				"energy": -0.01753,
				"method": "rhf"
			},
			{
				"type": "unocc",
				"energy": -0.00624,
				"method": "rhf"
			},
			{
				"type": "unocc",
				"energy": 0.03002,
				"method": "rhf"
			},
			{
				"type": "unocc",
				"energy": 0.04355,
				"method": "rhf"
			}
		],
		"cosmo_sigma_profile": { 
			"-0.025": 0.0,
			"-0.024": 0.0,
			"-0.023": 0.0,
			"-0.022": 0.0,
			"-0.021": 0.0,
			"-0.02": 0.0,
			"-0.019": 0.0,
			"-0.018": 0.0,
			"-0.017": 0.0,
			"-0.016": 0.0,
			"-0.015": 0.0,
			"-0.014": 0.0,
			"-0.013": 0.0,
			"-0.012": 0.0,
			"-0.011": 0.0,
			"-0.01": 0.0,
			"-0.009": 1.43318717041,
			"-0.008": 5.34349398166,
			"-0.007": 14.3492585393,
			"-0.006": 17.724724348,
			"-0.005": 17.4126829256,
			"-0.004": 15.5479335489,
			"-0.003": 13.2313963712,
			"-0.002": 12.8644342361,
			"-0.001": 12.1542513784,
			"0.0": 13.9953834122,
			"0.001": 17.5358930112,
			"0.002": 21.647231094,
			"0.003": 24.76776217,
			"0.004": 21.8477710948,
			"0.005": 19.7127070285,
			"0.006": 4.83705780052,
			"0.007": 1.02090153492,
			"0.008": 1.56503568727,
			"0.009": 1.75758686104,
			"0.01": 1.87785456134,
			"0.011": 2.52326949893,
			"0.012": 3.06501197393,
			"0.013": 1.35489645322,
			"0.014": 0.0276114666167,
			"0.015": 0.0,
			"0.016": 0.0,
			"0.017": 0.0,
			"0.018": 0.0,
			"0.019": 0.0,
			"0.02": 0.0,
			"0.021": 0.0,
			"0.022": 0.0,
			"0.023": 0.0,
			"0.024": 0.0,
			"0.025": 0.0
		}
	}
}
