{
	 "smiles": "CC(C)(C)C1=CC2=C(OC(N)=N2)C=C1", 
	 "Tm": 420.15, 
	 "num_atms": 28, 
	 "gaussian": { 
		 "optdone": 1, 
		 "sigma_profile": "yes", 
		 "theory": "DFT", 
		 "functional": "B3LYP", 
		 "basiset": "6-31G**", 
		 "properties": { 
			 "R2extent": 3647.6365, 
			 "electric_dipole_moment_norm": 2.03576796566, 
			 "electric_quadrupole_moment_norm": 15.8597124633, 
			 "total_energy": -612.354217603, 
			 "HOMO_LUMO_gap": 0.20364, 
			 "cosmo_polarized_energy": -11.23, 
			 "cosmo_cavitation_energy": 30.2, 
			 "cosmo_dispersion_energy": -22.11, 
			 "cosmo_repulsion_energy": 1.73, 
			 "cosmo_total_nonelectrostatic_energy": 9.82, 
			 "SMD_solvation_energy": 3.59 
		},
		"coords": [
			{
				"x": -2.4856531177,
				"y": -0.5113258095,
				"z": 0.5762496168,
				"element": "C" 
			},
			{
				"x": -1.4940368005,
				"y": -1.076960817,
				"z": -0.4682836867,
				"element": "C" 
			},
			{
				"x": -1.0934493801,
				"y": -2.5163769982,
				"z": -0.0659065945,
				"element": "C" 
			},
			{
				"x": -2.2203816431,
				"y": -1.1465709665,
				"z": -1.8252317049,
				"element": "C" 
			},
			{
				"x": -0.2345267411,
				"y": -0.1872206946,
				"z": -0.5158903882,
				"element": "C" 
			},
			{
				"x": 0.5323583086,
				"y": -0.0289246624,
				"z": 0.6542375482,
				"element": "C" 
			},
			{
				"x": 1.6699638326,
				"y": 0.7716067964,
				"z": 0.6168314869,
				"element": "C" 
			},
			{
				"x": 2.0318691295,
				"y": 1.4042459812,
				"z": -0.5800361604,
				"element": "C" 
			},
			{
				"x": 3.1881254873,
				"y": 2.1276081229,
				"z": -0.3331478841,
				"element": "O" 
			},
			{
				"x": 3.4357075485,
				"y": 1.878823882,
				"z": 0.9941159447,
				"element": "C" 
			},
			{
				"x": 4.5756013193,
				"y": 2.440491314,
				"z": 1.4902094282,
				"element": "N" 
			},
			{
				"x": 2.5961057163,
				"y": 1.1057858538,
				"z": 1.6122451103,
				"element": "N" 
			},
			{
				"x": 1.3151400309,
				"y": 1.2830124464,
				"z": -1.7513281475,
				"element": "C" 
			},
			{
				"x": 0.1721731951,
				"y": 0.4712728378,
				"z": -1.6929263066,
				"element": "C" 
			},
			{
				"x": -2.7935065505,
				"y": 0.505811913,
				"z": 0.3120730948,
				"element": "H" 
			},
			{
				"x": -3.3846978978,
				"y": -1.1362394517,
				"z": 0.6280837056,
				"element": "H" 
			},
			{
				"x": -2.0463563582,
				"y": -0.4765403965,
				"z": 1.5774545587,
				"element": "H" 
			},
			{
				"x": -1.9785345831,
				"y": -3.1614183961,
				"z": -0.0207100239,
				"element": "H" 
			},
			{
				"x": -0.3965695688,
				"y": -2.9457998312,
				"z": -0.7932310914,
				"element": "H" 
			},
			{
				"x": -0.6100856358,
				"y": -2.545217261,
				"z": 0.9149580349,
				"element": "H" 
			},
			{
				"x": -3.1032475064,
				"y": -1.7881459199,
				"z": -1.7370271631,
				"element": "H" 
			},
			{
				"x": -2.5620121506,
				"y": -0.1604102793,
				"z": -2.1566632525,
				"element": "H" 
			},
			{
				"x": -1.5829228307,
				"y": -1.569941278,
				"z": -2.6084458803,
				"element": "H" 
			},
			{
				"x": 0.2564263887,
				"y": -0.5168314545,
				"z": 1.5827922882,
				"element": "H" 
			},
			{
				"x": 4.9017551997,
				"y": 3.2743100741,
				"z": 1.024109424,
				"element": "H" 
			},
			{
				"x": 4.627451418,
				"y": 2.4540571072,
				"z": 2.4979604614,
				"element": "H" 
			},
			{
				"x": 1.6131177248,
				"y": 1.7815662112,
				"z": -2.6672337272,
				"element": "H" 
			},
			{
				"x": -0.4083145347,
				"y": 0.3574316763,
				"z": -2.5999586915,
				"element": "H" 
			}
		],
		 "valence_orbital": [ 
			{
				"type": "occ",
				"energy": -0.31287,
				"method": "rhf"
			},
			{
				"type": "occ",
				"energy": -0.2897,
				"method": "rhf"
			},
			{
				"type": "occ",
				"energy": -0.28015,
				"method": "rhf"
			},
			{
				"type": "occ",
				"energy": -0.22837,
				"method": "rhf"
			},
			{
				"type": "occ",
				"energy": -0.20674,
				"method": "rhf"
			},
			{
				"type": "unocc",
				"energy": -0.0031,
				"method": "rhf"
			},
			{
				"type": "unocc",
				"energy": 0.0188,
				"method": "rhf"
			},
			{
				"type": "unocc",
				"energy": 0.05876,
				"method": "rhf"
			},
			{
				"type": "unocc",
				"energy": 0.0759,
				"method": "rhf"
			},
			{
				"type": "unocc",
				"energy": 0.08846,
				"method": "rhf"
			}
		],
		"cosmo_sigma_profile": { 
			"-0.025": 0.0,
			"-0.024": 0.0,
			"-0.023": 0.0,
			"-0.022": 0.0,
			"-0.021": 0.0,
			"-0.02": 0.0,
			"-0.019": 0.0,
			"-0.018": 0.0,
			"-0.017": 0.0,
			"-0.016": 0.0280945472913,
			"-0.015": 1.63064583614,
			"-0.014": 2.52111377169,
			"-0.013": 2.1493612366,
			"-0.012": 2.42648635306,
			"-0.011": 2.35380468992,
			"-0.01": 1.38163167653,
			"-0.009": 2.03263329245,
			"-0.008": 1.30750780815,
			"-0.007": 3.34882515543,
			"-0.006": 3.90123428421,
			"-0.005": 6.4092086982,
			"-0.004": 9.42942476747,
			"-0.003": 17.7572126085,
			"-0.002": 27.1152515158,
			"-0.001": 23.3382602901,
			"0.0": 21.8279502463,
			"0.001": 28.116112027,
			"0.002": 21.0977091746,
			"0.003": 10.1386729011,
			"0.004": 12.2125361161,
			"0.005": 12.6729066844,
			"0.006": 8.08773827214,
			"0.007": 3.85556891216,
			"0.008": 2.22910207869,
			"0.009": 1.91771548578,
			"0.01": 1.55322410969,
			"0.011": 1.34765439391,
			"0.012": 0.965506629846,
			"0.013": 0.937475236823,
			"0.014": 1.00440073736,
			"0.015": 1.16081220745,
			"0.016": 0.920075295769,
			"0.017": 0.335350805348,
			"0.018": 0.0,
			"0.019": 0.0,
			"0.02": 0.0,
			"0.021": 0.0,
			"0.022": 0.0,
			"0.023": 0.0,
			"0.024": 0.0,
			"0.025": 0.0
		}
	}
}
