{
	 "smiles": "CC1=CC(=CC(C)=C1OCC1=CC=CC=C1)C(O)=O", 
	 "Tm": 432.15, 
	 "num_atms": 35, 
	 "gaussian": { 
		 "optdone": 1, 
		 "sigma_profile": "yes", 
		 "theory": "DFT", 
		 "functional": "B3LYP", 
		 "basiset": "6-31G**", 
		 "properties": { 
			 "R2extent": 7746.4632, 
			 "electric_dipole_moment_norm": 5.0265437937, 
			 "electric_quadrupole_moment_norm": 29.5313084568, 
			 "total_energy": -845.029386457, 
			 "HOMO_LUMO_gap": 0.20208, 
			 "cosmo_polarized_energy": -16.57, 
			 "cosmo_cavitation_energy": 38.96, 
			 "cosmo_dispersion_energy": -27.14, 
			 "cosmo_repulsion_energy": 2.08, 
			 "cosmo_total_nonelectrostatic_energy": 13.91, 
			 "SMD_solvation_energy": 7.73 
		},
		"coords": [
			{
				"x": 1.0411589517,
				"y": 1.5366275927,
				"z": 1.9725663186,
				"element": "C" 
			},
			{
				"x": 1.4731367626,
				"y": 0.1148285303,
				"z": 1.7078711311,
				"element": "C" 
			},
			{
				"x": 2.4451888167,
				"y": -0.5013207719,
				"z": 2.4976018637,
				"element": "C" 
			},
			{
				"x": 2.8778135128,
				"y": -1.8050784093,
				"z": 2.2347546274,
				"element": "C" 
			},
			{
				"x": 2.3120666712,
				"y": -2.5124043707,
				"z": 1.1657439727,
				"element": "C" 
			},
			{
				"x": 1.3277946009,
				"y": -1.9388371831,
				"z": 0.3579369341,
				"element": "C" 
			},
			{
				"x": 0.7209869749,
				"y": -2.6919190303,
				"z": -0.800395602,
				"element": "C" 
			},
			{
				"x": 0.9183181556,
				"y": -0.6252069984,
				"z": 0.6476459944,
				"element": "C" 
			},
			{
				"x": -0.0094778617,
				"y": -0.0325474734,
				"z": -0.1872816557,
				"element": "O" 
			},
			{
				"x": -1.3692660578,
				"y": -0.1023768056,
				"z": 0.2547177633,
				"element": "C" 
			},
			{
				"x": -2.272610657,
				"y": 0.5856253115,
				"z": -0.7433680238,
				"element": "C" 
			},
			{
				"x": -1.7635515699,
				"y": 1.385437126,
				"z": -1.7704452582,
				"element": "C" 
			},
			{
				"x": -2.6311584013,
				"y": 2.0262694616,
				"z": -2.6585451085,
				"element": "C" 
			},
			{
				"x": -4.0117699682,
				"y": 1.8778968728,
				"z": -2.5272753505,
				"element": "C" 
			},
			{
				"x": -4.525076262,
				"y": 1.079298221,
				"z": -1.5020733814,
				"element": "C" 
			},
			{
				"x": -3.6601145611,
				"y": 0.4357950662,
				"z": -0.6185157318,
				"element": "C" 
			},
			{
				"x": 3.924915418,
				"y": -2.3846637571,
				"z": 3.1349393787,
				"element": "C" 
			},
			{
				"x": 4.6328448036,
				"y": -3.4419710086,
				"z": 2.649170995,
				"element": "O" 
			},
			{
				"x": 4.1605447517,
				"y": -1.9625576987,
				"z": 4.2431623637,
				"element": "O" 
			},
			{
				"x": 0.1453929114,
				"y": 1.5753507095,
				"z": 2.60472703,
				"element": "H" 
			},
			{
				"x": 1.8275958002,
				"y": 2.0892485584,
				"z": 2.4928226007,
				"element": "H" 
			},
			{
				"x": 0.8040736959,
				"y": 2.0547252524,
				"z": 1.0401391856,
				"element": "H" 
			},
			{
				"x": 2.8940829673,
				"y": 0.0308972799,
				"z": 3.3302364336,
				"element": "H" 
			},
			{
				"x": 2.6011215186,
				"y": -3.5421984863,
				"z": 0.9651194529,
				"element": "H" 
			},
			{
				"x": -0.3111098752,
				"y": -2.996537273,
				"z": -0.5904455195,
				"element": "H" 
			},
			{
				"x": 0.6903020198,
				"y": -2.0699563143,
				"z": -1.6990569963,
				"element": "H" 
			},
			{
				"x": 1.2923403825,
				"y": -3.5976894273,
				"z": -1.0198168201,
				"element": "H" 
			},
			{
				"x": -1.4630795372,
				"y": 0.3740437629,
				"z": 1.2415021978,
				"element": "H" 
			},
			{
				"x": -1.6691075397,
				"y": -1.15314698,
				"z": 0.3765726923,
				"element": "H" 
			},
			{
				"x": -0.6901521336,
				"y": 1.4959724,
				"z": -1.8734609903,
				"element": "H" 
			},
			{
				"x": -2.2238022788,
				"y": 2.6427640587,
				"z": -3.4550323482,
				"element": "H" 
			},
			{
				"x": -4.6842126507,
				"y": 2.3772204559,
				"z": -3.2188123536,
				"element": "H" 
			},
			{
				"x": -5.5986544885,
				"y": 0.9537004958,
				"z": -1.3936770525,
				"element": "H" 
			},
			{
				"x": -4.0666565881,
				"y": -0.189137691,
				"z": 0.1740277007,
				"element": "H" 
			},
			{
				"x": 4.4535217154,
				"y": -3.5534514768,
				"z": 1.7054435563,
				"element": "H" 
			}
		],
		 "valence_orbital": [ 
			{
				"type": "occ",
				"energy": -0.26975,
				"method": "rhf"
			},
			{
				"type": "occ",
				"energy": -0.25593,
				"method": "rhf"
			},
			{
				"type": "occ",
				"energy": -0.25382,
				"method": "rhf"
			},
			{
				"type": "occ",
				"energy": -0.24819,
				"method": "rhf"
			},
			{
				"type": "occ",
				"energy": -0.24663,
				"method": "rhf"
			},
			{
				"type": "unocc",
				"energy": -0.04455,
				"method": "rhf"
			},
			{
				"type": "unocc",
				"energy": -0.01621,
				"method": "rhf"
			},
			{
				"type": "unocc",
				"energy": -0.0082,
				"method": "rhf"
			},
			{
				"type": "unocc",
				"energy": -0.00327,
				"method": "rhf"
			},
			{
				"type": "unocc",
				"energy": 0.0488,
				"method": "rhf"
			}
		],
		"cosmo_sigma_profile": { 
			"-0.025": 0.0,
			"-0.024": 0.0,
			"-0.023": 0.0,
			"-0.022": 0.0,
			"-0.021": 0.0,
			"-0.02": 0.0,
			"-0.019": 0.0699411896452,
			"-0.018": 0.658744123866,
			"-0.017": 0.863970338521,
			"-0.016": 0.730113948152,
			"-0.015": 1.33520496155,
			"-0.014": 1.2257565499,
			"-0.013": 0.551919371534,
			"-0.012": 0.648487985122,
			"-0.011": 1.51086391545,
			"-0.01": 1.04496377006,
			"-0.009": 0.977143690895,
			"-0.008": 1.71476373062,
			"-0.007": 1.86456586303,
			"-0.006": 11.028608542,
			"-0.005": 26.0090535837,
			"-0.004": 26.4503467055,
			"-0.003": 26.4043241204,
			"-0.002": 23.7392431347,
			"-0.001": 26.7870250317,
			"0.0": 26.8711618547,
			"0.001": 18.3169104535,
			"0.002": 20.3784365742,
			"0.003": 21.1898989374,
			"0.004": 15.469780637,
			"0.005": 13.0953530391,
			"0.006": 12.3877021734,
			"0.007": 4.5963680986,
			"0.008": 2.82803123016,
			"0.009": 3.46055378102,
			"0.01": 3.97104519436,
			"0.011": 5.46405718781,
			"0.012": 5.5883637875,
			"0.013": 2.10111325736,
			"0.014": 0.185471694561,
			"0.015": 0.0,
			"0.016": 0.0,
			"0.017": 0.0,
			"0.018": 0.0,
			"0.019": 0.0,
			"0.02": 0.0,
			"0.021": 0.0,
			"0.022": 0.0,
			"0.023": 0.0,
			"0.024": 0.0,
			"0.025": 0.0
		}
	}
}
