{
	 "smiles": "NS(=O)(=O)C1=CC=C(F)C2=NON=C12", 
	 "Tm": 418.15, 
	 "num_atms": 18, 
	 "gaussian": { 
		 "optdone": 1, 
		 "sigma_profile": "yes", 
		 "theory": "DFT", 
		 "functional": "B3LYP", 
		 "basiset": "6-31G**", 
		 "properties": { 
			 "R2extent": 3269.0439, 
			 "electric_dipole_moment_norm": 4.32665547276, 
			 "electric_quadrupole_moment_norm": 23.4421313545, 
			 "total_energy": -1118.81491862, 
			 "HOMO_LUMO_gap": 0.15224, 
			 "cosmo_polarized_energy": -18.08, 
			 "cosmo_cavitation_energy": 25.4, 
			 "cosmo_dispersion_energy": -19.3, 
			 "cosmo_repulsion_energy": 1.43, 
			 "cosmo_total_nonelectrostatic_energy": 7.52, 
			 "SMD_solvation_energy": 4.03 
		},
		"coords": [
			{
				"x": 0.7486451733,
				"y": 1.8944428628,
				"z": 2.9733620357,
				"element": "N" 
			},
			{
				"x": 1.2006263636,
				"y": 2.4604948532,
				"z": 1.4733105604,
				"element": "S" 
			},
			{
				"x": 2.6585412242,
				"y": 2.4656157885,
				"z": 1.4517588581,
				"element": "O" 
			},
			{
				"x": 0.4010391628,
				"y": 3.6529421833,
				"z": 1.2035472225,
				"element": "O" 
			},
			{
				"x": 0.6609540199,
				"y": 1.2138743569,
				"z": 0.293907429,
				"element": "C" 
			},
			{
				"x": 0.0102699956,
				"y": 1.5705437824,
				"z": -0.8574098416,
				"element": "C" 
			},
			{
				"x": -0.353472214,
				"y": 0.6145327877,
				"z": -1.8646972663,
				"element": "C" 
			},
			{
				"x": -0.0632265138,
				"y": -0.7101049525,
				"z": -1.7127650541,
				"element": "C" 
			},
			{
				"x": -0.3883115818,
				"y": -1.6161110879,
				"z": -2.6344051457,
				"element": "F" 
			},
			{
				"x": 0.5991151928,
				"y": -1.1374882728,
				"z": -0.5225928432,
				"element": "C" 
			},
			{
				"x": 0.9571401478,
				"y": -2.339866706,
				"z": -0.1095562336,
				"element": "N" 
			},
			{
				"x": 1.5212169083,
				"y": -2.1259458145,
				"z": 1.1115422523,
				"element": "O" 
			},
			{
				"x": 1.528484228,
				"y": -0.8097883301,
				"z": 1.4829811122,
				"element": "N" 
			},
			{
				"x": 0.9627370414,
				"y": -0.1709111875,
				"z": 0.473857409,
				"element": "C" 
			},
			{
				"x": 1.2148038166,
				"y": 1.0274668368,
				"z": 3.2284838106,
				"element": "H" 
			},
			{
				"x": -0.2557776821,
				"y": 1.8859972781,
				"z": 3.1170240415,
				"element": "H" 
			},
			{
				"x": -0.2372341747,
				"y": 2.6158389589,
				"z": -1.0104503292,
				"element": "H" 
			},
			{
				"x": -0.8637511079,
				"y": 0.9439666627,
				"z": -2.7626980175,
				"element": "H" 
			}
		],
		 "valence_orbital": [ 
			{
				"type": "occ",
				"energy": -0.32729,
				"method": "rhf"
			},
			{
				"type": "occ",
				"energy": -0.32409,
				"method": "rhf"
			},
			{
				"type": "occ",
				"energy": -0.31918,
				"method": "rhf"
			},
			{
				"type": "occ",
				"energy": -0.31667,
				"method": "rhf"
			},
			{
				"type": "occ",
				"energy": -0.27344,
				"method": "rhf"
			},
			{
				"type": "unocc",
				"energy": -0.1212,
				"method": "rhf"
			},
			{
				"type": "unocc",
				"energy": -0.03319,
				"method": "rhf"
			},
			{
				"type": "unocc",
				"energy": -0.02795,
				"method": "rhf"
			},
			{
				"type": "unocc",
				"energy": 0.04245,
				"method": "rhf"
			},
			{
				"type": "unocc",
				"energy": 0.05781,
				"method": "rhf"
			}
		],
		"cosmo_sigma_profile": { 
			"-0.025": 0.0,
			"-0.024": 0.0,
			"-0.023": 0.0,
			"-0.022": 0.0,
			"-0.021": 0.0,
			"-0.02": 0.0,
			"-0.019": 0.0,
			"-0.018": 0.0,
			"-0.017": 0.0804277360519,
			"-0.016": 1.16133095305,
			"-0.015": 1.6158430211,
			"-0.014": 0.932380976754,
			"-0.013": 3.02664823377,
			"-0.012": 2.21234718844,
			"-0.011": 1.76688263628,
			"-0.01": 3.76736441142,
			"-0.009": 5.61057270484,
			"-0.008": 5.34301725916,
			"-0.007": 5.96449747136,
			"-0.006": 9.71675065352,
			"-0.005": 11.4871606909,
			"-0.004": 10.37111704,
			"-0.003": 13.0637365696,
			"-0.002": 12.915243815,
			"-0.001": 10.5152129071,
			"0.0": 7.21192421524,
			"0.001": 7.9774392105,
			"0.002": 16.4747400548,
			"0.003": 13.3194162891,
			"0.004": 9.34583792081,
			"0.005": 6.5114125648,
			"0.006": 6.54601232485,
			"0.007": 6.67870958925,
			"0.008": 5.48888946101,
			"0.009": 6.91461088299,
			"0.01": 11.8126886381,
			"0.011": 7.63693219536,
			"0.012": 0.0163431127234,
			"0.013": 0.0,
			"0.014": 0.0,
			"0.015": 0.0,
			"0.016": 0.0,
			"0.017": 0.0,
			"0.018": 0.0,
			"0.019": 0.0,
			"0.02": 0.0,
			"0.021": 0.0,
			"0.022": 0.0,
			"0.023": 0.0,
			"0.024": 0.0,
			"0.025": 0.0
		}
	}
}
