{
	 "smiles": "CC1=NN(C(=O)C1)C1=CC=C(F)C=C1", 
	 "Tm": 422.15, 
	 "num_atms": 23, 
	 "gaussian": { 
		 "optdone": 1, 
		 "sigma_profile": "yes", 
		 "theory": "DFT", 
		 "functional": "B3LYP", 
		 "basiset": "6-31G**", 
		 "properties": { 
			 "R2extent": 4016.1256, 
			 "electric_dipole_moment_norm": 4.5346030587, 
			 "electric_quadrupole_moment_norm": 11.5616064658, 
			 "total_energy": -671.036508034, 
			 "HOMO_LUMO_gap": 0.17563, 
			 "cosmo_polarized_energy": -10.55, 
			 "cosmo_cavitation_energy": 27.74, 
			 "cosmo_dispersion_energy": -20.49, 
			 "cosmo_repulsion_energy": 1.58, 
			 "cosmo_total_nonelectrostatic_energy": 8.84, 
			 "SMD_solvation_energy": 5.37 
		},
		"coords": [
			{
				"x": 3.8288652423,
				"y": -1.1230070436,
				"z": -1.6630825896,
				"element": "C" 
			},
			{
				"x": 2.7789302525,
				"y": -1.0406136398,
				"z": -0.6054054319,
				"element": "C" 
			},
			{
				"x": 2.1917589871,
				"y": 0.0692442627,
				"z": -0.3198479872,
				"element": "N" 
			},
			{
				"x": 1.2630836419,
				"y": -0.1635426389,
				"z": 0.703524147,
				"element": "N" 
			},
			{
				"x": 1.2388616178,
				"y": -1.4957744126,
				"z": 1.1115552791,
				"element": "C" 
			},
			{
				"x": 0.540257763,
				"y": -1.9960202717,
				"z": 1.9748461417,
				"element": "O" 
			},
			{
				"x": 2.2832721813,
				"y": -2.1818353159,
				"z": 0.2332612321,
				"element": "C" 
			},
			{
				"x": 0.493121844,
				"y": 0.9279966425,
				"z": 1.1826144671,
				"element": "C" 
			},
			{
				"x": 0.6826975271,
				"y": 2.2000462029,
				"z": 0.6215169112,
				"element": "C" 
			},
			{
				"x": -0.0632160907,
				"y": 3.2838947957,
				"z": 1.0779979643,
				"element": "C" 
			},
			{
				"x": -0.9931257914,
				"y": 3.088979802,
				"z": 2.091793525,
				"element": "C" 
			},
			{
				"x": -1.7166727565,
				"y": 4.1408419866,
				"z": 2.5344383486,
				"element": "F" 
			},
			{
				"x": -1.1947124514,
				"y": 1.8376168859,
				"z": 2.6593453922,
				"element": "C" 
			},
			{
				"x": -0.4510938827,
				"y": 0.7488963615,
				"z": 2.2066131995,
				"element": "C" 
			},
			{
				"x": 4.7775950689,
				"y": -1.4821240476,
				"z": -1.2465990511,
				"element": "H" 
			},
			{
				"x": 3.9885038544,
				"y": -0.1398601449,
				"z": -2.1102272947,
				"element": "H" 
			},
			{
				"x": 3.5375492761,
				"y": -1.8283489243,
				"z": -2.4505721682,
				"element": "H" 
			},
			{
				"x": 3.0653556904,
				"y": -2.6399965734,
				"z": 0.8494313063,
				"element": "H" 
			},
			{
				"x": 1.8257821417,
				"y": -2.9861312615,
				"z": -0.3541396476,
				"element": "H" 
			},
			{
				"x": 1.4120829777,
				"y": 2.3296120301,
				"z": -0.1669463456,
				"element": "H" 
			},
			{
				"x": 0.0713070004,
				"y": 4.2734604674,
				"z": 0.6548175653,
				"element": "H" 
			},
			{
				"x": -1.9284722646,
				"y": 1.7188706005,
				"z": 3.4492444153,
				"element": "H" 
			},
			{
				"x": -0.5957318295,
				"y": -0.2317057637,
				"z": 2.6376206213,
				"element": "H" 
			}
		],
		 "valence_orbital": [ 
			{
				"type": "occ",
				"energy": -0.31784,
				"method": "rhf"
			},
			{
				"type": "occ",
				"energy": -0.27711,
				"method": "rhf"
			},
			{
				"type": "occ",
				"energy": -0.26001,
				"method": "rhf"
			},
			{
				"type": "occ",
				"energy": -0.25634,
				"method": "rhf"
			},
			{
				"type": "occ",
				"energy": -0.21084,
				"method": "rhf"
			},
			{
				"type": "unocc",
				"energy": -0.03521,
				"method": "rhf"
			},
			{
				"type": "unocc",
				"energy": -0.00943,
				"method": "rhf"
			},
			{
				"type": "unocc",
				"energy": -0.00398,
				"method": "rhf"
			},
			{
				"type": "unocc",
				"energy": 0.05634,
				"method": "rhf"
			},
			{
				"type": "unocc",
				"energy": 0.0834,
				"method": "rhf"
			}
		],
		"cosmo_sigma_profile": { 
			"-0.025": 0.0,
			"-0.024": 0.0,
			"-0.023": 0.0,
			"-0.022": 0.0,
			"-0.021": 0.0,
			"-0.02": 0.0,
			"-0.019": 0.0,
			"-0.018": 0.0,
			"-0.017": 0.0,
			"-0.016": 0.0,
			"-0.015": 0.0,
			"-0.014": 0.0,
			"-0.013": 0.0,
			"-0.012": 0.0,
			"-0.011": 0.0,
			"-0.01": 0.0,
			"-0.009": 1.39781499314,
			"-0.008": 6.22293130735,
			"-0.007": 9.36890537823,
			"-0.006": 14.0961197322,
			"-0.005": 16.6131463842,
			"-0.004": 15.3035117369,
			"-0.003": 13.6114100765,
			"-0.002": 14.2510518729,
			"-0.001": 13.6851841107,
			"0.0": 12.174821079,
			"0.001": 16.246734449,
			"0.002": 18.8549070558,
			"0.003": 19.5970329392,
			"0.004": 20.5796838179,
			"0.005": 9.03938827479,
			"0.006": 3.13897545985,
			"0.007": 2.85765399835,
			"0.008": 2.70212084238,
			"0.009": 2.91977936738,
			"0.01": 1.95733210921,
			"0.011": 2.73882680551,
			"0.012": 3.36544628052,
			"0.013": 1.644938934,
			"0.014": 0.111285441053,
			"0.015": 0.0,
			"0.016": 0.0,
			"0.017": 0.0,
			"0.018": 0.0,
			"0.019": 0.0,
			"0.02": 0.0,
			"0.021": 0.0,
			"0.022": 0.0,
			"0.023": 0.0,
			"0.024": 0.0,
			"0.025": 0.0
		}
	}
}
