{
	 "smiles": "NC1=C(C=CC=N1)[N+]([O-])=O", 
	 "Tm": 439.15, 
	 "num_atms": 15, 
	 "gaussian": { 
		 "optdone": 1, 
		 "sigma_profile": "yes", 
		 "theory": "DFT", 
		 "functional": "B3LYP", 
		 "basiset": "6-31G**", 
		 "properties": { 
			 "R2extent": 1500.6479, 
			 "electric_dipole_moment_norm": 3.06358107123, 
			 "electric_quadrupole_moment_norm": 10.4562903116, 
			 "total_energy": -508.155841035, 
			 "HOMO_LUMO_gap": 0.1476, 
			 "cosmo_polarized_energy": -9.85, 
			 "cosmo_cavitation_energy": 19.69, 
			 "cosmo_dispersion_energy": -15.19, 
			 "cosmo_repulsion_energy": 1.23, 
			 "cosmo_total_nonelectrostatic_energy": 5.73, 
			 "SMD_solvation_energy": 4.19 
		},
		"coords": [
			{
				"x": -1.2921802093,
				"y": 1.6785785676,
				"z": -0.5406117419,
				"element": "N" 
			},
			{
				"x": -1.4792230111,
				"y": 0.3453988312,
				"z": -0.5085598808,
				"element": "C" 
			},
			{
				"x": -0.5576222107,
				"y": -0.5798008002,
				"z": 0.0683973403,
				"element": "C" 
			},
			{
				"x": -0.8514843543,
				"y": -1.9462524975,
				"z": 0.047370653,
				"element": "C" 
			},
			{
				"x": -2.0308336138,
				"y": -2.379919573,
				"z": -0.5322826551,
				"element": "C" 
			},
			{
				"x": -2.8792438074,
				"y": -1.4036123524,
				"z": -1.0757152785,
				"element": "C" 
			},
			{
				"x": -2.6280152946,
				"y": -0.101312295,
				"z": -1.070911448,
				"element": "N" 
			},
			{
				"x": 0.6847464307,
				"y": -0.1635011876,
				"z": 0.6829876118,
				"element": "N" 
			},
			{
				"x": 0.9597559954,
				"y": 1.0500445426,
				"z": 0.7089657514,
				"element": "O" 
			},
			{
				"x": 1.4221757136,
				"y": -1.0286656518,
				"z": 1.1569304851,
				"element": "O" 
			},
			{
				"x": -0.4548119401,
				"y": 2.0708172756,
				"z": -0.1372307395,
				"element": "H" 
			},
			{
				"x": -2.0119914574,
				"y": 2.2339292527,
				"z": -0.9749502312,
				"element": "H" 
			},
			{
				"x": -0.1371980137,
				"y": -2.6288673313,
				"z": 0.4911736269,
				"element": "H" 
			},
			{
				"x": -2.29379052,
				"y": -3.4304983942,
				"z": -0.5679500516,
				"element": "H" 
			},
			{
				"x": -3.8184837074,
				"y": -1.6975383867,
				"z": -1.5424134418,
				"element": "H" 
			}
		],
		 "valence_orbital": [ 
			{
				"type": "occ",
				"energy": -0.30988,
				"method": "rhf"
			},
			{
				"type": "occ",
				"energy": -0.3058,
				"method": "rhf"
			},
			{
				"type": "occ",
				"energy": -0.2942,
				"method": "rhf"
			},
			{
				"type": "occ",
				"energy": -0.27856,
				"method": "rhf"
			},
			{
				"type": "occ",
				"energy": -0.23788,
				"method": "rhf"
			},
			{
				"type": "unocc",
				"energy": -0.09028,
				"method": "rhf"
			},
			{
				"type": "unocc",
				"energy": -0.02352,
				"method": "rhf"
			},
			{
				"type": "unocc",
				"energy": 0.00088,
				"method": "rhf"
			},
			{
				"type": "unocc",
				"energy": 0.09006,
				"method": "rhf"
			},
			{
				"type": "unocc",
				"energy": 0.09649,
				"method": "rhf"
			}
		],
		"cosmo_sigma_profile": { 
			"-0.025": 0.0,
			"-0.024": 0.0,
			"-0.023": 0.0,
			"-0.022": 0.0,
			"-0.021": 0.0,
			"-0.02": 0.0,
			"-0.019": 0.0,
			"-0.018": 0.0,
			"-0.017": 0.0,
			"-0.016": 0.0,
			"-0.015": 0.176249637581,
			"-0.014": 1.10077128145,
			"-0.013": 0.889152686797,
			"-0.012": 1.28807430139,
			"-0.011": 1.46232048307,
			"-0.01": 2.02483493248,
			"-0.009": 1.70131253285,
			"-0.008": 3.28686999627,
			"-0.007": 6.8327386676,
			"-0.006": 8.55556772124,
			"-0.005": 9.61713975245,
			"-0.004": 7.45032685515,
			"-0.003": 8.37746624599,
			"-0.002": 11.9914000665,
			"-0.001": 13.2182805534,
			"0.0": 12.8460357128,
			"0.001": 11.1451402592,
			"0.002": 9.7671794743,
			"0.003": 6.55935945901,
			"0.004": 4.47515215156,
			"0.005": 3.65861462566,
			"0.006": 3.80365013326,
			"0.007": 5.70300102204,
			"0.008": 7.33595634343,
			"0.009": 5.25015063238,
			"0.01": 5.15109328883,
			"0.011": 2.67291095188,
			"0.012": 0.789665826915,
			"0.013": 0.446526225182,
			"0.014": 0.655875517293,
			"0.015": 0.0,
			"0.016": 0.0,
			"0.017": 0.0,
			"0.018": 0.0,
			"0.019": 0.0,
			"0.02": 0.0,
			"0.021": 0.0,
			"0.022": 0.0,
			"0.023": 0.0,
			"0.024": 0.0,
			"0.025": 0.0
		}
	}
}
