{
	 "smiles": "CC(C)C(NC(=O)OC(C)(C)C)C(O)=O", 
	 "Tm": 437.15, 
	 "num_atms": 34, 
	 "gaussian": { 
		 "optdone": 1, 
		 "sigma_profile": "yes", 
		 "theory": "DFT", 
		 "functional": "B3LYP", 
		 "basiset": "6-31G**", 
		 "properties": { 
			 "R2extent": 4278.9458, 
			 "electric_dipole_moment_norm": 2.70003308313, 
			 "electric_quadrupole_moment_norm": 23.2038357336, 
			 "total_energy": -748.220388112, 
			 "HOMO_LUMO_gap": 0.26676, 
			 "cosmo_polarized_energy": -16.59, 
			 "cosmo_cavitation_energy": 35.56, 
			 "cosmo_dispersion_energy": -23.55, 
			 "cosmo_repulsion_energy": 1.86, 
			 "cosmo_total_nonelectrostatic_energy": 13.88, 
			 "SMD_solvation_energy": 8.28 
		},
		"coords": [
			{
				"x": -1.0988294603,
				"y": -2.9103735495,
				"z": 3.8553158306,
				"element": "C" 
			},
			{
				"x": -1.1333337172,
				"y": -3.083233373,
				"z": 2.3290325969,
				"element": "C" 
			},
			{
				"x": -2.5640119076,
				"y": -3.4286561895,
				"z": 1.8784436879,
				"element": "C" 
			},
			{
				"x": -0.6032085557,
				"y": -1.8262134769,
				"z": 1.5814672154,
				"element": "C" 
			},
			{
				"x": -0.5314500354,
				"y": -2.0988507997,
				"z": 0.1397423013,
				"element": "N" 
			},
			{
				"x": -0.563453548,
				"y": -1.1012574426,
				"z": -0.8305437399,
				"element": "C" 
			},
			{
				"x": -0.8005687844,
				"y": -1.3355124482,
				"z": -2.0009890062,
				"element": "O" 
			},
			{
				"x": -0.2609521047,
				"y": 0.0852147304,
				"z": -0.277808751,
				"element": "O" 
			},
			{
				"x": -0.1144419772,
				"y": 1.3062088733,
				"z": -1.1013823486,
				"element": "C" 
			},
			{
				"x": 1.0262938061,
				"y": 1.1113003505,
				"z": -2.1038940434,
				"element": "C" 
			},
			{
				"x": 0.2444157332,
				"y": 2.3649228529,
				"z": -0.0573100332,
				"element": "C" 
			},
			{
				"x": -1.4457510374,
				"y": 1.6315904467,
				"z": -1.7840359003,
				"element": "C" 
			},
			{
				"x": 0.7824659136,
				"y": -1.3973445259,
				"z": 2.1053896683,
				"element": "C" 
			},
			{
				"x": 1.8289028483,
				"y": -1.8668475712,
				"z": 1.3975991573,
				"element": "O" 
			},
			{
				"x": 0.9292183159,
				"y": -0.7304169239,
				"z": 3.1007312586,
				"element": "O" 
			},
			{
				"x": -1.489974632,
				"y": -3.8130349499,
				"z": 4.3350237086,
				"element": "H" 
			},
			{
				"x": -0.0916425926,
				"y": -2.7284618798,
				"z": 4.2323396159,
				"element": "H" 
			},
			{
				"x": -1.7233266151,
				"y": -2.0660250384,
				"z": 4.1665554285,
				"element": "H" 
			},
			{
				"x": -0.4697087011,
				"y": -3.9197188908,
				"z": 2.0627871348,
				"element": "H" 
			},
			{
				"x": -3.2521325043,
				"y": -2.6121737654,
				"z": 2.1253313839,
				"element": "H" 
			},
			{
				"x": -2.6522431144,
				"y": -3.620777834,
				"z": 0.8042659828,
				"element": "H" 
			},
			{
				"x": -2.9135169819,
				"y": -4.3272137312,
				"z": 2.3957674236,
				"element": "H" 
			},
			{
				"x": -1.2727954001,
				"y": -0.9843709474,
				"z": 1.7847937691,
				"element": "H" 
			},
			{
				"x": -0.9636431504,
				"y": -2.9490220272,
				"z": -0.1958421588,
				"element": "H" 
			},
			{
				"x": 1.2084863539,
				"y": 2.0505534817,
				"z": -2.6355592892,
				"element": "H" 
			},
			{
				"x": 1.9470633409,
				"y": 0.8328877092,
				"z": -1.5819340893,
				"element": "H" 
			},
			{
				"x": 0.7812237588,
				"y": 0.338224532,
				"z": -2.8331371263,
				"element": "H" 
			},
			{
				"x": 0.3949090674,
				"y": 3.3325549064,
				"z": -0.5449641716,
				"element": "H" 
			},
			{
				"x": 1.1626106366,
				"y": 2.0928968376,
				"z": 0.4703016875,
				"element": "H" 
			},
			{
				"x": -0.5566600907,
				"y": 2.4693155583,
				"z": 0.6799516036,
				"element": "H" 
			},
			{
				"x": -1.7135434812,
				"y": 0.8639769781,
				"z": -2.5105733249,
				"element": "H" 
			},
			{
				"x": -1.363945867,
				"y": 2.5934650983,
				"z": -2.3001900569,
				"element": "H" 
			},
			{
				"x": -2.2448887826,
				"y": 1.7138507097,
				"z": -1.0406118518,
				"element": "H" 
			},
			{
				"x": 1.4617332665,
				"y": -2.2913577004,
				"z": 0.5995364369,
				"element": "H" 
			}
		],
		 "valence_orbital": [ 
			{
				"type": "occ",
				"energy": -0.30725,
				"method": "rhf"
			},
			{
				"type": "occ",
				"energy": -0.30474,
				"method": "rhf"
			},
			{
				"type": "occ",
				"energy": -0.29277,
				"method": "rhf"
			},
			{
				"type": "occ",
				"energy": -0.27796,
				"method": "rhf"
			},
			{
				"type": "occ",
				"energy": -0.25613,
				"method": "rhf"
			},
			{
				"type": "unocc",
				"energy": 0.01063,
				"method": "rhf"
			},
			{
				"type": "unocc",
				"energy": 0.03172,
				"method": "rhf"
			},
			{
				"type": "unocc",
				"energy": 0.05776,
				"method": "rhf"
			},
			{
				"type": "unocc",
				"energy": 0.08155,
				"method": "rhf"
			},
			{
				"type": "unocc",
				"energy": 0.09371,
				"method": "rhf"
			}
		],
		"cosmo_sigma_profile": { 
			"-0.025": 0.0,
			"-0.024": 0.0,
			"-0.023": 0.0,
			"-0.022": 0.0,
			"-0.021": 0.0,
			"-0.02": 0.0,
			"-0.019": 0.0,
			"-0.018": 0.0,
			"-0.017": 0.0,
			"-0.016": 0.0,
			"-0.015": 0.0,
			"-0.014": 0.718891296991,
			"-0.013": 1.99488861156,
			"-0.012": 1.64800013738,
			"-0.011": 1.82327537725,
			"-0.01": 2.77234847251,
			"-0.009": 2.905272996,
			"-0.008": 2.93305190289,
			"-0.007": 2.98720216388,
			"-0.006": 4.43338852178,
			"-0.005": 8.90053844543,
			"-0.004": 24.4497025802,
			"-0.003": 32.786725361,
			"-0.002": 30.2211791051,
			"-0.001": 30.7760141059,
			"0.0": 37.1095774449,
			"0.001": 21.7838722785,
			"0.002": 8.43405941339,
			"0.003": 5.85160996607,
			"0.004": 5.75254879868,
			"0.005": 4.67932060427,
			"0.006": 3.87068465471,
			"0.007": 4.11906773415,
			"0.008": 4.42833416417,
			"0.009": 4.02423766071,
			"0.01": 7.21018989636,
			"0.011": 4.90215830682,
			"0.012": 9.02449901021,
			"0.013": 5.12015449372,
			"0.014": 0.305754802519,
			"0.015": 0.0,
			"0.016": 0.0,
			"0.017": 0.0,
			"0.018": 0.0,
			"0.019": 0.0,
			"0.02": 0.0,
			"0.021": 0.0,
			"0.022": 0.0,
			"0.023": 0.0,
			"0.024": 0.0,
			"0.025": 0.0
		}
	}
}
