{
	 "smiles": "OC(=O)C1=CN(CC2=CC=CC=C2)C2=C1C=CC=C2", 
	 "Tm": 466.15, 
	 "num_atms": 32, 
	 "gaussian": { 
		 "optdone": 1, 
		 "sigma_profile": "yes", 
		 "theory": "DFT", 
		 "functional": "B3LYP", 
		 "basiset": "6-31G**", 
		 "properties": { 
			 "R2extent": 6226.595, 
			 "electric_dipole_moment_norm": 3.11918768592, 
			 "electric_quadrupole_moment_norm": 13.9473852241, 
			 "total_energy": -822.764690484, 
			 "HOMO_LUMO_gap": 0.18373, 
			 "cosmo_polarized_energy": -14.55, 
			 "cosmo_cavitation_energy": 36.38, 
			 "cosmo_dispersion_energy": -25.74, 
			 "cosmo_repulsion_energy": 1.97, 
			 "cosmo_total_nonelectrostatic_energy": 12.6, 
			 "SMD_solvation_energy": 7.14 
		},
		"coords": [
			{
				"x": -1.7893421706,
				"y": 3.6313556308,
				"z": 3.3650268511,
				"element": "O" 
			},
			{
				"x": -0.7812976622,
				"y": 2.7220721995,
				"z": 3.4818507876,
				"element": "C" 
			},
			{
				"x": 0.1290287624,
				"y": 2.8764518322,
				"z": 4.2779048957,
				"element": "O" 
			},
			{
				"x": -0.9259531021,
				"y": 1.5908785915,
				"z": 2.5712461538,
				"element": "C" 
			},
			{
				"x": -0.010564941,
				"y": 0.5590875338,
				"z": 2.5285797553,
				"element": "C" 
			},
			{
				"x": -0.3877502807,
				"y": -0.3740659836,
				"z": 1.6031624292,
				"element": "N" 
			},
			{
				"x": 0.3620541117,
				"y": -1.5830303193,
				"z": 1.2834813562,
				"element": "C" 
			},
			{
				"x": 1.5428562555,
				"y": -1.3732381155,
				"z": 0.3475780673,
				"element": "C" 
			},
			{
				"x": 2.7013630852,
				"y": -2.1387413733,
				"z": 0.522110841,
				"element": "C" 
			},
			{
				"x": 3.7834283599,
				"y": -2.0007106139,
				"z": -0.3487313312,
				"element": "C" 
			},
			{
				"x": 3.719928564,
				"y": -1.0870161661,
				"z": -1.4014713614,
				"element": "C" 
			},
			{
				"x": 2.5695156668,
				"y": -0.3151444972,
				"z": -1.577679124,
				"element": "C" 
			},
			{
				"x": 1.4859932113,
				"y": -0.4578723454,
				"z": -0.7104937214,
				"element": "C" 
			},
			{
				"x": -1.576245515,
				"y": 0.0456281292,
				"z": 1.0052817637,
				"element": "C" 
			},
			{
				"x": -1.9481158759,
				"y": 1.2830569009,
				"z": 1.5970166668,
				"element": "C" 
			},
			{
				"x": -3.1273542456,
				"y": 1.9153481325,
				"z": 1.1695013657,
				"element": "C" 
			},
			{
				"x": -3.8908240811,
				"y": 1.3107345174,
				"z": 0.17818806,
				"element": "C" 
			},
			{
				"x": -3.5025272,
				"y": 0.0861094256,
				"z": -0.3995947013,
				"element": "C" 
			},
			{
				"x": -2.3403132481,
				"y": -0.5628653189,
				"z": 0.0032016552,
				"element": "C" 
			},
			{
				"x": -1.5837920549,
				"y": 4.3259086961,
				"z": 4.0121553064,
				"element": "H" 
			},
			{
				"x": 0.8916133233,
				"y": 0.4408616992,
				"z": 3.1114340108,
				"element": "H" 
			},
			{
				"x": -0.3468557473,
				"y": -2.2976896853,
				"z": 0.8518524085,
				"element": "H" 
			},
			{
				"x": 0.7104389063,
				"y": -2.0260129893,
				"z": 2.2220484841,
				"element": "H" 
			},
			{
				"x": 2.7601059032,
				"y": -2.8456854477,
				"z": 1.3467120355,
				"element": "H" 
			},
			{
				"x": 4.6772210548,
				"y": -2.59927098,
				"z": -0.1979309759,
				"element": "H" 
			},
			{
				"x": 4.5627566665,
				"y": -0.9727843041,
				"z": -2.0768538274,
				"element": "H" 
			},
			{
				"x": 2.5147497114,
				"y": 0.4018725616,
				"z": -2.391773733,
				"element": "H" 
			},
			{
				"x": 0.596808074,
				"y": 0.1492295006,
				"z": -0.8519534898,
				"element": "H" 
			},
			{
				"x": -3.4251210079,
				"y": 2.8586136168,
				"z": 1.6124921206,
				"element": "H" 
			},
			{
				"x": -4.8041097687,
				"y": 1.7907305987,
				"z": -0.1610455965,
				"element": "H" 
			},
			{
				"x": -4.1185649088,
				"y": -0.3591888497,
				"z": -1.1751456588,
				"element": "H" 
			},
			{
				"x": -2.0421298463,
				"y": -1.502222577,
				"z": -0.4521514938,
				"element": "H" 
			}
		],
		 "valence_orbital": [ 
			{
				"type": "occ",
				"energy": -0.26316,
				"method": "rhf"
			},
			{
				"type": "occ",
				"energy": -0.25839,
				"method": "rhf"
			},
			{
				"type": "occ",
				"energy": -0.25516,
				"method": "rhf"
			},
			{
				"type": "occ",
				"energy": -0.22736,
				"method": "rhf"
			},
			{
				"type": "occ",
				"energy": -0.21132,
				"method": "rhf"
			},
			{
				"type": "unocc",
				"energy": -0.02759,
				"method": "rhf"
			},
			{
				"type": "unocc",
				"energy": -0.01276,
				"method": "rhf"
			},
			{
				"type": "unocc",
				"energy": -0.01043,
				"method": "rhf"
			},
			{
				"type": "unocc",
				"energy": 0.00422,
				"method": "rhf"
			},
			{
				"type": "unocc",
				"energy": 0.02175,
				"method": "rhf"
			}
		],
		"cosmo_sigma_profile": { 
			"-0.025": 0.0,
			"-0.024": 0.0,
			"-0.023": 0.0,
			"-0.022": 0.0,
			"-0.021": 0.0,
			"-0.02": 0.0,
			"-0.019": 0.0,
			"-0.018": 0.220747733234,
			"-0.017": 0.917833308156,
			"-0.016": 0.869732638061,
			"-0.015": 0.568148407602,
			"-0.014": 1.05457265217,
			"-0.013": 0.821283573872,
			"-0.012": 0.434749403786,
			"-0.011": 0.469890249729,
			"-0.01": 0.682746269688,
			"-0.009": 2.67082402692,
			"-0.008": 5.52883921506,
			"-0.007": 8.98059915376,
			"-0.006": 13.5537689519,
			"-0.005": 20.2424850761,
			"-0.004": 22.9865801195,
			"-0.003": 21.2920331119,
			"-0.002": 18.1810077657,
			"-0.001": 16.9904398337,
			"0.0": 16.4240540397,
			"0.001": 17.9783066638,
			"0.002": 21.0343378267,
			"0.003": 22.0767725603,
			"0.004": 21.9976490352,
			"0.005": 21.4056934188,
			"0.006": 15.5736847745,
			"0.007": 3.59827180893,
			"0.008": 1.98990450755,
			"0.009": 1.02530513271,
			"0.01": 1.17656544967,
			"0.011": 2.36489322165,
			"0.012": 4.56531072353,
			"0.013": 3.76250313834,
			"0.014": 0.0149220949316,
			"0.015": 0.0,
			"0.016": 0.0,
			"0.017": 0.0,
			"0.018": 0.0,
			"0.019": 0.0,
			"0.02": 0.0,
			"0.021": 0.0,
			"0.022": 0.0,
			"0.023": 0.0,
			"0.024": 0.0,
			"0.025": 0.0
		}
	}
}
