{
	 "smiles": "OC1=CC=C(C=C1)C1COC2=C(C1)C=CC(O)=C2", 
	 "Tm": 463.15, 
	 "num_atms": 32, 
	 "gaussian": { 
		 "optdone": 1, 
		 "sigma_profile": "yes", 
		 "theory": "DFT", 
		 "functional": "B3LYP", 
		 "basiset": "6-31G**", 
		 "properties": { 
			 "R2extent": 5265.5408, 
			 "electric_dipole_moment_norm": 1.53097791297, 
			 "electric_quadrupole_moment_norm": 15.1433937118, 
			 "total_energy": -805.697081265, 
			 "HOMO_LUMO_gap": 0.20093, 
			 "cosmo_polarized_energy": -15.92, 
			 "cosmo_cavitation_energy": 34.66, 
			 "cosmo_dispersion_energy": -25.19, 
			 "cosmo_repulsion_energy": 1.94, 
			 "cosmo_total_nonelectrostatic_energy": 11.4, 
			 "SMD_solvation_energy": 6.13 
		},
		"coords": [
			{
				"x": 0.4197010419,
				"y": -1.0654790926,
				"z": -4.6161137092,
				"element": "O" 
			},
			{
				"x": 0.6311094253,
				"y": -0.4356296659,
				"z": -3.4208570611,
				"element": "C" 
			},
			{
				"x": 1.9457585901,
				"y": -0.3723094831,
				"z": -2.9458794476,
				"element": "C" 
			},
			{
				"x": 2.2084622239,
				"y": 0.2608729553,
				"z": -1.7360550053,
				"element": "C" 
			},
			{
				"x": 1.1892419115,
				"y": 0.8424263399,
				"z": -0.9634274708,
				"element": "C" 
			},
			{
				"x": -0.1191216396,
				"y": 0.7692790206,
				"z": -1.4577900541,
				"element": "C" 
			},
			{
				"x": -0.3981391692,
				"y": 0.1407061059,
				"z": -2.6731890939,
				"element": "C" 
			},
			{
				"x": 1.559958248,
				"y": 1.4989954553,
				"z": 0.3604238045,
				"element": "C" 
			},
			{
				"x": 0.6344031444,
				"y": 2.6356743064,
				"z": 0.808477425,
				"element": "C" 
			},
			{
				"x": -0.6737815189,
				"y": 2.2019143714,
				"z": 1.205098972,
				"element": "O" 
			},
			{
				"x": -0.7557298197,
				"y": 1.0636981388,
				"z": 1.9655086998,
				"element": "C" 
			},
			{
				"x": 0.3225750434,
				"y": 0.1854766584,
				"z": 2.1425529891,
				"element": "C" 
			},
			{
				"x": 1.6729612696,
				"y": 0.4939124361,
				"z": 1.5348167085,
				"element": "C" 
			},
			{
				"x": 0.095137911,
				"y": -0.9658659817,
				"z": 2.908347856,
				"element": "C" 
			},
			{
				"x": -1.1384050975,
				"y": -1.2468296823,
				"z": 3.4840628613,
				"element": "C" 
			},
			{
				"x": -2.198376357,
				"y": -0.3517541686,
				"z": 3.2892260721,
				"element": "C" 
			},
			{
				"x": -3.398641855,
				"y": -0.6592756893,
				"z": 3.8679891092,
				"element": "O" 
			},
			{
				"x": -2.0098174322,
				"y": 0.8011288883,
				"z": 2.5291004871,
				"element": "C" 
			},
			{
				"x": -0.5237573899,
				"y": -1.0402174064,
				"z": -4.8216583923,
				"element": "H" 
			},
			{
				"x": 2.7411243812,
				"y": -0.8146755304,
				"z": -3.5367920274,
				"element": "H" 
			},
			{
				"x": 3.2365064394,
				"y": 0.3087045517,
				"z": -1.382867889,
				"element": "H" 
			},
			{
				"x": -0.934493533,
				"y": 1.2102606984,
				"z": -0.8958007829,
				"element": "H" 
			},
			{
				"x": -1.4233144766,
				"y": 0.0986560062,
				"z": -3.0366238031,
				"element": "H" 
			},
			{
				"x": 2.5484831134,
				"y": 1.9563913664,
				"z": 0.2236609354,
				"element": "H" 
			},
			{
				"x": 0.4627751887,
				"y": 3.3538566808,
				"z": 0.0029990421,
				"element": "H" 
			},
			{
				"x": 1.0975747697,
				"y": 3.1654020313,
				"z": 1.65303708,
				"element": "H" 
			},
			{
				"x": 2.3352886257,
				"y": 0.9251586716,
				"z": 2.2993284347,
				"element": "H" 
			},
			{
				"x": 2.1543213791,
				"y": -0.428484911,
				"z": 1.193179744,
				"element": "H" 
			},
			{
				"x": 0.916163858,
				"y": -1.6648697889,
				"z": 3.0509741767,
				"element": "H" 
			},
			{
				"x": -1.3014686605,
				"y": -2.1420423416,
				"z": 4.0736884457,
				"element": "H" 
			},
			{
				"x": -4.0371271595,
				"y": 0.0330710557,
				"z": 3.6540290209,
				"element": "H" 
			},
			{
				"x": -2.8156724556,
				"y": 1.5107480032,
				"z": 2.3609528726,
				"element": "H" 
			}
		],
		 "valence_orbital": [ 
			{
				"type": "occ",
				"energy": -0.29362,
				"method": "rhf"
			},
			{
				"type": "occ",
				"energy": -0.24801,
				"method": "rhf"
			},
			{
				"type": "occ",
				"energy": -0.22633,
				"method": "rhf"
			},
			{
				"type": "occ",
				"energy": -0.21444,
				"method": "rhf"
			},
			{
				"type": "occ",
				"energy": -0.20354,
				"method": "rhf"
			},
			{
				"type": "unocc",
				"energy": -0.00261,
				"method": "rhf"
			},
			{
				"type": "unocc",
				"energy": 0.00959,
				"method": "rhf"
			},
			{
				"type": "unocc",
				"energy": 0.0148,
				"method": "rhf"
			},
			{
				"type": "unocc",
				"energy": 0.02392,
				"method": "rhf"
			},
			{
				"type": "unocc",
				"energy": 0.07292,
				"method": "rhf"
			}
		],
		"cosmo_sigma_profile": { 
			"-0.025": 0.0,
			"-0.024": 0.0,
			"-0.023": 0.0,
			"-0.022": 0.0,
			"-0.021": 0.0,
			"-0.02": 0.0,
			"-0.019": 0.0,
			"-0.018": 0.407054343577,
			"-0.017": 1.9956309052,
			"-0.016": 2.00945903502,
			"-0.015": 2.25323863962,
			"-0.014": 1.81609902147,
			"-0.013": 1.93599324916,
			"-0.012": 1.59547841237,
			"-0.011": 2.51891178642,
			"-0.01": 1.59643248335,
			"-0.009": 2.18301794989,
			"-0.008": 2.04715788102,
			"-0.007": 2.30824616954,
			"-0.006": 5.97817619099,
			"-0.005": 19.6629310542,
			"-0.004": 27.1586938663,
			"-0.003": 23.2030803239,
			"-0.002": 17.924543627,
			"-0.001": 14.6214275685,
			"0.0": 13.8759571285,
			"0.001": 11.6021906792,
			"0.002": 13.1389523586,
			"0.003": 15.6187529166,
			"0.004": 21.8997821687,
			"0.005": 22.9227089298,
			"0.006": 20.7011496327,
			"0.007": 4.20460702583,
			"0.008": 3.60299078995,
			"0.009": 4.75975789443,
			"0.01": 4.1852372065,
			"0.011": 4.37690321012,
			"0.012": 2.34881116644,
			"0.013": 0.0,
			"0.014": 0.0,
			"0.015": 0.0,
			"0.016": 0.0,
			"0.017": 0.0,
			"0.018": 0.0,
			"0.019": 0.0,
			"0.02": 0.0,
			"0.021": 0.0,
			"0.022": 0.0,
			"0.023": 0.0,
			"0.024": 0.0,
			"0.025": 0.0
		}
	}
}
