{
	 "smiles": "OC1CCSCC1", 
	 "Tm": 323.65, 
	 "num_atms": 17, 
	 "gaussian": { 
		 "optdone": 1, 
		 "sigma_profile": "yes", 
		 "theory": "DFT", 
		 "functional": "B3LYP", 
		 "basiset": "6-31G**", 
		 "properties": { 
			 "R2extent": 1437.6822, 
			 "electric_dipole_moment_norm": 0.454761629868, 
			 "electric_quadrupole_moment_norm": 9.02206129385, 
			 "total_energy": -669.972902783, 
			 "HOMO_LUMO_gap": 0.26014, 
			 "cosmo_polarized_energy": -8.59, 
			 "cosmo_cavitation_energy": 19.77, 
			 "cosmo_dispersion_energy": -15.64, 
			 "cosmo_repulsion_energy": 1.26, 
			 "cosmo_total_nonelectrostatic_energy": 5.39, 
			 "SMD_solvation_energy": 2.3 
		},
		"coords": [
			{
				"x": -1.5703283459,
				"y": 1.1671056313,
				"z": 2.114954788,
				"element": "O" 
			},
			{
				"x": -0.8460336565,
				"y": 1.6383704787,
				"z": 0.982248025,
				"element": "C" 
			},
			{
				"x": 0.6659607753,
				"y": 1.4564041592,
				"z": 1.1766603149,
				"element": "C" 
			},
			{
				"x": 1.4984460077,
				"y": 2.0527520569,
				"z": 0.0363433762,
				"element": "C" 
			},
			{
				"x": 1.1249313242,
				"y": 1.2938570265,
				"z": -1.593007701,
				"element": "S" 
			},
			{
				"x": -0.6926651965,
				"y": 1.5511064102,
				"z": -1.5734592091,
				"element": "C" 
			},
			{
				"x": -1.3602751345,
				"y": 0.9924002947,
				"z": -0.312090115,
				"element": "C" 
			},
			{
				"x": -1.4071588367,
				"y": 0.2166426655,
				"z": 2.1891913643,
				"element": "H" 
			},
			{
				"x": -1.0650475077,
				"y": 2.7143676333,
				"z": 0.9450068297,
				"element": "H" 
			},
			{
				"x": 0.9496993815,
				"y": 1.9297383391,
				"z": 2.1247164802,
				"element": "H" 
			},
			{
				"x": 0.8900649968,
				"y": 0.3845609734,
				"z": 1.2656075894,
				"element": "H" 
			},
			{
				"x": 2.5663376175,
				"y": 1.8865921047,
				"z": 0.2027079113,
				"element": "H" 
			},
			{
				"x": 1.3421487737,
				"y": 3.1358799604,
				"z": -0.0306744989,
				"element": "H" 
			},
			{
				"x": -0.9022967652,
				"y": 2.6220334726,
				"z": -1.6795694152,
				"element": "H" 
			},
			{
				"x": -1.071929628,
				"y": 1.053673785,
				"z": -2.4703430674,
				"element": "H" 
			},
			{
				"x": -1.1913224683,
				"y": -0.0920795009,
				"z": -0.2637880705,
				"element": "H" 
			},
			{
				"x": -2.4440313374,
				"y": 1.1524945095,
				"z": -0.368704602,
				"element": "H" 
			}
		],
		 "valence_orbital": [ 
			{
				"type": "occ",
				"energy": -0.32909,
				"method": "rhf"
			},
			{
				"type": "occ",
				"energy": -0.3239,
				"method": "rhf"
			},
			{
				"type": "occ",
				"energy": -0.3006,
				"method": "rhf"
			},
			{
				"type": "occ",
				"energy": -0.2666,
				"method": "rhf"
			},
			{
				"type": "occ",
				"energy": -0.22087,
				"method": "rhf"
			},
			{
				"type": "unocc",
				"energy": 0.03927,
				"method": "rhf"
			},
			{
				"type": "unocc",
				"energy": 0.075,
				"method": "rhf"
			},
			{
				"type": "unocc",
				"energy": 0.07954,
				"method": "rhf"
			},
			{
				"type": "unocc",
				"energy": 0.09054,
				"method": "rhf"
			},
			{
				"type": "unocc",
				"energy": 0.10846,
				"method": "rhf"
			}
		],
		"cosmo_sigma_profile": { 
			"-0.025": 0.0,
			"-0.024": 0.0,
			"-0.023": 0.0,
			"-0.022": 0.0,
			"-0.021": 0.0,
			"-0.02": 0.0,
			"-0.019": 0.0,
			"-0.018": 0.0,
			"-0.017": 0.0,
			"-0.016": 0.0,
			"-0.015": 0.559371968513,
			"-0.014": 0.768308389455,
			"-0.013": 0.809094298355,
			"-0.012": 1.1762357487,
			"-0.011": 0.671066171729,
			"-0.01": 1.27701088012,
			"-0.009": 1.20821144716,
			"-0.008": 1.13630474992,
			"-0.007": 0.790757415209,
			"-0.006": 3.03005930412,
			"-0.005": 10.1730874533,
			"-0.004": 17.7294468075,
			"-0.003": 18.1434349409,
			"-0.002": 21.1691130634,
			"-0.001": 14.1859368863,
			"0.0": 9.81445516862,
			"0.001": 6.12018548465,
			"0.002": 3.83496703846,
			"0.003": 4.4020874008,
			"0.004": 4.53615937084,
			"0.005": 4.07438990244,
			"0.006": 5.06818628262,
			"0.007": 4.1392627011,
			"0.008": 3.62253199853,
			"0.009": 3.11258284743,
			"0.01": 3.40105633189,
			"0.011": 3.39984320671,
			"0.012": 1.36924268223,
			"0.013": 1.77224897769,
			"0.014": 2.19910210388,
			"0.015": 1.04560829735,
			"0.016": 0.0,
			"0.017": 0.0,
			"0.018": 0.0,
			"0.019": 0.0,
			"0.02": 0.0,
			"0.021": 0.0,
			"0.022": 0.0,
			"0.023": 0.0,
			"0.024": 0.0,
			"0.025": 0.0
		}
	}
}
