{
	 "smiles": "N#CCC1=CC=C(OCC2CO2)C=C1", 
	 "Tm": 326.15, 
	 "num_atms": 25, 
	 "gaussian": { 
		 "optdone": 1, 
		 "sigma_profile": "yes", 
		 "theory": "DFT", 
		 "functional": "B3LYP", 
		 "basiset": "6-31G**", 
		 "properties": { 
			 "R2extent": 5105.4043, 
			 "electric_dipole_moment_norm": 4.17113943785, 
			 "electric_quadrupole_moment_norm": 32.0904949543, 
			 "total_energy": -630.921135501, 
			 "HOMO_LUMO_gap": 0.2141, 
			 "cosmo_polarized_energy": -16.66, 
			 "cosmo_cavitation_energy": 30.73, 
			 "cosmo_dispersion_energy": -21.57, 
			 "cosmo_repulsion_energy": 1.73, 
			 "cosmo_total_nonelectrostatic_energy": 10.89, 
			 "SMD_solvation_energy": 6.83 
		},
		"coords": [
			{
				"x": -2.6023167212,
				"y": 0.1391031909,
				"z": -5.3419409357,
				"element": "N" 
			},
			{
				"x": -1.4691094077,
				"y": 0.1856436844,
				"z": -5.0948345657,
				"element": "C" 
			},
			{
				"x": -0.0361725631,
				"y": 0.2464852642,
				"z": -4.7706251139,
				"element": "C" 
			},
			{
				"x": 0.2474698929,
				"y": 0.0651583586,
				"z": -3.2864831201,
				"element": "C" 
			},
			{
				"x": 0.6646397184,
				"y": -1.1665080119,
				"z": -2.7834206948,
				"element": "C" 
			},
			{
				"x": 0.9222677065,
				"y": -1.3468900372,
				"z": -1.4212290399,
				"element": "C" 
			},
			{
				"x": 0.7561571734,
				"y": -0.2726705583,
				"z": -0.5403273302,
				"element": "C" 
			},
			{
				"x": 0.977361359,
				"y": -0.3279963508,
				"z": 0.8041554005,
				"element": "O" 
			},
			{
				"x": 1.3690873221,
				"y": -1.5686841346,
				"z": 1.3821168981,
				"element": "C" 
			},
			{
				"x": 1.5065945872,
				"y": -1.3572150557,
				"z": 2.8648670129,
				"element": "C" 
			},
			{
				"x": 2.396602544,
				"y": -2.209932664,
				"z": 3.6654177452,
				"element": "C" 
			},
			{
				"x": 2.7667836067,
				"y": -0.8687928086,
				"z": 3.3324729147,
				"element": "O" 
			},
			{
				"x": 0.3371345975,
				"y": 0.9720256451,
				"z": -1.0359764203,
				"element": "C" 
			},
			{
				"x": 0.0868039062,
				"y": 1.1334386194,
				"z": -2.3911853604,
				"element": "C" 
			},
			{
				"x": 0.4760161308,
				"y": -0.5258033064,
				"z": -5.355193674,
				"element": "H" 
			},
			{
				"x": 0.3471804495,
				"y": 1.2116131146,
				"z": -5.1230514992,
				"element": "H" 
			},
			{
				"x": 0.7955918314,
				"y": -2.0085504969,
				"z": -3.4583572974,
				"element": "H" 
			},
			{
				"x": 1.250689164,
				"y": -2.3169726243,
				"z": -1.0682058889,
				"element": "H" 
			},
			{
				"x": 2.3285325501,
				"y": -1.9072166965,
				"z": 0.9684463769,
				"element": "H" 
			},
			{
				"x": 0.6075245791,
				"y": -2.3372546657,
				"z": 1.1809214418,
				"element": "H" 
			},
			{
				"x": 0.6370475836,
				"y": -0.9058258972,
				"z": 3.3450615604,
				"element": "H" 
			},
			{
				"x": 2.9806699044,
				"y": -2.9920465473,
				"z": 3.1788791682,
				"element": "H" 
			},
			{
				"x": 2.1627649037,
				"y": -2.3924273928,
				"z": 4.7138272337,
				"element": "H" 
			},
			{
				"x": 0.2183575143,
				"y": 1.7941357664,
				"z": -0.3382030627,
				"element": "H" 
			},
			{
				"x": -0.2397783329,
				"y": 2.1024836045,
				"z": -2.7597317494,
				"element": "H" 
			}
		],
		 "valence_orbital": [ 
			{
				"type": "occ",
				"energy": -0.31947,
				"method": "rhf"
			},
			{
				"type": "occ",
				"energy": -0.31795,
				"method": "rhf"
			},
			{
				"type": "occ",
				"energy": -0.27909,
				"method": "rhf"
			},
			{
				"type": "occ",
				"energy": -0.26349,
				"method": "rhf"
			},
			{
				"type": "occ",
				"energy": -0.23041,
				"method": "rhf"
			},
			{
				"type": "unocc",
				"energy": -0.01631,
				"method": "rhf"
			},
			{
				"type": "unocc",
				"energy": -0.00676,
				"method": "rhf"
			},
			{
				"type": "unocc",
				"energy": 0.04187,
				"method": "rhf"
			},
			{
				"type": "unocc",
				"energy": 0.04579,
				"method": "rhf"
			},
			{
				"type": "unocc",
				"energy": 0.07518,
				"method": "rhf"
			}
		],
		"cosmo_sigma_profile": { 
			"-0.025": 0.0,
			"-0.024": 0.0,
			"-0.023": 0.0,
			"-0.022": 0.0,
			"-0.021": 0.0,
			"-0.02": 0.0,
			"-0.019": 0.0,
			"-0.018": 0.0,
			"-0.017": 0.0,
			"-0.016": 0.0,
			"-0.015": 0.0,
			"-0.014": 0.0,
			"-0.013": 0.0,
			"-0.012": 0.0,
			"-0.011": 0.0,
			"-0.01": 0.0,
			"-0.009": 1.7403020076,
			"-0.008": 7.28349722387,
			"-0.007": 14.2755724457,
			"-0.006": 27.3053452383,
			"-0.005": 24.3441646282,
			"-0.004": 18.5496217514,
			"-0.003": 13.4737166959,
			"-0.002": 12.8112473791,
			"-0.001": 11.3546088753,
			"0.0": 8.73971184689,
			"0.001": 8.8113322681,
			"0.002": 11.3900841267,
			"0.003": 13.0077662544,
			"0.004": 14.9660080778,
			"0.005": 11.2079595626,
			"0.006": 6.61978436439,
			"0.007": 6.78811855305,
			"0.008": 6.37621384178,
			"0.009": 6.63166132696,
			"0.01": 5.00055844423,
			"0.011": 7.0017177971,
			"0.012": 4.92003331821,
			"0.013": 2.3982882134,
			"0.014": 0.41675835799,
			"0.015": 0.0,
			"0.016": 0.0,
			"0.017": 0.0,
			"0.018": 0.0,
			"0.019": 0.0,
			"0.02": 0.0,
			"0.021": 0.0,
			"0.022": 0.0,
			"0.023": 0.0,
			"0.024": 0.0,
			"0.025": 0.0
		}
	}
}
