{
	 "smiles": "COC1=CC=C(C=C1)C(CN)NC(=O)OC(C)(C)C", 
	 "Tm": 364.15, 
	 "num_atms": 41, 
	 "gaussian": { 
		 "optdone": 1, 
		 "sigma_profile": "yes", 
		 "theory": "DFT", 
		 "functional": "B3LYP", 
		 "basiset": "6-31G**", 
		 "properties": { 
			 "R2extent": 6728.7536, 
			 "electric_dipole_moment_norm": 3.5492089668, 
			 "electric_quadrupole_moment_norm": 11.4142045408, 
			 "total_energy": -881.947020859, 
			 "HOMO_LUMO_gap": 0.2125, 
			 "cosmo_polarized_energy": -16.03, 
			 "cosmo_cavitation_energy": 43.01, 
			 "cosmo_dispersion_energy": -28.35, 
			 "cosmo_repulsion_energy": 2.25, 
			 "cosmo_total_nonelectrostatic_energy": 16.91, 
			 "SMD_solvation_energy": 7.75 
		},
		"coords": [
			{
				"x": 2.6593256118,
				"y": -4.0587515247,
				"z": 3.5687138245,
				"element": "C" 
			},
			{
				"x": 1.2888493659,
				"y": -3.8145279231,
				"z": 3.2989760393,
				"element": "O" 
			},
			{
				"x": 0.923591841,
				"y": -2.5605607341,
				"z": 2.8993951653,
				"element": "C" 
			},
			{
				"x": -0.4423391579,
				"y": -2.3789915416,
				"z": 2.6339386552,
				"element": "C" 
			},
			{
				"x": -0.914473388,
				"y": -1.1406893371,
				"z": 2.2186726537,
				"element": "C" 
			},
			{
				"x": -0.0473493248,
				"y": -0.0491364052,
				"z": 2.0519683667,
				"element": "C" 
			},
			{
				"x": 1.3098507596,
				"y": -0.246259652,
				"z": 2.3182515913,
				"element": "C" 
			},
			{
				"x": 1.8039761583,
				"y": -1.4850770112,
				"z": 2.7400151466,
				"element": "C" 
			},
			{
				"x": -0.5601932664,
				"y": 1.3290063895,
				"z": 1.6434027646,
				"element": "C" 
			},
			{
				"x": -1.0497451036,
				"y": 2.1455023648,
				"z": 2.859140262,
				"element": "C" 
			},
			{
				"x": 0.0297062968,
				"y": 2.3393507308,
				"z": 3.8230014433,
				"element": "N" 
			},
			{
				"x": -1.6514793485,
				"y": 1.2870841256,
				"z": 0.6742759056,
				"element": "N" 
			},
			{
				"x": -1.5481098867,
				"y": 0.9957426781,
				"z": -0.6609428411,
				"element": "C" 
			},
			{
				"x": -2.5203943438,
				"y": 0.8526209254,
				"z": -1.3866664071,
				"element": "O" 
			},
			{
				"x": -0.2496537857,
				"y": 0.9187025169,
				"z": -1.0314419513,
				"element": "O" 
			},
			{
				"x": 0.1225248628,
				"y": 0.6015348003,
				"z": -2.4176585915,
				"element": "C" 
			},
			{
				"x": 1.6524337827,
				"y": 0.6028964936,
				"z": -2.3578528571,
				"element": "C" 
			},
			{
				"x": -0.4048806036,
				"y": -0.7865455688,
				"z": -2.7970611429,
				"element": "C" 
			},
			{
				"x": -0.3877193407,
				"y": 1.6950449112,
				"z": -3.3622873894,
				"element": "C" 
			},
			{
				"x": 2.7270191596,
				"y": -5.1067809123,
				"z": 3.8649136028,
				"element": "H" 
			},
			{
				"x": 3.2835667137,
				"y": -3.8944384119,
				"z": 2.6806975281,
				"element": "H" 
			},
			{
				"x": 3.03111218,
				"y": -3.4286707911,
				"z": 4.3874001231,
				"element": "H" 
			},
			{
				"x": -1.1101213641,
				"y": -3.2257999029,
				"z": 2.7555327806,
				"element": "H" 
			},
			{
				"x": -1.9727491883,
				"y": -1.0252650182,
				"z": 2.0012794961,
				"element": "H" 
			},
			{
				"x": 2.0012708778,
				"y": 0.5830697566,
				"z": 2.1953624874,
				"element": "H" 
			},
			{
				"x": 2.8650356805,
				"y": -1.5973942021,
				"z": 2.9295300824,
				"element": "H" 
			},
			{
				"x": 0.2677883577,
				"y": 1.8824679065,
				"z": 1.1938363178,
				"element": "H" 
			},
			{
				"x": -1.9464124766,
				"y": 1.6449717995,
				"z": 3.2735882897,
				"element": "H" 
			},
			{
				"x": -1.3697403346,
				"y": 3.1289763966,
				"z": 2.4969658046,
				"element": "H" 
			},
			{
				"x": 0.259617765,
				"y": 1.4541001269,
				"z": 4.2675276952,
				"element": "H" 
			},
			{
				"x": -0.2733135117,
				"y": 2.9701719253,
				"z": 4.5596012261,
				"element": "H" 
			},
			{
				"x": -2.6046928364,
				"y": 1.2915440334,
				"z": 1.0064378187,
				"element": "H" 
			},
			{
				"x": 2.0091305089,
				"y": -0.1413836819,
				"z": -1.6400775393,
				"element": "H" 
			},
			{
				"x": 2.0678865218,
				"y": 0.3660477734,
				"z": -3.3419685754,
				"element": "H" 
			},
			{
				"x": 2.02596749,
				"y": 1.5844257742,
				"z": -2.0511727512,
				"element": "H" 
			},
			{
				"x": -1.4947764997,
				"y": -0.7957089084,
				"z": -2.8196225107,
				"element": "H" 
			},
			{
				"x": -0.0579750804,
				"y": -1.5332004927,
				"z": -2.0758065965,
				"element": "H" 
			},
			{
				"x": -0.0267930576,
				"y": -1.0657911567,
				"z": -3.7860335898,
				"element": "H" 
			},
			{
				"x": -0.0253904364,
				"y": 2.6759064825,
				"z": -3.038078023,
				"element": "H" 
			},
			{
				"x": -1.4775087254,
				"y": 1.7103510973,
				"z": -3.3858027477,
				"element": "H" 
			},
			{
				"x": -0.0121428729,
				"y": 1.5117541678,
				"z": -4.3744515567,
				"element": "H" 
			}
		],
		 "valence_orbital": [ 
			{
				"type": "occ",
				"energy": -0.25417,
				"method": "rhf"
			},
			{
				"type": "occ",
				"energy": -0.2524,
				"method": "rhf"
			},
			{
				"type": "occ",
				"energy": -0.2479,
				"method": "rhf"
			},
			{
				"type": "occ",
				"energy": -0.23615,
				"method": "rhf"
			},
			{
				"type": "occ",
				"energy": -0.21514,
				"method": "rhf"
			},
			{
				"type": "unocc",
				"energy": -0.00264,
				"method": "rhf"
			},
			{
				"type": "unocc",
				"energy": 0.0099,
				"method": "rhf"
			},
			{
				"type": "unocc",
				"energy": 0.06137,
				"method": "rhf"
			},
			{
				"type": "unocc",
				"energy": 0.08287,
				"method": "rhf"
			},
			{
				"type": "unocc",
				"energy": 0.09008,
				"method": "rhf"
			}
		],
		"cosmo_sigma_profile": { 
			"-0.025": 0.0,
			"-0.024": 0.0,
			"-0.023": 0.0,
			"-0.022": 0.0,
			"-0.021": 0.0,
			"-0.02": 0.0,
			"-0.019": 0.0,
			"-0.018": 0.0,
			"-0.017": 0.0,
			"-0.016": 0.0,
			"-0.015": 0.0,
			"-0.014": 0.141201895273,
			"-0.013": 0.59061114458,
			"-0.012": 0.767014946037,
			"-0.011": 1.48515369348,
			"-0.01": 1.9521998646,
			"-0.009": 2.70618277964,
			"-0.008": 3.43141135654,
			"-0.007": 4.82790875739,
			"-0.006": 10.5570167736,
			"-0.005": 18.2314905129,
			"-0.004": 31.9709644024,
			"-0.003": 36.8459149834,
			"-0.002": 31.0773571135,
			"-0.001": 30.2762942944,
			"0.0": 30.987957104,
			"0.001": 29.0976679194,
			"0.002": 15.6026135731,
			"0.003": 14.2131455118,
			"0.004": 15.807024383,
			"0.005": 14.0102240957,
			"0.006": 10.3782206236,
			"0.007": 5.21570225264,
			"0.008": 4.26121958418,
			"0.009": 3.73117549177,
			"0.01": 2.98545601083,
			"0.011": 2.68163060448,
			"0.012": 2.15079036816,
			"0.013": 3.78400716421,
			"0.014": 3.07118672504,
			"0.015": 0.853173714402,
			"0.016": 0.725795458397,
			"0.017": 0.451210507644,
			"0.018": 0.358838065226,
			"0.019": 0.373419040514,
			"0.02": 0.0,
			"0.021": 0.0,
			"0.022": 0.0,
			"0.023": 0.0,
			"0.024": 0.0,
			"0.025": 0.0
		}
	}
}
