{
	 "smiles": "O=C1CCCCCC1", 
	 "Tm": 252.15, 
	 "num_atms": 20, 
	 "gaussian": { 
		 "optdone": 1, 
		 "sigma_profile": "yes", 
		 "theory": "DFT", 
		 "functional": "B3LYP", 
		 "basiset": "6-31G**", 
		 "properties": { 
			 "R2extent": 1569.488, 
			 "electric_dipole_moment_norm": 2.90631592398, 
			 "electric_quadrupole_moment_norm": 11.151166439, 
			 "total_energy": -349.206108706, 
			 "HOMO_LUMO_gap": 0.22095, 
			 "cosmo_polarized_energy": -6.49, 
			 "cosmo_cavitation_energy": 20.88, 
			 "cosmo_dispersion_energy": -15.7, 
			 "cosmo_repulsion_energy": 1.31, 
			 "cosmo_total_nonelectrostatic_energy": 6.48, 
			 "SMD_solvation_energy": 3.36 
		},
		"coords": [
			{
				"x": -3.08244835,
				"y": 1.3320965771,
				"z": 2.0242432404,
				"element": "O" 
			},
			{
				"x": -2.5960527334,
				"y": 0.5262957879,
				"z": 1.2519160135,
				"element": "C" 
			},
			{
				"x": -2.7509930524,
				"y": 0.6555117671,
				"z": -0.2592341183,
				"element": "C" 
			},
			{
				"x": -1.4645112874,
				"y": 1.1455535428,
				"z": -0.964629052,
				"element": "C" 
			},
			{
				"x": -0.1638502922,
				"y": 0.3942260626,
				"z": -0.6229692992,
				"element": "C" 
			},
			{
				"x": 0.3307432462,
				"y": 0.6287765577,
				"z": 0.820429213,
				"element": "C" 
			},
			{
				"x": -0.2655694976,
				"y": -0.2870333676,
				"z": 1.9114428572,
				"element": "C" 
			},
			{
				"x": -1.7618701323,
				"y": -0.6527569562,
				"z": 1.7406413982,
				"element": "C" 
			},
			{
				"x": -3.0303817238,
				"y": -0.3251277139,
				"z": -0.6662513047,
				"element": "H" 
			},
			{
				"x": -3.5674902031,
				"y": 1.3554150888,
				"z": -0.4579104726,
				"element": "H" 
			},
			{
				"x": -1.3200368596,
				"y": 2.2068107461,
				"z": -0.7248788681,
				"element": "H" 
			},
			{
				"x": -1.6386264901,
				"y": 1.0950365878,
				"z": -2.0459065068,
				"element": "H" 
			},
			{
				"x": 0.6088786132,
				"y": 0.7479363534,
				"z": -1.3158343345,
				"element": "H" 
			},
			{
				"x": -0.2760105844,
				"y": -0.680405799,
				"z": -0.8241672036,
				"element": "H" 
			},
			{
				"x": 0.1269591729,
				"y": 1.6760475105,
				"z": 1.0806390657,
				"element": "H" 
			},
			{
				"x": 1.4213117023,
				"y": 0.5228555984,
				"z": 0.8532940356,
				"element": "H" 
			},
			{
				"x": -0.1329775925,
				"y": 0.2020528258,
				"z": 2.8822418568,
				"element": "H" 
			},
			{
				"x": 0.3012270387,
				"y": -1.2244329864,
				"z": 1.9562237669,
				"element": "H" 
			},
			{
				"x": -2.1663121852,
				"y": -0.9838943636,
				"z": 2.7016295629,
				"element": "H" 
			},
			{
				"x": -1.8558887893,
				"y": -1.4809638194,
				"z": 1.0301801496,
				"element": "H" 
			}
		],
		 "valence_orbital": [ 
			{
				"type": "occ",
				"energy": -0.33498,
				"method": "rhf"
			},
			{
				"type": "occ",
				"energy": -0.32709,
				"method": "rhf"
			},
			{
				"type": "occ",
				"energy": -0.32139,
				"method": "rhf"
			},
			{
				"type": "occ",
				"energy": -0.31663,
				"method": "rhf"
			},
			{
				"type": "occ",
				"energy": -0.23415,
				"method": "rhf"
			},
			{
				"type": "unocc",
				"energy": -0.0132,
				"method": "rhf"
			},
			{
				"type": "unocc",
				"energy": 0.0834,
				"method": "rhf"
			},
			{
				"type": "unocc",
				"energy": 0.10394,
				"method": "rhf"
			},
			{
				"type": "unocc",
				"energy": 0.1132,
				"method": "rhf"
			},
			{
				"type": "unocc",
				"energy": 0.12677,
				"method": "rhf"
			}
		],
		"cosmo_sigma_profile": { 
			"-0.025": 0.0,
			"-0.024": 0.0,
			"-0.023": 0.0,
			"-0.022": 0.0,
			"-0.021": 0.0,
			"-0.02": 0.0,
			"-0.019": 0.0,
			"-0.018": 0.0,
			"-0.017": 0.0,
			"-0.016": 0.0,
			"-0.015": 0.0,
			"-0.014": 0.0,
			"-0.013": 0.0,
			"-0.012": 0.0,
			"-0.011": 0.0,
			"-0.01": 0.0,
			"-0.009": 0.0,
			"-0.008": 0.0,
			"-0.007": 0.0,
			"-0.006": 0.266072155204,
			"-0.005": 4.22517218673,
			"-0.004": 10.2202120692,
			"-0.003": 24.9369391484,
			"-0.002": 32.7639018769,
			"-0.001": 32.0973849774,
			"0.0": 21.3887073582,
			"0.001": 9.25484804657,
			"0.002": 1.86648775179,
			"0.003": 1.69797862551,
			"0.004": 1.43390704271,
			"0.005": 1.29272343655,
			"0.006": 1.44910864972,
			"0.007": 1.75678901185,
			"0.008": 1.9116458491,
			"0.009": 0.82255618257,
			"0.01": 1.73178382156,
			"0.011": 2.77285992284,
			"0.012": 4.0734654685,
			"0.013": 3.68966139407,
			"0.014": 1.2838909546,
			"0.015": 0.0,
			"0.016": 0.0,
			"0.017": 0.0,
			"0.018": 0.0,
			"0.019": 0.0,
			"0.02": 0.0,
			"0.021": 0.0,
			"0.022": 0.0,
			"0.023": 0.0,
			"0.024": 0.0,
			"0.025": 0.0
		}
	}
}
