{
	 "smiles": "NC(=O)NCCC1=CN=CC=C1", 
	 "Tm": 426.15, 
	 "num_atms": 23, 
	 "gaussian": { 
		 "optdone": 1, 
		 "sigma_profile": "yes", 
		 "theory": "DFT", 
		 "functional": "B3LYP", 
		 "basiset": "6-31G**", 
		 "properties": { 
			 "R2extent": 3017.7086, 
			 "electric_dipole_moment_norm": 2.8721638759, 
			 "electric_quadrupole_moment_norm": 18.1294939463, 
			 "total_energy": -550.982073567, 
			 "HOMO_LUMO_gap": 0.20888, 
			 "cosmo_polarized_energy": -17.1, 
			 "cosmo_cavitation_energy": 26.53, 
			 "cosmo_dispersion_energy": -18.72, 
			 "cosmo_repulsion_energy": 1.52, 
			 "cosmo_total_nonelectrostatic_energy": 9.33, 
			 "SMD_solvation_energy": 3.49 
		},
		"coords": [
			{
				"x": -1.015431354,
				"y": 0.951168992,
				"z": 3.5008200404,
				"element": "N" 
			},
			{
				"x": -1.4996348469,
				"y": 1.8965462016,
				"z": 2.6053958085,
				"element": "C" 
			},
			{
				"x": -2.5315346,
				"y": 2.5262027128,
				"z": 2.7989839001,
				"element": "O" 
			},
			{
				"x": -0.7226263212,
				"y": 2.1057057442,
				"z": 1.477555341,
				"element": "N" 
			},
			{
				"x": 0.6849549042,
				"y": 1.7702342163,
				"z": 1.3160832454,
				"element": "C" 
			},
			{
				"x": 0.9489866353,
				"y": 0.6482395038,
				"z": 0.2828110906,
				"element": "C" 
			},
			{
				"x": 0.346411656,
				"y": -0.6823487738,
				"z": 0.6650574484,
				"element": "C" 
			},
			{
				"x": 1.0823340162,
				"y": -1.6256166953,
				"z": 1.398476524,
				"element": "C" 
			},
			{
				"x": 0.6093153415,
				"y": -2.8082848148,
				"z": 1.808261457,
				"element": "N" 
			},
			{
				"x": -0.6554887933,
				"y": -3.1074877245,
				"z": 1.4860980259,
				"element": "C" 
			},
			{
				"x": -1.4831543231,
				"y": -2.2526702816,
				"z": 0.7562858288,
				"element": "C" 
			},
			{
				"x": -0.9737483614,
				"y": -1.023365652,
				"z": 0.3423754184,
				"element": "C" 
			},
			{
				"x": -1.7001182356,
				"y": 0.7295109677,
				"z": 4.209941885,
				"element": "H" 
			},
			{
				"x": -0.5381007646,
				"y": 0.1434641786,
				"z": 3.1234398074,
				"element": "H" 
			},
			{
				"x": -1.0860618421,
				"y": 2.8701301094,
				"z": 0.9262457862,
				"element": "H" 
			},
			{
				"x": 1.0924909227,
				"y": 1.4846527942,
				"z": 2.2904169768,
				"element": "H" 
			},
			{
				"x": 1.2302344869,
				"y": 2.6680888435,
				"z": 1.0004320894,
				"element": "H" 
			},
			{
				"x": 2.0349835364,
				"y": 0.5447168485,
				"z": 0.1686657609,
				"element": "H" 
			},
			{
				"x": 0.5566965946,
				"y": 0.9691397155,
				"z": -0.6891893318,
				"element": "H" 
			},
			{
				"x": 2.1182385569,
				"y": -1.4107013772,
				"z": 1.6635478765,
				"element": "H" 
			},
			{
				"x": -1.0219968883,
				"y": -4.0746786375,
				"z": 1.8254147976,
				"element": "H" 
			},
			{
				"x": -2.5012340866,
				"y": -2.5450923726,
				"z": 0.5185848429,
				"element": "H" 
			},
			{
				"x": -1.5900162335,
				"y": -0.3311544988,
				"z": -0.2240046194,
				"element": "H" 
			}
		],
		 "valence_orbital": [ 
			{
				"type": "occ",
				"energy": -0.27314,
				"method": "rhf"
			},
			{
				"type": "occ",
				"energy": -0.26454,
				"method": "rhf"
			},
			{
				"type": "occ",
				"energy": -0.2601,
				"method": "rhf"
			},
			{
				"type": "occ",
				"energy": -0.25315,
				"method": "rhf"
			},
			{
				"type": "occ",
				"energy": -0.24116,
				"method": "rhf"
			},
			{
				"type": "unocc",
				"energy": -0.03228,
				"method": "rhf"
			},
			{
				"type": "unocc",
				"energy": -0.02073,
				"method": "rhf"
			},
			{
				"type": "unocc",
				"energy": 0.05525,
				"method": "rhf"
			},
			{
				"type": "unocc",
				"energy": 0.0778,
				"method": "rhf"
			},
			{
				"type": "unocc",
				"energy": 0.09275,
				"method": "rhf"
			}
		],
		"cosmo_sigma_profile": { 
			"-0.025": 0.0,
			"-0.024": 0.0,
			"-0.023": 0.0,
			"-0.022": 0.0,
			"-0.021": 0.0,
			"-0.02": 0.0,
			"-0.019": 0.0,
			"-0.018": 0.0,
			"-0.017": 0.0,
			"-0.016": 0.0,
			"-0.015": 0.0,
			"-0.014": 0.00381271372767,
			"-0.013": 1.54351231529,
			"-0.012": 2.01660685571,
			"-0.011": 1.68526061249,
			"-0.01": 2.66526923448,
			"-0.009": 2.94847399489,
			"-0.008": 2.65152018747,
			"-0.007": 5.4696050646,
			"-0.006": 13.7368057667,
			"-0.005": 21.5539020434,
			"-0.004": 20.6257032657,
			"-0.003": 15.7275539818,
			"-0.002": 13.1067994096,
			"-0.001": 12.645092704,
			"0.0": 11.2419304213,
			"0.001": 12.9379180629,
			"0.002": 11.9193167257,
			"0.003": 10.3900671174,
			"0.004": 4.94412024745,
			"0.005": 4.66176484793,
			"0.006": 3.44156323972,
			"0.007": 2.76871522996,
			"0.008": 2.59613830691,
			"0.009": 3.24213077751,
			"0.01": 2.47965472109,
			"0.011": 3.06100918277,
			"0.012": 2.71571414729,
			"0.013": 3.27998830828,
			"0.014": 5.06043589574,
			"0.015": 6.56397193745,
			"0.016": 1.23581731425,
			"0.017": 0.521062379813,
			"0.018": 0.0111298826373,
			"0.019": 0.0,
			"0.02": 0.0,
			"0.021": 0.0,
			"0.022": 0.0,
			"0.023": 0.0,
			"0.024": 0.0,
			"0.025": 0.0
		}
	}
}
