{
	 "smiles": "CNC(=O)C1=CC(C)=CC(Cl)=C1NC(=O)C1=CC(Br)=NN1C1=C(Cl)C=CC=N1", 
	 "Tm": 482.15, 
	 "num_atms": 42, 
	 "gaussian": { 
		 "optdone": 1, 
		 "sigma_profile": "yes", 
		 "theory": "DFT", 
		 "functional": "B3LYP", 
		 "basiset": "6-31G**", 
		 "properties": { 
			 "R2extent": 17448.7043, 
			 "electric_dipole_moment_norm": 6.83010750355, 
			 "electric_quadrupole_moment_norm": 17.8143001019, 
			 "total_energy": -4610.34123854, 
			 "HOMO_LUMO_gap": 0.16167, 
			 "cosmo_polarized_energy": -24.03, 
			 "cosmo_cavitation_energy": 52.96, 
			 "cosmo_dispersion_energy": -34.7, 
			 "cosmo_repulsion_energy": 2.64, 
			 "cosmo_total_nonelectrostatic_energy": 20.9, 
			 "SMD_solvation_energy": 7.23 
		},
		"coords": [
			{
				"x": 2.732853745,
				"y": 0.7460489665,
				"z": -2.0941029453,
				"element": "C" 
			},
			{
				"x": 1.7910101159,
				"y": 0.6147946488,
				"z": -0.9938067533,
				"element": "N" 
			},
			{
				"x": 2.2547429677,
				"y": 0.4712677642,
				"z": 0.2752884727,
				"element": "C" 
			},
			{
				"x": 3.4481908212,
				"y": 0.5883796711,
				"z": 0.5438085887,
				"element": "O" 
			},
			{
				"x": 1.2436509781,
				"y": 0.2740058477,
				"z": 1.3926763006,
				"element": "C" 
			},
			{
				"x": 1.6477601774,
				"y": 0.7804513661,
				"z": 2.6313368885,
				"element": "C" 
			},
			{
				"x": 0.8252045692,
				"y": 0.761077792,
				"z": 3.7604995206,
				"element": "C" 
			},
			{
				"x": 1.2877523794,
				"y": 1.3572019388,
				"z": 5.0685993296,
				"element": "C" 
			},
			{
				"x": -0.4459192706,
				"y": 0.1945572884,
				"z": 3.6363118014,
				"element": "C" 
			},
			{
				"x": -0.8457801461,
				"y": -0.3552780452,
				"z": 2.4228678379,
				"element": "C" 
			},
			{
				"x": -2.4465502325,
				"y": -1.0941055699,
				"z": 2.3289777436,
				"element": "Cl" 
			},
			{
				"x": -0.0210271872,
				"y": -0.343818489,
				"z": 1.286384546,
				"element": "C" 
			},
			{
				"x": -0.4953328949,
				"y": -0.9254541039,
				"z": 0.0834516377,
				"element": "N" 
			},
			{
				"x": 0.1601731483,
				"y": -1.9561743884,
				"z": -0.5752162189,
				"element": "C" 
			},
			{
				"x": 1.2386502108,
				"y": -2.4054817442,
				"z": -0.2307955286,
				"element": "O" 
			},
			{
				"x": -0.5350777181,
				"y": -2.5080404481,
				"z": -1.7731272549,
				"element": "C" 
			},
			{
				"x": -0.3375541709,
				"y": -3.7791310118,
				"z": -2.2717718243,
				"element": "C" 
			},
			{
				"x": -1.2213110371,
				"y": -3.8710799823,
				"z": -3.365804426,
				"element": "C" 
			},
			{
				"x": -1.4555294193,
				"y": -5.3577475487,
				"z": -4.4960643748,
				"element": "Br" 
			},
			{
				"x": -1.9164468541,
				"y": -2.7642823208,
				"z": -3.5615481737,
				"element": "N" 
			},
			{
				"x": -1.5092100362,
				"y": -1.9264757286,
				"z": -2.5668559205,
				"element": "N" 
			},
			{
				"x": -1.9341625885,
				"y": -0.570516151,
				"z": -2.6494519451,
				"element": "C" 
			},
			{
				"x": -3.2991845862,
				"y": -0.2424513771,
				"z": -2.7404224232,
				"element": "C" 
			},
			{
				"x": -4.5638072225,
				"y": -1.4292210963,
				"z": -2.6026180413,
				"element": "Cl" 
			},
			{
				"x": -3.6447829396,
				"y": 1.1001952242,
				"z": -2.9007462349,
				"element": "C" 
			},
			{
				"x": -2.6394277414,
				"y": 2.0619490991,
				"z": -2.9290741384,
				"element": "C" 
			},
			{
				"x": -1.3189200512,
				"y": 1.6425804359,
				"z": -2.7780187768,
				"element": "C" 
			},
			{
				"x": -0.975436431,
				"y": 0.3563797826,
				"z": -2.6551371074,
				"element": "N" 
			},
			{
				"x": 3.4450862029,
				"y": -0.0853405998,
				"z": -2.1026911835,
				"element": "H" 
			},
			{
				"x": 2.1705753515,
				"y": 0.7481193026,
				"z": -3.0298846168,
				"element": "H" 
			},
			{
				"x": 3.3053047305,
				"y": 1.6753134107,
				"z": -2.0111176362,
				"element": "H" 
			},
			{
				"x": 0.8230110763,
				"y": 0.4324445796,
				"z": -1.2204885685,
				"element": "H" 
			},
			{
				"x": 2.6452340557,
				"y": 1.2044380378,
				"z": 2.6811236529,
				"element": "H" 
			},
			{
				"x": 0.6675638442,
				"y": 1.0213703953,
				"z": 5.9041424254,
				"element": "H" 
			},
			{
				"x": 1.2428285034,
				"y": 2.4526389501,
				"z": 5.0413929614,
				"element": "H" 
			},
			{
				"x": 2.3249533418,
				"y": 1.0814524595,
				"z": 5.2818436631,
				"element": "H" 
			},
			{
				"x": -1.123452165,
				"y": 0.1592735887,
				"z": 4.4829517106,
				"element": "H" 
			},
			{
				"x": -1.4986496478,
				"y": -0.8841870746,
				"z": -0.0424204684,
				"element": "H" 
			},
			{
				"x": 0.3367053417,
				"y": -4.5232785517,
				"z": -1.8801213109,
				"element": "H" 
			},
			{
				"x": -4.690762107,
				"y": 1.3739461243,
				"z": -2.9838182219,
				"element": "H" 
			},
			{
				"x": -2.8769669064,
				"y": 3.1133558157,
				"z": -3.0490922479,
				"element": "H" 
			},
			{
				"x": -0.5012602072,
				"y": 2.3583217419,
				"z": -2.7601607392,
				"element": "H" 
			}
		],
		 "valence_orbital": [ 
			{
				"type": "occ",
				"energy": -0.26055,
				"method": "rhf"
			},
			{
				"type": "occ",
				"energy": -0.25739,
				"method": "rhf"
			},
			{
				"type": "occ",
				"energy": -0.24488,
				"method": "rhf"
			},
			{
				"type": "occ",
				"energy": -0.24119,
				"method": "rhf"
			},
			{
				"type": "occ",
				"energy": -0.23826,
				"method": "rhf"
			},
			{
				"type": "unocc",
				"energy": -0.07659,
				"method": "rhf"
			},
			{
				"type": "unocc",
				"energy": -0.06448,
				"method": "rhf"
			},
			{
				"type": "unocc",
				"energy": -0.0469,
				"method": "rhf"
			},
			{
				"type": "unocc",
				"energy": -0.03347,
				"method": "rhf"
			},
			{
				"type": "unocc",
				"energy": -0.01558,
				"method": "rhf"
			}
		],
		"cosmo_sigma_profile": { 
			"-0.025": 0.0,
			"-0.024": 0.0,
			"-0.023": 0.0,
			"-0.022": 0.0,
			"-0.021": 0.0,
			"-0.02": 0.0,
			"-0.019": 0.0,
			"-0.018": 0.0,
			"-0.017": 0.0,
			"-0.016": 0.0,
			"-0.015": 0.0207088531726,
			"-0.014": 0.312018296219,
			"-0.013": 0.917907988686,
			"-0.012": 1.1903450333,
			"-0.011": 1.37341206088,
			"-0.01": 2.07043237994,
			"-0.009": 5.20400713437,
			"-0.008": 9.34839141888,
			"-0.007": 12.7461585032,
			"-0.006": 11.5436662172,
			"-0.005": 21.5651196797,
			"-0.004": 28.2558034472,
			"-0.003": 31.1556719238,
			"-0.002": 38.2552145944,
			"-0.001": 45.5820906988,
			"0.0": 46.0351648056,
			"0.001": 32.4910081687,
			"0.002": 34.3397893342,
			"0.003": 34.0922268451,
			"0.004": 22.4728096342,
			"0.005": 8.56270452782,
			"0.006": 6.40974457826,
			"0.007": 5.43490533761,
			"0.008": 4.83835419534,
			"0.009": 5.39381206585,
			"0.01": 5.00511832524,
			"0.011": 5.92846289824,
			"0.012": 4.80050246792,
			"0.013": 3.54276055177,
			"0.014": 4.27172166723,
			"0.015": 0.196414941344,
			"0.016": 0.0,
			"0.017": 0.0,
			"0.018": 0.0,
			"0.019": 0.0,
			"0.02": 0.0,
			"0.021": 0.0,
			"0.022": 0.0,
			"0.023": 0.0,
			"0.024": 0.0,
			"0.025": 0.0
		}
	}
}
