{
	 "smiles": "COCC1=C(F)C(F)=C(COC(=O)C2C(C=CC)C2(C)C)C(F)=C1F", 
	 "Tm": 219.15, 
	 "num_atms": 45, 
	 "gaussian": { 
		 "optdone": 1, 
		 "sigma_profile": "yes", 
		 "theory": "DFT", 
		 "functional": "B3LYP", 
		 "basiset": "6-31G**", 
		 "properties": { 
			 "R2extent": 12414.656, 
			 "electric_dipole_moment_norm": 2.42910884277, 
			 "electric_quadrupole_moment_norm": 14.2743065705, 
			 "total_energy": -1322.92199072, 
			 "HOMO_LUMO_gap": 0.19311, 
			 "cosmo_polarized_energy": -10.96, 
			 "cosmo_cavitation_energy": 50.4, 
			 "cosmo_dispersion_energy": -32.8, 
			 "cosmo_repulsion_energy": 2.5, 
			 "cosmo_total_nonelectrostatic_energy": 20.1, 
			 "SMD_solvation_energy": 11.62 
		},
		"coords": [
			{
				"x": 5.4409612673,
				"y": 0.4791419719,
				"z": -1.4520904407,
				"element": "C" 
			},
			{
				"x": 5.2214023344,
				"y": 0.3996226746,
				"z": -2.8494256157,
				"element": "O" 
			},
			{
				"x": 4.567486716,
				"y": 1.5298812695,
				"z": -3.3976027514,
				"element": "C" 
			},
			{
				"x": 3.0942334633,
				"y": 1.6054614604,
				"z": -3.037867406,
				"element": "C" 
			},
			{
				"x": 2.149809124,
				"y": 0.8364817029,
				"z": -3.7187209381,
				"element": "C" 
			},
			{
				"x": 2.5381417413,
				"y": 0.0538430465,
				"z": -4.7376834224,
				"element": "F" 
			},
			{
				"x": 0.7989480483,
				"y": 0.8725793606,
				"z": -3.3817751674,
				"element": "C" 
			},
			{
				"x": -0.0614025484,
				"y": 0.1160497506,
				"z": -4.0834008492,
				"element": "F" 
			},
			{
				"x": 0.3303578692,
				"y": 1.6806400498,
				"z": -2.344866886,
				"element": "C" 
			},
			{
				"x": -1.1237275416,
				"y": 1.7241190764,
				"z": -1.968967584,
				"element": "C" 
			},
			{
				"x": -1.2736718923,
				"y": 1.02192123,
				"z": -0.7163731645,
				"element": "O" 
			},
			{
				"x": -2.5501983492,
				"y": 0.9661569084,
				"z": -0.2429707526,
				"element": "C" 
			},
			{
				"x": -3.4921592413,
				"y": 1.4238648342,
				"z": -0.8575580679,
				"element": "O" 
			},
			{
				"x": -2.6604998925,
				"y": 0.2927315758,
				"z": 1.0772654945,
				"element": "C" 
			},
			{
				"x": -1.5523271486,
				"y": -0.5546380446,
				"z": 1.6757474841,
				"element": "C" 
			},
			{
				"x": -1.8156995992,
				"y": -1.8916221263,
				"z": 2.2787482967,
				"element": "C" 
			},
			{
				"x": -2.8629554242,
				"y": -2.6832096951,
				"z": 2.0273257748,
				"element": "C" 
			},
			{
				"x": -3.0887053562,
				"y": -4.0331913962,
				"z": 2.644658256,
				"element": "C" 
			},
			{
				"x": -1.9146058491,
				"y": 0.7559894963,
				"z": 2.3449387221,
				"element": "C" 
			},
			{
				"x": -0.93019054,
				"y": 1.9115332027,
				"z": 2.2809840318,
				"element": "C" 
			},
			{
				"x": -2.7357301971,
				"y": 0.7329302354,
				"z": 3.6237783689,
				"element": "C" 
			},
			{
				"x": 1.2749012078,
				"y": 2.4452773094,
				"z": -1.6594136715,
				"element": "C" 
			},
			{
				"x": 0.8775920453,
				"y": 3.2369670856,
				"z": -0.6469644122,
				"element": "F" 
			},
			{
				"x": 2.6242018258,
				"y": 2.4048001247,
				"z": -1.9950839787,
				"element": "C" 
			},
			{
				"x": 3.4866556796,
				"y": 3.164957144,
				"z": -1.2939321795,
				"element": "F" 
			},
			{
				"x": 4.5019262929,
				"y": 0.4810780344,
				"z": -0.8805206661,
				"element": "H" 
			},
			{
				"x": 6.0128370633,
				"y": 1.3794883876,
				"z": -1.1821259262,
				"element": "H" 
			},
			{
				"x": 6.0171975151,
				"y": -0.4062871539,
				"z": -1.1749715962,
				"element": "H" 
			},
			{
				"x": 5.0611355736,
				"y": 2.4598808172,
				"z": -3.0848525552,
				"element": "H" 
			},
			{
				"x": 4.6639551525,
				"y": 1.4301383098,
				"z": -4.480921791,
				"element": "H" 
			},
			{
				"x": -1.4688036346,
				"y": 2.7540442574,
				"z": -1.8446169201,
				"element": "H" 
			},
			{
				"x": -1.7392520657,
				"y": 1.248405917,
				"z": -2.7333054635,
				"element": "H" 
			},
			{
				"x": -3.6842424894,
				"y": -0.0190394151,
				"z": 1.2562523232,
				"element": "H" 
			},
			{
				"x": -0.6173516727,
				"y": -0.5015157655,
				"z": 1.1190932547,
				"element": "H" 
			},
			{
				"x": -1.0515694046,
				"y": -2.2414866624,
				"z": 2.9758306931,
				"element": "H" 
			},
			{
				"x": -3.6186865007,
				"y": -2.3473444075,
				"z": 1.3169738344,
				"element": "H" 
			},
			{
				"x": -4.0366275479,
				"y": -4.0654384469,
				"z": 3.1968937717,
				"element": "H" 
			},
			{
				"x": -3.1497558012,
				"y": -4.8140514982,
				"z": 1.8760005852,
				"element": "H" 
			},
			{
				"x": -2.2842828669,
				"y": -4.3003744398,
				"z": 3.3367105719,
				"element": "H" 
			},
			{
				"x": -0.2157211208,
				"y": 1.8366721407,
				"z": 3.1094523852,
				"element": "H" 
			},
			{
				"x": -1.4524046564,
				"y": 2.8701750896,
				"z": 2.3855092577,
				"element": "H" 
			},
			{
				"x": -0.3672154445,
				"y": 1.9357417768,
				"z": 1.3471769913,
				"element": "H" 
			},
			{
				"x": -2.0765379767,
				"y": 0.7002323196,
				"z": 4.4995481321,
				"element": "H" 
			},
			{
				"x": -3.3497911905,
				"y": 1.6368667213,
				"z": 3.7044262349,
				"element": "H" 
			},
			{
				"x": -3.3949269675,
				"y": -0.1371742298,
				"z": 3.6701977422,
				"element": "H" 
			}
		],
		 "valence_orbital": [ 
			{
				"type": "occ",
				"energy": -0.27944,
				"method": "rhf"
			},
			{
				"type": "occ",
				"energy": -0.26936,
				"method": "rhf"
			},
			{
				"type": "occ",
				"energy": -0.2638,
				"method": "rhf"
			},
			{
				"type": "occ",
				"energy": -0.25283,
				"method": "rhf"
			},
			{
				"type": "occ",
				"energy": -0.23731,
				"method": "rhf"
			},
			{
				"type": "unocc",
				"energy": -0.0442,
				"method": "rhf"
			},
			{
				"type": "unocc",
				"energy": -0.01297,
				"method": "rhf"
			},
			{
				"type": "unocc",
				"energy": 0.00583,
				"method": "rhf"
			},
			{
				"type": "unocc",
				"energy": 0.01942,
				"method": "rhf"
			},
			{
				"type": "unocc",
				"energy": 0.03667,
				"method": "rhf"
			}
		],
		"cosmo_sigma_profile": { 
			"-0.025": 0.0,
			"-0.024": 0.0,
			"-0.023": 0.0,
			"-0.022": 0.0,
			"-0.021": 0.0,
			"-0.02": 0.0,
			"-0.019": 0.0,
			"-0.018": 0.0,
			"-0.017": 0.0,
			"-0.016": 0.0,
			"-0.015": 0.0,
			"-0.014": 0.0,
			"-0.013": 0.0,
			"-0.012": 0.0,
			"-0.011": 0.0,
			"-0.01": 0.0,
			"-0.009": 0.0,
			"-0.008": 0.203928751272,
			"-0.007": 2.1278427301,
			"-0.006": 7.91178687466,
			"-0.005": 17.2625351253,
			"-0.004": 29.2834895481,
			"-0.003": 48.1608677081,
			"-0.002": 56.7487696605,
			"-0.001": 41.7733908698,
			"0.0": 42.0963153364,
			"0.001": 36.984293038,
			"0.002": 27.7755674601,
			"0.003": 39.9373028787,
			"0.004": 14.1407996334,
			"0.005": 6.23598016317,
			"0.006": 3.89690395404,
			"0.007": 3.49920575283,
			"0.008": 2.60469614507,
			"0.009": 2.63502385108,
			"0.01": 2.68364104289,
			"0.011": 3.84722795613,
			"0.012": 6.73241300963,
			"0.013": 2.00307868328,
			"0.014": 0.0279093564861,
			"0.015": 0.0,
			"0.016": 0.0,
			"0.017": 0.0,
			"0.018": 0.0,
			"0.019": 0.0,
			"0.02": 0.0,
			"0.021": 0.0,
			"0.022": 0.0,
			"0.023": 0.0,
			"0.024": 0.0,
			"0.025": 0.0
		}
	}
}
