{
	 "smiles": "CN", 
	 "Tm": 179.95, 
	 "num_atms": 7, 
	 "gaussian": { 
		 "optdone": 1, 
		 "sigma_profile": "yes", 
		 "theory": "DFT", 
		 "functional": "B3LYP", 
		 "basiset": "6-31G**", 
		 "properties": { 
			 "R2extent": 235.4952, 
			 "electric_dipole_moment_norm": 1.41008694058, 
			 "electric_quadrupole_moment_norm": 4.62408062213, 
			 "total_energy": -95.8617085119, 
			 "HOMO_LUMO_gap": 0.31519, 
			 "cosmo_polarized_energy": -4.71, 
			 "cosmo_cavitation_energy": 9.47, 
			 "cosmo_dispersion_energy": -7.31, 
			 "cosmo_repulsion_energy": 0.76, 
			 "cosmo_total_nonelectrostatic_energy": 2.92, 
			 "SMD_solvation_energy": 1.01 
		},
		"coords": [
			{
				"x": -0.0271032253,
				"y": -0.157489779,
				"z": 0.8260981579,
				"element": "C" 
			},
			{
				"x": 0.3325978732,
				"y": -1.1484078822,
				"z": 1.8434707344,
				"element": "N" 
			},
			{
				"x": 0.1732422323,
				"y": -0.5719753258,
				"z": -0.1673464537,
				"element": "H" 
			},
			{
				"x": -1.0758336902,
				"y": 0.1852628933,
				"z": 0.8392523333,
				"element": "H" 
			},
			{
				"x": 0.6109693921,
				"y": 0.7248555468,
				"z": 0.9409979034,
				"element": "H" 
			},
			{
				"x": 0.144280196,
				"y": -0.7739205835,
				"z": 2.7699618432,
				"element": "H" 
			},
			{
				"x": -0.2593527781,
				"y": -1.9697248695,
				"z": 1.7479654814,
				"element": "H" 
			}
		],
		 "valence_orbital": [ 
			{
				"type": "occ",
				"energy": -0.48145,
				"method": "rhf"
			},
			{
				"type": "occ",
				"energy": -0.43293,
				"method": "rhf"
			},
			{
				"type": "occ",
				"energy": -0.39483,
				"method": "rhf"
			},
			{
				"type": "occ",
				"energy": -0.36218,
				"method": "rhf"
			},
			{
				"type": "occ",
				"energy": -0.22843,
				"method": "rhf"
			},
			{
				"type": "unocc",
				"energy": 0.08676,
				"method": "rhf"
			},
			{
				"type": "unocc",
				"energy": 0.14121,
				"method": "rhf"
			},
			{
				"type": "unocc",
				"energy": 0.1546,
				"method": "rhf"
			},
			{
				"type": "unocc",
				"energy": 0.17733,
				"method": "rhf"
			},
			{
				"type": "unocc",
				"energy": 0.18453,
				"method": "rhf"
			}
		],
		"cosmo_sigma_profile": { 
			"-0.025": 0.0,
			"-0.024": 0.0,
			"-0.023": 0.0,
			"-0.022": 0.0,
			"-0.021": 0.0,
			"-0.02": 0.0,
			"-0.019": 0.0,
			"-0.018": 0.0,
			"-0.017": 0.0,
			"-0.016": 0.0,
			"-0.015": 0.0,
			"-0.014": 0.0,
			"-0.013": 0.0,
			"-0.012": 0.0,
			"-0.011": 0.0,
			"-0.01": 0.410130806808,
			"-0.009": 2.66548264146,
			"-0.008": 2.59961734589,
			"-0.007": 2.59565029444,
			"-0.006": 3.14025574431,
			"-0.005": 2.34192525679,
			"-0.004": 2.80825827969,
			"-0.003": 6.63093096674,
			"-0.002": 8.78010056767,
			"-0.001": 10.0304241737,
			"0.0": 10.9183274163,
			"0.001": 4.72972597126,
			"0.002": 1.61525557762,
			"0.003": 1.47939255905,
			"0.004": 0.767360410274,
			"0.005": 0.818261588395,
			"0.006": 0.756788788332,
			"0.007": 0.656763211912,
			"0.008": 0.712589523578,
			"0.009": 0.876176299845,
			"0.01": 1.02710216681,
			"0.011": 0.566409725866,
			"0.012": 0.676789105597,
			"0.013": 0.783139482176,
			"0.014": 0.234203979032,
			"0.015": 0.823858417333,
			"0.016": 0.795188758433,
			"0.017": 0.69149327633,
			"0.018": 0.680382926205,
			"0.019": 0.383218686928,
			"0.02": 0.88523767389,
			"0.021": 0.0676388683347,
			"0.022": 0.0,
			"0.023": 0.0,
			"0.024": 0.0,
			"0.025": 0.0
		}
	}
}
