{
	 "smiles": "[O-][N+](=O)C1=CC(NN=C(C#N)C2=NC(=CS2)C2=CC=CC=C2)=CC=C1", 
	 "Tm": 488.15, 
	 "num_atms": 36, 
	 "gaussian": { 
		 "optdone": 1, 
		 "sigma_profile": "yes", 
		 "theory": "DFT", 
		 "functional": "B3LYP", 
		 "basiset": "6-31G**", 
		 "properties": { 
			 "R2extent": 13279.5728, 
			 "electric_dipole_moment_norm": 9.95111527719, 
			 "electric_quadrupole_moment_norm": 32.615921882, 
			 "total_energy": -1476.68262752, 
			 "HOMO_LUMO_gap": 0.12984, 
			 "cosmo_polarized_energy": -18.38, 
			 "cosmo_cavitation_energy": 45.88, 
			 "cosmo_dispersion_energy": -31.94, 
			 "cosmo_repulsion_energy": 2.34, 
			 "cosmo_total_nonelectrostatic_energy": 16.28, 
			 "SMD_solvation_energy": 9.83 
		},
		"coords": [
			{
				"x": 3.4404695025,
				"y": -6.0561061804,
				"z": -2.7583021175,
				"element": "O" 
			},
			{
				"x": 2.6976578024,
				"y": -5.6863112129,
				"z": -1.8501208515,
				"element": "N" 
			},
			{
				"x": 2.1557686825,
				"y": -6.4318821902,
				"z": -1.0373744807,
				"element": "O" 
			},
			{
				"x": 2.4397269469,
				"y": -4.2367543867,
				"z": -1.7298696557,
				"element": "C" 
			},
			{
				"x": 1.6032979304,
				"y": -3.8015935847,
				"z": -0.7095992094,
				"element": "C" 
			},
			{
				"x": 1.36292741,
				"y": -2.4269602132,
				"z": -0.5999477393,
				"element": "C" 
			},
			{
				"x": 0.5362655777,
				"y": -1.9032625401,
				"z": 0.4000374952,
				"element": "N" 
			},
			{
				"x": -0.0757350366,
				"y": -2.6994995866,
				"z": 1.2519758103,
				"element": "N" 
			},
			{
				"x": -0.8608694714,
				"y": -2.1896907771,
				"z": 2.1745066542,
				"element": "C" 
			},
			{
				"x": -1.4899462816,
				"y": -3.134700694,
				"z": 3.0512949349,
				"element": "C" 
			},
			{
				"x": -2.0276894,
				"y": -3.8558843796,
				"z": 3.789339892,
				"element": "N" 
			},
			{
				"x": -1.1501485655,
				"y": -0.7744932657,
				"z": 2.3751951652,
				"element": "C" 
			},
			{
				"x": -0.6066780051,
				"y": 0.1916511389,
				"z": 1.664787057,
				"element": "N" 
			},
			{
				"x": -1.0681179931,
				"y": 1.4377836065,
				"z": 2.0358124574,
				"element": "C" 
			},
			{
				"x": -1.9836416065,
				"y": 1.4080926289,
				"z": 3.0620125545,
				"element": "C" 
			},
			{
				"x": -2.2934404822,
				"y": -0.2072737353,
				"z": 3.5843179715,
				"element": "S" 
			},
			{
				"x": -0.5604037887,
				"y": 2.645107468,
				"z": 1.3560903795,
				"element": "C" 
			},
			{
				"x": 0.7086894717,
				"y": 2.6380639669,
				"z": 0.7550229969,
				"element": "C" 
			},
			{
				"x": 1.2009393145,
				"y": 3.7796213007,
				"z": 0.1251577463,
				"element": "C" 
			},
			{
				"x": 0.4347491209,
				"y": 4.9462419617,
				"z": 0.0838299689,
				"element": "C" 
			},
			{
				"x": -0.830132564,
				"y": 4.9623775756,
				"z": 0.6756751341,
				"element": "C" 
			},
			{
				"x": -1.3254688794,
				"y": 3.821544097,
				"z": 1.3037583864,
				"element": "C" 
			},
			{
				"x": 1.9581135491,
				"y": -1.5329577624,
				"z": -1.5044716968,
				"element": "C" 
			},
			{
				"x": 2.7916098382,
				"y": -2.0091197016,
				"z": -2.5141159665,
				"element": "C" 
			},
			{
				"x": 3.0455267246,
				"y": -3.3737617877,
				"z": -2.6416656646,
				"element": "C" 
			},
			{
				"x": 1.1543422781,
				"y": -4.506622743,
				"z": -0.0239568485,
				"element": "H" 
			},
			{
				"x": 0.3791930362,
				"y": -0.8902191247,
				"z": 0.480515003,
				"element": "H" 
			},
			{
				"x": -2.4582699783,
				"y": 2.2444909349,
				"z": 3.5535395251,
				"element": "H" 
			},
			{
				"x": 1.3125488653,
				"y": 1.7378996227,
				"z": 0.804271558,
				"element": "H" 
			},
			{
				"x": 2.187587145,
				"y": 3.7603649231,
				"z": -0.3287099294,
				"element": "H" 
			},
			{
				"x": 0.8186029783,
				"y": 5.8349712164,
				"z": -0.4080925687,
				"element": "H" 
			},
			{
				"x": -1.4372164639,
				"y": 5.8621389422,
				"z": 0.6394715076,
				"element": "H" 
			},
			{
				"x": -2.322114513,
				"y": 3.8361369537,
				"z": 1.7349867113,
				"element": "H" 
			},
			{
				"x": 1.7617450405,
				"y": -0.4679747172,
				"z": -1.4155204998,
				"element": "H" 
			},
			{
				"x": 3.2453512201,
				"y": -1.3090588134,
				"z": -3.2080674875,
				"element": "H" 
			},
			{
				"x": 3.6874605945,
				"y": -3.7735589404,
				"z": -3.4152841933,
				"element": "H" 
			}
		],
		 "valence_orbital": [ 
			{
				"type": "occ",
				"energy": -0.29241,
				"method": "rhf"
			},
			{
				"type": "occ",
				"energy": -0.28834,
				"method": "rhf"
			},
			{
				"type": "occ",
				"energy": -0.27057,
				"method": "rhf"
			},
			{
				"type": "occ",
				"energy": -0.25354,
				"method": "rhf"
			},
			{
				"type": "occ",
				"energy": -0.2258,
				"method": "rhf"
			},
			{
				"type": "unocc",
				"energy": -0.09596,
				"method": "rhf"
			},
			{
				"type": "unocc",
				"energy": -0.0917,
				"method": "rhf"
			},
			{
				"type": "unocc",
				"energy": -0.05142,
				"method": "rhf"
			},
			{
				"type": "unocc",
				"energy": -0.02439,
				"method": "rhf"
			},
			{
				"type": "unocc",
				"energy": -0.02057,
				"method": "rhf"
			}
		],
		"cosmo_sigma_profile": { 
			"-0.025": 0.0,
			"-0.024": 0.0,
			"-0.023": 0.0,
			"-0.022": 0.0,
			"-0.021": 0.0,
			"-0.02": 0.0,
			"-0.019": 0.0,
			"-0.018": 0.0,
			"-0.017": 0.0,
			"-0.016": 0.0,
			"-0.015": 0.0,
			"-0.014": 0.0,
			"-0.013": 0.0,
			"-0.012": 0.0389334721336,
			"-0.011": 0.717439819001,
			"-0.01": 2.60368351154,
			"-0.009": 3.19988261506,
			"-0.008": 6.61742485395,
			"-0.007": 12.2147379659,
			"-0.006": 17.5981673075,
			"-0.005": 20.3257425572,
			"-0.004": 24.7603385141,
			"-0.003": 25.0437733644,
			"-0.002": 26.8744747216,
			"-0.001": 35.1297489275,
			"0.0": 39.9066249,
			"0.001": 37.1723322685,
			"0.002": 25.3537115116,
			"0.003": 17.4061643637,
			"0.004": 15.9318064353,
			"0.005": 17.6534542528,
			"0.006": 7.1176840233,
			"0.007": 11.719923614,
			"0.008": 9.70460162563,
			"0.009": 7.64591286951,
			"0.01": 4.56419099341,
			"0.011": 2.62457398462,
			"0.012": 1.98479152831,
			"0.013": 0.415861964505,
			"0.014": 0.0,
			"0.015": 0.0,
			"0.016": 0.0,
			"0.017": 0.0,
			"0.018": 0.0,
			"0.019": 0.0,
			"0.02": 0.0,
			"0.021": 0.0,
			"0.022": 0.0,
			"0.023": 0.0,
			"0.024": 0.0,
			"0.025": 0.0
		}
	}
}
