{
	 "smiles": "CN1C=CC2=C1C=C(C=C2)C(O)=O", 
	 "Tm": 470.15, 
	 "num_atms": 22, 
	 "gaussian": { 
		 "optdone": 1, 
		 "sigma_profile": "yes", 
		 "theory": "DFT", 
		 "functional": "B3LYP", 
		 "basiset": "6-31G**", 
		 "properties": { 
			 "R2extent": 3064.9644, 
			 "electric_dipole_moment_norm": 7.08633303338, 
			 "electric_quadrupole_moment_norm": 25.8694050513, 
			 "total_energy": -591.699133478, 
			 "HOMO_LUMO_gap": 0.17298, 
			 "cosmo_polarized_energy": -17.62, 
			 "cosmo_cavitation_energy": 26.19, 
			 "cosmo_dispersion_energy": -19.26, 
			 "cosmo_repulsion_energy": 1.5, 
			 "cosmo_total_nonelectrostatic_energy": 8.43, 
			 "SMD_solvation_energy": 5.74 
		},
		"coords": [
			{
				"x": 0.8920048142,
				"y": -0.3344967818,
				"z": -3.642521804,
				"element": "C" 
			},
			{
				"x": 0.894970843,
				"y": 0.2851715128,
				"z": -2.3324643263,
				"element": "N" 
			},
			{
				"x": 1.1496632521,
				"y": 1.6164909851,
				"z": -2.0593327074,
				"element": "C" 
			},
			{
				"x": 1.0731312314,
				"y": 1.8515956403,
				"z": -0.7100306361,
				"element": "C" 
			},
			{
				"x": 0.752065959,
				"y": 0.6017554677,
				"z": -0.0895315558,
				"element": "C" 
			},
			{
				"x": 0.6433962319,
				"y": -0.3602428557,
				"z": -1.1364824177,
				"element": "C" 
			},
			{
				"x": 0.3384845919,
				"y": -1.6997926758,
				"z": -0.8892455972,
				"element": "C" 
			},
			{
				"x": 0.1407433082,
				"y": -2.0898354981,
				"z": 0.439993647,
				"element": "C" 
			},
			{
				"x": 0.268369433,
				"y": -1.1505624848,
				"z": 1.4912835905,
				"element": "C" 
			},
			{
				"x": 0.5595423248,
				"y": 0.1794022101,
				"z": 1.2388891393,
				"element": "C" 
			},
			{
				"x": -0.1698788025,
				"y": -3.5031315197,
				"z": 0.8139090698,
				"element": "C" 
			},
			{
				"x": -0.717476464,
				"y": -4.2858608888,
				"z": -0.1621640293,
				"element": "O" 
			},
			{
				"x": 0.036148959,
				"y": -3.9717533985,
				"z": 1.9094905667,
				"element": "O" 
			},
			{
				"x": 1.6444389451,
				"y": -1.1285891376,
				"z": -3.7044756762,
				"element": "H" 
			},
			{
				"x": 1.1249914901,
				"y": 0.4212038401,
				"z": -4.3943469667,
				"element": "H" 
			},
			{
				"x": -0.0899869682,
				"y": -0.7621209908,
				"z": -3.8743865431,
				"element": "H" 
			},
			{
				"x": 1.3692376739,
				"y": 2.2981000223,
				"z": -2.8696670332,
				"element": "H" 
			},
			{
				"x": 1.2303931488,
				"y": 2.8018380393,
				"z": -0.2207089543,
				"element": "H" 
			},
			{
				"x": 0.3093918386,
				"y": -2.419405587,
				"z": -1.7032495452,
				"element": "H" 
			},
			{
				"x": 0.1280368135,
				"y": -1.5087635284,
				"z": 2.5049288413,
				"element": "H" 
			},
			{
				"x": 0.6446418283,
				"y": 0.8876851097,
				"z": 2.0579017894,
				"element": "H" 
			},
			{
				"x": -1.004610452,
				"y": -3.7288874804,
				"z": -0.8985888517,
				"element": "H" 
			}
		],
		 "valence_orbital": [ 
			{
				"type": "occ",
				"energy": -0.30474,
				"method": "rhf"
			},
			{
				"type": "occ",
				"energy": -0.2879,
				"method": "rhf"
			},
			{
				"type": "occ",
				"energy": -0.26323,
				"method": "rhf"
			},
			{
				"type": "occ",
				"energy": -0.23347,
				"method": "rhf"
			},
			{
				"type": "occ",
				"energy": -0.21662,
				"method": "rhf"
			},
			{
				"type": "unocc",
				"energy": -0.04364,
				"method": "rhf"
			},
			{
				"type": "unocc",
				"energy": -0.00078,
				"method": "rhf"
			},
			{
				"type": "unocc",
				"energy": 0.04056,
				"method": "rhf"
			},
			{
				"type": "unocc",
				"energy": 0.06473,
				"method": "rhf"
			},
			{
				"type": "unocc",
				"energy": 0.07916,
				"method": "rhf"
			}
		],
		"cosmo_sigma_profile": { 
			"-0.025": 0.0,
			"-0.024": 0.0,
			"-0.023": 0.0,
			"-0.022": 0.0,
			"-0.021": 0.0,
			"-0.02": 0.0,
			"-0.019": 0.0,
			"-0.018": 0.494803671535,
			"-0.017": 0.575885475402,
			"-0.016": 0.999626760679,
			"-0.015": 1.45782325257,
			"-0.014": 0.894814636688,
			"-0.013": 0.759522828273,
			"-0.012": 0.94777300383,
			"-0.011": 1.06685212662,
			"-0.01": 1.37201524207,
			"-0.009": 2.33865242944,
			"-0.008": 4.75656494556,
			"-0.007": 5.89264378366,
			"-0.006": 13.586701311,
			"-0.005": 15.3733255506,
			"-0.004": 15.4981357416,
			"-0.003": 17.2410666331,
			"-0.002": 12.492854749,
			"-0.001": 9.41012564492,
			"0.0": 9.50341144702,
			"0.001": 8.9352841285,
			"0.002": 11.1143294177,
			"0.003": 11.7779842433,
			"0.004": 15.9191199833,
			"0.005": 14.0622720234,
			"0.006": 6.12410206725,
			"0.007": 2.51822434029,
			"0.008": 3.05596056981,
			"0.009": 2.94090557276,
			"0.01": 3.61090467962,
			"0.011": 5.35119607347,
			"0.012": 5.8448982205,
			"0.013": 3.19633561652,
			"0.014": 0.475131790075,
			"0.015": 0.0,
			"0.016": 0.0,
			"0.017": 0.0,
			"0.018": 0.0,
			"0.019": 0.0,
			"0.02": 0.0,
			"0.021": 0.0,
			"0.022": 0.0,
			"0.023": 0.0,
			"0.024": 0.0,
			"0.025": 0.0
		}
	}
}
