{
	 "smiles": "CC(C)NCC(O)C1=CC=C(NS(C)(=O)=O)C=C1", 
	 "Tm": 480.15, 
	 "num_atms": 38, 
	 "gaussian": { 
		 "optdone": 1, 
		 "sigma_profile": "yes", 
		 "theory": "DFT", 
		 "functional": "B3LYP", 
		 "basiset": "6-31G**", 
		 "properties": { 
			 "R2extent": 9406.8992, 
			 "electric_dipole_moment_norm": 4.71626468829, 
			 "electric_quadrupole_moment_norm": 32.5100844279, 
			 "total_energy": -1202.62488253, 
			 "HOMO_LUMO_gap": 0.20899, 
			 "cosmo_polarized_energy": -22.13, 
			 "cosmo_cavitation_energy": 41.8, 
			 "cosmo_dispersion_energy": -29.07, 
			 "cosmo_repulsion_energy": 2.24, 
			 "cosmo_total_nonelectrostatic_energy": 14.97, 
			 "SMD_solvation_energy": 5.99 
		},
		"coords": [
			{
				"x": 4.3191933483,
				"y": -0.1434067777,
				"z": -1.5350933522,
				"element": "C" 
			},
			{
				"x": 2.9820860649,
				"y": -0.7945799842,
				"z": -1.1366681384,
				"element": "C" 
			},
			{
				"x": 3.2065318101,
				"y": -2.1055181417,
				"z": -0.3773365417,
				"element": "C" 
			},
			{
				"x": 2.1030864536,
				"y": 0.0682348794,
				"z": -0.3347386776,
				"element": "N" 
			},
			{
				"x": 1.6512195392,
				"y": 1.2979386936,
				"z": -0.9739777059,
				"element": "C" 
			},
			{
				"x": 0.3988948839,
				"y": 1.8512091294,
				"z": -0.2664928192,
				"element": "C" 
			},
			{
				"x": 0.2466553744,
				"y": 3.1846601721,
				"z": -0.7473541617,
				"element": "O" 
			},
			{
				"x": -0.838300434,
				"y": 1.0033633711,
				"z": -0.5120636211,
				"element": "C" 
			},
			{
				"x": -1.1061925873,
				"y": -0.1280087657,
				"z": 0.2686641234,
				"element": "C" 
			},
			{
				"x": -2.2116510015,
				"y": -0.9386638542,
				"z": 0.020224961,
				"element": "C" 
			},
			{
				"x": -3.0994676007,
				"y": -0.603309173,
				"z": -1.0125338241,
				"element": "C" 
			},
			{
				"x": -4.2283188146,
				"y": -1.4143701174,
				"z": -1.3120801496,
				"element": "N" 
			},
			{
				"x": -5.3131369191,
				"y": -2.0036108482,
				"z": -0.1563725467,
				"element": "S" 
			},
			{
				"x": -5.8910143666,
				"y": -0.5463899083,
				"z": 0.7413657825,
				"element": "C" 
			},
			{
				"x": -6.4236241338,
				"y": -2.539065234,
				"z": -0.943437088,
				"element": "O" 
			},
			{
				"x": -4.5735276249,
				"y": -2.8286407688,
				"z": 0.7969009198,
				"element": "O" 
			},
			{
				"x": -2.8485156794,
				"y": 0.5325227042,
				"z": -1.7935857244,
				"element": "C" 
			},
			{
				"x": -1.7207430015,
				"y": 1.3146764507,
				"z": -1.5528869464,
				"element": "C" 
			},
			{
				"x": 4.913359535,
				"y": 0.0951531181,
				"z": -0.6437754479,
				"element": "H" 
			},
			{
				"x": 4.1662601823,
				"y": 0.784111094,
				"z": -2.0957705984,
				"element": "H" 
			},
			{
				"x": 4.9147960043,
				"y": -0.8164656908,
				"z": -2.1616349824,
				"element": "H" 
			},
			{
				"x": 2.4247919777,
				"y": -1.0231724571,
				"z": -2.0559135707,
				"element": "H" 
			},
			{
				"x": 2.2501999165,
				"y": -2.5709182566,
				"z": -0.1247403212,
				"element": "H" 
			},
			{
				"x": 3.7549034586,
				"y": -1.9254898125,
				"z": 0.5563064559,
				"element": "H" 
			},
			{
				"x": 3.795302388,
				"y": -2.8099290113,
				"z": -0.9733136989,
				"element": "H" 
			},
			{
				"x": 2.56919344,
				"y": 0.2911110031,
				"z": 0.543255065,
				"element": "H" 
			},
			{
				"x": 1.3923901,
				"y": 1.0774271035,
				"z": -2.0158983034,
				"element": "H" 
			},
			{
				"x": 2.3974058088,
				"y": 2.1088836287,
				"z": -0.9925384458,
				"element": "H" 
			},
			{
				"x": 0.6071414942,
				"y": 1.8598041778,
				"z": 0.8172890448,
				"element": "H" 
			},
			{
				"x": -0.5490069111,
				"y": 3.5535526418,
				"z": -0.3417910301,
				"element": "H" 
			},
			{
				"x": -0.41975578,
				"y": -0.3984487287,
				"z": 1.0645500427,
				"element": "H" 
			},
			{
				"x": -2.390372168,
				"y": -1.8287035775,
				"z": 0.6117273102,
				"element": "H" 
			},
			{
				"x": -4.7268095691,
				"y": -1.1812938289,
				"z": -2.1641405965,
				"element": "H" 
			},
			{
				"x": -5.0282649339,
				"y": -0.0244574694,
				"z": 1.1576454556,
				"element": "H" 
			},
			{
				"x": -6.4478644749,
				"y": 0.0949015931,
				"z": 0.0571255976,
				"element": "H" 
			},
			{
				"x": -6.5394053668,
				"y": -0.9050438214,
				"z": 1.5424188824,
				"element": "H" 
			},
			{
				"x": -3.533757763,
				"y": 0.7996092183,
				"z": -2.5949487529,
				"element": "H" 
			},
			{
				"x": -1.5236826499,
				"y": 2.1854272484,
				"z": -2.1704865957,
				"element": "H" 
			}
		],
		 "valence_orbital": [ 
			{
				"type": "occ",
				"energy": -0.30062,
				"method": "rhf"
			},
			{
				"type": "occ",
				"energy": -0.27916,
				"method": "rhf"
			},
			{
				"type": "occ",
				"energy": -0.25821,
				"method": "rhf"
			},
			{
				"type": "occ",
				"energy": -0.22766,
				"method": "rhf"
			},
			{
				"type": "occ",
				"energy": -0.21982,
				"method": "rhf"
			},
			{
				"type": "unocc",
				"energy": -0.01083,
				"method": "rhf"
			},
			{
				"type": "unocc",
				"energy": -0.01012,
				"method": "rhf"
			},
			{
				"type": "unocc",
				"energy": 0.06038,
				"method": "rhf"
			},
			{
				"type": "unocc",
				"energy": 0.07209,
				"method": "rhf"
			},
			{
				"type": "unocc",
				"energy": 0.07706,
				"method": "rhf"
			}
		],
		"cosmo_sigma_profile": { 
			"-0.025": 0.0,
			"-0.024": 0.0,
			"-0.023": 0.0,
			"-0.022": 0.0,
			"-0.021": 0.0,
			"-0.02": 0.0,
			"-0.019": 0.0,
			"-0.018": 0.0,
			"-0.017": 0.0,
			"-0.016": 0.0520937455348,
			"-0.015": 2.15693391141,
			"-0.014": 1.5893991922,
			"-0.013": 2.25325665855,
			"-0.012": 2.76639476439,
			"-0.011": 1.87159389266,
			"-0.01": 2.08304888866,
			"-0.009": 7.02844077251,
			"-0.008": 7.76275397951,
			"-0.007": 9.42884487231,
			"-0.006": 9.66852741367,
			"-0.005": 13.3011431329,
			"-0.004": 21.3279801251,
			"-0.003": 28.844605976,
			"-0.002": 29.9328985165,
			"-0.001": 27.2513462206,
			"0.0": 22.4089205855,
			"0.001": 26.4713937308,
			"0.002": 17.4154152099,
			"0.003": 11.349547077,
			"0.004": 12.4940564822,
			"0.005": 13.9200452897,
			"0.006": 6.93797116458,
			"0.007": 7.61454540933,
			"0.008": 5.37460322747,
			"0.009": 5.58666967369,
			"0.01": 9.92938258825,
			"0.011": 11.6030192819,
			"0.012": 5.4410066426,
			"0.013": 2.02953388204,
			"0.014": 0.870445083338,
			"0.015": 0.0,
			"0.016": 0.0,
			"0.017": 0.0,
			"0.018": 0.0,
			"0.019": 0.0,
			"0.02": 0.0,
			"0.021": 0.0,
			"0.022": 0.0,
			"0.023": 0.0,
			"0.024": 0.0,
			"0.025": 0.0
		}
	}
}
