{
	 "smiles": "ClC1=CC=CC=C1C1=NN=C(N=N1)C1=C(Cl)C=CC=C1", 
	 "Tm": 456.15, 
	 "num_atms": 28, 
	 "gaussian": { 
		 "optdone": 1, 
		 "sigma_profile": "yes", 
		 "theory": "DFT", 
		 "functional": "B3LYP", 
		 "basiset": "6-31G**", 
		 "properties": { 
			 "R2extent": 8777.9173, 
			 "electric_dipole_moment_norm": 2.1765023547, 
			 "electric_quadrupole_moment_norm": 28.6294650832, 
			 "total_energy": -1677.6102985, 
			 "HOMO_LUMO_gap": 0.12923, 
			 "cosmo_polarized_energy": -12.29, 
			 "cosmo_cavitation_energy": 37.29, 
			 "cosmo_dispersion_energy": -27.46, 
			 "cosmo_repulsion_energy": 2.09, 
			 "cosmo_total_nonelectrostatic_energy": 11.92, 
			 "SMD_solvation_energy": 2.6 
		},
		"coords": [
			{
				"x": -0.5465960471,
				"y": -4.6918500016,
				"z": -0.1499591642,
				"element": "Cl" 
			},
			{
				"x": -2.1296438994,
				"y": -3.9549346099,
				"z": 0.0050788517,
				"element": "C" 
			},
			{
				"x": -3.2252953731,
				"y": -4.8177112071,
				"z": 0.0678763713,
				"element": "C" 
			},
			{
				"x": -4.5080953954,
				"y": -4.3091762107,
				"z": 0.2602822555,
				"element": "C" 
			},
			{
				"x": -4.6995593339,
				"y": -2.9348095657,
				"z": 0.4089584682,
				"element": "C" 
			},
			{
				"x": -3.6058107327,
				"y": -2.0789385192,
				"z": 0.3497220176,
				"element": "C" 
			},
			{
				"x": -2.3028206046,
				"y": -2.562790506,
				"z": 0.1301195865,
				"element": "C" 
			},
			{
				"x": -1.209487736,
				"y": -1.5683479922,
				"z": 0.0481803644,
				"element": "C" 
			},
			{
				"x": -1.3023403591,
				"y": -0.4985456192,
				"z": 0.8639068539,
				"element": "N" 
			},
			{
				"x": -0.3769459216,
				"y": 0.4324330673,
				"z": 0.76857264,
				"element": "N" 
			},
			{
				"x": 0.6223651991,
				"y": 0.2424276273,
				"z": -0.1167602773,
				"element": "C" 
			},
			{
				"x": 0.725025385,
				"y": -0.8362605793,
				"z": -0.9186652915,
				"element": "N" 
			},
			{
				"x": -0.2211954472,
				"y": -1.7482555865,
				"z": -0.850745571,
				"element": "N" 
			},
			{
				"x": 1.6852316221,
				"y": 1.2721052343,
				"z": -0.1495766168,
				"element": "C" 
			},
			{
				"x": 2.3429903479,
				"y": 1.70677151,
				"z": -1.3166791766,
				"element": "C" 
			},
			{
				"x": 1.884881958,
				"y": 1.1475573359,
				"z": -2.9137166367,
				"element": "Cl" 
			},
			{
				"x": 3.3560987464,
				"y": 2.6647800842,
				"z": -1.2487410868,
				"element": "C" 
			},
			{
				"x": 3.7266539019,
				"y": 3.2075558282,
				"z": -0.0202090043,
				"element": "C" 
			},
			{
				"x": 3.0725876164,
				"y": 2.8075370062,
				"z": 1.1459036307,
				"element": "C" 
			},
			{
				"x": 2.0616381674,
				"y": 1.8561560912,
				"z": 1.0740811186,
				"element": "C" 
			},
			{
				"x": -3.0602960774,
				"y": -5.8851901171,
				"z": -0.0249684321,
				"element": "H" 
			},
			{
				"x": -5.3524319739,
				"y": -4.9906069048,
				"z": 0.302195278,
				"element": "H" 
			},
			{
				"x": -5.6943488,
				"y": -2.5313231206,
				"z": 0.5682192928,
				"element": "H" 
			},
			{
				"x": -3.7382285196,
				"y": -1.0092224035,
				"z": 0.4680352459,
				"element": "H" 
			},
			{
				"x": 3.8398025339,
				"y": 2.9847712309,
				"z": -2.1647052485,
				"element": "H" 
			},
			{
				"x": 4.5196910562,
				"y": 3.9481805769,
				"z": 0.0195005821,
				"element": "H" 
			},
			{
				"x": 3.3489092978,
				"y": 3.2320503558,
				"z": 2.1056988561,
				"element": "H" 
			},
			{
				"x": 1.5413203888,
				"y": 1.5386369952,
				"z": 1.9708950925,
				"element": "H" 
			}
		],
		 "valence_orbital": [ 
			{
				"type": "occ",
				"energy": -0.27933,
				"method": "rhf"
			},
			{
				"type": "occ",
				"energy": -0.26234,
				"method": "rhf"
			},
			{
				"type": "occ",
				"energy": -0.2567,
				"method": "rhf"
			},
			{
				"type": "occ",
				"energy": -0.24973,
				"method": "rhf"
			},
			{
				"type": "occ",
				"energy": -0.22972,
				"method": "rhf"
			},
			{
				"type": "unocc",
				"energy": -0.10049,
				"method": "rhf"
			},
			{
				"type": "unocc",
				"energy": -0.08375,
				"method": "rhf"
			},
			{
				"type": "unocc",
				"energy": -0.02872,
				"method": "rhf"
			},
			{
				"type": "unocc",
				"energy": -0.02195,
				"method": "rhf"
			},
			{
				"type": "unocc",
				"energy": -0.02192,
				"method": "rhf"
			}
		],
		"cosmo_sigma_profile": { 
			"-0.025": 0.0,
			"-0.024": 0.0,
			"-0.023": 0.0,
			"-0.022": 0.0,
			"-0.021": 0.0,
			"-0.02": 0.0,
			"-0.019": 0.0,
			"-0.018": 0.0,
			"-0.017": 0.0,
			"-0.016": 0.0,
			"-0.015": 0.0,
			"-0.014": 0.0,
			"-0.013": 0.0,
			"-0.012": 0.0,
			"-0.011": 0.00467573429447,
			"-0.01": 0.637317721543,
			"-0.009": 1.11116076457,
			"-0.008": 3.96462901301,
			"-0.007": 15.8702890562,
			"-0.006": 20.6609568259,
			"-0.005": 21.4242317937,
			"-0.004": 15.8133695031,
			"-0.003": 15.363613027,
			"-0.002": 17.0841693879,
			"-0.001": 18.7763809147,
			"0.0": 24.1272874258,
			"0.001": 30.7841696892,
			"0.002": 36.5468897444,
			"0.003": 29.85319209,
			"0.004": 17.4193516726,
			"0.005": 8.29895431754,
			"0.006": 5.24680352772,
			"0.007": 3.90542983684,
			"0.008": 4.25929584664,
			"0.009": 4.92763754179,
			"0.01": 5.13340878779,
			"0.011": 3.70745707298,
			"0.012": 1.64391842009,
			"0.013": 0.0147598577533,
			"0.014": 0.0,
			"0.015": 0.0,
			"0.016": 0.0,
			"0.017": 0.0,
			"0.018": 0.0,
			"0.019": 0.0,
			"0.02": 0.0,
			"0.021": 0.0,
			"0.022": 0.0,
			"0.023": 0.0,
			"0.024": 0.0,
			"0.025": 0.0
		}
	}
}
