{
	 "smiles": "CC1=CC(Br)=C(O)C=C1", 
	 "Tm": 487.15, 
	 "num_atms": 16, 
	 "gaussian": { 
		 "optdone": 1, 
		 "sigma_profile": "yes", 
		 "theory": "DFT", 
		 "functional": "B3LYP", 
		 "basiset": "6-31G**", 
		 "properties": { 
			 "R2extent": 2103.8405, 
			 "electric_dipole_moment_norm": 3.02251050122, 
			 "electric_quadrupole_moment_norm": 7.27055008029, 
			 "total_energy": -2917.59108943, 
			 "HOMO_LUMO_gap": 0.20758, 
			 "cosmo_polarized_energy": -9.42, 
			 "cosmo_cavitation_energy": 22.05, 
			 "cosmo_dispersion_energy": -16.87, 
			 "cosmo_repulsion_energy": 1.39, 
			 "cosmo_total_nonelectrostatic_energy": 6.56, 
			 "SMD_solvation_energy": 3.16 
		},
		"coords": [
			{
				"x": 2.0481895648,
				"y": -2.6980910866,
				"z": 1.7454240614,
				"element": "C" 
			},
			{
				"x": 1.32272994,
				"y": -1.7759748634,
				"z": 0.7933068969,
				"element": "C" 
			},
			{
				"x": 1.4097552937,
				"y": -0.3854568353,
				"z": 0.9354234787,
				"element": "C" 
			},
			{
				"x": 0.7213644516,
				"y": 0.4722704065,
				"z": 0.0822442366,
				"element": "C" 
			},
			{
				"x": 0.876383951,
				"y": 2.3580987265,
				"z": 0.3161426148,
				"element": "Br" 
			},
			{
				"x": -0.0805229441,
				"y": -0.0344121586,
				"z": -0.9497106501,
				"element": "C" 
			},
			{
				"x": -0.734849605,
				"y": 0.8379588676,
				"z": -1.7646047087,
				"element": "O" 
			},
			{
				"x": -0.1669359753,
				"y": -1.423004162,
				"z": -1.0977201559,
				"element": "C" 
			},
			{
				"x": 0.5241369499,
				"y": -2.2770317522,
				"z": -0.2408884777,
				"element": "C" 
			},
			{
				"x": 2.9729648698,
				"y": -2.2448030635,
				"z": 2.1146900565,
				"element": "H" 
			},
			{
				"x": 1.4308845106,
				"y": -2.9366563131,
				"z": 2.6206978654,
				"element": "H" 
			},
			{
				"x": 2.3069164564,
				"y": -3.6451989991,
				"z": 1.2623632478,
				"element": "H" 
			},
			{
				"x": 2.0232261559,
				"y": 0.0439538008,
				"z": 1.7209370324,
				"element": "H" 
			},
			{
				"x": -1.2369601996,
				"y": 0.3363740838,
				"z": -2.4198997359,
				"element": "H" 
			},
			{
				"x": -0.780064399,
				"y": -1.8335556893,
				"z": -1.8976922826,
				"element": "H" 
			},
			{
				"x": 0.4392809793,
				"y": -3.3510709622,
				"z": -0.3834134796,
				"element": "H" 
			}
		],
		 "valence_orbital": [ 
			{
				"type": "occ",
				"energy": -0.33807,
				"method": "rhf"
			},
			{
				"type": "occ",
				"energy": -0.30414,
				"method": "rhf"
			},
			{
				"type": "occ",
				"energy": -0.27623,
				"method": "rhf"
			},
			{
				"type": "occ",
				"energy": -0.24464,
				"method": "rhf"
			},
			{
				"type": "occ",
				"energy": -0.21931,
				"method": "rhf"
			},
			{
				"type": "unocc",
				"energy": -0.01173,
				"method": "rhf"
			},
			{
				"type": "unocc",
				"energy": 0.00559,
				"method": "rhf"
			},
			{
				"type": "unocc",
				"energy": 0.01519,
				"method": "rhf"
			},
			{
				"type": "unocc",
				"energy": 0.06473,
				"method": "rhf"
			},
			{
				"type": "unocc",
				"energy": 0.10212,
				"method": "rhf"
			}
		],
		"cosmo_sigma_profile": { 
			"-0.025": 0.0,
			"-0.024": 0.0,
			"-0.023": 0.0,
			"-0.022": 0.0,
			"-0.021": 0.0,
			"-0.02": 0.0,
			"-0.019": 0.0724655532299,
			"-0.018": 1.00354302112,
			"-0.017": 1.13975215451,
			"-0.016": 1.08316417573,
			"-0.015": 1.01708353713,
			"-0.014": 0.852573608195,
			"-0.013": 0.582964175526,
			"-0.012": 0.851677087728,
			"-0.011": 1.40841509621,
			"-0.01": 1.28753063267,
			"-0.009": 1.2432269247,
			"-0.008": 1.07506704725,
			"-0.007": 1.80442277797,
			"-0.006": 5.16819861278,
			"-0.005": 7.34882169004,
			"-0.004": 13.8768129381,
			"-0.003": 10.4090995514,
			"-0.002": 12.6926147491,
			"-0.001": 12.5308158832,
			"0.0": 15.267721804,
			"0.001": 10.8424457607,
			"0.002": 12.2194706277,
			"0.003": 18.0326575407,
			"0.004": 17.6192037215,
			"0.005": 15.2722524565,
			"0.006": 3.31041450167,
			"0.007": 2.01027589716,
			"0.008": 2.02397004734,
			"0.009": 1.71201060837,
			"0.01": 2.46640735496,
			"0.011": 2.08358059729,
			"0.012": 0.266417890424,
			"0.013": 0.0,
			"0.014": 0.0,
			"0.015": 0.0,
			"0.016": 0.0,
			"0.017": 0.0,
			"0.018": 0.0,
			"0.019": 0.0,
			"0.02": 0.0,
			"0.021": 0.0,
			"0.022": 0.0,
			"0.023": 0.0,
			"0.024": 0.0,
			"0.025": 0.0
		}
	}
}
