{
	 "smiles": "ClC1=NC(=NC=C1)C1=CC=CC=C1", 
	 "Tm": 343.15, 
	 "num_atms": 20, 
	 "gaussian": { 
		 "optdone": 1, 
		 "sigma_profile": "yes", 
		 "theory": "DFT", 
		 "functional": "B3LYP", 
		 "basiset": "6-31G**", 
		 "properties": { 
			 "R2extent": 3272.7409, 
			 "electric_dipole_moment_norm": 1.44799068022, 
			 "electric_quadrupole_moment_norm": 12.9808154262, 
			 "total_energy": -954.983567884, 
			 "HOMO_LUMO_gap": 0.1805, 
			 "cosmo_polarized_energy": -6.89, 
			 "cosmo_cavitation_energy": 26.53, 
			 "cosmo_dispersion_energy": -19.97, 
			 "cosmo_repulsion_energy": 1.57, 
			 "cosmo_total_nonelectrostatic_energy": 8.13, 
			 "SMD_solvation_energy": 2.22 
		},
		"coords": [
			{
				"x": 0.4205177496,
				"y": 0.6470548163,
				"z": 3.9307776753,
				"element": "Cl" 
			},
			{
				"x": 0.0862173894,
				"y": 1.2390440313,
				"z": 2.308822483,
				"element": "C" 
			},
			{
				"x": -0.0408184422,
				"y": 0.3398016896,
				"z": 1.3575303558,
				"element": "N" 
			},
			{
				"x": -0.2976235736,
				"y": 0.7954419315,
				"z": 0.112316052,
				"element": "C" 
			},
			{
				"x": -0.4297433041,
				"y": 2.0933113574,
				"z": -0.210845956,
				"element": "N" 
			},
			{
				"x": -0.2945636899,
				"y": 2.977788175,
				"z": 0.779523054,
				"element": "C" 
			},
			{
				"x": -0.0292657067,
				"y": 2.6132188306,
				"z": 2.0973235706,
				"element": "C" 
			},
			{
				"x": -0.4422024305,
				"y": -0.2110156802,
				"z": -0.9649650185,
				"element": "C" 
			},
			{
				"x": -0.7102306665,
				"y": 0.1968507644,
				"z": -2.281825923,
				"element": "C" 
			},
			{
				"x": -0.8460285595,
				"y": -0.7495868437,
				"z": -3.2943848319,
				"element": "C" 
			},
			{
				"x": -0.7163914891,
				"y": -2.1106466863,
				"z": -3.0060464541,
				"element": "C" 
			},
			{
				"x": -0.4497591279,
				"y": -2.5222476875,
				"z": -1.6977395423,
				"element": "C" 
			},
			{
				"x": -0.3129655862,
				"y": -1.5801877857,
				"z": -0.68109159,
				"element": "C" 
			},
			{
				"x": -0.4025256785,
				"y": 4.0275793752,
				"z": 0.5119064818,
				"element": "H" 
			},
			{
				"x": 0.0790081406,
				"y": 3.3363066982,
				"z": 2.8950561024,
				"element": "H" 
			},
			{
				"x": -0.8082299819,
				"y": 1.2558778363,
				"z": -2.4908822855,
				"element": "H" 
			},
			{
				"x": -1.0533031462,
				"y": -0.4260332631,
				"z": -4.3103503577,
				"element": "H" 
			},
			{
				"x": -0.8226852583,
				"y": -2.8472742923,
				"z": -3.797406522,
				"element": "H" 
			},
			{
				"x": -0.348351925,
				"y": -3.5793867348,
				"z": -1.4698801775,
				"element": "H" 
			},
			{
				"x": -0.1060547135,
				"y": -1.8868965323,
				"z": 0.3378628834,
				"element": "H" 
			}
		],
		 "valence_orbital": [ 
			{
				"type": "occ",
				"energy": -0.31821,
				"method": "rhf"
			},
			{
				"type": "occ",
				"energy": -0.29274,
				"method": "rhf"
			},
			{
				"type": "occ",
				"energy": -0.26474,
				"method": "rhf"
			},
			{
				"type": "occ",
				"energy": -0.25356,
				"method": "rhf"
			},
			{
				"type": "occ",
				"energy": -0.24275,
				"method": "rhf"
			},
			{
				"type": "unocc",
				"energy": -0.06225,
				"method": "rhf"
			},
			{
				"type": "unocc",
				"energy": -0.0491,
				"method": "rhf"
			},
			{
				"type": "unocc",
				"energy": -0.00096,
				"method": "rhf"
			},
			{
				"type": "unocc",
				"energy": 0.02173,
				"method": "rhf"
			},
			{
				"type": "unocc",
				"energy": 0.02453,
				"method": "rhf"
			}
		],
		"cosmo_sigma_profile": { 
			"-0.025": 0.0,
			"-0.024": 0.0,
			"-0.023": 0.0,
			"-0.022": 0.0,
			"-0.021": 0.0,
			"-0.02": 0.0,
			"-0.019": 0.0,
			"-0.018": 0.0,
			"-0.017": 0.0,
			"-0.016": 0.0,
			"-0.015": 0.0,
			"-0.014": 0.0,
			"-0.013": 0.0,
			"-0.012": 0.0,
			"-0.011": 0.0,
			"-0.01": 0.0652201819775,
			"-0.009": 2.43509109045,
			"-0.008": 4.87631998427,
			"-0.007": 4.50812566627,
			"-0.006": 8.7468490304,
			"-0.005": 11.3578966217,
			"-0.004": 14.4720598056,
			"-0.003": 14.403967318,
			"-0.002": 18.913823207,
			"-0.001": 19.2880470777,
			"0.0": 16.3557986197,
			"0.001": 14.5797908474,
			"0.002": 18.2691280466,
			"0.003": 22.447874799,
			"0.004": 21.2919736081,
			"0.005": 11.4811787594,
			"0.006": 4.45455030807,
			"0.007": 2.95439033991,
			"0.008": 2.34503485416,
			"0.009": 2.2267389039,
			"0.01": 1.12173146002,
			"0.011": 0.338535799519,
			"0.012": 0.0,
			"0.013": 0.0,
			"0.014": 0.0,
			"0.015": 0.0,
			"0.016": 0.0,
			"0.017": 0.0,
			"0.018": 0.0,
			"0.019": 0.0,
			"0.02": 0.0,
			"0.021": 0.0,
			"0.022": 0.0,
			"0.023": 0.0,
			"0.024": 0.0,
			"0.025": 0.0
		}
	}
}
