{
	 "smiles": "[O-][N+](=O)C1=CC(=CC=C1C(Cl)=CC1=CC=C(C=C(Cl)C2=C(C=C(C=C2)C#N)[N+]([O-])=O)C=C1)C#N", 
	 "Tm": 569.15, 
	 "num_atms": 46, 
	 "gaussian": { 
		 "optdone": 1, 
		 "sigma_profile": "yes", 
		 "theory": "DFT", 
		 "functional": "B3LYP", 
		 "basiset": "6-31G**", 
		 "properties": { 
			 "R2extent": 26501.4833, 
			 "electric_dipole_moment_norm": 5.87656438576, 
			 "electric_quadrupole_moment_norm": 29.8459626236, 
			 "total_energy": -2361.78596201, 
			 "HOMO_LUMO_gap": 0.12104, 
			 "cosmo_polarized_energy": -27.53, 
			 "cosmo_cavitation_energy": 60.55, 
			 "cosmo_dispersion_energy": -39.09, 
			 "cosmo_repulsion_energy": 2.92, 
			 "cosmo_total_nonelectrostatic_energy": 24.39, 
			 "SMD_solvation_energy": 16.57 
		},
		"coords": [
			{
				"x": 4.0226640841,
				"y": 3.6012976683,
				"z": -2.2719338159,
				"element": "O" 
			},
			{
				"x": 4.0018432262,
				"y": 3.3930433124,
				"z": -1.0597244012,
				"element": "N" 
			},
			{
				"x": 4.6168890843,
				"y": 2.5101052233,
				"z": -0.4737393824,
				"element": "O" 
			},
			{
				"x": 3.1994373458,
				"y": 4.3277438674,
				"z": -0.2407423101,
				"element": "C" 
			},
			{
				"x": 3.3356337448,
				"y": 5.6743176937,
				"z": -0.5590489026,
				"element": "C" 
			},
			{
				"x": 2.7032223619,
				"y": 6.6339142948,
				"z": 0.2397310704,
				"element": "C" 
			},
			{
				"x": 1.9307823747,
				"y": 6.2185122796,
				"z": 1.3386086529,
				"element": "C" 
			},
			{
				"x": 1.7829093428,
				"y": 4.8660362879,
				"z": 1.6133209547,
				"element": "C" 
			},
			{
				"x": 2.3987688869,
				"y": 3.8773237473,
				"z": 0.8251719892,
				"element": "C" 
			},
			{
				"x": 2.1243891954,
				"y": 2.4437155263,
				"z": 1.0831355004,
				"element": "C" 
			},
			{
				"x": 2.3113611627,
				"y": 1.9784879007,
				"z": 2.770705618,
				"element": "Cl" 
			},
			{
				"x": 1.691786967,
				"y": 1.6064625682,
				"z": 0.119167452,
				"element": "C" 
			},
			{
				"x": 1.3275350472,
				"y": 0.1905100836,
				"z": 0.1090319063,
				"element": "C" 
			},
			{
				"x": 1.6983366335,
				"y": -0.7553798444,
				"z": 1.0863753319,
				"element": "C" 
			},
			{
				"x": 1.312774933,
				"y": -2.0842813976,
				"z": 0.9668836252,
				"element": "C" 
			},
			{
				"x": 0.524155014,
				"y": -2.5278414984,
				"z": -0.1109473846,
				"element": "C" 
			},
			{
				"x": 0.1443390481,
				"y": -3.9455268802,
				"z": -0.1823903775,
				"element": "C" 
			},
			{
				"x": -0.9868336403,
				"y": -4.454401736,
				"z": -0.6968799915,
				"element": "C" 
			},
			{
				"x": -1.1881720864,
				"y": -6.2080973383,
				"z": -0.7524574963,
				"element": "Cl" 
			},
			{
				"x": -2.2063442827,
				"y": -3.7060106286,
				"z": -1.0991928148,
				"element": "C" 
			},
			{
				"x": -2.7859815012,
				"y": -3.7289405732,
				"z": -2.3810648875,
				"element": "C" 
			},
			{
				"x": -3.9964284621,
				"y": -3.1084995132,
				"z": -2.6648745325,
				"element": "C" 
			},
			{
				"x": -4.6616236528,
				"y": -2.406638898,
				"z": -1.651790372,
				"element": "C" 
			},
			{
				"x": -4.1019461327,
				"y": -2.3524858097,
				"z": -0.3647612667,
				"element": "C" 
			},
			{
				"x": -2.9025599132,
				"y": -3.003696535,
				"z": -0.1013369874,
				"element": "C" 
			},
			{
				"x": -5.903160413,
				"y": -1.7454403295,
				"z": -1.9303485368,
				"element": "C" 
			},
			{
				"x": -6.9085864719,
				"y": -1.2037640804,
				"z": -2.1484958519,
				"element": "N" 
			},
			{
				"x": -2.097786768,
				"y": -4.3720554639,
				"z": -3.5185882364,
				"element": "N" 
			},
			{
				"x": -2.7947726987,
				"y": -4.7561246809,
				"z": -4.4536186821,
				"element": "O" 
			},
			{
				"x": -0.8729631702,
				"y": -4.4487102633,
				"z": -3.4653757794,
				"element": "O" 
			},
			{
				"x": 0.18388116,
				"y": -1.5946965278,
				"z": -1.1069673169,
				"element": "C" 
			},
			{
				"x": 0.5829193998,
				"y": -0.2703149947,
				"z": -0.9974430079,
				"element": "C" 
			},
			{
				"x": 2.84910316,
				"y": 8.0283284876,
				"z": -0.0587096077,
				"element": "C" 
			},
			{
				"x": 2.9621533509,
				"y": 9.1611963379,
				"z": -0.2953157679,
				"element": "N" 
			},
			{
				"x": 3.9442337313,
				"y": 5.9635802487,
				"z": -1.4069653724,
				"element": "H" 
			},
			{
				"x": 1.4395520536,
				"y": 6.9592894732,
				"z": 1.9598858513,
				"element": "H" 
			},
			{
				"x": 1.1630148353,
				"y": 4.5541354722,
				"z": 2.4463705084,
				"element": "H" 
			},
			{
				"x": 1.5600439095,
				"y": 2.0921905169,
				"z": -0.8470341393,
				"element": "H" 
			},
			{
				"x": 2.308933624,
				"y": -0.4581801373,
				"z": 1.9277376783,
				"element": "H" 
			},
			{
				"x": 1.6225185249,
				"y": -2.7965527091,
				"z": 1.7268837262,
				"element": "H" 
			},
			{
				"x": 0.8654593479,
				"y": -4.6536812042,
				"z": 0.2183621202,
				"element": "H" 
			},
			{
				"x": -4.4009627485,
				"y": -3.1695615624,
				"z": -3.6672245966,
				"element": "H" 
			},
			{
				"x": -4.616388875,
				"y": -1.8136366235,
				"z": 0.4233888877,
				"element": "H" 
			},
			{
				"x": -2.4883034936,
				"y": -2.9865991541,
				"z": 0.9003669886,
				"element": "H" 
			},
			{
				"x": -0.3513612587,
				"y": -1.9248088861,
				"z": -1.9900724268,
				"element": "H" 
			},
			{
				"x": 0.3238340196,
				"y": 0.4280362795,
				"z": -1.7887836167,
				"element": "H" 
			}
		],
		 "valence_orbital": [ 
			{
				"type": "occ",
				"energy": -0.29797,
				"method": "rhf"
			},
			{
				"type": "occ",
				"energy": -0.29633,
				"method": "rhf"
			},
			{
				"type": "occ",
				"energy": -0.27866,
				"method": "rhf"
			},
			{
				"type": "occ",
				"energy": -0.27576,
				"method": "rhf"
			},
			{
				"type": "occ",
				"energy": -0.23733,
				"method": "rhf"
			},
			{
				"type": "unocc",
				"energy": -0.11629,
				"method": "rhf"
			},
			{
				"type": "unocc",
				"energy": -0.1098,
				"method": "rhf"
			},
			{
				"type": "unocc",
				"energy": -0.09212,
				"method": "rhf"
			},
			{
				"type": "unocc",
				"energy": -0.08565,
				"method": "rhf"
			},
			{
				"type": "unocc",
				"energy": -0.0675,
				"method": "rhf"
			}
		],
		"cosmo_sigma_profile": { 
			"-0.025": 0.0,
			"-0.024": 0.0,
			"-0.023": 0.0,
			"-0.022": 0.0,
			"-0.021": 0.0,
			"-0.02": 0.0,
			"-0.019": 0.0,
			"-0.018": 0.0,
			"-0.017": 0.0,
			"-0.016": 0.0,
			"-0.015": 0.0,
			"-0.014": 0.0,
			"-0.013": 0.0,
			"-0.012": 0.0,
			"-0.011": 0.15235277918,
			"-0.01": 4.4501961008,
			"-0.009": 14.889430766,
			"-0.008": 19.4182538134,
			"-0.007": 19.6201118093,
			"-0.006": 20.5702682132,
			"-0.005": 24.8873012418,
			"-0.004": 27.1660901885,
			"-0.003": 36.1833816974,
			"-0.002": 40.2406046368,
			"-0.001": 35.6772098195,
			"0.0": 32.0298404966,
			"0.001": 29.0716394533,
			"0.002": 31.6410824214,
			"0.003": 34.2083324147,
			"0.004": 24.6749258353,
			"0.005": 15.1938041116,
			"0.006": 17.8934934738,
			"0.007": 25.2817597314,
			"0.008": 15.8174910528,
			"0.009": 11.4002621472,
			"0.01": 5.94066739283,
			"0.011": 4.8284651443,
			"0.012": 3.94080554004,
			"0.013": 0.399550702956,
			"0.014": 0.0,
			"0.015": 0.0,
			"0.016": 0.0,
			"0.017": 0.0,
			"0.018": 0.0,
			"0.019": 0.0,
			"0.02": 0.0,
			"0.021": 0.0,
			"0.022": 0.0,
			"0.023": 0.0,
			"0.024": 0.0,
			"0.025": 0.0
		}
	}
}
