{
	 "smiles": "C(NC1=NC=CC=C1)C1=CC=CS1", 
	 "Tm": 350.15, 
	 "num_atms": 23, 
	 "gaussian": { 
		 "optdone": 1, 
		 "sigma_profile": "yes", 
		 "theory": "DFT", 
		 "functional": "B3LYP", 
		 "basiset": "6-31G**", 
		 "properties": { 
			 "R2extent": 3225.3176, 
			 "electric_dipole_moment_norm": 1.99304182595, 
			 "electric_quadrupole_moment_norm": 7.19407282004, 
			 "total_energy": -894.767336273, 
			 "HOMO_LUMO_gap": 0.19058, 
			 "cosmo_polarized_energy": -9.88, 
			 "cosmo_cavitation_energy": 28.38, 
			 "cosmo_dispersion_energy": -21.09, 
			 "cosmo_repulsion_energy": 1.63, 
			 "cosmo_total_nonelectrostatic_energy": 8.91, 
			 "SMD_solvation_energy": 3.37 
		},
		"coords": [
			{
				"x": -0.6560424751,
				"y": 0.9140041635,
				"z": 1.3146443421,
				"element": "C" 
			},
			{
				"x": -0.4971951065,
				"y": -0.4854679642,
				"z": 0.9271508975,
				"element": "N" 
			},
			{
				"x": -0.4399644755,
				"y": -0.8766561465,
				"z": -0.3980260573,
				"element": "C" 
			},
			{
				"x": -0.787570763,
				"y": 0.025829491,
				"z": -1.3274478454,
				"element": "N" 
			},
			{
				"x": -0.7901945379,
				"y": -0.361083331,
				"z": -2.61079618,
				"element": "C" 
			},
			{
				"x": -0.4443265674,
				"y": -1.6359710319,
				"z": -3.0425027678,
				"element": "C" 
			},
			{
				"x": -0.0702045512,
				"y": -2.5693525283,
				"z": -2.0661599232,
				"element": "C" 
			},
			{
				"x": -0.0654174475,
				"y": -2.1990481955,
				"z": -0.7322936677,
				"element": "C" 
			},
			{
				"x": 0.6267578234,
				"y": 1.700560214,
				"z": 1.411447712,
				"element": "C" 
			},
			{
				"x": 1.2638391243,
				"y": 2.1126805449,
				"z": 2.5543623653,
				"element": "C" 
			},
			{
				"x": 2.4766514229,
				"y": 2.8263749492,
				"z": 2.3093495056,
				"element": "C" 
			},
			{
				"x": 2.7502718208,
				"y": 2.9475692416,
				"z": 0.9754887577,
				"element": "C" 
			},
			{
				"x": 1.5286279652,
				"y": 2.1970605371,
				"z": -0.0022636115,
				"element": "S" 
			},
			{
				"x": -1.1403836106,
				"y": 0.9398247799,
				"z": 2.2968622492,
				"element": "H" 
			},
			{
				"x": -1.338606408,
				"y": 1.36497141,
				"z": 0.5925307348,
				"element": "H" 
			},
			{
				"x": 0.0412300803,
				"y": -1.0529268721,
				"z": 1.5664804973,
				"element": "H" 
			},
			{
				"x": -1.0808861014,
				"y": 0.4038103676,
				"z": -3.3292794626,
				"element": "H" 
			},
			{
				"x": -0.4595955907,
				"y": -1.8893812432,
				"z": -4.096752471,
				"element": "H" 
			},
			{
				"x": 0.2142935666,
				"y": -3.5794055837,
				"z": -2.3483379626,
				"element": "H" 
			},
			{
				"x": 0.2110055886,
				"y": -2.9036895869,
				"z": 0.0469803071,
				"element": "H" 
			},
			{
				"x": 0.8701831167,
				"y": 1.9140512664,
				"z": 3.5463593947,
				"element": "H" 
			},
			{
				"x": 3.1115542182,
				"y": 3.2283205534,
				"z": 3.0909668348,
				"element": "H" 
			},
			{
				"x": 3.5950729079,
				"y": 3.4336249646,
				"z": 0.506736351,
				"element": "H" 
			}
		],
		 "valence_orbital": [ 
			{
				"type": "occ",
				"energy": -0.27548,
				"method": "rhf"
			},
			{
				"type": "occ",
				"energy": -0.25363,
				"method": "rhf"
			},
			{
				"type": "occ",
				"energy": -0.24321,
				"method": "rhf"
			},
			{
				"type": "occ",
				"energy": -0.22698,
				"method": "rhf"
			},
			{
				"type": "occ",
				"energy": -0.20364,
				"method": "rhf"
			},
			{
				"type": "unocc",
				"energy": -0.01306,
				"method": "rhf"
			},
			{
				"type": "unocc",
				"energy": -0.0088,
				"method": "rhf"
			},
			{
				"type": "unocc",
				"energy": 0.01553,
				"method": "rhf"
			},
			{
				"type": "unocc",
				"energy": 0.04563,
				"method": "rhf"
			},
			{
				"type": "unocc",
				"energy": 0.07184,
				"method": "rhf"
			}
		],
		"cosmo_sigma_profile": { 
			"-0.025": 0.0,
			"-0.024": 0.0,
			"-0.023": 0.0,
			"-0.022": 0.0,
			"-0.021": 0.0,
			"-0.02": 0.0,
			"-0.019": 0.0,
			"-0.018": 0.0,
			"-0.017": 0.0,
			"-0.016": 0.0,
			"-0.015": 0.0,
			"-0.014": 0.00396200705831,
			"-0.013": 1.01397005613,
			"-0.012": 1.14655383111,
			"-0.011": 1.57491892749,
			"-0.01": 1.37350300436,
			"-0.009": 1.22620469639,
			"-0.008": 2.71935761331,
			"-0.007": 5.4883117463,
			"-0.006": 14.6316980405,
			"-0.005": 16.9364431595,
			"-0.004": 17.4703020505,
			"-0.003": 15.718082461,
			"-0.002": 14.921304607,
			"-0.001": 12.7619775704,
			"0.0": 10.2489056696,
			"0.001": 11.0893636972,
			"0.002": 14.541540367,
			"0.003": 17.6349334898,
			"0.004": 23.4062182396,
			"0.005": 24.186871527,
			"0.006": 10.4313640214,
			"0.007": 3.08995744133,
			"0.008": 2.07619115237,
			"0.009": 2.35183791356,
			"0.01": 1.14955437527,
			"0.011": 1.05087231474,
			"0.012": 0.589698593487,
			"0.013": 0.0977198757352,
			"0.014": 0.0,
			"0.015": 0.0,
			"0.016": 0.0,
			"0.017": 0.0,
			"0.018": 0.0,
			"0.019": 0.0,
			"0.02": 0.0,
			"0.021": 0.0,
			"0.022": 0.0,
			"0.023": 0.0,
			"0.024": 0.0,
			"0.025": 0.0
		}
	}
}
