{
	 "smiles": "NNC(=O)C1=CC=CC=C1[N+]([O-])=O", 
	 "Tm": 395.15, 
	 "num_atms": 20, 
	 "gaussian": { 
		 "optdone": 1, 
		 "sigma_profile": "yes", 
		 "theory": "DFT", 
		 "functional": "B3LYP", 
		 "basiset": "6-31G**", 
		 "properties": { 
			 "R2extent": 2271.3078, 
			 "electric_dipole_moment_norm": 5.5590122441, 
			 "electric_quadrupole_moment_norm": 6.87118975651, 
			 "total_energy": -660.758006794, 
			 "HOMO_LUMO_gap": 0.15051, 
			 "cosmo_polarized_energy": -16.83, 
			 "cosmo_cavitation_energy": 25.2, 
			 "cosmo_dispersion_energy": -18.05, 
			 "cosmo_repulsion_energy": 1.45, 
			 "cosmo_total_nonelectrostatic_energy": 8.59, 
			 "SMD_solvation_energy": 7.24 
		},
		"coords": [
			{
				"x": -0.7511284449,
				"y": 0.9841306657,
				"z": 2.9916953683,
				"element": "N" 
			},
			{
				"x": -0.2690241396,
				"y": -0.2800798515,
				"z": 2.6055912206,
				"element": "N" 
			},
			{
				"x": 0.0123290732,
				"y": -0.6475211871,
				"z": 1.3179329383,
				"element": "C" 
			},
			{
				"x": 0.1217785232,
				"y": -1.8088741612,
				"z": 0.9607082821,
				"element": "O" 
			},
			{
				"x": 0.3787616068,
				"y": 0.4783557545,
				"z": 0.3607489092,
				"element": "C" 
			},
			{
				"x": 1.7281547643,
				"y": 0.8478066059,
				"z": 0.2920047169,
				"element": "C" 
			},
			{
				"x": 2.1815194768,
				"y": 1.748914113,
				"z": -0.6715212008,
				"element": "C" 
			},
			{
				"x": 1.2951286996,
				"y": 2.2848877916,
				"z": -1.6090901445,
				"element": "C" 
			},
			{
				"x": -0.0475329409,
				"y": 1.9227626876,
				"z": -1.5730139972,
				"element": "C" 
			},
			{
				"x": -0.4868950125,
				"y": 1.0380616669,
				"z": -0.5876200827,
				"element": "C" 
			},
			{
				"x": -1.9225608146,
				"y": 0.7296878092,
				"z": -0.5493259535,
				"element": "N" 
			},
			{
				"x": -2.5857074728,
				"y": 0.9380728105,
				"z": -1.5601379991,
				"element": "O" 
			},
			{
				"x": -2.3840415643,
				"y": 0.2959536493,
				"z": 0.5119954159,
				"element": "O" 
			},
			{
				"x": -0.0019442089,
				"y": 1.6668456719,
				"z": 2.9294623476,
				"element": "H" 
			},
			{
				"x": -1.5113159931,
				"y": 1.2541199286,
				"z": 2.3696159804,
				"element": "H" 
			},
			{
				"x": -0.5422638251,
				"y": -1.04114394,
				"z": 3.215659984,
				"element": "H" 
			},
			{
				"x": 2.4273039956,
				"y": 0.4080962066,
				"z": 0.9966150068,
				"element": "H" 
			},
			{
				"x": 3.2315946049,
				"y": 2.0239313749,
				"z": -0.6967593608,
				"element": "H" 
			},
			{
				"x": 1.6466405936,
				"y": 2.980598706,
				"z": -2.363944231,
				"element": "H" 
			},
			{
				"x": -0.7651969213,
				"y": 2.3126936976,
				"z": -2.2842172004,
				"element": "H" 
			}
		],
		 "valence_orbital": [ 
			{
				"type": "occ",
				"energy": -0.29546,
				"method": "rhf"
			},
			{
				"type": "occ",
				"energy": -0.29064,
				"method": "rhf"
			},
			{
				"type": "occ",
				"energy": -0.28812,
				"method": "rhf"
			},
			{
				"type": "occ",
				"energy": -0.26848,
				"method": "rhf"
			},
			{
				"type": "occ",
				"energy": -0.25211,
				"method": "rhf"
			},
			{
				"type": "unocc",
				"energy": -0.1016,
				"method": "rhf"
			},
			{
				"type": "unocc",
				"energy": -0.03997,
				"method": "rhf"
			},
			{
				"type": "unocc",
				"energy": -0.01646,
				"method": "rhf"
			},
			{
				"type": "unocc",
				"energy": 0.01097,
				"method": "rhf"
			},
			{
				"type": "unocc",
				"energy": 0.0674,
				"method": "rhf"
			}
		],
		"cosmo_sigma_profile": { 
			"-0.025": 0.0,
			"-0.024": 0.0,
			"-0.023": 0.0,
			"-0.022": 0.0,
			"-0.021": 0.0,
			"-0.02": 0.0,
			"-0.019": 0.0,
			"-0.018": 0.0,
			"-0.017": 0.0,
			"-0.016": 0.0,
			"-0.015": 0.00282613923027,
			"-0.014": 0.642864910592,
			"-0.013": 1.06030281444,
			"-0.012": 1.31669141268,
			"-0.011": 1.95772777828,
			"-0.01": 2.90437186954,
			"-0.009": 3.35788493531,
			"-0.008": 9.33483852736,
			"-0.007": 14.4907982232,
			"-0.006": 14.08602946,
			"-0.005": 10.1373609143,
			"-0.004": 10.691379815,
			"-0.003": 10.0985081112,
			"-0.002": 8.33077422678,
			"-0.001": 11.4671514778,
			"0.0": 12.8052137913,
			"0.001": 14.5674984767,
			"0.002": 11.0276760169,
			"0.003": 5.67686281262,
			"0.004": 5.29777250676,
			"0.005": 5.88474496438,
			"0.006": 7.14947082627,
			"0.007": 8.69616546085,
			"0.008": 6.89331790999,
			"0.009": 4.71323144283,
			"0.01": 3.07863145114,
			"0.011": 2.92269356717,
			"0.012": 4.9808155059,
			"0.013": 5.30981091393,
			"0.014": 1.23929650751,
			"0.015": 0.669390439764,
			"0.016": 0.30212072033,
			"0.017": 0.0,
			"0.018": 0.0,
			"0.019": 0.0,
			"0.02": 0.0,
			"0.021": 0.0,
			"0.022": 0.0,
			"0.023": 0.0,
			"0.024": 0.0,
			"0.025": 0.0
		}
	}
}
