{
	 "smiles": "CN(C)C(=O)C1=CN=C(F)C=C1", 
	 "Tm": 318.15, 
	 "num_atms": 21, 
	 "gaussian": { 
		 "optdone": 1, 
		 "sigma_profile": "yes", 
		 "theory": "DFT", 
		 "functional": "B3LYP", 
		 "basiset": "6-31G**", 
		 "properties": { 
			 "R2extent": 2914.7677, 
			 "electric_dipole_moment_norm": 5.20859831913, 
			 "electric_quadrupole_moment_norm": 8.93975153066, 
			 "total_energy": -594.842489552, 
			 "HOMO_LUMO_gap": 0.20284, 
			 "cosmo_polarized_energy": -12.73, 
			 "cosmo_cavitation_energy": 25.43, 
			 "cosmo_dispersion_energy": -18.33, 
			 "cosmo_repulsion_energy": 1.43, 
			 "cosmo_total_nonelectrostatic_energy": 8.54, 
			 "SMD_solvation_energy": 3.99 
		},
		"coords": [
			{
				"x": -2.3677953191,
				"y": -3.3492684927,
				"z": -0.0676734263,
				"element": "C" 
			},
			{
				"x": -1.6701624333,
				"y": -2.0745462483,
				"z": 0.0530359527,
				"element": "N" 
			},
			{
				"x": -0.9503138914,
				"y": -1.8838439345,
				"z": 1.3053220861,
				"element": "C" 
			},
			{
				"x": -2.0272851822,
				"y": -1.0656180316,
				"z": -0.8144114401,
				"element": "C" 
			},
			{
				"x": -2.9416661129,
				"y": -1.1932574889,
				"z": -1.6255648085,
				"element": "O" 
			},
			{
				"x": -1.2312341733,
				"y": 0.2107713265,
				"z": -0.798601954,
				"element": "C" 
			},
			{
				"x": -1.9186458022,
				"y": 1.4151229153,
				"z": -0.9911026584,
				"element": "C" 
			},
			{
				"x": -1.319678549,
				"y": 2.6093976526,
				"z": -1.0746013072,
				"element": "N" 
			},
			{
				"x": -0.0050219308,
				"y": 2.6206943163,
				"z": -1.0014662923,
				"element": "C" 
			},
			{
				"x": 0.5826606832,
				"y": 3.8219530219,
				"z": -1.0918171184,
				"element": "F" 
			},
			{
				"x": 0.8091908565,
				"y": 1.4985989113,
				"z": -0.847118948,
				"element": "C" 
			},
			{
				"x": 0.1694302053,
				"y": 0.269206218,
				"z": -0.7404051888,
				"element": "C" 
			},
			{
				"x": -2.7864430897,
				"y": -3.4303140486,
				"z": -1.0691243705,
				"element": "H" 
			},
			{
				"x": -1.6635401848,
				"y": -4.1686307304,
				"z": 0.1126590171,
				"element": "H" 
			},
			{
				"x": -3.1859719995,
				"y": -3.4279253626,
				"z": 0.661248127,
				"element": "H" 
			},
			{
				"x": -0.0639104754,
				"y": -2.5289483834,
				"z": 1.3546640046,
				"element": "H" 
			},
			{
				"x": -0.6376678139,
				"y": -0.8480142335,
				"z": 1.4223165801,
				"element": "H" 
			},
			{
				"x": -1.5997169867,
				"y": -2.1392776355,
				"z": 2.153323954,
				"element": "H" 
			},
			{
				"x": -3.0011662075,
				"y": 1.4035608813,
				"z": -1.083703088,
				"element": "H" 
			},
			{
				"x": 1.887741801,
				"y": 1.6003797455,
				"z": -0.8222510893,
				"element": "H" 
			},
			{
				"x": 0.7542966054,
				"y": -0.6392403987,
				"z": -0.6339280317,
				"element": "H" 
			}
		],
		 "valence_orbital": [ 
			{
				"type": "occ",
				"energy": -0.30382,
				"method": "rhf"
			},
			{
				"type": "occ",
				"energy": -0.28495,
				"method": "rhf"
			},
			{
				"type": "occ",
				"energy": -0.27203,
				"method": "rhf"
			},
			{
				"type": "occ",
				"energy": -0.253,
				"method": "rhf"
			},
			{
				"type": "occ",
				"energy": -0.24448,
				"method": "rhf"
			},
			{
				"type": "unocc",
				"energy": -0.04164,
				"method": "rhf"
			},
			{
				"type": "unocc",
				"energy": -0.03557,
				"method": "rhf"
			},
			{
				"type": "unocc",
				"energy": 0.03919,
				"method": "rhf"
			},
			{
				"type": "unocc",
				"energy": 0.07673,
				"method": "rhf"
			},
			{
				"type": "unocc",
				"energy": 0.09933,
				"method": "rhf"
			}
		],
		"cosmo_sigma_profile": { 
			"-0.025": 0.0,
			"-0.024": 0.0,
			"-0.023": 0.0,
			"-0.022": 0.0,
			"-0.021": 0.0,
			"-0.02": 0.0,
			"-0.019": 0.0,
			"-0.018": 0.0,
			"-0.017": 0.0,
			"-0.016": 0.0,
			"-0.015": 0.0,
			"-0.014": 0.0,
			"-0.013": 0.0,
			"-0.012": 0.0,
			"-0.011": 0.0,
			"-0.01": 0.0,
			"-0.009": 0.725404591411,
			"-0.008": 3.35052880008,
			"-0.007": 5.68506735548,
			"-0.006": 6.01690005529,
			"-0.005": 17.0379628493,
			"-0.004": 22.1964233081,
			"-0.003": 21.4782165938,
			"-0.002": 24.9729619891,
			"-0.001": 18.0413860057,
			"0.0": 13.0352096707,
			"0.001": 11.1710668962,
			"0.002": 6.35210266473,
			"0.003": 10.128986403,
			"0.004": 8.85744904327,
			"0.005": 4.07362849521,
			"0.006": 3.53489257756,
			"0.007": 2.93947417284,
			"0.008": 3.20872054134,
			"0.009": 2.69189419523,
			"0.01": 2.77478490734,
			"0.011": 1.8494572926,
			"0.012": 4.13880182723,
			"0.013": 4.79177649964,
			"0.014": 3.62868961033,
			"0.015": 0.172184247463,
			"0.016": 0.0,
			"0.017": 0.0,
			"0.018": 0.0,
			"0.019": 0.0,
			"0.02": 0.0,
			"0.021": 0.0,
			"0.022": 0.0,
			"0.023": 0.0,
			"0.024": 0.0,
			"0.025": 0.0
		}
	}
}
