{
	 "smiles": "COC1=C(C=C(C=C1)[N+]([O-])=O)N=C=S", 
	 "Tm": 379.15, 
	 "num_atms": 20, 
	 "gaussian": { 
		 "optdone": 1, 
		 "sigma_profile": "yes", 
		 "theory": "DFT", 
		 "functional": "B3LYP", 
		 "basiset": "6-31G**", 
		 "properties": { 
			 "R2extent": 4582.0051, 
			 "electric_dipole_moment_norm": 5.64706387957, 
			 "electric_quadrupole_moment_norm": 20.6382848585, 
			 "total_energy": -1041.71045085, 
			 "HOMO_LUMO_gap": 0.14829, 
			 "cosmo_polarized_energy": -11.34, 
			 "cosmo_cavitation_energy": 28.6, 
			 "cosmo_dispersion_energy": -20.87, 
			 "cosmo_repulsion_energy": 1.6, 
			 "cosmo_total_nonelectrostatic_energy": 9.34, 
			 "SMD_solvation_energy": 8.06 
		},
		"coords": [
			{
				"x": 1.0815144065,
				"y": -1.9425971682,
				"z": 0.0010361711,
				"element": "C" 
			},
			{
				"x": 0.9952722795,
				"y": -0.5358648252,
				"z": -0.2182162743,
				"element": "O" 
			},
			{
				"x": -0.1965661653,
				"y": 0.0772626532,
				"z": -0.0838777663,
				"element": "C" 
			},
			{
				"x": -0.1894958634,
				"y": 1.4813111439,
				"z": -0.3212588745,
				"element": "C" 
			},
			{
				"x": -1.369691346,
				"y": 2.2105841403,
				"z": -0.2088022863,
				"element": "C" 
			},
			{
				"x": -2.5460426831,
				"y": 1.548106968,
				"z": 0.13689043,
				"element": "C" 
			},
			{
				"x": -2.574513384,
				"y": 0.1769034658,
				"z": 0.3731047003,
				"element": "C" 
			},
			{
				"x": -1.3958190503,
				"y": -0.5569308049,
				"z": 0.2616436867,
				"element": "C" 
			},
			{
				"x": -3.7856969227,
				"y": 2.3207503428,
				"z": 0.2538647355,
				"element": "N" 
			},
			{
				"x": -4.8108257307,
				"y": 1.7112219353,
				"z": 0.5611496437,
				"element": "O" 
			},
			{
				"x": -3.7267722921,
				"y": 3.5313114032,
				"z": 0.0378869395,
				"element": "O" 
			},
			{
				"x": 0.9833163711,
				"y": 2.1203620793,
				"z": -0.662346941,
				"element": "N" 
			},
			{
				"x": 2.1615442613,
				"y": 2.0058357005,
				"z": -0.8779369271,
				"element": "C" 
			},
			{
				"x": 3.7128991011,
				"y": 2.0154023654,
				"z": -1.1887718558,
				"element": "S" 
			},
			{
				"x": 2.1270221314,
				"y": -2.2017186358,
				"z": -0.1635887276,
				"element": "H" 
			},
			{
				"x": 0.7965051417,
				"y": -2.2010438093,
				"z": 1.0271577138,
				"element": "H" 
			},
			{
				"x": 0.451219665,
				"y": -2.4924804867,
				"z": -0.706994201,
				"element": "H" 
			},
			{
				"x": -1.3741695055,
				"y": 3.2776887807,
				"z": -0.3874307351,
				"element": "H" 
			},
			{
				"x": -3.510266914,
				"y": -0.2977122517,
				"z": 0.639351216,
				"element": "H" 
			},
			{
				"x": -1.4155335007,
				"y": -1.6239929966,
				"z": 0.4449393525,
				"element": "H" 
			}
		],
		 "valence_orbital": [ 
			{
				"type": "occ",
				"energy": -0.3072,
				"method": "rhf"
			},
			{
				"type": "occ",
				"energy": -0.29281,
				"method": "rhf"
			},
			{
				"type": "occ",
				"energy": -0.2736,
				"method": "rhf"
			},
			{
				"type": "occ",
				"energy": -0.27159,
				"method": "rhf"
			},
			{
				"type": "occ",
				"energy": -0.23853,
				"method": "rhf"
			},
			{
				"type": "unocc",
				"energy": -0.09024,
				"method": "rhf"
			},
			{
				"type": "unocc",
				"energy": -0.05843,
				"method": "rhf"
			},
			{
				"type": "unocc",
				"energy": -0.03178,
				"method": "rhf"
			},
			{
				"type": "unocc",
				"energy": -0.00848,
				"method": "rhf"
			},
			{
				"type": "unocc",
				"energy": 0.03675,
				"method": "rhf"
			}
		],
		"cosmo_sigma_profile": { 
			"-0.025": 0.0,
			"-0.024": 0.0,
			"-0.023": 0.0,
			"-0.022": 0.0,
			"-0.021": 0.0,
			"-0.02": 0.0,
			"-0.019": 0.0,
			"-0.018": 0.0,
			"-0.017": 0.0,
			"-0.016": 0.0,
			"-0.015": 0.0,
			"-0.014": 0.0,
			"-0.013": 0.0,
			"-0.012": 0.0,
			"-0.011": 0.0,
			"-0.01": 0.0,
			"-0.009": 1.1201745389,
			"-0.008": 5.66059836915,
			"-0.007": 10.9590452857,
			"-0.006": 14.9344897665,
			"-0.005": 11.4384265296,
			"-0.004": 13.3307484951,
			"-0.003": 11.064583882,
			"-0.002": 18.4617918955,
			"-0.001": 25.0747123281,
			"0.0": 23.1363677011,
			"0.001": 17.2433883846,
			"0.002": 11.9143892028,
			"0.003": 11.66440811,
			"0.004": 17.7306521834,
			"0.005": 13.2864690584,
			"0.006": 3.94731297659,
			"0.007": 6.38559018308,
			"0.008": 8.7337282919,
			"0.009": 4.57431590724,
			"0.01": 3.14294193593,
			"0.011": 0.267032152261,
			"0.012": 0.0,
			"0.013": 0.0,
			"0.014": 0.0,
			"0.015": 0.0,
			"0.016": 0.0,
			"0.017": 0.0,
			"0.018": 0.0,
			"0.019": 0.0,
			"0.02": 0.0,
			"0.021": 0.0,
			"0.022": 0.0,
			"0.023": 0.0,
			"0.024": 0.0,
			"0.025": 0.0
		}
	}
}
