{
	 "smiles": "CCOC(=O)C1=C(C)NC(C)=C(C1C)C(=O)OCC", 
	 "Tm": 409.15, 
	 "num_atms": 40, 
	 "gaussian": { 
		 "optdone": 1, 
		 "sigma_profile": "yes", 
		 "theory": "DFT", 
		 "functional": "B3LYP", 
		 "basiset": "6-31G**", 
		 "properties": { 
			 "R2extent": 6608.5027, 
			 "electric_dipole_moment_norm": 6.07725799189, 
			 "electric_quadrupole_moment_norm": 11.45009009, 
			 "total_energy": -901.826032435, 
			 "HOMO_LUMO_gap": 0.15672, 
			 "cosmo_polarized_energy": -18.73, 
			 "cosmo_cavitation_energy": 41.81, 
			 "cosmo_dispersion_energy": -28.72, 
			 "cosmo_repulsion_energy": 2.27, 
			 "cosmo_total_nonelectrostatic_energy": 15.36, 
			 "SMD_solvation_energy": 9.18 
		},
		"coords": [
			{
				"x": -0.5756662496,
				"y": 4.1568430338,
				"z": 3.5904280554,
				"element": "C" 
			},
			{
				"x": 0.6198171225,
				"y": 4.360424999,
				"z": 2.6708704107,
				"element": "C" 
			},
			{
				"x": 1.047780754,
				"y": 3.1155260876,
				"z": 2.0746081019,
				"element": "O" 
			},
			{
				"x": 0.3846496675,
				"y": 2.7320840444,
				"z": 0.9450297698,
				"element": "C" 
			},
			{
				"x": -0.528428003,
				"y": 3.3920664003,
				"z": 0.4741832136,
				"element": "O" 
			},
			{
				"x": 0.845698938,
				"y": 1.4614203051,
				"z": 0.3632496809,
				"element": "C" 
			},
			{
				"x": 1.9265353435,
				"y": 0.7497836009,
				"z": 0.7850386714,
				"element": "C" 
			},
			{
				"x": 2.9354378485,
				"y": 1.1111245864,
				"z": 1.8464509583,
				"element": "C" 
			},
			{
				"x": 2.1533643318,
				"y": -0.4970862767,
				"z": 0.2104564737,
				"element": "N" 
			},
			{
				"x": 1.1901130134,
				"y": -1.2127698544,
				"z": -0.4939813958,
				"element": "C" 
			},
			{
				"x": 1.5126304434,
				"y": -2.6804489931,
				"z": -0.6238899604,
				"element": "C" 
			},
			{
				"x": 0.0945193658,
				"y": -0.5409517057,
				"z": -0.9420844619,
				"element": "C" 
			},
			{
				"x": 0.0526509794,
				"y": 0.9793806381,
				"z": -0.8455300173,
				"element": "C" 
			},
			{
				"x": 0.5542607404,
				"y": 1.6410113447,
				"z": -2.1488207123,
				"element": "C" 
			},
			{
				"x": -1.0743177402,
				"y": -1.1567334268,
				"z": -1.5904561759,
				"element": "C" 
			},
			{
				"x": -1.9916958404,
				"y": -0.50988919,
				"z": -2.0710469205,
				"element": "O" 
			},
			{
				"x": -1.0679601901,
				"y": -2.5214945069,
				"z": -1.5996047865,
				"element": "O" 
			},
			{
				"x": -2.2017634505,
				"y": -3.1578245192,
				"z": -2.2305002655,
				"element": "C" 
			},
			{
				"x": -3.3730299498,
				"y": -3.2926629691,
				"z": -1.2681236142,
				"element": "C" 
			},
			{
				"x": -0.8291506782,
				"y": 5.0997269394,
				"z": 4.0870003406,
				"element": "H" 
			},
			{
				"x": -0.3529506175,
				"y": 3.4122059372,
				"z": 4.3607833717,
				"element": "H" 
			},
			{
				"x": -1.444134821,
				"y": 3.825626657,
				"z": 3.016715472,
				"element": "H" 
			},
			{
				"x": 1.4939092832,
				"y": 4.7115581938,
				"z": 3.2261675111,
				"element": "H" 
			},
			{
				"x": 0.3841168151,
				"y": 5.0724734591,
				"z": 1.8765647821,
				"element": "H" 
			},
			{
				"x": 2.5501501591,
				"y": 0.889763211,
				"z": 2.8474168639,
				"element": "H" 
			},
			{
				"x": 3.8581109084,
				"y": 0.5377810926,
				"z": 1.7027170066,
				"element": "H" 
			},
			{
				"x": 3.1754554154,
				"y": 2.17197222,
				"z": 1.8232336423,
				"element": "H" 
			},
			{
				"x": 2.9498241345,
				"y": -1.0156251767,
				"z": 0.5475073256,
				"element": "H" 
			},
			{
				"x": 1.2055630995,
				"y": -3.0717779917,
				"z": -1.591385931,
				"element": "H" 
			},
			{
				"x": 0.9923686707,
				"y": -3.2668545612,
				"z": 0.1408818477,
				"element": "H" 
			},
			{
				"x": 2.5894842769,
				"y": -2.8435211098,
				"z": -0.5033384858,
				"element": "H" 
			},
			{
				"x": -0.9874847516,
				"y": 1.2850203374,
				"z": -0.7158390484,
				"element": "H" 
			},
			{
				"x": 1.5992886991,
				"y": 1.3783141409,
				"z": -2.347391007,
				"element": "H" 
			},
			{
				"x": 0.4760274706,
				"y": 2.7294773828,
				"z": -2.070473359,
				"element": "H" 
			},
			{
				"x": -0.0560478613,
				"y": 1.3118437435,
				"z": -2.9950946713,
				"element": "H" 
			},
			{
				"x": -2.4869447871,
				"y": -2.5813915723,
				"z": -3.113617264,
				"element": "H" 
			},
			{
				"x": -1.8270147862,
				"y": -4.1370133422,
				"z": -2.5410465553,
				"element": "H" 
			},
			{
				"x": -3.0752804897,
				"y": -3.8335391804,
				"z": -0.3646111352,
				"element": "H" 
			},
			{
				"x": -4.1876582588,
				"y": -3.8464017957,
				"z": -1.7473155392,
				"element": "H" 
			},
			{
				"x": -3.7473290057,
				"y": -2.3064421836,
				"z": -0.9846521927,
				"element": "H" 
			}
		],
		 "valence_orbital": [ 
			{
				"type": "occ",
				"energy": -0.28375,
				"method": "rhf"
			},
			{
				"type": "occ",
				"energy": -0.25893,
				"method": "rhf"
			},
			{
				"type": "occ",
				"energy": -0.25781,
				"method": "rhf"
			},
			{
				"type": "occ",
				"energy": -0.25178,
				"method": "rhf"
			},
			{
				"type": "occ",
				"energy": -0.19859,
				"method": "rhf"
			},
			{
				"type": "unocc",
				"energy": -0.04187,
				"method": "rhf"
			},
			{
				"type": "unocc",
				"energy": 0.00443,
				"method": "rhf"
			},
			{
				"type": "unocc",
				"energy": 0.06196,
				"method": "rhf"
			},
			{
				"type": "unocc",
				"energy": 0.09194,
				"method": "rhf"
			},
			{
				"type": "unocc",
				"energy": 0.09736,
				"method": "rhf"
			}
		],
		"cosmo_sigma_profile": { 
			"-0.025": 0.0,
			"-0.024": 0.0,
			"-0.023": 0.0,
			"-0.022": 0.0,
			"-0.021": 0.0,
			"-0.02": 0.0,
			"-0.019": 0.0,
			"-0.018": 0.0,
			"-0.017": 0.0,
			"-0.016": 0.0809695549682,
			"-0.015": 1.09767526928,
			"-0.014": 0.973942136833,
			"-0.013": 1.40535404343,
			"-0.012": 1.33891628321,
			"-0.011": 1.58548138593,
			"-0.01": 1.7631081793,
			"-0.009": 1.5538955487,
			"-0.008": 1.76906044452,
			"-0.007": 1.78614914698,
			"-0.006": 3.97611987475,
			"-0.005": 12.0820273982,
			"-0.004": 23.3685600196,
			"-0.003": 35.2072300748,
			"-0.002": 35.0917730865,
			"-0.001": 37.3685919988,
			"0.0": 42.9373665611,
			"0.001": 34.6197462425,
			"0.002": 23.756034381,
			"0.003": 14.4760425487,
			"0.004": 9.90093766674,
			"0.005": 7.52228612646,
			"0.006": 4.82764379264,
			"0.007": 4.38789222701,
			"0.008": 2.79441544471,
			"0.009": 3.27764810714,
			"0.01": 3.34309150516,
			"0.011": 2.45070072965,
			"0.012": 4.51767277699,
			"0.013": 6.89885471801,
			"0.014": 1.17597996821,
			"0.015": 0.0,
			"0.016": 0.0,
			"0.017": 0.0,
			"0.018": 0.0,
			"0.019": 0.0,
			"0.02": 0.0,
			"0.021": 0.0,
			"0.022": 0.0,
			"0.023": 0.0,
			"0.024": 0.0,
			"0.025": 0.0
		}
	}
}
