{
	 "smiles": "NC1=C(Cl)C(=O)C2=C(C=CC=C2)C1=O", 
	 "Tm": 474.15, 
	 "num_atms": 20, 
	 "gaussian": { 
		 "optdone": 1, 
		 "sigma_profile": "yes", 
		 "theory": "DFT", 
		 "functional": "B3LYP", 
		 "basiset": "6-31G**", 
		 "properties": { 
			 "R2extent": 2981.0334, 
			 "electric_dipole_moment_norm": 3.07107875998, 
			 "electric_quadrupole_moment_norm": 18.9491714354, 
			 "total_energy": -1050.07809695, 
			 "HOMO_LUMO_gap": 0.11924, 
			 "cosmo_polarized_energy": -13.25, 
			 "cosmo_cavitation_energy": 26.35, 
			 "cosmo_dispersion_energy": -19.95, 
			 "cosmo_repulsion_energy": 1.53, 
			 "cosmo_total_nonelectrostatic_energy": 7.94, 
			 "SMD_solvation_energy": 5.1 
		},
		"coords": [
			{
				"x": 2.0035730568,
				"y": -1.9518626119,
				"z": 0.9476051072,
				"element": "N" 
			},
			{
				"x": 1.0977255591,
				"y": -1.1576305764,
				"z": 0.3481339082,
				"element": "C" 
			},
			{
				"x": 0.2310971272,
				"y": -1.5312993268,
				"z": -0.6439066509,
				"element": "C" 
			},
			{
				"x": 0.2585393101,
				"y": -3.179121175,
				"z": -1.2289488843,
				"element": "Cl" 
			},
			{
				"x": -0.7341754992,
				"y": -0.619209167,
				"z": -1.2556637241,
				"element": "C" 
			},
			{
				"x": -1.5061027168,
				"y": -0.9637688975,
				"z": -2.1440599427,
				"element": "O" 
			},
			{
				"x": -0.7430144049,
				"y": 0.7929831463,
				"z": -0.739201605,
				"element": "C" 
			},
			{
				"x": 0.1334069506,
				"y": 1.2117176969,
				"z": 0.2782709967,
				"element": "C" 
			},
			{
				"x": 0.1011565765,
				"y": 2.5333642846,
				"z": 0.7377624532,
				"element": "C" 
			},
			{
				"x": -0.8033874838,
				"y": 3.4374299495,
				"z": 0.1845164392,
				"element": "C" 
			},
			{
				"x": -1.6752080683,
				"y": 3.022169039,
				"z": -0.8270941124,
				"element": "C" 
			},
			{
				"x": -1.6455709419,
				"y": 1.7048192656,
				"z": -1.2877683569,
				"element": "C" 
			},
			{
				"x": 1.0943263554,
				"y": 0.2576918145,
				"z": 0.8681900638,
				"element": "C" 
			},
			{
				"x": 1.8860967035,
				"y": 0.557853194,
				"z": 1.7555811435,
				"element": "O" 
			},
			{
				"x": 2.1080720837,
				"y": -2.9167954271,
				"z": 0.6812315319,
				"element": "H" 
			},
			{
				"x": 2.5823726414,
				"y": -1.5341276961,
				"z": 1.6618980653,
				"element": "H" 
			},
			{
				"x": 0.7888089151,
				"y": 2.8280675103,
				"z": 1.5233637843,
				"element": "H" 
			},
			{
				"x": -0.8302276682,
				"y": 4.4631822823,
				"z": 0.539496221,
				"element": "H" 
			},
			{
				"x": -2.3799482335,
				"y": 3.7274494198,
				"z": -1.2578053043,
				"element": "H" 
			},
			{
				"x": -2.3117402629,
				"y": 1.3599872748,
				"z": -2.0711011337,
				"element": "H" 
			}
		],
		 "valence_orbital": [ 
			{
				"type": "occ",
				"energy": -0.28723,
				"method": "rhf"
			},
			{
				"type": "occ",
				"energy": -0.27909,
				"method": "rhf"
			},
			{
				"type": "occ",
				"energy": -0.27178,
				"method": "rhf"
			},
			{
				"type": "occ",
				"energy": -0.2602,
				"method": "rhf"
			},
			{
				"type": "occ",
				"energy": -0.23008,
				"method": "rhf"
			},
			{
				"type": "unocc",
				"energy": -0.11084,
				"method": "rhf"
			},
			{
				"type": "unocc",
				"energy": -0.0418,
				"method": "rhf"
			},
			{
				"type": "unocc",
				"energy": -0.01369,
				"method": "rhf"
			},
			{
				"type": "unocc",
				"energy": 0.03224,
				"method": "rhf"
			},
			{
				"type": "unocc",
				"energy": 0.04095,
				"method": "rhf"
			}
		],
		"cosmo_sigma_profile": { 
			"-0.025": 0.0,
			"-0.024": 0.0,
			"-0.023": 0.0,
			"-0.022": 0.0,
			"-0.021": 0.0,
			"-0.02": 0.0,
			"-0.019": 0.0,
			"-0.018": 0.0,
			"-0.017": 0.0,
			"-0.016": 0.0,
			"-0.015": 0.419310123789,
			"-0.014": 1.31954490009,
			"-0.013": 1.48372915521,
			"-0.012": 2.16948991785,
			"-0.011": 1.76962185951,
			"-0.01": 1.81003933285,
			"-0.009": 1.92061803248,
			"-0.008": 1.66359768604,
			"-0.007": 7.27890181859,
			"-0.006": 11.4627276348,
			"-0.005": 12.9247970453,
			"-0.004": 10.6127754395,
			"-0.003": 12.2371793818,
			"-0.002": 12.5826279277,
			"-0.001": 17.4613967299,
			"0.0": 19.6167048638,
			"0.001": 22.2871642912,
			"0.002": 20.0300247778,
			"0.003": 11.200723359,
			"0.004": 6.92222731202,
			"0.005": 6.14181101596,
			"0.006": 4.64781398613,
			"0.007": 4.10983985767,
			"0.008": 3.16908455773,
			"0.009": 4.88104278618,
			"0.01": 4.52244792556,
			"0.011": 3.64348711815,
			"0.012": 4.45743751125,
			"0.013": 1.75866609892,
			"0.014": 0.208866012244,
			"0.015": 0.0,
			"0.016": 0.0,
			"0.017": 0.0,
			"0.018": 0.0,
			"0.019": 0.0,
			"0.02": 0.0,
			"0.021": 0.0,
			"0.022": 0.0,
			"0.023": 0.0,
			"0.024": 0.0,
			"0.025": 0.0
		}
	}
}
