{
	 "smiles": "COC1=CC(=CC(OC)=C1OCC(N)=O)C(O)=O", 
	 "Tm": 524.15, 
	 "num_atms": 31, 
	 "gaussian": { 
		 "optdone": 1, 
		 "sigma_profile": "yes", 
		 "theory": "DFT", 
		 "functional": "B3LYP", 
		 "basiset": "6-31G**", 
		 "properties": { 
			 "R2extent": 5455.2506, 
			 "electric_dipole_moment_norm": 6.23163684677, 
			 "electric_quadrupole_moment_norm": 30.0867636287, 
			 "total_energy": -933.069656443, 
			 "HOMO_LUMO_gap": 0.1865, 
			 "cosmo_polarized_energy": -25.58, 
			 "cosmo_cavitation_energy": 35.98, 
			 "cosmo_dispersion_energy": -24.93, 
			 "cosmo_repulsion_energy": 1.97, 
			 "cosmo_total_nonelectrostatic_energy": 13.01, 
			 "SMD_solvation_energy": 9.89 
		},
		"coords": [
			{
				"x": -1.4163785949,
				"y": 0.4384861696,
				"z": -2.9068651123,
				"element": "C" 
			},
			{
				"x": -0.767281169,
				"y": -0.6158626271,
				"z": -2.1820515074,
				"element": "O" 
			},
			{
				"x": -0.7793757701,
				"y": -0.4637092254,
				"z": -0.8138899416,
				"element": "C" 
			},
			{
				"x": -1.581281351,
				"y": -1.2939605137,
				"z": -0.0400823012,
				"element": "C" 
			},
			{
				"x": -1.5400626365,
				"y": -1.1902583489,
				"z": 1.3559705626,
				"element": "C" 
			},
			{
				"x": -0.7349354917,
				"y": -0.2196198516,
				"z": 1.9591204114,
				"element": "C" 
			},
			{
				"x": 0.0777640442,
				"y": 0.6257436372,
				"z": 1.1909381792,
				"element": "C" 
			},
			{
				"x": 0.8647000384,
				"y": 1.4949712819,
				"z": 1.8759684548,
				"element": "O" 
			},
			{
				"x": 1.0563004601,
				"y": 2.83516193,
				"z": 1.3801297885,
				"element": "C" 
			},
			{
				"x": 0.0712393315,
				"y": 0.4833110366,
				"z": -0.209941008,
				"element": "C" 
			},
			{
				"x": 0.8817423862,
				"y": 1.2790589193,
				"z": -0.9881468571,
				"element": "O" 
			},
			{
				"x": 2.0096053731,
				"y": 0.6136435293,
				"z": -1.5461936347,
				"element": "C" 
			},
			{
				"x": 2.9983852008,
				"y": 1.6811699825,
				"z": -2.023711479,
				"element": "C" 
			},
			{
				"x": 3.7706899573,
				"y": 1.2883024783,
				"z": -3.0776898782,
				"element": "N" 
			},
			{
				"x": 3.1271516515,
				"y": 2.7590567724,
				"z": -1.4668834299,
				"element": "O" 
			},
			{
				"x": -2.4227339816,
				"y": -2.1110292671,
				"z": 2.1444092891,
				"element": "C" 
			},
			{
				"x": -2.1002023737,
				"y": -2.2925389526,
				"z": 3.4531551238,
				"element": "O" 
			},
			{
				"x": -3.3775907414,
				"y": -2.6827369872,
				"z": 1.672715966,
				"element": "O" 
			},
			{
				"x": -1.3453102767,
				"y": 0.1706298395,
				"z": -3.9628624082,
				"element": "H" 
			},
			{
				"x": -0.9235337244,
				"y": 1.4007134016,
				"z": -2.7348625965,
				"element": "H" 
			},
			{
				"x": -2.472912099,
				"y": 0.509819137,
				"z": -2.622360011,
				"element": "H" 
			},
			{
				"x": -2.2264828669,
				"y": -2.0250158362,
				"z": -0.5123273092,
				"element": "H" 
			},
			{
				"x": -0.7269935203,
				"y": -0.0544179359,
				"z": 3.0324857903,
				"element": "H" 
			},
			{
				"x": 1.7847339156,
				"y": 2.8719739793,
				"z": 0.5693198158,
				"element": "H" 
			},
			{
				"x": 1.4108514066,
				"y": 3.4061952362,
				"z": 2.2406418354,
				"element": "H" 
			},
			{
				"x": 0.1050319481,
				"y": 3.2552899009,
				"z": 1.0352484901,
				"element": "H" 
			},
			{
				"x": 2.5139538274,
				"y": 0.0060409231,
				"z": -0.7816271389,
				"element": "H" 
			},
			{
				"x": 1.6968951901,
				"y": -0.0535625483,
				"z": -2.3589413895,
				"element": "H" 
			},
			{
				"x": 4.463022268,
				"y": 1.9361511141,
				"z": -3.4230572142,
				"element": "H" 
			},
			{
				"x": 3.5738618806,
				"y": 0.4587233345,
				"z": -3.6139369827,
				"element": "H" 
			},
			{
				"x": -1.2353542826,
				"y": -1.9007305093,
				"z": 3.638326493,
				"element": "H" 
			}
		],
		 "valence_orbital": [ 
			{
				"type": "occ",
				"energy": -0.27907,
				"method": "rhf"
			},
			{
				"type": "occ",
				"energy": -0.26856,
				"method": "rhf"
			},
			{
				"type": "occ",
				"energy": -0.26693,
				"method": "rhf"
			},
			{
				"type": "occ",
				"energy": -0.25091,
				"method": "rhf"
			},
			{
				"type": "occ",
				"energy": -0.23271,
				"method": "rhf"
			},
			{
				"type": "unocc",
				"energy": -0.04621,
				"method": "rhf"
			},
			{
				"type": "unocc",
				"energy": -0.01046,
				"method": "rhf"
			},
			{
				"type": "unocc",
				"energy": 0.00467,
				"method": "rhf"
			},
			{
				"type": "unocc",
				"energy": 0.0492,
				"method": "rhf"
			},
			{
				"type": "unocc",
				"energy": 0.05652,
				"method": "rhf"
			}
		],
		"cosmo_sigma_profile": { 
			"-0.025": 0.0,
			"-0.024": 0.0,
			"-0.023": 0.0,
			"-0.022": 0.0,
			"-0.021": 0.0,
			"-0.02": 0.0,
			"-0.019": 0.262066595399,
			"-0.018": 0.781932203723,
			"-0.017": 0.704497165402,
			"-0.016": 1.47730699923,
			"-0.015": 1.81654971678,
			"-0.014": 3.22416517102,
			"-0.013": 3.68385061839,
			"-0.012": 4.46503016508,
			"-0.011": 3.69406329178,
			"-0.01": 3.38205169105,
			"-0.009": 3.08440254323,
			"-0.008": 4.16026645151,
			"-0.007": 6.90503171913,
			"-0.006": 9.52337788049,
			"-0.005": 15.3538981433,
			"-0.004": 18.5011832549,
			"-0.003": 23.9273821408,
			"-0.002": 20.8979149214,
			"-0.001": 18.8700521691,
			"0.0": 16.4124716105,
			"0.001": 16.7894328036,
			"0.002": 19.1824693129,
			"0.003": 12.274140935,
			"0.004": 7.9469603661,
			"0.005": 6.76982196591,
			"0.006": 6.85031320629,
			"0.007": 6.75161212864,
			"0.008": 7.22604975394,
			"0.009": 6.56122968239,
			"0.01": 9.21482447152,
			"0.011": 9.63987619871,
			"0.012": 8.71228234374,
			"0.013": 4.63637148516,
			"0.014": 1.53428730102,
			"0.015": 0.0184855849285,
			"0.016": 0.0,
			"0.017": 0.0,
			"0.018": 0.0,
			"0.019": 0.0,
			"0.02": 0.0,
			"0.021": 0.0,
			"0.022": 0.0,
			"0.023": 0.0,
			"0.024": 0.0,
			"0.025": 0.0
		}
	}
}
