{
	 "smiles": "COC1=CC(C=O)=C(Br)C(Br)=C1O", 
	 "Tm": 488.15, 
	 "num_atms": 19, 
	 "gaussian": { 
		 "optdone": 1, 
		 "sigma_profile": "yes", 
		 "theory": "DFT", 
		 "functional": "B3LYP", 
		 "basiset": "6-31G**", 
		 "properties": { 
			 "R2extent": 7538.2186, 
			 "electric_dipole_moment_norm": 4.09559356382, 
			 "electric_quadrupole_moment_norm": 15.5375468575, 
			 "total_energy": -5676.90423333, 
			 "HOMO_LUMO_gap": 0.17297, 
			 "cosmo_polarized_energy": -11.5, 
			 "cosmo_cavitation_energy": 27.82, 
			 "cosmo_dispersion_energy": -21.33, 
			 "cosmo_repulsion_energy": 1.67, 
			 "cosmo_total_nonelectrostatic_energy": 8.16, 
			 "SMD_solvation_energy": 5.04 
		},
		"coords": [
			{
				"x": -0.518761323,
				"y": -0.904749779,
				"z": -2.5821179251,
				"element": "C" 
			},
			{
				"x": -0.3999693545,
				"y": -0.9401680678,
				"z": -1.1529454283,
				"element": "O" 
			},
			{
				"x": -0.5920308853,
				"y": 0.2385169434,
				"z": -0.4907319976,
				"element": "C" 
			},
			{
				"x": -1.6297702709,
				"y": 0.3438703008,
				"z": 0.4206476261,
				"element": "C" 
			},
			{
				"x": -1.8514820026,
				"y": 1.4953569786,
				"z": 1.1932471359,
				"element": "C" 
			},
			{
				"x": -3.0098637797,
				"y": 1.4229056334,
				"z": 2.1209211662,
				"element": "C" 
			},
			{
				"x": -3.4092851605,
				"y": 2.2834874894,
				"z": 2.8760002511,
				"element": "O" 
			},
			{
				"x": -0.9892489395,
				"y": 2.5968028198,
				"z": 1.0262049658,
				"element": "C" 
			},
			{
				"x": -1.2239169337,
				"y": 4.1976819505,
				"z": 2.0115964518,
				"element": "Br" 
			},
			{
				"x": 0.0639049369,
				"y": 2.4987850416,
				"z": 0.1108903523,
				"element": "C" 
			},
			{
				"x": 1.3009645964,
				"y": 3.9291777048,
				"z": -0.1762082004,
				"element": "Br" 
			},
			{
				"x": 0.2864251727,
				"y": 1.3323400641,
				"z": -0.6457664587,
				"element": "C" 
			},
			{
				"x": 1.3103732298,
				"y": 1.2014590569,
				"z": -1.5121086063,
				"element": "O" 
			},
			{
				"x": -1.5071749093,
				"y": -0.533290336,
				"z": -2.8794537632,
				"element": "H" 
			},
			{
				"x": -0.4065879415,
				"y": -1.9379545396,
				"z": -2.9144019677,
				"element": "H" 
			},
			{
				"x": 0.2598886219,
				"y": -0.2861518393,
				"z": -3.0352017148,
				"element": "H" 
			},
			{
				"x": -2.2874765671,
				"y": -0.512612844,
				"z": 0.5387696691,
				"element": "H" 
			},
			{
				"x": -3.5246563966,
				"y": 0.4372860308,
				"z": 2.0652054857,
				"element": "H" 
			},
			{
				"x": 1.8281679065,
				"y": 2.0259573918,
				"z": -1.5055470418,
				"element": "H" 
			}
		],
		 "valence_orbital": [ 
			{
				"type": "occ",
				"energy": -0.29625,
				"method": "rhf"
			},
			{
				"type": "occ",
				"energy": -0.28982,
				"method": "rhf"
			},
			{
				"type": "occ",
				"energy": -0.25764,
				"method": "rhf"
			},
			{
				"type": "occ",
				"energy": -0.24974,
				"method": "rhf"
			},
			{
				"type": "occ",
				"energy": -0.24108,
				"method": "rhf"
			},
			{
				"type": "unocc",
				"energy": -0.06811,
				"method": "rhf"
			},
			{
				"type": "unocc",
				"energy": -0.03622,
				"method": "rhf"
			},
			{
				"type": "unocc",
				"energy": -0.03305,
				"method": "rhf"
			},
			{
				"type": "unocc",
				"energy": 0.02684,
				"method": "rhf"
			},
			{
				"type": "unocc",
				"energy": 0.0329,
				"method": "rhf"
			}
		],
		"cosmo_sigma_profile": { 
			"-0.025": 0.0,
			"-0.024": 0.0,
			"-0.023": 0.0,
			"-0.022": 0.0,
			"-0.021": 0.0,
			"-0.02": 0.0,
			"-0.019": 0.0,
			"-0.018": 0.0,
			"-0.017": 0.0,
			"-0.016": 0.00278589828733,
			"-0.015": 0.431580241903,
			"-0.014": 0.556495224604,
			"-0.013": 1.19642208109,
			"-0.012": 0.545399026572,
			"-0.011": 0.47617995411,
			"-0.01": 1.4044362771,
			"-0.009": 2.69039403203,
			"-0.008": 3.87248194277,
			"-0.007": 5.13871158124,
			"-0.006": 8.14859283104,
			"-0.005": 12.0659086914,
			"-0.004": 15.703819343,
			"-0.003": 19.5662962127,
			"-0.002": 19.9494499188,
			"-0.001": 22.0570481356,
			"0.0": 21.8587261807,
			"0.001": 14.9827240558,
			"0.002": 13.5385609671,
			"0.003": 16.4598251013,
			"0.004": 12.9642541063,
			"0.005": 4.78836486888,
			"0.006": 4.51421948371,
			"0.007": 4.80684199975,
			"0.008": 5.26926205878,
			"0.009": 3.53054966055,
			"0.01": 4.83391904251,
			"0.011": 5.06239669441,
			"0.012": 2.57228415742,
			"0.013": 0.310034260431,
			"0.014": 0.0,
			"0.015": 0.0,
			"0.016": 0.0,
			"0.017": 0.0,
			"0.018": 0.0,
			"0.019": 0.0,
			"0.02": 0.0,
			"0.021": 0.0,
			"0.022": 0.0,
			"0.023": 0.0,
			"0.024": 0.0,
			"0.025": 0.0
		}
	}
}
