{
	 "smiles": "OC(=O)C1=NN(C=C1)C1=C(Cl)C=CC=C1", 
	 "Tm": 461.15, 
	 "num_atms": 22, 
	 "gaussian": { 
		 "optdone": 1, 
		 "sigma_profile": "yes", 
		 "theory": "DFT", 
		 "functional": "B3LYP", 
		 "basiset": "6-31G**", 
		 "properties": { 
			 "R2extent": 5598.5006, 
			 "electric_dipole_moment_norm": 7.02181733172, 
			 "electric_quadrupole_moment_norm": 23.7691906065, 
			 "total_energy": -1105.4120366, 
			 "HOMO_LUMO_gap": 0.20206, 
			 "cosmo_polarized_energy": -13.45, 
			 "cosmo_cavitation_energy": 29.18, 
			 "cosmo_dispersion_energy": -21.34, 
			 "cosmo_repulsion_energy": 1.66, 
			 "cosmo_total_nonelectrostatic_energy": 9.5, 
			 "SMD_solvation_energy": 5.84 
		},
		"coords": [
			{
				"x": -4.4228391403,
				"y": -0.4323143729,
				"z": -2.2885096642,
				"element": "O" 
			},
			{
				"x": -3.4202920861,
				"y": -1.2572929724,
				"z": -2.6641691281,
				"element": "C" 
			},
			{
				"x": -3.4015418066,
				"y": -1.8003883166,
				"z": -3.7439609619,
				"element": "O" 
			},
			{
				"x": -2.3533141273,
				"y": -1.4333354972,
				"z": -1.6445815607,
				"element": "C" 
			},
			{
				"x": -2.4289286507,
				"y": -0.7777032105,
				"z": -0.4848084348,
				"element": "N" 
			},
			{
				"x": -1.3362148301,
				"y": -1.1651866422,
				"z": 0.2096887707,
				"element": "N" 
			},
			{
				"x": -0.5658639121,
				"y": -2.0444643533,
				"z": -0.5111730544,
				"element": "C" 
			},
			{
				"x": -1.198267706,
				"y": -2.2440297751,
				"z": -1.7155733284,
				"element": "C" 
			},
			{
				"x": -1.0614845928,
				"y": -0.5655064111,
				"z": 1.4701244193,
				"element": "C" 
			},
			{
				"x": -0.6441009592,
				"y": -1.3014985126,
				"z": 2.5903589011,
				"element": "C" 
			},
			{
				"x": -0.4762807355,
				"y": -3.0468992916,
				"z": 2.5413506569,
				"element": "Cl" 
			},
			{
				"x": -0.3832350831,
				"y": -0.6527067666,
				"z": 3.7988351819,
				"element": "C" 
			},
			{
				"x": -0.5560022315,
				"y": 0.7253041307,
				"z": 3.9056216491,
				"element": "C" 
			},
			{
				"x": -0.9916752638,
				"y": 1.4611501007,
				"z": 2.8022230856,
				"element": "C" 
			},
			{
				"x": -1.235688307,
				"y": 0.8187999728,
				"z": 1.5931220949,
				"element": "C" 
			},
			{
				"x": -4.23690764,
				"y": -0.1208825301,
				"z": -1.3849607917,
				"element": "H" 
			},
			{
				"x": 0.354714581,
				"y": -2.438331601,
				"z": -0.1116066468,
				"element": "H" 
			},
			{
				"x": -0.8907803313,
				"y": -2.8723182262,
				"z": -2.53638087,
				"element": "H" 
			},
			{
				"x": -0.0610743314,
				"y": -1.2405560768,
				"z": 4.6509095941,
				"element": "H" 
			},
			{
				"x": -0.3549691286,
				"y": 1.2179832436,
				"z": 4.8515936715,
				"element": "H" 
			},
			{
				"x": -1.1321020483,
				"y": 2.534494334,
				"z": 2.8780991818,
				"element": "H" 
			},
			{
				"x": -1.5673516694,
				"y": 1.3699827746,
				"z": 0.720897234,
				"element": "H" 
			}
		],
		 "valence_orbital": [ 
			{
				"type": "occ",
				"energy": -0.3022,
				"method": "rhf"
			},
			{
				"type": "occ",
				"energy": -0.27484,
				"method": "rhf"
			},
			{
				"type": "occ",
				"energy": -0.27303,
				"method": "rhf"
			},
			{
				"type": "occ",
				"energy": -0.26933,
				"method": "rhf"
			},
			{
				"type": "occ",
				"energy": -0.25661,
				"method": "rhf"
			},
			{
				"type": "unocc",
				"energy": -0.05455,
				"method": "rhf"
			},
			{
				"type": "unocc",
				"energy": -0.03613,
				"method": "rhf"
			},
			{
				"type": "unocc",
				"energy": -0.02245,
				"method": "rhf"
			},
			{
				"type": "unocc",
				"energy": 0.00708,
				"method": "rhf"
			},
			{
				"type": "unocc",
				"energy": 0.01598,
				"method": "rhf"
			}
		],
		"cosmo_sigma_profile": { 
			"-0.025": 0.0,
			"-0.024": 0.0,
			"-0.023": 0.0,
			"-0.022": 0.0,
			"-0.021": 0.0,
			"-0.02": 0.0,
			"-0.019": 0.0,
			"-0.018": 0.0,
			"-0.017": 0.0,
			"-0.016": 0.0,
			"-0.015": 0.274544253996,
			"-0.014": 0.653519980303,
			"-0.013": 0.195725642708,
			"-0.012": 0.747253292246,
			"-0.011": 1.02964208488,
			"-0.01": 0.912138022599,
			"-0.009": 2.06723204514,
			"-0.008": 5.85223450322,
			"-0.007": 11.2182756058,
			"-0.006": 14.1147630233,
			"-0.005": 12.4607214373,
			"-0.004": 11.930640512,
			"-0.003": 14.1337251288,
			"-0.002": 13.5456991862,
			"-0.001": 16.9000789364,
			"0.0": 20.3546757993,
			"0.001": 25.5026376913,
			"0.002": 23.0170791592,
			"0.003": 20.7559889234,
			"0.004": 8.46308020054,
			"0.005": 4.0399517181,
			"0.006": 2.67927254025,
			"0.007": 3.622700253,
			"0.008": 2.6117775787,
			"0.009": 3.82448996533,
			"0.01": 5.39830783418,
			"0.011": 5.15289607325,
			"0.012": 4.80588792093,
			"0.013": 1.33396680205,
			"0.014": 0.0208835876178,
			"0.015": 0.0,
			"0.016": 0.0,
			"0.017": 0.0,
			"0.018": 0.0,
			"0.019": 0.0,
			"0.02": 0.0,
			"0.021": 0.0,
			"0.022": 0.0,
			"0.023": 0.0,
			"0.024": 0.0,
			"0.025": 0.0
		}
	}
}
