{
	 "smiles": "FC(F)(F)C1=C(Cl)C=CC(=C1)C1=CC=C(O1)C=O", 
	 "Tm": 348.15, 
	 "num_atms": 24, 
	 "gaussian": { 
		 "optdone": 1, 
		 "sigma_profile": "yes", 
		 "theory": "DFT", 
		 "functional": "B3LYP", 
		 "basiset": "6-31G**", 
		 "properties": { 
			 "R2extent": 6911.2226, 
			 "electric_dipole_moment_norm": 6.18543101328, 
			 "electric_quadrupole_moment_norm": 11.9844281019, 
			 "total_energy": -1371.02935832, 
			 "HOMO_LUMO_gap": 0.15036, 
			 "cosmo_polarized_energy": -12.74, 
			 "cosmo_cavitation_energy": 33.17, 
			 "cosmo_dispersion_energy": -23.37, 
			 "cosmo_repulsion_energy": 1.73, 
			 "cosmo_total_nonelectrostatic_energy": 11.52, 
			 "SMD_solvation_energy": 8.02 
		},
		"coords": [
			{
				"x": 0.6879761463,
				"y": 3.2259558685,
				"z": 2.7677456231,
				"element": "F" 
			},
			{
				"x": 0.1458692735,
				"y": 3.3538536703,
				"z": 1.5399103253,
				"element": "C" 
			},
			{
				"x": -0.8097868079,
				"y": 4.3020100916,
				"z": 1.6142085519,
				"element": "F" 
			},
			{
				"x": 1.1124130427,
				"y": 3.8245617108,
				"z": 0.7239862736,
				"element": "F" 
			},
			{
				"x": -0.409468672,
				"y": 2.0389972867,
				"z": 1.0345158666,
				"element": "C" 
			},
			{
				"x": -1.4270054918,
				"y": 1.3494903439,
				"z": 1.7133543632,
				"element": "C" 
			},
			{
				"x": -2.1287014599,
				"y": 1.9600044753,
				"z": 3.1944611593,
				"element": "Cl" 
			},
			{
				"x": -1.9110710372,
				"y": 0.139306078,
				"z": 1.2133873767,
				"element": "C" 
			},
			{
				"x": -1.3889792485,
				"y": -0.3908223839,
				"z": 0.0404181359,
				"element": "C" 
			},
			{
				"x": -0.3713100156,
				"y": 0.2800169878,
				"z": -0.6562559041,
				"element": "C" 
			},
			{
				"x": 0.1057440226,
				"y": 1.495895284,
				"z": -0.1417908359,
				"element": "C" 
			},
			{
				"x": 0.1807067989,
				"y": -0.2701084611,
				"z": -1.8867604032,
				"element": "C" 
			},
			{
				"x": -0.0850802379,
				"y": -1.4152918701,
				"z": -2.6105675042,
				"element": "C" 
			},
			{
				"x": 0.7879553726,
				"y": -1.3956464797,
				"z": -3.725860745,
				"element": "C" 
			},
			{
				"x": 1.5352449673,
				"y": -0.2446581299,
				"z": -3.6217843166,
				"element": "C" 
			},
			{
				"x": 1.1633446273,
				"y": 0.4412965632,
				"z": -2.4986571491,
				"element": "O" 
			},
			{
				"x": 2.5823504496,
				"y": 0.3008317457,
				"z": -4.4721035798,
				"element": "C" 
			},
			{
				"x": 3.1765218953,
				"y": 1.3443116071,
				"z": -4.2702852136,
				"element": "O" 
			},
			{
				"x": -2.6968553075,
				"y": -0.3799707727,
				"z": 1.7500504389,
				"element": "H" 
			},
			{
				"x": -1.7787685393,
				"y": -1.3327930607,
				"z": -0.3316535862,
				"element": "H" 
			},
			{
				"x": 0.8901730178,
				"y": 2.0259265608,
				"z": -0.6666912155,
				"element": "H" 
			},
			{
				"x": -0.8151679165,
				"y": -2.174099923,
				"z": -2.3709149375,
				"element": "H" 
			},
			{
				"x": 0.8640573482,
				"y": -2.1329139746,
				"z": -4.5128777515,
				"element": "H" 
			},
			{
				"x": 2.7993377719,
				"y": -0.3407532179,
				"z": -5.3533349721,
				"element": "H" 
			}
		],
		 "valence_orbital": [ 
			{
				"type": "occ",
				"energy": -0.31155,
				"method": "rhf"
			},
			{
				"type": "occ",
				"energy": -0.29377,
				"method": "rhf"
			},
			{
				"type": "occ",
				"energy": -0.28943,
				"method": "rhf"
			},
			{
				"type": "occ",
				"energy": -0.26188,
				"method": "rhf"
			},
			{
				"type": "occ",
				"energy": -0.23487,
				"method": "rhf"
			},
			{
				"type": "unocc",
				"energy": -0.08451,
				"method": "rhf"
			},
			{
				"type": "unocc",
				"energy": -0.04682,
				"method": "rhf"
			},
			{
				"type": "unocc",
				"energy": -0.03272,
				"method": "rhf"
			},
			{
				"type": "unocc",
				"energy": 0.01496,
				"method": "rhf"
			},
			{
				"type": "unocc",
				"energy": 0.03645,
				"method": "rhf"
			}
		],
		"cosmo_sigma_profile": { 
			"-0.025": 0.0,
			"-0.024": 0.0,
			"-0.023": 0.0,
			"-0.022": 0.0,
			"-0.021": 0.0,
			"-0.02": 0.0,
			"-0.019": 0.0,
			"-0.018": 0.0,
			"-0.017": 0.0,
			"-0.016": 0.0,
			"-0.015": 0.0,
			"-0.014": 0.0,
			"-0.013": 0.0,
			"-0.012": 0.0,
			"-0.011": 0.0,
			"-0.01": 0.817702765678,
			"-0.009": 5.70967695646,
			"-0.008": 9.13486137512,
			"-0.007": 10.7447748079,
			"-0.006": 8.84736569898,
			"-0.005": 9.18017539201,
			"-0.004": 11.2017243586,
			"-0.003": 14.4681400672,
			"-0.002": 14.0882384773,
			"-0.001": 28.0743176754,
			"0.0": 34.2486722512,
			"0.001": 27.1629808888,
			"0.002": 33.3388358075,
			"0.003": 28.8547449709,
			"0.004": 10.9429482672,
			"0.005": 1.92597461436,
			"0.006": 2.3148084345,
			"0.007": 1.40457190221,
			"0.008": 1.95226051977,
			"0.009": 2.75209377697,
			"0.01": 2.66738627036,
			"0.011": 4.43167986954,
			"0.012": 4.48528263711,
			"0.013": 1.73414824094,
			"0.014": 0.0,
			"0.015": 0.0,
			"0.016": 0.0,
			"0.017": 0.0,
			"0.018": 0.0,
			"0.019": 0.0,
			"0.02": 0.0,
			"0.021": 0.0,
			"0.022": 0.0,
			"0.023": 0.0,
			"0.024": 0.0,
			"0.0": 0.0
		}
	}
}
