{
	 "smiles": "CC(O)C1=CC2=C(O1)C=CC=C2", 
	 "Tm": 290.15, 
	 "num_atms": 22, 
	 "gaussian": { 
		 "optdone": 1, 
		 "sigma_profile": "yes", 
		 "theory": "DFT", 
		 "functional": "B3LYP", 
		 "basiset": "6-31G**", 
		 "properties": { 
			 "R2extent": 2536.2766, 
			 "electric_dipole_moment_norm": 1.27847581518, 
			 "electric_quadrupole_moment_norm": 7.6273501316, 
			 "total_energy": -537.526688351, 
			 "HOMO_LUMO_gap": 0.19865, 
			 "cosmo_polarized_energy": -7.95, 
			 "cosmo_cavitation_energy": 25.73, 
			 "cosmo_dispersion_energy": -18.96, 
			 "cosmo_repulsion_energy": 1.53, 
			 "cosmo_total_nonelectrostatic_energy": 8.3, 
			 "SMD_solvation_energy": 4.54 
		},
		"coords": [
			{
				"x": -1.0611121873,
				"y": -0.159203756,
				"z": -3.6001324353,
				"element": "C" 
			},
			{
				"x": 0.3091858563,
				"y": -0.0996169257,
				"z": -2.9123845676,
				"element": "C" 
			},
			{
				"x": 0.8115486879,
				"y": 1.2373585727,
				"z": -2.8779600643,
				"element": "O" 
			},
			{
				"x": 0.2836349352,
				"y": -0.6997010772,
				"z": -1.5388024171,
				"element": "C" 
			},
			{
				"x": 0.9042280679,
				"y": -1.7633098924,
				"z": -0.9675364387,
				"element": "C" 
			},
			{
				"x": 0.4671420633,
				"y": -1.8086354583,
				"z": 0.4078402262,
				"element": "C" 
			},
			{
				"x": -0.4124355782,
				"y": -0.7194033386,
				"z": 0.5557485603,
				"element": "C" 
			},
			{
				"x": -0.5297240793,
				"y": -0.0434312741,
				"z": -0.6318017066,
				"element": "O" 
			},
			{
				"x": -1.0549448447,
				"y": -0.4008564212,
				"z": 1.7452607048,
				"element": "C" 
			},
			{
				"x": -0.7911380123,
				"y": -1.231485387,
				"z": 2.8347041554,
				"element": "C" 
			},
			{
				"x": 0.0822620852,
				"y": -2.3290398789,
				"z": 2.7210687283,
				"element": "C" 
			},
			{
				"x": 0.7167493566,
				"y": -2.6291434921,
				"z": 1.5182104513,
				"element": "C" 
			},
			{
				"x": -0.9958653591,
				"y": 0.3109783583,
				"z": -4.5849336083,
				"element": "H" 
			},
			{
				"x": -1.39804387,
				"y": -1.1937254689,
				"z": -3.7214460361,
				"element": "H" 
			},
			{
				"x": -1.8115813103,
				"y": 0.3731451113,
				"z": -3.0066495443,
				"element": "H" 
			},
			{
				"x": 1.0370143228,
				"y": -0.6661955483,
				"z": -3.502381577,
				"element": "H" 
			},
			{
				"x": 0.255497409,
				"y": 1.7326872192,
				"z": -2.2604258085,
				"element": "H" 
			},
			{
				"x": 1.5947809096,
				"y": -2.4325459734,
				"z": -1.460878284,
				"element": "H" 
			},
			{
				"x": -1.7254425647,
				"y": 0.4488117367,
				"z": 1.8157411416,
				"element": "H" 
			},
			{
				"x": -1.2693890018,
				"y": -1.0263405112,
				"z": 3.7876481941,
				"element": "H" 
			},
			{
				"x": 0.2635492872,
				"y": -2.9529213015,
				"z": 3.5912958086,
				"element": "H" 
			},
			{
				"x": 1.3897838267,
				"y": -3.4780252933,
				"z": 1.4423145172,
				"element": "H" 
			}
		],
		 "valence_orbital": [ 
			{
				"type": "occ",
				"energy": -0.33431,
				"method": "rhf"
			},
			{
				"type": "occ",
				"energy": -0.29194,
				"method": "rhf"
			},
			{
				"type": "occ",
				"energy": -0.27404,
				"method": "rhf"
			},
			{
				"type": "occ",
				"energy": -0.23783,
				"method": "rhf"
			},
			{
				"type": "occ",
				"energy": -0.21913,
				"method": "rhf"
			},
			{
				"type": "unocc",
				"energy": -0.02048,
				"method": "rhf"
			},
			{
				"type": "unocc",
				"energy": 0.01262,
				"method": "rhf"
			},
			{
				"type": "unocc",
				"energy": 0.05258,
				"method": "rhf"
			},
			{
				"type": "unocc",
				"energy": 0.08186,
				"method": "rhf"
			},
			{
				"type": "unocc",
				"energy": 0.09989,
				"method": "rhf"
			}
		],
		"cosmo_sigma_profile": { 
			"-0.025": 0.0,
			"-0.024": 0.0,
			"-0.023": 0.0,
			"-0.022": 0.0,
			"-0.021": 0.0,
			"-0.02": 0.0,
			"-0.019": 0.0,
			"-0.018": 0.0,
			"-0.017": 0.0,
			"-0.016": 0.0,
			"-0.015": 0.00489763843532,
			"-0.014": 0.837825446183,
			"-0.013": 0.489008665531,
			"-0.012": 0.685860139143,
			"-0.011": 0.975411712692,
			"-0.01": 0.854538706906,
			"-0.009": 0.227030559467,
			"-0.008": 0.827961510234,
			"-0.007": 3.78312406668,
			"-0.006": 11.4209964425,
			"-0.005": 14.2235171951,
			"-0.004": 16.482899195,
			"-0.003": 18.1220432899,
			"-0.002": 15.1106331116,
			"-0.001": 14.7158959363,
			"0.0": 14.9702448916,
			"0.001": 13.7370491625,
			"0.002": 14.7544835862,
			"0.003": 14.2599188363,
			"0.004": 16.4389410228,
			"0.005": 13.0606891453,
			"0.006": 6.68816987962,
			"0.007": 1.70931760635,
			"0.008": 1.07035471133,
			"0.009": 0.912070521439,
			"0.01": 1.40780645592,
			"0.011": 1.68960118842,
			"0.012": 1.10681223977,
			"0.013": 2.17841193555,
			"0.014": 1.76643816538,
			"0.015": 0.00627779794605,
			"0.016": 0.0,
			"0.017": 0.0,
			"0.018": 0.0,
			"0.019": 0.0,
			"0.02": 0.0,
			"0.021": 0.0,
			"0.022": 0.0,
			"0.023": 0.0,
			"0.024": 0.0,
			"0.025": 0.0
		}
	}
}
