{
	 "smiles": "CCCC1=CC(=O)NC(=N1)C1=CC=CC=C1", 
	 "Tm": 423.15, 
	 "num_atms": 30, 
	 "gaussian": { 
		 "optdone": 1, 
		 "sigma_profile": "yes", 
		 "theory": "DFT", 
		 "functional": "B3LYP", 
		 "basiset": "6-31G**", 
		 "properties": { 
			 "R2extent": 5197.2527, 
			 "electric_dipole_moment_norm": 3.91732858208, 
			 "electric_quadrupole_moment_norm": 22.9138039771, 
			 "total_energy": -688.582589619, 
			 "HOMO_LUMO_gap": 0.16595, 
			 "cosmo_polarized_energy": -13.41, 
			 "cosmo_cavitation_energy": 33.69, 
			 "cosmo_dispersion_energy": -23.97, 
			 "cosmo_repulsion_energy": 1.88, 
			 "cosmo_total_nonelectrostatic_energy": 11.6, 
			 "SMD_solvation_energy": 5.3 
		},
		"coords": [
			{
				"x": 2.4907101784,
				"y": -3.096846824,
				"z": 2.6390586654,
				"element": "C" 
			},
			{
				"x": 1.1981549567,
				"y": -3.4736742249,
				"z": 1.9088778957,
				"element": "C" 
			},
			{
				"x": 1.3939952603,
				"y": -3.7584927739,
				"z": 0.4049545469,
				"element": "C" 
			},
			{
				"x": 1.7829785086,
				"y": -2.5348654565,
				"z": -0.3887360449,
				"element": "C" 
			},
			{
				"x": 2.9940932708,
				"y": -2.4237608375,
				"z": -1.0179384897,
				"element": "C" 
			},
			{
				"x": 3.3406880433,
				"y": -1.2277236332,
				"z": -1.7518210347,
				"element": "C" 
			},
			{
				"x": 4.382470492,
				"y": -0.9726465739,
				"z": -2.341615721,
				"element": "O" 
			},
			{
				"x": 2.2926868573,
				"y": -0.2730270271,
				"z": -1.7264742071,
				"element": "N" 
			},
			{
				"x": 1.0950373583,
				"y": -0.453688889,
				"z": -1.0967627558,
				"element": "C" 
			},
			{
				"x": 0.8220649152,
				"y": -1.5469229962,
				"z": -0.4306472647,
				"element": "N" 
			},
			{
				"x": 0.0841235162,
				"y": 0.629575267,
				"z": -1.1782413736,
				"element": "C" 
			},
			{
				"x": 0.1248824569,
				"y": 1.6193335765,
				"z": -2.1731686119,
				"element": "C" 
			},
			{
				"x": -0.8423857016,
				"y": 2.6226763317,
				"z": -2.2116321259,
				"element": "C" 
			},
			{
				"x": -1.8619306034,
				"y": 2.6498560538,
				"z": -1.2589727703,
				"element": "C" 
			},
			{
				"x": -1.9158497899,
				"y": 1.6616655789,
				"z": -0.2722763657,
				"element": "C" 
			},
			{
				"x": -0.9538316113,
				"y": 0.6566577057,
				"z": -0.2330381382,
				"element": "C" 
			},
			{
				"x": 3.2340079953,
				"y": -3.8996580035,
				"z": 2.5705855831,
				"element": "H" 
			},
			{
				"x": 2.3016369995,
				"y": -2.909318935,
				"z": 3.7009843581,
				"element": "H" 
			},
			{
				"x": 2.9423688986,
				"y": -2.193276687,
				"z": 2.2166740893,
				"element": "H" 
			},
			{
				"x": 0.7609490797,
				"y": -4.3663471525,
				"z": 2.3724469538,
				"element": "H" 
			},
			{
				"x": 0.4593850609,
				"y": -2.6713335123,
				"z": 2.0150160245,
				"element": "H" 
			},
			{
				"x": 0.4500491379,
				"y": -4.1362248074,
				"z": -0.0070034986,
				"element": "H" 
			},
			{
				"x": 2.1489769226,
				"y": -4.5405256239,
				"z": 0.2668673592,
				"element": "H" 
			},
			{
				"x": 3.7343146235,
				"y": -3.2137709705,
				"z": -0.978338165,
				"element": "H" 
			},
			{
				"x": 2.5125985561,
				"y": 0.6019951458,
				"z": -2.185603046,
				"element": "H" 
			},
			{
				"x": 0.8860764759,
				"y": 1.5992328256,
				"z": -2.9481231018,
				"element": "H" 
			},
			{
				"x": -0.8029183333,
				"y": 3.3772272196,
				"z": -2.9913992494,
				"element": "H" 
			},
			{
				"x": -2.6135643703,
				"y": 3.4331848588,
				"z": -1.2887373463,
				"element": "H" 
			},
			{
				"x": -2.7093861499,
				"y": 1.6757516009,
				"z": 0.4689722337,
				"element": "H" 
			},
			{
				"x": -0.983983004,
				"y": -0.1204512361,
				"z": 0.5217916007,
				"element": "H" 
			}
		],
		 "valence_orbital": [ 
			{
				"type": "occ",
				"energy": -0.27738,
				"method": "rhf"
			},
			{
				"type": "occ",
				"energy": -0.27025,
				"method": "rhf"
			},
			{
				"type": "occ",
				"energy": -0.26773,
				"method": "rhf"
			},
			{
				"type": "occ",
				"energy": -0.25165,
				"method": "rhf"
			},
			{
				"type": "occ",
				"energy": -0.2287,
				"method": "rhf"
			},
			{
				"type": "unocc",
				"energy": -0.06275,
				"method": "rhf"
			},
			{
				"type": "unocc",
				"energy": -0.02008,
				"method": "rhf"
			},
			{
				"type": "unocc",
				"energy": -0.01138,
				"method": "rhf"
			},
			{
				"type": "unocc",
				"energy": 0.02892,
				"method": "rhf"
			},
			{
				"type": "unocc",
				"energy": 0.06872,
				"method": "rhf"
			}
		],
		"cosmo_sigma_profile": { 
			"-0.025": 0.0,
			"-0.024": 0.0,
			"-0.023": 0.0,
			"-0.022": 0.0,
			"-0.021": 0.0,
			"-0.02": 0.0,
			"-0.019": 0.0,
			"-0.018": 0.0,
			"-0.017": 0.0,
			"-0.016": 0.366948154303,
			"-0.015": 1.25104823005,
			"-0.014": 0.862218144625,
			"-0.013": 1.0074235497,
			"-0.012": 0.901532823779,
			"-0.011": 1.54271994674,
			"-0.01": 1.16029401818,
			"-0.009": 1.11697191687,
			"-0.008": 1.88660498918,
			"-0.007": 3.79550810184,
			"-0.006": 10.5838051234,
			"-0.005": 14.2842025347,
			"-0.004": 15.3961661176,
			"-0.003": 20.2048161909,
			"-0.002": 27.7834501144,
			"-0.001": 29.1281235294,
			"0.0": 28.2422430222,
			"0.001": 28.6197884429,
			"0.002": 17.9794629023,
			"0.003": 14.9057838487,
			"0.004": 15.3765075177,
			"0.005": 4.69404660556,
			"0.006": 2.63294497081,
			"0.007": 2.17434854019,
			"0.008": 1.84727340211,
			"0.009": 2.39993216129,
			"0.01": 1.78738016184,
			"0.011": 2.19961678008,
			"0.012": 2.53341356432,
			"0.013": 4.18148924261,
			"0.014": 5.41160538446,
			"0.015": 1.31580656034,
			"0.016": 0.0,
			"0.017": 0.0,
			"0.018": 0.0,
			"0.019": 0.0,
			"0.02": 0.0,
			"0.021": 0.0,
			"0.022": 0.0,
			"0.023": 0.0,
			"0.024": 0.0,
			"0.025": 0.0
		}
	}
}
