{
	 "smiles": "CCCC1=C(N=NN1C1=CC(Cl)=CC=C1)C(O)=O", 
	 "Tm": 403.15, 
	 "num_atms": 30, 
	 "gaussian": { 
		 "optdone": 1, 
		 "sigma_profile": "yes", 
		 "theory": "DFT", 
		 "functional": "B3LYP", 
		 "basiset": "6-31G**", 
		 "properties": { 
			 "R2extent": 7076.2103, 
			 "electric_dipole_moment_norm": 5.04091719928, 
			 "electric_quadrupole_moment_norm": 16.0004990003, 
			 "total_energy": -1239.3946568, 
			 "HOMO_LUMO_gap": 0.20927, 
			 "cosmo_polarized_energy": -14.38, 
			 "cosmo_cavitation_energy": 36.17, 
			 "cosmo_dispersion_energy": -25.34, 
			 "cosmo_repulsion_energy": 1.97, 
			 "cosmo_total_nonelectrostatic_energy": 12.8, 
			 "SMD_solvation_energy": 5.63 
		},
		"coords": [
			{
				"x": 0.0646169838,
				"y": 2.9061716749,
				"z": 0.2955048292,
				"element": "C" 
			},
			{
				"x": -0.1816935617,
				"y": 1.4224591898,
				"z": 0.0116536434,
				"element": "C" 
			},
			{
				"x": 0.0204214517,
				"y": 0.5533634866,
				"z": 1.2725861226,
				"element": "C" 
			},
			{
				"x": -0.2278873079,
				"y": -0.9040756208,
				"z": 1.041148177,
				"element": "C" 
			},
			{
				"x": -1.4200922857,
				"y": -1.6010097714,
				"z": 0.9099977327,
				"element": "C" 
			},
			{
				"x": -1.1525638381,
				"y": -2.9303910059,
				"z": 0.760878839,
				"element": "N" 
			},
			{
				"x": 0.1254571585,
				"y": -3.1228082142,
				"z": 0.7830420535,
				"element": "N" 
			},
			{
				"x": 0.7126719454,
				"y": -1.8913342883,
				"z": 0.9478221203,
				"element": "N" 
			},
			{
				"x": 2.1345031551,
				"y": -1.8277459465,
				"z": 1.0476715828,
				"element": "C" 
			},
			{
				"x": 2.845565643,
				"y": -0.8581040326,
				"z": 0.3367749247,
				"element": "C" 
			},
			{
				"x": 4.2342347591,
				"y": -0.8289718395,
				"z": 0.4575280459,
				"element": "C" 
			},
			{
				"x": 5.1365324877,
				"y": 0.3902981301,
				"z": -0.422804596,
				"element": "Cl" 
			},
			{
				"x": 4.9157998056,
				"y": -1.7542700868,
				"z": 1.2469774875,
				"element": "C" 
			},
			{
				"x": 4.1837278785,
				"y": -2.7268152948,
				"z": 1.9303638096,
				"element": "C" 
			},
			{
				"x": 2.7941450885,
				"y": -2.769047422,
				"z": 1.842922726,
				"element": "C" 
			},
			{
				"x": -2.8103753453,
				"y": -1.10364415,
				"z": 0.9511432271,
				"element": "C" 
			},
			{
				"x": -3.7431409863,
				"y": -2.06901964,
				"z": 0.8291437064,
				"element": "O" 
			},
			{
				"x": -3.1044712733,
				"y": 0.0657625005,
				"z": 1.0849721739,
				"element": "O" 
			},
			{
				"x": -0.6191300773,
				"y": 3.2765699602,
				"z": 1.0667465624,
				"element": "H" 
			},
			{
				"x": -0.0933808216,
				"y": 3.5071054076,
				"z": -0.6051074201,
				"element": "H" 
			},
			{
				"x": 1.0892322919,
				"y": 3.0854974536,
				"z": 0.6409602721,
				"element": "H" 
			},
			{
				"x": 0.4842535736,
				"y": 1.0797162209,
				"z": -0.7909868634,
				"element": "H" 
			},
			{
				"x": -1.2067169537,
				"y": 1.2738709031,
				"z": -0.3408252077,
				"element": "H" 
			},
			{
				"x": 1.0262065027,
				"y": 0.7000664838,
				"z": 1.6798168557,
				"element": "H" 
			},
			{
				"x": -0.6971909735,
				"y": 0.885699325,
				"z": 2.0294164572,
				"element": "H" 
			},
			{
				"x": 2.3374840404,
				"y": -0.1570958622,
				"z": -0.3131386497,
				"element": "H" 
			},
			{
				"x": 5.9965545182,
				"y": -1.7140209554,
				"z": 1.3199848713,
				"element": "H" 
			},
			{
				"x": 4.7047668429,
				"y": -3.4545607949,
				"z": 2.5442311247,
				"element": "H" 
			},
			{
				"x": 2.217076279,
				"y": -3.5180171332,
				"z": 2.37145628,
				"element": "H" 
			},
			{
				"x": -3.2863069813,
				"y": -2.9252486776,
				"z": 0.7344191119,
				"element": "H" 
			}
		],
		 "valence_orbital": [ 
			{
				"type": "occ",
				"energy": -0.29737,
				"method": "rhf"
			},
			{
				"type": "occ",
				"energy": -0.28333,
				"method": "rhf"
			},
			{
				"type": "occ",
				"energy": -0.27551,
				"method": "rhf"
			},
			{
				"type": "occ",
				"energy": -0.2735,
				"method": "rhf"
			},
			{
				"type": "occ",
				"energy": -0.26693,
				"method": "rhf"
			},
			{
				"type": "unocc",
				"energy": -0.05766,
				"method": "rhf"
			},
			{
				"type": "unocc",
				"energy": -0.0402,
				"method": "rhf"
			},
			{
				"type": "unocc",
				"energy": -0.0321,
				"method": "rhf"
			},
			{
				"type": "unocc",
				"energy": -0.01141,
				"method": "rhf"
			},
			{
				"type": "unocc",
				"energy": 0.00878,
				"method": "rhf"
			}
		],
		"cosmo_sigma_profile": { 
			"-0.025": 0.0,
			"-0.024": 0.0,
			"-0.023": 0.0,
			"-0.022": 0.0,
			"-0.021": 0.0,
			"-0.02": 0.0,
			"-0.019": 0.0,
			"-0.018": 0.0,
			"-0.017": 0.0,
			"-0.016": 0.0,
			"-0.015": 0.362029060089,
			"-0.014": 0.441403544294,
			"-0.013": 0.493338569396,
			"-0.012": 0.543684655987,
			"-0.011": 1.08073497177,
			"-0.01": 0.864632175324,
			"-0.009": 1.59472904665,
			"-0.008": 5.42411858215,
			"-0.007": 9.84541162713,
			"-0.006": 11.2561619619,
			"-0.005": 15.3427628635,
			"-0.004": 20.0386781195,
			"-0.003": 25.3263579681,
			"-0.002": 26.3764217712,
			"-0.001": 26.0580387031,
			"0.0": 26.3986593362,
			"0.001": 28.2066437084,
			"0.002": 19.9624198489,
			"0.003": 11.5870467296,
			"0.004": 13.7473987778,
			"0.005": 6.40520424092,
			"0.006": 5.29245543024,
			"0.007": 4.79953689068,
			"0.008": 5.93774254874,
			"0.009": 7.3566250148,
			"0.01": 6.65185456851,
			"0.011": 4.56487894845,
			"0.012": 3.67947219819,
			"0.013": 1.41646151535,
			"0.014": 0.0353886270399,
			"0.015": 0.0,
			"0.016": 0.0,
			"0.017": 0.0,
			"0.018": 0.0,
			"0.019": 0.0,
			"0.02": 0.0,
			"0.021": 0.0,
			"0.022": 0.0,
			"0.023": 0.0,
			"0.024": 0.0,
			"0.025": 0.0
		}
	}
}
