{
	 "smiles": "CCC(C)C1=CC=C(C=C1)N1C(S)=NC2=C(C=CC(Cl)=C2)C1=O", 
	 "Tm": 516.15, 
	 "num_atms": 40, 
	 "gaussian": { 
		 "optdone": 1, 
		 "sigma_profile": "yes", 
		 "theory": "DFT", 
		 "functional": "B3LYP", 
		 "basiset": "6-31G**", 
		 "properties": { 
			 "R2extent": 15752.2065, 
			 "electric_dipole_moment_norm": 3.32623439042, 
			 "electric_quadrupole_moment_norm": 8.42337567665, 
			 "total_energy": -1739.30687169, 
			 "HOMO_LUMO_gap": 0.18022, 
			 "cosmo_polarized_energy": -12.12, 
			 "cosmo_cavitation_energy": 47.0, 
			 "cosmo_dispersion_energy": -33.07, 
			 "cosmo_repulsion_energy": 2.5, 
			 "cosmo_total_nonelectrostatic_energy": 16.43, 
			 "SMD_solvation_energy": 6.49 
		},
		"coords": [
			{
				"x": 1.3746797498,
				"y": -5.138428944,
				"z": 1.7369186678,
				"element": "C" 
			},
			{
				"x": 1.1963815078,
				"y": -3.6639365602,
				"z": 1.35834303,
				"element": "C" 
			},
			{
				"x": 0.3257737404,
				"y": -3.4272484509,
				"z": 0.0997253555,
				"element": "C" 
			},
			{
				"x": 0.9482528976,
				"y": -4.030805942,
				"z": -1.1740616131,
				"element": "C" 
			},
			{
				"x": 0.0205690037,
				"y": -1.9464134064,
				"z": -0.0777058958,
				"element": "C" 
			},
			{
				"x": -1.2903327112,
				"y": -1.4682309644,
				"z": 0.0487507386,
				"element": "C" 
			},
			{
				"x": -1.5861207031,
				"y": -0.1139422834,
				"z": -0.0993654127,
				"element": "C" 
			},
			{
				"x": -0.5595928728,
				"y": 0.785116409,
				"z": -0.3853023577,
				"element": "C" 
			},
			{
				"x": 0.7563545742,
				"y": 0.3354025526,
				"z": -0.508408792,
				"element": "C" 
			},
			{
				"x": 1.0373523618,
				"y": -1.0198926082,
				"z": -0.3581658632,
				"element": "C" 
			},
			{
				"x": -0.8551430296,
				"y": 2.1921377323,
				"z": -0.5348512182,
				"element": "N" 
			},
			{
				"x": -1.1875654488,
				"y": 2.7341790821,
				"z": -1.7655708975,
				"element": "C" 
			},
			{
				"x": -1.2211622323,
				"y": 1.5828711289,
				"z": -3.1297212058,
				"element": "S" 
			},
			{
				"x": -1.4652858187,
				"y": 3.9778613292,
				"z": -1.9842078941,
				"element": "N" 
			},
			{
				"x": -1.4294639431,
				"y": 4.8451463559,
				"z": -0.9063613335,
				"element": "C" 
			},
			{
				"x": -1.1034443666,
				"y": 4.4130992304,
				"z": 0.3975469541,
				"element": "C" 
			},
			{
				"x": -1.0787118314,
				"y": 5.3277384419,
				"z": 1.4619185763,
				"element": "C" 
			},
			{
				"x": -1.3736714025,
				"y": 6.66371186,
				"z": 1.2459765136,
				"element": "C" 
			},
			{
				"x": -1.6971034715,
				"y": 7.0831739182,
				"z": -0.0564697564,
				"element": "C" 
			},
			{
				"x": -2.0708334982,
				"y": 8.776955931,
				"z": -0.3288915939,
				"element": "Cl" 
			},
			{
				"x": -1.7295054902,
				"y": 6.2041693012,
				"z": -1.1260122852,
				"element": "C" 
			},
			{
				"x": -0.7900290467,
				"y": 3.0029732131,
				"z": 0.6373892262,
				"element": "C" 
			},
			{
				"x": -0.4948880953,
				"y": 2.5126106755,
				"z": 1.7145451805,
				"element": "O" 
			},
			{
				"x": 1.9208740744,
				"y": -5.6984503494,
				"z": 0.9715663508,
				"element": "H" 
			},
			{
				"x": 1.9353733473,
				"y": -5.2318644064,
				"z": 2.6724822397,
				"element": "H" 
			},
			{
				"x": 0.4056933259,
				"y": -5.6302231924,
				"z": 1.8818560273,
				"element": "H" 
			},
			{
				"x": 0.7372409013,
				"y": -3.1298836775,
				"z": 2.1990041071,
				"element": "H" 
			},
			{
				"x": 2.1808493236,
				"y": -3.2014063027,
				"z": 1.20743832,
				"element": "H" 
			},
			{
				"x": -0.6339751721,
				"y": -3.9344291974,
				"z": 0.2703465633,
				"element": "H" 
			},
			{
				"x": 1.9368962805,
				"y": -3.6037586623,
				"z": -1.3760860572,
				"element": "H" 
			},
			{
				"x": 0.3171967541,
				"y": -3.8365122296,
				"z": -2.0466808846,
				"element": "H" 
			},
			{
				"x": 1.0671301239,
				"y": -5.1142357295,
				"z": -1.0818113706,
				"element": "H" 
			},
			{
				"x": -2.093790311,
				"y": -2.1659443527,
				"z": 0.2693698683,
				"element": "H" 
			},
			{
				"x": -2.6042444188,
				"y": 0.2468104402,
				"z": 0.0059907859,
				"element": "H" 
			},
			{
				"x": 1.5489087952,
				"y": 1.0462450998,
				"z": -0.7192036305,
				"element": "H" 
			},
			{
				"x": 2.0647086602,
				"y": -1.3572169999,
				"z": -0.4588369351,
				"element": "H" 
			},
			{
				"x": -1.5634216339,
				"y": 2.5529863896,
				"z": -3.9993342079,
				"element": "H" 
			},
			{
				"x": -0.8239846521,
				"y": 4.9608868484,
				"z": 2.4505640337,
				"element": "H" 
			},
			{
				"x": -1.3585935243,
				"y": 7.3813437279,
				"z": 2.0579462999,
				"element": "H" 
			},
			{
				"x": -1.9793717472,
				"y": 6.5337045922,
				"z": -2.1271296335,
				"element": "H" 
			}
		],
		 "valence_orbital": [ 
			{
				"type": "occ",
				"energy": -0.26977,
				"method": "rhf"
			},
			{
				"type": "occ",
				"energy": -0.26267,
				"method": "rhf"
			},
			{
				"type": "occ",
				"energy": -0.25712,
				"method": "rhf"
			},
			{
				"type": "occ",
				"energy": -0.25291,
				"method": "rhf"
			},
			{
				"type": "occ",
				"energy": -0.2301,
				"method": "rhf"
			},
			{
				"type": "unocc",
				"energy": -0.04988,
				"method": "rhf"
			},
			{
				"type": "unocc",
				"energy": -0.04177,
				"method": "rhf"
			},
			{
				"type": "unocc",
				"energy": -0.02363,
				"method": "rhf"
			},
			{
				"type": "unocc",
				"energy": -0.01453,
				"method": "rhf"
			},
			{
				"type": "unocc",
				"energy": 0.01129,
				"method": "rhf"
			}
		],
		"cosmo_sigma_profile": { 
			"-0.025": 0.0,
			"-0.024": 0.0,
			"-0.023": 0.0,
			"-0.022": 0.0,
			"-0.021": 0.0,
			"-0.02": 0.0,
			"-0.019": 0.0,
			"-0.018": 0.0,
			"-0.017": 0.0,
			"-0.016": 0.0,
			"-0.015": 0.0,
			"-0.014": 0.0,
			"-0.013": 0.0,
			"-0.012": 0.52486539556,
			"-0.011": 1.35298255668,
			"-0.01": 1.37937899695,
			"-0.009": 0.928924176496,
			"-0.008": 2.67371509952,
			"-0.007": 9.71365357101,
			"-0.006": 13.7559712048,
			"-0.005": 22.2135702671,
			"-0.004": 18.1979304575,
			"-0.003": 27.3770162632,
			"-0.002": 32.778676756,
			"-0.001": 37.533412952,
			"0.0": 43.3602105091,
			"0.001": 50.231180512,
			"0.002": 31.2267014035,
			"0.003": 23.4146774512,
			"0.004": 23.9577583741,
			"0.005": 9.90247143075,
			"0.006": 5.43095746332,
			"0.007": 3.45742226096,
			"0.008": 3.27556362146,
			"0.009": 2.24947681689,
			"0.01": 3.19567282009,
			"0.011": 3.62965813289,
			"0.012": 4.99802830811,
			"0.013": 1.60920242489,
			"0.014": 0.0,
			"0.015": 0.0,
			"0.016": 0.0,
			"0.017": 0.0,
			"0.018": 0.0,
			"0.019": 0.0,
			"0.02": 0.0,
			"0.021": 0.0,
			"0.022": 0.0,
			"0.023": 0.0,
			"0.024": 0.0,
			"0.025": 0.0
		}
	}
}
