{
	 "smiles": "OC(=O)C1=CC(=CC(=C1)C(F)(F)F)C(F)(F)F", 
	 "Tm": 415.15, 
	 "num_atms": 21, 
	 "gaussian": { 
		 "optdone": 1, 
		 "sigma_profile": "yes", 
		 "theory": "DFT", 
		 "functional": "B3LYP", 
		 "basiset": "6-31G**", 
		 "properties": { 
			 "R2extent": 4493.7463, 
			 "electric_dipole_moment_norm": 1.96339890241, 
			 "electric_quadrupole_moment_norm": 13.2168502598, 
			 "total_energy": -1094.88899143, 
			 "HOMO_LUMO_gap": 0.21699, 
			 "cosmo_polarized_energy": -8.92, 
			 "cosmo_cavitation_energy": 29.74, 
			 "cosmo_dispersion_energy": -20.36, 
			 "cosmo_repulsion_energy": 1.46, 
			 "cosmo_total_nonelectrostatic_energy": 10.85, 
			 "SMD_solvation_energy": 8.72 
		},
		"coords": [
			{
				"x": -0.2165110453,
				"y": -0.2329588924,
				"z": -3.7275189982,
				"element": "O" 
			},
			{
				"x": 0.751663437,
				"y": 0.2149564649,
				"z": -2.8954971172,
				"element": "C" 
			},
			{
				"x": 1.8624955307,
				"y": 0.5150550064,
				"z": -3.2804705513,
				"element": "O" 
			},
			{
				"x": 0.301823606,
				"y": 0.2953095902,
				"z": -1.4758979405,
				"element": "C" 
			},
			{
				"x": 1.2249014979,
				"y": 0.7425380338,
				"z": -0.5247614213,
				"element": "C" 
			},
			{
				"x": 0.8511745421,
				"y": 0.8329566519,
				"z": 0.814182146,
				"element": "C" 
			},
			{
				"x": -0.4414142557,
				"y": 0.4831146111,
				"z": 1.210487533,
				"element": "C" 
			},
			{
				"x": -1.3594557727,
				"y": 0.0391652898,
				"z": 0.257954077,
				"element": "C" 
			},
			{
				"x": -0.9935834251,
				"y": -0.0585744851,
				"z": -1.0848208598,
				"element": "C" 
			},
			{
				"x": -2.7735231569,
				"y": -0.2798637054,
				"z": 0.673803117,
				"element": "C" 
			},
			{
				"x": -3.3209383543,
				"y": -1.2288760872,
				"z": -0.1139973428,
				"element": "F" 
			},
			{
				"x": -3.5670856053,
				"y": 0.8108892519,
				"z": 0.5925421084,
				"element": "F" 
			},
			{
				"x": -2.8304804492,
				"y": -0.7187443099,
				"z": 1.948848145,
				"element": "F" 
			},
			{
				"x": 1.8620377419,
				"y": 1.2540163855,
				"z": 1.851389673,
				"element": "C" 
			},
			{
				"x": 1.271527232,
				"y": 1.8684704194,
				"z": 2.8986680189,
				"element": "F" 
			},
			{
				"x": 2.777695943,
				"y": 2.100587341,
				"z": 1.3387159628,
				"element": "F" 
			},
			{
				"x": 2.5330040156,
				"y": 0.1889261586,
				"z": 2.3424914212,
				"element": "F" 
			},
			{
				"x": 0.1747508171,
				"y": -0.2479829304,
				"z": -4.6166187816,
				"element": "H" 
			},
			{
				"x": 2.2219617333,
				"y": 1.0170775751,
				"z": -0.8495145919,
				"element": "H" 
			},
			{
				"x": -0.7301840544,
				"y": 0.5561363069,
				"z": 2.2524634868,
				"element": "H" 
			},
			{
				"x": -1.7050599777,
				"y": -0.4106986761,
				"z": -1.8215480844,
				"element": "H" 
			}
		],
		 "valence_orbital": [ 
			{
				"type": "occ",
				"energy": -0.3745,
				"method": "rhf"
			},
			{
				"type": "occ",
				"energy": -0.33954,
				"method": "rhf"
			},
			{
				"type": "occ",
				"energy": -0.29808,
				"method": "rhf"
			},
			{
				"type": "occ",
				"energy": -0.297,
				"method": "rhf"
			},
			{
				"type": "occ",
				"energy": -0.29485,
				"method": "rhf"
			},
			{
				"type": "unocc",
				"energy": -0.07786,
				"method": "rhf"
			},
			{
				"type": "unocc",
				"energy": -0.0561,
				"method": "rhf"
			},
			{
				"type": "unocc",
				"energy": 0.01873,
				"method": "rhf"
			},
			{
				"type": "unocc",
				"energy": 0.06143,
				"method": "rhf"
			},
			{
				"type": "unocc",
				"energy": 0.10307,
				"method": "rhf"
			}
		],
		"cosmo_sigma_profile": { 
			"-0.025": 0.0,
			"-0.024": 0.0,
			"-0.023": 0.0,
			"-0.022": 0.0,
			"-0.021": 0.0,
			"-0.02": 0.0291203583891,
			"-0.019": 0.553222369646,
			"-0.018": 0.961180508069,
			"-0.017": 1.09250966663,
			"-0.016": 0.433803883156,
			"-0.015": 0.548560139047,
			"-0.014": 0.565391449123,
			"-0.013": 0.993350050259,
			"-0.012": 0.949736719943,
			"-0.011": 0.64982742896,
			"-0.01": 0.284789923437,
			"-0.009": 0.817961188701,
			"-0.008": 2.36367566715,
			"-0.007": 5.1466686224,
			"-0.006": 6.36228625916,
			"-0.005": 5.283257017,
			"-0.004": 10.7072484738,
			"-0.003": 13.9350898242,
			"-0.002": 19.2380049737,
			"-0.001": 29.6238901732,
			"0.0": 17.4170826305,
			"0.001": 19.795939392,
			"0.002": 49.9002466669,
			"0.003": 30.0677065607,
			"0.004": 2.53400116792,
			"0.005": 3.0203035195,
			"0.006": 3.49365632327,
			"0.007": 1.72281384479,
			"0.008": 1.19080058564,
			"0.009": 1.81198190566,
			"0.01": 2.66306857212,
			"0.011": 4.71757366504,
			"0.012": 0.643440444822,
			"0.013": 0.0,
			"0.014": 0.0,
			"0.015": 0.0,
			"0.016": 0.0,
			"0.017": 0.0,
			"0.018": 0.0,
			"0.019": 0.0,
			"0.02": 0.0,
			"0.021": 0.0,
			"0.022": 0.0,
			"0.023": 0.0,
			"0.024": 0.0,
			"0.025": 0.0
		}
	}
}
