{
	 "smiles": "O=NN1CCCC1C1=CN=CC=C1", 
	 "Tm": 320.15, 
	 "num_atms": 24, 
	 "gaussian": { 
		 "optdone": 1, 
		 "sigma_profile": "yes", 
		 "theory": "DFT", 
		 "functional": "B3LYP", 
		 "basiset": "6-31G**", 
		 "properties": { 
			 "R2extent": 2872.0031, 
			 "electric_dipole_moment_norm": 5.26499341975, 
			 "electric_quadrupole_moment_norm": 19.910437726, 
			 "total_energy": -588.982720736, 
			 "HOMO_LUMO_gap": 0.18559, 
			 "cosmo_polarized_energy": -14.85, 
			 "cosmo_cavitation_energy": 27.35, 
			 "cosmo_dispersion_energy": -19.65, 
			 "cosmo_repulsion_energy": 1.57, 
			 "cosmo_total_nonelectrostatic_energy": 9.27, 
			 "SMD_solvation_energy": 3.28 
		},
		"coords": [
			{
				"x": -3.550071606,
				"y": -0.3868333429,
				"z": 1.7304259215,
				"element": "O" 
			},
			{
				"x": -2.6687985557,
				"y": -0.6280390613,
				"z": 0.9050435573,
				"element": "N" 
			},
			{
				"x": -1.5254613582,
				"y": 0.0134892778,
				"z": 1.1306396845,
				"element": "N" 
			},
			{
				"x": -1.2547291254,
				"y": 0.7987317781,
				"z": 2.3440777915,
				"element": "C" 
			},
			{
				"x": 0.2809138018,
				"y": 0.8390227742,
				"z": 2.3844123768,
				"element": "C" 
			},
			{
				"x": 0.6926712884,
				"y": 0.7092368842,
				"z": 0.9069552806,
				"element": "C" 
			},
			{
				"x": -0.3315719963,
				"y": -0.2894383973,
				"z": 0.3186761886,
				"element": "C" 
			},
			{
				"x": -0.5528496066,
				"y": -0.1642324688,
				"z": -1.1734210364,
				"element": "C" 
			},
			{
				"x": -1.2167894547,
				"y": 0.9375714672,
				"z": -1.7318839589,
				"element": "C" 
			},
			{
				"x": -1.3892434826,
				"y": 1.1244276424,
				"z": -3.0429086027,
				"element": "N" 
			},
			{
				"x": -0.8964222875,
				"y": 0.1915848686,
				"z": -3.869204316,
				"element": "C" 
			},
			{
				"x": -0.2273487877,
				"y": -0.9486571065,
				"z": -3.4264707336,
				"element": "C" 
			},
			{
				"x": -0.0559644638,
				"y": -1.1263857848,
				"z": -2.0544097261,
				"element": "C" 
			},
			{
				"x": -1.7227147741,
				"y": 0.3073070235,
				"z": 3.2012242846,
				"element": "H" 
			},
			{
				"x": -1.7035764001,
				"y": 1.795194591,
				"z": 2.2537800184,
				"element": "H" 
			},
			{
				"x": 0.6612474556,
				"y": -0.0129517773,
				"z": 2.9586904511,
				"element": "H" 
			},
			{
				"x": 0.6621093044,
				"y": 1.7505225347,
				"z": 2.8515406089,
				"element": "H" 
			},
			{
				"x": 1.7200763049,
				"y": 0.3643905424,
				"z": 0.7658397546,
				"element": "H" 
			},
			{
				"x": 0.5909755513,
				"y": 1.6727130647,
				"z": 0.3956372228,
				"element": "H" 
			},
			{
				"x": -0.0029622076,
				"y": -1.315529547,
				"z": 0.5362111223,
				"element": "H" 
			},
			{
				"x": -1.6416530274,
				"y": 1.7006363055,
				"z": -1.081485966,
				"element": "H" 
			},
			{
				"x": -1.0480107973,
				"y": 0.3647320701,
				"z": -4.9330425092,
				"element": "H" 
			},
			{
				"x": 0.1441205152,
				"y": -1.6800966037,
				"z": -4.1372613921,
				"element": "H" 
			},
			{
				"x": 0.4544537094,
				"y": -2.0065967346,
				"z": -1.6705660228,
				"element": "H" 
			}
		],
		 "valence_orbital": [ 
			{
				"type": "occ",
				"energy": -0.29021,
				"method": "rhf"
			},
			{
				"type": "occ",
				"energy": -0.27048,
				"method": "rhf"
			},
			{
				"type": "occ",
				"energy": -0.25883,
				"method": "rhf"
			},
			{
				"type": "occ",
				"energy": -0.2496,
				"method": "rhf"
			},
			{
				"type": "occ",
				"energy": -0.21842,
				"method": "rhf"
			},
			{
				"type": "unocc",
				"energy": -0.03283,
				"method": "rhf"
			},
			{
				"type": "unocc",
				"energy": -0.02706,
				"method": "rhf"
			},
			{
				"type": "unocc",
				"energy": -0.02047,
				"method": "rhf"
			},
			{
				"type": "unocc",
				"energy": 0.07044,
				"method": "rhf"
			},
			{
				"type": "unocc",
				"energy": 0.08984,
				"method": "rhf"
			}
		],
		"cosmo_sigma_profile": { 
			"-0.025": 0.0,
			"-0.024": 0.0,
			"-0.023": 0.0,
			"-0.022": 0.0,
			"-0.021": 0.0,
			"-0.02": 0.0,
			"-0.019": 0.0,
			"-0.018": 0.0,
			"-0.017": 0.0,
			"-0.016": 0.0,
			"-0.015": 0.0,
			"-0.014": 0.0,
			"-0.013": 0.0,
			"-0.012": 0.0,
			"-0.011": 0.0,
			"-0.01": 0.0,
			"-0.009": 0.0,
			"-0.008": 0.954123176356,
			"-0.007": 7.28582292283,
			"-0.006": 15.1224987419,
			"-0.005": 26.4059939499,
			"-0.004": 25.729369873,
			"-0.003": 20.6797384332,
			"-0.002": 15.6064823942,
			"-0.001": 14.6451386664,
			"0.0": 9.0440578707,
			"0.001": 9.40874849626,
			"0.002": 12.9370302277,
			"0.003": 10.8437831676,
			"0.004": 4.52750491336,
			"0.005": 4.66562549242,
			"0.006": 3.88486814143,
			"0.007": 3.85386928556,
			"0.008": 4.39171992206,
			"0.009": 4.44687635637,
			"0.01": 7.38519862797,
			"0.011": 6.28362146847,
			"0.012": 3.29671918808,
			"0.013": 2.31390683316,
			"0.014": 0.68691905642,
			"0.015": 1.04090464198,
			"0.016": 0.959461242373,
			"0.017": 0.244836043247,
			"0.018": 0.0,
			"0.019": 0.0,
			"0.02": 0.0,
			"0.021": 0.0,
			"0.022": 0.0,
			"0.023": 0.0,
			"0.024": 0.0,
			"0.025": 0.0
		}
	}
}
