{
	 "smiles": "CCOC(=O)C1=CC(Br)=C(C=C1)S(Cl)(=O)=O", 
	 "Tm": 322.15, 
	 "num_atms": 24, 
	 "gaussian": { 
		 "optdone": 1, 
		 "sigma_profile": "yes", 
		 "theory": "DFT", 
		 "functional": "B3LYP", 
		 "basiset": "6-31G**", 
		 "properties": { 
			 "R2extent": 10110.0628, 
			 "electric_dipole_moment_norm": 5.92928358657, 
			 "electric_quadrupole_moment_norm": 12.8823710329, 
			 "total_energy": -4078.39593121, 
			 "HOMO_LUMO_gap": 0.17249, 
			 "cosmo_polarized_energy": -11.21, 
			 "cosmo_cavitation_energy": 34.6, 
			 "cosmo_dispersion_energy": -25.8, 
			 "cosmo_repulsion_energy": 1.98, 
			 "cosmo_total_nonelectrostatic_energy": 10.78, 
			 "SMD_solvation_energy": 4.84 
		},
		"coords": [
			{
				"x": -1.2080300483,
				"y": -4.1524940012,
				"z": -0.1286818809,
				"element": "C" 
			},
			{
				"x": -1.340581434,
				"y": -3.0736848132,
				"z": 0.927892823,
				"element": "C" 
			},
			{
				"x": -0.5910567691,
				"y": -1.9192954924,
				"z": 0.4688722814,
				"element": "O" 
			},
			{
				"x": -0.5956598211,
				"y": -0.8530189311,
				"z": 1.2875668282,
				"element": "C" 
			},
			{
				"x": -1.1763316768,
				"y": -0.8128446734,
				"z": 2.353377496,
				"element": "O" 
			},
			{
				"x": 0.202246313,
				"y": 0.2885220044,
				"z": 0.7327133264,
				"element": "C" 
			},
			{
				"x": 0.2705908771,
				"y": 1.4536340058,
				"z": 1.5020297706,
				"element": "C" 
			},
			{
				"x": 0.991302606,
				"y": 2.5587768173,
				"z": 1.0547795398,
				"element": "C" 
			},
			{
				"x": 1.0428723678,
				"y": 4.0840266888,
				"z": 2.1812185133,
				"element": "Br" 
			},
			{
				"x": 1.6482108774,
				"y": 2.4818420669,
				"z": -0.1836468472,
				"element": "C" 
			},
			{
				"x": 1.5868572777,
				"y": 1.3146353096,
				"z": -0.9527055896,
				"element": "C" 
			},
			{
				"x": 0.8627660541,
				"y": 0.217703955,
				"z": -0.4980195133,
				"element": "C" 
			},
			{
				"x": 2.5698914855,
				"y": 3.842311511,
				"z": -0.9295455364,
				"element": "S" 
			},
			{
				"x": 4.2817500176,
				"y": 3.9280613769,
				"z": 0.3198599924,
				"element": "Cl" 
			},
			{
				"x": 1.8524873206,
				"y": 5.0975331941,
				"z": -0.7704885967,
				"element": "O" 
			},
			{
				"x": 3.0472337605,
				"y": 3.3972051254,
				"z": -2.2329818546,
				"element": "O" 
			},
			{
				"x": -1.7625837701,
				"y": -5.0426286382,
				"z": 0.1833967533,
				"element": "H" 
			},
			{
				"x": -0.1611123763,
				"y": -4.433947594,
				"z": -0.2734079835,
				"element": "H" 
			},
			{
				"x": -1.6123808834,
				"y": -3.8151434485,
				"z": -1.0872688728,
				"element": "H" 
			},
			{
				"x": -2.3803602175,
				"y": -2.7717937129,
				"z": 1.0853384816,
				"element": "H" 
			},
			{
				"x": -0.9364179591,
				"y": -3.3873473359,
				"z": 1.8950217073,
				"element": "H" 
			},
			{
				"x": -0.2453909929,
				"y": 1.4848064344,
				"z": 2.4540928604,
				"element": "H" 
			},
			{
				"x": 2.1070180942,
				"y": 1.2835865366,
				"z": -1.9024002521,
				"element": "H" 
			},
			{
				"x": 0.8093788971,
				"y": -0.6868463854,
				"z": -1.0911134467,
				"element": "H" 
			}
		],
		 "valence_orbital": [ 
			{
				"type": "occ",
				"energy": -0.31759,
				"method": "rhf"
			},
			{
				"type": "occ",
				"energy": -0.30336,
				"method": "rhf"
			},
			{
				"type": "occ",
				"energy": -0.30034,
				"method": "rhf"
			},
			{
				"type": "occ",
				"energy": -0.29646,
				"method": "rhf"
			},
			{
				"type": "occ",
				"energy": -0.27439,
				"method": "rhf"
			},
			{
				"type": "unocc",
				"energy": -0.1019,
				"method": "rhf"
			},
			{
				"type": "unocc",
				"energy": -0.07378,
				"method": "rhf"
			},
			{
				"type": "unocc",
				"energy": -0.04906,
				"method": "rhf"
			},
			{
				"type": "unocc",
				"energy": -0.0183,
				"method": "rhf"
			},
			{
				"type": "unocc",
				"energy": 0.01109,
				"method": "rhf"
			}
		],
		"cosmo_sigma_profile": { 
			"-0.025": 0.0,
			"-0.024": 0.0,
			"-0.023": 0.0,
			"-0.022": 0.0,
			"-0.021": 0.0,
			"-0.02": 0.0,
			"-0.019": 0.0,
			"-0.018": 0.0,
			"-0.017": 0.0,
			"-0.016": 0.0,
			"-0.015": 0.0,
			"-0.014": 0.0,
			"-0.013": 0.0,
			"-0.012": 0.0,
			"-0.011": 0.0,
			"-0.01": 0.0675021541138,
			"-0.009": 1.35221728009,
			"-0.008": 3.56977035254,
			"-0.007": 4.8663032392,
			"-0.006": 9.05879487972,
			"-0.005": 15.0172649737,
			"-0.004": 25.5352203026,
			"-0.003": 24.6045968348,
			"-0.002": 34.9009687667,
			"-0.001": 31.8638474987,
			"0.0": 19.8917014125,
			"0.001": 16.4958233467,
			"0.002": 22.6538863119,
			"0.003": 22.042532021,
			"0.004": 9.40429403701,
			"0.005": 5.09939039275,
			"0.006": 5.10365764857,
			"0.007": 10.0295409542,
			"0.008": 10.4053778453,
			"0.009": 3.37942032937,
			"0.01": 2.68754087256,
			"0.011": 3.93350202294,
			"0.012": 0.741508124895,
			"0.013": 0.0,
			"0.014": 0.0,
			"0.015": 0.0,
			"0.016": 0.0,
			"0.017": 0.0,
			"0.018": 0.0,
			"0.019": 0.0,
			"0.02": 0.0,
			"0.021": 0.0,
			"0.022": 0.0,
			"0.023": 0.0,
			"0.024": 0.0,
			"0.025": 0.0
		}
	}
}
