{
	 "smiles": "CC1=C(C(N)=O)C(N)=CC=C1", 
	 "Tm": 415.15, 
	 "num_atms": 21, 
	 "gaussian": { 
		 "optdone": 1, 
		 "sigma_profile": "yes", 
		 "theory": "DFT", 
		 "functional": "B3LYP", 
		 "basiset": "6-31G**", 
		 "properties": { 
			 "R2extent": 2139.4854, 
			 "electric_dipole_moment_norm": 1.94673463266, 
			 "electric_quadrupole_moment_norm": 12.6510991471, 
			 "total_energy": -495.634355545, 
			 "HOMO_LUMO_gap": 0.1715, 
			 "cosmo_polarized_energy": -12.93, 
			 "cosmo_cavitation_energy": 23.72, 
			 "cosmo_dispersion_energy": -18.01, 
			 "cosmo_repulsion_energy": 1.45, 
			 "cosmo_total_nonelectrostatic_energy": 7.16, 
			 "SMD_solvation_energy": 4.61 
		},
		"coords": [
			{
				"x": -2.197017143,
				"y": -0.5864753497,
				"z": 0.3895203906,
				"element": "C" 
			},
			{
				"x": -0.7336207225,
				"y": -0.9871289622,
				"z": 0.3416531168,
				"element": "C" 
			},
			{
				"x": 0.0262287652,
				"y": -1.0430425545,
				"z": -0.855314641,
				"element": "C" 
			},
			{
				"x": -0.5112993175,
				"y": -0.6473973052,
				"z": -2.1973821138,
				"element": "C" 
			},
			{
				"x": -1.3942629679,
				"y": 0.3992077239,
				"z": -2.2441450252,
				"element": "N" 
			},
			{
				"x": -0.1814825374,
				"y": -1.209302349,
				"z": -3.247465466,
				"element": "O" 
			},
			{
				"x": 1.3701177346,
				"y": -1.5269113055,
				"z": -0.811872229,
				"element": "C" 
			},
			{
				"x": 2.142861139,
				"y": -1.617188759,
				"z": -1.949281055,
				"element": "N" 
			},
			{
				"x": 1.9376896833,
				"y": -1.8607449496,
				"z": 0.4341489265,
				"element": "C" 
			},
			{
				"x": 1.1919098611,
				"y": -1.7717255664,
				"z": 1.5967064777,
				"element": "C" 
			},
			{
				"x": -0.1400607362,
				"y": -1.3564040641,
				"z": 1.5518917743,
				"element": "C" 
			},
			{
				"x": -2.7543947261,
				"y": -0.9175249561,
				"z": -0.4885655316,
				"element": "H" 
			},
			{
				"x": -2.6661950408,
				"y": -1.0178456777,
				"z": 1.2776613518,
				"element": "H" 
			},
			{
				"x": -2.3295595813,
				"y": 0.5014130544,
				"z": 0.4670095955,
				"element": "H" 
			},
			{
				"x": -1.4798787423,
				"y": 1.0443987515,
				"z": -1.4761267206,
				"element": "H" 
			},
			{
				"x": -1.6323068183,
				"y": 0.7272099629,
				"z": -3.1689767303,
				"element": "H" 
			},
			{
				"x": 2.9754898625,
				"y": -2.1812365643,
				"z": -1.8732288068,
				"element": "H" 
			},
			{
				"x": 1.6188884206,
				"y": -1.7021904047,
				"z": -2.8130230664,
				"element": "H" 
			},
			{
				"x": 2.9683998936,
				"y": -2.2049837818,
				"z": 0.4643821802,
				"element": "H" 
			},
			{
				"x": 1.6417095025,
				"y": -2.0483537321,
				"z": 2.5465129943,
				"element": "H" 
			},
			{
				"x": -0.7300165291,
				"y": -1.3271732107,
				"z": 2.4630945779,
				"element": "H" 
			}
		],
		 "valence_orbital": [ 
			{
				"type": "occ",
				"energy": -0.29994,
				"method": "rhf"
			},
			{
				"type": "occ",
				"energy": -0.26817,
				"method": "rhf"
			},
			{
				"type": "occ",
				"energy": -0.25286,
				"method": "rhf"
			},
			{
				"type": "occ",
				"energy": -0.24063,
				"method": "rhf"
			},
			{
				"type": "occ",
				"energy": -0.19579,
				"method": "rhf"
			},
			{
				"type": "unocc",
				"energy": -0.02429,
				"method": "rhf"
			},
			{
				"type": "unocc",
				"energy": 0.01703,
				"method": "rhf"
			},
			{
				"type": "unocc",
				"energy": 0.05236,
				"method": "rhf"
			},
			{
				"type": "unocc",
				"energy": 0.08167,
				"method": "rhf"
			},
			{
				"type": "unocc",
				"energy": 0.09828,
				"method": "rhf"
			}
		],
		"cosmo_sigma_profile": { 
			"-0.025": 0.0,
			"-0.024": 0.0,
			"-0.023": 0.0,
			"-0.022": 0.0,
			"-0.021": 0.0,
			"-0.02": 0.0,
			"-0.019": 0.0,
			"-0.018": 0.0,
			"-0.017": 0.0,
			"-0.016": 0.0,
			"-0.015": 0.0,
			"-0.014": 0.579604069312,
			"-0.013": 2.4759577509,
			"-0.012": 3.56517700579,
			"-0.011": 3.50535230558,
			"-0.01": 3.71359533624,
			"-0.009": 4.17972543125,
			"-0.008": 3.33980695837,
			"-0.007": 4.6788377059,
			"-0.006": 5.65157718385,
			"-0.005": 9.31894031082,
			"-0.004": 11.3174629266,
			"-0.003": 12.3201548776,
			"-0.002": 11.8704319302,
			"-0.001": 12.4942186584,
			"0.0": 13.2779256417,
			"0.001": 11.9299214599,
			"0.002": 7.85044972713,
			"0.003": 9.37780400554,
			"0.004": 10.9251218211,
			"0.005": 12.9009203252,
			"0.006": 10.6825425324,
			"0.007": 3.96788883957,
			"0.008": 3.08785031938,
			"0.009": 1.74793767936,
			"0.01": 1.7085818995,
			"0.011": 2.41020372771,
			"0.012": 3.05640020829,
			"0.013": 3.27236842541,
			"0.014": 2.06765286691,
			"0.015": 0.195916632897,
			"0.016": 0.0,
			"0.017": 0.0,
			"0.018": 0.0,
			"0.019": 0.0,
			"0.02": 0.0,
			"0.021": 0.0,
			"0.022": 0.0,
			"0.023": 0.0,
			"0.024": 0.0,
			"0.025": 0.0
		}
	}
}
