{
	 "smiles": "O=C1CSCC2=C1C=CC=C2", 
	 "Tm": 330.15, 
	 "num_atms": 19, 
	 "gaussian": { 
		 "optdone": 1, 
		 "sigma_profile": "yes", 
		 "theory": "DFT", 
		 "functional": "B3LYP", 
		 "basiset": "6-31G**", 
		 "properties": { 
			 "R2extent": 1903.7284, 
			 "electric_dipole_moment_norm": 3.30584563009, 
			 "electric_quadrupole_moment_norm": 6.18123416722, 
			 "total_energy": -821.191786484, 
			 "HOMO_LUMO_gap": 0.16213, 
			 "cosmo_polarized_energy": -9.52, 
			 "cosmo_cavitation_energy": 23.6, 
			 "cosmo_dispersion_energy": -18.3, 
			 "cosmo_repulsion_energy": 1.4, 
			 "cosmo_total_nonelectrostatic_energy": 6.69, 
			 "SMD_solvation_energy": 3.72 
		},
		"coords": [
			{
				"x": -2.5853374203,
				"y": 0.9360821093,
				"z": 0.5669763896,
				"element": "O" 
			},
			{
				"x": -1.381320394,
				"y": 0.9380031257,
				"z": 0.3633252623,
				"element": "C" 
			},
			{
				"x": -0.5759193102,
				"y": 2.1988496232,
				"z": 0.6580648137,
				"element": "C" 
			},
			{
				"x": 0.7763582171,
				"y": 2.4859992479,
				"z": -0.5382443769,
				"element": "S" 
			},
			{
				"x": 1.6116974793,
				"y": 0.8881642959,
				"z": -0.224955978,
				"element": "C" 
			},
			{
				"x": 0.7135788278,
				"y": -0.3150383288,
				"z": -0.4133032988,
				"element": "C" 
			},
			{
				"x": -0.6696652634,
				"y": -0.2825885698,
				"z": -0.1304246903,
				"element": "C" 
			},
			{
				"x": -1.4437154267,
				"y": -1.4407540328,
				"z": -0.3096742098,
				"element": "C" 
			},
			{
				"x": -0.8680468629,
				"y": -2.6242242284,
				"z": -0.7553489245,
				"element": "C" 
			},
			{
				"x": 0.5007111101,
				"y": -2.659025387,
				"z": -1.0345482152,
				"element": "C" 
			},
			{
				"x": 1.2779212964,
				"y": -1.5139934529,
				"z": -0.8651112696,
				"element": "C" 
			},
			{
				"x": -0.1584796546,
				"y": 2.1304788987,
				"z": 1.6717424208,
				"element": "H" 
			},
			{
				"x": -1.2550045813,
				"y": 3.0523000546,
				"z": 0.6285531998,
				"element": "H" 
			},
			{
				"x": 2.0210570646,
				"y": 0.906977228,
				"z": 0.7938198,
				"element": "H" 
			},
			{
				"x": 2.4607117239,
				"y": 0.8393696704,
				"z": -0.9115285285,
				"element": "H" 
			},
			{
				"x": -2.5034219182,
				"y": -1.3772008963,
				"z": -0.0866745586,
				"element": "H" 
			},
			{
				"x": -1.4776602145,
				"y": -3.5128699618,
				"z": -0.8880434971,
				"element": "H" 
			},
			{
				"x": 0.9624879327,
				"y": -3.5748574262,
				"z": -1.3925361222,
				"element": "H" 
			},
			{
				"x": 2.3400473942,
				"y": -1.5463719698,
				"z": -1.0943882169,
				"element": "H" 
			}
		],
		 "valence_orbital": [ 
			{
				"type": "occ",
				"energy": -0.33157,
				"method": "rhf"
			},
			{
				"type": "occ",
				"energy": -0.26618,
				"method": "rhf"
			},
			{
				"type": "occ",
				"energy": -0.26265,
				"method": "rhf"
			},
			{
				"type": "occ",
				"energy": -0.25809,
				"method": "rhf"
			},
			{
				"type": "occ",
				"energy": -0.22624,
				"method": "rhf"
			},
			{
				"type": "unocc",
				"energy": -0.06411,
				"method": "rhf"
			},
			{
				"type": "unocc",
				"energy": -0.01653,
				"method": "rhf"
			},
			{
				"type": "unocc",
				"energy": 0.02292,
				"method": "rhf"
			},
			{
				"type": "unocc",
				"energy": 0.03891,
				"method": "rhf"
			},
			{
				"type": "unocc",
				"energy": 0.07669,
				"method": "rhf"
			}
		],
		"cosmo_sigma_profile": { 
			"-0.025": 0.0,
			"-0.024": 0.0,
			"-0.023": 0.0,
			"-0.022": 0.0,
			"-0.021": 0.0,
			"-0.02": 0.0,
			"-0.019": 0.0,
			"-0.018": 0.0,
			"-0.017": 0.0,
			"-0.016": 0.0,
			"-0.015": 0.0,
			"-0.014": 0.0,
			"-0.013": 0.0,
			"-0.012": 0.0,
			"-0.011": 0.0,
			"-0.01": 0.0,
			"-0.009": 0.0,
			"-0.008": 2.83207101241,
			"-0.007": 12.2905977588,
			"-0.006": 15.9437324884,
			"-0.005": 14.4877292027,
			"-0.004": 16.2800082073,
			"-0.003": 11.5430191695,
			"-0.002": 10.8367061324,
			"-0.001": 9.38407183561,
			"0.0": 10.1368643651,
			"0.001": 10.8074538166,
			"0.002": 13.7616542434,
			"0.003": 15.3473844018,
			"0.004": 14.4328392947,
			"0.005": 6.55622867328,
			"0.006": 3.8482123085,
			"0.007": 3.58075620462,
			"0.008": 3.7271957186,
			"0.009": 4.19396151517,
			"0.01": 3.08240063384,
			"0.011": 3.82723894011,
			"0.012": 2.98046025934,
			"0.013": 0.528327942754,
			"0.014": 0.0,
			"0.015": 0.0,
			"0.016": 0.0,
			"0.017": 0.0,
			"0.018": 0.0,
			"0.019": 0.0,
			"0.02": 0.0,
			"0.021": 0.0,
			"0.022": 0.0,
			"0.023": 0.0,
			"0.024": 0.0,
			"0.025": 0.0
		}
	}
}
