{
	 "smiles": "CC1=C(C)C=C(C=C1)C1=NNC(=O)C2=C1C=CC=C2", 
	 "Tm": 526.15, 
	 "num_atms": 33, 
	 "gaussian": { 
		 "optdone": 1, 
		 "sigma_profile": "yes", 
		 "theory": "DFT", 
		 "functional": "B3LYP", 
		 "basiset": "6-31G**", 
		 "properties": { 
			 "R2extent": 6504.4453, 
			 "electric_dipole_moment_norm": 4.1797628605, 
			 "electric_quadrupole_moment_norm": 15.4214120505, 
			 "total_energy": -802.885622467, 
			 "HOMO_LUMO_gap": 0.16581, 
			 "cosmo_polarized_energy": -12.76, 
			 "cosmo_cavitation_energy": 36.46, 
			 "cosmo_dispersion_energy": -26.49, 
			 "cosmo_repulsion_energy": 2.01, 
			 "cosmo_total_nonelectrostatic_energy": 11.98, 
			 "SMD_solvation_energy": 5.84 
		},
		"coords": [
			{
				"x": -2.824696038,
				"y": -3.1845469274,
				"z": 1.9350495307,
				"element": "C" 
			},
			{
				"x": -2.1337457405,
				"y": -2.0190292002,
				"z": 1.2697736499,
				"element": "C" 
			},
			{
				"x": -2.8630625013,
				"y": -1.0828989684,
				"z": 0.5033707054,
				"element": "C" 
			},
			{
				"x": -4.3565370483,
				"y": -1.2233593104,
				"z": 0.3274009924,
				"element": "C" 
			},
			{
				"x": -2.1864268853,
				"y": -0.0169219729,
				"z": -0.0928818123,
				"element": "C" 
			},
			{
				"x": -0.8018950952,
				"y": 0.1593923812,
				"z": 0.0467928307,
				"element": "C" 
			},
			{
				"x": -0.0861539711,
				"y": -0.7799720733,
				"z": 0.8002508653,
				"element": "C" 
			},
			{
				"x": -0.7515965337,
				"y": -1.8489855181,
				"z": 1.3988201193,
				"element": "C" 
			},
			{
				"x": -0.127426389,
				"y": 1.2893018132,
				"z": -0.6505916198,
				"element": "C" 
			},
			{
				"x": -0.4672147045,
				"y": 1.4518266679,
				"z": -1.9010872373,
				"element": "N" 
			},
			{
				"x": 0.1181596075,
				"y": 2.4521270268,
				"z": -2.5979979577,
				"element": "N" 
			},
			{
				"x": 1.106675733,
				"y": 3.3343330356,
				"z": -2.1865544338,
				"element": "C" 
			},
			{
				"x": 1.5866959423,
				"y": 4.1545752352,
				"z": -2.9625907646,
				"element": "O" 
			},
			{
				"x": 1.4595469568,
				"y": 3.1763511635,
				"z": -0.7671620459,
				"element": "C" 
			},
			{
				"x": 0.833979461,
				"y": 2.1720890189,
				"z": 0.0098499044,
				"element": "C" 
			},
			{
				"x": 1.1415829798,
				"y": 2.108461785,
				"z": 1.3856836736,
				"element": "C" 
			},
			{
				"x": 2.0614683442,
				"y": 2.9860471842,
				"z": 1.9422896874,
				"element": "C" 
			},
			{
				"x": 2.6986945691,
				"y": 3.9561688955,
				"z": 1.1518956109,
				"element": "C" 
			},
			{
				"x": 2.3915821231,
				"y": 4.0544683597,
				"z": -0.1967213868,
				"element": "C" 
			},
			{
				"x": -3.3360118516,
				"y": -3.8229243229,
				"z": 1.2042512315,
				"element": "H" 
			},
			{
				"x": -2.1111201578,
				"y": -3.8076508333,
				"z": 2.4804009726,
				"element": "H" 
			},
			{
				"x": -3.5888157965,
				"y": -2.8496238587,
				"z": 2.6472395779,
				"element": "H" 
			},
			{
				"x": -4.6193121601,
				"y": -2.1752133954,
				"z": -0.149928123,
				"element": "H" 
			},
			{
				"x": -4.7576547206,
				"y": -0.417877959,
				"z": -0.2928050827,
				"element": "H" 
			},
			{
				"x": -4.8821994861,
				"y": -1.1986689678,
				"z": 1.2898190876,
				"element": "H" 
			},
			{
				"x": -2.7417860404,
				"y": 0.7017629203,
				"z": -0.6880889865,
				"element": "H" 
			},
			{
				"x": 0.991727233,
				"y": -0.6954373886,
				"z": 0.8978027609,
				"element": "H" 
			},
			{
				"x": -0.1814020665,
				"y": -2.574898049,
				"z": 1.9732526171,
				"element": "H" 
			},
			{
				"x": -0.1678779474,
				"y": 2.5178619182,
				"z": -3.5669239377,
				"element": "H" 
			},
			{
				"x": 0.6454926562,
				"y": 1.3767014131,
				"z": 2.0117049381,
				"element": "H" 
			},
			{
				"x": 2.28470435,
				"y": 2.9233290175,
				"z": 3.0034823373,
				"element": "H" 
			},
			{
				"x": 3.4187434302,
				"y": 4.6344298962,
				"z": 1.5997748928,
				"element": "H" 
			},
			{
				"x": 2.8441817478,
				"y": 4.8036810135,
				"z": -0.8374725975,
				"element": "H" 
			}
		],
		 "valence_orbital": [ 
			{
				"type": "occ",
				"energy": -0.26464,
				"method": "rhf"
			},
			{
				"type": "occ",
				"energy": -0.25178,
				"method": "rhf"
			},
			{
				"type": "occ",
				"energy": -0.24812,
				"method": "rhf"
			},
			{
				"type": "occ",
				"energy": -0.24421,
				"method": "rhf"
			},
			{
				"type": "occ",
				"energy": -0.21868,
				"method": "rhf"
			},
			{
				"type": "unocc",
				"energy": -0.05287,
				"method": "rhf"
			},
			{
				"type": "unocc",
				"energy": -0.04219,
				"method": "rhf"
			},
			{
				"type": "unocc",
				"energy": -0.01186,
				"method": "rhf"
			},
			{
				"type": "unocc",
				"energy": -0.00046,
				"method": "rhf"
			},
			{
				"type": "unocc",
				"energy": 0.04189,
				"method": "rhf"
			}
		],
		"cosmo_sigma_profile": { 
			"-0.025": 0.0,
			"-0.024": 0.0,
			"-0.023": 0.0,
			"-0.022": 0.0,
			"-0.021": 0.0,
			"-0.02": 0.0,
			"-0.019": 0.0,
			"-0.018": 0.0,
			"-0.017": 0.0,
			"-0.016": 0.404952645927,
			"-0.015": 1.08213135995,
			"-0.014": 0.999176652476,
			"-0.013": 1.13596473565,
			"-0.012": 0.423310178635,
			"-0.011": 0.618458357133,
			"-0.01": 1.0825073289,
			"-0.009": 0.504975455761,
			"-0.008": 0.454658521903,
			"-0.007": 4.30855593911,
			"-0.006": 8.98317719869,
			"-0.005": 16.5881402492,
			"-0.004": 28.193702101,
			"-0.003": 26.1637497312,
			"-0.002": 24.4305200032,
			"-0.001": 27.4318387085,
			"0.0": 32.2456470258,
			"0.001": 25.5578787065,
			"0.002": 20.8619052489,
			"0.003": 18.6652462914,
			"0.004": 9.44013654737,
			"0.005": 11.269136921,
			"0.006": 5.78019260995,
			"0.007": 2.53188212302,
			"0.008": 3.75405032042,
			"0.009": 1.61920996892,
			"0.01": 2.41903533133,
			"0.011": 2.19593933858,
			"0.012": 2.813985992,
			"0.013": 6.40416891321,
			"0.014": 2.52298238287,
			"0.015": 0.00856422043323,
			"0.016": 0.0,
			"0.017": 0.0,
			"0.018": 0.0,
			"0.019": 0.0,
			"0.02": 0.0,
			"0.021": 0.0,
			"0.022": 0.0,
			"0.023": 0.0,
			"0.024": 0.0,
			"0.025": 0.0
		}
	}
}
