{
	 "smiles": "OC(=O)C1=CN(N=N1)C1=C(Cl)C=C(Br)C=C1", 
	 "Tm": 418.15, 
	 "num_atms": 21, 
	 "gaussian": { 
		 "optdone": 1, 
		 "sigma_profile": "yes", 
		 "theory": "DFT", 
		 "functional": "B3LYP", 
		 "basiset": "6-31G**", 
		 "properties": { 
			 "R2extent": 11341.8703, 
			 "electric_dipole_moment_norm": 4.68892569785, 
			 "electric_quadrupole_moment_norm": 12.811080079, 
			 "total_energy": -3692.22187986, 
			 "HOMO_LUMO_gap": 0.18487, 
			 "cosmo_polarized_energy": -16.69, 
			 "cosmo_cavitation_energy": 31.13, 
			 "cosmo_dispersion_energy": -23.67, 
			 "cosmo_repulsion_energy": 1.83, 
			 "cosmo_total_nonelectrostatic_energy": 9.29, 
			 "SMD_solvation_energy": 4.36 
		},
		"coords": [
			{
				"x": -2.5542704424,
				"y": -2.0676371289,
				"z": 2.7289891819,
				"element": "O" 
			},
			{
				"x": -1.803616195,
				"y": -2.2496557838,
				"z": 1.6247879104,
				"element": "C" 
			},
			{
				"x": -2.1149595072,
				"y": -3.0116671343,
				"z": 0.7391529058,
				"element": "O" 
			},
			{
				"x": -0.5658125258,
				"y": -1.4348998317,
				"z": 1.5975495376,
				"element": "C" 
			},
			{
				"x": 0.4147917752,
				"y": -1.3723612166,
				"z": 0.6401451146,
				"element": "C" 
			},
			{
				"x": 1.3122594506,
				"y": -0.4661024672,
				"z": 1.1266934407,
				"element": "N" 
			},
			{
				"x": 0.8836584192,
				"y": 0.0036278896,
				"z": 2.3429887186,
				"element": "N" 
			},
			{
				"x": -0.2369004309,
				"y": -0.5820972885,
				"z": 2.6117826937,
				"element": "N" 
			},
			{
				"x": 2.5281136536,
				"y": -0.0300255969,
				"z": 0.5151161584,
				"element": "C" 
			},
			{
				"x": 3.41814449,
				"y": 0.9149745169,
				"z": 1.0704191342,
				"element": "C" 
			},
			{
				"x": 3.2027443735,
				"y": 1.7238659084,
				"z": 2.5992514903,
				"element": "Cl" 
			},
			{
				"x": 4.5828325245,
				"y": 1.2648777012,
				"z": 0.3756242002,
				"element": "C" 
			},
			{
				"x": 4.87651926,
				"y": 0.6946471694,
				"z": -0.8550811287,
				"element": "C" 
			},
			{
				"x": 6.4672671944,
				"y": 1.1946462185,
				"z": -1.7688348717,
				"element": "Br" 
			},
			{
				"x": 4.0116868364,
				"y": -0.2393506349,
				"z": -1.419798521,
				"element": "C" 
			},
			{
				"x": 2.8578281071,
				"y": -0.5867539505,
				"z": -0.7326650251,
				"element": "C" 
			},
			{
				"x": -2.1138673049,
				"y": -1.4142765005,
				"z": 3.3025752359,
				"element": "H" 
			},
			{
				"x": 0.5018970706,
				"y": -1.8961051098,
				"z": -0.2946100244,
				"element": "H" 
			},
			{
				"x": 5.2519246309,
				"y": 1.9913251785,
				"z": 0.8186987436,
				"element": "H" 
			},
			{
				"x": 4.2315745842,
				"y": -0.6903331063,
				"z": -2.3797368274,
				"element": "H" 
			},
			{
				"x": 2.1998840358,
				"y": -1.3141988325,
				"z": -1.1892480676,
				"element": "H" 
			}
		],
		 "valence_orbital": [ 
			{
				"type": "occ",
				"energy": -0.29873,
				"method": "rhf"
			},
			{
				"type": "occ",
				"energy": -0.29433,
				"method": "rhf"
			},
			{
				"type": "occ",
				"energy": -0.2842,
				"method": "rhf"
			},
			{
				"type": "occ",
				"energy": -0.27954,
				"method": "rhf"
			},
			{
				"type": "occ",
				"energy": -0.26289,
				"method": "rhf"
			},
			{
				"type": "unocc",
				"energy": -0.07802,
				"method": "rhf"
			},
			{
				"type": "unocc",
				"energy": -0.05323,
				"method": "rhf"
			},
			{
				"type": "unocc",
				"energy": -0.03702,
				"method": "rhf"
			},
			{
				"type": "unocc",
				"energy": -0.02579,
				"method": "rhf"
			},
			{
				"type": "unocc",
				"energy": -0.00976,
				"method": "rhf"
			}
		],
		"cosmo_sigma_profile": { 
			"-0.025": 0.0,
			"-0.024": 0.0,
			"-0.023": 0.0,
			"-0.022": 0.0,
			"-0.021": 0.0,
			"-0.02": 0.0,
			"-0.019": 0.0,
			"-0.018": 0.0,
			"-0.017": 0.0,
			"-0.016": 0.0874686000264,
			"-0.015": 0.93868342096,
			"-0.014": 2.06192025824,
			"-0.013": 1.86862819715,
			"-0.012": 3.10271456019,
			"-0.011": 2.1374336681,
			"-0.01": 2.14629446129,
			"-0.009": 4.5508890489,
			"-0.008": 6.78374877338,
			"-0.007": 6.22697291914,
			"-0.006": 7.56840616754,
			"-0.005": 10.4990301038,
			"-0.004": 15.4801096791,
			"-0.003": 16.3009223712,
			"-0.002": 19.3878222277,
			"-0.001": 20.8177853013,
			"0.0": 25.380279491,
			"0.001": 17.9734894204,
			"0.002": 14.5073786453,
			"0.003": 19.0982107976,
			"0.004": 14.6737698709,
			"0.005": 5.36973965997,
			"0.006": 3.37508860476,
			"0.007": 6.33897234585,
			"0.008": 6.88152955564,
			"0.009": 8.7626456677,
			"0.01": 5.66139533696,
			"0.011": 5.41225594762,
			"0.012": 3.43825769944,
			"0.013": 0.733241864688,
			"0.014": 0.0,
			"0.015": 0.0,
			"0.016": 0.0,
			"0.017": 0.0,
			"0.018": 0.0,
			"0.019": 0.0,
			"0.02": 0.0,
			"0.021": 0.0,
			"0.022": 0.0,
			"0.023": 0.0,
			"0.024": 0.0,
			"0.025": 0.0
		}
	}
}
