{
	 "smiles": "N#CC1=CC(=NC=C1)N1CCCC1", 
	 "Tm": 352.65, 
	 "num_atms": 24, 
	 "gaussian": { 
		 "optdone": 1, 
		 "sigma_profile": "yes", 
		 "theory": "DFT", 
		 "functional": "B3LYP", 
		 "basiset": "6-31G**", 
		 "properties": { 
			 "R2extent": 3496.6791, 
			 "electric_dipole_moment_norm": 4.89450748799, 
			 "electric_quadrupole_moment_norm": 28.9753974892, 
			 "total_energy": -551.935345713, 
			 "HOMO_LUMO_gap": 0.1555, 
			 "cosmo_polarized_energy": -9.67, 
			 "cosmo_cavitation_energy": 27.77, 
			 "cosmo_dispersion_energy": -20.17, 
			 "cosmo_repulsion_energy": 1.6, 
			 "cosmo_total_nonelectrostatic_energy": 9.2, 
			 "SMD_solvation_energy": 4.0 
		},
		"coords": [
			{
				"x": -5.5438146597,
				"y": -1.4228862475,
				"z": 0.8239619561,
				"element": "N" 
			},
			{
				"x": -4.4233590105,
				"y": -1.1310804716,
				"z": 0.9312482656,
				"element": "C" 
			},
			{
				"x": -3.0386083707,
				"y": -0.7720343481,
				"z": 1.0659611278,
				"element": "C" 
			},
			{
				"x": -2.4068118275,
				"y": -0.0691427728,
				"z": 0.0423068373,
				"element": "C" 
			},
			{
				"x": -1.0394395114,
				"y": 0.2686326715,
				"z": 0.2069025444,
				"element": "C" 
			},
			{
				"x": -0.3518503449,
				"y": -0.0635715668,
				"z": 1.3218094501,
				"element": "N" 
			},
			{
				"x": -0.990748912,
				"y": -0.7326900558,
				"z": 2.2844110194,
				"element": "C" 
			},
			{
				"x": -2.3246889221,
				"y": -1.1229830506,
				"z": 2.2259027012,
				"element": "C" 
			},
			{
				"x": -0.3525762959,
				"y": 0.9498759874,
				"z": -0.7531025995,
				"element": "N" 
			},
			{
				"x": 1.0424522695,
				"y": 1.3721956129,
				"z": -0.5786577698,
				"element": "C" 
			},
			{
				"x": 1.2514585621,
				"y": 2.3665458264,
				"z": -1.7295439573,
				"element": "C" 
			},
			{
				"x": 0.3136855955,
				"y": 1.8414926317,
				"z": -2.8295729342,
				"element": "C" 
			},
			{
				"x": -0.9121422472,
				"y": 1.3453921688,
				"z": -2.0451776555,
				"element": "C" 
			},
			{
				"x": -2.9584927457,
				"y": 0.2125387618,
				"z": -0.8450837214,
				"element": "H" 
			},
			{
				"x": -0.3946663499,
				"y": -0.975861544,
				"z": 3.1626526675,
				"element": "H" 
			},
			{
				"x": -2.7947589514,
				"y": -1.6693807873,
				"z": 3.03398635,
				"element": "H" 
			},
			{
				"x": 1.7203473634,
				"y": 0.510539946,
				"z": -0.6534116996,
				"element": "H" 
			},
			{
				"x": 1.1891097859,
				"y": 1.8108107249,
				"z": 0.4114674185,
				"element": "H" 
			},
			{
				"x": 0.9412870783,
				"y": 3.3703414291,
				"z": -1.4175545707,
				"element": "H" 
			},
			{
				"x": 2.2959819941,
				"y": 2.4231918524,
				"z": -2.0467756912,
				"element": "H" 
			},
			{
				"x": 0.7821378129,
				"y": 1.0013602841,
				"z": -3.354171966,
				"element": "H" 
			},
			{
				"x": 0.0510042388,
				"y": 2.5963504781,
				"z": -3.5751556796,
				"element": "H" 
			},
			{
				"x": -1.662207557,
				"y": 2.142339822,
				"z": -1.9243941017,
				"element": "H" 
			},
			{
				"x": -1.4059989945,
				"y": 0.5004226476,
				"z": -2.5405079916,
				"element": "H" 
			}
		],
		 "valence_orbital": [ 
			{
				"type": "occ",
				"energy": -0.33109,
				"method": "rhf"
			},
			{
				"type": "occ",
				"energy": -0.30061,
				"method": "rhf"
			},
			{
				"type": "occ",
				"energy": -0.28174,
				"method": "rhf"
			},
			{
				"type": "occ",
				"energy": -0.26578,
				"method": "rhf"
			},
			{
				"type": "occ",
				"energy": -0.21075,
				"method": "rhf"
			},
			{
				"type": "unocc",
				"energy": -0.05525,
				"method": "rhf"
			},
			{
				"type": "unocc",
				"energy": -0.00481,
				"method": "rhf"
			},
			{
				"type": "unocc",
				"energy": 0.03749,
				"method": "rhf"
			},
			{
				"type": "unocc",
				"energy": 0.07281,
				"method": "rhf"
			},
			{
				"type": "unocc",
				"energy": 0.08011,
				"method": "rhf"
			}
		],
		"cosmo_sigma_profile": { 
			"-0.025": 0.0,
			"-0.024": 0.0,
			"-0.023": 0.0,
			"-0.022": 0.0,
			"-0.021": 0.0,
			"-0.02": 0.0,
			"-0.019": 0.0,
			"-0.018": 0.0,
			"-0.017": 0.0,
			"-0.016": 0.0,
			"-0.015": 0.0,
			"-0.014": 0.0,
			"-0.013": 0.0,
			"-0.012": 0.0,
			"-0.011": 0.0,
			"-0.01": 0.0,
			"-0.009": 0.0,
			"-0.008": 1.63538699367,
			"-0.007": 5.43469554632,
			"-0.006": 7.8217048984,
			"-0.005": 8.98082788504,
			"-0.004": 19.1714934517,
			"-0.003": 29.4413332575,
			"-0.002": 29.2819472141,
			"-0.001": 22.9208489872,
			"0.0": 18.032580516,
			"0.001": 16.9734926371,
			"0.002": 13.9997123944,
			"0.003": 7.64879951485,
			"0.004": 3.9053637097,
			"0.005": 5.46267977312,
			"0.006": 3.91892423834,
			"0.007": 4.06885771243,
			"0.008": 5.49899759983,
			"0.009": 4.24694039576,
			"0.01": 4.21111719817,
			"0.011": 3.28706234221,
			"0.012": 3.35590276362,
			"0.013": 1.48121708061,
			"0.014": 0.410800020986,
			"0.015": 0.0,
			"0.016": 0.0,
			"0.017": 0.0,
			"0.018": 0.0,
			"0.019": 0.0,
			"0.02": 0.0,
			"0.021": 0.0,
			"0.022": 0.0,
			"0.023": 0.0,
			"0.024": 0.0,
			"0.025": 0.0
		}
	}
}
