{
	 "smiles": "CC(=O)NC1=C(F)C=CC(N)=C1", 
	 "Tm": 408.15, 
	 "num_atms": 21, 
	 "gaussian": { 
		 "optdone": 1, 
		 "sigma_profile": "yes", 
		 "theory": "DFT", 
		 "functional": "B3LYP", 
		 "basiset": "6-31G**", 
		 "properties": { 
			 "R2extent": 2484.2641, 
			 "electric_dipole_moment_norm": 1.50453190063, 
			 "electric_quadrupole_moment_norm": 17.8799880473, 
			 "total_energy": -594.860799924, 
			 "HOMO_LUMO_gap": 0.18338, 
			 "cosmo_polarized_energy": -13.72, 
			 "cosmo_cavitation_energy": 25.5, 
			 "cosmo_dispersion_energy": -18.85, 
			 "cosmo_repulsion_energy": 1.49, 
			 "cosmo_total_nonelectrostatic_energy": 8.15, 
			 "SMD_solvation_energy": 5.56 
		},
		"coords": [
			{
				"x": -0.1567759749,
				"y": 3.1173831046,
				"z": -1.082348484,
				"element": "C" 
			},
			{
				"x": -0.0355669667,
				"y": 1.6010622476,
				"z": -1.0326141457,
				"element": "C" 
			},
			{
				"x": -0.2118833723,
				"y": 0.9108694461,
				"z": -2.0272387097,
				"element": "O" 
			},
			{
				"x": 0.2795480744,
				"y": 1.0967530567,
				"z": 0.2090054403,
				"element": "N" 
			},
			{
				"x": 0.4557170689,
				"y": -0.2451432424,
				"z": 0.5872371535,
				"element": "C" 
			},
			{
				"x": 0.800897375,
				"y": -0.4775966876,
				"z": 1.9262487847,
				"element": "C" 
			},
			{
				"x": 0.9350481986,
				"y": 0.6086558921,
				"z": 2.7441548331,
				"element": "F" 
			},
			{
				"x": 1.005592743,
				"y": -1.7516711863,
				"z": 2.4185847009,
				"element": "C" 
			},
			{
				"x": 0.8647754,
				"y": -2.8453455145,
				"z": 1.564019406,
				"element": "C" 
			},
			{
				"x": 0.5177911514,
				"y": -2.6474445818,
				"z": 0.2174745618,
				"element": "C" 
			},
			{
				"x": 0.3148871788,
				"y": -3.7395905477,
				"z": -0.6313745635,
				"element": "N" 
			},
			{
				"x": 0.3156427027,
				"y": -1.3429852882,
				"z": -0.2666497485,
				"element": "C" 
			},
			{
				"x": -1.1731393835,
				"y": 3.3765558845,
				"z": -1.3920964191,
				"element": "H" 
			},
			{
				"x": 0.0623570973,
				"y": 3.6156668971,
				"z": -0.1341615657,
				"element": "H" 
			},
			{
				"x": 0.5232970514,
				"y": 3.4964380323,
				"z": -1.8497305601,
				"element": "H" 
			},
			{
				"x": 0.4114145904,
				"y": 1.7549331886,
				"z": 0.9631175241,
				"element": "H" 
			},
			{
				"x": 1.2736808121,
				"y": -1.8797363832,
				"z": 3.4618154422,
				"element": "H" 
			},
			{
				"x": 1.0167581091,
				"y": -3.8514284603,
				"z": 1.9439489886,
				"element": "H" 
			},
			{
				"x": 0.8226638319,
				"y": -4.5763031295,
				"z": -0.379217613,
				"element": "H" 
			},
			{
				"x": 0.4009898176,
				"y": -3.5319789676,
				"z": -1.6168913844,
				"element": "H" 
			},
			{
				"x": 0.0473044945,
				"y": -1.1659937606,
				"z": -1.2993836415,
				"element": "H" 
			}
		],
		 "valence_orbital": [ 
			{
				"type": "occ",
				"energy": -0.32064,
				"method": "rhf"
			},
			{
				"type": "occ",
				"energy": -0.28652,
				"method": "rhf"
			},
			{
				"type": "occ",
				"energy": -0.25228,
				"method": "rhf"
			},
			{
				"type": "occ",
				"energy": -0.22806,
				"method": "rhf"
			},
			{
				"type": "occ",
				"energy": -0.19633,
				"method": "rhf"
			},
			{
				"type": "unocc",
				"energy": -0.01295,
				"method": "rhf"
			},
			{
				"type": "unocc",
				"energy": 0.01716,
				"method": "rhf"
			},
			{
				"type": "unocc",
				"energy": 0.04887,
				"method": "rhf"
			},
			{
				"type": "unocc",
				"energy": 0.07606,
				"method": "rhf"
			},
			{
				"type": "unocc",
				"energy": 0.08335,
				"method": "rhf"
			}
		],
		"cosmo_sigma_profile": { 
			"-0.025": 0.0,
			"-0.024": 0.0,
			"-0.023": 0.0,
			"-0.022": 0.0,
			"-0.021": 0.0,
			"-0.02": 0.0,
			"-0.019": 0.0,
			"-0.018": 0.0,
			"-0.017": 0.0,
			"-0.016": 0.0,
			"-0.015": 0.0,
			"-0.014": 0.243148822762,
			"-0.013": 1.23741715042,
			"-0.012": 3.72655285311,
			"-0.011": 3.66312219702,
			"-0.01": 4.17278728102,
			"-0.009": 4.29072283118,
			"-0.008": 3.6932186676,
			"-0.007": 6.01608859012,
			"-0.006": 10.147400002,
			"-0.005": 10.6652881097,
			"-0.004": 12.2534781256,
			"-0.003": 13.444722455,
			"-0.002": 13.0513847171,
			"-0.001": 11.4285092284,
			"0.0": 8.91938178685,
			"0.001": 10.1638338923,
			"0.002": 12.0577732951,
			"0.003": 13.8421388622,
			"0.004": 17.4338562079,
			"0.005": 14.5026317514,
			"0.006": 5.015624454,
			"0.007": 3.97831500845,
			"0.008": 2.38017163041,
			"0.009": 1.33504503968,
			"0.01": 2.41718051437,
			"0.011": 2.96992830938,
			"0.012": 2.85980805369,
			"0.013": 3.83540830761,
			"0.014": 2.60956698954,
			"0.015": 0.543410230114,
			"0.016": 0.0,
			"0.017": 0.0,
			"0.018": 0.0,
			"0.019": 0.0,
			"0.02": 0.0,
			"0.021": 0.0,
			"0.022": 0.0,
			"0.023": 0.0,
			"0.024": 0.0,
			"0.025": 0.0
		}
	}
}
