{
	 "smiles": "ClC1=NC=CC(SCC2=CC=CC=C2)=C1", 
	 "Tm": 335.15, 
	 "num_atms": 25, 
	 "gaussian": { 
		 "optdone": 1, 
		 "sigma_profile": "yes", 
		 "theory": "DFT", 
		 "functional": "B3LYP", 
		 "basiset": "6-31G**", 
		 "properties": { 
			 "R2extent": 5234.3493, 
			 "electric_dipole_moment_norm": 3.67333448654, 
			 "electric_quadrupole_moment_norm": 11.1554804715, 
			 "total_energy": -1376.43253193, 
			 "HOMO_LUMO_gap": 0.20533, 
			 "cosmo_polarized_energy": -9.91, 
			 "cosmo_cavitation_energy": 32.44, 
			 "cosmo_dispersion_energy": -23.42, 
			 "cosmo_repulsion_energy": 1.8, 
			 "cosmo_total_nonelectrostatic_energy": 10.82, 
			 "SMD_solvation_energy": 3.33 
		},
		"coords": [
			{
				"x": 0.7119481533,
				"y": 2.6695965761,
				"z": 0.0695954054,
				"element": "Cl" 
			},
			{
				"x": 1.0679296078,
				"y": 1.6777228555,
				"z": -1.3478186901,
				"element": "C" 
			},
			{
				"x": 1.6628594178,
				"y": 2.2837041833,
				"z": -2.3557480749,
				"element": "N" 
			},
			{
				"x": 1.9323802095,
				"y": 1.5213048406,
				"z": -3.4295953352,
				"element": "C" 
			},
			{
				"x": 1.616251867,
				"y": 0.173727248,
				"z": -3.522256475,
				"element": "C" 
			},
			{
				"x": 0.9777652936,
				"y": -0.4472471247,
				"z": -2.4326984621,
				"element": "C" 
			},
			{
				"x": 0.5817922265,
				"y": -2.1663098381,
				"z": -2.60972367,
				"element": "S" 
			},
			{
				"x": -0.3837206377,
				"y": -2.5928975315,
				"z": -1.1019849358,
				"element": "C" 
			},
			{
				"x": 0.3792759247,
				"y": -2.7257776713,
				"z": 0.2005135399,
				"element": "C" 
			},
			{
				"x": -0.159573373,
				"y": -2.1812137354,
				"z": 1.373330989,
				"element": "C" 
			},
			{
				"x": 0.492564201,
				"y": -2.3368270287,
				"z": 2.5984615999,
				"element": "C" 
			},
			{
				"x": 1.6943904076,
				"y": -3.041029326,
				"z": 2.6646018711,
				"element": "C" 
			},
			{
				"x": 2.2389388058,
				"y": -3.5880529922,
				"z": 1.4998530615,
				"element": "C" 
			},
			{
				"x": 1.5871198895,
				"y": -3.4317643068,
				"z": 0.2775708782,
				"element": "C" 
			},
			{
				"x": 0.6993365021,
				"y": 0.3301310157,
				"z": -1.3046813871,
				"element": "C" 
			},
			{
				"x": 2.4245122022,
				"y": 2.0261421558,
				"z": -4.25790242,
				"element": "H" 
			},
			{
				"x": 1.8536723861,
				"y": -0.3836874578,
				"z": -4.4224560338,
				"element": "H" 
			},
			{
				"x": -1.2096399069,
				"y": -1.8827738621,
				"z": -1.0042224991,
				"element": "H" 
			},
			{
				"x": -0.8276072416,
				"y": -3.5537062257,
				"z": -1.3866616978,
				"element": "H" 
			},
			{
				"x": -1.0985451532,
				"y": -1.6337911024,
				"z": 1.3299934638,
				"element": "H" 
			},
			{
				"x": 0.062208834,
				"y": -1.903441717,
				"z": 3.4965350028,
				"element": "H" 
			},
			{
				"x": 2.2062834953,
				"y": -3.160340124,
				"z": 3.6149226583,
				"element": "H" 
			},
			{
				"x": 3.1758186641,
				"y": -4.1360446242,
				"z": 1.5430653317,
				"element": "H" 
			},
			{
				"x": 2.0221140245,
				"y": -3.8489637486,
				"z": -0.6260626211,
				"element": "H" 
			},
			{
				"x": 0.2390242001,
				"y": -0.0765604588,
				"z": -0.4157314998,
				"element": "H" 
			}
		],
		 "valence_orbital": [ 
			{
				"type": "occ",
				"energy": -0.27361,
				"method": "rhf"
			},
			{
				"type": "occ",
				"energy": -0.26049,
				"method": "rhf"
			},
			{
				"type": "occ",
				"energy": -0.25956,
				"method": "rhf"
			},
			{
				"type": "occ",
				"energy": -0.2544,
				"method": "rhf"
			},
			{
				"type": "occ",
				"energy": -0.23755,
				"method": "rhf"
			},
			{
				"type": "unocc",
				"energy": -0.03222,
				"method": "rhf"
			},
			{
				"type": "unocc",
				"energy": -0.02388,
				"method": "rhf"
			},
			{
				"type": "unocc",
				"energy": -0.01888,
				"method": "rhf"
			},
			{
				"type": "unocc",
				"energy": -0.01249,
				"method": "rhf"
			},
			{
				"type": "unocc",
				"energy": 0.01906,
				"method": "rhf"
			}
		],
		"cosmo_sigma_profile": { 
			"-0.025": 0.0,
			"-0.024": 0.0,
			"-0.023": 0.0,
			"-0.022": 0.0,
			"-0.021": 0.0,
			"-0.02": 0.0,
			"-0.019": 0.0,
			"-0.018": 0.0,
			"-0.017": 0.0,
			"-0.016": 0.0,
			"-0.015": 0.0,
			"-0.014": 0.0,
			"-0.013": 0.0,
			"-0.012": 0.0,
			"-0.011": 0.0,
			"-0.01": 0.0,
			"-0.009": 0.465672667108,
			"-0.008": 5.21031027912,
			"-0.007": 10.8028884153,
			"-0.006": 14.9274523376,
			"-0.005": 17.5452137473,
			"-0.004": 19.9392574135,
			"-0.003": 16.9334136322,
			"-0.002": 13.2708980322,
			"-0.001": 15.9680291705,
			"0.0": 22.7577694915,
			"0.001": 25.474323676,
			"0.002": 22.005038407,
			"0.003": 20.0610514321,
			"0.004": 20.6794870112,
			"0.005": 19.0053006105,
			"0.006": 8.11305167919,
			"0.007": 3.5465957601,
			"0.008": 1.25431017137,
			"0.009": 1.42471832812,
			"0.01": 1.15303054907,
			"0.011": 1.12800134919,
			"0.012": 0.940355460159,
			"0.013": 0.633497165614,
			"0.014": 1.14994663904,
			"0.015": 0.292356127938,
			"0.016": 0.0,
			"0.017": 0.0,
			"0.018": 0.0,
			"0.019": 0.0,
			"0.02": 0.0,
			"0.021": 0.0,
			"0.022": 0.0,
			"0.023": 0.0,
			"0.024": 0.0,
			"0.025": 0.0
		}
	}
}
