{
	 "smiles": "CCC1=NC=CN1", 
	 "Tm": 358.15, 
	 "num_atms": 15, 
	 "gaussian": { 
		 "optdone": 1, 
		 "sigma_profile": "yes", 
		 "theory": "DFT", 
		 "functional": "B3LYP", 
		 "basiset": "6-31G**", 
		 "properties": { 
			 "R2extent": 1323.2367, 
			 "electric_dipole_moment_norm": 3.4897442614, 
			 "electric_quadrupole_moment_norm": 8.98344389363, 
			 "total_energy": -304.858065284, 
			 "HOMO_LUMO_gap": 0.24859, 
			 "cosmo_polarized_energy": -11.64, 
			 "cosmo_cavitation_energy": 18.38, 
			 "cosmo_dispersion_energy": -13.67, 
			 "cosmo_repulsion_energy": 1.17, 
			 "cosmo_total_nonelectrostatic_energy": 5.88, 
			 "SMD_solvation_energy": 1.88 
		},
		"coords": [
			{
				"x": 0.9693367475,
				"y": -1.0690442531,
				"z": 2.6649260364,
				"element": "C" 
			},
			{
				"x": -0.1711595719,
				"y": -0.0343123483,
				"z": 2.6693484455,
				"element": "C" 
			},
			{
				"x": -0.0672913314,
				"y": 0.9762921452,
				"z": 1.5675063767,
				"element": "C" 
			},
			{
				"x": -0.7437942162,
				"y": 0.9591344959,
				"z": 0.4347626909,
				"element": "N" 
			},
			{
				"x": -0.3005273144,
				"y": 2.0478766329,
				"z": -0.2847581474,
				"element": "C" 
			},
			{
				"x": 0.6565803724,
				"y": 2.7362032006,
				"z": 0.4152455217,
				"element": "C" 
			},
			{
				"x": 0.7993381909,
				"y": 2.0403006553,
				"z": 1.6005916515,
				"element": "N" 
			},
			{
				"x": 0.8373305006,
				"y": -1.7961920262,
				"z": 3.4725716514,
				"element": "H" 
			},
			{
				"x": 1.9459287888,
				"y": -0.591506156,
				"z": 2.800594846,
				"element": "H" 
			},
			{
				"x": 0.9921852035,
				"y": -1.6113872501,
				"z": 1.7153358978,
				"element": "H" 
			},
			{
				"x": -0.2041669687,
				"y": 0.474291526,
				"z": 3.6421270846,
				"element": "H" 
			},
			{
				"x": -1.1313568493,
				"y": -0.541435002,
				"z": 2.5425937111,
				"element": "H" 
			},
			{
				"x": -0.69914891,
				"y": 2.2762238494,
				"z": -1.2636254035,
				"element": "H" 
			},
			{
				"x": 1.226361278,
				"y": 3.6264276596,
				"z": 0.1978318809,
				"element": "H" 
			},
			{
				"x": 1.4221840802,
				"y": 2.2790268708,
				"z": 2.3569477564,
				"element": "H" 
			}
		],
		 "valence_orbital": [ 
			{
				"type": "occ",
				"energy": -0.35625,
				"method": "rhf"
			},
			{
				"type": "occ",
				"energy": -0.34845,
				"method": "rhf"
			},
			{
				"type": "occ",
				"energy": -0.27075,
				"method": "rhf"
			},
			{
				"type": "occ",
				"energy": -0.256,
				"method": "rhf"
			},
			{
				"type": "occ",
				"energy": -0.21439,
				"method": "rhf"
			},
			{
				"type": "unocc",
				"energy": 0.0342,
				"method": "rhf"
			},
			{
				"type": "unocc",
				"energy": 0.06903,
				"method": "rhf"
			},
			{
				"type": "unocc",
				"energy": 0.07892,
				"method": "rhf"
			},
			{
				"type": "unocc",
				"energy": 0.12136,
				"method": "rhf"
			},
			{
				"type": "unocc",
				"energy": 0.14574,
				"method": "rhf"
			}
		],
		"cosmo_sigma_profile": { 
			"-0.025": 0.0,
			"-0.024": 0.0,
			"-0.023": 0.0,
			"-0.022": 0.0,
			"-0.021": 0.0,
			"-0.02": 0.0,
			"-0.019": 0.0,
			"-0.018": 0.0,
			"-0.017": 0.0,
			"-0.016": 0.722282433475,
			"-0.015": 1.68941588054,
			"-0.014": 0.744358091237,
			"-0.013": 1.46053187066,
			"-0.012": 0.897242415048,
			"-0.011": 1.71641447685,
			"-0.01": 1.19954161054,
			"-0.009": 1.37106675217,
			"-0.008": 2.67020174715,
			"-0.007": 4.08040452556,
			"-0.006": 3.7284210247,
			"-0.005": 5.32335480977,
			"-0.004": 8.81390459077,
			"-0.003": 12.0184492818,
			"-0.002": 13.1372631143,
			"-0.001": 16.0200982796,
			"0.0": 12.4665359188,
			"0.001": 11.535398216,
			"0.002": 5.91030823974,
			"0.003": 4.18896215258,
			"0.004": 5.87737456485,
			"0.005": 5.63329487768,
			"0.006": 5.39942755343,
			"0.007": 3.25313743802,
			"0.008": 2.53260707851,
			"0.009": 1.65305893489,
			"0.01": 1.57082584173,
			"0.011": 1.25614956754,
			"0.012": 1.25495352111,
			"0.013": 1.05827696023,
			"0.014": 1.08305088545,
			"0.015": 1.14713034252,
			"0.016": 1.1494052873,
			"0.017": 0.830286156926,
			"0.018": 0.993008013156,
			"0.019": 0.686522392312,
			"0.02": 0.0,
			"0.021": 0.0,
			"0.022": 0.0,
			"0.023": 0.0,
			"0.024": 0.0,
			"0.025": 0.0
		}
	}
}
