{
	 "smiles": "ClC1=CC=C(NC(=S)C(=O)C2=CC=CC=C2)C=C1", 
	 "Tm": 495.15, 
	 "num_atms": 28, 
	 "gaussian": { 
		 "optdone": 1, 
		 "sigma_profile": "yes", 
		 "theory": "DFT", 
		 "functional": "B3LYP", 
		 "basiset": "6-31G**", 
		 "properties": { 
			 "R2extent": 6669.6369, 
			 "electric_dipole_moment_norm": 3.96516764084, 
			 "electric_quadrupole_moment_norm": 21.8145184347, 
			 "total_energy": -1527.86709675, 
			 "HOMO_LUMO_gap": 0.14978, 
			 "cosmo_polarized_energy": -15.44, 
			 "cosmo_cavitation_energy": 36.93, 
			 "cosmo_dispersion_energy": -25.98, 
			 "cosmo_repulsion_energy": 2.0, 
			 "cosmo_total_nonelectrostatic_energy": 12.95, 
			 "SMD_solvation_energy": 5.2 
		},
		"coords": [
			{
				"x": 0.7112146745,
				"y": -2.0294196711,
				"z": 4.7956559783,
				"element": "Cl" 
			},
			{
				"x": -0.0968175094,
				"y": -1.2392804135,
				"z": 3.4534691928,
				"element": "C" 
			},
			{
				"x": -0.8905007593,
				"y": -0.1171894816,
				"z": 3.694050998,
				"element": "C" 
			},
			{
				"x": -1.5218085631,
				"y": 0.5101270842,
				"z": 2.6240573758,
				"element": "C" 
			},
			{
				"x": -1.3705499406,
				"y": 0.0169128575,
				"z": 1.3207997807,
				"element": "C" 
			},
			{
				"x": -2.0825013762,
				"y": 0.6763771417,
				"z": 0.2784671867,
				"element": "N" 
			},
			{
				"x": -1.7127066196,
				"y": 0.9999287071,
				"z": -0.9797393311,
				"element": "C" 
			},
			{
				"x": -2.7227721534,
				"y": 1.7611793527,
				"z": -2.0560272453,
				"element": "S" 
			},
			{
				"x": -0.3141766938,
				"y": 0.6373674564,
				"z": -1.4687279311,
				"element": "C" 
			},
			{
				"x": -0.117583182,
				"y": -0.4914511047,
				"z": -1.897755939,
				"element": "O" 
			},
			{
				"x": 0.743302412,
				"y": 1.6828589654,
				"z": -1.4414475994,
				"element": "C" 
			},
			{
				"x": 0.5293415802,
				"y": 2.9637514295,
				"z": -0.9093935037,
				"element": "C" 
			},
			{
				"x": 1.5723994626,
				"y": 3.8871064345,
				"z": -0.8724174486,
				"element": "C" 
			},
			{
				"x": 2.8315929494,
				"y": 3.5400546049,
				"z": -1.367381219,
				"element": "C" 
			},
			{
				"x": 3.0505352218,
				"y": 2.2652705913,
				"z": -1.8997225655,
				"element": "C" 
			},
			{
				"x": 2.0131526345,
				"y": 1.3396773404,
				"z": -1.9345883985,
				"element": "C" 
			},
			{
				"x": -0.593830452,
				"y": -1.1262483981,
				"z": 1.0950287395,
				"element": "C" 
			},
			{
				"x": 0.0541524701,
				"y": -1.7449701981,
				"z": 2.1631210426,
				"element": "C" 
			},
			{
				"x": -1.0049986048,
				"y": 0.264704846,
				"z": 4.7021689521,
				"element": "H" 
			},
			{
				"x": -2.127632163,
				"y": 1.394652583,
				"z": 2.7993608747,
				"element": "H" 
			},
			{
				"x": -3.0196769451,
				"y": 0.9924109703,
				"z": 0.5108464186,
				"element": "H" 
			},
			{
				"x": -0.4520144996,
				"y": 3.2426698748,
				"z": -0.5402281061,
				"element": "H" 
			},
			{
				"x": 1.4023622563,
				"y": 4.8781742831,
				"z": -0.4628377218,
				"element": "H" 
			},
			{
				"x": 3.6421874604,
				"y": 4.2626825562,
				"z": -1.3399095697,
				"element": "H" 
			},
			{
				"x": 4.0297320854,
				"y": 1.997456722,
				"z": -2.2852933874,
				"element": "H" 
			},
			{
				"x": 2.1579027777,
				"y": 0.3435786861,
				"z": -2.3389857488,
				"element": "H" 
			},
			{
				"x": -0.5065115465,
				"y": -1.5349239314,
				"z": 0.0962249448,
				"element": "H" 
			},
			{
				"x": 0.6582050234,
				"y": -2.6291592888,
				"z": 1.9934042305,
				"element": "H" 
			}
		],
		 "valence_orbital": [ 
			{
				"type": "occ",
				"energy": -0.27187,
				"method": "rhf"
			},
			{
				"type": "occ",
				"energy": -0.26842,
				"method": "rhf"
			},
			{
				"type": "occ",
				"energy": -0.26622,
				"method": "rhf"
			},
			{
				"type": "occ",
				"energy": -0.23293,
				"method": "rhf"
			},
			{
				"type": "occ",
				"energy": -0.22357,
				"method": "rhf"
			},
			{
				"type": "unocc",
				"energy": -0.07379,
				"method": "rhf"
			},
			{
				"type": "unocc",
				"energy": -0.06215,
				"method": "rhf"
			},
			{
				"type": "unocc",
				"energy": -0.0315,
				"method": "rhf"
			},
			{
				"type": "unocc",
				"energy": -0.01773,
				"method": "rhf"
			},
			{
				"type": "unocc",
				"energy": -0.01378,
				"method": "rhf"
			}
		],
		"cosmo_sigma_profile": { 
			"-0.025": 0.0,
			"-0.024": 0.0,
			"-0.023": 0.0,
			"-0.022": 0.0,
			"-0.021": 0.0,
			"-0.02": 0.0,
			"-0.019": 0.0,
			"-0.018": 0.0,
			"-0.017": 0.0706965947012,
			"-0.016": 0.694921996825,
			"-0.015": 1.01122210422,
			"-0.014": 1.14114294536,
			"-0.013": 1.29479031427,
			"-0.012": 1.41244443061,
			"-0.011": 0.649830235823,
			"-0.01": 1.11977193059,
			"-0.009": 2.1937900575,
			"-0.008": 4.89594886752,
			"-0.007": 10.8370581033,
			"-0.006": 16.3474962637,
			"-0.005": 19.894794409,
			"-0.004": 15.9420976185,
			"-0.003": 16.0865879579,
			"-0.002": 16.2795018336,
			"-0.001": 17.3185349024,
			"0.0": 21.2518573076,
			"0.001": 27.9340320917,
			"0.002": 32.0536456233,
			"0.003": 27.3512461347,
			"0.004": 21.4680443139,
			"0.005": 10.6721870411,
			"0.006": 7.4877477121,
			"0.007": 8.43877868274,
			"0.008": 6.10471962388,
			"0.009": 5.73408660701,
			"0.01": 5.11428593663,
			"0.011": 1.66092914672,
			"0.012": 0.0251889278101,
			"0.013": 0.0,
			"0.014": 0.0,
			"0.015": 0.0,
			"0.016": 0.0,
			"0.017": 0.0,
			"0.018": 0.0,
			"0.019": 0.0,
			"0.02": 0.0,
			"0.021": 0.0,
			"0.022": 0.0,
			"0.023": 0.0,
			"0.024": 0.0,
			"0.025": 0.0
		}
	}
}
