{
	 "smiles": "COC(=O)C1=CC=C(O)C(Br)=C1", 
	 "Tm": 382.15, 
	 "num_atms": 19, 
	 "gaussian": { 
		 "optdone": 1, 
		 "sigma_profile": "yes", 
		 "theory": "DFT", 
		 "functional": "B3LYP", 
		 "basiset": "6-31G**", 
		 "properties": { 
			 "R2extent": 4699.5502, 
			 "electric_dipole_moment_norm": 1.18190042305, 
			 "electric_quadrupole_moment_norm": 21.2944384089, 
			 "total_energy": -3106.15112186, 
			 "HOMO_LUMO_gap": 0.19205, 
			 "cosmo_polarized_energy": -13.0, 
			 "cosmo_cavitation_energy": 26.29, 
			 "cosmo_dispersion_energy": -19.81, 
			 "cosmo_repulsion_energy": 1.59, 
			 "cosmo_total_nonelectrostatic_energy": 8.07, 
			 "SMD_solvation_energy": 5.45 
		},
		"coords": [
			{
				"x": -3.4402429055,
				"y": -2.2679136503,
				"z": -1.4820839302,
				"element": "C" 
			},
			{
				"x": -2.300910813,
				"y": -1.4000962846,
				"z": -1.5809188406,
				"element": "O" 
			},
			{
				"x": -1.3516453966,
				"y": -1.5853156886,
				"z": -0.6345533038,
				"element": "C" 
			},
			{
				"x": -1.4423230284,
				"y": -2.4227922226,
				"z": 0.2431539993,
				"element": "O" 
			},
			{
				"x": -0.201854511,
				"y": -0.6575416396,
				"z": -0.7935534988,
				"element": "C" 
			},
			{
				"x": 0.851767676,
				"y": -0.7467068009,
				"z": 0.1245040743,
				"element": "C" 
			},
			{
				"x": 1.9477237507,
				"y": 0.0984984696,
				"z": 0.0171824222,
				"element": "C" 
			},
			{
				"x": 2.0175464074,
				"y": 1.0522586775,
				"z": -1.008851243,
				"element": "C" 
			},
			{
				"x": 3.0674899876,
				"y": 1.8958538457,
				"z": -1.1500688628,
				"element": "O" 
			},
			{
				"x": 0.9571237385,
				"y": 1.1375648009,
				"z": -1.9277669135,
				"element": "C" 
			},
			{
				"x": 1.0298408644,
				"y": 2.4249665312,
				"z": -3.3292647681,
				"element": "Br" 
			},
			{
				"x": -0.1396760506,
				"y": 0.2932664934,
				"z": -1.8221430997,
				"element": "C" 
			},
			{
				"x": -3.9478852875,
				"y": -2.1294609867,
				"z": -0.5241395123,
				"element": "H" 
			},
			{
				"x": -4.0951298814,
				"y": -1.9882241587,
				"z": -2.3071060104,
				"element": "H" 
			},
			{
				"x": -3.1363260959,
				"y": -3.3140696076,
				"z": -1.569930388,
				"element": "H" 
			},
			{
				"x": 0.7920577076,
				"y": -1.4860191202,
				"z": 0.915495486,
				"element": "H" 
			},
			{
				"x": 2.7654657522,
				"y": 0.0279628502,
				"z": 0.731236949,
				"element": "H" 
			},
			{
				"x": 3.7127341156,
				"y": 1.7213076956,
				"z": -0.4519448289,
				"element": "H" 
			},
			{
				"x": -0.9481560302,
				"y": 0.3714607959,
				"z": -2.5376477306,
				"element": "H" 
			}
		],
		 "valence_orbital": [ 
			{
				"type": "occ",
				"energy": -0.30222,
				"method": "rhf"
			},
			{
				"type": "occ",
				"energy": -0.28626,
				"method": "rhf"
			},
			{
				"type": "occ",
				"energy": -0.27442,
				"method": "rhf"
			},
			{
				"type": "occ",
				"energy": -0.25854,
				"method": "rhf"
			},
			{
				"type": "occ",
				"energy": -0.23594,
				"method": "rhf"
			},
			{
				"type": "unocc",
				"energy": -0.04389,
				"method": "rhf"
			},
			{
				"type": "unocc",
				"energy": -0.02126,
				"method": "rhf"
			},
			{
				"type": "unocc",
				"energy": 0.00665,
				"method": "rhf"
			},
			{
				"type": "unocc",
				"energy": 0.0544,
				"method": "rhf"
			},
			{
				"type": "unocc",
				"energy": 0.05753,
				"method": "rhf"
			}
		],
		"cosmo_sigma_profile": { 
			"-0.025": 0.0,
			"-0.024": 0.0,
			"-0.023": 0.0,
			"-0.022": 0.0,
			"-0.021": 0.0,
			"-0.02": 0.00580635397779,
			"-0.019": 1.00051748119,
			"-0.018": 1.08218908019,
			"-0.017": 1.06228454492,
			"-0.016": 1.39215068873,
			"-0.015": 0.981208159163,
			"-0.014": 1.05009455074,
			"-0.013": 0.89614893147,
			"-0.012": 0.495515399784,
			"-0.011": 1.23281882479,
			"-0.01": 1.39100088294,
			"-0.009": 1.02466309426,
			"-0.008": 1.41303041025,
			"-0.007": 4.40009893843,
			"-0.006": 9.22069791603,
			"-0.005": 10.7636192423,
			"-0.004": 13.2168207642,
			"-0.003": 15.1147595001,
			"-0.002": 12.9179450645,
			"-0.001": 11.5439121758,
			"0.0": 14.9272838767,
			"0.001": 22.7757835116,
			"0.002": 22.1875745999,
			"0.003": 14.4893868256,
			"0.004": 12.8491593846,
			"0.005": 9.46791696441,
			"0.006": 4.37483277575,
			"0.007": 3.37525673037,
			"0.008": 3.65103606951,
			"0.009": 3.70119240926,
			"0.01": 3.4949797602,
			"0.011": 3.34769506164,
			"0.012": 4.34188505367,
			"0.013": 0.2771446901,
			"0.014": 0.0,
			"0.015": 0.0,
			"0.016": 0.0,
			"0.017": 0.0,
			"0.018": 0.0,
			"0.019": 0.0,
			"0.02": 0.0,
			"0.021": 0.0,
			"0.022": 0.0,
			"0.023": 0.0,
			"0.024": 0.0,
			"0.025": 0.0
		}
	}
}
