{
	 "smiles": "OC1=CC(=O)CC(C1)C1=CC=CC=C1", 
	 "Tm": 460.15, 
	 "num_atms": 26, 
	 "gaussian": { 
		 "optdone": 1, 
		 "sigma_profile": "yes", 
		 "theory": "DFT", 
		 "functional": "B3LYP", 
		 "basiset": "6-31G**", 
		 "properties": { 
			 "R2extent": 2903.7182, 
			 "electric_dipole_moment_norm": 5.45648623658, 
			 "electric_quadrupole_moment_norm": 9.66430330495, 
			 "total_energy": -614.9454799, 
			 "HOMO_LUMO_gap": 0.1966, 
			 "cosmo_polarized_energy": -17.79, 
			 "cosmo_cavitation_energy": 28.67, 
			 "cosmo_dispersion_energy": -20.71, 
			 "cosmo_repulsion_energy": 1.64, 
			 "cosmo_total_nonelectrostatic_energy": 9.59, 
			 "SMD_solvation_energy": 5.4 
		},
		"coords": [
			{
				"x": -2.8306456952,
				"y": 0.2354907205,
				"z": 1.2257831081,
				"element": "O" 
			},
			{
				"x": -1.7336352763,
				"y": -0.4081650649,
				"z": 0.7562676928,
				"element": "C" 
			},
			{
				"x": -0.6778189949,
				"y": -0.5990280642,
				"z": 1.5772891576,
				"element": "C" 
			},
			{
				"x": 0.5145808621,
				"y": -1.3209037678,
				"z": 1.1402621634,
				"element": "C" 
			},
			{
				"x": 1.495265521,
				"y": -1.466558473,
				"z": 1.8620372732,
				"element": "O" 
			},
			{
				"x": 0.4808236085,
				"y": -1.9301039567,
				"z": -0.2643076856,
				"element": "C" 
			},
			{
				"x": -0.3868472964,
				"y": -1.1592304161,
				"z": -1.2738658395,
				"element": "C" 
			},
			{
				"x": -1.7906989512,
				"y": -0.9191844908,
				"z": -0.6590734944,
				"element": "C" 
			},
			{
				"x": 0.2297532884,
				"y": 0.1378158931,
				"z": -1.7962392777,
				"element": "C" 
			},
			{
				"x": 1.2833716041,
				"y": 0.8050931429,
				"z": -1.1583402855,
				"element": "C" 
			},
			{
				"x": 1.7963398726,
				"y": 1.9949638266,
				"z": -1.6826077428,
				"element": "C" 
			},
			{
				"x": 1.2686340635,
				"y": 2.5385611785,
				"z": -2.8527931269,
				"element": "C" 
			},
			{
				"x": 0.2234268511,
				"y": 1.8794567382,
				"z": -3.5040671794,
				"element": "C" 
			},
			{
				"x": -0.2846030856,
				"y": 0.6925377601,
				"z": -2.9794319676,
				"element": "C" 
			},
			{
				"x": -3.4697281888,
				"y": 0.3577582731,
				"z": 0.5112979486,
				"element": "H" 
			},
			{
				"x": -0.6912090039,
				"y": -0.2092531567,
				"z": 2.5894714697,
				"element": "H" 
			},
			{
				"x": 0.0734916587,
				"y": -2.9453397419,
				"z": -0.1557863902,
				"element": "H" 
			},
			{
				"x": 1.5108906003,
				"y": -2.0403657403,
				"z": -0.6120579868,
				"element": "H" 
			},
			{
				"x": -0.5380865382,
				"y": -1.8044756171,
				"z": -2.1479483872,
				"element": "H" 
			},
			{
				"x": -2.363193185,
				"y": -1.8587126535,
				"z": -0.6649538266,
				"element": "H" 
			},
			{
				"x": -2.3504329816,
				"y": -0.2077628986,
				"z": -1.2807665899,
				"element": "H" 
			},
			{
				"x": 1.7209788001,
				"y": 0.4030965997,
				"z": -0.2510831677,
				"element": "H" 
			},
			{
				"x": 2.6137701601,
				"y": 2.4942812413,
				"z": -1.1702460547,
				"element": "H" 
			},
			{
				"x": 1.6709313031,
				"y": 3.4622942065,
				"z": -3.2585032615,
				"element": "H" 
			},
			{
				"x": -0.1894774604,
				"y": 2.2844737831,
				"z": -4.4238271352,
				"element": "H" 
			},
			{
				"x": -1.0892815359,
				"y": 0.1794606783,
				"z": -3.5031094146,
				"element": "H" 
			}
		],
		 "valence_orbital": [ 
			{
				"type": "occ",
				"energy": -0.32552,
				"method": "rhf"
			},
			{
				"type": "occ",
				"energy": -0.25299,
				"method": "rhf"
			},
			{
				"type": "occ",
				"energy": -0.24661,
				"method": "rhf"
			},
			{
				"type": "occ",
				"energy": -0.23813,
				"method": "rhf"
			},
			{
				"type": "occ",
				"energy": -0.22942,
				"method": "rhf"
			},
			{
				"type": "unocc",
				"energy": -0.03282,
				"method": "rhf"
			},
			{
				"type": "unocc",
				"energy": -0.00764,
				"method": "rhf"
			},
			{
				"type": "unocc",
				"energy": -0.00267,
				"method": "rhf"
			},
			{
				"type": "unocc",
				"energy": 0.05087,
				"method": "rhf"
			},
			{
				"type": "unocc",
				"energy": 0.06034,
				"method": "rhf"
			}
		],
		"cosmo_sigma_profile": { 
			"-0.025": 0.0,
			"-0.024": 0.0,
			"-0.023": 0.0,
			"-0.022": 0.0,
			"-0.021": 0.0,
			"-0.02": 0.0,
			"-0.019": 0.257772461785,
			"-0.018": 1.10842187813,
			"-0.017": 1.39511703594,
			"-0.016": 0.816766961339,
			"-0.015": 1.13060962836,
			"-0.014": 1.22989784367,
			"-0.013": 0.402802181113,
			"-0.012": 1.27751561471,
			"-0.011": 1.47692083495,
			"-0.01": 0.886550382965,
			"-0.009": 0.988375414391,
			"-0.008": 1.01823426393,
			"-0.007": 2.41720374536,
			"-0.006": 12.3462703222,
			"-0.005": 22.3636230248,
			"-0.004": 20.9863432259,
			"-0.003": 19.1485039574,
			"-0.002": 15.3428318451,
			"-0.001": 12.4473584598,
			"0.0": 11.2805889694,
			"0.001": 10.7788196897,
			"0.002": 11.298369586,
			"0.003": 14.0798027594,
			"0.004": 13.7722124127,
			"0.005": 11.2011414067,
			"0.006": 9.72965669836,
			"0.007": 4.15337560364,
			"0.008": 3.88778965577,
			"0.009": 2.70219701506,
			"0.01": 2.48345010898,
			"0.011": 1.90637273608,
			"0.012": 2.51504398985,
			"0.013": 3.88271440827,
			"0.014": 4.56135625693,
			"0.015": 1.54125263721,
			"0.016": 0.0,
			"0.017": 0.0,
			"0.018": 0.0,
			"0.019": 0.0,
			"0.02": 0.0,
			"0.021": 0.0,
			"0.022": 0.0,
			"0.023": 0.0,
			"0.024": 0.0,
			"0.025": 0.0
		}
	}
}
