{
	 "smiles": "OC(=O)CN1N=CN2N=CC=C2C1=O", 
	 "Tm": 487.15, 
	 "num_atms": 20, 
	 "gaussian": { 
		 "optdone": 1, 
		 "sigma_profile": "yes", 
		 "theory": "DFT", 
		 "functional": "B3LYP", 
		 "basiset": "6-31G**", 
		 "properties": { 
			 "R2extent": 2751.7949, 
			 "electric_dipole_moment_norm": 1.27267385453, 
			 "electric_quadrupole_moment_norm": 11.253788439, 
			 "total_energy": -715.004533713, 
			 "HOMO_LUMO_gap": 0.18933, 
			 "cosmo_polarized_energy": -16.27, 
			 "cosmo_cavitation_energy": 26.04, 
			 "cosmo_dispersion_energy": -18.86, 
			 "cosmo_repulsion_energy": 1.47, 
			 "cosmo_total_nonelectrostatic_energy": 8.64, 
			 "SMD_solvation_energy": 5.4 
		},
		"coords": [
			{
				"x": 2.136389694,
				"y": 3.2927457372,
				"z": 0.3936528393,
				"element": "O" 
			},
			{
				"x": 1.4966580565,
				"y": 2.1115188398,
				"z": 0.5363558098,
				"element": "C" 
			},
			{
				"x": 1.2124458713,
				"y": 1.6201834352,
				"z": 1.6009633549,
				"element": "O" 
			},
			{
				"x": 1.1953649443,
				"y": 1.5114695683,
				"z": -0.8326371957,
				"element": "C" 
			},
			{
				"x": 0.5446633863,
				"y": 0.2224915661,
				"z": -0.7189319957,
				"element": "N" 
			},
			{
				"x": 1.3959601247,
				"y": -0.8409747026,
				"z": -0.582454677,
				"element": "N" 
			},
			{
				"x": 0.8877715802,
				"y": -2.004651036,
				"z": -0.3809104113,
				"element": "C" 
			},
			{
				"x": -0.4759410422,
				"y": -2.2005060158,
				"z": -0.2851484802,
				"element": "N" 
			},
			{
				"x": -1.0774157616,
				"y": -3.3903492599,
				"z": -0.0799399528,
				"element": "N" 
			},
			{
				"x": -2.3794493691,
				"y": -3.0881926735,
				"z": -0.0498899222,
				"element": "C" 
			},
			{
				"x": -2.6277278908,
				"y": -1.7099593233,
				"z": -0.2332696726,
				"element": "C" 
			},
			{
				"x": -1.3711372872,
				"y": -1.1563828268,
				"z": -0.3857043844,
				"element": "C" 
			},
			{
				"x": -0.853379788,
				"y": 0.1909840916,
				"z": -0.5963945111,
				"element": "C" 
			},
			{
				"x": -1.534970137,
				"y": 1.2025785317,
				"z": -0.6823978761,
				"element": "O" 
			},
			{
				"x": 2.2924685659,
				"y": 3.6339318852,
				"z": 1.29032066,
				"element": "H" 
			},
			{
				"x": 0.5370881871,
				"y": 2.192498665,
				"z": -1.3758089435,
				"element": "H" 
			},
			{
				"x": 2.1261785884,
				"y": 1.3895225517,
				"z": -1.3899438061,
				"element": "H" 
			},
			{
				"x": 1.5216818335,
				"y": -2.8755930638,
				"z": -0.2790665515,
				"element": "H" 
			},
			{
				"x": -3.0994324954,
				"y": -3.8804492888,
				"z": 0.1043891872,
				"element": "H" 
			},
			{
				"x": -3.571617061,
				"y": -1.1885666814,
				"z": -0.2528834713,
				"element": "H" 
			}
		],
		 "valence_orbital": [ 
			{
				"type": "occ",
				"energy": -0.30697,
				"method": "rhf"
			},
			{
				"type": "occ",
				"energy": -0.28922,
				"method": "rhf"
			},
			{
				"type": "occ",
				"energy": -0.27385,
				"method": "rhf"
			},
			{
				"type": "occ",
				"energy": -0.27194,
				"method": "rhf"
			},
			{
				"type": "occ",
				"energy": -0.24222,
				"method": "rhf"
			},
			{
				"type": "unocc",
				"energy": -0.05289,
				"method": "rhf"
			},
			{
				"type": "unocc",
				"energy": -0.02875,
				"method": "rhf"
			},
			{
				"type": "unocc",
				"energy": 0.00133,
				"method": "rhf"
			},
			{
				"type": "unocc",
				"energy": 0.04134,
				"method": "rhf"
			},
			{
				"type": "unocc",
				"energy": 0.06799,
				"method": "rhf"
			}
		],
		"cosmo_sigma_profile": { 
			"-0.025": 0.0,
			"-0.024": 0.0,
			"-0.023": 0.0,
			"-0.022": 0.0,
			"-0.021": 0.0,
			"-0.02": 0.0,
			"-0.019": 0.415006841835,
			"-0.018": 1.44359779175,
			"-0.017": 0.551262541128,
			"-0.016": 0.705864533177,
			"-0.015": 1.03595701133,
			"-0.014": 0.58893461125,
			"-0.013": 0.581898401761,
			"-0.012": 0.66619600928,
			"-0.011": 2.79956831834,
			"-0.01": 2.22606562509,
			"-0.009": 5.48421768683,
			"-0.008": 8.55972097521,
			"-0.007": 9.95499080943,
			"-0.006": 9.82640549148,
			"-0.005": 10.1253764117,
			"-0.004": 13.8392228677,
			"-0.003": 12.2003829079,
			"-0.002": 11.8002077298,
			"-0.001": 10.2734008576,
			"0.0": 12.1444594197,
			"0.001": 12.0713680748,
			"0.002": 11.4700899599,
			"0.003": 7.70396934671,
			"0.004": 7.79790025705,
			"0.005": 6.25369797636,
			"0.006": 7.88087001558,
			"0.007": 6.7437628078,
			"0.008": 5.76089246499,
			"0.009": 5.44236317516,
			"0.01": 7.06451077999,
			"0.011": 8.60773957877,
			"0.012": 5.69589278316,
			"0.013": 1.61065096964,
			"0.014": 0.223828811741,
			"0.015": 0.0,
			"0.016": 0.0,
			"0.017": 0.0,
			"0.018": 0.0,
			"0.019": 0.0,
			"0.02": 0.0,
			"0.021": 0.0,
			"0.022": 0.0,
			"0.023": 0.0,
			"0.024": 0.0,
			"0.025": 0.0
		}
	}
}
