{
	 "smiles": "SC1=NC2(CCCCC2)NN1C1=CC=CC=C1", 
	 "Tm": 421.15, 
	 "num_atms": 34, 
	 "gaussian": { 
		 "optdone": 1, 
		 "sigma_profile": "yes", 
		 "theory": "DFT", 
		 "functional": "B3LYP", 
		 "basiset": "6-31G**", 
		 "properties": { 
			 "R2extent": 5371.5832, 
			 "electric_dipole_moment_norm": 0.887249513947, 
			 "electric_quadrupole_moment_norm": 4.21349544559, 
			 "total_energy": -1068.03005394, 
			 "HOMO_LUMO_gap": 0.19272, 
			 "cosmo_polarized_energy": -8.93, 
			 "cosmo_cavitation_energy": 36.37, 
			 "cosmo_dispersion_energy": -26.57, 
			 "cosmo_repulsion_energy": 2.02, 
			 "cosmo_total_nonelectrostatic_energy": 11.82, 
			 "SMD_solvation_energy": 2.23 
		},
		"coords": [
			{
				"x": 3.366095622,
				"y": -0.0339941719,
				"z": -0.2282580079,
				"element": "S" 
			},
			{
				"x": 1.7229528701,
				"y": -0.5619074648,
				"z": 0.1905105223,
				"element": "C" 
			},
			{
				"x": 1.4725042625,
				"y": -1.5581229559,
				"z": 0.953063165,
				"element": "N" 
			},
			{
				"x": 0.0121929891,
				"y": -1.5521293825,
				"z": 1.1795590202,
				"element": "C" 
			},
			{
				"x": -0.5716610822,
				"y": -2.97016556,
				"z": 0.9611168908,
				"element": "C" 
			},
			{
				"x": -1.7620412209,
				"y": -3.2720469172,
				"z": 1.8807028824,
				"element": "C" 
			},
			{
				"x": -1.334486952,
				"y": -3.2478637026,
				"z": 3.3672118902,
				"element": "C" 
			},
			{
				"x": -0.2122477904,
				"y": -2.2126737422,
				"z": 3.6294640853,
				"element": "C" 
			},
			{
				"x": -0.2805324258,
				"y": -1.0607906483,
				"z": 2.6204616048,
				"element": "C" 
			},
			{
				"x": -0.5432039108,
				"y": -0.5697017953,
				"z": 0.1863555486,
				"element": "N" 
			},
			{
				"x": 0.6145877802,
				"y": 0.116891779,
				"z": -0.3270725712,
				"element": "N" 
			},
			{
				"x": 0.5026872625,
				"y": 1.5115685104,
				"z": -0.5839308817,
				"element": "C" 
			},
			{
				"x": 1.3330944098,
				"y": 2.1069338994,
				"z": -1.5437793963,
				"element": "C" 
			},
			{
				"x": 1.2394080184,
				"y": 3.4762375135,
				"z": -1.7937543961,
				"element": "C" 
			},
			{
				"x": 0.2948339202,
				"y": 4.2548808052,
				"z": -1.1246690302,
				"element": "C" 
			},
			{
				"x": -0.5585945011,
				"y": 3.6498676785,
				"z": -0.1983657904,
				"element": "C" 
			},
			{
				"x": -0.4601738651,
				"y": 2.2877407007,
				"z": 0.0771040559,
				"element": "C" 
			},
			{
				"x": 3.92863191,
				"y": -0.9251898453,
				"z": 0.6098631689,
				"element": "H" 
			},
			{
				"x": 0.235840663,
				"y": -3.6827025622,
				"z": 1.159355896,
				"element": "H" 
			},
			{
				"x": -0.8392477128,
				"y": -3.1022715167,
				"z": -0.0952641611,
				"element": "H" 
			},
			{
				"x": -2.1953238381,
				"y": -4.2453683419,
				"z": 1.6256789298,
				"element": "H" 
			},
			{
				"x": -2.5524832559,
				"y": -2.5317241581,
				"z": 1.7050852099,
				"element": "H" 
			},
			{
				"x": -0.9902752367,
				"y": -4.2438734022,
				"z": 3.6695891751,
				"element": "H" 
			},
			{
				"x": -2.2084377374,
				"y": -3.0226007315,
				"z": 3.9895360021,
				"element": "H" 
			},
			{
				"x": 0.7712857951,
				"y": -2.689422424,
				"z": 3.5443201895,
				"element": "H" 
			},
			{
				"x": -0.2807308709,
				"y": -1.8285998063,
				"z": 4.6529000446,
				"element": "H" 
			},
			{
				"x": -1.281736375,
				"y": -0.6136062124,
				"z": 2.6249099618,
				"element": "H" 
			},
			{
				"x": 0.4283019364,
				"y": -0.2655586034,
				"z": 2.8726424602,
				"element": "H" 
			},
			{
				"x": -0.9095302828,
				"y": -1.0926595346,
				"z": -0.6105233601,
				"element": "H" 
			},
			{
				"x": 2.0309667012,
				"y": 1.4974870662,
				"z": -2.1083375716,
				"element": "H" 
			},
			{
				"x": 1.8945335707,
				"y": 3.9273514472,
				"z": -2.5334013614,
				"element": "H" 
			},
			{
				"x": 0.2142628308,
				"y": 5.3176044087,
				"z": -1.3321077179,
				"element": "H" 
			},
			{
				"x": -1.3058080335,
				"y": 4.2437782772,
				"z": 0.3207110367,
				"element": "H" 
			},
			{
				"x": -1.1230654507,
				"y": 1.8083313934,
				"z": 0.7870225058,
				"element": "H" 
			}
		],
		 "valence_orbital": [ 
			{
				"type": "occ",
				"energy": -0.27442,
				"method": "rhf"
			},
			{
				"type": "occ",
				"energy": -0.26068,
				"method": "rhf"
			},
			{
				"type": "occ",
				"energy": -0.25142,
				"method": "rhf"
			},
			{
				"type": "occ",
				"energy": -0.24474,
				"method": "rhf"
			},
			{
				"type": "occ",
				"energy": -0.19817,
				"method": "rhf"
			},
			{
				"type": "unocc",
				"energy": -0.00545,
				"method": "rhf"
			},
			{
				"type": "unocc",
				"energy": -0.00313,
				"method": "rhf"
			},
			{
				"type": "unocc",
				"energy": 0.02096,
				"method": "rhf"
			},
			{
				"type": "unocc",
				"energy": 0.02415,
				"method": "rhf"
			},
			{
				"type": "unocc",
				"energy": 0.06264,
				"method": "rhf"
			}
		],
		"cosmo_sigma_profile": { 
			"-0.025": 0.0,
			"-0.024": 0.0,
			"-0.023": 0.0,
			"-0.022": 0.0,
			"-0.021": 0.0,
			"-0.02": 0.0,
			"-0.019": 0.0,
			"-0.018": 0.0,
			"-0.017": 0.0,
			"-0.016": 0.0,
			"-0.015": 0.0,
			"-0.014": 0.0,
			"-0.013": 0.0,
			"-0.012": 0.264974235131,
			"-0.011": 2.83950406703,
			"-0.01": 2.87827343997,
			"-0.009": 2.33200434918,
			"-0.008": 2.60768431184,
			"-0.007": 2.2087568904,
			"-0.006": 6.83112823455,
			"-0.005": 11.9152156201,
			"-0.004": 14.0701788211,
			"-0.003": 20.483971145,
			"-0.002": 31.8059902125,
			"-0.001": 38.7196490095,
			"0.0": 33.9897811963,
			"0.001": 27.4295312502,
			"0.002": 17.5452837711,
			"0.003": 17.3747771365,
			"0.004": 15.5709338265,
			"0.005": 16.8155794881,
			"0.006": 9.48073325887,
			"0.007": 3.6776722867,
			"0.008": 2.73714750785,
			"0.009": 1.27728666751,
			"0.01": 1.38058601377,
			"0.011": 1.02941753533,
			"0.012": 0.651863177756,
			"0.013": 0.846903046317,
			"0.014": 0.728970168898,
			"0.015": 0.546960974563,
			"0.016": 0.121820193544,
			"0.017": 0.0,
			"0.018": 0.0,
			"0.019": 0.0,
			"0.02": 0.0,
			"0.021": 0.0,
			"0.022": 0.0,
			"0.023": 0.0,
			"0.024": 0.0,
			"0.025": 0.0
		}
	}
}
