{
	 "smiles": "CS(=O)(=O)C1=CC=C(Br)C=C1", 
	 "Tm": 377.15, 
	 "num_atms": 18, 
	 "gaussian": { 
		 "optdone": 1, 
		 "sigma_profile": "yes", 
		 "theory": "DFT", 
		 "functional": "B3LYP", 
		 "basiset": "6-31G**", 
		 "properties": { 
			 "R2extent": 5019.4111, 
			 "electric_dipole_moment_norm": 4.0840407662, 
			 "electric_quadrupole_moment_norm": 11.0553509117, 
			 "total_energy": -3390.93726401, 
			 "HOMO_LUMO_gap": 0.21285, 
			 "cosmo_polarized_energy": -14.01, 
			 "cosmo_cavitation_energy": 25.96, 
			 "cosmo_dispersion_energy": -19.83, 
			 "cosmo_repulsion_energy": 1.54, 
			 "cosmo_total_nonelectrostatic_energy": 7.67, 
			 "SMD_solvation_energy": 3.1 
		},
		"coords": [
			{
				"x": -0.3542361362,
				"y": 2.6247205596,
				"z": -0.2625149172,
				"element": "C" 
			},
			{
				"x": -1.1117136815,
				"y": 1.0166554695,
				"z": -0.5983952726,
				"element": "S" 
			},
			{
				"x": -0.5838525848,
				"y": 0.540109893,
				"z": -1.8857460728,
				"element": "O" 
			},
			{
				"x": -2.557492242,
				"y": 1.1520584124,
				"z": -0.3651685462,
				"element": "O" 
			},
			{
				"x": -0.4443067551,
				"y": -0.0446367605,
				"z": 0.6949588432,
				"element": "C" 
			},
			{
				"x": -1.1314886935,
				"y": -0.1645295307,
				"z": 1.9040286248,
				"element": "C" 
			},
			{
				"x": -0.6143752349,
				"y": -0.9833266466,
				"z": 2.9070363162,
				"element": "C" 
			},
			{
				"x": 0.5791206419,
				"y": -1.6695773764,
				"z": 2.6767980913,
				"element": "C" 
			},
			{
				"x": 1.289621591,
				"y": -2.787569035,
				"z": 4.0482788588,
				"element": "Br" 
			},
			{
				"x": 1.260490921,
				"y": -1.563425883,
				"z": 1.4631964898,
				"element": "C" 
			},
			{
				"x": 0.7410546994,
				"y": -0.7439781716,
				"z": 0.461954231,
				"element": "C" 
			},
			{
				"x": -0.6551426165,
				"y": 2.9646006394,
				"z": 0.7293656392,
				"element": "H" 
			},
			{
				"x": 0.7302762705,
				"y": 2.5348224901,
				"z": -0.3376492569,
				"element": "H" 
			},
			{
				"x": -0.7331387175,
				"y": 3.3047269727,
				"z": -1.0284036401,
				"element": "H" 
			},
			{
				"x": -2.0700274986,
				"y": 0.360754947,
				"z": 2.0467924596,
				"element": "H" 
			},
			{
				"x": -1.1337013131,
				"y": -1.0941532451,
				"z": 3.8518254543,
				"element": "H" 
			},
			{
				"x": 2.1772612954,
				"y": -2.1185525903,
				"z": 1.3021035269,
				"element": "H" 
			},
			{
				"x": 1.2366500545,
				"y": -0.6625001446,
				"z": -0.4997608294,
				"element": "H" 
			}
		],
		 "valence_orbital": [ 
			{
				"type": "occ",
				"energy": -0.30411,
				"method": "rhf"
			},
			{
				"type": "occ",
				"energy": -0.29989,
				"method": "rhf"
			},
			{
				"type": "occ",
				"energy": -0.2933,
				"method": "rhf"
			},
			{
				"type": "occ",
				"energy": -0.28677,
				"method": "rhf"
			},
			{
				"type": "occ",
				"energy": -0.26592,
				"method": "rhf"
			},
			{
				"type": "unocc",
				"energy": -0.05307,
				"method": "rhf"
			},
			{
				"type": "unocc",
				"energy": -0.03721,
				"method": "rhf"
			},
			{
				"type": "unocc",
				"energy": -0.00893,
				"method": "rhf"
			},
			{
				"type": "unocc",
				"energy": 0.06442,
				"method": "rhf"
			},
			{
				"type": "unocc",
				"energy": 0.07025,
				"method": "rhf"
			}
		],
		"cosmo_sigma_profile": { 
			"-0.025": 0.0,
			"-0.024": 0.0,
			"-0.023": 0.0,
			"-0.022": 0.0,
			"-0.021": 0.0,
			"-0.02": 0.0,
			"-0.019": 0.0,
			"-0.018": 0.0,
			"-0.017": 0.0,
			"-0.016": 0.0,
			"-0.015": 0.0,
			"-0.014": 0.0,
			"-0.013": 0.0,
			"-0.012": 0.0,
			"-0.011": 0.0,
			"-0.01": 0.0,
			"-0.009": 2.64152562201,
			"-0.008": 12.2655906519,
			"-0.007": 13.1427912384,
			"-0.006": 13.9271425346,
			"-0.005": 11.7923135,
			"-0.004": 14.8267083829,
			"-0.003": 10.6039809795,
			"-0.002": 9.4901660014,
			"-0.001": 11.6670246566,
			"0.0": 15.9897419588,
			"0.001": 23.6305346335,
			"0.002": 12.7008722383,
			"0.003": 10.8161694601,
			"0.004": 12.5405649077,
			"0.005": 2.26083498265,
			"0.006": 1.55108550663,
			"0.007": 2.55990984618,
			"0.008": 3.39983296214,
			"0.009": 3.19423359788,
			"0.01": 4.65966932433,
			"0.011": 9.33683598426,
			"0.012": 7.88779561118,
			"0.013": 0.48991954591,
			"0.014": 0.0,
			"0.015": 0.0,
			"0.016": 0.0,
			"0.017": 0.0,
			"0.018": 0.0,
			"0.019": 0.0,
			"0.02": 0.0,
			"0.021": 0.0,
			"0.022": 0.0,
			"0.023": 0.0,
			"0.024": 0.0,
			"0.025": 0.0
		}
	}
}
