{
	 "smiles": "COC1=C(OCC(F)(F)F)C=C(N)C=C1", 
	 "Tm": 428.15, 
	 "num_atms": 25, 
	 "gaussian": { 
		 "optdone": 1, 
		 "sigma_profile": "yes", 
		 "theory": "DFT", 
		 "functional": "B3LYP", 
		 "basiset": "6-31G**", 
		 "properties": { 
			 "R2extent": 4592.0824, 
			 "electric_dipole_moment_norm": 3.27681976312, 
			 "electric_quadrupole_moment_norm": 13.3689893515, 
			 "total_energy": -853.68015176, 
			 "HOMO_LUMO_gap": 0.19941, 
			 "cosmo_polarized_energy": -10.64, 
			 "cosmo_cavitation_energy": 30.18, 
			 "cosmo_dispersion_energy": -21.16, 
			 "cosmo_repulsion_energy": 1.62, 
			 "cosmo_total_nonelectrostatic_energy": 10.65, 
			 "SMD_solvation_energy": 7.1 
		},
		"coords": [
			{
				"x": -1.1475195672,
				"y": 2.0686987805,
				"z": -0.749435411,
				"element": "C" 
			},
			{
				"x": -0.3289361092,
				"y": 0.8917600767,
				"z": -0.7841701944,
				"element": "O" 
			},
			{
				"x": -0.9510749939,
				"y": -0.2579647324,
				"z": -0.3356732846,
				"element": "C" 
			},
			{
				"x": -1.2113898962,
				"y": -0.4745122537,
				"z": 1.0283667951,
				"element": "C" 
			},
			{
				"x": -0.9238232736,
				"y": 0.4881946925,
				"z": 1.979558376,
				"element": "O" 
			},
			{
				"x": 0.4546321532,
				"y": 0.7911105634,
				"z": 2.1374949889,
				"element": "C" 
			},
			{
				"x": 0.551420147,
				"y": 2.0376681189,
				"z": 2.9938534923,
				"element": "C" 
			},
			{
				"x": -0.019726066,
				"y": 1.8726587216,
				"z": 4.2001950162,
				"element": "F" 
			},
			{
				"x": -0.038213216,
				"y": 3.0979149711,
				"z": 2.4033083355,
				"element": "F" 
			},
			{
				"x": 1.8529638625,
				"y": 2.3448938623,
				"z": 3.1879638165,
				"element": "F" 
			},
			{
				"x": -1.8239655815,
				"y": -1.6487771105,
				"z": 1.4570360228,
				"element": "C" 
			},
			{
				"x": -2.185404059,
				"y": -2.647071678,
				"z": 0.5374161921,
				"element": "C" 
			},
			{
				"x": -2.7482893399,
				"y": -3.8477707216,
				"z": 0.9790773402,
				"element": "N" 
			},
			{
				"x": -1.9013574634,
				"y": -2.4395038675,
				"z": -0.822894201,
				"element": "C" 
			},
			{
				"x": -1.2966485897,
				"y": -1.2577658231,
				"z": -1.2446351516,
				"element": "C" 
			},
			{
				"x": -0.5566904516,
				"y": 2.8653959323,
				"z": -1.2066540916,
				"element": "H" 
			},
			{
				"x": -2.0665300363,
				"y": 1.9194295883,
				"z": -1.3294521915,
				"element": "H" 
			},
			{
				"x": -1.4031483072,
				"y": 2.3475663566,
				"z": 0.2772540272,
				"element": "H" 
			},
			{
				"x": 0.9832203015,
				"y": -0.0218484032,
				"z": 2.6513520797,
				"element": "H" 
			},
			{
				"x": 0.9386268535,
				"y": 0.9939266275,
				"z": 1.1778937205,
				"element": "H" 
			},
			{
				"x": -2.0107556291,
				"y": -1.7726162843,
				"z": 2.5196780627,
				"element": "H" 
			},
			{
				"x": -3.2435448018,
				"y": -3.7892149194,
				"z": 1.8582943463,
				"element": "H" 
			},
			{
				"x": -3.2841389055,
				"y": -4.3472029107,
				"z": 0.2825349323,
				"element": "H" 
			},
			{
				"x": -2.1594594488,
				"y": -3.2048412203,
				"z": -1.5499637582,
				"element": "H" 
			},
			{
				"x": -1.084147582,
				"y": -1.088928367,
				"z": -2.2957992604,
				"element": "H" 
			}
		],
		 "valence_orbital": [ 
			{
				"type": "occ",
				"energy": -0.3154,
				"method": "rhf"
			},
			{
				"type": "occ",
				"energy": -0.28798,
				"method": "rhf"
			},
			{
				"type": "occ",
				"energy": -0.26704,
				"method": "rhf"
			},
			{
				"type": "occ",
				"energy": -0.24249,
				"method": "rhf"
			},
			{
				"type": "occ",
				"energy": -0.20092,
				"method": "rhf"
			},
			{
				"type": "unocc",
				"energy": -0.00151,
				"method": "rhf"
			},
			{
				"type": "unocc",
				"energy": 0.01509,
				"method": "rhf"
			},
			{
				"type": "unocc",
				"energy": 0.07176,
				"method": "rhf"
			},
			{
				"type": "unocc",
				"energy": 0.08311,
				"method": "rhf"
			},
			{
				"type": "unocc",
				"energy": 0.10986,
				"method": "rhf"
			}
		],
		"cosmo_sigma_profile": { 
			"-0.025": 0.0,
			"-0.024": 0.0,
			"-0.023": 0.0,
			"-0.022": 0.0,
			"-0.021": 0.0,
			"-0.02": 0.0,
			"-0.019": 0.0,
			"-0.018": 0.0,
			"-0.017": 0.0,
			"-0.016": 0.0,
			"-0.015": 0.0,
			"-0.014": 0.0,
			"-0.013": 0.257105991992,
			"-0.012": 2.42660624059,
			"-0.011": 3.10982346299,
			"-0.01": 3.1373184295,
			"-0.009": 3.69832999037,
			"-0.008": 3.89064946769,
			"-0.007": 7.26615850739,
			"-0.006": 10.243512278,
			"-0.005": 12.0923040686,
			"-0.004": 13.8968349064,
			"-0.003": 15.6318897545,
			"-0.002": 14.2984196228,
			"-0.001": 13.1830851812,
			"0.0": 13.4687996134,
			"0.001": 15.1923421518,
			"0.002": 24.6866652305,
			"0.003": 33.5498032278,
			"0.004": 13.1291725879,
			"0.005": 12.9373509232,
			"0.006": 7.83385586631,
			"0.007": 2.97295300215,
			"0.008": 3.59010998307,
			"0.009": 2.51804473241,
			"0.01": 1.83628883666,
			"0.011": 1.50408044007,
			"0.012": 1.77161602255,
			"0.013": 0.599403413128,
			"0.014": 0.514919713997,
			"0.015": 0.285875366966,
			"0.016": 0.0,
			"0.017": 0.0,
			"0.018": 0.0,
			"0.019": 0.0,
			"0.02": 0.0,
			"0.021": 0.0,
			"0.022": 0.0,
			"0.023": 0.0,
			"0.024": 0.0,
			"0.025": 0.0
		}
	}
}
