{
	 "smiles": "NNC(=O)C1=CC=CC=C1N", 
	 "Tm": 396.15, 
	 "num_atms": 20, 
	 "gaussian": { 
		 "optdone": 1, 
		 "sigma_profile": "yes", 
		 "theory": "DFT", 
		 "functional": "B3LYP", 
		 "basiset": "6-31G**", 
		 "properties": { 
			 "R2extent": 2149.772, 
			 "electric_dipole_moment_norm": 3.32008430315, 
			 "electric_quadrupole_moment_norm": 10.9980885971, 
			 "total_energy": -511.635459488, 
			 "HOMO_LUMO_gap": 0.18435, 
			 "cosmo_polarized_energy": -14.21, 
			 "cosmo_cavitation_energy": 23.55, 
			 "cosmo_dispersion_energy": -17.82, 
			 "cosmo_repulsion_energy": 1.44, 
			 "cosmo_total_nonelectrostatic_energy": 7.16, 
			 "SMD_solvation_energy": 5.17 
		},
		"coords": [
			{
				"x": 3.635592947,
				"y": -0.0724458842,
				"z": 2.065426096,
				"element": "N" 
			},
			{
				"x": 2.2346554594,
				"y": -0.2447924713,
				"z": 1.9289623991,
				"element": "N" 
			},
			{
				"x": 1.739785632,
				"y": -0.6776042569,
				"z": 0.7078631323,
				"element": "C" 
			},
			{
				"x": 2.5060945961,
				"y": -1.085523948,
				"z": -0.1620928439,
				"element": "O" 
			},
			{
				"x": 0.2588328614,
				"y": -0.5995933788,
				"z": 0.4995452441,
				"element": "C" 
			},
			{
				"x": -0.1644622285,
				"y": -0.6441643546,
				"z": -0.8391765526,
				"element": "C" 
			},
			{
				"x": -1.5045845148,
				"y": -0.5460951621,
				"z": -1.1885103422,
				"element": "C" 
			},
			{
				"x": -2.4590006186,
				"y": -0.41329927,
				"z": -0.1750692269,
				"element": "C" 
			},
			{
				"x": -2.0696717476,
				"y": -0.3969344097,
				"z": 1.1582795374,
				"element": "C" 
			},
			{
				"x": -0.7147441852,
				"y": -0.4945642192,
				"z": 1.5254482031,
				"element": "C" 
			},
			{
				"x": -0.375302725,
				"y": -0.4434089949,
				"z": 2.8829445763,
				"element": "N" 
			},
			{
				"x": 4.0113031235,
				"y": -0.9546277643,
				"z": 2.4115493833,
				"element": "H" 
			},
			{
				"x": 4.0021686258,
				"y": 0.0139799769,
				"z": 1.1150396519,
				"element": "H" 
			},
			{
				"x": 1.6965996366,
				"y": 0.4579713435,
				"z": 2.4241009166,
				"element": "H" 
			},
			{
				"x": 0.6059308045,
				"y": -0.7542317696,
				"z": -1.5947087299,
				"element": "H" 
			},
			{
				"x": -1.8042411874,
				"y": -0.5714832991,
				"z": -2.2311387974,
				"element": "H" 
			},
			{
				"x": -3.513995988,
				"y": -0.3345103583,
				"z": -0.4225990505,
				"element": "H" 
			},
			{
				"x": -2.8191710031,
				"y": -0.314026263,
				"z": 1.9420073226,
				"element": "H" 
			},
			{
				"x": 0.4282677503,
				"y": -1.0024939237,
				"z": 3.1431306702,
				"element": "H" 
			},
			{
				"x": -1.1590572385,
				"y": -0.5986515925,
				"z": 3.5035984104,
				"element": "H" 
			}
		],
		 "valence_orbital": [ 
			{
				"type": "occ",
				"energy": -0.28973,
				"method": "rhf"
			},
			{
				"type": "occ",
				"energy": -0.26106,
				"method": "rhf"
			},
			{
				"type": "occ",
				"energy": -0.25083,
				"method": "rhf"
			},
			{
				"type": "occ",
				"energy": -0.24874,
				"method": "rhf"
			},
			{
				"type": "occ",
				"energy": -0.21693,
				"method": "rhf"
			},
			{
				"type": "unocc",
				"energy": -0.03258,
				"method": "rhf"
			},
			{
				"type": "unocc",
				"energy": 0.00616,
				"method": "rhf"
			},
			{
				"type": "unocc",
				"energy": 0.05602,
				"method": "rhf"
			},
			{
				"type": "unocc",
				"energy": 0.07877,
				"method": "rhf"
			},
			{
				"type": "unocc",
				"energy": 0.09286,
				"method": "rhf"
			}
		],
		"cosmo_sigma_profile": { 
			"-0.025": 0.0,
			"-0.024": 0.0,
			"-0.023": 0.0,
			"-0.022": 0.0,
			"-0.021": 0.0,
			"-0.02": 0.0,
			"-0.019": 0.0,
			"-0.018": 0.0,
			"-0.017": 0.0,
			"-0.016": 0.0,
			"-0.015": 0.0,
			"-0.014": 0.0147144756315,
			"-0.013": 0.884891047605,
			"-0.012": 2.07301574595,
			"-0.011": 4.21147031094,
			"-0.01": 4.02673863622,
			"-0.009": 6.97614872643,
			"-0.008": 4.9048346002,
			"-0.007": 5.17168586623,
			"-0.006": 8.86953679749,
			"-0.005": 11.1456050873,
			"-0.004": 12.3258184564,
			"-0.003": 11.8749801761,
			"-0.002": 9.71599820525,
			"-0.001": 9.40334095139,
			"0.0": 9.89826448759,
			"0.001": 9.34408371052,
			"0.002": 10.4938533795,
			"0.003": 9.58749566403,
			"0.004": 12.0687448889,
			"0.005": 12.2479553017,
			"0.006": 6.24076197966,
			"0.007": 2.61005732372,
			"0.008": 3.16920373415,
			"0.009": 2.07698011011,
			"0.01": 3.30698684451,
			"0.011": 2.78065633639,
			"0.012": 2.6178181129,
			"0.013": 4.77562412899,
			"0.014": 1.9377791031,
			"0.015": 0.826529417588,
			"0.016": 0.684974757583,
			"0.017": 0.332674075908,
			"0.018": 0.0,
			"0.019": 0.0,
			"0.02": 0.0,
			"0.021": 0.0,
			"0.022": 0.0,
			"0.023": 0.0,
			"0.024": 0.0,
			"0.025": 0.0
		}
	}
}
