{
	 "smiles": "NC1=CC=C(NS(=O)(=O)C2=C(Cl)C=CC=C2Cl)C=C1", 
	 "Tm": 435.15, 
	 "num_atms": 29, 
	 "gaussian": { 
		 "optdone": 1, 
		 "sigma_profile": "yes", 
		 "theory": "DFT", 
		 "functional": "B3LYP", 
		 "basiset": "6-31G**", 
		 "properties": { 
			 "R2extent": 7239.4078, 
			 "electric_dipole_moment_norm": 7.45075790709, 
			 "electric_quadrupole_moment_norm": 19.1443111396, 
			 "total_energy": -2041.73523228, 
			 "HOMO_LUMO_gap": 0.14844, 
			 "cosmo_polarized_energy": -21.02, 
			 "cosmo_cavitation_energy": 37.83, 
			 "cosmo_dispersion_energy": -26.87, 
			 "cosmo_repulsion_energy": 2.03, 
			 "cosmo_total_nonelectrostatic_energy": 12.98, 
			 "SMD_solvation_energy": 4.96 
		},
		"coords": [
			{
				"x": 1.5204506606,
				"y": -0.4970172349,
				"z": -4.0426702331,
				"element": "N" 
			},
			{
				"x": 1.5161820299,
				"y": -0.2100069557,
				"z": -2.6781025531,
				"element": "C" 
			},
			{
				"x": 0.480987606,
				"y": 0.5475960256,
				"z": -2.1038365415,
				"element": "C" 
			},
			{
				"x": 0.5046831459,
				"y": 0.8687212112,
				"z": -0.7501596167,
				"element": "C" 
			},
			{
				"x": 1.5747331103,
				"y": 0.4697273265,
				"z": 0.0590592827,
				"element": "C" 
			},
			{
				"x": 1.6261876131,
				"y": 0.8545955081,
				"z": 1.4368017731,
				"element": "N" 
			},
			{
				"x": 1.5422815128,
				"y": -0.279004094,
				"z": 2.6806148548,
				"element": "S" 
			},
			{
				"x": 1.5359693332,
				"y": 0.4819534844,
				"z": 3.9254709765,
				"element": "O" 
			},
			{
				"x": 2.5603914906,
				"y": -1.2811837013,
				"z": 2.4041068266,
				"element": "O" 
			},
			{
				"x": -0.1158133461,
				"y": -1.0728573838,
				"z": 2.5350773991,
				"element": "C" 
			},
			{
				"x": -1.2782134781,
				"y": -0.2786186034,
				"z": 2.6492499097,
				"element": "C" 
			},
			{
				"x": -1.2196230285,
				"y": 1.4654626523,
				"z": 2.8870454504,
				"element": "Cl" 
			},
			{
				"x": -2.5597331458,
				"y": -0.8179937087,
				"z": 2.5743465118,
				"element": "C" 
			},
			{
				"x": -2.7162960223,
				"y": -2.1874337567,
				"z": 2.3886593331,
				"element": "C" 
			},
			{
				"x": -1.5989748625,
				"y": -3.0029738099,
				"z": 2.2786343244,
				"element": "C" 
			},
			{
				"x": -0.3115897358,
				"y": -2.4592777369,
				"z": 2.3513021716,
				"element": "C" 
			},
			{
				"x": 0.9792162525,
				"y": -3.6311016179,
				"z": 2.2143485333,
				"element": "Cl" 
			},
			{
				"x": 2.6188177023,
				"y": -0.2712638805,
				"z": -0.5082975196,
				"element": "C" 
			},
			{
				"x": 2.5803821883,
				"y": -0.6179303524,
				"z": -1.8534092394,
				"element": "C" 
			},
			{
				"x": 2.0724389009,
				"y": -1.2985982466,
				"z": -4.3144246798,
				"element": "H" 
			},
			{
				"x": 0.6147514849,
				"y": -0.4904913715,
				"z": -4.4906845257,
				"element": "H" 
			},
			{
				"x": -0.3487095103,
				"y": 0.8807273686,
				"z": -2.7221442279,
				"element": "H" 
			},
			{
				"x": -0.3138135927,
				"y": 1.4399654077,
				"z": -0.3198918212,
				"element": "H" 
			},
			{
				"x": 1.0844244213,
				"y": 1.677776446,
				"z": 1.6791022103,
				"element": "H" 
			},
			{
				"x": -3.4174315447,
				"y": -0.1623085172,
				"z": 2.6668498474,
				"element": "H" 
			},
			{
				"x": -3.7110610115,
				"y": -2.6177454833,
				"z": 2.3321474021,
				"element": "H" 
			},
			{
				"x": -1.7029600265,
				"y": -4.0724840466,
				"z": 2.139009778,
				"element": "H" 
			},
			{
				"x": 3.4495410247,
				"y": -0.5789529711,
				"z": 0.1153319833,
				"element": "H" 
			},
			{
				"x": 3.3962808273,
				"y": -1.195481958,
				"z": -2.2804376103,
				"element": "H" 
			}
		],
		 "valence_orbital": [ 
			{
				"type": "occ",
				"energy": -0.28938,
				"method": "rhf"
			},
			{
				"type": "occ",
				"energy": -0.2754,
				"method": "rhf"
			},
			{
				"type": "occ",
				"energy": -0.26251,
				"method": "rhf"
			},
			{
				"type": "occ",
				"energy": -0.25487,
				"method": "rhf"
			},
			{
				"type": "occ",
				"energy": -0.203,
				"method": "rhf"
			},
			{
				"type": "unocc",
				"energy": -0.05456,
				"method": "rhf"
			},
			{
				"type": "unocc",
				"energy": -0.03951,
				"method": "rhf"
			},
			{
				"type": "unocc",
				"energy": -0.01897,
				"method": "rhf"
			},
			{
				"type": "unocc",
				"energy": -0.00639,
				"method": "rhf"
			},
			{
				"type": "unocc",
				"energy": 0.00528,
				"method": "rhf"
			}
		],
		"cosmo_sigma_profile": { 
			"-0.025": 0.0,
			"-0.024": 0.0,
			"-0.023": 0.0,
			"-0.022": 0.0,
			"-0.021": 0.0,
			"-0.02": 0.0,
			"-0.019": 0.0,
			"-0.018": 0.0,
			"-0.017": 0.0,
			"-0.016": 0.0,
			"-0.015": 0.0,
			"-0.014": 0.104077376201,
			"-0.013": 1.20256774067,
			"-0.012": 3.67491786242,
			"-0.011": 3.62631795908,
			"-0.01": 3.68954253574,
			"-0.009": 5.87445185942,
			"-0.008": 11.4148219716,
			"-0.007": 11.7968014217,
			"-0.006": 12.1897741639,
			"-0.005": 13.5640719105,
			"-0.004": 16.3554864986,
			"-0.003": 16.7454828471,
			"-0.002": 15.7889808977,
			"-0.001": 23.006035004,
			"0.0": 27.8048448179,
			"0.001": 21.699892269,
			"0.002": 17.5864645043,
			"0.003": 19.2086059432,
			"0.004": 16.0740174581,
			"0.005": 18.3601368236,
			"0.006": 10.7468917882,
			"0.007": 6.44003032436,
			"0.008": 6.20824313067,
			"0.009": 6.40083325839,
			"0.01": 9.52274900488,
			"0.011": 6.16208466343,
			"0.012": 1.16378378657,
			"0.013": 0.503988529098,
			"0.014": 0.418559519835,
			"0.015": 0.0549580509207,
			"0.016": 0.0,
			"0.017": 0.0,
			"0.018": 0.0,
			"0.019": 0.0,
			"0.02": 0.0,
			"0.021": 0.0,
			"0.022": 0.0,
			"0.023": 0.0,
			"0.024": 0.0,
			"0.025": 0.0
		}
	}
}
