{
	 "smiles": "CCCC1=CC2=C(NC(=O)C2=O)C=C1", 
	 "Tm": 378.15, 
	 "num_atms": 25, 
	 "gaussian": { 
		 "optdone": 1, 
		 "sigma_profile": "yes", 
		 "theory": "DFT", 
		 "functional": "B3LYP", 
		 "basiset": "6-31G**", 
		 "properties": { 
			 "R2extent": 4364.3451, 
			 "electric_dipole_moment_norm": 6.09586993136, 
			 "electric_quadrupole_moment_norm": 31.9172784233, 
			 "total_energy": -631.013755062, 
			 "HOMO_LUMO_gap": 0.13807, 
			 "cosmo_polarized_energy": -15.09, 
			 "cosmo_cavitation_energy": 29.36, 
			 "cosmo_dispersion_energy": -20.91, 
			 "cosmo_repulsion_energy": 1.66, 
			 "cosmo_total_nonelectrostatic_energy": 10.11, 
			 "SMD_solvation_energy": 6.1 
		},
		"coords": [
			{
				"x": 0.3056463351,
				"y": -1.9152904445,
				"z": -2.5373659102,
				"element": "C" 
			},
			{
				"x": -0.8449442926,
				"y": -2.6399774897,
				"z": -1.833427709,
				"element": "C" 
			},
			{
				"x": -1.839937565,
				"y": -1.6968515598,
				"z": -1.120768035,
				"element": "C" 
			},
			{
				"x": -1.24378792,
				"y": -0.9346698481,
				"z": 0.0452797487,
				"element": "C" 
			},
			{
				"x": -1.0184472225,
				"y": -1.5717804371,
				"z": 1.2754212291,
				"element": "C" 
			},
			{
				"x": -0.4532533048,
				"y": -0.8599866157,
				"z": 2.3276604831,
				"element": "C" 
			},
			{
				"x": -0.1021959506,
				"y": 0.4965975397,
				"z": 2.1802573086,
				"element": "C" 
			},
			{
				"x": 0.4423686201,
				"y": 0.9913164732,
				"z": 3.3756777809,
				"element": "N" 
			},
			{
				"x": 0.486990022,
				"y": 0.0244323316,
				"z": 4.3685048355,
				"element": "C" 
			},
			{
				"x": 0.9013207628,
				"y": 0.1536403951,
				"z": 5.4979392958,
				"element": "O" 
			},
			{
				"x": -0.1167444001,
				"y": -1.2646596598,
				"z": 3.7023909453,
				"element": "C" 
			},
			{
				"x": -0.2458204509,
				"y": -2.3301887328,
				"z": 4.2646466895,
				"element": "O" 
			},
			{
				"x": -0.3154713164,
				"y": 1.1536842338,
				"z": 0.9770868868,
				"element": "C" 
			},
			{
				"x": -0.8859250213,
				"y": 0.4189590437,
				"z": -0.0723188935,
				"element": "C" 
			},
			{
				"x": -0.07024231,
				"y": -1.2279816396,
				"z": -3.3044905764,
				"element": "H" 
			},
			{
				"x": 0.9752701077,
				"y": -2.6272218845,
				"z": -3.0301654275,
				"element": "H" 
			},
			{
				"x": 0.9034736454,
				"y": -1.3304558629,
				"z": -1.8309103337,
				"element": "H" 
			},
			{
				"x": -1.4031038128,
				"y": -3.2376353981,
				"z": -2.5648805894,
				"element": "H" 
			},
			{
				"x": -0.4401093536,
				"y": -3.3507570414,
				"z": -1.1015517004,
				"element": "H" 
			},
			{
				"x": -2.2457432968,
				"y": -0.986071929,
				"z": -1.8513381706,
				"element": "H" 
			},
			{
				"x": -2.6897515783,
				"y": -2.2910698614,
				"z": -0.7629506364,
				"element": "H" 
			},
			{
				"x": -1.2847067536,
				"y": -2.6155218821,
				"z": 1.4216927388,
				"element": "H" 
			},
			{
				"x": 0.7670203153,
				"y": 1.9363166548,
				"z": 3.519041776,
				"element": "H" 
			},
			{
				"x": -0.0563845701,
				"y": 2.1996496287,
				"z": 0.8449619981,
				"element": "H" 
			},
			{
				"x": -1.0630206891,
				"y": 0.9234239858,
				"z": -1.0187937342,
				"element": "H" 
			}
		],
		 "valence_orbital": [ 
			{
				"type": "occ",
				"energy": -0.31683,
				"method": "rhf"
			},
			{
				"type": "occ",
				"energy": -0.30753,
				"method": "rhf"
			},
			{
				"type": "occ",
				"energy": -0.27562,
				"method": "rhf"
			},
			{
				"type": "occ",
				"energy": -0.24427,
				"method": "rhf"
			},
			{
				"type": "occ",
				"energy": -0.23288,
				"method": "rhf"
			},
			{
				"type": "unocc",
				"energy": -0.09481,
				"method": "rhf"
			},
			{
				"type": "unocc",
				"energy": -0.02161,
				"method": "rhf"
			},
			{
				"type": "unocc",
				"energy": 0.00949,
				"method": "rhf"
			},
			{
				"type": "unocc",
				"energy": 0.07603,
				"method": "rhf"
			},
			{
				"type": "unocc",
				"energy": 0.08021,
				"method": "rhf"
			}
		],
		"cosmo_sigma_profile": { 
			"-0.025": 0.0,
			"-0.024": 0.0,
			"-0.023": 0.0,
			"-0.022": 0.0,
			"-0.021": 0.0,
			"-0.02": 0.0,
			"-0.019": 0.0,
			"-0.018": 0.0,
			"-0.017": 0.288654168383,
			"-0.016": 1.34134149338,
			"-0.015": 1.55495153371,
			"-0.014": 1.16460921618,
			"-0.013": 0.781928878173,
			"-0.012": 1.03826462962,
			"-0.011": 1.52599252425,
			"-0.01": 1.07357157128,
			"-0.009": 1.5995543952,
			"-0.008": 1.93685299326,
			"-0.007": 5.33523333021,
			"-0.006": 8.15207273292,
			"-0.005": 9.77986226532,
			"-0.004": 11.5539780414,
			"-0.003": 17.857154722,
			"-0.002": 24.1577392844,
			"-0.001": 25.4972463568,
			"0.0": 28.5983665313,
			"0.001": 22.8340857018,
			"0.002": 15.8106433903,
			"0.003": 10.1404636924,
			"0.004": 3.4688581536,
			"0.005": 2.52332973473,
			"0.006": 1.85623342438,
			"0.007": 2.62239778784,
			"0.008": 3.96778187542,
			"0.009": 4.05999224272,
			"0.01": 7.68136836461,
			"0.011": 9.12512092507,
			"0.012": 5.09034548715,
			"0.013": 0.447272866116,
			"0.014": 0.0,
			"0.015": 0.0,
			"0.016": 0.0,
			"0.017": 0.0,
			"0.018": 0.0,
			"0.019": 0.0,
			"0.02": 0.0,
			"0.021": 0.0,
			"0.022": 0.0,
			"0.023": 0.0,
			"0.024": 0.0,
			"0.025": 0.0
		}
	}
}
