{
	 "smiles": "OC1(CCOCC1)C#N", 
	 "Tm": 317.15, 
	 "num_atms": 18, 
	 "gaussian": { 
		 "optdone": 1, 
		 "sigma_profile": "yes", 
		 "theory": "DFT", 
		 "functional": "B3LYP", 
		 "basiset": "6-31G**", 
		 "properties": { 
			 "R2extent": 1467.8284, 
			 "electric_dipole_moment_norm": 3.91853702675, 
			 "electric_quadrupole_moment_norm": 11.5563082946, 
			 "total_energy": -439.213275918, 
			 "HOMO_LUMO_gap": 0.27678, 
			 "cosmo_polarized_energy": -13.72, 
			 "cosmo_cavitation_energy": 20.91, 
			 "cosmo_dispersion_energy": -15.19, 
			 "cosmo_repulsion_energy": 1.26, 
			 "cosmo_total_nonelectrostatic_energy": 6.98, 
			 "SMD_solvation_energy": 4.61 
		},
		"coords": [
			{
				"x": 1.3293188324,
				"y": -0.6968950991,
				"z": 0.7792817495,
				"element": "O" 
			},
			{
				"x": 0.5432658935,
				"y": -0.614558968,
				"z": -0.4053163121,
				"element": "C" 
			},
			{
				"x": 0.7365085443,
				"y": 0.8190349626,
				"z": -0.960475639,
				"element": "C" 
			},
			{
				"x": 0.6057920411,
				"y": 0.838477278,
				"z": -2.4976571387,
				"element": "C" 
			},
			{
				"x": -0.3098420463,
				"y": -0.1514982981,
				"z": -2.940396015,
				"element": "O" 
			},
			{
				"x": 0.1953746375,
				"y": -1.473023412,
				"z": -2.775633233,
				"element": "C" 
			},
			{
				"x": 0.9986549032,
				"y": -1.6367313809,
				"z": -1.4668095736,
				"element": "C" 
			},
			{
				"x": -0.8799277162,
				"y": -0.8628760513,
				"z": -0.0557904761,
				"element": "C" 
			},
			{
				"x": -1.9698718754,
				"y": -1.1057099944,
				"z": 0.2618966337,
				"element": "N" 
			},
			{
				"x": 1.1645232883,
				"y": -1.5538296143,
				"z": 1.1979621275,
				"element": "H" 
			},
			{
				"x": 0.015374441,
				"y": 1.4936971198,
				"z": -0.4928815289,
				"element": "H" 
			},
			{
				"x": 1.73704808,
				"y": 1.138577894,
				"z": -0.6522625618,
				"element": "H" 
			},
			{
				"x": 1.589156198,
				"y": 0.6931084633,
				"z": -2.9730631105,
				"element": "H" 
			},
			{
				"x": 0.2144771794,
				"y": 1.7987207873,
				"z": -2.8421343089,
				"element": "H" 
			},
			{
				"x": -0.6837231342,
				"y": -2.1230116622,
				"z": -2.7749284425,
				"element": "H" 
			},
			{
				"x": 0.8267607698,
				"y": -1.7518051086,
				"z": -3.6338600567,
				"element": "H" 
			},
			{
				"x": 2.0668133203,
				"y": -1.4548735635,
				"z": -1.6252834763,
				"element": "H" 
			},
			{
				"x": 0.8963966434,
				"y": -2.6578033527,
				"z": -1.0837486377,
				"element": "H" 
			}
		],
		 "valence_orbital": [ 
			{
				"type": "occ",
				"energy": -0.33576,
				"method": "rhf"
			},
			{
				"type": "occ",
				"energy": -0.32511,
				"method": "rhf"
			},
			{
				"type": "occ",
				"energy": -0.31644,
				"method": "rhf"
			},
			{
				"type": "occ",
				"energy": -0.30023,
				"method": "rhf"
			},
			{
				"type": "occ",
				"energy": -0.26219,
				"method": "rhf"
			},
			{
				"type": "unocc",
				"energy": 0.01459,
				"method": "rhf"
			},
			{
				"type": "unocc",
				"energy": 0.03271,
				"method": "rhf"
			},
			{
				"type": "unocc",
				"energy": 0.06004,
				"method": "rhf"
			},
			{
				"type": "unocc",
				"energy": 0.08853,
				"method": "rhf"
			},
			{
				"type": "unocc",
				"energy": 0.10128,
				"method": "rhf"
			}
		],
		"cosmo_sigma_profile": { 
			"-0.025": 0.0,
			"-0.024": 0.0,
			"-0.023": 0.0,
			"-0.022": 0.0,
			"-0.021": 0.0,
			"-0.02": 0.0,
			"-0.019": 0.0,
			"-0.018": 0.0549818611123,
			"-0.017": 0.823588199587,
			"-0.016": 0.901768499229,
			"-0.015": 1.28576336554,
			"-0.014": 0.802750244886,
			"-0.013": 1.41795573329,
			"-0.012": 0.959019152311,
			"-0.011": 0.666798501404,
			"-0.01": 0.723528221799,
			"-0.009": 1.17435512986,
			"-0.008": 1.19977750532,
			"-0.007": 1.75329732931,
			"-0.006": 7.03587664912,
			"-0.005": 21.6307505628,
			"-0.004": 21.2991466452,
			"-0.003": 16.1522563245,
			"-0.002": 11.4398001599,
			"-0.001": 6.05128153485,
			"0.0": 4.79375840365,
			"0.001": 4.43992741312,
			"0.002": 5.19543633492,
			"0.003": 4.33036547678,
			"0.004": 3.93928093033,
			"0.005": 4.76490006328,
			"0.006": 4.80661560657,
			"0.007": 5.51079475215,
			"0.008": 6.14665923343,
			"0.009": 5.90059266496,
			"0.01": 5.3374017622,
			"0.011": 5.49461129204,
			"0.012": 4.81899072518,
			"0.013": 2.81558819264,
			"0.014": 0.117053158786,
			"0.015": 0.0,
			"0.016": 0.0,
			"0.017": 0.0,
			"0.018": 0.0,
			"0.019": 0.0,
			"0.02": 0.0,
			"0.021": 0.0,
			"0.022": 0.0,
			"0.023": 0.0,
			"0.024": 0.0,
			"0.025": 0.0
		}
	}
}
