{
	 "smiles": "OCC(Br)(Br)Br", 
	 "Tm": 353.15, 
	 "num_atms": 9, 
	 "gaussian": { 
		 "optdone": 1, 
		 "sigma_profile": "yes", 
		 "theory": "DFT", 
		 "functional": "B3LYP", 
		 "basiset": "6-31G**", 
		 "properties": { 
			 "R2extent": 5503.8469, 
			 "electric_dipole_moment_norm": 1.25069147275, 
			 "electric_quadrupole_moment_norm": 4.88994143523, 
			 "total_energy": -7867.4295717, 
			 "HOMO_LUMO_gap": 0.20712, 
			 "cosmo_polarized_energy": -6.51, 
			 "cosmo_cavitation_energy": 19.29, 
			 "cosmo_dispersion_energy": -15.39, 
			 "cosmo_repulsion_energy": 1.3, 
			 "cosmo_total_nonelectrostatic_energy": 5.2, 
			 "SMD_solvation_energy": 0.08 
		},
		"coords": [
			{
				"x": 2.6629342695,
				"y": -1.8247470153,
				"z": 0.2394718135,
				"element": "O" 
			},
			{
				"x": 2.6567197917,
				"y": -0.5174719252,
				"z": 0.7303688039,
				"element": "C" 
			},
			{
				"x": 2.6855381115,
				"y": 0.5516948582,
				"z": -0.3805943939,
				"element": "C" 
			},
			{
				"x": 1.0516042561,
				"y": 0.3540995422,
				"z": -1.4864439074,
				"element": "Br" 
			},
			{
				"x": 4.2644333765,
				"y": 0.341101874,
				"z": -1.5161643944,
				"element": "Br" 
			},
			{
				"x": 2.6895665515,
				"y": 2.3246119326,
				"z": 0.4638905974,
				"element": "Br" 
			},
			{
				"x": 1.8422759096,
				"y": -1.9640418834,
				"z": -0.2560183151,
				"element": "H" 
			},
			{
				"x": 1.783392277,
				"y": -0.295456455,
				"z": 1.3600871906,
				"element": "H" 
			},
			{
				"x": 3.5613354566,
				"y": -0.3907909281,
				"z": 1.3312026055,
				"element": "H" 
			}
		],
		 "valence_orbital": [ 
			{
				"type": "occ",
				"energy": -0.315,
				"method": "rhf"
			},
			{
				"type": "occ",
				"energy": -0.30295,
				"method": "rhf"
			},
			{
				"type": "occ",
				"energy": -0.29327,
				"method": "rhf"
			},
			{
				"type": "occ",
				"energy": -0.29232,
				"method": "rhf"
			},
			{
				"type": "occ",
				"energy": -0.28122,
				"method": "rhf"
			},
			{
				"type": "unocc",
				"energy": -0.0741,
				"method": "rhf"
			},
			{
				"type": "unocc",
				"energy": -0.02368,
				"method": "rhf"
			},
			{
				"type": "unocc",
				"energy": -0.01616,
				"method": "rhf"
			},
			{
				"type": "unocc",
				"energy": 0.07719,
				"method": "rhf"
			},
			{
				"type": "unocc",
				"energy": 0.12133,
				"method": "rhf"
			}
		],
		"cosmo_sigma_profile": { 
			"-0.025": 0.0,
			"-0.024": 0.0,
			"-0.023": 0.0,
			"-0.022": 0.0,
			"-0.021": 0.0,
			"-0.02": 0.0,
			"-0.019": 0.0,
			"-0.018": 0.0,
			"-0.017": 0.0,
			"-0.016": 0.0,
			"-0.015": 0.299250899403,
			"-0.014": 0.72738062078,
			"-0.013": 0.656926171071,
			"-0.012": 1.07368094324,
			"-0.011": 0.704071275259,
			"-0.01": 1.02973696262,
			"-0.009": 1.10569797018,
			"-0.008": 2.18572426824,
			"-0.007": 5.44124565913,
			"-0.006": 8.20021138237,
			"-0.005": 9.65453901532,
			"-0.004": 8.26008074312,
			"-0.003": 8.14374309926,
			"-0.002": 9.14256961675,
			"-0.001": 9.61173755533,
			"0.0": 11.5404896629,
			"0.001": 12.6109908942,
			"0.002": 15.9261470331,
			"0.003": 31.5309281935,
			"0.004": 11.1901300583,
			"0.005": 1.54429722882,
			"0.006": 2.24115475006,
			"0.007": 1.06972287055,
			"0.008": 1.50747099097,
			"0.009": 1.4341203144,
			"0.01": 1.36202110487,
			"0.011": 1.72748787668,
			"0.012": 2.06083370699,
			"0.013": 0.490835297543,
			"0.014": 0.0,
			"0.015": 0.0,
			"0.016": 0.0,
			"0.017": 0.0,
			"0.018": 0.0,
			"0.019": 0.0,
			"0.02": 0.0,
			"0.021": 0.0,
			"0.022": 0.0,
			"0.023": 0.0,
			"0.024": 0.0,
			"0.025": 0.0
		}
	}
}
