{
	 "smiles": "[O-][N+](=O)C1=CN(CC2=CC=CC=C2)C(=O)C=C1", 
	 "Tm": 369.15, 
	 "num_atms": 27, 
	 "gaussian": { 
		 "optdone": 1, 
		 "sigma_profile": "yes", 
		 "theory": "DFT", 
		 "functional": "B3LYP", 
		 "basiset": "6-31G**", 
		 "properties": { 
			 "R2extent": 5162.4199, 
			 "electric_dipole_moment_norm": 2.8360062782, 
			 "electric_quadrupole_moment_norm": 21.7974978259, 
			 "total_energy": -798.383840091, 
			 "HOMO_LUMO_gap": 0.15715, 
			 "cosmo_polarized_energy": -14.59, 
			 "cosmo_cavitation_energy": 32.29, 
			 "cosmo_dispersion_energy": -22.88, 
			 "cosmo_repulsion_energy": 1.76, 
			 "cosmo_total_nonelectrostatic_energy": 11.16, 
			 "SMD_solvation_energy": 8.3 
		},
		"coords": [
			{
				"x": 1.9515008454,
				"y": -3.0420735271,
				"z": -2.5216516359,
				"element": "O" 
			},
			{
				"x": 1.7749204136,
				"y": -2.1998101503,
				"z": -3.4075687326,
				"element": "N" 
			},
			{
				"x": 1.7861888958,
				"y": -2.4389813738,
				"z": -4.6167440596,
				"element": "O" 
			},
			{
				"x": 1.5375599233,
				"y": -0.829352426,
				"z": -3.0047409454,
				"element": "C" 
			},
			{
				"x": 1.5153350402,
				"y": -0.5264669108,
				"z": -1.6672086684,
				"element": "C" 
			},
			{
				"x": 1.3074011846,
				"y": 0.7372118878,
				"z": -1.2445403176,
				"element": "N" 
			},
			{
				"x": 1.2800311285,
				"y": 1.0347015073,
				"z": 0.2106833437,
				"element": "C" 
			},
			{
				"x": -0.0653570241,
				"y": 0.7585405836,
				"z": 0.8482805299,
				"element": "C" 
			},
			{
				"x": -1.1400756111,
				"y": 1.6371067446,
				"z": 0.6466476519,
				"element": "C" 
			},
			{
				"x": -2.3799160719,
				"y": 1.3717242934,
				"z": 1.2263700395,
				"element": "C" 
			},
			{
				"x": -2.5598280852,
				"y": 0.2320721809,
				"z": 2.0150874263,
				"element": "C" 
			},
			{
				"x": -1.4934146675,
				"y": -0.6426153483,
				"z": 2.2241157482,
				"element": "C" 
			},
			{
				"x": -0.2517291435,
				"y": -0.3792760823,
				"z": 1.6418187662,
				"element": "C" 
			},
			{
				"x": 1.0713586581,
				"y": 1.8286058167,
				"z": -2.1458437821,
				"element": "C" 
			},
			{
				"x": 0.8521071498,
				"y": 2.9506905126,
				"z": -1.701734419,
				"element": "O" 
			},
			{
				"x": 1.1202168746,
				"y": 1.4688310952,
				"z": -3.5510082629,
				"element": "C" 
			},
			{
				"x": 1.3377329201,
				"y": 0.19267528,
				"z": -3.9717320706,
				"element": "C" 
			},
			{
				"x": 1.6632914254,
				"y": -1.2960546769,
				"z": -0.9198196372,
				"element": "H" 
			},
			{
				"x": 1.5464602414,
				"y": 2.0884286024,
				"z": 0.2972888168,
				"element": "H" 
			},
			{
				"x": 2.0608665499,
				"y": 0.4300062333,
				"z": 0.6784053761,
				"element": "H" 
			},
			{
				"x": -0.9934412826,
				"y": 2.5215503334,
				"z": 0.0340632016,
				"element": "H" 
			},
			{
				"x": -3.206503985,
				"y": 2.0579947106,
				"z": 1.0664324632,
				"element": "H" 
			},
			{
				"x": -3.5262445666,
				"y": 0.0299283111,
				"z": 2.4676955973,
				"element": "H" 
			},
			{
				"x": -1.624497536,
				"y": -1.5272189161,
				"z": 2.8404184907,
				"element": "H" 
			},
			{
				"x": 0.5791153186,
				"y": -1.0596295613,
				"z": 1.8152234845,
				"element": "H" 
			},
			{
				"x": 0.9605627871,
				"y": 2.2828667255,
				"z": -4.2477451251,
				"element": "H" 
			},
			{
				"x": 1.3638586169,
				"y": -0.0716558454,
				"z": -5.0222932796,
				"element": "H" 
			}
		],
		 "valence_orbital": [ 
			{
				"type": "occ",
				"energy": -0.29548,
				"method": "rhf"
			},
			{
				"type": "occ",
				"energy": -0.2789,
				"method": "rhf"
			},
			{
				"type": "occ",
				"energy": -0.26303,
				"method": "rhf"
			},
			{
				"type": "occ",
				"energy": -0.25976,
				"method": "rhf"
			},
			{
				"type": "occ",
				"energy": -0.24556,
				"method": "rhf"
			},
			{
				"type": "unocc",
				"energy": -0.08841,
				"method": "rhf"
			},
			{
				"type": "unocc",
				"energy": -0.06381,
				"method": "rhf"
			},
			{
				"type": "unocc",
				"energy": -0.02098,
				"method": "rhf"
			},
			{
				"type": "unocc",
				"energy": -0.01396,
				"method": "rhf"
			},
			{
				"type": "unocc",
				"energy": 0.01157,
				"method": "rhf"
			}
		],
		"cosmo_sigma_profile": { 
			"-0.025": 0.0,
			"-0.024": 0.0,
			"-0.023": 0.0,
			"-0.022": 0.0,
			"-0.021": 0.0,
			"-0.02": 0.0,
			"-0.019": 0.0,
			"-0.018": 0.0,
			"-0.017": 0.0,
			"-0.016": 0.0,
			"-0.015": 0.0,
			"-0.014": 0.0,
			"-0.013": 0.0,
			"-0.012": 0.302843944761,
			"-0.011": 1.19304945079,
			"-0.01": 1.7829232291,
			"-0.009": 3.14788762814,
			"-0.008": 5.52042851833,
			"-0.007": 7.86886610648,
			"-0.006": 14.1490319048,
			"-0.005": 19.3139493409,
			"-0.004": 26.4912203338,
			"-0.003": 21.8558358659,
			"-0.002": 18.6445577972,
			"-0.001": 17.3279865376,
			"0.0": 14.6679108224,
			"0.001": 14.9383145421,
			"0.002": 11.8654255862,
			"0.003": 11.3415448299,
			"0.004": 11.2393608664,
			"0.005": 13.1678174705,
			"0.006": 8.10006117714,
			"0.007": 6.72645694646,
			"0.008": 10.0074382817,
			"0.009": 6.07107800341,
			"0.01": 5.08790025489,
			"0.011": 2.37679299368,
			"0.012": 2.9397982183,
			"0.013": 2.6307998775,
			"0.014": 0.507663806762,
			"0.015": 0.0,
			"0.016": 0.0,
			"0.017": 0.0,
			"0.018": 0.0,
			"0.019": 0.0,
			"0.02": 0.0,
			"0.021": 0.0,
			"0.022": 0.0,
			"0.023": 0.0,
			"0.024": 0.0,
			"0.025": 0.0
		}
	}
}
