{
	 "smiles": "OC(=O)C1=C(OC2CCCCC2)C=CC=C1", 
	 "Tm": 360.15, 
	 "num_atms": 32, 
	 "gaussian": { 
		 "optdone": 1, 
		 "sigma_profile": "yes", 
		 "theory": "DFT", 
		 "functional": "B3LYP", 
		 "basiset": "6-31G**", 
		 "properties": { 
			 "R2extent": 4267.4281, 
			 "electric_dipole_moment_norm": 3.36353337281, 
			 "electric_quadrupole_moment_norm": 9.92067764923, 
			 "total_energy": -730.715111206, 
			 "HOMO_LUMO_gap": 0.18397, 
			 "cosmo_polarized_energy": -11.08, 
			 "cosmo_cavitation_energy": 33.15, 
			 "cosmo_dispersion_energy": -23.83, 
			 "cosmo_repulsion_energy": 1.86, 
			 "cosmo_total_nonelectrostatic_energy": 11.18, 
			 "SMD_solvation_energy": 6.16 
		},
		"coords": [
			{
				"x": 0.239146985,
				"y": 1.5106754251,
				"z": -3.0478333887,
				"element": "O" 
			},
			{
				"x": 1.5385789878,
				"y": 1.2923287075,
				"z": -2.7356912676,
				"element": "C" 
			},
			{
				"x": 2.4247295615,
				"y": 1.6055798367,
				"z": -3.5125425396,
				"element": "O" 
			},
			{
				"x": 1.7980013688,
				"y": 0.6554877151,
				"z": -1.4138321641,
				"element": "C" 
			},
			{
				"x": 0.8187786119,
				"y": 0.2892463949,
				"z": -0.4513468464,
				"element": "C" 
			},
			{
				"x": -0.4758102071,
				"y": 0.5592271025,
				"z": -0.733459235,
				"element": "O" 
			},
			{
				"x": -1.5489765458,
				"y": 0.1580062776,
				"z": 0.1507766122,
				"element": "C" 
			},
			{
				"x": -2.7675217345,
				"y": 1.020920044,
				"z": -0.238980871,
				"element": "C" 
			},
			{
				"x": -3.6964124701,
				"y": 0.339851944,
				"z": -1.2684313828,
				"element": "C" 
			},
			{
				"x": -2.8973399973,
				"y": -0.5459267071,
				"z": -2.2334514794,
				"element": "C" 
			},
			{
				"x": -2.1982768896,
				"y": -1.700345378,
				"z": -1.4765768495,
				"element": "C" 
			},
			{
				"x": -1.8551635673,
				"y": -1.3343141499,
				"z": -0.012398367,
				"element": "C" 
			},
			{
				"x": 1.2405594057,
				"y": -0.3101379678,
				"z": 0.7490788616,
				"element": "C" 
			},
			{
				"x": 2.5920234567,
				"y": -0.5355731061,
				"z": 0.9975437902,
				"element": "C" 
			},
			{
				"x": 3.5604175244,
				"y": -0.1753013898,
				"z": 0.0596254488,
				"element": "C" 
			},
			{
				"x": 3.1519798049,
				"y": 0.413763647,
				"z": -1.1297759759,
				"element": "C" 
			},
			{
				"x": 0.2703917024,
				"y": 1.9205831232,
				"z": -3.9290805612,
				"element": "H" 
			},
			{
				"x": -1.2569565307,
				"y": 0.3914954151,
				"z": 1.1814220695,
				"element": "H" 
			},
			{
				"x": -3.3311015578,
				"y": 1.2648285612,
				"z": 0.6688107,
				"element": "H" 
			},
			{
				"x": -2.3796386047,
				"y": 1.9641525703,
				"z": -0.6358067886,
				"element": "H" 
			},
			{
				"x": -4.4436313661,
				"y": -0.274330828,
				"z": -0.7477749957,
				"element": "H" 
			},
			{
				"x": -4.259328868,
				"y": 1.1034900054,
				"z": -1.8161755536,
				"element": "H" 
			},
			{
				"x": -3.5506647918,
				"y": -0.9501821014,
				"z": -3.0147360095,
				"element": "H" 
			},
			{
				"x": -2.1417819549,
				"y": 0.069833674,
				"z": -2.7321193851,
				"element": "H" 
			},
			{
				"x": -2.8386121241,
				"y": -2.5902106367,
				"z": -1.4678469939,
				"element": "H" 
			},
			{
				"x": -1.2846742055,
				"y": -1.9831334756,
				"z": -2.0089870296,
				"element": "H" 
			},
			{
				"x": -2.7065711318,
				"y": -1.5556337902,
				"z": 0.6440334208,
				"element": "H" 
			},
			{
				"x": -1.0230322732,
				"y": -1.9477523665,
				"z": 0.3464402282,
				"element": "H" 
			},
			{
				"x": 0.5137212621,
				"y": -0.602870561,
				"z": 1.495387766,
				"element": "H" 
			},
			{
				"x": 2.8844557321,
				"y": -0.9996559823,
				"z": 1.9355934271,
				"element": "H" 
			},
			{
				"x": 4.6133022216,
				"y": -0.3524874845,
				"z": 0.2526690631,
				"element": "H" 
			},
			{
				"x": 3.8719081952,
				"y": 0.7087854812,
				"z": -1.8850337035,
				"element": "H" 
			}
		],
		 "valence_orbital": [ 
			{
				"type": "occ",
				"energy": -0.30045,
				"method": "rhf"
			},
			{
				"type": "occ",
				"energy": -0.29782,
				"method": "rhf"
			},
			{
				"type": "occ",
				"energy": -0.26775,
				"method": "rhf"
			},
			{
				"type": "occ",
				"energy": -0.2563,
				"method": "rhf"
			},
			{
				"type": "occ",
				"energy": -0.22423,
				"method": "rhf"
			},
			{
				"type": "unocc",
				"energy": -0.04026,
				"method": "rhf"
			},
			{
				"type": "unocc",
				"energy": 0.00591,
				"method": "rhf"
			},
			{
				"type": "unocc",
				"energy": 0.06164,
				"method": "rhf"
			},
			{
				"type": "unocc",
				"energy": 0.07441,
				"method": "rhf"
			},
			{
				"type": "unocc",
				"energy": 0.08541,
				"method": "rhf"
			}
		],
		"cosmo_sigma_profile": { 
			"-0.025": 0.0,
			"-0.024": 0.0,
			"-0.023": 0.0,
			"-0.022": 0.0,
			"-0.021": 0.0,
			"-0.02": 0.0,
			"-0.019": 0.0,
			"-0.018": 0.25970725663,
			"-0.017": 0.822259420151,
			"-0.016": 1.03071085877,
			"-0.015": 0.543748764982,
			"-0.014": 0.755181561265,
			"-0.013": 0.628744715357,
			"-0.012": 0.429367526539,
			"-0.011": 0.795000253076,
			"-0.01": 0.944369077258,
			"-0.009": 0.605101859473,
			"-0.008": 0.512003693547,
			"-0.007": 3.50035310071,
			"-0.006": 7.94861742965,
			"-0.005": 10.7876390593,
			"-0.004": 13.2249276166,
			"-0.003": 22.3799228467,
			"-0.002": 28.1649748261,
			"-0.001": 31.222082894,
			"0.0": 30.2655024773,
			"0.001": 28.5795233387,
			"0.002": 17.2862731755,
			"0.003": 13.2553030278,
			"0.004": 13.8387265759,
			"0.005": 7.28353668643,
			"0.006": 3.96138917034,
			"0.007": 2.9287011928,
			"0.008": 2.57120065489,
			"0.009": 3.48964957518,
			"0.01": 2.36199374157,
			"0.011": 3.71201769689,
			"0.012": 5.30715429161,
			"0.013": 0.893543363133,
			"0.014": 0.0,
			"0.015": 0.0,
			"0.016": 0.0,
			"0.017": 0.0,
			"0.018": 0.0,
			"0.019": 0.0,
			"0.02": 0.0,
			"0.021": 0.0,
			"0.022": 0.0,
			"0.023": 0.0,
			"0.024": 0.0,
			"0.025": 0.0
		}
	}
}
