{
	 "smiles": "CC1=C(C(O)=O)C(N)=C(Cl)C=C1", 
	 "Tm": 393.15, 
	 "num_atms": 20, 
	 "gaussian": { 
		 "optdone": 1, 
		 "sigma_profile": "yes", 
		 "theory": "DFT", 
		 "functional": "B3LYP", 
		 "basiset": "6-31G**", 
		 "properties": { 
			 "R2extent": 3744.105, 
			 "electric_dipole_moment_norm": 1.3703572308, 
			 "electric_quadrupole_moment_norm": 5.12524053582, 
			 "total_energy": -975.096386128, 
			 "HOMO_LUMO_gap": 0.1589, 
			 "cosmo_polarized_energy": -7.99, 
			 "cosmo_cavitation_energy": 24.87, 
			 "cosmo_dispersion_energy": -19.26, 
			 "cosmo_repulsion_energy": 1.52, 
			 "cosmo_total_nonelectrostatic_energy": 7.13, 
			 "SMD_solvation_energy": 4.94 
		},
		"coords": [
			{
				"x": 1.8309706447,
				"y": -2.3379410173,
				"z": -0.7968768087,
				"element": "C" 
			},
			{
				"x": 0.3283275277,
				"y": -2.2312819532,
				"z": -0.6463768799,
				"element": "C" 
			},
			{
				"x": -0.4327228739,
				"y": -1.0617469924,
				"z": -0.9503848247,
				"element": "C" 
			},
			{
				"x": 0.1674583709,
				"y": 0.1889310202,
				"z": -1.4514972773,
				"element": "C" 
			},
			{
				"x": 1.5126358256,
				"y": 0.1735543233,
				"z": -1.6155395792,
				"element": "O" 
			},
			{
				"x": -0.442570189,
				"y": 1.2220673533,
				"z": -1.7264477713,
				"element": "O" 
			},
			{
				"x": -1.8626409119,
				"y": -1.067245041,
				"z": -0.7702367901,
				"element": "C" 
			},
			{
				"x": -2.6382245738,
				"y": 0.0075983437,
				"z": -1.0398563805,
				"element": "N" 
			},
			{
				"x": -2.4605078279,
				"y": -2.261826455,
				"z": -0.2887640743,
				"element": "C" 
			},
			{
				"x": -4.2096140602,
				"y": -2.3062831694,
				"z": -0.0558548847,
				"element": "Cl" 
			},
			{
				"x": -1.7163492772,
				"y": -3.3837233677,
				"z": 0.0010081218,
				"element": "C" 
			},
			{
				"x": -0.3307382344,
				"y": -3.365119501,
				"z": -0.1777648863,
				"element": "C" 
			},
			{
				"x": 2.1523337,
				"y": -2.1657218152,
				"z": -1.8270347594,
				"element": "H" 
			},
			{
				"x": 2.3570067132,
				"y": -1.6035042127,
				"z": -0.1820477012,
				"element": "H" 
			},
			{
				"x": 2.1563788677,
				"y": -3.3367278451,
				"z": -0.496025276,
				"element": "H" 
			},
			{
				"x": 1.7276023328,
				"y": 1.0622972948,
				"z": -1.9448276133,
				"element": "H" 
			},
			{
				"x": -2.1869357611,
				"y": 0.8468738555,
				"z": -1.3811347365,
				"element": "H" 
			},
			{
				"x": -3.6319079995,
				"y": -0.0521641811,
				"z": -0.8955046119,
				"element": "H" 
			},
			{
				"x": -2.2141384423,
				"y": -4.2754649902,
				"z": 0.3669936257,
				"element": "H" 
			},
			{
				"x": 0.2426361689,
				"y": -4.2560716495,
				"z": 0.0546731077,
				"element": "H" 
			}
		],
		 "valence_orbital": [ 
			{
				"type": "occ",
				"energy": -0.31777,
				"method": "rhf"
			},
			{
				"type": "occ",
				"energy": -0.3146,
				"method": "rhf"
			},
			{
				"type": "occ",
				"energy": -0.28175,
				"method": "rhf"
			},
			{
				"type": "occ",
				"energy": -0.25161,
				"method": "rhf"
			},
			{
				"type": "occ",
				"energy": -0.20743,
				"method": "rhf"
			},
			{
				"type": "unocc",
				"energy": -0.04853,
				"method": "rhf"
			},
			{
				"type": "unocc",
				"energy": 0.00848,
				"method": "rhf"
			},
			{
				"type": "unocc",
				"energy": 0.02693,
				"method": "rhf"
			},
			{
				"type": "unocc",
				"energy": 0.05201,
				"method": "rhf"
			},
			{
				"type": "unocc",
				"energy": 0.08064,
				"method": "rhf"
			}
		],
		"cosmo_sigma_profile": { 
			"-0.025": 0.0,
			"-0.024": 0.0,
			"-0.023": 0.0,
			"-0.022": 0.0,
			"-0.021": 0.0,
			"-0.02": 0.0,
			"-0.019": 0.0,
			"-0.018": 0.271485781683,
			"-0.017": 1.02250640857,
			"-0.016": 0.709671272066,
			"-0.015": 0.761755712635,
			"-0.014": 0.784350908278,
			"-0.013": 0.857931379733,
			"-0.012": 1.07123266926,
			"-0.011": 1.58048690886,
			"-0.01": 1.43818682907,
			"-0.009": 1.80542633507,
			"-0.008": 2.76224440228,
			"-0.007": 3.83815661473,
			"-0.006": 5.78834559012,
			"-0.005": 7.88254292442,
			"-0.004": 7.20809714173,
			"-0.003": 10.8413454652,
			"-0.002": 12.8016005899,
			"-0.001": 15.7144930081,
			"0.0": 21.6302066392,
			"0.001": 18.8426340606,
			"0.002": 22.1274895907,
			"0.003": 20.4000814624,
			"0.004": 17.614081746,
			"0.005": 11.1035835442,
			"0.006": 2.08686519566,
			"0.007": 1.8806530201,
			"0.008": 0.985376421562,
			"0.009": 1.27453060953,
			"0.01": 1.94471640209,
			"0.011": 2.03335349297,
			"0.012": 1.26885591835,
			"0.013": 0.000646802911515,
			"0.014": 0.0,
			"0.015": 0.0,
			"0.016": 0.0,
			"0.017": 0.0,
			"0.018": 0.0,
			"0.019": 0.0,
			"0.02": 0.0,
			"0.021": 0.0,
			"0.022": 0.0,
			"0.023": 0.0,
			"0.024": 0.0,
			"0.025": 0.0
		}
	}
}
