{
	 "smiles": "OC(=O)CCCC[C@@H]1SC[C@@H]2NC(=O)N[C@H]12", 
	 "Tm": 504.15, 
	 "num_atms": 32, 
	 "gaussian": { 
		 "optdone": 1, 
		 "sigma_profile": "yes", 
		 "theory": "DFT", 
		 "functional": "B3LYP", 
		 "basiset": "6-31G**", 
		 "properties": { 
			 "R2extent": 4740.059, 
			 "electric_dipole_moment_norm": 4.82584385263, 
			 "electric_quadrupole_moment_norm": 29.873953988, 
			 "total_energy": -1124.10451234, 
			 "HOMO_LUMO_gap": 0.2353, 
			 "cosmo_polarized_energy": -28.02, 
			 "cosmo_cavitation_energy": 35.09, 
			 "cosmo_dispersion_energy": -24.88, 
			 "cosmo_repulsion_energy": 1.95, 
			 "cosmo_total_nonelectrostatic_energy": 12.16, 
			 "SMD_solvation_energy": 5.77 
		},
		"coords": [
			{
				"x": -2.7029482917,
				"y": 3.2301966419,
				"z": 2.5608706193,
				"element": "O" 
			},
			{
				"x": -2.6224139081,
				"y": 1.9669055626,
				"z": 2.0600889283,
				"element": "C" 
			},
			{
				"x": -2.7747351766,
				"y": 1.7801715314,
				"z": 0.878975462,
				"element": "O" 
			},
			{
				"x": -2.3877351567,
				"y": 0.8699524026,
				"z": 3.0957103396,
				"element": "C" 
			},
			{
				"x": -2.0083431199,
				"y": -0.491523221,
				"z": 2.494203066,
				"element": "C" 
			},
			{
				"x": -0.5067500411,
				"y": -0.6928711227,
				"z": 2.2271301744,
				"element": "C" 
			},
			{
				"x": 0.1096202473,
				"y": 0.2806882422,
				"z": 1.2089569073,
				"element": "C" 
			},
			{
				"x": 1.5927631287,
				"y": -0.0142502684,
				"z": 0.9084356373,
				"element": "C" 
			},
			{
				"x": 2.5204031819,
				"y": 1.4735277278,
				"z": 0.316846727,
				"element": "S" 
			},
			{
				"x": 1.8701817493,
				"y": 1.2142294911,
				"z": -1.3822147254,
				"element": "C" 
			},
			{
				"x": 1.9079484533,
				"y": -0.3081218411,
				"z": -1.6147477284,
				"element": "C" 
			},
			{
				"x": 0.7462833168,
				"y": -0.8445239142,
				"z": -2.3089011943,
				"element": "N" 
			},
			{
				"x": 0.2645045767,
				"y": -2.0040802677,
				"z": -1.7094024442,
				"element": "C" 
			},
			{
				"x": -0.5094662948,
				"y": -2.8091952736,
				"z": -2.1916084196,
				"element": "O" 
			},
			{
				"x": 0.8225285804,
				"y": -2.0481033672,
				"z": -0.4384344347,
				"element": "N" 
			},
			{
				"x": 1.8563377905,
				"y": -1.0526299325,
				"z": -0.2254769438,
				"element": "C" 
			},
			{
				"x": -2.5527488537,
				"y": 3.2208186765,
				"z": 3.5168108424,
				"element": "H" 
			},
			{
				"x": -1.6306666544,
				"y": 1.2044877864,
				"z": 3.8192597356,
				"element": "H" 
			},
			{
				"x": -3.3261141449,
				"y": 0.7819104124,
				"z": 3.6612106357,
				"element": "H" 
			},
			{
				"x": -2.3407043548,
				"y": -1.2771277785,
				"z": 3.182180711,
				"element": "H" 
			},
			{
				"x": -2.5713708247,
				"y": -0.6216358926,
				"z": 1.5641420763,
				"element": "H" 
			},
			{
				"x": -0.3657772185,
				"y": -1.7211524051,
				"z": 1.8782915355,
				"element": "H" 
			},
			{
				"x": 0.0424424864,
				"y": -0.6109301673,
				"z": 3.1775829924,
				"element": "H" 
			},
			{
				"x": -0.4770277757,
				"y": 0.2668514647,
				"z": 0.2853723028,
				"element": "H" 
			},
			{
				"x": 0.0466974313,
				"y": 1.3023938088,
				"z": 1.5961999124,
				"element": "H" 
			},
			{
				"x": 2.0972088679,
				"y": -0.3335031076,
				"z": 1.8271101284,
				"element": "H" 
			},
			{
				"x": 2.4972434097,
				"y": 1.7653122413,
				"z": -2.0862683764,
				"element": "H" 
			},
			{
				"x": 0.8445957715,
				"y": 1.5844272425,
				"z": -1.4569613714,
				"element": "H" 
			},
			{
				"x": 2.8401430806,
				"y": -0.5692731075,
				"z": -2.1325717684,
				"element": "H" 
			},
			{
				"x": 0.6642779616,
				"y": -0.7951183457,
				"z": -3.3134882693,
				"element": "H" 
			},
			{
				"x": 0.7893955969,
				"y": -2.9237117942,
				"z": 0.0586872048,
				"element": "H" 
			},
			{
				"x": 2.8262261847,
				"y": -1.5216214254,
				"z": -0.0293902627,
				"element": "H" 
			}
		],
		 "valence_orbital": [ 
			{
				"type": "occ",
				"energy": -0.27238,
				"method": "rhf"
			},
			{
				"type": "occ",
				"energy": -0.26016,
				"method": "rhf"
			},
			{
				"type": "occ",
				"energy": -0.25551,
				"method": "rhf"
			},
			{
				"type": "occ",
				"energy": -0.24479,
				"method": "rhf"
			},
			{
				"type": "occ",
				"energy": -0.22633,
				"method": "rhf"
			},
			{
				"type": "unocc",
				"energy": 0.00897,
				"method": "rhf"
			},
			{
				"type": "unocc",
				"energy": 0.01841,
				"method": "rhf"
			},
			{
				"type": "unocc",
				"energy": 0.05089,
				"method": "rhf"
			},
			{
				"type": "unocc",
				"energy": 0.05513,
				"method": "rhf"
			},
			{
				"type": "unocc",
				"energy": 0.05735,
				"method": "rhf"
			}
		],
		"cosmo_sigma_profile": { 
			"-0.025": 0.0,
			"-0.024": 0.0,
			"-0.023": 0.0,
			"-0.022": 0.0,
			"-0.021": 0.0,
			"-0.02": 0.0,
			"-0.019": 0.430729015287,
			"-0.018": 1.00303359347,
			"-0.017": 0.761939948473,
			"-0.016": 1.14604388735,
			"-0.015": 1.44141194266,
			"-0.014": 2.06483559221,
			"-0.013": 3.06064245841,
			"-0.012": 3.92940515659,
			"-0.011": 2.88350893869,
			"-0.01": 3.43895254602,
			"-0.009": 3.32113330656,
			"-0.008": 4.16348861692,
			"-0.007": 6.1727808467,
			"-0.006": 13.8661511798,
			"-0.005": 24.7585266323,
			"-0.004": 17.2434150599,
			"-0.003": 22.3471974024,
			"-0.002": 21.3100929042,
			"-0.001": 17.6515241775,
			"0.0": 16.5773529839,
			"0.001": 11.2352209018,
			"0.002": 9.11070415461,
			"0.003": 7.95861284078,
			"0.004": 6.56000204033,
			"0.005": 9.41655180541,
			"0.006": 8.32535276582,
			"0.007": 6.26497386488,
			"0.008": 6.61602558403,
			"0.009": 6.65311691527,
			"0.01": 6.67018315642,
			"0.011": 7.06297988568,
			"0.012": 6.48387011218,
			"0.013": 5.32696385152,
			"0.014": 7.49811301715,
			"0.015": 2.37104761977,
			"0.016": 0.0,
			"0.017": 0.0,
			"0.018": 0.0,
			"0.019": 0.0,
			"0.02": 0.0,
			"0.021": 0.0,
			"0.022": 0.0,
			"0.023": 0.0,
			"0.024": 0.0,
			"0.025": 0.0
		}
	}
}
