{
	 "smiles": "[O-][N+](=O)C1=CC=C(F)C(=C1)[N+]([O-])=O", 
	 "Tm": 299.55, 
	 "num_atms": 16, 
	 "gaussian": { 
		 "optdone": 1, 
		 "sigma_profile": "yes", 
		 "theory": "DFT", 
		 "functional": "B3LYP", 
		 "basiset": "6-31G**", 
		 "properties": { 
			 "R2extent": 2926.052, 
			 "electric_dipole_moment_norm": 3.8844872094, 
			 "electric_quadrupole_moment_norm": 14.3992783302, 
			 "total_energy": -740.460135894, 
			 "HOMO_LUMO_gap": 0.19019, 
			 "cosmo_polarized_energy": -11.97, 
			 "cosmo_cavitation_energy": 23.12, 
			 "cosmo_dispersion_energy": -16.87, 
			 "cosmo_repulsion_energy": 1.3, 
			 "cosmo_total_nonelectrostatic_energy": 7.56, 
			 "SMD_solvation_energy": 9.06 
		},
		"coords": [
			{
				"x": 2.2354986068,
				"y": 1.6253008587,
				"z": -0.5607875593,
				"element": "O" 
			},
			{
				"x": 1.7624347823,
				"y": 1.0090044231,
				"z": 0.3920892426,
				"element": "N" 
			},
			{
				"x": 2.0192871041,
				"y": 1.2210160828,
				"z": 1.5741014412,
				"element": "O" 
			},
			{
				"x": 0.8096193477,
				"y": -0.0718678015,
				"z": 0.0873521668,
				"element": "C" 
			},
			{
				"x": 0.4963656387,
				"y": -0.345202616,
				"z": -1.2450776097,
				"element": "C" 
			},
			{
				"x": -0.4038353858,
				"y": -1.3638668388,
				"z": -1.5264573543,
				"element": "C" 
			},
			{
				"x": -0.9742981273,
				"y": -2.1009109057,
				"z": -0.4876777816,
				"element": "C" 
			},
			{
				"x": -1.8385710939,
				"y": -3.0551637756,
				"z": -0.8104739943,
				"element": "F" 
			},
			{
				"x": -0.6455192409,
				"y": -1.8129451441,
				"z": 0.8476263187,
				"element": "C" 
			},
			{
				"x": 0.2498807897,
				"y": -0.786312424,
				"z": 1.136511813,
				"element": "C" 
			},
			{
				"x": -1.2137447606,
				"y": -2.566334772,
				"z": 1.9797824217,
				"element": "N" 
			},
			{
				"x": -1.022226451,
				"y": -2.104354245,
				"z": 3.1027229608,
				"element": "O" 
			},
			{
				"x": -1.8255804578,
				"y": -3.5989786228,
				"z": 1.7299466595,
				"element": "O" 
			},
			{
				"x": 0.9560713687,
				"y": 0.2400630115,
				"z": -2.0315423125,
				"element": "H" 
			},
			{
				"x": -0.6840398592,
				"y": -1.6093101817,
				"z": -2.5444506406,
				"element": "H" 
			},
			{
				"x": 0.4966577384,
				"y": -0.557937049,
				"z": 2.1647342279,
				"element": "H" 
			}
		],
		 "valence_orbital": [ 
			{
				"type": "occ",
				"energy": -0.32651,
				"method": "rhf"
			},
			{
				"type": "occ",
				"energy": -0.32086,
				"method": "rhf"
			},
			{
				"type": "occ",
				"energy": -0.31355,
				"method": "rhf"
			},
			{
				"type": "occ",
				"energy": -0.3097,
				"method": "rhf"
			},
			{
				"type": "occ",
				"energy": -0.30598,
				"method": "rhf"
			},
			{
				"type": "unocc",
				"energy": -0.11579,
				"method": "rhf"
			},
			{
				"type": "unocc",
				"energy": -0.1086,
				"method": "rhf"
			},
			{
				"type": "unocc",
				"energy": -0.045,
				"method": "rhf"
			},
			{
				"type": "unocc",
				"energy": -0.01513,
				"method": "rhf"
			},
			{
				"type": "unocc",
				"energy": 0.04094,
				"method": "rhf"
			}
		],
		"cosmo_sigma_profile": { 
			"-0.025": 0.0,
			"-0.024": 0.0,
			"-0.023": 0.0,
			"-0.022": 0.0,
			"-0.021": 0.0,
			"-0.02": 0.0,
			"-0.019": 0.0,
			"-0.018": 0.0,
			"-0.017": 0.0,
			"-0.016": 0.0,
			"-0.015": 0.0,
			"-0.014": 0.0,
			"-0.013": 0.0,
			"-0.012": 0.0,
			"-0.011": 0.0179530826559,
			"-0.01": 2.53898985517,
			"-0.009": 4.66468376724,
			"-0.008": 6.4662956106,
			"-0.007": 7.76228535945,
			"-0.006": 9.18669041836,
			"-0.005": 13.516842074,
			"-0.004": 17.7453290064,
			"-0.003": 17.3028474661,
			"-0.002": 10.4758159776,
			"-0.001": 8.53061592865,
			"0.0": 5.96278954444,
			"0.001": 5.85909432719,
			"0.002": 9.52538916361,
			"0.003": 6.78927550036,
			"0.004": 6.03187588233,
			"0.005": 7.64476736815,
			"0.006": 12.5203356905,
			"0.007": 18.6505971588,
			"0.008": 9.60508989765,
			"0.009": 5.89332826392,
			"0.01": 0.575801214755,
			"0.011": 0.0,
			"0.012": 0.0,
			"0.013": 0.0,
			"0.014": 0.0,
			"0.015": 0.0,
			"0.016": 0.0,
			"0.017": 0.0,
			"0.018": 0.0,
			"0.019": 0.0,
			"0.02": 0.0,
			"0.021": 0.0,
			"0.022": 0.0,
			"0.023": 0.0,
			"0.024": 0.0,
			"0.025": 0.0
		}
	}
}
