{
	 "smiles": "NC=C(C#N)S(=O)(=O)C1=CC=C(Cl)C=C1", 
	 "Tm": 487.15, 
	 "num_atms": 22, 
	 "gaussian": { 
		 "optdone": 1, 
		 "sigma_profile": "yes", 
		 "theory": "DFT", 
		 "functional": "B3LYP", 
		 "basiset": "6-31G**", 
		 "properties": { 
			 "R2extent": 5210.164, 
			 "electric_dipole_moment_norm": 6.00413307064, 
			 "electric_quadrupole_moment_norm": 24.1735217112, 
			 "total_energy": -1465.40894273, 
			 "HOMO_LUMO_gap": 0.1917, 
			 "cosmo_polarized_energy": -23.44, 
			 "cosmo_cavitation_energy": 31.47, 
			 "cosmo_dispersion_energy": -22.37, 
			 "cosmo_repulsion_energy": 1.74, 
			 "cosmo_total_nonelectrostatic_energy": 10.84, 
			 "SMD_solvation_energy": 6.1 
		},
		"coords": [
			{
				"x": -0.9530540613,
				"y": 0.8141998222,
				"z": 3.8658191705,
				"element": "N" 
			},
			{
				"x": -0.4440973538,
				"y": 0.8417049943,
				"z": 2.6230620229,
				"element": "C" 
			},
			{
				"x": 0.3599025373,
				"y": -0.117562075,
				"z": 2.070997545,
				"element": "C" 
			},
			{
				"x": 0.7538229009,
				"y": -1.2773919457,
				"z": 2.7788749193,
				"element": "C" 
			},
			{
				"x": 1.0384687646,
				"y": -2.2267231613,
				"z": 3.394455769,
				"element": "N" 
			},
			{
				"x": 0.9835937986,
				"y": 0.1521307057,
				"z": 0.4158889208,
				"element": "S" 
			},
			{
				"x": 0.413069476,
				"y": 1.4371916486,
				"z": -0.0273728925,
				"element": "O" 
			},
			{
				"x": 2.4313985987,
				"y": -0.0849980872,
				"z": 0.426686119,
				"element": "O" 
			},
			{
				"x": 0.2353611029,
				"y": -1.1490737718,
				"z": -0.5714488291,
				"element": "C" 
			},
			{
				"x": 0.8508354246,
				"y": -2.4015823715,
				"z": -0.6283687886,
				"element": "C" 
			},
			{
				"x": 0.2683527793,
				"y": -3.4140534771,
				"z": -1.3885953437,
				"element": "C" 
			},
			{
				"x": -0.9136280179,
				"y": -3.1499245839,
				"z": -2.0831615625,
				"element": "C" 
			},
			{
				"x": -1.6457235762,
				"y": -4.4212017806,
				"z": -3.0421817679,
				"element": "Cl" 
			},
			{
				"x": -1.5231426722,
				"y": -1.8941809338,
				"z": -2.0381783295,
				"element": "C" 
			},
			{
				"x": -0.9425305052,
				"y": -0.8852454235,
				"z": -1.2725993423,
				"element": "C" 
			},
			{
				"x": -0.7303344981,
				"y": 0.0598078827,
				"z": 4.4997502787,
				"element": "H" 
			},
			{
				"x": -1.4998638474,
				"y": 1.5825218176,
				"z": 4.2162400447,
				"element": "H" 
			},
			{
				"x": -0.6932013866,
				"y": 1.70466904,
				"z": 2.0121832673,
				"element": "H" 
			},
			{
				"x": 1.7799093563,
				"y": -2.5765733203,
				"z": -0.0972995676,
				"element": "H" 
			},
			{
				"x": 0.7273201871,
				"y": -4.394283344,
				"z": -1.447913909,
				"element": "H" 
			},
			{
				"x": -2.4332488447,
				"y": -1.7112999539,
				"z": -2.5981262836,
				"element": "H" 
			},
			{
				"x": -1.3844101629,
				"y": 0.1042683185,
				"z": -1.2317114408,
				"element": "H" 
			}
		],
		 "valence_orbital": [ 
			{
				"type": "occ",
				"energy": -0.30881,
				"method": "rhf"
			},
			{
				"type": "occ",
				"energy": -0.299,
				"method": "rhf"
			},
			{
				"type": "occ",
				"energy": -0.28294,
				"method": "rhf"
			},
			{
				"type": "occ",
				"energy": -0.2733,
				"method": "rhf"
			},
			{
				"type": "occ",
				"energy": -0.24938,
				"method": "rhf"
			},
			{
				"type": "unocc",
				"energy": -0.05768,
				"method": "rhf"
			},
			{
				"type": "unocc",
				"energy": -0.03684,
				"method": "rhf"
			},
			{
				"type": "unocc",
				"energy": -0.03249,
				"method": "rhf"
			},
			{
				"type": "unocc",
				"energy": -0.00422,
				"method": "rhf"
			},
			{
				"type": "unocc",
				"energy": 0.01717,
				"method": "rhf"
			}
		],
		"cosmo_sigma_profile": { 
			"-0.025": 0.0,
			"-0.024": 0.0,
			"-0.023": 0.0,
			"-0.022": 0.0,
			"-0.021": 0.0,
			"-0.02": 0.0,
			"-0.019": 0.0,
			"-0.018": 0.0,
			"-0.017": 0.634655994577,
			"-0.016": 2.4309340353,
			"-0.015": 2.81443826042,
			"-0.014": 2.6788257491,
			"-0.013": 3.49929754891,
			"-0.012": 2.56421755969,
			"-0.011": 2.61499555846,
			"-0.01": 2.54171467734,
			"-0.009": 3.17844584097,
			"-0.008": 8.16638493648,
			"-0.007": 10.6707332676,
			"-0.006": 8.55976825444,
			"-0.005": 8.03620468586,
			"-0.004": 10.3206323644,
			"-0.003": 10.4605854457,
			"-0.002": 14.2552706334,
			"-0.001": 17.4573892945,
			"0.0": 24.9831988387,
			"0.001": 26.4099556517,
			"0.002": 13.1789747256,
			"0.003": 12.0998063677,
			"0.004": 13.9482705827,
			"0.005": 4.74427532028,
			"0.006": 5.74260666866,
			"0.007": 4.8596420973,
			"0.008": 6.57718570726,
			"0.009": 6.04734065083,
			"0.01": 10.1992891741,
			"0.011": 10.41549545,
			"0.012": 4.31847853685,
			"0.013": 1.68888026481,
			"0.014": 0.0897879853248,
			"0.015": 0.0,
			"0.016": 0.0,
			"0.017": 0.0,
			"0.018": 0.0,
			"0.019": 0.0,
			"0.02": 0.0,
			"0.021": 0.0,
			"0.022": 0.0,
			"0.023": 0.0,
			"0.024": 0.0,
			"0.025": 0.0
		}
	}
}
