{
	 "smiles": "FC1=C(CNC(=O)C2=CC=C(C=C2)N2C=CN=C2S)C=CC=C1", 
	 "Tm": 485.15, 
	 "num_atms": 37, 
	 "gaussian": { 
		 "optdone": 1, 
		 "sigma_profile": "yes", 
		 "theory": "DFT", 
		 "functional": "B3LYP", 
		 "basiset": "6-31G**", 
		 "properties": { 
			 "R2extent": 14139.6567, 
			 "electric_dipole_moment_norm": 3.5944393165, 
			 "electric_quadrupole_moment_norm": 14.6488080102, 
			 "total_energy": -1393.75411183, 
			 "HOMO_LUMO_gap": 0.16047, 
			 "cosmo_polarized_energy": -17.65, 
			 "cosmo_cavitation_energy": 44.42, 
			 "cosmo_dispersion_energy": -31.51, 
			 "cosmo_repulsion_energy": 2.32, 
			 "cosmo_total_nonelectrostatic_energy": 15.22, 
			 "SMD_solvation_energy": 6.01 
		},
		"coords": [
			{
				"x": -2.080084424,
				"y": -2.1635983308,
				"z": -1.3593853725,
				"element": "F" 
			},
			{
				"x": -0.9536430877,
				"y": -2.8945271686,
				"z": -1.1314500873,
				"element": "C" 
			},
			{
				"x": 0.2282392313,
				"y": -2.4749009169,
				"z": -1.7430093365,
				"element": "C" 
			},
			{
				"x": 0.2274226054,
				"y": -1.250847824,
				"z": -2.6370428911,
				"element": "C" 
			},
			{
				"x": -0.0050084991,
				"y": -0.0028281679,
				"z": -1.9140104472,
				"element": "N" 
			},
			{
				"x": 1.0456882034,
				"y": 0.6926933989,
				"z": -1.3738473116,
				"element": "C" 
			},
			{
				"x": 2.2154665082,
				"y": 0.3716034189,
				"z": -1.5683320572,
				"element": "O" 
			},
			{
				"x": 0.6925628899,
				"y": 1.8932787277,
				"z": -0.5390365016,
				"element": "C" 
			},
			{
				"x": 1.6911264356,
				"y": 2.4042660016,
				"z": 0.3012012064,
				"element": "C" 
			},
			{
				"x": 1.449456398,
				"y": 3.5163632659,
				"z": 1.0987224701,
				"element": "C" 
			},
			{
				"x": 0.1933201039,
				"y": 4.1361675441,
				"z": 1.067903675,
				"element": "C" 
			},
			{
				"x": -0.8113530101,
				"y": 3.6388021364,
				"z": 0.2311970567,
				"element": "C" 
			},
			{
				"x": -0.5540193012,
				"y": 2.5314934271,
				"z": -0.5748316611,
				"element": "C" 
			},
			{
				"x": -0.0528568098,
				"y": 5.2611239133,
				"z": 1.9028021202,
				"element": "N" 
			},
			{
				"x": 0.2727759639,
				"y": 5.3485667051,
				"z": 3.2569451135,
				"element": "C" 
			},
			{
				"x": -0.1038933416,
				"y": 6.6009360883,
				"z": 3.6499879204,
				"element": "C" 
			},
			{
				"x": -0.6427424185,
				"y": 7.3067076776,
				"z": 2.5929545399,
				"element": "N" 
			},
			{
				"x": -0.5986018918,
				"y": 6.4847923338,
				"z": 1.5701243374,
				"element": "C" 
			},
			{
				"x": -1.1006048755,
				"y": 6.89824947,
				"z": -0.0821829341,
				"element": "S" 
			},
			{
				"x": 1.3823931753,
				"y": -3.2198743613,
				"z": -1.4802442442,
				"element": "C" 
			},
			{
				"x": 1.3393271063,
				"y": -4.3438985856,
				"z": -0.6516198704,
				"element": "C" 
			},
			{
				"x": 0.1342695887,
				"y": -4.7361233265,
				"z": -0.0664963245,
				"element": "C" 
			},
			{
				"x": -1.0320457439,
				"y": -4.0041159046,
				"z": -0.3035710854,
				"element": "C" 
			},
			{
				"x": -0.5487079137,
				"y": -1.3440447346,
				"z": -3.4032460243,
				"element": "H" 
			},
			{
				"x": 1.1933855646,
				"y": -1.1553243352,
				"z": -3.1334721483,
				"element": "H" 
			},
			{
				"x": -0.9261062613,
				"y": 0.1220720001,
				"z": -1.5206788047,
				"element": "H" 
			},
			{
				"x": 2.6604844734,
				"y": 1.9181328213,
				"z": 0.2984363642,
				"element": "H" 
			},
			{
				"x": 2.2309527017,
				"y": 3.9224471959,
				"z": 1.7324998334,
				"element": "H" 
			},
			{
				"x": -1.7883696553,
				"y": 4.1093649829,
				"z": 0.2185020871,
				"element": "H" 
			},
			{
				"x": -1.3354952158,
				"y": 2.1840496155,
				"z": -1.2436080726,
				"element": "H" 
			},
			{
				"x": 0.6883719025,
				"y": 4.5051312768,
				"z": 3.7850145006,
				"element": "H" 
			},
			{
				"x": -0.0278404219,
				"y": 7.0412213904,
				"z": 4.6343261728,
				"element": "H" 
			},
			{
				"x": -1.3192810087,
				"y": 8.1833163931,
				"z": 0.2522342177,
				"element": "H" 
			},
			{
				"x": 2.3206090216,
				"y": -2.9032636043,
				"z": -1.9262868629,
				"element": "H" 
			},
			{
				"x": 2.2461941568,
				"y": -4.9091168849,
				"z": -0.4606473627,
				"element": "H" 
			},
			{
				"x": 0.0967392859,
				"y": -5.608591236,
				"z": 0.578712956,
				"element": "H" 
			},
			{
				"x": -1.9841314364,
				"y": -4.2775244033,
				"z": 0.138234829,
				"element": "H" 
			}
		],
		 "valence_orbital": [ 
			{
				"type": "occ",
				"energy": -0.26031,
				"method": "rhf"
			},
			{
				"type": "occ",
				"energy": -0.25461,
				"method": "rhf"
			},
			{
				"type": "occ",
				"energy": -0.25087,
				"method": "rhf"
			},
			{
				"type": "occ",
				"energy": -0.24856,
				"method": "rhf"
			},
			{
				"type": "occ",
				"energy": -0.21194,
				"method": "rhf"
			},
			{
				"type": "unocc",
				"energy": -0.05147,
				"method": "rhf"
			},
			{
				"type": "unocc",
				"energy": -0.02682,
				"method": "rhf"
			},
			{
				"type": "unocc",
				"energy": -0.01685,
				"method": "rhf"
			},
			{
				"type": "unocc",
				"energy": -0.00657,
				"method": "rhf"
			},
			{
				"type": "unocc",
				"energy": 0.01973,
				"method": "rhf"
			}
		],
		"cosmo_sigma_profile": { 
			"-0.025": 0.0,
			"-0.024": 0.0,
			"-0.023": 0.0,
			"-0.022": 0.0,
			"-0.021": 0.0,
			"-0.02": 0.0,
			"-0.019": 0.0,
			"-0.018": 0.0,
			"-0.017": 0.0,
			"-0.016": 0.0,
			"-0.015": 0.0,
			"-0.014": 0.0,
			"-0.013": 0.363799245594,
			"-0.012": 1.33446162017,
			"-0.011": 2.23405497013,
			"-0.01": 2.97524808019,
			"-0.009": 3.65754675317,
			"-0.008": 5.11525790842,
			"-0.007": 13.1465624606,
			"-0.006": 22.761524824,
			"-0.005": 24.6740893173,
			"-0.004": 23.8395692335,
			"-0.003": 20.4013146095,
			"-0.002": 22.2676000174,
			"-0.001": 21.5848420818,
			"0.0": 25.2639779406,
			"0.001": 27.8007951076,
			"0.002": 34.6277922071,
			"0.003": 27.154744437,
			"0.004": 26.8695245636,
			"0.005": 17.196862056,
			"0.006": 6.67085638594,
			"0.007": 5.10681453249,
			"0.008": 3.65523438748,
			"0.009": 3.1658753323,
			"0.01": 2.45824214877,
			"0.011": 2.47009119605,
			"0.012": 3.06938811336,
			"0.013": 5.11933589807,
			"0.014": 2.28826496597,
			"0.015": 0.826351282307,
			"0.016": 0.706039447584,
			"0.017": 0.317999601854,
			"0.018": 0.0,
			"0.019": 0.0,
			"0.02": 0.0,
			"0.021": 0.0,
			"0.022": 0.0,
			"0.023": 0.0,
			"0.024": 0.0,
			"0.025": 0.0
		}
	}
}
