{
	 "smiles": "CCCCOC(=O)CC(O)(CC(=O)OCCCC)C(=O)OCCCC", 
	 "Tm": 253.15, 
	 "num_atms": 57, 
	 "gaussian": { 
		 "optdone": 1, 
		 "sigma_profile": "yes", 
		 "theory": "DFT", 
		 "functional": "B3LYP", 
		 "basiset": "6-31G**", 
		 "properties": { 
			 "R2extent": 11369.8762, 
			 "electric_dipole_moment_norm": 2.26937544272, 
			 "electric_quadrupole_moment_norm": 24.8108992959, 
			 "total_energy": -1231.8284432, 
			 "HOMO_LUMO_gap": 0.25634, 
			 "cosmo_polarized_energy": -17.8, 
			 "cosmo_cavitation_energy": 58.5, 
			 "cosmo_dispersion_energy": -35.4, 
			 "cosmo_repulsion_energy": 2.82, 
			 "cosmo_total_nonelectrostatic_energy": 25.91, 
			 "SMD_solvation_energy": 11.15 
		},
		"coords": [
			{
				"x": 3.0132585933,
				"y": -3.6391841288,
				"z": 3.3565683903,
				"element": "C" 
			},
			{
				"x": 2.6961873904,
				"y": -2.6362897845,
				"z": 4.4732815641,
				"element": "C" 
			},
			{
				"x": 1.8000503637,
				"y": -1.4628467782,
				"z": 4.0429923778,
				"element": "C" 
			},
			{
				"x": 2.4625651279,
				"y": -0.5411587005,
				"z": 3.0297711239,
				"element": "C" 
			},
			{
				"x": 1.547658931,
				"y": 0.5524166147,
				"z": 2.773474562,
				"element": "O" 
			},
			{
				"x": 1.9634391083,
				"y": 1.4648119577,
				"z": 1.8703445306,
				"element": "C" 
			},
			{
				"x": 3.0465187744,
				"y": 1.434404766,
				"z": 1.3272538698,
				"element": "O" 
			},
			{
				"x": 0.9154296996,
				"y": 2.5348791393,
				"z": 1.6255093666,
				"element": "C" 
			},
			{
				"x": -0.2963379771,
				"y": 2.1217821235,
				"z": 0.7252594008,
				"element": "C" 
			},
			{
				"x": -1.07263039,
				"y": 3.2825356782,
				"z": 0.4825634657,
				"element": "O" 
			},
			{
				"x": -1.2082852204,
				"y": 1.1073568682,
				"z": 1.4315770951,
				"element": "C" 
			},
			{
				"x": -2.5580169994,
				"y": 0.911839172,
				"z": 0.7654664835,
				"element": "C" 
			},
			{
				"x": -3.6108891606,
				"y": 0.8814030476,
				"z": 1.3633192671,
				"element": "O" 
			},
			{
				"x": -2.443510399,
				"y": 0.7287979934,
				"z": -0.5702789858,
				"element": "O" 
			},
			{
				"x": -3.6772785336,
				"y": 0.5085709602,
				"z": -1.2999276256,
				"element": "C" 
			},
			{
				"x": -4.1387498066,
				"y": -0.9470168346,
				"z": -1.2881806267,
				"element": "C" 
			},
			{
				"x": -3.2363397893,
				"y": -1.9543995884,
				"z": -2.0222730925,
				"element": "C" 
			},
			{
				"x": -1.9348863797,
				"y": -2.3222098698,
				"z": -1.2976576032,
				"element": "C" 
			},
			{
				"x": 0.2839717475,
				"y": 1.5253248528,
				"z": -0.5709817999,
				"element": "C" 
			},
			{
				"x": 0.6892114193,
				"y": 0.3895077522,
				"z": -0.6764672569,
				"element": "O" 
			},
			{
				"x": 0.374058488,
				"y": 2.4677462572,
				"z": -1.5316844575,
				"element": "O" 
			},
			{
				"x": 0.9862935727,
				"y": 2.075831729,
				"z": -2.7920178335,
				"element": "C" 
			},
			{
				"x": -0.0461460184,
				"y": 1.5015581788,
				"z": -3.7566409079,
				"element": "C" 
			},
			{
				"x": -1.2262579702,
				"y": 2.4338274702,
				"z": -4.0755189899,
				"element": "C" 
			},
			{
				"x": -0.8399616937,
				"y": 3.7244106704,
				"z": -4.8075648,
				"element": "C" 
			},
			{
				"x": 3.5955689102,
				"y": -4.4820006257,
				"z": 3.7425287489,
				"element": "H" 
			},
			{
				"x": 2.0940670955,
				"y": -4.0437420742,
				"z": 2.9175653671,
				"element": "H" 
			},
			{
				"x": 3.5943054264,
				"y": -3.1856688323,
				"z": 2.5469925095,
				"element": "H" 
			},
			{
				"x": 2.1965095987,
				"y": -3.1626581707,
				"z": 5.29525203,
				"element": "H" 
			},
			{
				"x": 3.6327489962,
				"y": -2.2436555343,
				"z": 4.8921230892,
				"element": "H" 
			},
			{
				"x": 1.527215518,
				"y": -0.8684380702,
				"z": 4.9230861145,
				"element": "H" 
			},
			{
				"x": 0.8628026722,
				"y": -1.8461000185,
				"z": 3.6197305029,
				"element": "H" 
			},
			{
				"x": 3.4041167155,
				"y": -0.1300778589,
				"z": 3.4103873,
				"element": "H" 
			},
			{
				"x": 2.677831262,
				"y": -1.0391664349,
				"z": 2.0805160655,
				"element": "H" 
			},
			{
				"x": 1.4219711516,
				"y": 3.3692403459,
				"z": 1.1355346411,
				"element": "H" 
			},
			{
				"x": 0.5011612589,
				"y": 2.8847434895,
				"z": 2.5751151004,
				"element": "H" 
			},
			{
				"x": -0.7097134765,
				"y": 3.7109111887,
				"z": -0.3057290161,
				"element": "H" 
			},
			{
				"x": -0.6961577385,
				"y": 0.143352499,
				"z": 1.4880171128,
				"element": "H" 
			},
			{
				"x": -1.4101232544,
				"y": 1.4438501999,
				"z": 2.4496955435,
				"element": "H" 
			},
			{
				"x": -3.4509800174,
				"y": 0.8403673466,
				"z": -2.3172612212,
				"element": "H" 
			},
			{
				"x": -4.4473198344,
				"y": 1.1539068662,
				"z": -0.8704658148,
				"element": "H" 
			},
			{
				"x": -4.2968324548,
				"y": -1.2582520939,
				"z": -0.2491379609,
				"element": "H" 
			},
			{
				"x": -5.1304966028,
				"y": -0.9498006245,
				"z": -1.7611203432,
				"element": "H" 
			},
			{
				"x": -3.0055564668,
				"y": -1.5662562527,
				"z": -3.0247381636,
				"element": "H" 
			},
			{
				"x": -3.818860206,
				"y": -2.8702577339,
				"z": -2.1849498814,
				"element": "H" 
			},
			{
				"x": -2.1471878777,
				"y": -2.7178168963,
				"z": -0.297097504,
				"element": "H" 
			},
			{
				"x": -1.392462023,
				"y": -3.0984390039,
				"z": -1.8482313138,
				"element": "H" 
			},
			{
				"x": -1.2678013176,
				"y": -1.4649016374,
				"z": -1.1811180803,
				"element": "H" 
			},
			{
				"x": 1.4363142903,
				"y": 2.9965254183,
				"z": -3.1690914546,
				"element": "H" 
			},
			{
				"x": 1.7713309173,
				"y": 1.347893691,
				"z": -2.5780999105,
				"element": "H" 
			},
			{
				"x": 0.4871742746,
				"y": 1.2437175771,
				"z": -4.6822286752,
				"element": "H" 
			},
			{
				"x": -0.4190012278,
				"y": 0.560420461,
				"z": -3.3385329705,
				"element": "H" 
			},
			{
				"x": -1.7465895092,
				"y": 2.6791689672,
				"z": -3.1418905167,
				"element": "H" 
			},
			{
				"x": -1.9444588672,
				"y": 1.8759474703,
				"z": -4.6891206461,
				"element": "H" 
			},
			{
				"x": -0.1873456015,
				"y": 4.3615913931,
				"z": -4.2010970009,
				"element": "H" 
			},
			{
				"x": -0.3142495403,
				"y": 3.5076781572,
				"z": -5.7448238229,
				"element": "H" 
			},
			{
				"x": -1.7279349491,
				"y": 4.3147172448,
				"z": -5.0548973467,
				"element": "H" 
			}
		],
		 "valence_orbital": [ 
			{
				"type": "occ",
				"energy": -0.29779,
				"method": "rhf"
			},
			{
				"type": "occ",
				"energy": -0.28756,
				"method": "rhf"
			},
			{
				"type": "occ",
				"energy": -0.27395,
				"method": "rhf"
			},
			{
				"type": "occ",
				"energy": -0.26673,
				"method": "rhf"
			},
			{
				"type": "occ",
				"energy": -0.26151,
				"method": "rhf"
			},
			{
				"type": "unocc",
				"energy": -0.00517,
				"method": "rhf"
			},
			{
				"type": "unocc",
				"energy": 0.00819,
				"method": "rhf"
			},
			{
				"type": "unocc",
				"energy": 0.02064,
				"method": "rhf"
			},
			{
				"type": "unocc",
				"energy": 0.06195,
				"method": "rhf"
			},
			{
				"type": "unocc",
				"energy": 0.07567,
				"method": "rhf"
			}
		],
		"cosmo_sigma_profile": { 
			"-0.025": 0.0,
			"-0.024": 0.0,
			"-0.023": 0.0,
			"-0.022": 0.0,
			"-0.021": 0.0,
			"-0.02": 0.0,
			"-0.019": 0.0,
			"-0.018": 0.0,
			"-0.017": 0.0,
			"-0.016": 0.0,
			"-0.015": 0.0,
			"-0.014": 0.0513604464321,
			"-0.013": 0.417210201199,
			"-0.012": 0.431689745036,
			"-0.011": 0.52540068753,
			"-0.01": 0.818652093057,
			"-0.009": 1.03772689711,
			"-0.008": 1.79029831815,
			"-0.007": 5.2174428964,
			"-0.006": 8.39915918873,
			"-0.005": 15.6756649905,
			"-0.004": 33.3801426699,
			"-0.003": 51.4288500786,
			"-0.002": 67.97098089,
			"-0.001": 61.3935072308,
			"0.0": 57.1933831901,
			"0.001": 42.1126313619,
			"0.002": 21.9913981577,
			"0.003": 11.4298337118,
			"0.004": 9.67315525375,
			"0.005": 9.25753029548,
			"0.006": 7.20811830176,
			"0.007": 6.65446089236,
			"0.008": 6.95769330427,
			"0.009": 6.0193191052,
			"0.01": 6.22302264066,
			"0.011": 9.03855060136,
			"0.012": 9.27848554416,
			"0.013": 1.5469545302,
			"0.014": 0.0,
			"0.015": 0.0,
			"0.016": 0.0,
			"0.017": 0.0,
			"0.018": 0.0,
			"0.019": 0.0,
			"0.02": 0.0,
			"0.021": 0.0,
			"0.022": 0.0,
			"0.023": 0.0,
			"0.024": 0.0,
			"0.025": 0.0
		}
	}
}
