{
	 "smiles": "NCC1=CC=C(C=C1)C1=CSC=C1", 
	 "Tm": 389.15, 
	 "num_atms": 24, 
	 "gaussian": { 
		 "optdone": 1, 
		 "sigma_profile": "yes", 
		 "theory": "DFT", 
		 "functional": "B3LYP", 
		 "basiset": "6-31G**", 
		 "properties": { 
			 "R2extent": 5345.2941, 
			 "electric_dipole_moment_norm": 1.0262353044, 
			 "electric_quadrupole_moment_norm": 8.70861232861, 
			 "total_energy": -878.726095583, 
			 "HOMO_LUMO_gap": 0.18518, 
			 "cosmo_polarized_energy": -9.31, 
			 "cosmo_cavitation_energy": 29.36, 
			 "cosmo_dispersion_energy": -21.91, 
			 "cosmo_repulsion_energy": 1.68, 
			 "cosmo_total_nonelectrostatic_energy": 9.14, 
			 "SMD_solvation_energy": 3.44 
		},
		"coords": [
			{
				"x": -0.9763197367,
				"y": 0.9739417968,
				"z": -3.7189287418,
				"element": "N" 
			},
			{
				"x": 0.2512472601,
				"y": 0.9251104085,
				"z": -2.905395611,
				"element": "C" 
			},
			{
				"x": 0.2395253321,
				"y": -0.0757244013,
				"z": -1.7636442871,
				"element": "C" 
			},
			{
				"x": -0.246804919,
				"y": 0.276901952,
				"z": -0.4977166897,
				"element": "C" 
			},
			{
				"x": -0.3150635391,
				"y": -0.6552266738,
				"z": 0.5352698425,
				"element": "C" 
			},
			{
				"x": 0.1022504746,
				"y": -1.9828541096,
				"z": 0.3401091727,
				"element": "C" 
			},
			{
				"x": 0.5887030335,
				"y": -2.3365027876,
				"z": -0.9301191045,
				"element": "C" 
			},
			{
				"x": 0.6606657374,
				"y": -1.398720213,
				"z": -1.9568384876,
				"element": "C" 
			},
			{
				"x": 0.0397035942,
				"y": -2.9677979525,
				"z": 1.4398562407,
				"element": "C" 
			},
			{
				"x": 0.9157075631,
				"y": -4.017403581,
				"z": 1.5988328387,
				"element": "C" 
			},
			{
				"x": 0.5548934236,
				"y": -4.9727971747,
				"z": 2.9959467899,
				"element": "S" 
			},
			{
				"x": -0.7990693909,
				"y": -3.9625484821,
				"z": 3.3901118156,
				"element": "C" 
			},
			{
				"x": -0.9468695201,
				"y": -2.9498881618,
				"z": 2.487605315,
				"element": "C" 
			},
			{
				"x": -1.7689359941,
				"y": 1.1788315669,
				"z": -3.112928602,
				"element": "H" 
			},
			{
				"x": -1.1600715803,
				"y": 0.0473076035,
				"z": -4.0997841152,
				"element": "H" 
			},
			{
				"x": 0.4252994855,
				"y": 1.9326529562,
				"z": -2.5104791387,
				"element": "H" 
			},
			{
				"x": 1.0857883474,
				"y": 0.7044835209,
				"z": -3.580843746,
				"element": "H" 
			},
			{
				"x": -0.5649569571,
				"y": 1.3010973015,
				"z": -0.313540579,
				"element": "H" 
			},
			{
				"x": -0.6692504977,
				"y": -0.343514371,
				"z": 1.5135763542,
				"element": "H" 
			},
			{
				"x": 0.8966325325,
				"y": -3.3613038144,
				"z": -1.1168549683,
				"element": "H" 
			},
			{
				"x": 1.0453488646,
				"y": -1.7006226764,
				"z": -2.9289447232,
				"element": "H" 
			},
			{
				"x": 1.7770128213,
				"y": -4.2581668831,
				"z": 0.9918023233,
				"element": "H" 
			},
			{
				"x": -1.4112653527,
				"y": -4.1864827238,
				"z": 4.2524960571,
				"element": "H" 
			},
			{
				"x": -1.7496709821,
				"y": -2.2234731004,
				"z": 2.5390120444,
				"element": "H" 
			}
		],
		 "valence_orbital": [ 
			{
				"type": "occ",
				"energy": -0.27633,
				"method": "rhf"
			},
			{
				"type": "occ",
				"energy": -0.25297,
				"method": "rhf"
			},
			{
				"type": "occ",
				"energy": -0.24438,
				"method": "rhf"
			},
			{
				"type": "occ",
				"energy": -0.23853,
				"method": "rhf"
			},
			{
				"type": "occ",
				"energy": -0.21385,
				"method": "rhf"
			},
			{
				"type": "unocc",
				"energy": -0.02867,
				"method": "rhf"
			},
			{
				"type": "unocc",
				"energy": -0.00594,
				"method": "rhf"
			},
			{
				"type": "unocc",
				"energy": 0.00389,
				"method": "rhf"
			},
			{
				"type": "unocc",
				"energy": 0.0322,
				"method": "rhf"
			},
			{
				"type": "unocc",
				"energy": 0.07537,
				"method": "rhf"
			}
		],
		"cosmo_sigma_profile": { 
			"-0.025": 0.0,
			"-0.024": 0.0,
			"-0.023": 0.0,
			"-0.022": 0.0,
			"-0.021": 0.0,
			"-0.02": 0.0,
			"-0.019": 0.0,
			"-0.018": 0.0,
			"-0.017": 0.0,
			"-0.016": 0.0,
			"-0.015": 0.0,
			"-0.014": 0.0,
			"-0.013": 0.0,
			"-0.012": 0.0,
			"-0.011": 0.0,
			"-0.01": 0.156346895992,
			"-0.009": 2.26334831664,
			"-0.008": 6.12900462688,
			"-0.007": 7.19425186038,
			"-0.006": 12.0176614165,
			"-0.005": 19.2952927698,
			"-0.004": 20.5278758065,
			"-0.003": 17.5666517659,
			"-0.002": 15.6883854361,
			"-0.001": 13.7019291064,
			"0.0": 13.4152866241,
			"0.001": 13.1329439405,
			"0.002": 15.0576767983,
			"0.003": 18.2130958496,
			"0.004": 23.060710301,
			"0.005": 20.3241607597,
			"0.006": 8.56310846964,
			"0.007": 0.867084298707,
			"0.008": 0.908862884952,
			"0.009": 0.716336921692,
			"0.01": 0.782380946706,
			"0.011": 0.288736191266,
			"0.012": 0.67925184086,
			"0.013": 0.866272388422,
			"0.014": 1.14407070742,
			"0.015": 0.587786203501,
			"0.016": 0.51154038519,
			"0.017": 0.264918742358,
			"0.018": 0.904591605325,
			"0.019": 0.660396463421,
			"0.02": 0.33974225223,
			"0.021": 0.0,
			"0.022": 0.0,
			"0.023": 0.0,
			"0.024": 0.0,
			"0.025": 0.0
		}
	}
}
