{
	 "smiles": "OC(=O)C1=CC=C(C=C1)C1=CC=CS1", 
	 "Tm": 515.15, 
	 "num_atms": 22, 
	 "gaussian": { 
		 "optdone": 1, 
		 "sigma_profile": "yes", 
		 "theory": "DFT", 
		 "functional": "B3LYP", 
		 "basiset": "6-31G**", 
		 "properties": { 
			 "R2extent": 5002.2161, 
			 "electric_dipole_moment_norm": 5.17029962091, 
			 "electric_quadrupole_moment_norm": 20.4503940708, 
			 "total_energy": -972.626596391, 
			 "HOMO_LUMO_gap": 0.15944, 
			 "cosmo_polarized_energy": -15.1, 
			 "cosmo_cavitation_energy": 28.33, 
			 "cosmo_dispersion_energy": -21.5, 
			 "cosmo_repulsion_energy": 1.61, 
			 "cosmo_total_nonelectrostatic_energy": 8.44, 
			 "SMD_solvation_energy": 5.86 
		},
		"coords": [
			{
				"x": -2.4001860437,
				"y": 0.7238763988,
				"z": -5.0770791186,
				"element": "O" 
			},
			{
				"x": -2.2704447231,
				"y": 1.4807953045,
				"z": -3.9531488741,
				"element": "C" 
			},
			{
				"x": -2.468907317,
				"y": 2.6724043939,
				"z": -4.0038038011,
				"element": "O" 
			},
			{
				"x": -1.8793141421,
				"y": 0.7653659755,
				"z": -2.6979052848,
				"element": "C" 
			},
			{
				"x": -2.0366128398,
				"y": -0.6155663316,
				"z": -2.5133257313,
				"element": "C" 
			},
			{
				"x": -1.6706266123,
				"y": -1.2178770138,
				"z": -1.3142691186,
				"element": "C" 
			},
			{
				"x": -1.123547812,
				"y": -0.4609211009,
				"z": -0.2619202472,
				"element": "C" 
			},
			{
				"x": -0.9725342342,
				"y": 0.9275782312,
				"z": -0.4551953894,
				"element": "C" 
			},
			{
				"x": -1.3583881556,
				"y": 1.530045528,
				"z": -1.6439624401,
				"element": "C" 
			},
			{
				"x": -0.7290288171,
				"y": -1.0803577158,
				"z": 1.0067067694,
				"element": "C" 
			},
			{
				"x": -0.6285030628,
				"y": -0.4945900902,
				"z": 2.2500814117,
				"element": "C" 
			},
			{
				"x": -0.2173806709,
				"y": -1.3936613044,
				"z": 3.2741720862,
				"element": "C" 
			},
			{
				"x": -0.0030098654,
				"y": -2.6629536977,
				"z": 2.80945079,
				"element": "C" 
			},
			{
				"x": -0.2983658189,
				"y": -2.7777072154,
				"z": 1.1073633025,
				"element": "S" 
			},
			{
				"x": -2.0508902157,
				"y": -0.1646311978,
				"z": -4.9234300043,
				"element": "H" 
			},
			{
				"x": -2.4931528219,
				"y": -1.2328477773,
				"z": -3.2836675183,
				"element": "H" 
			},
			{
				"x": -1.8356377395,
				"y": -2.2828011072,
				"z": -1.1821451288,
				"element": "H" 
			},
			{
				"x": -0.5313528117,
				"y": 1.5314256101,
				"z": 0.3309731579,
				"element": "H" 
			},
			{
				"x": -1.2513740185,
				"y": 2.5998525349,
				"z": -1.7874699185,
				"element": "H" 
			},
			{
				"x": -0.8717321287,
				"y": 0.5459705543,
				"z": 2.4313801642,
				"element": "H" 
			},
			{
				"x": -0.0933071668,
				"y": -1.1091864894,
				"z": 4.3127066609,
				"element": "H" 
			},
			{
				"x": 0.3147970179,
				"y": -3.5364134897,
				"z": 3.3616882321,
				"element": "H" 
			}
		],
		 "valence_orbital": [ 
			{
				"type": "occ",
				"energy": -0.29179,
				"method": "rhf"
			},
			{
				"type": "occ",
				"energy": -0.27456,
				"method": "rhf"
			},
			{
				"type": "occ",
				"energy": -0.27053,
				"method": "rhf"
			},
			{
				"type": "occ",
				"energy": -0.26307,
				"method": "rhf"
			},
			{
				"type": "occ",
				"energy": -0.22724,
				"method": "rhf"
			},
			{
				"type": "unocc",
				"energy": -0.0678,
				"method": "rhf"
			},
			{
				"type": "unocc",
				"energy": -0.02547,
				"method": "rhf"
			},
			{
				"type": "unocc",
				"energy": -0.01013,
				"method": "rhf"
			},
			{
				"type": "unocc",
				"energy": 0.02019,
				"method": "rhf"
			},
			{
				"type": "unocc",
				"energy": 0.04264,
				"method": "rhf"
			}
		],
		"cosmo_sigma_profile": { 
			"-0.025": 0.0,
			"-0.024": 0.0,
			"-0.023": 0.0,
			"-0.022": 0.0,
			"-0.021": 0.0,
			"-0.02": 0.0,
			"-0.019": 0.165271661511,
			"-0.018": 0.826597751485,
			"-0.017": 0.942893826954,
			"-0.016": 1.36018618322,
			"-0.015": 0.333337827633,
			"-0.014": 0.650615511256,
			"-0.013": 1.48672970222,
			"-0.012": 1.22054181592,
			"-0.011": 1.20584403851,
			"-0.01": 1.42597281962,
			"-0.009": 1.87235913358,
			"-0.008": 4.55312755047,
			"-0.007": 10.4746774408,
			"-0.006": 12.8938651844,
			"-0.005": 11.7243808193,
			"-0.004": 12.9796143776,
			"-0.003": 11.371172978,
			"-0.002": 12.8734064406,
			"-0.001": 12.6011736087,
			"0.0": 13.4011333136,
			"0.001": 16.7082280241,
			"0.002": 22.3384206621,
			"0.003": 25.6941118971,
			"0.004": 15.0951945566,
			"0.005": 8.01519045581,
			"0.006": 3.07150429339,
			"0.007": 2.37502663648,
			"0.008": 2.25852172515,
			"0.009": 3.98348036666,
			"0.01": 3.66986597392,
			"0.011": 5.76577461986,
			"0.012": 4.943515833,
			"0.013": 1.88322960002,
			"0.014": 0.137934065533,
			"0.015": 0.0,
			"0.016": 0.0,
			"0.017": 0.0,
			"0.018": 0.0,
			"0.019": 0.0,
			"0.02": 0.0,
			"0.021": 0.0,
			"0.022": 0.0,
			"0.023": 0.0,
			"0.024": 0.0,
			"0.025": 0.0
		}
	}
}
