{
	 "smiles": "CCOC(=O)C1=NN(C(C)=C1C(=O)C1=NOC(=C1S(=O)(=O)C1=CC=CC=C1)C1=CC=C(Cl)C=C1)C1=CC=C(C)C=C1", 
	 "Tm": 503.15, 
	 "num_atms": 65, 
	 "gaussian": { 
		 "optdone": 1, 
		 "sigma_profile": "yes", 
		 "theory": "DFT", 
		 "functional": "B3LYP", 
		 "basiset": "6-31G**", 
		 "properties": { 
			 "R2extent": 30424.9835, 
			 "electric_dipole_moment_norm": 3.81215358688, 
			 "electric_quadrupole_moment_norm": 52.6223604461, 
			 "total_energy": -2631.51040237, 
			 "HOMO_LUMO_gap": 0.16629, 
			 "cosmo_polarized_energy": -26.31, 
			 "cosmo_cavitation_energy": 74.18, 
			 "cosmo_dispersion_energy": -48.4, 
			 "cosmo_repulsion_energy": 3.62, 
			 "cosmo_total_nonelectrostatic_energy": 29.4, 
			 "SMD_solvation_energy": 11.72 
		},
		"coords": [
			{
				"x": -3.6250453873,
				"y": 4.4243373785,
				"z": 1.6938127921,
				"element": "C" 
			},
			{
				"x": -4.2514765885,
				"y": 3.5017529301,
				"z": 0.6659115737,
				"element": "C" 
			},
			{
				"x": -3.5540900619,
				"y": 2.237965225,
				"z": 0.7425634297,
				"element": "O" 
			},
			{
				"x": -3.8833492495,
				"y": 1.329164191,
				"z": -0.1918939269,
				"element": "C" 
			},
			{
				"x": -4.7729171987,
				"y": 1.4618022176,
				"z": -1.0022902248,
				"element": "O" 
			},
			{
				"x": -3.0221960868,
				"y": 0.1128986766,
				"z": -0.0736137052,
				"element": "C" 
			},
			{
				"x": -3.595336253,
				"y": -1.0766423631,
				"z": -0.1279217212,
				"element": "N" 
			},
			{
				"x": -2.5765845443,
				"y": -1.9695884219,
				"z": 0.0305882496,
				"element": "N" 
			},
			{
				"x": -1.3656351865,
				"y": -1.3686311051,
				"z": 0.2150302141,
				"element": "C" 
			},
			{
				"x": -0.0923970706,
				"y": -2.1233810612,
				"z": 0.4318182184,
				"element": "C" 
			},
			{
				"x": -1.61330004,
				"y": 0.0079323354,
				"z": 0.1420911241,
				"element": "C" 
			},
			{
				"x": -0.6534321155,
				"y": 1.1045699072,
				"z": 0.1117328695,
				"element": "C" 
			},
			{
				"x": -0.8887156371,
				"y": 2.1924759628,
				"z": -0.3962102333,
				"element": "O" 
			},
			{
				"x": 0.6925503124,
				"y": 0.9420030603,
				"z": 0.8014488322,
				"element": "C" 
			},
			{
				"x": 0.7140751846,
				"y": 0.9593118252,
				"z": 2.1111932748,
				"element": "N" 
			},
			{
				"x": 2.0681395695,
				"y": 0.9811592891,
				"z": 2.4625971142,
				"element": "O" 
			},
			{
				"x": 2.8485582659,
				"y": 0.9707492612,
				"z": 1.3593426365,
				"element": "C" 
			},
			{
				"x": 2.0170363159,
				"y": 0.9329473322,
				"z": 0.2541318834,
				"element": "C" 
			},
			{
				"x": 2.3468296856,
				"y": 0.8205606152,
				"z": -1.4956265617,
				"element": "S" 
			},
			{
				"x": 3.5687573376,
				"y": 0.0233762563,
				"z": -1.7007218211,
				"element": "O" 
			},
			{
				"x": 1.0758998921,
				"y": 0.3713450261,
				"z": -2.0821722431,
				"element": "O" 
			},
			{
				"x": 2.6971184486,
				"y": 2.4995459236,
				"z": -2.026238657,
				"element": "C" 
			},
			{
				"x": 3.9851807272,
				"y": 2.8009428259,
				"z": -2.4725999748,
				"element": "C" 
			},
			{
				"x": 4.2560098778,
				"y": 4.0964550116,
				"z": -2.9148591712,
				"element": "C" 
			},
			{
				"x": 3.2494812291,
				"y": 5.0640148326,
				"z": -2.9031811363,
				"element": "C" 
			},
			{
				"x": 1.9657106744,
				"y": 4.7437132346,
				"z": -2.4521959672,
				"element": "C" 
			},
			{
				"x": 1.6747320037,
				"y": 3.4533474375,
				"z": -2.0111681777,
				"element": "C" 
			},
			{
				"x": 4.287501432,
				"y": 1.0468139543,
				"z": 1.6362186112,
				"element": "C" 
			},
			{
				"x": 4.7035506846,
				"y": 1.686485962,
				"z": 2.8202037491,
				"element": "C" 
			},
			{
				"x": 6.0524940184,
				"y": 1.7791368458,
				"z": 3.14234533,
				"element": "C" 
			},
			{
				"x": 6.9980880408,
				"y": 1.2220841905,
				"z": 2.279615558,
				"element": "C" 
			},
			{
				"x": 8.7008986023,
				"y": 1.3357461298,
				"z": 2.6795173126,
				"element": "Cl" 
			},
			{
				"x": 6.6084029432,
				"y": 0.5747636073,
				"z": 1.1077118159,
				"element": "C" 
			},
			{
				"x": 5.255932844,
				"y": 0.4864124733,
				"z": 0.7867040145,
				"element": "C" 
			},
			{
				"x": -2.8962488197,
				"y": -3.3631414744,
				"z": -0.0041026274,
				"element": "C" 
			},
			{
				"x": -2.2014928845,
				"y": -4.234746485,
				"z": -0.8435239575,
				"element": "C" 
			},
			{
				"x": -2.5417058516,
				"y": -5.5880912894,
				"z": -0.8613477606,
				"element": "C" 
			},
			{
				"x": -3.5829422984,
				"y": -6.0868723977,
				"z": -0.0704197141,
				"element": "C" 
			},
			{
				"x": -3.9684623158,
				"y": -7.546331228,
				"z": -0.1124410482,
				"element": "C" 
			},
			{
				"x": -4.2800601516,
				"y": -5.1853340315,
				"z": 0.74915928,
				"element": "C" 
			},
			{
				"x": -3.945490405,
				"y": -3.8358399553,
				"z": 0.7892071885,
				"element": "C" 
			},
			{
				"x": -3.7285324978,
				"y": 4.0149710289,
				"z": 2.7028918779,
				"element": "H" 
			},
			{
				"x": -2.5606133476,
				"y": 4.5636036459,
				"z": 1.4858530711,
				"element": "H" 
			},
			{
				"x": -4.1172660844,
				"y": 5.4016550943,
				"z": 1.6659721732,
				"element": "H" 
			},
			{
				"x": -4.1564240262,
				"y": 3.8923117038,
				"z": -0.3517600427,
				"element": "H" 
			},
			{
				"x": -5.3159194471,
				"y": 3.3299369333,
				"z": 0.8568829037,
				"element": "H" 
			},
			{
				"x": 0.4572824791,
				"y": -1.7003434395,
				"z": 1.2751919825,
				"element": "H" 
			},
			{
				"x": 0.550097416,
				"y": -2.0627690924,
				"z": -0.4532533618,
				"element": "H" 
			},
			{
				"x": -0.2896095722,
				"y": -3.1745497699,
				"z": 0.6451806378,
				"element": "H" 
			},
			{
				"x": 4.7462514839,
				"y": 2.0292448662,
				"z": -2.4804908598,
				"element": "H" 
			},
			{
				"x": 5.2512012587,
				"y": 4.3467605452,
				"z": -3.2693611999,
				"element": "H" 
			},
			{
				"x": 3.4649813094,
				"y": 6.0712381295,
				"z": -3.2477511916,
				"element": "H" 
			},
			{
				"x": 1.1857353286,
				"y": 5.4988395748,
				"z": -2.4465652701,
				"element": "H" 
			},
			{
				"x": 0.6831283502,
				"y": 3.1956286825,
				"z": -1.6517569755,
				"element": "H" 
			},
			{
				"x": 3.9645383143,
				"y": 2.118482392,
				"z": 3.48535026,
				"element": "H" 
			},
			{
				"x": 6.3701766041,
				"y": 2.2792234352,
				"z": 4.0501969618,
				"element": "H" 
			},
			{
				"x": 7.354989186,
				"y": 0.1363130957,
				"z": 0.4551375241,
				"element": "H" 
			},
			{
				"x": 4.9501831309,
				"y": -0.0263938751,
				"z": -0.1163223873,
				"element": "H" 
			},
			{
				"x": -1.4179795648,
				"y": -3.8580949657,
				"z": -1.4924542346,
				"element": "H" 
			},
			{
				"x": -1.9954278822,
				"y": -6.2619785504,
				"z": -1.5156287407,
				"element": "H" 
			},
			{
				"x": -4.9158010772,
				"y": -7.6889523548,
				"z": -0.6461836264,
				"element": "H" 
			},
			{
				"x": -3.2094094598,
				"y": -8.1468315797,
				"z": -0.6208675876,
				"element": "H" 
			},
			{
				"x": -4.1026402327,
				"y": -7.9529087382,
				"z": 0.8954368263,
				"element": "H" 
			},
			{
				"x": -5.0959908931,
				"y": -5.5472834741,
				"z": 1.369377506,
				"element": "H" 
			},
			{
				"x": -4.4895207195,
				"y": -3.1409173935,
				"z": 1.4188073108,
				"element": "H" 
			}
		],
		 "valence_orbital": [ 
			{
				"type": "occ",
				"energy": -0.26509,
				"method": "rhf"
			},
			{
				"type": "occ",
				"energy": -0.26466,
				"method": "rhf"
			},
			{
				"type": "occ",
				"energy": -0.25491,
				"method": "rhf"
			},
			{
				"type": "occ",
				"energy": -0.25162,
				"method": "rhf"
			},
			{
				"type": "occ",
				"energy": -0.24126,
				"method": "rhf"
			},
			{
				"type": "unocc",
				"energy": -0.07497,
				"method": "rhf"
			},
			{
				"type": "unocc",
				"energy": -0.05948,
				"method": "rhf"
			},
			{
				"type": "unocc",
				"energy": -0.04317,
				"method": "rhf"
			},
			{
				"type": "unocc",
				"energy": -0.0303,
				"method": "rhf"
			},
			{
				"type": "unocc",
				"energy": -0.02854,
				"method": "rhf"
			}
		],
		"cosmo_sigma_profile": { 
			"-0.025": 0.0,
			"-0.024": 0.0,
			"-0.023": 0.0,
			"-0.022": 0.0,
			"-0.021": 0.0,
			"-0.02": 0.0,
			"-0.019": 0.0,
			"-0.018": 0.0,
			"-0.017": 0.0,
			"-0.016": 0.0,
			"-0.015": 0.0,
			"-0.014": 0.0,
			"-0.013": 0.0,
			"-0.012": 0.0,
			"-0.011": 0.0,
			"-0.01": 0.0,
			"-0.009": 0.0583107087871,
			"-0.008": 3.96897019764,
			"-0.007": 17.2804451895,
			"-0.006": 28.6872298261,
			"-0.005": 42.0717022133,
			"-0.004": 51.7850417204,
			"-0.003": 52.9758126921,
			"-0.002": 47.8108300557,
			"-0.001": 48.819109017,
			"0.0": 55.3789299477,
			"0.001": 51.4435977666,
			"0.002": 47.1041520013,
			"0.003": 36.6437416272,
			"0.004": 31.9814890705,
			"0.005": 14.1866869857,
			"0.006": 12.9171550522,
			"0.007": 9.48917025981,
			"0.008": 9.07020122183,
			"0.009": 9.22196114223,
			"0.01": 8.77640920775,
			"0.011": 12.3123156105,
			"0.012": 4.99873007829,
			"0.013": 0.942805472541,
			"0.014": 0.00344674641127,
			"0.015": 0.0,
			"0.016": 0.0,
			"0.017": 0.0,
			"0.018": 0.0,
			"0.019": 0.0,
			"0.02": 0.0,
			"0.021": 0.0,
			"0.022": 0.0,
			"0.023": 0.0,
			"0.024": 0.0,
			"0.025": 0.0
		}
	}
}
