{
	 "smiles": "FC(F)(F)CC(F)(F)F", 
	 "Tm": 177.05, 
	 "num_atms": 11, 
	 "gaussian": { 
		 "optdone": 1, 
		 "sigma_profile": "yes", 
		 "theory": "DFT", 
		 "functional": "B3LYP", 
		 "basiset": "6-31G**", 
		 "properties": { 
			 "R2extent": 1642.4036, 
			 "electric_dipole_moment_norm": 1.81076718548, 
			 "electric_quadrupole_moment_norm": 3.22133932239, 
			 "total_energy": -714.580420747, 
			 "HOMO_LUMO_gap": 0.46222, 
			 "cosmo_polarized_energy": -4.38, 
			 "cosmo_cavitation_energy": 17.71, 
			 "cosmo_dispersion_energy": -12.31, 
			 "cosmo_repulsion_energy": 0.91, 
			 "cosmo_total_nonelectrostatic_energy": 6.31, 
			 "SMD_solvation_energy": 5.44 
		},
		"coords": [
			{
				"x": 0.2142079516,
				"y": -1.1110998103,
				"z": 1.7390082097,
				"element": "F" 
			},
			{
				"x": 0.4828562521,
				"y": 0.1990945688,
				"z": 1.5514579948,
				"element": "C" 
			},
			{
				"x": 1.8063328665,
				"y": 0.3736238151,
				"z": 1.7178265154,
				"element": "F" 
			},
			{
				"x": -0.1497661097,
				"y": 0.8891840613,
				"z": 2.5175287346,
				"element": "F" 
			},
			{
				"x": 0.0251858802,
				"y": 0.6142077935,
				"z": 0.1642656825,
				"element": "C" 
			},
			{
				"x": 0.2706259201,
				"y": 2.0737878575,
				"z": -0.1755873759,
				"element": "C" 
			},
			{
				"x": 1.5784349762,
				"y": 2.3865535798,
				"z": -0.1363244699,
				"element": "F" 
			},
			{
				"x": -0.1745633948,
				"y": 2.3241984657,
				"z": -1.4258036792,
				"element": "F" 
			},
			{
				"x": -0.3777562028,
				"y": 2.9016510184,
				"z": 0.6634473635,
				"element": "F" 
			},
			{
				"x": -1.0455090645,
				"y": 0.4176098766,
				"z": 0.0823985876,
				"element": "H" 
			},
			{
				"x": 0.5485509251,
				"y": -0.0022112264,
				"z": -0.5691175632,
				"element": "H" 
			}
		],
		 "valence_orbital": [ 
			{
				"type": "occ",
				"energy": -0.41869,
				"method": "rhf"
			},
			{
				"type": "occ",
				"energy": -0.41215,
				"method": "rhf"
			},
			{
				"type": "occ",
				"energy": -0.40767,
				"method": "rhf"
			},
			{
				"type": "occ",
				"energy": -0.40261,
				"method": "rhf"
			},
			{
				"type": "occ",
				"energy": -0.38227,
				"method": "rhf"
			},
			{
				"type": "unocc",
				"energy": 0.07995,
				"method": "rhf"
			},
			{
				"type": "unocc",
				"energy": 0.09521,
				"method": "rhf"
			},
			{
				"type": "unocc",
				"energy": 0.13512,
				"method": "rhf"
			},
			{
				"type": "unocc",
				"energy": 0.13526,
				"method": "rhf"
			},
			{
				"type": "unocc",
				"energy": 0.14826,
				"method": "rhf"
			}
		],
		"cosmo_sigma_profile": { 
			"-0.025": 0.0,
			"-0.024": 0.0,
			"-0.023": 0.0,
			"-0.022": 0.0,
			"-0.021": 0.0,
			"-0.02": 0.0,
			"-0.019": 0.0,
			"-0.018": 0.0,
			"-0.017": 0.0,
			"-0.016": 0.0,
			"-0.015": 0.0,
			"-0.014": 0.0,
			"-0.013": 0.0,
			"-0.012": 0.0,
			"-0.011": 0.6870744311,
			"-0.01": 4.4797137908,
			"-0.009": 4.78149314281,
			"-0.008": 3.37086409131,
			"-0.007": 3.18208384795,
			"-0.006": 4.0394298103,
			"-0.005": 2.81100285093,
			"-0.004": 2.10357164654,
			"-0.003": 3.41109076274,
			"-0.002": 4.2617602234,
			"-0.001": 4.85955056954,
			"0.0": 8.46782380085,
			"0.001": 11.6031280769,
			"0.002": 48.5442025793,
			"0.003": 34.5233236252,
			"0.004": 0.304142911408,
			"0.005": 0.0,
			"0.006": 0.0,
			"0.007": 0.0,
			"0.008": 0.0,
			"0.009": 0.0,
			"0.01": 0.0,
			"0.011": 0.0,
			"0.012": 0.0,
			"0.013": 0.0,
			"0.014": 0.0,
			"0.015": 0.0,
			"0.016": 0.0,
			"0.017": 0.0,
			"0.018": 0.0,
			"0.019": 0.0,
			"0.02": 0.0,
			"0.021": 0.0,
			"0.022": 0.0,
			"0.023": 0.0,
			"0.024": 0.0,
			"0.025": 0.0
		}
	}
}
