{
	 "smiles": "O=C1CCC2=CC=CC=C12", 
	 "Tm": 314.15, 
	 "num_atms": 18, 
	 "gaussian": { 
		 "optdone": 1, 
		 "sigma_profile": "yes", 
		 "theory": "DFT", 
		 "functional": "B3LYP", 
		 "basiset": "6-31G**", 
		 "properties": { 
			 "R2extent": 1384.6181, 
			 "electric_dipole_moment_norm": 3.42520410633, 
			 "electric_quadrupole_moment_norm": 8.4893082763, 
			 "total_energy": -423.011563878, 
			 "HOMO_LUMO_gap": 0.18661, 
			 "cosmo_polarized_energy": -8.29, 
			 "cosmo_cavitation_energy": 21.43, 
			 "cosmo_dispersion_energy": -16.13, 
			 "cosmo_repulsion_energy": 1.31, 
			 "cosmo_total_nonelectrostatic_energy": 6.61, 
			 "SMD_solvation_energy": 3.87 
		},
		"coords": [
			{
				"x": -1.8260046203,
				"y": 1.3758898106,
				"z": 2.1130631393,
				"element": "O" 
			},
			{
				"x": -0.7599061363,
				"y": 0.9576131757,
				"z": 1.701951962,
				"element": "C" 
			},
			{
				"x": 0.6152855261,
				"y": 1.2064574677,
				"z": 2.3464812155,
				"element": "C" 
			},
			{
				"x": 1.6499806487,
				"y": 0.4739306508,
				"z": 1.4584011486,
				"element": "C" 
			},
			{
				"x": 0.8270096453,
				"y": -0.1577290567,
				"z": 0.3501868668,
				"element": "C" 
			},
			{
				"x": 1.2586915314,
				"y": -0.935001142,
				"z": -0.7258764457,
				"element": "C" 
			},
			{
				"x": 0.3103728177,
				"y": -1.4147087209,
				"z": -1.632377571,
				"element": "C" 
			},
			{
				"x": -1.0558950449,
				"y": -1.1285925079,
				"z": -1.4772057242,
				"element": "C" 
			},
			{
				"x": -1.4898434612,
				"y": -0.3539300218,
				"z": -0.4054623586,
				"element": "C" 
			},
			{
				"x": -0.5352108222,
				"y": 0.1226448357,
				"z": 0.497755902,
				"element": "C" 
			},
			{
				"x": 0.5977210871,
				"y": 0.8361428592,
				"z": 3.3765461369,
				"element": "H" 
			},
			{
				"x": 0.7906363865,
				"y": 2.2854478728,
				"z": 2.405867615,
				"element": "H" 
			},
			{
				"x": 2.2049128421,
				"y": -0.2881405189,
				"z": 2.0177373802,
				"element": "H" 
			},
			{
				"x": 2.3984628191,
				"y": 1.1614291829,
				"z": 1.0477028791,
				"element": "H" 
			},
			{
				"x": 2.3121068151,
				"y": -1.1662370182,
				"z": -0.8616074141,
				"element": "H" 
			},
			{
				"x": 0.6350197181,
				"y": -2.0207767401,
				"z": -2.4738841515,
				"element": "H" 
			},
			{
				"x": -1.7705561452,
				"y": -1.5151588742,
				"z": -2.1978158012,
				"element": "H" 
			},
			{
				"x": -2.5386836073,
				"y": -0.1145812547,
				"z": -0.2567647792,
				"element": "H" 
			}
		],
		 "valence_orbital": [ 
			{
				"type": "occ",
				"energy": -0.34596,
				"method": "rhf"
			},
			{
				"type": "occ",
				"energy": -0.33664,
				"method": "rhf"
			},
			{
				"type": "occ",
				"energy": -0.2601,
				"method": "rhf"
			},
			{
				"type": "occ",
				"energy": -0.25353,
				"method": "rhf"
			},
			{
				"type": "occ",
				"energy": -0.23881,
				"method": "rhf"
			},
			{
				"type": "unocc",
				"energy": -0.0522,
				"method": "rhf"
			},
			{
				"type": "unocc",
				"energy": -0.01156,
				"method": "rhf"
			},
			{
				"type": "unocc",
				"energy": 0.04744,
				"method": "rhf"
			},
			{
				"type": "unocc",
				"energy": 0.09438,
				"method": "rhf"
			},
			{
				"type": "unocc",
				"energy": 0.10071,
				"method": "rhf"
			}
		],
		"cosmo_sigma_profile": { 
			"-0.025": 0.0,
			"-0.024": 0.0,
			"-0.023": 0.0,
			"-0.022": 0.0,
			"-0.021": 0.0,
			"-0.02": 0.0,
			"-0.019": 0.0,
			"-0.018": 0.0,
			"-0.017": 0.0,
			"-0.016": 0.0,
			"-0.015": 0.0,
			"-0.014": 0.0,
			"-0.013": 0.0,
			"-0.012": 0.0,
			"-0.011": 0.0,
			"-0.01": 0.0,
			"-0.009": 0.0,
			"-0.008": 0.0,
			"-0.007": 0.890670599977,
			"-0.006": 9.359894952,
			"-0.005": 17.1408932617,
			"-0.004": 22.1717134835,
			"-0.003": 18.5493151451,
			"-0.002": 15.2360153755,
			"-0.001": 12.4442847895,
			"0.0": 8.86072347059,
			"0.001": 9.11080829323,
			"0.002": 11.1912742529,
			"0.003": 10.2976901619,
			"0.004": 12.2886635776,
			"0.005": 3.68750529509,
			"0.006": 1.54615850667,
			"0.007": 1.50087351346,
			"0.008": 1.73980184449,
			"0.009": 1.50724244022,
			"0.01": 1.85645684544,
			"0.011": 2.78924026608,
			"0.012": 4.67748501708,
			"0.013": 3.42746025216,
			"0.014": 0.62621771991,
			"0.015": 0.0,
			"0.016": 0.0,
			"0.017": 0.0,
			"0.018": 0.0,
			"0.019": 0.0,
			"0.02": 0.0,
			"0.021": 0.0,
			"0.022": 0.0,
			"0.023": 0.0,
			"0.024": 0.0,
			"0.025": 0.0
		}
	}
}
