{
	 "smiles": "CC1=CC2=CC=CC=C2C=C1CBr", 
	 "Tm": 368.15, 
	 "num_atms": 24, 
	 "gaussian": { 
		 "optdone": 1, 
		 "sigma_profile": "yes", 
		 "theory": "DFT", 
		 "functional": "B3LYP", 
		 "basiset": "6-31G**", 
		 "properties": { 
			 "R2extent": 6022.2415, 
			 "electric_dipole_moment_norm": 2.26337698583, 
			 "electric_quadrupole_moment_norm": 13.1152302858, 
			 "total_energy": -3035.33733201, 
			 "HOMO_LUMO_gap": 0.16806, 
			 "cosmo_polarized_energy": -7.13, 
			 "cosmo_cavitation_energy": 29.1, 
			 "cosmo_dispersion_energy": -21.62, 
			 "cosmo_repulsion_energy": 1.68, 
			 "cosmo_total_nonelectrostatic_energy": 9.16, 
			 "SMD_solvation_energy": 3.44 
		},
		"coords": [
			{
				"x": -2.5250494879,
				"y": 1.9908866766,
				"z": -1.0643057435,
				"element": "C" 
			},
			{
				"x": -1.8395012438,
				"y": 0.8577751044,
				"z": -0.3402703414,
				"element": "C" 
			},
			{
				"x": -0.4779024283,
				"y": 0.8845529099,
				"z": -0.1257252728,
				"element": "C" 
			},
			{
				"x": 0.2097448692,
				"y": -0.1600623356,
				"z": 0.5478721243,
				"element": "C" 
			},
			{
				"x": 1.6125464801,
				"y": -0.1327101341,
				"z": 0.7674073748,
				"element": "C" 
			},
			{
				"x": 2.2420873666,
				"y": -1.1669300867,
				"z": 1.4244599985,
				"element": "C" 
			},
			{
				"x": 1.4977684126,
				"y": -2.2777810343,
				"z": 1.8929504884,
				"element": "C" 
			},
			{
				"x": 0.1362569822,
				"y": -2.3334879164,
				"z": 1.6948945348,
				"element": "C" 
			},
			{
				"x": -0.5411559423,
				"y": -1.2819920749,
				"z": 1.0211031354,
				"element": "C" 
			},
			{
				"x": -1.9404790635,
				"y": -1.2971528369,
				"z": 0.7963763196,
				"element": "C" 
			},
			{
				"x": -2.5885227223,
				"y": -0.269976315,
				"z": 0.1374772342,
				"element": "C" 
			},
			{
				"x": -4.0612491917,
				"y": -0.367635305,
				"z": -0.0820078186,
				"element": "C" 
			},
			{
				"x": -5.1210473794,
				"y": 0.7147080873,
				"z": 1.2507948947,
				"element": "Br" 
			},
			{
				"x": -2.9673343692,
				"y": 1.6577090321,
				"z": -2.0119281192,
				"element": "H" 
			},
			{
				"x": -1.8157991906,
				"y": 2.7890747646,
				"z": -1.2967136144,
				"element": "H" 
			},
			{
				"x": -3.3360460924,
				"y": 2.4159980907,
				"z": -0.4636429216,
				"element": "H" 
			},
			{
				"x": 0.0999362968,
				"y": 1.7338733967,
				"z": -0.4834237153,
				"element": "H" 
			},
			{
				"x": 2.1829948526,
				"y": 0.7199792536,
				"z": 0.4081056003,
				"element": "H" 
			},
			{
				"x": 3.3156084726,
				"y": -1.1343000124,
				"z": 1.586746422,
				"element": "H" 
			},
			{
				"x": 2.0069600942,
				"y": -3.0858416079,
				"z": 2.4099684664,
				"element": "H" 
			},
			{
				"x": -0.4392036479,
				"y": -3.1831819551,
				"z": 2.0534517436,
				"element": "H" 
			},
			{
				"x": -2.515405372,
				"y": -2.1460109794,
				"z": 1.160316576,
				"element": "H" 
			},
			{
				"x": -4.3894184146,
				"y": 0.0248666123,
				"z": -1.0422138336,
				"element": "H" 
			},
			{
				"x": -4.4327892808,
				"y": -1.3810613346,
				"z": 0.0523064675,
				"element": "H" 
			}
		],
		 "valence_orbital": [ 
			{
				"type": "occ",
				"energy": -0.28597,
				"method": "rhf"
			},
			{
				"type": "occ",
				"energy": -0.26994,
				"method": "rhf"
			},
			{
				"type": "occ",
				"energy": -0.26799,
				"method": "rhf"
			},
			{
				"type": "occ",
				"energy": -0.23951,
				"method": "rhf"
			},
			{
				"type": "occ",
				"energy": -0.21743,
				"method": "rhf"
			},
			{
				"type": "unocc",
				"energy": -0.04937,
				"method": "rhf"
			},
			{
				"type": "unocc",
				"energy": -0.02623,
				"method": "rhf"
			},
			{
				"type": "unocc",
				"energy": 0.01493,
				"method": "rhf"
			},
			{
				"type": "unocc",
				"energy": 0.03226,
				"method": "rhf"
			},
			{
				"type": "unocc",
				"energy": 0.08715,
				"method": "rhf"
			}
		],
		"cosmo_sigma_profile": { 
			"-0.025": 0.0,
			"-0.024": 0.0,
			"-0.023": 0.0,
			"-0.022": 0.0,
			"-0.021": 0.0,
			"-0.02": 0.0,
			"-0.019": 0.0,
			"-0.018": 0.0,
			"-0.017": 0.0,
			"-0.016": 0.0,
			"-0.015": 0.0,
			"-0.014": 0.0,
			"-0.013": 0.0,
			"-0.012": 0.0,
			"-0.011": 0.0,
			"-0.01": 0.0,
			"-0.009": 0.0,
			"-0.008": 1.53545069004,
			"-0.007": 6.58203339942,
			"-0.006": 14.2782131261,
			"-0.005": 18.3637856334,
			"-0.004": 19.1390881046,
			"-0.003": 15.6805454884,
			"-0.002": 15.2571524673,
			"-0.001": 16.309767839,
			"0.0": 17.8007511274,
			"0.001": 14.4743324154,
			"0.002": 14.0901909991,
			"0.003": 18.3815965717,
			"0.004": 29.4397787518,
			"0.005": 18.813510401,
			"0.006": 10.2686236604,
			"0.007": 4.71293779194,
			"0.008": 0.0,
			"0.009": 0.0,
			"0.01": 0.0,
			"0.011": 0.0,
			"0.012": 0.0,
			"0.013": 0.0,
			"0.014": 0.0,
			"0.015": 0.0,
			"0.016": 0.0,
			"0.017": 0.0,
			"0.018": 0.0,
			"0.019": 0.0,
			"0.02": 0.0,
			"0.021": 0.0,
			"0.022": 0.0,
			"0.023": 0.0,
			"0.024": 0.0,
			"0.025": 0.0
		}
	}
}
