{
	 "smiles": "OC(=O)C1=CC=CC=C1Cl", 
	 "Tm": 413.15, 
	 "num_atms": 15, 
	 "gaussian": { 
		 "optdone": 1, 
		 "sigma_profile": "yes", 
		 "theory": "DFT", 
		 "functional": "B3LYP", 
		 "basiset": "6-31G**", 
		 "properties": { 
			 "R2extent": 2012.3432, 
			 "electric_dipole_moment_norm": 4.78445093402, 
			 "electric_quadrupole_moment_norm": 11.5986923246, 
			 "total_energy": -880.40356464, 
			 "HOMO_LUMO_gap": 0.2097, 
			 "cosmo_polarized_energy": -10.26, 
			 "cosmo_cavitation_energy": 20.97, 
			 "cosmo_dispersion_energy": -16.09, 
			 "cosmo_repulsion_energy": 1.28, 
			 "cosmo_total_nonelectrostatic_energy": 6.16, 
			 "SMD_solvation_energy": 4.58 
		},
		"coords": [
			{
				"x": -1.991073678,
				"y": -0.2401091359,
				"z": -2.5595575659,
				"element": "O" 
			},
			{
				"x": -1.8434008402,
				"y": -1.0823215692,
				"z": -1.5235123927,
				"element": "C" 
			},
			{
				"x": -2.1398851142,
				"y": -2.24924047,
				"z": -1.65187256,
				"element": "O" 
			},
			{
				"x": -1.3063215724,
				"y": -0.5632108704,
				"z": -0.2000368366,
				"element": "C" 
			},
			{
				"x": -1.2042370338,
				"y": -1.5451302404,
				"z": 0.8031127605,
				"element": "C" 
			},
			{
				"x": -0.7339531078,
				"y": -1.2564772354,
				"z": 2.0777406124,
				"element": "C" 
			},
			{
				"x": -0.3448798544,
				"y": 0.0462263193,
				"z": 2.3919693847,
				"element": "C" 
			},
			{
				"x": -0.4309930501,
				"y": 1.0456162703,
				"z": 1.4262058977,
				"element": "C" 
			},
			{
				"x": -0.9057101445,
				"y": 0.7383187537,
				"z": 0.1508857254,
				"element": "C" 
			},
			{
				"x": -0.9625351794,
				"y": 2.1059997479,
				"z": -0.9809503011,
				"element": "Cl" 
			},
			{
				"x": -1.7200423966,
				"y": 0.6646323047,
				"z": -2.332233434,
				"element": "H" 
			},
			{
				"x": -1.5131833834,
				"y": -2.5477678544,
				"z": 0.5309386593,
				"element": "H" 
			},
			{
				"x": -0.6711878781,
				"y": -2.0435772997,
				"z": 2.8222911662,
				"element": "H" 
			},
			{
				"x": 0.0252129353,
				"y": 0.2908033084,
				"z": 3.3829229463,
				"element": "H" 
			},
			{
				"x": -0.1332097024,
				"y": 2.0633379713,
				"z": 1.6517959378,
				"element": "H" 
			}
		],
		 "valence_orbital": [ 
			{
				"type": "occ",
				"energy": -0.33993,
				"method": "rhf"
			},
			{
				"type": "occ",
				"energy": -0.3158,
				"method": "rhf"
			},
			{
				"type": "occ",
				"energy": -0.27982,
				"method": "rhf"
			},
			{
				"type": "occ",
				"energy": -0.27793,
				"method": "rhf"
			},
			{
				"type": "occ",
				"energy": -0.27234,
				"method": "rhf"
			},
			{
				"type": "unocc",
				"energy": -0.06264,
				"method": "rhf"
			},
			{
				"type": "unocc",
				"energy": -0.03209,
				"method": "rhf"
			},
			{
				"type": "unocc",
				"energy": -0.0037,
				"method": "rhf"
			},
			{
				"type": "unocc",
				"energy": 0.04508,
				"method": "rhf"
			},
			{
				"type": "unocc",
				"energy": 0.09286,
				"method": "rhf"
			}
		],
		"cosmo_sigma_profile": { 
			"-0.025": 0.0,
			"-0.024": 0.0,
			"-0.023": 0.0,
			"-0.022": 0.0,
			"-0.021": 0.0,
			"-0.02": 0.0,
			"-0.019": 0.0,
			"-0.018": 0.0,
			"-0.017": 0.0,
			"-0.016": 0.0,
			"-0.015": 0.0,
			"-0.014": 0.0,
			"-0.013": 0.0,
			"-0.012": 0.0371749282618,
			"-0.011": 0.721466770724,
			"-0.01": 1.0774791498,
			"-0.009": 1.73371671951,
			"-0.008": 4.60629643222,
			"-0.007": 8.7146190515,
			"-0.006": 11.202666895,
			"-0.005": 10.7046699261,
			"-0.004": 8.97891471853,
			"-0.003": 10.1912089881,
			"-0.002": 10.3922986263,
			"-0.001": 12.0912191904,
			"0.0": 15.775472836,
			"0.001": 16.4587517705,
			"0.002": 19.9165812337,
			"0.003": 8.63831224886,
			"0.004": 2.15274422526,
			"0.005": 2.58395351938,
			"0.006": 2.44876227246,
			"0.007": 1.64777964583,
			"0.008": 3.00910353701,
			"0.009": 3.178479156,
			"0.01": 4.45145852936,
			"0.011": 5.26454439254,
			"0.012": 3.86043198925,
			"0.013": 1.40010869672,
			"0.014": 0.0553582737828,
			"0.015": 0.0,
			"0.016": 0.0,
			"0.017": 0.0,
			"0.018": 0.0,
			"0.019": 0.0,
			"0.02": 0.0,
			"0.021": 0.0,
			"0.022": 0.0,
			"0.023": 0.0,
			"0.024": 0.0,
			"0.025": 0.0
		}
	}
}
