{
	 "smiles": "CC1CC(=O)C2=C1C(Br)=CC=C2", 
	 "Tm": 319.15, 
	 "num_atms": 21, 
	 "gaussian": { 
		 "optdone": 1, 
		 "sigma_profile": "yes", 
		 "theory": "DFT", 
		 "functional": "B3LYP", 
		 "basiset": "6-31G**", 
		 "properties": { 
			 "R2extent": 2870.5003, 
			 "electric_dipole_moment_norm": 1.85701596654, 
			 "electric_quadrupole_moment_norm": 14.5549032824, 
			 "total_energy": -3033.12924587, 
			 "HOMO_LUMO_gap": 0.18366, 
			 "cosmo_polarized_energy": -7.73, 
			 "cosmo_cavitation_energy": 26.31, 
			 "cosmo_dispersion_energy": -19.51, 
			 "cosmo_repulsion_energy": 1.54, 
			 "cosmo_total_nonelectrostatic_energy": 8.34, 
			 "SMD_solvation_energy": 3.8 
		},
		"coords": [
			{
				"x": 1.8104180734,
				"y": 1.4011401023,
				"z": -0.2526626115,
				"element": "C" 
			},
			{
				"x": 0.2803647994,
				"y": 1.2813130018,
				"z": -0.1105916162,
				"element": "C" 
			},
			{
				"x": -0.2981114965,
				"y": 2.3434805135,
				"z": 0.8612159644,
				"element": "C" 
			},
			{
				"x": -0.7154996755,
				"y": 1.5901274774,
				"z": 2.1307348864,
				"element": "C" 
			},
			{
				"x": -1.0634294659,
				"y": 2.085040667,
				"z": 3.1853971748,
				"element": "O" 
			},
			{
				"x": -0.6477555044,
				"y": 0.1395262237,
				"z": 1.8146851445,
				"element": "C" 
			},
			{
				"x": -0.1361081559,
				"y": -0.0390196173,
				"z": 0.5225607926,
				"element": "C" 
			},
			{
				"x": -0.0663769469,
				"y": -1.3381396584,
				"z": 0.0217280728,
				"element": "C" 
			},
			{
				"x": 0.5493833141,
				"y": -1.6752606762,
				"z": -1.7609692126,
				"element": "Br" 
			},
			{
				"x": -0.4704452223,
				"y": -2.4205988273,
				"z": 0.8053036913,
				"element": "C" 
			},
			{
				"x": -0.9544639164,
				"y": -2.214354158,
				"z": 2.1043408752,
				"element": "C" 
			},
			{
				"x": -1.0521513552,
				"y": -0.9251101611,
				"z": 2.6208242219,
				"element": "C" 
			},
			{
				"x": 2.2156835283,
				"y": 0.6068439412,
				"z": -0.8837424825,
				"element": "H" 
			},
			{
				"x": 2.0733206073,
				"y": 2.3634641441,
				"z": -0.7035285817,
				"element": "H" 
			},
			{
				"x": 2.295365048,
				"y": 1.3411321904,
				"z": 0.7276709248,
				"element": "H" 
			},
			{
				"x": -0.1669516712,
				"y": 1.3683643099,
				"z": -1.1075416816,
				"element": "H" 
			},
			{
				"x": -1.1935712996,
				"y": 2.8254255331,
				"z": 0.4508365262,
				"element": "H" 
			},
			{
				"x": 0.4080589725,
				"y": 3.1420294949,
				"z": 1.1060457463,
				"element": "H" 
			},
			{
				"x": -0.4110554446,
				"y": -3.4243384404,
				"z": 0.3990063666,
				"element": "H" 
			},
			{
				"x": -1.2626698774,
				"y": -3.0711334793,
				"z": 2.6958198773,
				"element": "H" 
			},
			{
				"x": -1.4397043112,
				"y": -0.7306325815,
				"z": 3.6159659211,
				"element": "H" 
			}
		],
		 "valence_orbital": [ 
			{
				"type": "occ",
				"energy": -0.31903,
				"method": "rhf"
			},
			{
				"type": "occ",
				"energy": -0.2957,
				"method": "rhf"
			},
			{
				"type": "occ",
				"energy": -0.26692,
				"method": "rhf"
			},
			{
				"type": "occ",
				"energy": -0.25267,
				"method": "rhf"
			},
			{
				"type": "occ",
				"energy": -0.24665,
				"method": "rhf"
			},
			{
				"type": "unocc",
				"energy": -0.06299,
				"method": "rhf"
			},
			{
				"type": "unocc",
				"energy": -0.02414,
				"method": "rhf"
			},
			{
				"type": "unocc",
				"energy": 0.00027,
				"method": "rhf"
			},
			{
				"type": "unocc",
				"energy": 0.03519,
				"method": "rhf"
			},
			{
				"type": "unocc",
				"energy": 0.09509,
				"method": "rhf"
			}
		],
		"cosmo_sigma_profile": { 
			"-0.025": 0.0,
			"-0.024": 0.0,
			"-0.023": 0.0,
			"-0.022": 0.0,
			"-0.021": 0.0,
			"-0.02": 0.0,
			"-0.019": 0.0,
			"-0.018": 0.0,
			"-0.017": 0.0,
			"-0.016": 0.0,
			"-0.015": 0.0,
			"-0.014": 0.0,
			"-0.013": 0.0,
			"-0.012": 0.0,
			"-0.011": 0.0,
			"-0.01": 0.0,
			"-0.009": 0.0,
			"-0.008": 0.829373945891,
			"-0.007": 4.97321742822,
			"-0.006": 9.39439260125,
			"-0.005": 14.2776531113,
			"-0.004": 17.6471151598,
			"-0.003": 18.9816552895,
			"-0.002": 18.8622232553,
			"-0.001": 16.8065219498,
			"0.0": 21.4214944322,
			"0.001": 23.4429717029,
			"0.002": 20.0389900801,
			"0.003": 14.5739745246,
			"0.004": 9.31777247252,
			"0.005": 3.28952760006,
			"0.006": 1.76029478337,
			"0.007": 1.24424651715,
			"0.008": 1.95716788822,
			"0.009": 1.68386894331,
			"0.01": 1.8060555588,
			"0.011": 3.38252143282,
			"0.012": 4.86594738684,
			"0.013": 1.90682792892,
			"0.014": 0.124751190011,
			"0.015": 0.0,
			"0.016": 0.0,
			"0.017": 0.0,
			"0.018": 0.0,
			"0.019": 0.0,
			"0.02": 0.0,
			"0.021": 0.0,
			"0.022": 0.0,
			"0.023": 0.0,
			"0.024": 0.0,
			"0.025": 0.0
		}
	}
}
