{
	 "smiles": "CC1CCCC(C1)C(N)C(O)=O", 
	 "Tm": 575.15, 
	 "num_atms": 29, 
	 "gaussian": { 
		 "optdone": 1, 
		 "sigma_profile": "yes", 
		 "theory": "DFT", 
		 "functional": "B3LYP", 
		 "basiset": "6-31G**", 
		 "properties": { 
			 "R2extent": 2562.8894, 
			 "electric_dipole_moment_norm": 2.0206257125, 
			 "electric_quadrupole_moment_norm": 9.94158988895, 
			 "total_energy": -558.418922783, 
			 "HOMO_LUMO_gap": 0.24542, 
			 "cosmo_polarized_energy": -10.85, 
			 "cosmo_cavitation_energy": 28.4, 
			 "cosmo_dispersion_energy": -20.85, 
			 "cosmo_repulsion_energy": 1.67, 
			 "cosmo_total_nonelectrostatic_energy": 9.23, 
			 "SMD_solvation_energy": 4.66 
		},
		"coords": [
			{
				"x": -1.111482743,
				"y": 0.0795443665,
				"z": -1.9942464156,
				"element": "C" 
			},
			{
				"x": -1.5087419713,
				"y": 0.4351162173,
				"z": -0.5500280396,
				"element": "C" 
			},
			{
				"x": -1.9022161027,
				"y": 1.9330203992,
				"z": -0.4021082241,
				"element": "C" 
			},
			{
				"x": -0.7694503455,
				"y": 2.8421030725,
				"z": 0.1382889393,
				"element": "C" 
			},
			{
				"x": 0.6266719479,
				"y": 2.2630488716,
				"z": -0.1216315285,
				"element": "C" 
			},
			{
				"x": 0.7909776072,
				"y": 0.9337393161,
				"z": 0.6406061677,
				"element": "C" 
			},
			{
				"x": -0.4578885319,
				"y": 0.0084606493,
				"z": 0.5024609938,
				"element": "C" 
			},
			{
				"x": 2.12176953,
				"y": 0.230108672,
				"z": 0.3025463736,
				"element": "C" 
			},
			{
				"x": 2.1351094926,
				"y": -0.3373296733,
				"z": -1.046260517,
				"element": "N" 
			},
			{
				"x": 2.4296855118,
				"y": -0.8530745238,
				"z": 1.3353547132,
				"element": "C" 
			},
			{
				"x": 3.3261989756,
				"y": -1.760675449,
				"z": 0.8721507207,
				"element": "O" 
			},
			{
				"x": 1.9988948004,
				"y": -0.8962242268,
				"z": 2.466116511,
				"element": "O" 
			},
			{
				"x": -1.9514510819,
				"y": 0.2649709624,
				"z": -2.6740775042,
				"element": "H" 
			},
			{
				"x": -0.2621472335,
				"y": 0.6645081769,
				"z": -2.3569961175,
				"element": "H" 
			},
			{
				"x": -0.8310924102,
				"y": -0.9750912317,
				"z": -2.0763033451,
				"element": "H" 
			},
			{
				"x": -2.406948675,
				"y": -0.1594795755,
				"z": -0.3361426326,
				"element": "H" 
			},
			{
				"x": -2.236239678,
				"y": 2.3034863521,
				"z": -1.3788843104,
				"element": "H" 
			},
			{
				"x": -2.7695278127,
				"y": 2.0212950951,
				"z": 0.2624587159,
				"element": "H" 
			},
			{
				"x": -0.8547166824,
				"y": 3.8453872876,
				"z": -0.2941343562,
				"element": "H" 
			},
			{
				"x": -0.8830289965,
				"y": 2.9690479178,
				"z": 1.2231870036,
				"element": "H" 
			},
			{
				"x": 0.7723196479,
				"y": 2.1312101644,
				"z": -1.2013434303,
				"element": "H" 
			},
			{
				"x": 1.3984325155,
				"y": 2.9701918657,
				"z": 0.2090663231,
				"element": "H" 
			},
			{
				"x": 0.880237982,
				"y": 1.1998913279,
				"z": 1.6998176962,
				"element": "H" 
			},
			{
				"x": -0.9553616022,
				"y": -0.0333136824,
				"z": 1.4778526687,
				"element": "H" 
			},
			{
				"x": -0.1389324943,
				"y": -1.0144495742,
				"z": 0.2784483958,
				"element": "H" 
			},
			{
				"x": 2.9291415755,
				"y": 0.9748268533,
				"z": 0.464283136,
				"element": "H" 
			},
			{
				"x": 2.1439055809,
				"y": 0.4116637228,
				"z": -1.7316970742,
				"element": "H" 
			},
			{
				"x": 2.9783449601,
				"y": -0.8852522723,
				"z": -1.1862497388,
				"element": "H" 
			},
			{
				"x": 3.4834362337,
				"y": -2.3808310816,
				"z": 1.6037648753,
				"element": "H" 
			}
		],
		 "valence_orbital": [ 
			{
				"type": "occ",
				"energy": -0.29229,
				"method": "rhf"
			},
			{
				"type": "occ",
				"energy": -0.28937,
				"method": "rhf"
			},
			{
				"type": "occ",
				"energy": -0.28652,
				"method": "rhf"
			},
			{
				"type": "occ",
				"energy": -0.27459,
				"method": "rhf"
			},
			{
				"type": "occ",
				"energy": -0.23973,
				"method": "rhf"
			},
			{
				"type": "unocc",
				"energy": 0.00569,
				"method": "rhf"
			},
			{
				"type": "unocc",
				"energy": 0.06617,
				"method": "rhf"
			},
			{
				"type": "unocc",
				"energy": 0.08164,
				"method": "rhf"
			},
			{
				"type": "unocc",
				"energy": 0.08933,
				"method": "rhf"
			},
			{
				"type": "unocc",
				"energy": 0.11217,
				"method": "rhf"
			}
		],
		"cosmo_sigma_profile": { 
			"-0.025": 0.0,
			"-0.024": 0.0,
			"-0.023": 0.0,
			"-0.022": 0.0,
			"-0.021": 0.0,
			"-0.02": 0.0,
			"-0.019": 0.00185181315012,
			"-0.018": 0.728159132954,
			"-0.017": 0.916209267015,
			"-0.016": 0.823915993932,
			"-0.015": 0.948576807878,
			"-0.014": 0.486228479735,
			"-0.013": 0.891895235089,
			"-0.012": 0.800877328388,
			"-0.011": 0.46953400286,
			"-0.01": 1.22933758573,
			"-0.009": 2.51727305686,
			"-0.008": 3.07097244933,
			"-0.007": 4.24868864736,
			"-0.006": 5.14483329231,
			"-0.005": 5.7014283267,
			"-0.004": 7.20130152443,
			"-0.003": 9.16471753965,
			"-0.002": 22.6378718107,
			"-0.001": 34.2147792485,
			"0.0": 34.3967997758,
			"0.001": 25.1582186345,
			"0.002": 16.3858290597,
			"0.003": 4.66557459971,
			"0.004": 3.87524422723,
			"0.005": 3.3346856106,
			"0.006": 5.37676019067,
			"0.007": 3.58379273055,
			"0.008": 3.01042679526,
			"0.009": 2.94787453539,
			"0.01": 2.79694385408,
			"0.011": 4.19613024776,
			"0.012": 5.40948999585,
			"0.013": 0.883051377315,
			"0.014": 0.413884173884,
			"0.015": 0.385016142385,
			"0.016": 0.0388202178543,
			"0.017": 0.0,
			"0.018": 0.0,
			"0.019": 0.0,
			"0.02": 0.0,
			"0.021": 0.0,
			"0.022": 0.0,
			"0.023": 0.0,
			"0.024": 0.0,
			"0.025": 0.0
		}
	}
}
