{
	 "smiles": "CSC1=C(C=CC(C)=C1)C(O)=O", 
	 "Tm": 450.15, 
	 "num_atms": 22, 
	 "gaussian": { 
		 "optdone": 1, 
		 "sigma_profile": "yes", 
		 "theory": "DFT", 
		 "functional": "B3LYP", 
		 "basiset": "6-31G**", 
		 "properties": { 
			 "R2extent": 3425.796, 
			 "electric_dipole_moment_norm": 2.86270245398, 
			 "electric_quadrupole_moment_norm": 9.16740465399, 
			 "total_energy": -897.639201935, 
			 "HOMO_LUMO_gap": 0.16448, 
			 "cosmo_polarized_energy": -10.19, 
			 "cosmo_cavitation_energy": 27.16, 
			 "cosmo_dispersion_energy": -20.28, 
			 "cosmo_repulsion_energy": 1.58, 
			 "cosmo_total_nonelectrostatic_energy": 8.46, 
			 "SMD_solvation_energy": 5.96 
		},
		"coords": [
			{
				"x": -0.9197101925,
				"y": 2.218580078,
				"z": 1.2170971917,
				"element": "C" 
			},
			{
				"x": 0.7476677183,
				"y": 1.743667251,
				"z": 1.8088741971,
				"element": "S" 
			},
			{
				"x": 0.8783673941,
				"y": 0.0223318355,
				"z": 1.3051534114,
				"element": "C" 
			},
			{
				"x": 0.2438384092,
				"y": -1.0733619784,
				"z": 1.9424748548,
				"element": "C" 
			},
			{
				"x": 0.5283225467,
				"y": -2.3731837518,
				"z": 1.4904131143,
				"element": "C" 
			},
			{
				"x": 1.4120374574,
				"y": -2.6022093289,
				"z": 0.442761981,
				"element": "C" 
			},
			{
				"x": 2.0630901096,
				"y": -1.5338329807,
				"z": -0.1839868643,
				"element": "C" 
			},
			{
				"x": 3.0567998016,
				"y": -1.767435065,
				"z": -1.295475767,
				"element": "C" 
			},
			{
				"x": 1.7793125359,
				"y": -0.2383086892,
				"z": 0.2640634762,
				"element": "C" 
			},
			{
				"x": -0.714158163,
				"y": -0.9186175775,
				"z": 3.0724065902,
				"element": "C" 
			},
			{
				"x": -0.8249345521,
				"y": -2.0573608764,
				"z": 3.8096734356,
				"element": "O" 
			},
			{
				"x": -1.3607046911,
				"y": 0.0706830303,
				"z": 3.3540732794,
				"element": "O" 
			},
			{
				"x": -1.0076303423,
				"y": 2.0585159974,
				"z": 0.1404767201,
				"element": "H" 
			},
			{
				"x": -1.0121571549,
				"y": 3.2869775069,
				"z": 1.427968864,
				"element": "H" 
			},
			{
				"x": -1.6802804775,
				"y": 1.6658240999,
				"z": 1.7660075579,
				"element": "H" 
			},
			{
				"x": 0.0399897725,
				"y": -3.209887106,
				"z": 1.9757763836,
				"element": "H" 
			},
			{
				"x": 1.6005452343,
				"y": -3.6204056625,
				"z": 0.1126829349,
				"element": "H" 
			},
			{
				"x": 3.1359219505,
				"y": -0.8967313587,
				"z": -1.9522739292,
				"element": "H" 
			},
			{
				"x": 2.7788327685,
				"y": -2.6327667206,
				"z": -1.9046687414,
				"element": "H" 
			},
			{
				"x": 4.0571219474,
				"y": -1.9631824668,
				"z": -0.8895415898,
				"element": "H" 
			},
			{
				"x": 2.2677262595,
				"y": 0.6080340593,
				"z": -0.2091251437,
				"element": "H" 
			},
			{
				"x": -1.4885983319,
				"y": -1.8566302959,
				"z": 4.4898680431,
				"element": "H" 
			}
		],
		 "valence_orbital": [ 
			{
				"type": "occ",
				"energy": -0.31397,
				"method": "rhf"
			},
			{
				"type": "occ",
				"energy": -0.27699,
				"method": "rhf"
			},
			{
				"type": "occ",
				"energy": -0.25962,
				"method": "rhf"
			},
			{
				"type": "occ",
				"energy": -0.25526,
				"method": "rhf"
			},
			{
				"type": "occ",
				"energy": -0.21512,
				"method": "rhf"
			},
			{
				"type": "unocc",
				"energy": -0.05064,
				"method": "rhf"
			},
			{
				"type": "unocc",
				"energy": -0.01805,
				"method": "rhf"
			},
			{
				"type": "unocc",
				"energy": 0.04644,
				"method": "rhf"
			},
			{
				"type": "unocc",
				"energy": 0.0558,
				"method": "rhf"
			},
			{
				"type": "unocc",
				"energy": 0.07937,
				"method": "rhf"
			}
		],
		"cosmo_sigma_profile": { 
			"-0.025": 0.0,
			"-0.024": 0.0,
			"-0.023": 0.0,
			"-0.022": 0.0,
			"-0.021": 0.0,
			"-0.02": 0.0,
			"-0.019": 0.0,
			"-0.018": 0.535399284429,
			"-0.017": 0.824754285282,
			"-0.016": 0.911605975454,
			"-0.015": 0.95857897402,
			"-0.014": 0.627762425139,
			"-0.013": 0.506019658694,
			"-0.012": 0.669346833892,
			"-0.011": 0.506680922889,
			"-0.01": 1.15151669046,
			"-0.009": 0.798162980215,
			"-0.008": 0.200845254097,
			"-0.007": 1.34174153365,
			"-0.006": 7.90079151553,
			"-0.005": 14.9740201095,
			"-0.004": 15.1347375064,
			"-0.003": 14.8503009911,
			"-0.002": 20.1107831253,
			"-0.001": 23.9258227246,
			"0.0": 20.7861426545,
			"0.001": 16.3228689264,
			"0.002": 15.1572019821,
			"0.003": 17.2474567909,
			"0.004": 7.95041510116,
			"0.005": 6.60878768016,
			"0.006": 5.10927844941,
			"0.007": 4.88431680025,
			"0.008": 4.28297247471,
			"0.009": 4.15636640696,
			"0.01": 2.60892087597,
			"0.011": 3.04063859576,
			"0.012": 3.20004213404,
			"0.013": 0.30440739007,
			"0.014": 0.0,
			"0.015": 0.0,
			"0.016": 0.0,
			"0.017": 0.0,
			"0.018": 0.0,
			"0.019": 0.0,
			"0.02": 0.0,
			"0.021": 0.0,
			"0.022": 0.0,
			"0.023": 0.0,
			"0.024": 0.0,
			"0.025": 0.0
		}
	}
}
