{
	 "smiles": "NC(=O)C1=CC=C(C=C1)S(Cl)(=O)=O", 
	 "Tm": 462.15, 
	 "num_atms": 19, 
	 "gaussian": { 
		 "optdone": 1, 
		 "sigma_profile": "yes", 
		 "theory": "DFT", 
		 "functional": "B3LYP", 
		 "basiset": "6-31G**", 
		 "properties": { 
			 "R2extent": 4457.6093, 
			 "electric_dipole_moment_norm": 5.45020975376, 
			 "electric_quadrupole_moment_norm": 16.2566783972, 
			 "total_energy": -1409.11112259, 
			 "HOMO_LUMO_gap": 0.17378, 
			 "cosmo_polarized_energy": -17.41, 
			 "cosmo_cavitation_energy": 27.58, 
			 "cosmo_dispersion_energy": -20.72, 
			 "cosmo_repulsion_energy": 1.6, 
			 "cosmo_total_nonelectrostatic_energy": 8.46, 
			 "SMD_solvation_energy": 4.25 
		},
		"coords": [
			{
				"x": -2.5047129017,
				"y": 2.0950794894,
				"z": 1.2196465546,
				"element": "N" 
			},
			{
				"x": -1.4024329127,
				"y": 1.6859635356,
				"z": 1.9244256548,
				"element": "C" 
			},
			{
				"x": -1.0505648747,
				"y": 2.2257284295,
				"z": 2.9641953374,
				"element": "O" 
			},
			{
				"x": -0.6506619265,
				"y": 0.5052528565,
				"z": 1.361605185,
				"element": "C" 
			},
			{
				"x": -1.2162790532,
				"y": -0.4060191992,
				"z": 0.4586067164,
				"element": "C" 
			},
			{
				"x": -0.4714319003,
				"y": -1.4828408213,
				"z": -0.0181073287,
				"element": "C" 
			},
			{
				"x": 0.8424984937,
				"y": -1.6274111495,
				"z": 0.4260887252,
				"element": "C" 
			},
			{
				"x": 1.4262419273,
				"y": -0.7467390599,
				"z": 1.3386756894,
				"element": "C" 
			},
			{
				"x": 0.6639744819,
				"y": 0.317667273,
				"z": 1.8090944776,
				"element": "C" 
			},
			{
				"x": 1.8023723926,
				"y": -3.013541952,
				"z": -0.1726395281,
				"element": "S" 
			},
			{
				"x": 2.7171241715,
				"y": -2.1599398672,
				"z": -1.9024799716,
				"element": "Cl" 
			},
			{
				"x": 2.8832217505,
				"y": -3.2934823545,
				"z": 0.7631755302,
				"element": "O" 
			},
			{
				"x": 0.9007908539,
				"y": -4.0496974067,
				"z": -0.6597285806,
				"element": "O" 
			},
			{
				"x": -2.6086908304,
				"y": 1.8733504186,
				"z": 0.2419619447,
				"element": "H" 
			},
			{
				"x": -2.9417034467,
				"y": 2.9448450254,
				"z": 1.547110112,
				"element": "H" 
			},
			{
				"x": -2.2515871494,
				"y": -0.3046032554,
				"z": 0.149105212,
				"element": "H" 
			},
			{
				"x": -0.899815413,
				"y": -2.2044181617,
				"z": -0.7043408468,
				"element": "H" 
			},
			{
				"x": 2.4445779662,
				"y": -0.9035288618,
				"z": 1.6759032892,
				"element": "H" 
			},
			{
				"x": 1.0659783708,
				"y": 1.0178350611,
				"z": 2.5329018275,
				"element": "H" 
			}
		],
		 "valence_orbital": [ 
			{
				"type": "occ",
				"energy": -0.31753,
				"method": "rhf"
			},
			{
				"type": "occ",
				"energy": -0.29765,
				"method": "rhf"
			},
			{
				"type": "occ",
				"energy": -0.29644,
				"method": "rhf"
			},
			{
				"type": "occ",
				"energy": -0.29297,
				"method": "rhf"
			},
			{
				"type": "occ",
				"energy": -0.27338,
				"method": "rhf"
			},
			{
				"type": "unocc",
				"energy": -0.0996,
				"method": "rhf"
			},
			{
				"type": "unocc",
				"energy": -0.06415,
				"method": "rhf"
			},
			{
				"type": "unocc",
				"energy": -0.04552,
				"method": "rhf"
			},
			{
				"type": "unocc",
				"energy": 0.01674,
				"method": "rhf"
			},
			{
				"type": "unocc",
				"energy": 0.04559,
				"method": "rhf"
			}
		],
		"cosmo_sigma_profile": { 
			"-0.025": 0.0,
			"-0.024": 0.0,
			"-0.023": 0.0,
			"-0.022": 0.0,
			"-0.021": 0.0,
			"-0.02": 0.0,
			"-0.019": 0.0,
			"-0.018": 0.0,
			"-0.017": 0.0,
			"-0.016": 0.0,
			"-0.015": 0.957647939863,
			"-0.014": 2.40055122191,
			"-0.013": 2.52407112772,
			"-0.012": 2.99339913216,
			"-0.011": 2.35874206455,
			"-0.01": 3.28158261396,
			"-0.009": 4.00088596351,
			"-0.008": 6.70806753499,
			"-0.007": 8.5392985063,
			"-0.006": 9.29044041699,
			"-0.005": 7.61834530341,
			"-0.004": 8.40864841918,
			"-0.003": 10.7245872478,
			"-0.002": 14.5153134736,
			"-0.001": 16.2323602023,
			"0.0": 22.2057186801,
			"0.001": 15.3998395329,
			"0.002": 11.9449266821,
			"0.003": 17.4385845499,
			"0.004": 9.48065794835,
			"0.005": 5.14342997169,
			"0.006": 5.84145622423,
			"0.007": 8.14673009157,
			"0.008": 10.5478518267,
			"0.009": 4.67793517036,
			"0.01": 2.11196110607,
			"0.011": 1.43924111999,
			"0.012": 3.13372110977,
			"0.013": 4.98172725382,
			"0.014": 0.915575161193,
			"0.015": 0.0,
			"0.016": 0.0,
			"0.017": 0.0,
			"0.018": 0.0,
			"0.019": 0.0,
			"0.02": 0.0,
			"0.021": 0.0,
			"0.022": 0.0,
			"0.023": 0.0,
			"0.024": 0.0,
			"0.025": 0.0
		}
	}
}
