{
	 "smiles": "CC(Cl)C(=O)N1CCC2=C1C=CC=C2", 
	 "Tm": 380.15, 
	 "num_atms": 26, 
	 "gaussian": { 
		 "optdone": 1, 
		 "sigma_profile": "yes", 
		 "theory": "DFT", 
		 "functional": "B3LYP", 
		 "basiset": "6-31G**", 
		 "properties": { 
			 "R2extent": 3482.9412, 
			 "electric_dipole_moment_norm": 3.3832633285, 
			 "electric_quadrupole_moment_norm": 8.25251042047, 
			 "total_energy": -1016.58990793, 
			 "HOMO_LUMO_gap": 0.18812, 
			 "cosmo_polarized_energy": -9.96, 
			 "cosmo_cavitation_energy": 29.72, 
			 "cosmo_dispersion_energy": -21.95, 
			 "cosmo_repulsion_energy": 1.72, 
			 "cosmo_total_nonelectrostatic_energy": 9.48, 
			 "SMD_solvation_energy": 4.59 
		},
		"coords": [
			{
				"x": -1.0451248871,
				"y": -2.6922713291,
				"z": -0.5241198623,
				"element": "C" 
			},
			{
				"x": -1.7638476989,
				"y": -1.3543028896,
				"z": -0.38331118,
				"element": "C" 
			},
			{
				"x": -2.315442416,
				"y": -0.7338921158,
				"z": -2.0249816669,
				"element": "Cl" 
			},
			{
				"x": -1.0198458799,
				"y": -0.2834136667,
				"z": 0.4384871269,
				"element": "C" 
			},
			{
				"x": -1.5083253436,
				"y": 0.0146591892,
				"z": 1.5248963791,
				"element": "O" 
			},
			{
				"x": 0.1456326678,
				"y": 0.2651769413,
				"z": -0.0271276822,
				"element": "N" 
			},
			{
				"x": 0.8923847968,
				"y": -0.1194214781,
				"z": -1.2522365756,
				"element": "C" 
			},
			{
				"x": 1.8250386149,
				"y": 1.0778926707,
				"z": -1.5255903933,
				"element": "C" 
			},
			{
				"x": 1.9081162761,
				"y": 1.7507028797,
				"z": -0.1757108607,
				"element": "C" 
			},
			{
				"x": 0.8854121503,
				"y": 1.2724505167,
				"z": 0.656876074,
				"element": "C" 
			},
			{
				"x": 0.707388962,
				"y": 1.7756944429,
				"z": 1.9473226909,
				"element": "C" 
			},
			{
				"x": 1.5913134839,
				"y": 2.7678189091,
				"z": 2.386185191,
				"element": "C" 
			},
			{
				"x": 2.617402377,
				"y": 3.2455936908,
				"z": 1.5688221373,
				"element": "C" 
			},
			{
				"x": 2.7761540522,
				"y": 2.7366135625,
				"z": 0.2744658833,
				"element": "C" 
			},
			{
				"x": -0.7614752034,
				"y": -3.0476170696,
				"z": 0.4727886738,
				"element": "H" 
			},
			{
				"x": -1.7131968275,
				"y": -3.4298774726,
				"z": -0.9751120748,
				"element": "H" 
			},
			{
				"x": -0.1459157265,
				"y": -2.6251475535,
				"z": -1.138542222,
				"element": "H" 
			},
			{
				"x": -2.6930766509,
				"y": -1.4872178649,
				"z": 0.1674829211,
				"element": "H" 
			},
			{
				"x": 0.2106762369,
				"y": -0.3268892069,
				"z": -2.0742719806,
				"element": "H" 
			},
			{
				"x": 1.4847821053,
				"y": -1.0188267646,
				"z": -1.0436344466,
				"element": "H" 
			},
			{
				"x": 1.3863572258,
				"y": 1.7552875964,
				"z": -2.2695842211,
				"element": "H" 
			},
			{
				"x": 2.7947511685,
				"y": 0.7515907641,
				"z": -1.9122762755,
				"element": "H" 
			},
			{
				"x": -0.0892741517,
				"y": 1.4050214221,
				"z": 2.5749229903,
				"element": "H" 
			},
			{
				"x": 1.4722130857,
				"y": 3.1682710517,
				"z": 3.388870127,
				"element": "H" 
			},
			{
				"x": 3.2923486299,
				"y": 4.0129791686,
				"z": 1.9358006535,
				"element": "H" 
			},
			{
				"x": 3.5675529525,
				"y": 3.1080246055,
				"z": -0.3712214069,
				"element": "H" 
			}
		],
		 "valence_orbital": [ 
			{
				"type": "occ",
				"energy": -0.30313,
				"method": "rhf"
			},
			{
				"type": "occ",
				"energy": -0.29501,
				"method": "rhf"
			},
			{
				"type": "occ",
				"energy": -0.25632,
				"method": "rhf"
			},
			{
				"type": "occ",
				"energy": -0.24711,
				"method": "rhf"
			},
			{
				"type": "occ",
				"energy": -0.21544,
				"method": "rhf"
			},
			{
				"type": "unocc",
				"energy": -0.02732,
				"method": "rhf"
			},
			{
				"type": "unocc",
				"energy": -0.00358,
				"method": "rhf"
			},
			{
				"type": "unocc",
				"energy": 0.01163,
				"method": "rhf"
			},
			{
				"type": "unocc",
				"energy": 0.05341,
				"method": "rhf"
			},
			{
				"type": "unocc",
				"energy": 0.08602,
				"method": "rhf"
			}
		],
		"cosmo_sigma_profile": { 
			"-0.025": 0.0,
			"-0.024": 0.0,
			"-0.023": 0.0,
			"-0.022": 0.0,
			"-0.021": 0.0,
			"-0.02": 0.0,
			"-0.019": 0.0,
			"-0.018": 0.0,
			"-0.017": 0.0,
			"-0.016": 0.0,
			"-0.015": 0.0,
			"-0.014": 0.0,
			"-0.013": 0.0,
			"-0.012": 0.0,
			"-0.011": 0.0,
			"-0.01": 0.0,
			"-0.009": 0.0,
			"-0.008": 0.433064557497,
			"-0.007": 1.92356537535,
			"-0.006": 11.2584074106,
			"-0.005": 24.0418725483,
			"-0.004": 27.5505581133,
			"-0.003": 24.4941744893,
			"-0.002": 19.5753131757,
			"-0.001": 15.9045086816,
			"0.0": 14.4613276945,
			"0.001": 12.2875941121,
			"0.002": 14.4120182468,
			"0.003": 14.0704783924,
			"0.004": 15.0181731961,
			"0.005": 16.6766611866,
			"0.006": 12.423700342,
			"0.007": 1.48073185085,
			"0.008": 1.52183552036,
			"0.009": 1.62900295468,
			"0.01": 1.38680737637,
			"0.011": 2.25291179439,
			"0.012": 2.58477127149,
			"0.013": 2.22239781114,
			"0.014": 0.378847616616,
			"0.015": 0.0,
			"0.016": 0.0,
			"0.017": 0.0,
			"0.018": 0.0,
			"0.019": 0.0,
			"0.02": 0.0,
			"0.021": 0.0,
			"0.022": 0.0,
			"0.023": 0.0,
			"0.024": 0.0,
			"0.025": 0.0
		}
	}
}
