{
	 "smiles": "CC(C)C1=C(Cl)C=C(C)C(O)=C1", 
	 "Tm": 457.15, 
	 "num_atms": 25, 
	 "gaussian": { 
		 "optdone": 1, 
		 "sigma_profile": "yes", 
		 "theory": "DFT", 
		 "functional": "B3LYP", 
		 "basiset": "6-31G**", 
		 "properties": { 
			 "R2extent": 4430.102, 
			 "electric_dipole_moment_norm": 2.51439431673, 
			 "electric_quadrupole_moment_norm": 4.36536921921, 
			 "total_energy": -924.332898623, 
			 "HOMO_LUMO_gap": 0.2088, 
			 "cosmo_polarized_energy": -8.27, 
			 "cosmo_cavitation_energy": 29.08, 
			 "cosmo_dispersion_energy": -20.82, 
			 "cosmo_repulsion_energy": 1.68, 
			 "cosmo_total_nonelectrostatic_energy": 9.94, 
			 "SMD_solvation_energy": 5.19 
		},
		"coords": [
			{
				"x": -0.3021980175,
				"y": 1.8601948395,
				"z": 1.9307565334,
				"element": "C" 
			},
			{
				"x": 0.7869074259,
				"y": 0.7747221417,
				"z": 1.8366314607,
				"element": "C" 
			},
			{
				"x": 0.189979014,
				"y": -0.6331584649,
				"z": 2.0233425099,
				"element": "C" 
			},
			{
				"x": 1.5746257577,
				"y": 0.8819601348,
				"z": 0.5371526352,
				"element": "C" 
			},
			{
				"x": 2.9470590393,
				"y": 1.1499537556,
				"z": 0.4755986008,
				"element": "C" 
			},
			{
				"x": 3.9048487672,
				"y": 1.3925582932,
				"z": 1.9448292965,
				"element": "Cl" 
			},
			{
				"x": 3.6270523037,
				"y": 1.2391560606,
				"z": -0.7426500017,
				"element": "C" 
			},
			{
				"x": 2.9702894528,
				"y": 1.0651692965,
				"z": -1.9581319998,
				"element": "C" 
			},
			{
				"x": 3.6857444211,
				"y": 1.1575986923,
				"z": -3.2803820311,
				"element": "C" 
			},
			{
				"x": 1.5904628342,
				"y": 0.7950733848,
				"z": -1.9116176137,
				"element": "C" 
			},
			{
				"x": 0.9554021813,
				"y": 0.6258528754,
				"z": -3.1126062142,
				"element": "O" 
			},
			{
				"x": 0.9207903713,
				"y": 0.7079223562,
				"z": -0.6938667582,
				"element": "C" 
			},
			{
				"x": 0.1273180131,
				"y": 2.8618218496,
				"z": 1.8333862611,
				"element": "H" 
			},
			{
				"x": -1.0586257673,
				"y": 1.7425900667,
				"z": 1.14665269,
				"element": "H" 
			},
			{
				"x": -0.8154678088,
				"y": 1.8020967721,
				"z": 2.8966220087,
				"element": "H" 
			},
			{
				"x": 1.4877990421,
				"y": 0.9435878009,
				"z": 2.6580802121,
				"element": "H" 
			},
			{
				"x": -0.543293078,
				"y": -0.8676987731,
				"z": 1.2435207158,
				"element": "H" 
			},
			{
				"x": 0.9688219429,
				"y": -1.40103012,
				"z": 1.9917533692,
				"element": "H" 
			},
			{
				"x": -0.320566938,
				"y": -0.7053822225,
				"z": 2.9896984898,
				"element": "H" 
			},
			{
				"x": 4.6917256286,
				"y": 1.4490683942,
				"z": -0.7375724165,
				"element": "H" 
			},
			{
				"x": 3.5949403048,
				"y": 0.2234387644,
				"z": -3.8456117971,
				"element": "H" 
			},
			{
				"x": 3.2553030719,
				"y": 1.9449562587,
				"z": -3.9090028699,
				"element": "H" 
			},
			{
				"x": 4.7476437702,
				"y": 1.37236829,
				"z": -3.1370752724,
				"element": "H" 
			},
			{
				"x": 0.0195609193,
				"y": 0.4472830966,
				"z": -2.9539566172,
				"element": "H" 
			},
			{
				"x": -0.1472226517,
				"y": 0.4975964567,
				"z": -0.6956511912,
				"element": "H" 
			}
		],
		 "valence_orbital": [ 
			{
				"type": "occ",
				"energy": -0.32961,
				"method": "rhf"
			},
			{
				"type": "occ",
				"energy": -0.3017,
				"method": "rhf"
			},
			{
				"type": "occ",
				"energy": -0.29948,
				"method": "rhf"
			},
			{
				"type": "occ",
				"energy": -0.24563,
				"method": "rhf"
			},
			{
				"type": "occ",
				"energy": -0.21527,
				"method": "rhf"
			},
			{
				"type": "unocc",
				"energy": -0.00647,
				"method": "rhf"
			},
			{
				"type": "unocc",
				"energy": 0.00722,
				"method": "rhf"
			},
			{
				"type": "unocc",
				"energy": 0.03632,
				"method": "rhf"
			},
			{
				"type": "unocc",
				"energy": 0.06678,
				"method": "rhf"
			},
			{
				"type": "unocc",
				"energy": 0.08894,
				"method": "rhf"
			}
		],
		"cosmo_sigma_profile": { 
			"-0.025": 0.0,
			"-0.024": 0.0,
			"-0.023": 0.0,
			"-0.022": 0.0,
			"-0.021": 0.0,
			"-0.02": 0.0,
			"-0.019": 0.0,
			"-0.018": 0.456421696947,
			"-0.017": 0.999337615601,
			"-0.016": 1.07427344155,
			"-0.015": 0.730505277175,
			"-0.014": 1.45101134751,
			"-0.013": 0.882665476787,
			"-0.012": 0.733428977052,
			"-0.011": 0.65225057254,
			"-0.01": 1.5905785887,
			"-0.009": 1.41484680846,
			"-0.008": 0.745335982777,
			"-0.007": 1.18910499731,
			"-0.006": 4.03719016005,
			"-0.005": 6.59877164717,
			"-0.004": 9.40008696734,
			"-0.003": 16.6532868025,
			"-0.002": 20.9556135134,
			"-0.001": 25.0473887017,
			"0.0": 28.34748127,
			"0.001": 28.2262624675,
			"0.002": 17.2124957445,
			"0.003": 16.8054272395,
			"0.004": 18.2095778423,
			"0.005": 14.8715253396,
			"0.006": 5.1530950036,
			"0.007": 1.55042144984,
			"0.008": 1.17057200297,
			"0.009": 1.87963234128,
			"0.01": 1.96604320687,
			"0.011": 0.483803831591,
			"0.012": 0.0,
			"0.013": 0.0,
			"0.014": 0.0,
			"0.015": 0.0,
			"0.016": 0.0,
			"0.017": 0.0,
			"0.018": 0.0,
			"0.019": 0.0,
			"0.02": 0.0,
			"0.021": 0.0,
			"0.022": 0.0,
			"0.023": 0.0,
			"0.024": 0.0,
			"0.025": 0.0
		}
	}
}
