{
	 "smiles": "COC1=NC2=C(O1)C=CC(N)=C2", 
	 "Tm": 397.15, 
	 "num_atms": 20, 
	 "gaussian": { 
		 "optdone": 1, 
		 "sigma_profile": "yes", 
		 "theory": "DFT", 
		 "functional": "B3LYP", 
		 "basiset": "6-31G**", 
		 "properties": { 
			 "R2extent": 2374.3031, 
			 "electric_dipole_moment_norm": 1.56007365852, 
			 "electric_quadrupole_moment_norm": 13.8714525339, 
			 "total_energy": -569.612627658, 
			 "HOMO_LUMO_gap": 0.18859, 
			 "cosmo_polarized_energy": -11.61, 
			 "cosmo_cavitation_energy": 24.47, 
			 "cosmo_dispersion_energy": -18.68, 
			 "cosmo_repulsion_energy": 1.49, 
			 "cosmo_total_nonelectrostatic_energy": 7.28, 
			 "SMD_solvation_energy": 3.95 
		},
		"coords": [
			{
				"x": 2.9878655993,
				"y": 0.7876125419,
				"z": -2.38849485,
				"element": "C" 
			},
			{
				"x": 2.1053216472,
				"y": -0.3461858309,
				"z": -2.350179861,
				"element": "O" 
			},
			{
				"x": 1.2237110734,
				"y": -0.3318731936,
				"z": -1.3630882071,
				"element": "C" 
			},
			{
				"x": 1.0565851383,
				"y": 0.5602385637,
				"z": -0.4365760017,
				"element": "N" 
			},
			{
				"x": -0.0105499664,
				"y": 0.0438720859,
				"z": 0.3107698485,
				"element": "C" 
			},
			{
				"x": -0.4148708779,
				"y": -1.1722035031,
				"z": -0.2545218474,
				"element": "C" 
			},
			{
				"x": 0.4003319973,
				"y": -1.4128101782,
				"z": -1.3542163217,
				"element": "O" 
			},
			{
				"x": -1.4461488739,
				"y": -1.939944336,
				"z": 0.2509068553,
				"element": "C" 
			},
			{
				"x": -2.0914548688,
				"y": -1.4394114769,
				"z": 1.385187863,
				"element": "C" 
			},
			{
				"x": -1.7110696347,
				"y": -0.2158896272,
				"z": 1.9823869928,
				"element": "C" 
			},
			{
				"x": -2.431842615,
				"y": 0.2708627958,
				"z": 3.0830075712,
				"element": "N" 
			},
			{
				"x": -0.6557340633,
				"y": 0.5390156746,
				"z": 1.4412078761,
				"element": "C" 
			},
			{
				"x": 2.41681553,
				"y": 1.7118457076,
				"z": -2.5086000173,
				"element": "H" 
			},
			{
				"x": 3.637108495,
				"y": 0.6205126669,
				"z": -3.247300552,
				"element": "H" 
			},
			{
				"x": 3.5724805689,
				"y": 0.8475250519,
				"z": -1.4668600776,
				"element": "H" 
			},
			{
				"x": -1.7416697065,
				"y": -2.8802850054,
				"z": -0.2011291168,
				"element": "H" 
			},
			{
				"x": -2.9145437865,
				"y": -2.0007980737,
				"z": 1.8186178634,
				"element": "H" 
			},
			{
				"x": -1.9166672209,
				"y": 0.9157735181,
				"z": 3.6673624686,
				"element": "H" 
			},
			{
				"x": -2.8797138048,
				"y": -0.4450763137,
				"z": 3.6393645905,
				"element": "H" 
			},
			{
				"x": -0.3534546306,
				"y": 1.4823189323,
				"z": 1.8853549231,
				"element": "H" 
			}
		],
		 "valence_orbital": [ 
			{
				"type": "occ",
				"energy": -0.31731,
				"method": "rhf"
			},
			{
				"type": "occ",
				"energy": -0.28678,
				"method": "rhf"
			},
			{
				"type": "occ",
				"energy": -0.28565,
				"method": "rhf"
			},
			{
				"type": "occ",
				"energy": -0.22254,
				"method": "rhf"
			},
			{
				"type": "occ",
				"energy": -0.19419,
				"method": "rhf"
			},
			{
				"type": "unocc",
				"energy": -0.0056,
				"method": "rhf"
			},
			{
				"type": "unocc",
				"energy": 0.02823,
				"method": "rhf"
			},
			{
				"type": "unocc",
				"energy": 0.06205,
				"method": "rhf"
			},
			{
				"type": "unocc",
				"energy": 0.08298,
				"method": "rhf"
			},
			{
				"type": "unocc",
				"energy": 0.09603,
				"method": "rhf"
			}
		],
		"cosmo_sigma_profile": { 
			"-0.025": 0.0,
			"-0.024": 0.0,
			"-0.023": 0.0,
			"-0.022": 0.0,
			"-0.021": 0.0,
			"-0.02": 0.0,
			"-0.019": 0.0,
			"-0.018": 0.0,
			"-0.017": 0.0,
			"-0.016": 0.0,
			"-0.015": 0.0,
			"-0.014": 0.0,
			"-0.013": 0.0914559921977,
			"-0.012": 2.11308809092,
			"-0.011": 3.0830165067,
			"-0.01": 2.88028347596,
			"-0.009": 3.45129626249,
			"-0.008": 3.09469947519,
			"-0.007": 8.23642908015,
			"-0.006": 12.3729656655,
			"-0.005": 13.2764550807,
			"-0.004": 14.296905976,
			"-0.003": 13.6090011376,
			"-0.002": 9.48062731922,
			"-0.001": 9.81498885133,
			"0.0": 7.90649899388,
			"0.001": 9.70579743373,
			"0.002": 11.0321002146,
			"0.003": 10.5886605131,
			"0.004": 12.3591776076,
			"0.005": 15.4222901207,
			"0.006": 9.93092688671,
			"0.007": 5.73457490113,
			"0.008": 5.61200905665,
			"0.009": 2.08924996244,
			"0.01": 1.53249361998,
			"0.011": 1.69774058946,
			"0.012": 1.83295904235,
			"0.013": 1.45979803923,
			"0.014": 1.51991719831,
			"0.015": 1.0723419473,
			"0.016": 0.0346983368921,
			"0.017": 0.0,
			"0.018": 0.0,
			"0.019": 0.0,
			"0.02": 0.0,
			"0.021": 0.0,
			"0.022": 0.0,
			"0.023": 0.0,
			"0.024": 0.0,
			"0.025": 0.0
		}
	}
}
