{
	 "smiles": "NC(=O)NCC1=CN=CC=C1", 
	 "Tm": 456.15, 
	 "num_atms": 20, 
	 "gaussian": { 
		 "optdone": 1, 
		 "sigma_profile": "yes", 
		 "theory": "DFT", 
		 "functional": "B3LYP", 
		 "basiset": "6-31G**", 
		 "properties": { 
			 "R2extent": 2240.3549, 
			 "electric_dipole_moment_norm": 3.42628725737, 
			 "electric_quadrupole_moment_norm": 17.594353172, 
			 "total_energy": -511.663156846, 
			 "HOMO_LUMO_gap": 0.2155, 
			 "cosmo_polarized_energy": -17.75, 
			 "cosmo_cavitation_energy": 24.19, 
			 "cosmo_dispersion_energy": -17.67, 
			 "cosmo_repulsion_energy": 1.44, 
			 "cosmo_total_nonelectrostatic_energy": 7.96, 
			 "SMD_solvation_energy": 2.93 
		},
		"coords": [
			{
				"x": 0.0986115446,
				"y": 1.7069571424,
				"z": 3.1499589721,
				"element": "N" 
			},
			{
				"x": -1.0857602544,
				"y": 1.1004606428,
				"z": 2.7294817067,
				"element": "C" 
			},
			{
				"x": -2.131316072,
				"y": 1.7239102719,
				"z": 2.6154279011,
				"element": "O" 
			},
			{
				"x": -1.0035907326,
				"y": -0.2514842476,
				"z": 2.4404616014,
				"element": "N" 
			},
			{
				"x": 0.199530621,
				"y": -0.9811604241,
				"z": 2.0393486058,
				"element": "C" 
			},
			{
				"x": 0.5168131995,
				"y": -0.9107478002,
				"z": 0.5562773911,
				"element": "C" 
			},
			{
				"x": 0.4545174264,
				"y": -2.057784245,
				"z": -0.2419248478,
				"element": "C" 
			},
			{
				"x": 0.7085275067,
				"y": -2.0818167515,
				"z": -1.5561090786,
				"element": "N" 
			},
			{
				"x": 1.0416519822,
				"y": -0.9223587102,
				"z": -2.1332829018,
				"element": "C" 
			},
			{
				"x": 1.1348519343,
				"y": 0.2858430149,
				"z": -1.4370758714,
				"element": "C" 
			},
			{
				"x": 0.8687162687,
				"y": 0.2914314316,
				"z": -0.0710556672,
				"element": "C" 
			},
			{
				"x": -0.0855298406,
				"y": 2.6225810411,
				"z": 3.5377807493,
				"element": "H" 
			},
			{
				"x": 0.7312433832,
				"y": 1.1546020007,
				"z": 3.7134665713,
				"element": "H" 
			},
			{
				"x": -1.8663899643,
				"y": -0.5704761191,
				"z": 2.0181289836,
				"element": "H" 
			},
			{
				"x": 0.072493026,
				"y": -2.0292336786,
				"z": 2.3321133659,
				"element": "H" 
			},
			{
				"x": 1.046952896,
				"y": -0.6055255899,
				"z": 2.6195777625,
				"element": "H" 
			},
			{
				"x": 0.1847836295,
				"y": -3.0139705907,
				"z": 0.2081376047,
				"element": "H" 
			},
			{
				"x": 1.2441229521,
				"y": -0.9586766678,
				"z": -3.2023837029,
				"element": "H" 
			},
			{
				"x": 1.4114336334,
				"y": 1.1977155808,
				"z": -1.9572571426,
				"element": "H" 
			},
			{
				"x": 0.9311368602,
				"y": 1.2098336984,
				"z": 0.5066279968,
				"element": "H" 
			}
		],
		 "valence_orbital": [ 
			{
				"type": "occ",
				"energy": -0.2808,
				"method": "rhf"
			},
			{
				"type": "occ",
				"energy": -0.27327,
				"method": "rhf"
			},
			{
				"type": "occ",
				"energy": -0.25977,
				"method": "rhf"
			},
			{
				"type": "occ",
				"energy": -0.25372,
				"method": "rhf"
			},
			{
				"type": "occ",
				"energy": -0.24668,
				"method": "rhf"
			},
			{
				"type": "unocc",
				"energy": -0.03118,
				"method": "rhf"
			},
			{
				"type": "unocc",
				"energy": -0.0161,
				"method": "rhf"
			},
			{
				"type": "unocc",
				"energy": 0.04717,
				"method": "rhf"
			},
			{
				"type": "unocc",
				"energy": 0.06514,
				"method": "rhf"
			},
			{
				"type": "unocc",
				"energy": 0.09589,
				"method": "rhf"
			}
		],
		"cosmo_sigma_profile": { 
			"-0.025": 0.0,
			"-0.024": 0.0,
			"-0.023": 0.0,
			"-0.022": 0.0,
			"-0.021": 0.0,
			"-0.02": 0.0,
			"-0.019": 0.0,
			"-0.018": 0.0,
			"-0.017": 0.0,
			"-0.016": 0.0,
			"-0.015": 0.0,
			"-0.014": 0.711221898718,
			"-0.013": 3.19194137203,
			"-0.012": 3.6376982517,
			"-0.011": 3.5326966462,
			"-0.01": 4.17243896535,
			"-0.009": 3.05204765405,
			"-0.008": 3.47216015811,
			"-0.007": 6.73608832348,
			"-0.006": 12.2501654399,
			"-0.005": 13.2813659152,
			"-0.004": 12.1999565635,
			"-0.003": 10.2967668422,
			"-0.002": 11.1284796208,
			"-0.001": 9.32224561257,
			"0.0": 10.5362661746,
			"0.001": 9.51204729266,
			"0.002": 15.3453445041,
			"0.003": 12.3146328214,
			"0.004": 5.82990397895,
			"0.005": 5.61822821256,
			"0.006": 3.79430508791,
			"0.007": 3.36705028684,
			"0.008": 3.21537106457,
			"0.009": 2.31112744893,
			"0.01": 2.59064504352,
			"0.011": 2.31801118837,
			"0.012": 2.38528939584,
			"0.013": 3.27948805771,
			"0.014": 7.50961956727,
			"0.015": 3.80037618448,
			"0.016": 0.84558645155,
			"0.017": 0.415395590968,
			"0.018": 0.0,
			"0.019": 0.0,
			"0.02": 0.0,
			"0.021": 0.0,
			"0.022": 0.0,
			"0.023": 0.0,
			"0.024": 0.0,
			"0.025": 0.0
		}
	}
}
