{
	 "smiles": "CC1=C(C)C=C(NC(N)=S)C=C1", 
	 "Tm": 458.15, 
	 "num_atms": 24, 
	 "gaussian": { 
		 "optdone": 1, 
		 "sigma_profile": "yes", 
		 "theory": "DFT", 
		 "functional": "B3LYP", 
		 "basiset": "6-31G**", 
		 "properties": { 
			 "R2extent": 3972.3529, 
			 "electric_dipole_moment_norm": 5.00517910768, 
			 "electric_quadrupole_moment_norm": 25.7531075449, 
			 "total_energy": -857.907531884, 
			 "HOMO_LUMO_gap": 0.1791, 
			 "cosmo_polarized_energy": -19.34, 
			 "cosmo_cavitation_energy": 28.78, 
			 "cosmo_dispersion_energy": -21.57, 
			 "cosmo_repulsion_energy": 1.68, 
			 "cosmo_total_nonelectrostatic_energy": 8.89, 
			 "SMD_solvation_energy": 4.12 
		},
		"coords": [
			{
				"x": 1.6339488161,
				"y": 2.0828418423,
				"z": 1.6680412585,
				"element": "C" 
			},
			{
				"x": 0.6551430466,
				"y": 1.0155235773,
				"z": 1.2417004531,
				"element": "C" 
			},
			{
				"x": -0.686817835,
				"y": 1.3343654526,
				"z": 0.942046508,
				"element": "C" 
			},
			{
				"x": -1.1868123193,
				"y": 2.7562036385,
				"z": 1.0379634604,
				"element": "C" 
			},
			{
				"x": -1.5575742223,
				"y": 0.3139725797,
				"z": 0.5596143684,
				"element": "C" 
			},
			{
				"x": -1.1388089891,
				"y": -1.0213898939,
				"z": 0.4598099834,
				"element": "C" 
			},
			{
				"x": -2.1043797065,
				"y": -1.9551627068,
				"z": 0.0108910883,
				"element": "N" 
			},
			{
				"x": -2.2082048184,
				"y": -3.3098013566,
				"z": 0.1742706475,
				"element": "C" 
			},
			{
				"x": -3.3121146827,
				"y": -3.8239664231,
				"z": -0.4707000328,
				"element": "N" 
			},
			{
				"x": -1.2129714895,
				"y": -4.3055435175,
				"z": 1.0817189927,
				"element": "S" 
			},
			{
				"x": 0.1913651769,
				"y": -1.3390003305,
				"z": 0.7452904749,
				"element": "C" 
			},
			{
				"x": 1.058537596,
				"y": -0.3184928111,
				"z": 1.134102443,
				"element": "C" 
			},
			{
				"x": 2.623753067,
				"y": 1.656540025,
				"z": 1.8509788721,
				"element": "H" 
			},
			{
				"x": 1.743717075,
				"y": 2.8644172041,
				"z": 0.9059321818,
				"element": "H" 
			},
			{
				"x": 1.313306025,
				"y": 2.5852852168,
				"z": 2.5891386119,
				"element": "H" 
			},
			{
				"x": -2.2449132685,
				"y": 2.8249838605,
				"z": 0.7715096536,
				"element": "H" 
			},
			{
				"x": -1.0720032859,
				"y": 3.1563305295,
				"z": 2.0525577288,
				"element": "H" 
			},
			{
				"x": -0.6301054014,
				"y": 3.4260095275,
				"z": 0.3714112458,
				"element": "H" 
			},
			{
				"x": -2.5944184569,
				"y": 0.5635516035,
				"z": 0.3386589575,
				"element": "H" 
			},
			{
				"x": -2.9333565181,
				"y": -1.5137877233,
				"z": -0.366795248,
				"element": "H" 
			},
			{
				"x": -3.3595023152,
				"y": -4.8320507365,
				"z": -0.4640377316,
				"element": "H" 
			},
			{
				"x": -3.633489786,
				"y": -3.38130792,
				"z": -1.3224777916,
				"element": "H" 
			},
			{
				"x": 0.5352916377,
				"y": -2.3610448683,
				"z": 0.6768485886,
				"element": "H" 
			},
			{
				"x": 2.0909106545,
				"y": -0.5749767696,
				"z": 1.3584252858,
				"element": "H" 
			}
		],
		 "valence_orbital": [ 
			{
				"type": "occ",
				"energy": -0.29748,
				"method": "rhf"
			},
			{
				"type": "occ",
				"energy": -0.24445,
				"method": "rhf"
			},
			{
				"type": "occ",
				"energy": -0.23178,
				"method": "rhf"
			},
			{
				"type": "occ",
				"energy": -0.20773,
				"method": "rhf"
			},
			{
				"type": "occ",
				"energy": -0.20287,
				"method": "rhf"
			},
			{
				"type": "unocc",
				"energy": -0.02377,
				"method": "rhf"
			},
			{
				"type": "unocc",
				"energy": 0.00279,
				"method": "rhf"
			},
			{
				"type": "unocc",
				"energy": 0.02562,
				"method": "rhf"
			},
			{
				"type": "unocc",
				"energy": 0.05406,
				"method": "rhf"
			},
			{
				"type": "unocc",
				"energy": 0.08666,
				"method": "rhf"
			}
		],
		"cosmo_sigma_profile": { 
			"-0.025": 0.0,
			"-0.024": 0.0,
			"-0.023": 0.0,
			"-0.022": 0.0,
			"-0.021": 0.0,
			"-0.02": 0.0,
			"-0.019": 0.0,
			"-0.018": 0.199408321153,
			"-0.017": 1.12000601668,
			"-0.016": 1.89057775353,
			"-0.015": 2.2577934837,
			"-0.014": 2.41181578097,
			"-0.013": 3.51324652686,
			"-0.012": 3.05420599138,
			"-0.011": 3.08691934645,
			"-0.01": 2.867492891,
			"-0.009": 2.75645292353,
			"-0.008": 2.2660726672,
			"-0.007": 2.49910999365,
			"-0.006": 3.8601196783,
			"-0.005": 5.97243770772,
			"-0.004": 15.0329829321,
			"-0.003": 18.5572040507,
			"-0.002": 16.1235656444,
			"-0.001": 16.3661894801,
			"0.0": 21.7550904513,
			"0.001": 16.2085730939,
			"0.002": 10.9252135057,
			"0.003": 10.0601356457,
			"0.004": 11.4527524602,
			"0.005": 11.9580821636,
			"0.006": 12.068960078,
			"0.007": 6.5694955732,
			"0.008": 5.3839902052,
			"0.009": 5.17635148716,
			"0.01": 6.08966333809,
			"0.011": 5.7199793675,
			"0.012": 2.65705923695,
			"0.013": 0.0213831430592,
			"0.014": 0.0,
			"0.015": 0.0,
			"0.016": 0.0,
			"0.017": 0.0,
			"0.018": 0.0,
			"0.019": 0.0,
			"0.02": 0.0,
			"0.021": 0.0,
			"0.022": 0.0,
			"0.023": 0.0,
			"0.024": 0.0,
			"0.025": 0.0
		}
	}
}
