{
	 "smiles": "ClS(=O)(=O)CCNS(=O)(=O)C1=CC=CC=C1", 
	 "Tm": 370.15, 
	 "num_atms": 26, 
	 "gaussian": { 
		 "optdone": 1, 
		 "sigma_profile": "yes", 
		 "theory": "DFT", 
		 "functional": "B3LYP", 
		 "basiset": "6-31G**", 
		 "properties": { 
			 "R2extent": 8012.6878, 
			 "electric_dipole_moment_norm": 5.17386993362, 
			 "electric_quadrupole_moment_norm": 27.8149073525, 
			 "total_energy": -1922.95550855, 
			 "HOMO_LUMO_gap": 0.18748, 
			 "cosmo_polarized_energy": -19.94, 
			 "cosmo_cavitation_energy": 35.11, 
			 "cosmo_dispersion_energy": -25.5, 
			 "cosmo_repulsion_energy": 1.92, 
			 "cosmo_total_nonelectrostatic_energy": 11.53, 
			 "SMD_solvation_energy": 3.21 
		},
		"coords": [
			{
				"x": -1.8160409312,
				"y": -2.3359750333,
				"z": 3.6881681713,
				"element": "Cl" 
			},
			{
				"x": 0.1878966044,
				"y": -3.0197784543,
				"z": 3.9766823437,
				"element": "S" 
			},
			{
				"x": 0.6278127875,
				"y": -2.4969157035,
				"z": 5.2658802617,
				"element": "O" 
			},
			{
				"x": 0.1998118476,
				"y": -4.4446033277,
				"z": 3.6769219006,
				"element": "O" 
			},
			{
				"x": 1.0323521036,
				"y": -2.1205121915,
				"z": 2.644385247,
				"element": "C" 
			},
			{
				"x": 1.1027071627,
				"y": -0.6056319626,
				"z": 2.8976880614,
				"element": "C" 
			},
			{
				"x": 1.8933772583,
				"y": 0.1134273741,
				"z": 1.9022128465,
				"element": "N" 
			},
			{
				"x": 1.2813373345,
				"y": 0.3515646981,
				"z": 0.3399587693,
				"element": "S" 
			},
			{
				"x": 0.3449590336,
				"y": -0.728681004,
				"z": -0.0003470658,
				"element": "O" 
			},
			{
				"x": 2.4706511392,
				"y": 0.62039159,
				"z": -0.4707278012,
				"element": "O" 
			},
			{
				"x": 0.3204696083,
				"y": 1.852368693,
				"z": 0.515768414,
				"element": "C" 
			},
			{
				"x": 0.9883719238,
				"y": 3.0756323326,
				"z": 0.6221349002,
				"element": "C" 
			},
			{
				"x": 0.2369230851,
				"y": 4.2414223211,
				"z": 0.7505806796,
				"element": "C" 
			},
			{
				"x": -1.1601979767,
				"y": 4.1778427183,
				"z": 0.7698104336,
				"element": "C" 
			},
			{
				"x": -1.8127884782,
				"y": 2.9497415073,
				"z": 0.6541982746,
				"element": "C" 
			},
			{
				"x": -1.0727136561,
				"y": 1.7727639612,
				"z": 0.5227804226,
				"element": "C" 
			},
			{
				"x": 0.5155389438,
				"y": -2.3624156796,
				"z": 1.714629936,
				"element": "H" 
			},
			{
				"x": 2.0277680606,
				"y": -2.5788737304,
				"z": 2.636588349,
				"element": "H" 
			},
			{
				"x": 0.0961276319,
				"y": -0.1796110202,
				"z": 2.9092656973,
				"element": "H" 
			},
			{
				"x": 1.5452668908,
				"y": -0.4120049561,
				"z": 3.8780792902,
				"element": "H" 
			},
			{
				"x": 2.8744413044,
				"y": -0.1431355262,
				"z": 1.831689034,
				"element": "H" 
			},
			{
				"x": 2.0720526817,
				"y": 3.1085753637,
				"z": 0.5928459988,
				"element": "H" 
			},
			{
				"x": 0.7399969809,
				"y": 5.2000416803,
				"z": 0.8312190872,
				"element": "H" 
			},
			{
				"x": -1.7401010073,
				"y": 5.0905428863,
				"z": 0.8696107941,
				"element": "H" 
			},
			{
				"x": -2.8973821506,
				"y": 2.9044978151,
				"z": 0.6605171601,
				"element": "H" 
			},
			{
				"x": -1.5574381827,
				"y": 0.8092256484,
				"z": 0.4126587945,
				"element": "H" 
			}
		],
		 "valence_orbital": [ 
			{
				"type": "occ",
				"energy": -0.32095,
				"method": "rhf"
			},
			{
				"type": "occ",
				"energy": -0.31847,
				"method": "rhf"
			},
			{
				"type": "occ",
				"energy": -0.30229,
				"method": "rhf"
			},
			{
				"type": "occ",
				"energy": -0.28177,
				"method": "rhf"
			},
			{
				"type": "occ",
				"energy": -0.27531,
				"method": "rhf"
			},
			{
				"type": "unocc",
				"energy": -0.08783,
				"method": "rhf"
			},
			{
				"type": "unocc",
				"energy": -0.05159,
				"method": "rhf"
			},
			{
				"type": "unocc",
				"energy": -0.03145,
				"method": "rhf"
			},
			{
				"type": "unocc",
				"energy": 0.03326,
				"method": "rhf"
			},
			{
				"type": "unocc",
				"energy": 0.04193,
				"method": "rhf"
			}
		],
		"cosmo_sigma_profile": { 
			"-0.025": 0.0,
			"-0.024": 0.0,
			"-0.023": 0.0,
			"-0.022": 0.0,
			"-0.021": 0.0,
			"-0.02": 0.0,
			"-0.019": 0.0,
			"-0.018": 0.0,
			"-0.017": 0.0,
			"-0.016": 0.214985807972,
			"-0.015": 1.73377706949,
			"-0.014": 1.60000362288,
			"-0.013": 1.19489357995,
			"-0.012": 3.65841872548,
			"-0.011": 3.8216373546,
			"-0.01": 2.77352366509,
			"-0.009": 3.2279079211,
			"-0.008": 4.95624419508,
			"-0.007": 11.8896684053,
			"-0.006": 17.6370850057,
			"-0.005": 18.7352452282,
			"-0.004": 14.555789037,
			"-0.003": 14.24283468,
			"-0.002": 13.5101357966,
			"-0.001": 14.1313511591,
			"0.0": 16.8396754561,
			"0.001": 17.1151124828,
			"0.002": 22.3620951902,
			"0.003": 27.1762657047,
			"0.004": 11.5288348287,
			"0.005": 6.85371431545,
			"0.006": 6.1006534892,
			"0.007": 9.24264702296,
			"0.008": 14.3100657646,
			"0.009": 8.98667960549,
			"0.01": 7.35567029236,
			"0.011": 6.17013160377,
			"0.012": 0.898281647923,
			"0.013": 0.0,
			"0.014": 0.0,
			"0.015": 0.0,
			"0.016": 0.0,
			"0.017": 0.0,
			"0.018": 0.0,
			"0.019": 0.0,
			"0.02": 0.0,
			"0.021": 0.0,
			"0.022": 0.0,
			"0.023": 0.0,
			"0.024": 0.0,
			"0.025": 0.0
		}
	}
}
