{
	 "smiles": "CNC1=CC=C(C=C1)[N+]([O-])=O", 
	 "Tm": 425.15, 
	 "num_atms": 19, 
	 "gaussian": { 
		 "optdone": 1, 
		 "sigma_profile": "yes", 
		 "theory": "DFT", 
		 "functional": "B3LYP", 
		 "basiset": "6-31G**", 
		 "properties": { 
			 "R2extent": 2261.2249, 
			 "electric_dipole_moment_norm": 7.80892513346, 
			 "electric_quadrupole_moment_norm": 11.4252000613, 
			 "total_energy": -531.420878405, 
			 "HOMO_LUMO_gap": 0.1514, 
			 "cosmo_polarized_energy": -14.42, 
			 "cosmo_cavitation_energy": 23.5, 
			 "cosmo_dispersion_energy": -17.5, 
			 "cosmo_repulsion_energy": 1.4, 
			 "cosmo_total_nonelectrostatic_energy": 7.4, 
			 "SMD_solvation_energy": 5.86 
		},
		"coords": [
			{
				"x": 0.2192988873,
				"y": -2.9007865211,
				"z": -2.1411966903,
				"element": "C" 
			},
			{
				"x": 1.1203497991,
				"y": -1.9249578155,
				"z": -1.5642500889,
				"element": "N" 
			},
			{
				"x": 0.717850408,
				"y": -0.7659036608,
				"z": -0.955524796,
				"element": "C" 
			},
			{
				"x": -0.6486755817,
				"y": -0.4767346179,
				"z": -0.7321703226,
				"element": "C" 
			},
			{
				"x": -1.0239862552,
				"y": 0.6978640951,
				"z": -0.0972563041,
				"element": "C" 
			},
			{
				"x": -0.0481705758,
				"y": 1.6032347875,
				"z": 0.3217458389,
				"element": "C" 
			},
			{
				"x": 1.3104045236,
				"y": 1.3422167221,
				"z": 0.1100416489,
				"element": "C" 
			},
			{
				"x": 1.6871571492,
				"y": 0.1719410329,
				"z": -0.5208554372,
				"element": "C" 
			},
			{
				"x": -0.4470390825,
				"y": 2.8340000419,
				"z": 0.9845676311,
				"element": "N" 
			},
			{
				"x": -1.653412647,
				"y": 3.0343319212,
				"z": 1.156069507,
				"element": "O" 
			},
			{
				"x": 0.4429498236,
				"y": 3.6128191311,
				"z": 1.3403293723,
				"element": "O" 
			},
			{
				"x": -0.4422082069,
				"y": -3.3318675728,
				"z": -1.3800088176,
				"element": "H" 
			},
			{
				"x": -0.4068877073,
				"y": -2.4746231888,
				"z": -2.9375727273,
				"element": "H" 
			},
			{
				"x": 0.8095628164,
				"y": -3.713159599,
				"z": -2.5688497144,
				"element": "H" 
			},
			{
				"x": 2.0994363654,
				"y": -2.0068856924,
				"z": -1.7860790807,
				"element": "H" 
			},
			{
				"x": -1.413453509,
				"y": -1.1724851799,
				"z": -1.0566094632,
				"element": "H" 
			},
			{
				"x": -2.0669801939,
				"y": 0.9302586174,
				"z": 0.0792857296,
				"element": "H" 
			},
			{
				"x": 2.0447335901,
				"y": 2.0641566753,
				"z": 0.4451046694,
				"element": "H" 
			},
			{
				"x": 2.7409703965,
				"y": -0.0373191762,
				"z": -0.6857709547,
				"element": "H" 
			}
		],
		 "valence_orbital": [ 
			{
				"type": "occ",
				"energy": -0.28971,
				"method": "rhf"
			},
			{
				"type": "occ",
				"energy": -0.28866,
				"method": "rhf"
			},
			{
				"type": "occ",
				"energy": -0.27012,
				"method": "rhf"
			},
			{
				"type": "occ",
				"energy": -0.26939,
				"method": "rhf"
			},
			{
				"type": "occ",
				"energy": -0.219,
				"method": "rhf"
			},
			{
				"type": "unocc",
				"energy": -0.0676,
				"method": "rhf"
			},
			{
				"type": "unocc",
				"energy": -0.01641,
				"method": "rhf"
			},
			{
				"type": "unocc",
				"energy": 0.02568,
				"method": "rhf"
			},
			{
				"type": "unocc",
				"energy": 0.05932,
				"method": "rhf"
			},
			{
				"type": "unocc",
				"energy": 0.08657,
				"method": "rhf"
			}
		],
		"cosmo_sigma_profile": { 
			"-0.025": 0.0,
			"-0.024": 0.0,
			"-0.023": 0.0,
			"-0.022": 0.0,
			"-0.021": 0.0,
			"-0.02": 0.0,
			"-0.019": 0.0,
			"-0.018": 0.0,
			"-0.017": 0.0,
			"-0.016": 0.0,
			"-0.015": 0.221630045448,
			"-0.014": 1.63059154073,
			"-0.013": 1.2187779099,
			"-0.012": 1.609912813,
			"-0.011": 1.41614388652,
			"-0.01": 1.73842728366,
			"-0.009": 1.41926735004,
			"-0.008": 1.82520025591,
			"-0.007": 5.08607956552,
			"-0.006": 9.38031920327,
			"-0.005": 13.5595254664,
			"-0.004": 14.6539404869,
			"-0.003": 13.3650586027,
			"-0.002": 13.5794846623,
			"-0.001": 10.3240678823,
			"0.0": 11.3335377187,
			"0.001": 12.4849719025,
			"0.002": 14.0998636059,
			"0.003": 15.2865345386,
			"0.004": 8.29192711457,
			"0.005": 2.48868761124,
			"0.006": 3.32916261188,
			"0.007": 3.25057231361,
			"0.008": 5.31171467636,
			"0.009": 10.4298198317,
			"0.01": 4.88159576807,
			"0.011": 3.91822499907,
			"0.012": 1.01868877517,
			"0.013": 0.0,
			"0.014": 0.0,
			"0.015": 0.0,
			"0.016": 0.0,
			"0.017": 0.0,
			"0.018": 0.0,
			"0.019": 0.0,
			"0.02": 0.0,
			"0.021": 0.0,
			"0.022": 0.0,
			"0.023": 0.0,
			"0.024": 0.0,
			"0.025": 0.0
		}
	}
}
