{
	 "smiles": "O=C1C2=CC=CC=C2C(=C(C2=CC=CC=C2)C2=CC=CC=C2)C2=C1C=CC=C2", 
	 "Tm": 478.15, 
	 "num_atms": 46, 
	 "gaussian": { 
		 "optdone": 1, 
		 "sigma_profile": "yes", 
		 "theory": "DFT", 
		 "functional": "B3LYP", 
		 "basiset": "6-31G**", 
		 "properties": { 
			 "R2extent": 10029.6252, 
			 "electric_dipole_moment_norm": 3.94263352849, 
			 "electric_quadrupole_moment_norm": 18.6714238771, 
			 "total_energy": -1114.94474899, 
			 "HOMO_LUMO_gap": 0.1423, 
			 "cosmo_polarized_energy": -12.33, 
			 "cosmo_cavitation_energy": 48.7, 
			 "cosmo_dispersion_energy": -32.35, 
			 "cosmo_repulsion_energy": 2.43, 
			 "cosmo_total_nonelectrostatic_energy": 18.79, 
			 "SMD_solvation_energy": 8.03 
		},
		"coords": [
			{
				"x": -4.3499724861,
				"y": -1.2941251184,
				"z": -0.3195460886,
				"element": "O" 
			},
			{
				"x": -3.4189317209,
				"y": -0.5302540428,
				"z": -0.5619101494,
				"element": "C" 
			},
			{
				"x": -2.8668222247,
				"y": 0.3956382075,
				"z": 0.4648989306,
				"element": "C" 
			},
			{
				"x": -3.6201270447,
				"y": 0.5983081516,
				"z": 1.6287687584,
				"element": "C" 
			},
			{
				"x": -3.2257450374,
				"y": 1.539251973,
				"z": 2.5713228444,
				"element": "C" 
			},
			{
				"x": -2.070671245,
				"y": 2.2903679093,
				"z": 2.3379214549,
				"element": "C" 
			},
			{
				"x": -1.2968429689,
				"y": 2.0739301928,
				"z": 1.199311887,
				"element": "C" 
			},
			{
				"x": -1.6604869468,
				"y": 1.1069993187,
				"z": 0.2466231575,
				"element": "C" 
			},
			{
				"x": -0.8453376498,
				"y": 0.7453985191,
				"z": -0.951554036,
				"element": "C" 
			},
			{
				"x": 0.5201510603,
				"y": 0.6684247119,
				"z": -0.9467166514,
				"element": "C" 
			},
			{
				"x": 1.3883998721,
				"y": 1.1573462788,
				"z": 0.1770601701,
				"element": "C" 
			},
			{
				"x": 1.912092692,
				"y": 2.4599528451,
				"z": 0.1672350166,
				"element": "C" 
			},
			{
				"x": 2.7778983135,
				"y": 2.8880194174,
				"z": 1.1755569944,
				"element": "C" 
			},
			{
				"x": 3.1325318032,
				"y": 2.0202759772,
				"z": 2.2097297086,
				"element": "C" 
			},
			{
				"x": 2.6211945817,
				"y": 0.721085968,
				"z": 2.2255585949,
				"element": "C" 
			},
			{
				"x": 1.7637215795,
				"y": 0.2900977002,
				"z": 1.2129531004,
				"element": "C" 
			},
			{
				"x": 1.3129226051,
				"y": -0.0478805416,
				"z": -1.9988714562,
				"element": "C" 
			},
			{
				"x": 1.005275602,
				"y": -1.3775290472,
				"z": -2.3381580882,
				"element": "C" 
			},
			{
				"x": 1.7803125422,
				"y": -2.0785072396,
				"z": -3.2600065152,
				"element": "C" 
			},
			{
				"x": 2.8787119558,
				"y": -1.4657989845,
				"z": -3.8666928464,
				"element": "C" 
			},
			{
				"x": 3.2041237554,
				"y": -0.1507241468,
				"z": -3.5299583707,
				"element": "C" 
			},
			{
				"x": 2.4388808052,
				"y": 0.5453693362,
				"z": -2.5946452328,
				"element": "C" 
			},
			{
				"x": -1.650030761,
				"y": 0.3169597416,
				"z": -2.1308858822,
				"element": "C" 
			},
			{
				"x": -2.8671673542,
				"y": -0.3677367117,
				"z": -1.9309206898,
				"element": "C" 
			},
			{
				"x": -3.6175193551,
				"y": -0.8309394747,
				"z": -3.0207657518,
				"element": "C" 
			},
			{
				"x": -3.1980087707,
				"y": -0.5748690999,
				"z": -4.3199618389,
				"element": "C" 
			},
			{
				"x": -2.0250448393,
				"y": 0.1603208179,
				"z": -4.5297659366,
				"element": "C" 
			},
			{
				"x": -1.2596591193,
				"y": 0.5955593767,
				"z": -3.4518846444,
				"element": "C" 
			},
			{
				"x": -4.5237077395,
				"y": 0.0102778492,
				"z": 1.7516906145,
				"element": "H" 
			},
			{
				"x": -3.8177109957,
				"y": 1.7030836602,
				"z": 3.4668782836,
				"element": "H" 
			},
			{
				"x": -1.7663777685,
				"y": 3.0557360844,
				"z": 3.0464424242,
				"element": "H" 
			},
			{
				"x": -0.4115517852,
				"y": 2.674567774,
				"z": 1.0492052348,
				"element": "H" 
			},
			{
				"x": 1.6268868322,
				"y": 3.1437871491,
				"z": -0.6279739852,
				"element": "H" 
			},
			{
				"x": 3.1709841378,
				"y": 3.9006003306,
				"z": 1.1536130947,
				"element": "H" 
			},
			{
				"x": 3.8034005845,
				"y": 2.3532199867,
				"z": 2.9962832062,
				"element": "H" 
			},
			{
				"x": 2.8925112876,
				"y": 0.0390314937,
				"z": 3.0263629007,
				"element": "H" 
			},
			{
				"x": 1.3752774467,
				"y": -0.7239957364,
				"z": 1.2248610866,
				"element": "H" 
			},
			{
				"x": 0.1537157312,
				"y": -1.8611118123,
				"z": -1.8708275821,
				"element": "H" 
			},
			{
				"x": 1.526636867,
				"y": -3.1067357043,
				"z": -3.5018091191,
				"element": "H" 
			},
			{
				"x": 3.4810715306,
				"y": -2.0113412035,
				"z": -4.5872937537,
				"element": "H" 
			},
			{
				"x": 4.0615506845,
				"y": 0.3333699705,
				"z": -3.9890002589,
				"element": "H" 
			},
			{
				"x": 2.7165359873,
				"y": 1.5592899988,
				"z": -2.3247982214,
				"element": "H" 
			},
			{
				"x": -4.5363395301,
				"y": -1.3690541752,
				"z": -2.8117885609,
				"element": "H" 
			},
			{
				"x": -3.7851489234,
				"y": -0.9220755557,
				"z": -5.1649840445,
				"element": "H" 
			},
			{
				"x": -1.7061587461,
				"y": 0.3979629513,
				"z": -5.5406981434,
				"element": "H" 
			},
			{
				"x": -0.3519252451,
				"y": 1.1588449033,
				"z": -3.6331596154,
				"element": "H" 
			}
		],
		 "valence_orbital": [ 
			{
				"type": "occ",
				"energy": -0.25001,
				"method": "rhf"
			},
			{
				"type": "occ",
				"energy": -0.24707,
				"method": "rhf"
			},
			{
				"type": "occ",
				"energy": -0.24094,
				"method": "rhf"
			},
			{
				"type": "occ",
				"energy": -0.24014,
				"method": "rhf"
			},
			{
				"type": "occ",
				"energy": -0.21544,
				"method": "rhf"
			},
			{
				"type": "unocc",
				"energy": -0.07314,
				"method": "rhf"
			},
			{
				"type": "unocc",
				"energy": -0.03971,
				"method": "rhf"
			},
			{
				"type": "unocc",
				"energy": -0.01837,
				"method": "rhf"
			},
			{
				"type": "unocc",
				"energy": -0.01077,
				"method": "rhf"
			},
			{
				"type": "unocc",
				"energy": -0.00768,
				"method": "rhf"
			}
		],
		"cosmo_sigma_profile": { 
			"-0.025": 0.0,
			"-0.024": 0.0,
			"-0.023": 0.0,
			"-0.022": 0.0,
			"-0.021": 0.0,
			"-0.02": 0.0,
			"-0.019": 0.0,
			"-0.018": 0.0,
			"-0.017": 0.0,
			"-0.016": 0.0,
			"-0.015": 0.0,
			"-0.014": 0.0,
			"-0.013": 0.0,
			"-0.012": 0.0,
			"-0.011": 0.0,
			"-0.01": 0.0,
			"-0.009": 0.0,
			"-0.008": 0.0,
			"-0.007": 1.52754122453,
			"-0.006": 19.9354013909,
			"-0.005": 35.0598474474,
			"-0.004": 39.5405114083,
			"-0.003": 34.706070407,
			"-0.002": 29.435917396,
			"-0.001": 25.8379377182,
			"0.0": 27.5114248451,
			"0.001": 30.696359882,
			"0.002": 30.4522853902,
			"0.003": 35.7182717629,
			"0.004": 38.4660973175,
			"0.005": 22.722779265,
			"0.006": 4.84428070535,
			"0.007": 2.62169637692,
			"0.008": 1.08420660607,
			"0.009": 1.65734070247,
			"0.01": 1.99949197329,
			"0.011": 2.17122215184,
			"0.012": 4.37827314387,
			"0.013": 1.69713415821,
			"0.014": 0.0,
			"0.015": 0.0,
			"0.016": 0.0,
			"0.017": 0.0,
			"0.018": 0.0,
			"0.019": 0.0,
			"0.02": 0.0,
			"0.021": 0.0,
			"0.022": 0.0,
			"0.023": 0.0,
			"0.024": 0.0,
			"0.025": 0.0
		}
	}
}
