{
	 "smiles": "NC1=C(C=O)C(=O)C2=C(O1)C=CC=C2", 
	 "Tm": 523.15, 
	 "num_atms": 21, 
	 "gaussian": { 
		 "optdone": 1, 
		 "sigma_profile": "yes", 
		 "theory": "DFT", 
		 "functional": "B3LYP", 
		 "basiset": "6-31G**", 
		 "properties": { 
			 "R2extent": 3259.9456, 
			 "electric_dipole_moment_norm": 7.84041173026, 
			 "electric_quadrupole_moment_norm": 19.6945121272, 
			 "total_energy": -665.690591873, 
			 "HOMO_LUMO_gap": 0.17091, 
			 "cosmo_polarized_energy": -26.54, 
			 "cosmo_cavitation_energy": 25.93, 
			 "cosmo_dispersion_energy": -19.48, 
			 "cosmo_repulsion_energy": 1.51, 
			 "cosmo_total_nonelectrostatic_energy": 7.96, 
			 "SMD_solvation_energy": 6.4 
		},
		"coords": [
			{
				"x": 0.737318298,
				"y": 0.5569305315,
				"z": -1.8325291523,
				"element": "N" 
			},
			{
				"x": 0.6621488868,
				"y": 0.1202509254,
				"z": -0.5512899512,
				"element": "C" 
			},
			{
				"x": 1.1124961521,
				"y": 0.7810682112,
				"z": 0.5850276609,
				"element": "C" 
			},
			{
				"x": 1.7093170404,
				"y": 2.1147530257,
				"z": 0.4510407115,
				"element": "C" 
			},
			{
				"x": 2.144067772,
				"y": 2.813520662,
				"z": 1.3441606007,
				"element": "O" 
			},
			{
				"x": 0.9791970489,
				"y": 0.129548903,
				"z": 1.8994126857,
				"element": "C" 
			},
			{
				"x": 1.3378117922,
				"y": 0.6230984014,
				"z": 2.9616118993,
				"element": "O" 
			},
			{
				"x": 0.3552860634,
				"y": -1.2248914108,
				"z": 1.8645709137,
				"element": "C" 
			},
			{
				"x": -0.0618981676,
				"y": -1.7857879379,
				"z": 0.6595739043,
				"element": "C" 
			},
			{
				"x": 0.0921205919,
				"y": -1.1020676944,
				"z": -0.5342389647,
				"element": "O" 
			},
			{
				"x": -0.6508299205,
				"y": -3.0470797435,
				"z": 0.5854423302,
				"element": "C" 
			},
			{
				"x": -0.8236110085,
				"y": -3.7648982392,
				"z": 1.7654290225,
				"element": "C" 
			},
			{
				"x": -0.4134928057,
				"y": -3.2266247218,
				"z": 2.9940310483,
				"element": "C" 
			},
			{
				"x": 0.1706332213,
				"y": -1.9667970009,
				"z": 3.0398373768,
				"element": "C" 
			},
			{
				"x": 0.2310401349,
				"y": 0.0372561716,
				"z": -2.5321490566,
				"element": "H" 
			},
			{
				"x": 0.9869313699,
				"y": 1.5104570492,
				"z": -2.0324084649,
				"element": "H" 
			},
			{
				"x": 1.7553652428,
				"y": 2.5025880805,
				"z": -0.5986115537,
				"element": "H" 
			},
			{
				"x": -0.958704914,
				"y": -3.4412105042,
				"z": -0.3771069387,
				"element": "H" 
			},
			{
				"x": -1.2799558668,
				"y": -4.749444448,
				"z": 1.728057597,
				"element": "H" 
			},
			{
				"x": -0.5534411676,
				"y": -3.7960827407,
				"z": 3.9075205059,
				"element": "H" 
			},
			{
				"x": 0.5006002361,
				"y": -1.5153875202,
				"z": 3.9697178252,
				"element": "H" 
			}
		],
		 "valence_orbital": [ 
			{
				"type": "occ",
				"energy": -0.26649,
				"method": "rhf"
			},
			{
				"type": "occ",
				"energy": -0.25786,
				"method": "rhf"
			},
			{
				"type": "occ",
				"energy": -0.25707,
				"method": "rhf"
			},
			{
				"type": "occ",
				"energy": -0.23972,
				"method": "rhf"
			},
			{
				"type": "occ",
				"energy": -0.22107,
				"method": "rhf"
			},
			{
				"type": "unocc",
				"energy": -0.05016,
				"method": "rhf"
			},
			{
				"type": "unocc",
				"energy": -0.04229,
				"method": "rhf"
			},
			{
				"type": "unocc",
				"energy": -0.00775,
				"method": "rhf"
			},
			{
				"type": "unocc",
				"energy": 0.02217,
				"method": "rhf"
			},
			{
				"type": "unocc",
				"energy": 0.04551,
				"method": "rhf"
			}
		],
		"cosmo_sigma_profile": { 
			"-0.025": 0.0,
			"-0.024": 0.0,
			"-0.023": 0.0,
			"-0.022": 0.0,
			"-0.021": 0.0,
			"-0.02": 0.0,
			"-0.019": 0.0,
			"-0.018": 0.0,
			"-0.017": 0.356255124285,
			"-0.016": 2.29323985309,
			"-0.015": 2.81110009123,
			"-0.014": 2.15665248308,
			"-0.013": 2.94490104545,
			"-0.012": 2.67339768212,
			"-0.011": 1.92149998312,
			"-0.01": 2.24702241852,
			"-0.009": 1.79453582881,
			"-0.008": 3.23521618576,
			"-0.007": 7.01916594358,
			"-0.006": 9.77279577546,
			"-0.005": 12.7188353164,
			"-0.004": 12.2812236265,
			"-0.003": 11.4114698343,
			"-0.002": 13.3918337051,
			"-0.001": 13.4457804319,
			"0.0": 15.5322511313,
			"0.001": 15.3823873179,
			"0.002": 15.797690702,
			"0.003": 12.4104123888,
			"0.004": 5.83287638893,
			"0.005": 3.31926999927,
			"0.006": 2.33695028374,
			"0.007": 2.36574643285,
			"0.008": 2.4404885782,
			"0.009": 2.33477735067,
			"0.01": 2.72772468006,
			"0.011": 4.37445571642,
			"0.012": 5.77173241895,
			"0.013": 6.9020665343,
			"0.014": 3.38268098178,
			"0.015": 1.81279020161,
			"0.016": 1.19923433198,
			"0.017": 1.34756971349,
			"0.018": 0.923959465397,
			"0.019": 0.220027524723,
			"0.02": 0.0,
			"0.021": 0.0,
			"0.022": 0.0,
			"0.023": 0.0,
			"0.024": 0.0,
			"0.025": 0.0
		}
	}
}
