{
	 "smiles": "COC1=CC=CC=C1C1=CC=C(O1)C=C1C=C(CC(C)C)OC1=O", 
	 "Tm": 362.15, 
	 "num_atms": 44, 
	 "gaussian": { 
		 "optdone": 1, 
		 "sigma_profile": "yes", 
		 "theory": "DFT", 
		 "functional": "B3LYP", 
		 "basiset": "6-31G**", 
		 "properties": { 
			 "R2extent": 14283.3216, 
			 "electric_dipole_moment_norm": 3.47043469035, 
			 "electric_quadrupole_moment_norm": 27.3557622537, 
			 "total_energy": -1075.0566078, 
			 "HOMO_LUMO_gap": 0.10763, 
			 "cosmo_polarized_energy": -14.83, 
			 "cosmo_cavitation_energy": 47.89, 
			 "cosmo_dispersion_energy": -33.66, 
			 "cosmo_repulsion_energy": 2.52, 
			 "cosmo_total_nonelectrostatic_energy": 16.75, 
			 "SMD_solvation_energy": 9.88 
		},
		"coords": [
			{
				"x": -0.5917810722,
				"y": 4.7436474466,
				"z": -5.5555644587,
				"element": "C" 
			},
			{
				"x": -0.8084080739,
				"y": 3.768157987,
				"z": -4.5470969221,
				"element": "O" 
			},
			{
				"x": -0.1445704931,
				"y": 2.5774856008,
				"z": -4.6319300819,
				"element": "C" 
			},
			{
				"x": 0.7433434084,
				"y": 2.2652973119,
				"z": -5.6651502527,
				"element": "C" 
			},
			{
				"x": 1.3875829131,
				"y": 1.026382889,
				"z": -5.687499465,
				"element": "C" 
			},
			{
				"x": 1.1514109192,
				"y": 0.0911476847,
				"z": -4.6810939026,
				"element": "C" 
			},
			{
				"x": 0.2684139384,
				"y": 0.3955798439,
				"z": -3.6493814573,
				"element": "C" 
			},
			{
				"x": -0.3958921243,
				"y": 1.636422387,
				"z": -3.6001612889,
				"element": "C" 
			},
			{
				"x": -1.3098729565,
				"y": 1.9102410953,
				"z": -2.5030606559,
				"element": "C" 
			},
			{
				"x": -2.1145349612,
				"y": 2.9733311063,
				"z": -2.125087104,
				"element": "C" 
			},
			{
				"x": -2.761128156,
				"y": 2.5856821215,
				"z": -0.9326484512,
				"element": "C" 
			},
			{
				"x": -2.3262796725,
				"y": 1.3033070975,
				"z": -0.6302581796,
				"element": "C" 
			},
			{
				"x": -1.444479748,
				"y": 0.9042931398,
				"z": -1.5927172853,
				"element": "O" 
			},
			{
				"x": -2.6751056929,
				"y": 0.4658737243,
				"z": 0.462046804,
				"element": "C" 
			},
			{
				"x": -2.2912085214,
				"y": -0.7984885731,
				"z": 0.8250144134,
				"element": "C" 
			},
			{
				"x": -2.7570509861,
				"y": -1.5157927919,
				"z": 1.9944629159,
				"element": "C" 
			},
			{
				"x": -2.1606804849,
				"y": -2.7262118939,
				"z": 2.0130362003,
				"element": "C" 
			},
			{
				"x": -2.2449453079,
				"y": -3.8817149175,
				"z": 2.9471758598,
				"element": "C" 
			},
			{
				"x": -0.911228434,
				"y": -4.2259954303,
				"z": 3.659635296,
				"element": "C" 
			},
			{
				"x": -1.0514251509,
				"y": -5.5435969155,
				"z": 4.4332042133,
				"element": "C" 
			},
			{
				"x": -0.4500779552,
				"y": -3.0877684879,
				"z": 4.5792248004,
				"element": "C" 
			},
			{
				"x": -1.3087479097,
				"y": -2.8916794507,
				"z": 0.932272824,
				"element": "O" 
			},
			{
				"x": -1.3415114628,
				"y": -1.7286389737,
				"z": 0.1523088322,
				"element": "C" 
			},
			{
				"x": -0.6689644836,
				"y": -1.6519077223,
				"z": -0.8463424181,
				"element": "O" 
			},
			{
				"x": 0.4579027811,
				"y": 5.0604820431,
				"z": -5.5919697379,
				"element": "H" 
			},
			{
				"x": -1.2152568614,
				"y": 5.5974168731,
				"z": -5.2858291515,
				"element": "H" 
			},
			{
				"x": -0.8920035307,
				"y": 4.3755529301,
				"z": -6.5444549831,
				"element": "H" 
			},
			{
				"x": 0.9378232602,
				"y": 2.9807407939,
				"z": -6.4546082557,
				"element": "H" 
			},
			{
				"x": 2.0744758588,
				"y": 0.8006682272,
				"z": -6.4981078215,
				"element": "H" 
			},
			{
				"x": 1.6508292904,
				"y": -0.8722801293,
				"z": -4.6961382975,
				"element": "H" 
			},
			{
				"x": 0.0766987916,
				"y": -0.3242519056,
				"z": -2.8606257882,
				"element": "H" 
			},
			{
				"x": -2.210646234,
				"y": 3.9049068529,
				"z": -2.6556447793,
				"element": "H" 
			},
			{
				"x": -3.4649212379,
				"y": 3.165343282,
				"z": -0.3514777156,
				"element": "H" 
			},
			{
				"x": -3.3901342764,
				"y": 0.9441737448,
				"z": 1.1296135932,
				"element": "H" 
			},
			{
				"x": -3.4645666845,
				"y": -1.1481140909,
				"z": 2.7251322166,
				"element": "H" 
			},
			{
				"x": -3.0203796797,
				"y": -3.6685709789,
				"z": 3.692996785,
				"element": "H" 
			},
			{
				"x": -2.5761440897,
				"y": -4.7630282951,
				"z": 2.3804825435,
				"element": "H" 
			},
			{
				"x": -0.1544362879,
				"y": -4.3646542273,
				"z": 2.8768443646,
				"element": "H" 
			},
			{
				"x": -0.10768656,
				"y": -5.8167562608,
				"z": 4.9167961291,
				"element": "H" 
			},
			{
				"x": -1.3405037703,
				"y": -6.3685420206,
				"z": 3.7728874736,
				"element": "H" 
			},
			{
				"x": -1.813483241,
				"y": -5.4604721932,
				"z": 5.2181276094,
				"element": "H" 
			},
			{
				"x": 0.5142190617,
				"y": -3.3252058771,
				"z": 5.040568987,
				"element": "H" 
			},
			{
				"x": -0.3387971485,
				"y": -2.1465985503,
				"z": 4.0323429956,
				"element": "H" 
			},
			{
				"x": -1.1730469741,
				"y": -2.9212644966,
				"z": 5.3878735969,
				"element": "H" 
			}
		],
		 "valence_orbital": [ 
			{
				"type": "occ",
				"energy": -0.27487,
				"method": "rhf"
			},
			{
				"type": "occ",
				"energy": -0.26099,
				"method": "rhf"
			},
			{
				"type": "occ",
				"energy": -0.23656,
				"method": "rhf"
			},
			{
				"type": "occ",
				"energy": -0.22296,
				"method": "rhf"
			},
			{
				"type": "occ",
				"energy": -0.1818,
				"method": "rhf"
			},
			{
				"type": "unocc",
				"energy": -0.07417,
				"method": "rhf"
			},
			{
				"type": "unocc",
				"energy": -0.01466,
				"method": "rhf"
			},
			{
				"type": "unocc",
				"energy": 0.01326,
				"method": "rhf"
			},
			{
				"type": "unocc",
				"energy": 0.04134,
				"method": "rhf"
			},
			{
				"type": "unocc",
				"energy": 0.05585,
				"method": "rhf"
			}
		],
		"cosmo_sigma_profile": { 
			"-0.025": 0.0,
			"-0.024": 0.0,
			"-0.023": 0.0,
			"-0.022": 0.0,
			"-0.021": 0.0,
			"-0.02": 0.0,
			"-0.019": 0.0,
			"-0.018": 0.0,
			"-0.017": 0.0,
			"-0.016": 0.0,
			"-0.015": 0.0,
			"-0.014": 0.0,
			"-0.013": 0.0,
			"-0.012": 0.0,
			"-0.011": 0.0,
			"-0.01": 0.0,
			"-0.009": 0.00701061489747,
			"-0.008": 4.17378187921,
			"-0.007": 8.84235070056,
			"-0.006": 16.8812598778,
			"-0.005": 22.4312106432,
			"-0.004": 23.9989743038,
			"-0.003": 31.906017934,
			"-0.002": 34.0409570923,
			"-0.001": 33.0826417763,
			"0.0": 33.3008066915,
			"0.001": 41.1781997023,
			"0.002": 38.9394529646,
			"0.003": 28.7740718625,
			"0.004": 21.3950424312,
			"0.005": 13.9171141543,
			"0.006": 5.5744240135,
			"0.007": 3.86323001728,
			"0.008": 3.76595420793,
			"0.009": 5.09498526425,
			"0.01": 5.18833307056,
			"0.011": 1.86357012588,
			"0.012": 1.92133808333,
			"0.013": 0.793791288883,
			"0.014": 0.0,
			"0.015": 0.0,
			"0.016": 0.0,
			"0.017": 0.0,
			"0.018": 0.0,
			"0.019": 0.0,
			"0.02": 0.0,
			"0.021": 0.0,
			"0.022": 0.0,
			"0.023": 0.0,
			"0.024": 0.0,
			"0.025": 0.0
		}
	}
}
