{
	 "smiles": "FC(F)(F)C(F)(Cl)C(Cl)(Cl)C(F)(F)F", 
	 "Tm": 277.15, 
	 "num_atms": 14, 
	 "gaussian": { 
		 "optdone": 1, 
		 "sigma_profile": "yes", 
		 "theory": "DFT", 
		 "functional": "B3LYP", 
		 "basiset": "6-31G**", 
		 "properties": { 
			 "R2extent": 3387.7984, 
			 "electric_dipole_moment_norm": 0.172667107464, 
			 "electric_quadrupole_moment_norm": 1.81628445459, 
			 "total_energy": -2231.84382967, 
			 "HOMO_LUMO_gap": 0.27141, 
			 "cosmo_polarized_energy": -1.12, 
			 "cosmo_cavitation_energy": 25.02, 
			 "cosmo_dispersion_energy": -17.92, 
			 "cosmo_repulsion_energy": 1.26, 
			 "cosmo_total_nonelectrostatic_energy": 8.36, 
			 "SMD_solvation_energy": 5.85 
		},
		"coords": [
			{
				"x": -2.6189438318,
				"y": -2.2499516463,
				"z": 0.7359621406,
				"element": "F" 
			},
			{
				"x": -1.4795123626,
				"y": -1.8421296555,
				"z": 0.1674903287,
				"element": "C" 
			},
			{
				"x": -1.7887427996,
				"y": -1.0973316334,
				"z": -0.8985680677,
				"element": "F" 
			},
			{
				"x": -0.7950700446,
				"y": -2.9162479283,
				"z": -0.2417255271,
				"element": "F" 
			},
			{
				"x": -0.6708399313,
				"y": -1.0234240951,
				"z": 1.2346909301,
				"element": "C" 
			},
			{
				"x": -1.5459695742,
				"y": -0.1278974413,
				"z": 1.7571354324,
				"element": "F" 
			},
			{
				"x": -0.2194894985,
				"y": -2.180128789,
				"z": 2.5290426139,
				"element": "Cl" 
			},
			{
				"x": 0.5746038088,
				"y": -0.189714072,
				"z": 0.723471684,
				"element": "C" 
			},
			{
				"x": -0.0109296675,
				"y": 1.1627532731,
				"z": -0.3052695752,
				"element": "Cl" 
			},
			{
				"x": 1.4210364281,
				"y": 0.5064440597,
				"z": 2.1450885854,
				"element": "Cl" 
			},
			{
				"x": 1.6220193562,
				"y": -0.9911071652,
				"z": -0.1178981041,
				"element": "C" 
			},
			{
				"x": 2.0608316547,
				"y": -2.060729273,
				"z": 0.5545752249,
				"element": "F" 
			},
			{
				"x": 2.6678695062,
				"y": -0.2132072356,
				"z": -0.4078212514,
				"element": "F" 
			},
			{
				"x": 1.0761369561,
				"y": -1.4051283982,
				"z": -1.2699744143,
				"element": "F" 
			}
		],
		 "valence_orbital": [ 
			{
				"type": "occ",
				"energy": -0.35976,
				"method": "rhf"
			},
			{
				"type": "occ",
				"energy": -0.35434,
				"method": "rhf"
			},
			{
				"type": "occ",
				"energy": -0.34438,
				"method": "rhf"
			},
			{
				"type": "occ",
				"energy": -0.33913,
				"method": "rhf"
			},
			{
				"type": "occ",
				"energy": -0.32425,
				"method": "rhf"
			},
			{
				"type": "unocc",
				"energy": -0.05284,
				"method": "rhf"
			},
			{
				"type": "unocc",
				"energy": -0.04936,
				"method": "rhf"
			},
			{
				"type": "unocc",
				"energy": 0.0029,
				"method": "rhf"
			},
			{
				"type": "unocc",
				"energy": 0.05221,
				"method": "rhf"
			},
			{
				"type": "unocc",
				"energy": 0.07412,
				"method": "rhf"
			}
		],
		"cosmo_sigma_profile": { 
			"-0.025": 0.0,
			"-0.024": 0.0,
			"-0.023": 0.0,
			"-0.022": 0.0,
			"-0.021": 0.0,
			"-0.02": 0.0,
			"-0.019": 0.0,
			"-0.018": 0.0,
			"-0.017": 0.0,
			"-0.016": 0.0,
			"-0.015": 0.0,
			"-0.014": 0.0,
			"-0.013": 0.0,
			"-0.012": 0.0,
			"-0.011": 0.0,
			"-0.01": 0.0,
			"-0.009": 0.0,
			"-0.008": 0.0,
			"-0.007": 0.0,
			"-0.006": 1.01975345188,
			"-0.005": 4.6335770892,
			"-0.004": 6.02218429432,
			"-0.003": 8.46928657255,
			"-0.002": 11.0447873346,
			"-0.001": 20.7502235682,
			"0.0": 49.2509759786,
			"0.001": 87.597031462,
			"0.002": 17.8052516056,
			"0.003": 0.363938620119,
			"0.004": 0.0,
			"0.005": 0.0,
			"0.006": 0.0,
			"0.007": 0.0,
			"0.008": 0.0,
			"0.009": 0.0,
			"0.01": 0.0,
			"0.011": 0.0,
			"0.012": 0.0,
			"0.013": 0.0,
			"0.014": 0.0,
			"0.015": 0.0,
			"0.016": 0.0,
			"0.017": 0.0,
			"0.018": 0.0,
			"0.019": 0.0,
			"0.02": 0.0,
			"0.021": 0.0,
			"0.022": 0.0,
			"0.023": 0.0,
			"0.024": 0.0,
			"0.025": 0.0
		}
	}
}
