{
	 "smiles": "CCSC1=NC=C(C=C1)C(O)=O", 
	 "Tm": 397.15, 
	 "num_atms": 21, 
	 "gaussian": { 
		 "optdone": 1, 
		 "sigma_profile": "yes", 
		 "theory": "DFT", 
		 "functional": "B3LYP", 
		 "basiset": "6-31G**", 
		 "properties": { 
			 "R2extent": 3518.4617, 
			 "electric_dipole_moment_norm": 3.99774820868, 
			 "electric_quadrupole_moment_norm": 19.8865161662, 
			 "total_energy": -913.672040923, 
			 "HOMO_LUMO_gap": 0.17209, 
			 "cosmo_polarized_energy": -15.48, 
			 "cosmo_cavitation_energy": 26.91, 
			 "cosmo_dispersion_energy": -20.2, 
			 "cosmo_repulsion_energy": 1.57, 
			 "cosmo_total_nonelectrostatic_energy": 8.28, 
			 "SMD_solvation_energy": 4.99 
		},
		"coords": [
			{
				"x": -0.8910780527,
				"y": -0.2931448842,
				"z": -3.0091800885,
				"element": "C" 
			},
			{
				"x": -0.1275776871,
				"y": 1.024404201,
				"z": -2.9067528997,
				"element": "C" 
			},
			{
				"x": 1.4711353811,
				"y": 0.8987310887,
				"z": -2.0075251499,
				"element": "S" 
			},
			{
				"x": 0.9584150063,
				"y": 0.9336094053,
				"z": -0.3092107572,
				"element": "C" 
			},
			{
				"x": -0.337170873,
				"y": 1.0945068496,
				"z": -0.0154072797,
				"element": "N" 
			},
			{
				"x": -0.6906561749,
				"y": 1.1331677948,
				"z": 1.2716229308,
				"element": "C" 
			},
			{
				"x": 0.2138629239,
				"y": 1.033714668,
				"z": 2.3351834479,
				"element": "C" 
			},
			{
				"x": 1.5686397049,
				"y": 0.8503902768,
				"z": 2.0095052691,
				"element": "C" 
			},
			{
				"x": 1.9520554385,
				"y": 0.7963304572,
				"z": 0.6802622367,
				"element": "C" 
			},
			{
				"x": -0.3265907726,
				"y": 1.089554444,
				"z": 3.725879714,
				"element": "C" 
			},
			{
				"x": 0.5622394834,
				"y": 1.3602775351,
				"z": 4.7211270226,
				"element": "O" 
			},
			{
				"x": -1.491703563,
				"y": 0.9078909304,
				"z": 3.9916297483,
				"element": "O" 
			},
			{
				"x": -0.2919445684,
				"y": -1.0656025564,
				"z": -3.4995245826,
				"element": "H" 
			},
			{
				"x": -1.8055168985,
				"y": -0.1451190873,
				"z": -3.5951699605,
				"element": "H" 
			},
			{
				"x": -1.1783505217,
				"y": -0.6490355748,
				"z": -2.017402774,
				"element": "H" 
			},
			{
				"x": 0.1598997895,
				"y": 1.4018981345,
				"z": -3.8925351477,
				"element": "H" 
			},
			{
				"x": -0.7200481449,
				"y": 1.7891052024,
				"z": -2.4013820251,
				"element": "H" 
			},
			{
				"x": -1.7487053017,
				"y": 1.252833577,
				"z": 1.4890898781,
				"element": "H" 
			},
			{
				"x": 2.3221758992,
				"y": 0.7140414962,
				"z": 2.7821031569,
				"element": "H" 
			},
			{
				"x": 2.9892944542,
				"y": 0.643368704,
				"z": 0.4013222519,
				"element": "H" 
			},
			{
				"x": 1.4077244777,
				"y": 1.6505773376,
				"z": 4.3528650085,
				"element": "H" 
			}
		],
		 "valence_orbital": [ 
			{
				"type": "occ",
				"energy": -0.31258,
				"method": "rhf"
			},
			{
				"type": "occ",
				"energy": -0.30297,
				"method": "rhf"
			},
			{
				"type": "occ",
				"energy": -0.28485,
				"method": "rhf"
			},
			{
				"type": "occ",
				"energy": -0.27166,
				"method": "rhf"
			},
			{
				"type": "occ",
				"energy": -0.23287,
				"method": "rhf"
			},
			{
				"type": "unocc",
				"energy": -0.06078,
				"method": "rhf"
			},
			{
				"type": "unocc",
				"energy": -0.04371,
				"method": "rhf"
			},
			{
				"type": "unocc",
				"energy": 0.02393,
				"method": "rhf"
			},
			{
				"type": "unocc",
				"energy": 0.03531,
				"method": "rhf"
			},
			{
				"type": "unocc",
				"energy": 0.04933,
				"method": "rhf"
			}
		],
		"cosmo_sigma_profile": { 
			"-0.025": 0.0,
			"-0.024": 0.0,
			"-0.023": 0.0,
			"-0.022": 0.0,
			"-0.021": 0.0,
			"-0.02": 0.0496735875851,
			"-0.019": 0.722124908431,
			"-0.018": 0.804220219113,
			"-0.017": 1.41482922831,
			"-0.016": 0.948094643644,
			"-0.015": 0.601564413682,
			"-0.014": 0.677733177058,
			"-0.013": 1.8601672081,
			"-0.012": 1.66647774275,
			"-0.011": 1.03024427912,
			"-0.01": 1.1746318013,
			"-0.009": 2.22676020563,
			"-0.008": 3.52007699914,
			"-0.007": 5.76765072798,
			"-0.006": 7.65104602564,
			"-0.005": 8.05367698074,
			"-0.004": 11.7290325223,
			"-0.003": 16.4472122541,
			"-0.002": 16.7961597856,
			"-0.001": 16.3950708235,
			"0.0": 24.9123641069,
			"0.001": 20.4655799591,
			"0.002": 10.0380364683,
			"0.003": 8.41532247037,
			"0.004": 8.06867153817,
			"0.005": 6.32087881415,
			"0.006": 7.00628392059,
			"0.007": 6.59920309247,
			"0.008": 4.44757536858,
			"0.009": 4.53734406408,
			"0.01": 4.7479045905,
			"0.011": 5.80603897705,
			"0.012": 4.13408142356,
			"0.013": 1.34438572442,
			"0.014": 0.0,
			"0.015": 0.0,
			"0.016": 0.0,
			"0.017": 0.0,
			"0.018": 0.0,
			"0.019": 0.0,
			"0.02": 0.0,
			"0.021": 0.0,
			"0.022": 0.0,
			"0.023": 0.0,
			"0.024": 0.0,
			"0.025": 0.0
		}
	}
}
