{
	 "smiles": "CC1=C(C)C=C(C=C1)C(=O)CCC(O)=O", 
	 "Tm": 401.15, 
	 "num_atms": 29, 
	 "gaussian": { 
		 "optdone": 1, 
		 "sigma_profile": "yes", 
		 "theory": "DFT", 
		 "functional": "B3LYP", 
		 "basiset": "6-31G**", 
		 "properties": { 
			 "R2extent": 4731.1139, 
			 "electric_dipole_moment_norm": 2.77197900786, 
			 "electric_quadrupole_moment_norm": 11.03863329, 
			 "total_energy": -691.424699943, 
			 "HOMO_LUMO_gap": 0.19347, 
			 "cosmo_polarized_energy": -14.64, 
			 "cosmo_cavitation_energy": 32.93, 
			 "cosmo_dispersion_energy": -23.39, 
			 "cosmo_repulsion_energy": 1.84, 
			 "cosmo_total_nonelectrostatic_energy": 11.39, 
			 "SMD_solvation_energy": 7.01 
		},
		"coords": [
			{
				"x": -2.3402980861,
				"y": 0.6573234156,
				"z": 4.0114243219,
				"element": "C" 
			},
			{
				"x": -1.6160977825,
				"y": 0.5338318332,
				"z": 2.6937900386,
				"element": "C" 
			},
			{
				"x": -1.4749134342,
				"y": -0.723127762,
				"z": 2.0596106252,
				"element": "C" 
			},
			{
				"x": -2.0452561436,
				"y": -1.9739119715,
				"z": 2.6850725226,
				"element": "C" 
			},
			{
				"x": -0.7977969552,
				"y": -0.7925149766,
				"z": 0.8436752643,
				"element": "C" 
			},
			{
				"x": -0.2518142205,
				"y": 0.3457415504,
				"z": 0.2300658299,
				"element": "C" 
			},
			{
				"x": -0.3955191004,
				"y": 1.5854536324,
				"z": 0.8652492255,
				"element": "C" 
			},
			{
				"x": -1.0709940288,
				"y": 1.6679191844,
				"z": 2.0809457023,
				"element": "C" 
			},
			{
				"x": 0.4548563794,
				"y": 0.1740016224,
				"z": -1.0753565416,
				"element": "C" 
			},
			{
				"x": 0.5558264493,
				"y": -0.9278560191,
				"z": -1.5978877622,
				"element": "O" 
			},
			{
				"x": 1.0431284887,
				"y": 1.4057362191,
				"z": -1.762404702,
				"element": "C" 
			},
			{
				"x": 1.7570828302,
				"y": 1.0472769014,
				"z": -3.0616664772,
				"element": "C" 
			},
			{
				"x": 3.0566320685,
				"y": 0.3127624191,
				"z": -2.8065434254,
				"element": "C" 
			},
			{
				"x": 3.4893074809,
				"y": -0.3387801951,
				"z": -3.9102896039,
				"element": "O" 
			},
			{
				"x": 3.6799115582,
				"y": 0.3229200481,
				"z": -1.7671160547,
				"element": "O" 
			},
			{
				"x": -3.3776041459,
				"y": 0.3093750016,
				"z": 3.9350028978,
				"element": "H" 
			},
			{
				"x": -2.3589849737,
				"y": 1.6935892676,
				"z": 4.358131045,
				"element": "H" 
			},
			{
				"x": -1.8634567861,
				"y": 0.0506547735,
				"z": 4.7908263086,
				"element": "H" 
			},
			{
				"x": -1.8441038105,
				"y": -2.8493839203,
				"z": 2.0630349695,
				"element": "H" 
			},
			{
				"x": -3.1313049541,
				"y": -1.900676733,
				"z": 2.8199040694,
				"element": "H" 
			},
			{
				"x": -1.6166759829,
				"y": -2.1620841293,
				"z": 3.6769525122,
				"element": "H" 
			},
			{
				"x": -0.6753922943,
				"y": -1.7451722717,
				"z": 0.3374865464,
				"element": "H" 
			},
			{
				"x": 0.0160739441,
				"y": 2.4875492165,
				"z": 0.4247361419,
				"element": "H" 
			},
			{
				"x": -1.1777006938,
				"y": 2.6335782735,
				"z": 2.5684871259,
				"element": "H" 
			},
			{
				"x": 0.2355157271,
				"y": 2.1225977628,
				"z": -1.9555337435,
				"element": "H" 
			},
			{
				"x": 1.7433146372,
				"y": 1.8932702454,
				"z": -1.0752938036,
				"element": "H" 
			},
			{
				"x": 2.0039319037,
				"y": 1.956602883,
				"z": -3.6238838413,
				"element": "H" 
			},
			{
				"x": 1.1281997505,
				"y": 0.4289290223,
				"z": -3.7057554456,
				"element": "H" 
			},
			{
				"x": 4.3293321749,
				"y": -0.7596052938,
				"z": -3.6612637461,
				"element": "H" 
			}
		],
		 "valence_orbital": [ 
			{
				"type": "occ",
				"energy": -0.31073,
				"method": "rhf"
			},
			{
				"type": "occ",
				"energy": -0.2697,
				"method": "rhf"
			},
			{
				"type": "occ",
				"energy": -0.24972,
				"method": "rhf"
			},
			{
				"type": "occ",
				"energy": -0.24743,
				"method": "rhf"
			},
			{
				"type": "occ",
				"energy": -0.2441,
				"method": "rhf"
			},
			{
				"type": "unocc",
				"energy": -0.05063,
				"method": "rhf"
			},
			{
				"type": "unocc",
				"energy": -0.00237,
				"method": "rhf"
			},
			{
				"type": "unocc",
				"energy": 0.01902,
				"method": "rhf"
			},
			{
				"type": "unocc",
				"energy": 0.04297,
				"method": "rhf"
			},
			{
				"type": "unocc",
				"energy": 0.08534,
				"method": "rhf"
			}
		],
		"cosmo_sigma_profile": { 
			"-0.025": 0.0,
			"-0.024": 0.0,
			"-0.023": 0.0,
			"-0.022": 0.0,
			"-0.021": 0.0,
			"-0.02": 0.0,
			"-0.019": 0.0,
			"-0.018": 0.637715390756,
			"-0.017": 0.837822409399,
			"-0.016": 0.804472491257,
			"-0.015": 0.769891171007,
			"-0.014": 1.24860384049,
			"-0.013": 0.485657578247,
			"-0.012": 0.430745597608,
			"-0.011": 0.877809914699,
			"-0.01": 0.475542922683,
			"-0.009": 0.611764762512,
			"-0.008": 0.346371701598,
			"-0.007": 3.78923330768,
			"-0.006": 11.9677790979,
			"-0.005": 19.4367219945,
			"-0.004": 28.3476951463,
			"-0.003": 23.1209795275,
			"-0.002": 20.5249825177,
			"-0.001": 20.6147498146,
			"0.0": 21.4230940359,
			"0.001": 14.5239738688,
			"0.002": 12.129103837,
			"0.003": 12.5755058745,
			"0.004": 13.8268390877,
			"0.005": 11.6551327418,
			"0.006": 5.29831143827,
			"0.007": 5.33938777106,
			"0.008": 4.3628276696,
			"0.009": 4.67968120805,
			"0.01": 5.23319821908,
			"0.011": 5.45283058182,
			"0.012": 7.21248987769,
			"0.013": 0.342346086285,
			"0.014": 0.0,
			"0.015": 0.0,
			"0.016": 0.0,
			"0.017": 0.0,
			"0.018": 0.0,
			"0.019": 0.0,
			"0.02": 0.0,
			"0.021": 0.0,
			"0.022": 0.0,
			"0.023": 0.0,
			"0.024": 0.0,
			"0.025": 0.0
		}
	}
}
