{
	 "smiles": "OC(=O)C1=C2N=C(S)NC2=CC(F)=C1", 
	 "Tm": 648.15, 
	 "num_atms": 19, 
	 "gaussian": { 
		 "optdone": 1, 
		 "sigma_profile": "yes", 
		 "theory": "DFT", 
		 "functional": "B3LYP", 
		 "basiset": "6-31G**", 
		 "properties": { 
			 "R2extent": 3686.5077, 
			 "electric_dipole_moment_norm": 7.92052943243, 
			 "electric_quadrupole_moment_norm": 5.78957221649, 
			 "total_energy": -1065.86017374, 
			 "HOMO_LUMO_gap": 0.17597, 
			 "cosmo_polarized_energy": -19.88, 
			 "cosmo_cavitation_energy": 26.42, 
			 "cosmo_dispersion_energy": -20.26, 
			 "cosmo_repulsion_energy": 1.51, 
			 "cosmo_total_nonelectrostatic_energy": 7.67, 
			 "SMD_solvation_energy": 4.43 
		},
		"coords": [
			{
				"x": 0.644261015,
				"y": -1.7717812076,
				"z": -0.7553228214,
				"element": "O" 
			},
			{
				"x": 0.9134774552,
				"y": -0.6048842287,
				"z": -1.3677623205,
				"element": "C" 
			},
			{
				"x": 1.4001667085,
				"y": -0.5685869101,
				"z": -2.4767466724,
				"element": "O" 
			},
			{
				"x": 0.5768717931,
				"y": 0.6442217484,
				"z": -0.6011892565,
				"element": "C" 
			},
			{
				"x": 0.0125121571,
				"y": 0.6261427742,
				"z": 0.6842670442,
				"element": "C" 
			},
			{
				"x": -0.3324854337,
				"y": -0.4670451521,
				"z": 1.4705088589,
				"element": "N" 
			},
			{
				"x": -0.817895491,
				"y": 0.0456296917,
				"z": 2.576028159,
				"element": "C" 
			},
			{
				"x": -1.4282459017,
				"y": -0.848891684,
				"z": 3.9668190611,
				"element": "S" 
			},
			{
				"x": -0.8174965005,
				"y": 1.4217696942,
				"z": 2.574603288,
				"element": "N" 
			},
			{
				"x": -0.2837511033,
				"y": 1.8287658918,
				"z": 1.3587103129,
				"element": "C" 
			},
			{
				"x": -0.0381909034,
				"y": 3.0806280632,
				"z": 0.7991290082,
				"element": "C" 
			},
			{
				"x": 0.521556792,
				"y": 3.0626850368,
				"z": -0.4757121445,
				"element": "C" 
			},
			{
				"x": 0.7809100974,
				"y": 4.2464879275,
				"z": -1.0666755055,
				"element": "F" 
			},
			{
				"x": 0.8282828238,
				"y": 1.8912679724,
				"z": -1.1740640823,
				"element": "C" 
			},
			{
				"x": 0.2537730994,
				"y": -1.624477405,
				"z": 0.1339977839,
				"element": "H" 
			},
			{
				"x": -1.1824148039,
				"y": -2.0487732081,
				"z": 3.409669582,
				"element": "H" 
			},
			{
				"x": -1.1449497829,
				"y": 2.0166384598,
				"z": 3.3203841265,
				"element": "H" 
			},
			{
				"x": -0.2557862705,
				"y": 4.0196663954,
				"z": 1.2945261169,
				"element": "H" 
			},
			{
				"x": 1.2634042493,
				"y": 1.9432361401,
				"z": -2.1651705386,
				"element": "H" 
			}
		],
		 "valence_orbital": [ 
			{
				"type": "occ",
				"energy": -0.30796,
				"method": "rhf"
			},
			{
				"type": "occ",
				"energy": -0.29735,
				"method": "rhf"
			},
			{
				"type": "occ",
				"energy": -0.26294,
				"method": "rhf"
			},
			{
				"type": "occ",
				"energy": -0.25929,
				"method": "rhf"
			},
			{
				"type": "occ",
				"energy": -0.23811,
				"method": "rhf"
			},
			{
				"type": "unocc",
				"energy": -0.06214,
				"method": "rhf"
			},
			{
				"type": "unocc",
				"energy": -0.02395,
				"method": "rhf"
			},
			{
				"type": "unocc",
				"energy": -0.00911,
				"method": "rhf"
			},
			{
				"type": "unocc",
				"energy": 0.01528,
				"method": "rhf"
			},
			{
				"type": "unocc",
				"energy": 0.03998,
				"method": "rhf"
			}
		],
		"cosmo_sigma_profile": { 
			"-0.025": 0.0,
			"-0.024": 0.0,
			"-0.023": 0.0,
			"-0.022": 0.0,
			"-0.021": 0.0,
			"-0.02": 0.0,
			"-0.019": 0.0111194304223,
			"-0.018": 1.33553083077,
			"-0.017": 2.01615661815,
			"-0.016": 0.986928192976,
			"-0.015": 1.51771673097,
			"-0.014": 1.493324432,
			"-0.013": 2.26015115291,
			"-0.012": 2.71870984796,
			"-0.011": 2.79495282552,
			"-0.01": 2.11541837433,
			"-0.009": 4.59835635561,
			"-0.008": 3.85496188652,
			"-0.007": 4.66204996642,
			"-0.006": 4.6393008607,
			"-0.005": 5.29535764807,
			"-0.004": 7.76903437698,
			"-0.003": 10.2957549837,
			"-0.002": 12.431826816,
			"-0.001": 15.8465016175,
			"0.0": 22.9216069748,
			"0.001": 26.8968359933,
			"0.002": 13.8435811957,
			"0.003": 11.7967645887,
			"0.004": 15.9664546,
			"0.005": 7.59399176891,
			"0.006": 4.33585678639,
			"0.007": 2.28884277786,
			"0.008": 2.67425637225,
			"0.009": 2.48731239916,
			"0.01": 3.95152331296,
			"0.011": 5.34313304803,
			"0.012": 6.14628026383,
			"0.013": 2.43262275735,
			"0.014": 0.588879325334,
			"0.015": 0.0,
			"0.016": 0.0,
			"0.017": 0.0,
			"0.018": 0.0,
			"0.019": 0.0,
			"0.02": 0.0,
			"0.021": 0.0,
			"0.022": 0.0,
			"0.023": 0.0,
			"0.024": 0.0,
			"0.025": 0.0
		}
	}
}
