{
	 "smiles": "NC(=O)CCC(N1C(=O)C2=C(C=CC=C2)C1=O)C(O)=O", 
	 "Tm": 435.15, 
	 "num_atms": 32, 
	 "gaussian": { 
		 "optdone": 1, 
		 "sigma_profile": "yes", 
		 "theory": "DFT", 
		 "functional": "B3LYP", 
		 "basiset": "6-31G**", 
		 "properties": { 
			 "R2extent": 6185.2341, 
			 "electric_dipole_moment_norm": 7.67169791637, 
			 "electric_quadrupole_moment_norm": 27.8824098308, 
			 "total_energy": -988.303511873, 
			 "HOMO_LUMO_gap": 0.17017, 
			 "cosmo_polarized_energy": -26.15, 
			 "cosmo_cavitation_energy": 36.33, 
			 "cosmo_dispersion_energy": -25.76, 
			 "cosmo_repulsion_energy": 1.96, 
			 "cosmo_total_nonelectrostatic_energy": 12.54, 
			 "SMD_solvation_energy": 8.69 
		},
		"coords": [
			{
				"x": 4.5890972224,
				"y": -0.523654342,
				"z": -2.2049217101,
				"element": "N" 
			},
			{
				"x": 3.4902710028,
				"y": 0.2476075022,
				"z": -2.0303237953,
				"element": "C" 
			},
			{
				"x": 3.0281172998,
				"y": 0.9189587907,
				"z": -2.9601677545,
				"element": "O" 
			},
			{
				"x": 2.8633509245,
				"y": 0.2312504171,
				"z": -0.6460241805,
				"element": "C" 
			},
			{
				"x": 2.0628421593,
				"y": 1.5188706589,
				"z": -0.3471674906,
				"element": "C" 
			},
			{
				"x": 0.5223861263,
				"y": 1.4349421837,
				"z": -0.3474022949,
				"element": "C" 
			},
			{
				"x": -0.0311771343,
				"y": 0.7776488785,
				"z": 0.8326642532,
				"element": "N" 
			},
			{
				"x": -0.1341139781,
				"y": -0.6099052798,
				"z": 1.0244806624,
				"element": "C" 
			},
			{
				"x": 0.4236479846,
				"y": -1.4672519999,
				"z": 0.364088377,
				"element": "O" 
			},
			{
				"x": -1.0208725496,
				"y": -0.7943024431,
				"z": 2.2086553532,
				"element": "C" 
			},
			{
				"x": -1.4358053502,
				"y": 0.4631163645,
				"z": 2.6487854126,
				"element": "C" 
			},
			{
				"x": -2.2745398646,
				"y": 0.6099346585,
				"z": 3.7442245768,
				"element": "C" 
			},
			{
				"x": -2.6920976163,
				"y": -0.5583727987,
				"z": 4.3950199428,
				"element": "C" 
			},
			{
				"x": -2.275353196,
				"y": -1.8212296727,
				"z": 3.9533277631,
				"element": "C" 
			},
			{
				"x": -1.4267875988,
				"y": -1.9573488388,
				"z": 2.8468747309,
				"element": "C" 
			},
			{
				"x": -0.8367994568,
				"y": 1.4881524506,
				"z": 1.7497103987,
				"element": "C" 
			},
			{
				"x": -0.9743096295,
				"y": 2.6944810887,
				"z": 1.76316139,
				"element": "O" 
			},
			{
				"x": -0.2209259858,
				"y": 0.9070061882,
				"z": -1.6078477479,
				"element": "C" 
			},
			{
				"x": 0.3798863966,
				"y": 1.0337961617,
				"z": -2.7885811946,
				"element": "O" 
			},
			{
				"x": -1.3568431096,
				"y": 0.5026762033,
				"z": -1.5094703129,
				"element": "O" 
			},
			{
				"x": 4.952823933,
				"y": -1.1106393313,
				"z": -1.4719216819,
				"element": "H" 
			},
			{
				"x": 4.9722246286,
				"y": -0.6069459954,
				"z": -3.1350055422,
				"element": "H" 
			},
			{
				"x": 2.2105393441,
				"y": -0.6481692449,
				"z": -0.5826054321,
				"element": "H" 
			},
			{
				"x": 3.6489317169,
				"y": 0.0845453648,
				"z": 0.1031589682,
				"element": "H" 
			},
			{
				"x": 2.3449351385,
				"y": 1.900742341,
				"z": 0.6382255271,
				"element": "H" 
			},
			{
				"x": 2.3524576904,
				"y": 2.2921464331,
				"z": -1.0656061449,
				"element": "H" 
			},
			{
				"x": 0.1680564629,
				"y": 2.4696145074,
				"z": -0.2488896953,
				"element": "H" 
			},
			{
				"x": -2.5936059544,
				"y": 1.592995692,
				"z": 4.0747387823,
				"element": "H" 
			},
			{
				"x": -3.3518229469,
				"y": -0.4866755789,
				"z": 5.2545377163,
				"element": "H" 
			},
			{
				"x": -2.619372265,
				"y": -2.7079135452,
				"z": 4.4773873924,
				"element": "H" 
			},
			{
				"x": -1.1008871207,
				"y": -2.9300681027,
				"z": 2.4932767609,
				"element": "H" 
			},
			{
				"x": 1.3619457259,
				"y": 1.1717912884,
				"z": -2.7661830303,
				"element": "H" 
			}
		],
		 "valence_orbital": [ 
			{
				"type": "occ",
				"energy": -0.28321,
				"method": "rhf"
			},
			{
				"type": "occ",
				"energy": -0.27785,
				"method": "rhf"
			},
			{
				"type": "occ",
				"energy": -0.27132,
				"method": "rhf"
			},
			{
				"type": "occ",
				"energy": -0.26833,
				"method": "rhf"
			},
			{
				"type": "occ",
				"energy": -0.25254,
				"method": "rhf"
			},
			{
				"type": "unocc",
				"energy": -0.08237,
				"method": "rhf"
			},
			{
				"type": "unocc",
				"energy": -0.04198,
				"method": "rhf"
			},
			{
				"type": "unocc",
				"energy": 0.00175,
				"method": "rhf"
			},
			{
				"type": "unocc",
				"energy": 0.02469,
				"method": "rhf"
			},
			{
				"type": "unocc",
				"energy": 0.02813,
				"method": "rhf"
			}
		],
		"cosmo_sigma_profile": { 
			"-0.025": 0.0,
			"-0.024": 0.0,
			"-0.023": 0.0,
			"-0.022": 0.0,
			"-0.021": 0.0,
			"-0.02": 0.0,
			"-0.019": 0.0,
			"-0.018": 0.0,
			"-0.017": 0.0,
			"-0.016": 0.0480539757335,
			"-0.015": 1.57523813211,
			"-0.014": 2.86833014576,
			"-0.013": 2.57722522491,
			"-0.012": 2.17689850085,
			"-0.011": 2.80977506605,
			"-0.01": 2.54455458067,
			"-0.009": 3.84111462643,
			"-0.008": 7.18705005837,
			"-0.007": 12.7953589554,
			"-0.006": 16.5642108029,
			"-0.005": 20.4312386548,
			"-0.004": 18.1808386927,
			"-0.003": 19.0083250238,
			"-0.002": 17.0262244882,
			"-0.001": 18.2455022282,
			"0.0": 17.5675728452,
			"0.001": 20.1029450563,
			"0.002": 19.1545075519,
			"0.003": 8.52638298819,
			"0.004": 8.00585467191,
			"0.005": 5.74953339977,
			"0.006": 6.00819017076,
			"0.007": 8.24645953777,
			"0.008": 7.1952608564,
			"0.009": 7.60485166759,
			"0.01": 10.8837849815,
			"0.011": 11.642337932,
			"0.012": 7.27501657664,
			"0.013": 3.59257799746,
			"0.014": 0.515635728622,
			"0.015": 0.0,
			"0.016": 0.0,
			"0.017": 0.0,
			"0.018": 0.0,
			"0.019": 0.0,
			"0.02": 0.0,
			"0.021": 0.0,
			"0.022": 0.0,
			"0.023": 0.0,
			"0.024": 0.0,
			"0.025": 0.0
		}
	}
}
