{
	 "smiles": "COC1=C(OC2OC(CO)C(O)C(O)C2O)C=CC(C=O)=C1", 
	 "Tm": 462.15, 
	 "num_atms": 40, 
	 "gaussian": { 
		 "optdone": 1, 
		 "sigma_profile": "yes", 
		 "theory": "DFT", 
		 "functional": "B3LYP", 
		 "basiset": "6-31G**", 
		 "properties": { 
			 "R2extent": 8562.0918, 
			 "electric_dipole_moment_norm": 2.64984266703, 
			 "electric_quadrupole_moment_norm": 12.1003356904, 
			 "total_energy": -1146.06979318, 
			 "HOMO_LUMO_gap": 0.17071, 
			 "cosmo_polarized_energy": -22.54, 
			 "cosmo_cavitation_energy": 40.76, 
			 "cosmo_dispersion_energy": -28.84, 
			 "cosmo_repulsion_energy": 2.14, 
			 "cosmo_total_nonelectrostatic_energy": 14.07, 
			 "SMD_solvation_energy": 7.87 
		},
		"coords": [
			{
				"x": 1.0121948638,
				"y": -1.4548135809,
				"z": 3.2954227879,
				"element": "C" 
			},
			{
				"x": 0.0946216329,
				"y": -1.1218513248,
				"z": 2.2567342029,
				"element": "O" 
			},
			{
				"x": -0.5029594448,
				"y": -2.1361888012,
				"z": 1.5613383881,
				"element": "C" 
			},
			{
				"x": -1.4437122399,
				"y": -1.7229141376,
				"z": 0.5827131454,
				"element": "C" 
			},
			{
				"x": -1.6784477325,
				"y": -0.3813365061,
				"z": 0.4937171827,
				"element": "O" 
			},
			{
				"x": -1.7671344912,
				"y": 0.2428190524,
				"z": -0.8082384859,
				"element": "C" 
			},
			{
				"x": -0.5632990758,
				"y": 0.8743105393,
				"z": -1.1361131221,
				"element": "O" 
			},
			{
				"x": -0.23700359,
				"y": 2.1535584024,
				"z": -0.555701128,
				"element": "C" 
			},
			{
				"x": 0.5078031787,
				"y": 2.0251953284,
				"z": 0.7795335529,
				"element": "C" 
			},
			{
				"x": -0.2787302557,
				"y": 1.6615469062,
				"z": 1.9059173645,
				"element": "O" 
			},
			{
				"x": -1.4228850651,
				"y": 3.133002048,
				"z": -0.5572267002,
				"element": "C" 
			},
			{
				"x": -1.5384982599,
				"y": 3.5848347176,
				"z": -1.9202232832,
				"element": "O" 
			},
			{
				"x": -2.7552225027,
				"y": 2.5028552935,
				"z": -0.0896687544,
				"element": "C" 
			},
			{
				"x": -2.848051271,
				"y": 2.3871817957,
				"z": 1.3059891164,
				"element": "O" 
			},
			{
				"x": -2.9885938664,
				"y": 1.1750098218,
				"z": -0.8476471083,
				"element": "C" 
			},
			{
				"x": -3.3220678848,
				"y": 1.4146190136,
				"z": -2.2073557945,
				"element": "O" 
			},
			{
				"x": -2.1165085113,
				"y": -2.6785460947,
				"z": -0.1787054417,
				"element": "C" 
			},
			{
				"x": -1.8487725369,
				"y": -4.0356611363,
				"z": 0.0066577739,
				"element": "C" 
			},
			{
				"x": -0.9199202492,
				"y": -4.441976417,
				"z": 0.965986363,
				"element": "C" 
			},
			{
				"x": -0.6376223299,
				"y": -5.8759444241,
				"z": 1.1703803564,
				"element": "C" 
			},
			{
				"x": 0.1537315724,
				"y": -6.3158597519,
				"z": 1.9851407919,
				"element": "O" 
			},
			{
				"x": -0.2485205554,
				"y": -3.48526089,
				"z": 1.7495466037,
				"element": "C" 
			},
			{
				"x": 1.8799657324,
				"y": -1.9946649396,
				"z": 2.8994281339,
				"element": "H" 
			},
			{
				"x": 0.5283975811,
				"y": -2.0595407816,
				"z": 4.0706481273,
				"element": "H" 
			},
			{
				"x": 1.3326221578,
				"y": -0.5026101204,
				"z": 3.7188730274,
				"element": "H" 
			},
			{
				"x": -1.8918636754,
				"y": -0.5311133788,
				"z": -1.5681895256,
				"element": "H" 
			},
			{
				"x": 0.4929479164,
				"y": 2.5693842132,
				"z": -1.260271778,
				"element": "H" 
			},
			{
				"x": 0.9541081517,
				"y": 3.000809362,
				"z": 1.006190227,
				"element": "H" 
			},
			{
				"x": 1.3253403269,
				"y": 1.3078569976,
				"z": 0.6354297794,
				"element": "H" 
			},
			{
				"x": -0.3754348058,
				"y": 0.6909596604,
				"z": 1.9011725379,
				"element": "H" 
			},
			{
				"x": -1.1819424944,
				"y": 3.9769303983,
				"z": 0.1044691702,
				"element": "H" 
			},
			{
				"x": -2.2412741592,
				"y": 4.2488108398,
				"z": -1.9512859044,
				"element": "H" 
			},
			{
				"x": -3.5673555642,
				"y": 3.1729280413,
				"z": -0.405429398,
				"element": "H" 
			},
			{
				"x": -1.9801494135,
				"y": 2.1017941312,
				"z": 1.6603893528,
				"element": "H" 
			},
			{
				"x": -3.8335449514,
				"y": 0.6551658668,
				"z": -0.3876927059,
				"element": "H" 
			},
			{
				"x": -2.641940543,
				"y": 2.0193252409,
				"z": -2.550089305,
				"element": "H" 
			},
			{
				"x": -2.8638951574,
				"y": -2.3611308352,
				"z": -0.8977446643,
				"element": "H" 
			},
			{
				"x": -2.3745693819,
				"y": -4.7783543475,
				"z": -0.5874085155,
				"element": "H" 
			},
			{
				"x": -1.2140889661,
				"y": -6.5591525438,
				"z": 0.5079581855,
				"element": "H" 
			},
			{
				"x": 0.4660758606,
				"y": -3.8424776589,
				"z": 2.4815554436,
				"element": "H" 
			}
		],
		 "valence_orbital": [ 
			{
				"type": "occ",
				"energy": -0.27369,
				"method": "rhf"
			},
			{
				"type": "occ",
				"energy": -0.26049,
				"method": "rhf"
			},
			{
				"type": "occ",
				"energy": -0.25655,
				"method": "rhf"
			},
			{
				"type": "occ",
				"energy": -0.24448,
				"method": "rhf"
			},
			{
				"type": "occ",
				"energy": -0.23379,
				"method": "rhf"
			},
			{
				"type": "unocc",
				"energy": -0.06308,
				"method": "rhf"
			},
			{
				"type": "unocc",
				"energy": -0.01312,
				"method": "rhf"
			},
			{
				"type": "unocc",
				"energy": 0.03993,
				"method": "rhf"
			},
			{
				"type": "unocc",
				"energy": 0.05171,
				"method": "rhf"
			},
			{
				"type": "unocc",
				"energy": 0.06088,
				"method": "rhf"
			}
		],
		"cosmo_sigma_profile": { 
			"-0.025": 0.0,
			"-0.024": 0.0,
			"-0.023": 0.0,
			"-0.022": 0.0,
			"-0.021": 0.0,
			"-0.02": 0.0,
			"-0.019": 0.0,
			"-0.018": 0.0,
			"-0.017": 0.351612518426,
			"-0.016": 1.22043184358,
			"-0.015": 1.0260792464,
			"-0.014": 1.55917206657,
			"-0.013": 0.960135823695,
			"-0.012": 0.822365721437,
			"-0.011": 0.700271843361,
			"-0.01": 1.2636438911,
			"-0.009": 2.33259120705,
			"-0.008": 5.14238250437,
			"-0.007": 13.2135957142,
			"-0.006": 29.5623948166,
			"-0.005": 28.2539309254,
			"-0.004": 22.1941332945,
			"-0.003": 21.2076056092,
			"-0.002": 18.8272012154,
			"-0.001": 19.0810456732,
			"0.0": 17.6413877081,
			"0.001": 21.5603166981,
			"0.002": 21.5210035638,
			"0.003": 15.571417632,
			"0.004": 8.72325289595,
			"0.005": 7.379777399,
			"0.006": 6.0014036101,
			"0.007": 7.32538450898,
			"0.008": 7.69723693916,
			"0.009": 5.53745802042,
			"0.01": 7.39443224015,
			"0.011": 9.84117507829,
			"0.012": 6.95916267956,
			"0.013": 4.65907894282,
			"0.014": 4.29408939787,
			"0.015": 0.992477220257,
			"0.016": 0.0,
			"0.017": 0.0,
			"0.018": 0.0,
			"0.019": 0.0,
			"0.02": 0.0,
			"0.021": 0.0,
			"0.022": 0.0,
			"0.023": 0.0,
			"0.024": 0.0,
			"0.025": 0.0
		}
	}
}
