{
	 "smiles": "CSC1=C(NC(C)=O)C=C(C=C1)C(=O)CCl", 
	 "Tm": 373.15, 
	 "num_atms": 28, 
	 "gaussian": { 
		 "optdone": 1, 
		 "sigma_profile": "yes", 
		 "theory": "DFT", 
		 "functional": "B3LYP", 
		 "basiset": "6-31G**", 
		 "properties": { 
			 "R2extent": 6811.881, 
			 "electric_dipole_moment_norm": 2.65504030478, 
			 "electric_quadrupole_moment_norm": 26.4355387029, 
			 "total_energy": -1489.99428054, 
			 "HOMO_LUMO_gap": 0.15862, 
			 "cosmo_polarized_energy": -19.67, 
			 "cosmo_cavitation_energy": 35.63, 
			 "cosmo_dispersion_energy": -25.07, 
			 "cosmo_repulsion_energy": 1.93, 
			 "cosmo_total_nonelectrostatic_energy": 12.49, 
			 "SMD_solvation_energy": 7.33 
		},
		"coords": [
			{
				"x": -0.0104029754,
				"y": 0.9521893083,
				"z": 2.7309569515,
				"element": "C" 
			},
			{
				"x": -1.6138143352,
				"y": 0.4033296191,
				"z": 2.0215807847,
				"element": "S" 
			},
			{
				"x": -1.0817075399,
				"y": -0.4065662342,
				"z": 0.5130625977,
				"element": "C" 
			},
			{
				"x": -0.6214510924,
				"y": 0.3376298158,
				"z": -0.6036950417,
				"element": "C" 
			},
			{
				"x": -0.5715104766,
				"y": 1.7360562521,
				"z": -0.5081642528,
				"element": "N" 
			},
			{
				"x": 0.3007699947,
				"y": 2.6885570826,
				"z": -1.0226876463,
				"element": "C" 
			},
			{
				"x": 1.4700472578,
				"y": 2.2391073291,
				"z": -1.8782181085,
				"element": "C" 
			},
			{
				"x": 0.1163622477,
				"y": 3.8648777283,
				"z": -0.7527557565,
				"element": "O" 
			},
			{
				"x": -0.300574745,
				"y": -0.3476257978,
				"z": -1.7838099526,
				"element": "C" 
			},
			{
				"x": -0.3930294627,
				"y": -1.7440705346,
				"z": -1.8594460034,
				"element": "C" 
			},
			{
				"x": -0.8475924741,
				"y": -2.4690391795,
				"z": -0.7502977523,
				"element": "C" 
			},
			{
				"x": -1.1976893123,
				"y": -1.7982435726,
				"z": 0.4155464082,
				"element": "C" 
			},
			{
				"x": -0.0470427711,
				"y": -2.5188310515,
				"z": -3.0990620036,
				"element": "C" 
			},
			{
				"x": -0.1420617416,
				"y": -3.7289575667,
				"z": -3.132203987,
				"element": "O" 
			},
			{
				"x": 0.4296493914,
				"y": -1.709920522,
				"z": -4.311547271,
				"element": "C" 
			},
			{
				"x": 0.8322849393,
				"y": -2.7294046017,
				"z": -5.7240031588,
				"element": "Cl" 
			},
			{
				"x": -0.253915974,
				"y": 1.4555464134,
				"z": 3.6691202166,
				"element": "H" 
			},
			{
				"x": 0.6297151346,
				"y": 0.0928828535,
				"z": 2.937067003,
				"element": "H" 
			},
			{
				"x": 0.4978407413,
				"y": 1.6555355468,
				"z": 2.0693362594,
				"element": "H" 
			},
			{
				"x": -1.2175366556,
				"y": 2.1395448631,
				"z": 0.1655589905,
				"element": "H" 
			},
			{
				"x": 1.1678000788,
				"y": 2.1656087845,
				"z": -2.9286443365,
				"element": "H" 
			},
			{
				"x": 2.2350976516,
				"y": 3.0128934623,
				"z": -1.807943534,
				"element": "H" 
			},
			{
				"x": 1.8825649628,
				"y": 1.2755478759,
				"z": -1.5698756993,
				"element": "H" 
			},
			{
				"x": -0.012610844,
				"y": 0.2287383014,
				"z": -2.6527660708,
				"element": "H" 
			},
			{
				"x": -0.9205943522,
				"y": -3.5478635094,
				"z": -0.8262491512,
				"element": "H" 
			},
			{
				"x": -1.5566756335,
				"y": -2.3507809093,
				"z": 1.2775929679,
				"element": "H" 
			},
			{
				"x": 1.3217986659,
				"y": -1.1348432707,
				"z": -4.0503381742,
				"element": "H" 
			},
			{
				"x": -0.3496206805,
				"y": -1.0073984862,
				"z": -4.6193142791,
				"element": "H" 
			}
		],
		 "valence_orbital": [ 
			{
				"type": "occ",
				"energy": -0.28474,
				"method": "rhf"
			},
			{
				"type": "occ",
				"energy": -0.27463,
				"method": "rhf"
			},
			{
				"type": "occ",
				"energy": -0.26815,
				"method": "rhf"
			},
			{
				"type": "occ",
				"energy": -0.2555,
				"method": "rhf"
			},
			{
				"type": "occ",
				"energy": -0.24108,
				"method": "rhf"
			},
			{
				"type": "unocc",
				"energy": -0.08246,
				"method": "rhf"
			},
			{
				"type": "unocc",
				"energy": -0.03648,
				"method": "rhf"
			},
			{
				"type": "unocc",
				"energy": -0.00104,
				"method": "rhf"
			},
			{
				"type": "unocc",
				"energy": 0.01173,
				"method": "rhf"
			},
			{
				"type": "unocc",
				"energy": 0.01947,
				"method": "rhf"
			}
		],
		"cosmo_sigma_profile": { 
			"-0.025": 0.0,
			"-0.024": 0.0,
			"-0.023": 0.0,
			"-0.022": 0.0,
			"-0.021": 0.0,
			"-0.02": 0.0,
			"-0.019": 0.0,
			"-0.018": 0.0,
			"-0.017": 0.0,
			"-0.016": 0.0,
			"-0.015": 0.0,
			"-0.014": 0.0,
			"-0.013": 0.0,
			"-0.012": 0.0,
			"-0.011": 0.113924633875,
			"-0.01": 4.45347127759,
			"-0.009": 9.62241008539,
			"-0.008": 6.77208472364,
			"-0.007": 9.34716735178,
			"-0.006": 14.9555718941,
			"-0.005": 18.4796980336,
			"-0.004": 22.5885745646,
			"-0.003": 19.1408339424,
			"-0.002": 24.5607379777,
			"-0.001": 20.7695984504,
			"0.0": 17.7352116845,
			"0.001": 19.2475646703,
			"0.002": 16.488211912,
			"0.003": 12.1235086988,
			"0.004": 10.7470490863,
			"0.005": 11.5751940025,
			"0.006": 11.2535158457,
			"0.007": 5.94811827209,
			"0.008": 4.25727488526,
			"0.009": 4.00388435037,
			"0.01": 5.06548417296,
			"0.011": 4.98390866245,
			"0.012": 4.95465978965,
			"0.013": 6.14630595012,
			"0.014": 2.30153572803,
			"0.015": 0.157054572953,
			"0.016": 0.0,
			"0.017": 0.0,
			"0.018": 0.0,
			"0.019": 0.0,
			"0.02": 0.0,
			"0.021": 0.0,
			"0.022": 0.0,
			"0.023": 0.0,
			"0.024": 0.0,
			"0.025": 0.0
		}
	}
}
