{
	 "smiles": "CN(C)C(=O)C1=CC(=CC=C1)[N+]([O-])=O", 
	 "Tm": 353.15, 
	 "num_atms": 24, 
	 "gaussian": { 
		 "optdone": 1, 
		 "sigma_profile": "yes", 
		 "theory": "DFT", 
		 "functional": "B3LYP", 
		 "basiset": "6-31G**", 
		 "properties": { 
			 "R2extent": 3371.1902, 
			 "electric_dipole_moment_norm": 3.53979536132, 
			 "electric_quadrupole_moment_norm": 24.848880775, 
			 "total_energy": -684.066934189, 
			 "HOMO_LUMO_gap": 0.1546, 
			 "cosmo_polarized_energy": -13.18, 
			 "cosmo_cavitation_energy": 28.63, 
			 "cosmo_dispersion_energy": -20.44, 
			 "cosmo_repulsion_energy": 1.61, 
			 "cosmo_total_nonelectrostatic_energy": 9.81, 
			 "SMD_solvation_energy": 7.82 
		},
		"coords": [
			{
				"x": 1.3884220989,
				"y": 2.3125334469,
				"z": 0.3175509616,
				"element": "C" 
			},
			{
				"x": -0.003865492,
				"y": 2.1183862072,
				"z": 0.7033603779,
				"element": "N" 
			},
			{
				"x": -0.6658609474,
				"y": 3.3015642812,
				"z": 1.2412116031,
				"element": "C" 
			},
			{
				"x": -0.617419293,
				"y": 0.9026345545,
				"z": 0.8848100104,
				"element": "C" 
			},
			{
				"x": -1.6490794072,
				"y": 0.7765124291,
				"z": 1.5414663264,
				"element": "O" 
			},
			{
				"x": -0.0350179716,
				"y": -0.3158047789,
				"z": 0.2087871977,
				"element": "C" 
			},
			{
				"x": 0.4183950796,
				"y": -0.3079477177,
				"z": -1.1131988796,
				"element": "C" 
			},
			{
				"x": 0.8270516306,
				"y": -1.5073000747,
				"z": -1.692820985,
				"element": "C" 
			},
			{
				"x": 0.8052522066,
				"y": -2.7162614173,
				"z": -1.001618994,
				"element": "C" 
			},
			{
				"x": 0.3393997354,
				"y": -2.7173232785,
				"z": 0.3127074081,
				"element": "C" 
			},
			{
				"x": -0.091671741,
				"y": -1.531881958,
				"z": 0.9067622369,
				"element": "C" 
			},
			{
				"x": 1.298880652,
				"y": -1.4926650228,
				"z": -3.0883865284,
				"element": "N" 
			},
			{
				"x": 1.6537860236,
				"y": -2.5620840427,
				"z": -3.581575717,
				"element": "O" 
			},
			{
				"x": 1.3131270408,
				"y": -0.4104690229,
				"z": -3.6744930012,
				"element": "O" 
			},
			{
				"x": 1.8863786915,
				"y": 1.3588322903,
				"z": 0.1544960414,
				"element": "H" 
			},
			{
				"x": 1.9225912444,
				"y": 2.8416518364,
				"z": 1.1172919507,
				"element": "H" 
			},
			{
				"x": 1.4681081373,
				"y": 2.9131813711,
				"z": -0.5970664783,
				"element": "H" 
			},
			{
				"x": -0.2211321022,
				"y": 3.6053489479,
				"z": 2.1984102637,
				"element": "H" 
			},
			{
				"x": -0.56303106,
				"y": 4.1305479944,
				"z": 0.5327445741,
				"element": "H" 
			},
			{
				"x": -1.7184836973,
				"y": 3.0760170845,
				"z": 1.4012806839,
				"element": "H" 
			},
			{
				"x": 0.4420500067,
				"y": 0.5969637701,
				"z": -1.7067860938,
				"element": "H" 
			},
			{
				"x": 1.1385529553,
				"y": -3.6196787795,
				"z": -1.49659096,
				"element": "H" 
			},
			{
				"x": 0.3027560979,
				"y": -3.6482244782,
				"z": 0.8694249691,
				"element": "H" 
			},
			{
				"x": -0.491489889,
				"y": -1.5298336424,
				"z": 1.9151330325,
				"element": "H" 
			}
		],
		 "valence_orbital": [ 
			{
				"type": "occ",
				"energy": -0.29568,
				"method": "rhf"
			},
			{
				"type": "occ",
				"energy": -0.28937,
				"method": "rhf"
			},
			{
				"type": "occ",
				"energy": -0.2842,
				"method": "rhf"
			},
			{
				"type": "occ",
				"energy": -0.2599,
				"method": "rhf"
			},
			{
				"type": "occ",
				"energy": -0.24827,
				"method": "rhf"
			},
			{
				"type": "unocc",
				"energy": -0.09367,
				"method": "rhf"
			},
			{
				"type": "unocc",
				"energy": -0.04862,
				"method": "rhf"
			},
			{
				"type": "unocc",
				"energy": -0.00915,
				"method": "rhf"
			},
			{
				"type": "unocc",
				"energy": 0.03862,
				"method": "rhf"
			},
			{
				"type": "unocc",
				"energy": 0.0746,
				"method": "rhf"
			}
		],
		"cosmo_sigma_profile": { 
			"-0.025": 0.0,
			"-0.024": 0.0,
			"-0.023": 0.0,
			"-0.022": 0.0,
			"-0.021": 0.0,
			"-0.02": 0.0,
			"-0.019": 0.0,
			"-0.018": 0.0,
			"-0.017": 0.0,
			"-0.016": 0.0,
			"-0.015": 0.0,
			"-0.014": 0.0,
			"-0.013": 0.0,
			"-0.012": 0.0,
			"-0.011": 0.0,
			"-0.01": 0.0,
			"-0.009": 0.0362206481483,
			"-0.008": 2.01317342956,
			"-0.007": 7.20322328406,
			"-0.006": 10.4969637933,
			"-0.005": 22.1979671386,
			"-0.004": 24.6250571001,
			"-0.003": 24.6569189719,
			"-0.002": 25.2859858871,
			"-0.001": 17.1133372029,
			"0.0": 14.8413805056,
			"0.001": 13.7786706604,
			"0.002": 8.33396731608,
			"0.003": 4.5107433226,
			"0.004": 4.01183090368,
			"0.005": 4.93429174656,
			"0.006": 5.79173948087,
			"0.007": 10.1300745424,
			"0.008": 8.45503892773,
			"0.009": 5.23426530315,
			"0.01": 3.61176719629,
			"0.011": 2.08220909727,
			"0.012": 2.03627198029,
			"0.013": 4.11908616193,
			"0.014": 2.68322748855,
			"0.015": 0.0658616277564,
			"0.016": 0.0,
			"0.017": 0.0,
			"0.018": 0.0,
			"0.019": 0.0,
			"0.02": 0.0,
			"0.021": 0.0,
			"0.022": 0.0,
			"0.023": 0.0,
			"0.024": 0.0,
			"0.025": 0.0
		}
	}
}
