{
	 "smiles": "CCOC1=CC2=CC=NC(CC3=CC(OCC)=C(OCC)C=C3)=C2C=C1OCC", 
	 "Tm": 373.15, 
	 "num_atms": 58, 
	 "gaussian": { 
		 "optdone": 1, 
		 "sigma_profile": "yes", 
		 "theory": "DFT", 
		 "functional": "B3LYP", 
		 "basiset": "6-31G**", 
		 "properties": { 
			 "R2extent": 15755.5887, 
			 "electric_dipole_moment_norm": 1.74563419421, 
			 "electric_quadrupole_moment_norm": 19.2555750768, 
			 "total_energy": -1287.6658541, 
			 "HOMO_LUMO_gap": 0.15881, 
			 "cosmo_polarized_energy": -14.37, 
			 "cosmo_cavitation_energy": 60.2, 
			 "cosmo_dispersion_energy": -39.58, 
			 "cosmo_repulsion_energy": 3.1, 
			 "cosmo_total_nonelectrostatic_energy": 23.72, 
			 "SMD_solvation_energy": 9.79 
		},
		"coords": [
			{
				"x": 4.6930145002,
				"y": 2.4997552039,
				"z": 4.2663458413,
				"element": "C" 
			},
			{
				"x": 3.5683757108,
				"y": 2.0949046727,
				"z": 3.3317480777,
				"element": "C" 
			},
			{
				"x": 3.7864661286,
				"y": 2.7622960448,
				"z": 2.0692899304,
				"element": "O" 
			},
			{
				"x": 2.8579698063,
				"y": 2.4914924686,
				"z": 1.0949275095,
				"element": "C" 
			},
			{
				"x": 1.98142831,
				"y": 3.478128483,
				"z": 0.7037996701,
				"element": "C" 
			},
			{
				"x": 1.0216048275,
				"y": 3.2433891984,
				"z": -0.3137190462,
				"element": "C" 
			},
			{
				"x": 0.0927335545,
				"y": 4.2282016621,
				"z": -0.7362219086,
				"element": "C" 
			},
			{
				"x": -0.8166337033,
				"y": 3.9081088258,
				"z": -1.713716759,
				"element": "C" 
			},
			{
				"x": -0.8766874895,
				"y": 2.6938736215,
				"z": -2.3234059022,
				"element": "N" 
			},
			{
				"x": -0.0234274367,
				"y": 1.7501488117,
				"z": -1.9567086701,
				"element": "C" 
			},
			{
				"x": -0.1588327113,
				"y": 0.4213304088,
				"z": -2.6802198338,
				"element": "C" 
			},
			{
				"x": -0.912436229,
				"y": -0.6411251043,
				"z": -1.8907901251,
				"element": "C" 
			},
			{
				"x": -2.190544257,
				"y": -0.3523986638,
				"z": -1.3844276189,
				"element": "C" 
			},
			{
				"x": -2.9148731932,
				"y": -1.3106433593,
				"z": -0.6735195556,
				"element": "C" 
			},
			{
				"x": -4.1522474397,
				"y": -1.1021762918,
				"z": -0.1340857643,
				"element": "O" 
			},
			{
				"x": -4.7430172594,
				"y": 0.1910350321,
				"z": -0.2616024612,
				"element": "C" 
			},
			{
				"x": -6.0814552853,
				"y": 0.1556370502,
				"z": 0.4553421969,
				"element": "C" 
			},
			{
				"x": -2.3584886392,
				"y": -2.5961192562,
				"z": -0.4704811046,
				"element": "C" 
			},
			{
				"x": -3.012141858,
				"y": -3.5506065135,
				"z": 0.2716107284,
				"element": "O" 
			},
			{
				"x": -4.1757725794,
				"y": -4.1341607243,
				"z": -0.3365317161,
				"element": "C" 
			},
			{
				"x": -4.7340518393,
				"y": -5.1587906848,
				"z": 0.6348116487,
				"element": "C" 
			},
			{
				"x": -1.0946083363,
				"y": -2.8759364402,
				"z": -0.976181343,
				"element": "C" 
			},
			{
				"x": -0.3688939155,
				"y": -1.9072955721,
				"z": -1.6773702672,
				"element": "C" 
			},
			{
				"x": 0.9605679578,
				"y": 1.9560112772,
				"z": -0.9328645378,
				"element": "C" 
			},
			{
				"x": 1.8839758267,
				"y": 0.9586366079,
				"z": -0.5221926883,
				"element": "C" 
			},
			{
				"x": 2.8211840509,
				"y": 1.2103373144,
				"z": 0.4555631478,
				"element": "C" 
			},
			{
				"x": 3.6718542227,
				"y": 0.2077493704,
				"z": 0.8548001678,
				"element": "O" 
			},
			{
				"x": 5.0681629587,
				"y": 0.3883959722,
				"z": 0.5256002109,
				"element": "C" 
			},
			{
				"x": 5.3555213194,
				"y": 0.075871924,
				"z": -0.9365854704,
				"element": "C" 
			},
			{
				"x": 4.7156207961,
				"y": 3.5853780601,
				"z": 4.3979295201,
				"element": "H" 
			},
			{
				"x": 5.6617121345,
				"y": 2.1814301225,
				"z": 3.8701118849,
				"element": "H" 
			},
			{
				"x": 4.5513931455,
				"y": 2.0338123927,
				"z": 5.2465447524,
				"element": "H" 
			},
			{
				"x": 2.5933164623,
				"y": 2.4063489527,
				"z": 3.7306883786,
				"element": "H" 
			},
			{
				"x": 3.5461664309,
				"y": 1.0110335774,
				"z": 3.1762431467,
				"element": "H" 
			},
			{
				"x": 2.0314214759,
				"y": 4.4443119014,
				"z": 1.1967525588,
				"element": "H" 
			},
			{
				"x": 0.1048412937,
				"y": 5.2174470214,
				"z": -0.2877879984,
				"element": "H" 
			},
			{
				"x": -1.5451777683,
				"y": 4.6397954464,
				"z": -2.056370598,
				"element": "H" 
			},
			{
				"x": 0.8270628107,
				"y": 0.0327256695,
				"z": -2.9561492928,
				"element": "H" 
			},
			{
				"x": -0.6941639367,
				"y": 0.6349902436,
				"z": -3.610764662,
				"element": "H" 
			},
			{
				"x": -2.6012778069,
				"y": 0.636344615,
				"z": -1.5524350436,
				"element": "H" 
			},
			{
				"x": -4.0805576061,
				"y": 0.9474365257,
				"z": 0.1813010523,
				"element": "H" 
			},
			{
				"x": -4.8732945439,
				"y": 0.4418314251,
				"z": -1.3237543631,
				"element": "H" 
			},
			{
				"x": -6.7429053889,
				"y": -0.5901510396,
				"z": 0.005098889,
				"element": "H" 
			},
			{
				"x": -5.9463587789,
				"y": -0.0963302099,
				"z": 1.5108304386,
				"element": "H" 
			},
			{
				"x": -6.5680484386,
				"y": 1.1337452037,
				"z": 0.3902579183,
				"element": "H" 
			},
			{
				"x": -4.9145243194,
				"y": -3.3547171919,
				"z": -0.552811978,
				"element": "H" 
			},
			{
				"x": -3.8888056934,
				"y": -4.6086589939,
				"z": -1.2864141295,
				"element": "H" 
			},
			{
				"x": -3.9895894986,
				"y": -5.9296528309,
				"z": 0.8547059981,
				"element": "H" 
			},
			{
				"x": -5.6195838269,
				"y": -5.6415717188,
				"z": 0.2089753981,
				"element": "H" 
			},
			{
				"x": -5.0186399316,
				"y": -4.6785377327,
				"z": 1.5754570733,
				"element": "H" 
			},
			{
				"x": -0.684734359,
				"y": -3.8651973028,
				"z": -0.7976134382,
				"element": "H" 
			},
			{
				"x": 0.6167995518,
				"y": -2.1499663949,
				"z": -2.0658066754,
				"element": "H" 
			},
			{
				"x": 1.8631243965,
				"y": -0.0327362377,
				"z": -0.9577622801,
				"element": "H" 
			},
			{
				"x": 5.5964385841,
				"y": -0.3095454156,
				"z": 1.1815441953,
				"element": "H" 
			},
			{
				"x": 5.3792153193,
				"y": 1.4049057877,
				"z": 0.7871143305,
				"element": "H" 
			},
			{
				"x": 5.0563417347,
				"y": -0.9478713391,
				"z": -1.1805868508,
				"element": "H" 
			},
			{
				"x": 6.4273005233,
				"y": 0.179974355,
				"z": -1.1376647839,
				"element": "H" 
			},
			{
				"x": 4.8192602356,
				"y": 0.7604737687,
				"z": -1.6005477986,
				"element": "H" 
			}
		],
		 "valence_orbital": [ 
			{
				"type": "occ",
				"energy": -0.24789,
				"method": "rhf"
			},
			{
				"type": "occ",
				"energy": -0.23989,
				"method": "rhf"
			},
			{
				"type": "occ",
				"energy": -0.22919,
				"method": "rhf"
			},
			{
				"type": "occ",
				"energy": -0.21675,
				"method": "rhf"
			},
			{
				"type": "occ",
				"energy": -0.20416,
				"method": "rhf"
			},
			{
				"type": "unocc",
				"energy": -0.04535,
				"method": "rhf"
			},
			{
				"type": "unocc",
				"energy": -0.0162,
				"method": "rhf"
			},
			{
				"type": "unocc",
				"energy": 0.00933,
				"method": "rhf"
			},
			{
				"type": "unocc",
				"energy": 0.01873,
				"method": "rhf"
			},
			{
				"type": "unocc",
				"energy": 0.03146,
				"method": "rhf"
			}
		],
		"cosmo_sigma_profile": { 
			"-0.025": 0.0,
			"-0.024": 0.0,
			"-0.023": 0.0,
			"-0.022": 0.0,
			"-0.021": 0.0,
			"-0.02": 0.0,
			"-0.019": 0.0,
			"-0.018": 0.0,
			"-0.017": 0.0,
			"-0.016": 0.0,
			"-0.015": 0.0,
			"-0.014": 0.0,
			"-0.013": 0.0,
			"-0.012": 0.0,
			"-0.011": 0.0,
			"-0.01": 0.0,
			"-0.009": 0.0,
			"-0.008": 0.170269711332,
			"-0.007": 3.49855175357,
			"-0.006": 10.3697432008,
			"-0.005": 19.8224618092,
			"-0.004": 42.649025201,
			"-0.003": 60.0007503269,
			"-0.002": 56.7377468338,
			"-0.001": 51.3436996655,
			"0.0": 52.4263284545,
			"0.001": 37.8853631361,
			"0.002": 32.3031966547,
			"0.003": 34.0699562449,
			"0.004": 18.8654966452,
			"0.005": 14.7737143219,
			"0.006": 9.81988572501,
			"0.007": 5.11748748408,
			"0.008": 4.9911110825,
			"0.009": 4.0116017839,
			"0.01": 5.50609829484,
			"0.011": 5.03584963559,
			"0.012": 2.60974660538,
			"0.013": 0.559697713668,
			"0.014": 0.695049539522,
			"0.015": 0.910378256301,
			"0.016": 0.309868159321,
			"0.017": 0.078116331523,
			"0.018": 0.0,
			"0.019": 0.0,
			"0.02": 0.0,
			"0.021": 0.0,
			"0.022": 0.0,
			"0.023": 0.0,
			"0.024": 0.0,
			"0.025": 0.0
		}
	}
}
