{
	 "smiles": "ClC1=C2C(=O)NNC2=CC=C1", 
	 "Tm": 521.15, 
	 "num_atms": 16, 
	 "gaussian": { 
		 "optdone": 1, 
		 "sigma_profile": "yes", 
		 "theory": "DFT", 
		 "functional": "B3LYP", 
		 "basiset": "6-31G**", 
		 "properties": { 
			 "R2extent": 2050.9745, 
			 "electric_dipole_moment_norm": 5.37566776596, 
			 "electric_quadrupole_moment_norm": 11.4026803836, 
			 "total_energy": -914.655553216, 
			 "HOMO_LUMO_gap": 0.17705, 
			 "cosmo_polarized_energy": -16.59, 
			 "cosmo_cavitation_energy": 22.25, 
			 "cosmo_dispersion_energy": -16.98, 
			 "cosmo_repulsion_energy": 1.36, 
			 "cosmo_total_nonelectrostatic_energy": 6.63, 
			 "SMD_solvation_energy": 3.98 
		},
		"coords": [
			{
				"x": -0.3484225241,
				"y": -0.6105286378,
				"z": 2.1126178949,
				"element": "Cl" 
			},
			{
				"x": 0.337741259,
				"y": -0.8722979637,
				"z": 0.5287454036,
				"element": "C" 
			},
			{
				"x": 1.0486791417,
				"y": 0.1408557635,
				"z": -0.1223582144,
				"element": "C" 
			},
			{
				"x": 1.3953282071,
				"y": 1.5292772005,
				"z": 0.2482171261,
				"element": "C" 
			},
			{
				"x": 1.0693800084,
				"y": 2.2196377016,
				"z": 1.1956991493,
				"element": "O" 
			},
			{
				"x": 2.2317815839,
				"y": 1.9664954652,
				"z": -0.7999336252,
				"element": "N" 
			},
			{
				"x": 2.1858970207,
				"y": 1.0621248539,
				"z": -1.8990254629,
				"element": "N" 
			},
			{
				"x": 1.5726764241,
				"y": -0.097332232,
				"z": -1.4009480522,
				"element": "C" 
			},
			{
				"x": 1.4500617878,
				"y": -1.3346651848,
				"z": -2.037708256,
				"element": "C" 
			},
			{
				"x": 0.7497551651,
				"y": -2.3283446226,
				"z": -1.360007614,
				"element": "C" 
			},
			{
				"x": 0.1882426389,
				"y": -2.1096757672,
				"z": -0.0910836329,
				"element": "C" 
			},
			{
				"x": 2.14559707,
				"y": 2.9420232308,
				"z": -1.0615586302,
				"element": "H" 
			},
			{
				"x": 3.1212619331,
				"y": 0.9045901366,
				"z": -2.2686152241,
				"element": "H" 
			},
			{
				"x": 1.8696056728,
				"y": -1.5095116969,
				"z": -3.0230760826,
				"element": "H" 
			},
			{
				"x": 0.624935106,
				"y": -3.3019455883,
				"z": -1.8246366395,
				"element": "H" 
			},
			{
				"x": -0.3596204944,
				"y": -2.8987026587,
				"z": 0.4108718601,
				"element": "H" 
			}
		],
		 "valence_orbital": [ 
			{
				"type": "occ",
				"energy": -0.31203,
				"method": "rhf"
			},
			{
				"type": "occ",
				"energy": -0.2805,
				"method": "rhf"
			},
			{
				"type": "occ",
				"energy": -0.2613,
				"method": "rhf"
			},
			{
				"type": "occ",
				"energy": -0.25507,
				"method": "rhf"
			},
			{
				"type": "occ",
				"energy": -0.22627,
				"method": "rhf"
			},
			{
				"type": "unocc",
				"energy": -0.04922,
				"method": "rhf"
			},
			{
				"type": "unocc",
				"energy": -0.01518,
				"method": "rhf"
			},
			{
				"type": "unocc",
				"energy": 0.03235,
				"method": "rhf"
			},
			{
				"type": "unocc",
				"energy": 0.049,
				"method": "rhf"
			},
			{
				"type": "unocc",
				"energy": 0.07446,
				"method": "rhf"
			}
		],
		"cosmo_sigma_profile": { 
			"-0.025": 0.0,
			"-0.024": 0.0,
			"-0.023": 0.0,
			"-0.022": 0.0,
			"-0.021": 0.0,
			"-0.02": 0.0,
			"-0.019": 0.0,
			"-0.018": 0.0,
			"-0.017": 0.0,
			"-0.016": 0.688202616568,
			"-0.015": 2.8052552708,
			"-0.014": 2.63925859204,
			"-0.013": 2.69801387388,
			"-0.012": 1.67751320962,
			"-0.011": 1.52901059814,
			"-0.01": 2.58812461848,
			"-0.009": 2.95904741038,
			"-0.008": 3.64551051483,
			"-0.007": 8.16236849036,
			"-0.006": 8.09125641767,
			"-0.005": 7.72498630166,
			"-0.004": 5.0460116499,
			"-0.003": 7.85403194879,
			"-0.002": 7.52349334272,
			"-0.001": 8.69841880042,
			"0.0": 12.465569418,
			"0.001": 17.1725664747,
			"0.002": 17.6680935761,
			"0.003": 14.7132817987,
			"0.004": 11.2542151243,
			"0.005": 5.07352744061,
			"0.006": 3.99736942243,
			"0.007": 2.53798705817,
			"0.008": 3.19417138878,
			"0.009": 1.88368909781,
			"0.01": 2.1411393758,
			"0.011": 2.43629340999,
			"0.012": 3.1747049218,
			"0.013": 6.71617917203,
			"0.014": 2.09232489953,
			"0.015": 0.0,
			"0.016": 0.0,
			"0.017": 0.0,
			"0.018": 0.0,
			"0.019": 0.0,
			"0.02": 0.0,
			"0.021": 0.0,
			"0.022": 0.0,
			"0.023": 0.0,
			"0.024": 0.0,
			"0.025": 0.0
		}
	}
}
