{
	 "smiles": "NC1=NC=C(CC2=CC(F)=CC=C2)S1", 
	 "Tm": 356.15, 
	 "num_atms": 23, 
	 "gaussian": { 
		 "optdone": 1, 
		 "sigma_profile": "yes", 
		 "theory": "DFT", 
		 "functional": "B3LYP", 
		 "basiset": "6-31G**", 
		 "properties": { 
			 "R2extent": 4010.1576, 
			 "electric_dipole_moment_norm": 1.48426275302, 
			 "electric_quadrupole_moment_norm": 15.4881671052, 
			 "total_energy": -994.010742175, 
			 "HOMO_LUMO_gap": 0.19454, 
			 "cosmo_polarized_energy": -11.85, 
			 "cosmo_cavitation_energy": 29.75, 
			 "cosmo_dispersion_energy": -21.57, 
			 "cosmo_repulsion_energy": 1.65, 
			 "cosmo_total_nonelectrostatic_energy": 9.83, 
			 "SMD_solvation_energy": 3.36 
		},
		"coords": [
			{
				"x": -0.2532900992,
				"y": -0.2859180415,
				"z": -3.8125474543,
				"element": "N" 
			},
			{
				"x": -0.7752120401,
				"y": -0.3949181107,
				"z": -2.5421893799,
				"element": "C" 
			},
			{
				"x": -2.0494609081,
				"y": -0.4313898319,
				"z": -2.2798113673,
				"element": "N" 
			},
			{
				"x": -2.2540931121,
				"y": -0.6235277478,
				"z": -0.9290069204,
				"element": "C" 
			},
			{
				"x": -1.1570380878,
				"y": -0.7289148391,
				"z": -0.1281528784,
				"element": "C" 
			},
			{
				"x": -1.0893447948,
				"y": -0.928501667,
				"z": 1.3579833852,
				"element": "C" 
			},
			{
				"x": -0.4616539872,
				"y": 0.2170833596,
				"z": 2.1420954916,
				"element": "C" 
			},
			{
				"x": -0.8799962158,
				"y": 1.5360907523,
				"z": 1.9245383123,
				"element": "C" 
			},
			{
				"x": -0.3166602302,
				"y": 2.5588732591,
				"z": 2.6746778301,
				"element": "C" 
			},
			{
				"x": -0.7285568996,
				"y": 3.8268842845,
				"z": 2.4576468127,
				"element": "F" 
			},
			{
				"x": 0.6572157353,
				"y": 2.3268135716,
				"z": 3.6410671926,
				"element": "C" 
			},
			{
				"x": 1.0719865314,
				"y": 1.0125515408,
				"z": 3.8514844757,
				"element": "C" 
			},
			{
				"x": 0.5190201757,
				"y": -0.0338508126,
				"z": 3.108929191,
				"element": "C" 
			},
			{
				"x": 0.2848478073,
				"y": -0.5946274338,
				"z": -1.1379004394,
				"element": "S" 
			},
			{
				"x": 0.6333893479,
				"y": 0.1899876873,
				"z": -3.9006192376,
				"element": "H" 
			},
			{
				"x": -0.9437129192,
				"y": 0.0092229539,
				"z": -4.4911724245,
				"element": "H" 
			},
			{
				"x": -3.2730062668,
				"y": -0.6781906306,
				"z": -0.5591506113,
				"element": "H" 
			},
			{
				"x": -2.1204218827,
				"y": -1.080135292,
				"z": 1.7043199228,
				"element": "H" 
			},
			{
				"x": -0.5518054633,
				"y": -1.8544984102,
				"z": 1.5966779387,
				"element": "H" 
			},
			{
				"x": -1.6278964003,
				"y": 1.7710370704,
				"z": 1.1741243562,
				"element": "H" 
			},
			{
				"x": 1.0701922596,
				"y": 3.1591334162,
				"z": 4.2002922989,
				"element": "H" 
			},
			{
				"x": 1.8336643441,
				"y": 0.8035667327,
				"z": 4.596917834,
				"element": "H" 
			},
			{
				"x": 0.8519331058,
				"y": -1.0535718112,
				"z": 3.2821956711,
				"element": "H" 
			}
		],
		 "valence_orbital": [ 
			{
				"type": "occ",
				"energy": -0.27284,
				"method": "rhf"
			},
			{
				"type": "occ",
				"energy": -0.27018,
				"method": "rhf"
			},
			{
				"type": "occ",
				"energy": -0.25177,
				"method": "rhf"
			},
			{
				"type": "occ",
				"energy": -0.24189,
				"method": "rhf"
			},
			{
				"type": "occ",
				"energy": -0.2076,
				"method": "rhf"
			},
			{
				"type": "unocc",
				"energy": -0.01306,
				"method": "rhf"
			},
			{
				"type": "unocc",
				"energy": -0.00536,
				"method": "rhf"
			},
			{
				"type": "unocc",
				"energy": 0.00479,
				"method": "rhf"
			},
			{
				"type": "unocc",
				"energy": 0.01432,
				"method": "rhf"
			},
			{
				"type": "unocc",
				"energy": 0.06628,
				"method": "rhf"
			}
		],
		"cosmo_sigma_profile": { 
			"-0.025": 0.0,
			"-0.024": 0.0,
			"-0.023": 0.0,
			"-0.022": 0.0,
			"-0.021": 0.0,
			"-0.02": 0.0,
			"-0.019": 0.0,
			"-0.018": 0.0,
			"-0.017": 0.0,
			"-0.016": 0.0,
			"-0.015": 0.172170309773,
			"-0.014": 1.47630552255,
			"-0.013": 2.97571429722,
			"-0.012": 2.26316075855,
			"-0.011": 2.42413553817,
			"-0.01": 2.79187085693,
			"-0.009": 2.01431437873,
			"-0.008": 2.2780644482,
			"-0.007": 4.06991168228,
			"-0.006": 13.3201026851,
			"-0.005": 14.6994647137,
			"-0.004": 15.0681909195,
			"-0.003": 13.7912499344,
			"-0.002": 14.5301159001,
			"-0.001": 11.6113020204,
			"0.0": 12.8151237016,
			"0.001": 18.2890439544,
			"0.002": 20.151838195,
			"0.003": 20.5680179414,
			"0.004": 28.2783515068,
			"0.005": 17.7954180092,
			"0.006": 3.35817431601,
			"0.007": 2.59019362376,
			"0.008": 1.51071217374,
			"0.009": 1.97207042105,
			"0.01": 2.33966211635,
			"0.011": 1.70456540656,
			"0.012": 1.38420373264,
			"0.013": 1.23589376068,
			"0.014": 0.93664831699,
			"0.015": 0.871767131325,
			"0.016": 0.545390725976,
			"0.017": 0.0,
			"0.018": 0.0,
			"0.019": 0.0,
			"0.02": 0.0,
			"0.021": 0.0,
			"0.022": 0.0,
			"0.023": 0.0,
			"0.024": 0.0,
			"0.025": 0.0
		}
	}
}
