{
	 "smiles": "CC1=CC=C(CN2C=C(C(O)=O)C(=N2)C2=CC=C(C)C=C2)C=C1", 
	 "Tm": 290.15, 
	 "num_atms": 41, 
	 "gaussian": { 
		 "optdone": 1, 
		 "sigma_profile": "yes", 
		 "theory": "DFT", 
		 "functional": "B3LYP", 
		 "basiset": "6-31G**", 
		 "properties": { 
			 "R2extent": 10225.4352, 
			 "electric_dipole_moment_norm": 5.45054926957, 
			 "electric_quadrupole_moment_norm": 24.718197352, 
			 "total_energy": -994.833119013, 
			 "HOMO_LUMO_gap": 0.18896, 
			 "cosmo_polarized_energy": -20.14, 
			 "cosmo_cavitation_energy": 45.47, 
			 "cosmo_dispersion_energy": -31.87, 
			 "cosmo_repulsion_energy": 2.44, 
			 "cosmo_total_nonelectrostatic_energy": 16.04, 
			 "SMD_solvation_energy": 7.92 
		},
		"coords": [
			{
				"x": 0.2874728307,
				"y": -6.2892591868,
				"z": 2.1079028819,
				"element": "C" 
			},
			{
				"x": 0.8554625385,
				"y": -5.0963149107,
				"z": 1.3760994777,
				"element": "C" 
			},
			{
				"x": 0.602150938,
				"y": -3.7911268884,
				"z": 1.8287180492,
				"element": "C" 
			},
			{
				"x": 1.1084246931,
				"y": -2.6829263646,
				"z": 1.1571905248,
				"element": "C" 
			},
			{
				"x": 1.8846751506,
				"y": -2.8485861692,
				"z": 0.0010826986,
				"element": "C" 
			},
			{
				"x": 2.4529622365,
				"y": -1.6460813845,
				"z": -0.7272958497,
				"element": "C" 
			},
			{
				"x": 1.4348017815,
				"y": -0.6870141293,
				"z": -1.1583265682,
				"element": "N" 
			},
			{
				"x": 0.6441204515,
				"y": -0.746980498,
				"z": -2.2475992449,
				"element": "C" 
			},
			{
				"x": -0.2605671417,
				"y": 0.3077472864,
				"z": -2.1605219846,
				"element": "C" 
			},
			{
				"x": -1.2970685434,
				"y": 0.5789949635,
				"z": -3.1818932391,
				"element": "C" 
			},
			{
				"x": -0.946078199,
				"y": 0.2236377696,
				"z": -4.4551754061,
				"element": "O" 
			},
			{
				"x": -2.4001053526,
				"y": 1.0344337681,
				"z": -2.9837783524,
				"element": "O" 
			},
			{
				"x": 0.0731611498,
				"y": 0.9671791431,
				"z": -0.9272101027,
				"element": "C" 
			},
			{
				"x": 1.1072274266,
				"y": 0.3428935844,
				"z": -0.348270732,
				"element": "N" 
			},
			{
				"x": -0.4575107991,
				"y": 2.1860251671,
				"z": -0.2829610017,
				"element": "C" 
			},
			{
				"x": 0.3862855559,
				"y": 2.9261751574,
				"z": 0.5668236357,
				"element": "C" 
			},
			{
				"x": -0.0770311457,
				"y": 4.0650798762,
				"z": 1.2143558684,
				"element": "C" 
			},
			{
				"x": -1.3963003242,
				"y": 4.5118686081,
				"z": 1.0430575994,
				"element": "C" 
			},
			{
				"x": -1.8991543153,
				"y": 5.7385564324,
				"z": 1.7661345908,
				"element": "C" 
			},
			{
				"x": -2.2297299678,
				"y": 3.7726992386,
				"z": 0.1969518559,
				"element": "C" 
			},
			{
				"x": -1.7780858521,
				"y": 2.625942664,
				"z": -0.4567185583,
				"element": "C" 
			},
			{
				"x": 2.140152723,
				"y": -4.1428012163,
				"z": -0.4565245575,
				"element": "C" 
			},
			{
				"x": 1.6346560709,
				"y": -5.2522624797,
				"z": 0.2255944641,
				"element": "C" 
			},
			{
				"x": 0.7106757625,
				"y": -7.2263309092,
				"z": 1.7358819543,
				"element": "H" 
			},
			{
				"x": -0.8011248245,
				"y": -6.3461625962,
				"z": 1.98807769,
				"element": "H" 
			},
			{
				"x": 0.4890703449,
				"y": -6.2310890305,
				"z": 3.1829603546,
				"element": "H" 
			},
			{
				"x": 0.001217731,
				"y": -3.6438300339,
				"z": 2.7229035034,
				"element": "H" 
			},
			{
				"x": 0.8986477231,
				"y": -1.6807268235,
				"z": 1.5202823458,
				"element": "H" 
			},
			{
				"x": 3.0111088151,
				"y": -1.9656236445,
				"z": -1.6122027212,
				"element": "H" 
			},
			{
				"x": 3.1325878938,
				"y": -1.0771913692,
				"z": -0.0874585986,
				"element": "H" 
			},
			{
				"x": 0.7357859729,
				"y": -1.5445516552,
				"z": -2.9720327082,
				"element": "H" 
			},
			{
				"x": 0.0086992629,
				"y": 0.0746999554,
				"z": -4.4948908888,
				"element": "H" 
			},
			{
				"x": 1.4104178688,
				"y": 2.5976773779,
				"z": 0.7071023626,
				"element": "H" 
			},
			{
				"x": 0.5978708152,
				"y": 4.6234353804,
				"z": 1.8592241425,
				"element": "H" 
			},
			{
				"x": -1.1549962455,
				"y": 6.5419914957,
				"z": 1.7578659661,
				"element": "H" 
			},
			{
				"x": -2.1207212772,
				"y": 5.5167131261,
				"z": 2.8178129826,
				"element": "H" 
			},
			{
				"x": -2.817045438,
				"y": 6.1226314524,
				"z": 1.3120683604,
				"element": "H" 
			},
			{
				"x": -3.2568980479,
				"y": 4.0954058794,
				"z": 0.0448711712,
				"element": "H" 
			},
			{
				"x": -2.4460492517,
				"y": 2.0728190736,
				"z": -1.1049370723,
				"element": "H" 
			},
			{
				"x": 2.7430997574,
				"y": -4.2919036308,
				"z": -1.3496343044,
				"element": "H" 
			},
			{
				"x": 1.8473312314,
				"y": -6.2514444793,
				"z": -0.146030589,
				"element": "H" 
			}
		],
		 "valence_orbital": [ 
			{
				"type": "occ",
				"energy": -0.26168,
				"method": "rhf"
			},
			{
				"type": "occ",
				"energy": -0.25778,
				"method": "rhf"
			},
			{
				"type": "occ",
				"energy": -0.24738,
				"method": "rhf"
			},
			{
				"type": "occ",
				"energy": -0.23825,
				"method": "rhf"
			},
			{
				"type": "occ",
				"energy": -0.21619,
				"method": "rhf"
			},
			{
				"type": "unocc",
				"energy": -0.02723,
				"method": "rhf"
			},
			{
				"type": "unocc",
				"energy": -0.02112,
				"method": "rhf"
			},
			{
				"type": "unocc",
				"energy": -0.01105,
				"method": "rhf"
			},
			{
				"type": "unocc",
				"energy": -0.00935,
				"method": "rhf"
			},
			{
				"type": "unocc",
				"energy": 0.01068,
				"method": "rhf"
			}
		],
		"cosmo_sigma_profile": { 
			"-0.025": 0.0,
			"-0.024": 0.0,
			"-0.023": 0.0,
			"-0.022": 0.0,
			"-0.021": 0.0,
			"-0.02": 0.0,
			"-0.019": 0.0291964351247,
			"-0.018": 0.475757573067,
			"-0.017": 1.2759290488,
			"-0.016": 1.0295991958,
			"-0.015": 1.11913841607,
			"-0.014": 0.805988458233,
			"-0.013": 0.981795760755,
			"-0.012": 1.95175781935,
			"-0.011": 1.78894979533,
			"-0.01": 2.86373625793,
			"-0.009": 2.87553940614,
			"-0.008": 3.82256051495,
			"-0.007": 6.62549063097,
			"-0.006": 8.63250366034,
			"-0.005": 17.8813930216,
			"-0.004": 32.2576646372,
			"-0.003": 29.4035194212,
			"-0.002": 29.2400335364,
			"-0.001": 28.990858878,
			"0.0": 30.0969437958,
			"0.001": 27.5283530685,
			"0.002": 24.1348540901,
			"0.003": 20.7470679747,
			"0.004": 20.7483888375,
			"0.005": 21.3762161067,
			"0.006": 17.5838873708,
			"0.007": 4.59375631242,
			"0.008": 4.3993901348,
			"0.009": 4.04207337876,
			"0.01": 4.9674720023,
			"0.011": 5.60314949533,
			"0.012": 3.12857066155,
			"0.013": 1.52614652801,
			"0.014": 0.0106482324725,
			"0.015": 0.0,
			"0.016": 0.0,
			"0.017": 0.0,
			"0.018": 0.0,
			"0.019": 0.0,
			"0.02": 0.0,
			"0.021": 0.0,
			"0.022": 0.0,
			"0.023": 0.0,
			"0.024": 0.0,
			"0.025": 0.0
		}
	}
}
