{
	 "smiles": "SC1=NN=C(O1)C1CC1", 
	 "Tm": 405.15, 
	 "num_atms": 15, 
	 "gaussian": { 
		 "optdone": 1, 
		 "sigma_profile": "yes", 
		 "theory": "DFT", 
		 "functional": "B3LYP", 
		 "basiset": "6-31G**", 
		 "properties": { 
			 "R2extent": 1939.187, 
			 "electric_dipole_moment_norm": 4.76501271877, 
			 "electric_quadrupole_moment_norm": 11.9896510412, 
			 "total_energy": -776.988492204, 
			 "HOMO_LUMO_gap": 0.22966, 
			 "cosmo_polarized_energy": -12.27, 
			 "cosmo_cavitation_energy": 21.39, 
			 "cosmo_dispersion_energy": -16.35, 
			 "cosmo_repulsion_energy": 1.31, 
			 "cosmo_total_nonelectrostatic_energy": 6.35, 
			 "SMD_solvation_energy": 1.27 
		},
		"coords": [
			{
				"x": -1.3161884261,
				"y": -0.9625580381,
				"z": 1.1859588257,
				"element": "S" 
			},
			{
				"x": -1.063525061,
				"y": 0.4188440581,
				"z": 0.1278409809,
				"element": "C" 
			},
			{
				"x": -1.968930134,
				"y": 1.2158490321,
				"z": -0.3328318967,
				"element": "N" 
			},
			{
				"x": -1.2856197657,
				"y": 2.1533409554,
				"z": -1.1234482127,
				"element": "N" 
			},
			{
				"x": -0.0302369288,
				"y": 1.8413352779,
				"z": -1.0722328901,
				"element": "C" 
			},
			{
				"x": 0.1998106332,
				"y": 0.7347256167,
				"z": -0.2855823291,
				"element": "O" 
			},
			{
				"x": 1.1012791537,
				"y": 2.5041966594,
				"z": -1.7237183695,
				"element": "C" 
			},
			{
				"x": 2.2836841147,
				"y": 1.6977230534,
				"z": -2.2338784702,
				"element": "C" 
			},
			{
				"x": 2.4541232334,
				"y": 2.5837568897,
				"z": -1.0364994555,
				"element": "C" 
			},
			{
				"x": -0.0119521252,
				"y": -1.2927208141,
				"z": 1.2449392514,
				"element": "H" 
			},
			{
				"x": 0.7821683844,
				"y": 3.3585018528,
				"z": -2.3103990894,
				"element": "H" 
			},
			{
				"x": 2.7171229035,
				"y": 2.0058683212,
				"z": -3.1798302118,
				"element": "H" 
			},
			{
				"x": 2.2590820152,
				"y": 0.6246374808,
				"z": -2.0744265894,
				"element": "H" 
			},
			{
				"x": 3.0067053728,
				"y": 3.5113607945,
				"z": -1.1453570451,
				"element": "H" 
			},
			{
				"x": 2.5454766297,
				"y": 2.1130388602,
				"z": -0.0630344983,
				"element": "H" 
			}
		],
		 "valence_orbital": [ 
			{
				"type": "occ",
				"energy": -0.3339,
				"method": "rhf"
			},
			{
				"type": "occ",
				"energy": -0.31478,
				"method": "rhf"
			},
			{
				"type": "occ",
				"energy": -0.3063,
				"method": "rhf"
			},
			{
				"type": "occ",
				"energy": -0.27901,
				"method": "rhf"
			},
			{
				"type": "occ",
				"energy": -0.24049,
				"method": "rhf"
			},
			{
				"type": "unocc",
				"energy": -0.01083,
				"method": "rhf"
			},
			{
				"type": "unocc",
				"energy": -0.00412,
				"method": "rhf"
			},
			{
				"type": "unocc",
				"energy": 0.03115,
				"method": "rhf"
			},
			{
				"type": "unocc",
				"energy": 0.04865,
				"method": "rhf"
			},
			{
				"type": "unocc",
				"energy": 0.08092,
				"method": "rhf"
			}
		],
		"cosmo_sigma_profile": { 
			"-0.025": 0.0,
			"-0.024": 0.0,
			"-0.023": 0.0,
			"-0.022": 0.0,
			"-0.021": 0.0,
			"-0.02": 0.0,
			"-0.019": 0.0,
			"-0.018": 0.0,
			"-0.017": 0.0,
			"-0.016": 0.0,
			"-0.015": 0.0,
			"-0.014": 0.0390365027695,
			"-0.013": 1.74481822283,
			"-0.012": 1.66119497003,
			"-0.011": 1.48113641244,
			"-0.01": 1.57584293673,
			"-0.009": 1.39901595927,
			"-0.008": 1.61026390456,
			"-0.007": 3.60836411956,
			"-0.006": 8.9682734453,
			"-0.005": 11.3689993468,
			"-0.004": 11.7375853281,
			"-0.003": 13.9814844132,
			"-0.002": 16.2173837846,
			"-0.001": 14.27718078,
			"0.0": 14.4884084153,
			"0.001": 15.0865770145,
			"0.002": 11.750914595,
			"0.003": 7.46120207519,
			"0.004": 5.36801203037,
			"0.005": 4.85395625114,
			"0.006": 2.93724329841,
			"0.007": 2.11900018344,
			"0.008": 1.9719633781,
			"0.009": 1.95760724157,
			"0.01": 2.53531680832,
			"0.011": 3.20335756177,
			"0.012": 3.43835802688,
			"0.013": 2.93758040644,
			"0.014": 2.3082456124,
			"0.015": 1.40832817831,
			"0.016": 0.268462177585,
			"0.017": 0.0,
			"0.018": 0.0,
			"0.019": 0.0,
			"0.02": 0.0,
			"0.021": 0.0,
			"0.022": 0.0,
			"0.023": 0.0,
			"0.024": 0.0,
			"0.025": 0.0
		}
	}
}
