{
	 "smiles": "[O-][N+](=O)C1=CC=C(CCC2=CC=C(C=C2)[N+]([O-])=O)C=C1", 
	 "Tm": 454.15, 
	 "num_atms": 32, 
	 "gaussian": { 
		 "optdone": 1, 
		 "sigma_profile": "yes", 
		 "theory": "DFT", 
		 "functional": "B3LYP", 
		 "basiset": "6-31G**", 
		 "properties": { 
			 "R2extent": 7798.088, 
			 "electric_dipole_moment_norm": 7.28062725938, 
			 "electric_quadrupole_moment_norm": 23.0798477744, 
			 "total_energy": -950.933054287, 
			 "HOMO_LUMO_gap": 0.18226, 
			 "cosmo_polarized_energy": -16.42, 
			 "cosmo_cavitation_energy": 38.2, 
			 "cosmo_dispersion_energy": -26.04, 
			 "cosmo_repulsion_energy": 2.0, 
			 "cosmo_total_nonelectrostatic_energy": 14.16, 
			 "SMD_solvation_energy": 10.57 
		},
		"coords": [
			{
				"x": 2.447360798,
				"y": 3.1493002097,
				"z": 3.3440758619,
				"element": "O" 
			},
			{
				"x": 2.9428581595,
				"y": 2.8449488379,
				"z": 2.2596735241,
				"element": "N" 
			},
			{
				"x": 4.1510376239,
				"y": 2.7702640797,
				"z": 2.0364447123,
				"element": "O" 
			},
			{
				"x": 2.0250369701,
				"y": 2.5475223897,
				"z": 1.1494333152,
				"element": "C" 
			},
			{
				"x": 2.5555455377,
				"y": 2.2085087219,
				"z": -0.0942229907,
				"element": "C" 
			},
			{
				"x": 1.6788413015,
				"y": 1.9335590472,
				"z": -1.1387459113,
				"element": "C" 
			},
			{
				"x": 0.2874105287,
				"y": 1.9917928713,
				"z": -0.9559118333,
				"element": "C" 
			},
			{
				"x": -0.6460488831,
				"y": 1.6669414964,
				"z": -2.1005033884,
				"element": "C" 
			},
			{
				"x": -0.8721157877,
				"y": 0.1433790733,
				"z": -2.3168791536,
				"element": "C" 
			},
			{
				"x": -1.626521246,
				"y": -0.5302524027,
				"z": -1.1925864857,
				"element": "C" 
			},
			{
				"x": -0.9503525382,
				"y": -1.2238276178,
				"z": -0.1776777245,
				"element": "C" 
			},
			{
				"x": -1.6445724857,
				"y": -1.828069794,
				"z": 0.8674019383,
				"element": "C" 
			},
			{
				"x": -3.0337293175,
				"y": -1.7305653634,
				"z": 0.8905620534,
				"element": "C" 
			},
			{
				"x": -3.7405306273,
				"y": -1.0502033423,
				"z": -0.0996717984,
				"element": "C" 
			},
			{
				"x": -3.0279345868,
				"y": -0.455031027,
				"z": -1.1356353616,
				"element": "C" 
			},
			{
				"x": -3.777429429,
				"y": -2.3679613139,
				"z": 1.9878816881,
				"element": "N" 
			},
			{
				"x": -5.003634252,
				"y": -2.2606556662,
				"z": 1.9836068657,
				"element": "O" 
			},
			{
				"x": -3.1288301018,
				"y": -2.9687313783,
				"z": 2.8437282557,
				"element": "O" 
			},
			{
				"x": -0.2087302594,
				"y": 2.3369946678,
				"z": 0.3101778992,
				"element": "C" 
			},
			{
				"x": 0.6514448624,
				"y": 2.617489528,
				"z": 1.3687999151,
				"element": "C" 
			},
			{
				"x": 3.630057754,
				"y": 2.1725700259,
				"z": -0.2230555756,
				"element": "H" 
			},
			{
				"x": 2.0807256018,
				"y": 1.6774058734,
				"z": -2.1155891997,
				"element": "H" 
			},
			{
				"x": -1.6152529172,
				"y": 2.1507379997,
				"z": -1.9380418918,
				"element": "H" 
			},
			{
				"x": -0.2368201939,
				"y": 2.079847259,
				"z": -3.0296885538,
				"element": "H" 
			},
			{
				"x": 0.0988592359,
				"y": -0.3439043737,
				"z": -2.4568344357,
				"element": "H" 
			},
			{
				"x": -1.4285373018,
				"y": 0.017162612,
				"z": -3.2527165445,
				"element": "H" 
			},
			{
				"x": 0.1329130381,
				"y": -1.2938624027,
				"z": -0.2072796278,
				"element": "H" 
			},
			{
				"x": -1.1350086457,
				"y": -2.3688270495,
				"z": 1.6550726038,
				"element": "H" 
			},
			{
				"x": -4.8210746233,
				"y": -1.0044886128,
				"z": -0.0467703519,
				"element": "H" 
			},
			{
				"x": -3.5686627522,
				"y": 0.0700305782,
				"z": -1.9187531583,
				"element": "H" 
			},
			{
				"x": -1.2817635003,
				"y": 2.389349647,
				"z": 0.4686622764,
				"element": "H" 
			},
			{
				"x": 0.2814580373,
				"y": 2.8879754262,
				"z": 2.3498430775,
				"element": "H" 
			}
		],
		 "valence_orbital": [ 
			{
				"type": "occ",
				"energy": -0.29278,
				"method": "rhf"
			},
			{
				"type": "occ",
				"energy": -0.28557,
				"method": "rhf"
			},
			{
				"type": "occ",
				"energy": -0.28508,
				"method": "rhf"
			},
			{
				"type": "occ",
				"energy": -0.2797,
				"method": "rhf"
			},
			{
				"type": "occ",
				"energy": -0.27517,
				"method": "rhf"
			},
			{
				"type": "unocc",
				"energy": -0.09291,
				"method": "rhf"
			},
			{
				"type": "unocc",
				"energy": -0.09067,
				"method": "rhf"
			},
			{
				"type": "unocc",
				"energy": -0.03569,
				"method": "rhf"
			},
			{
				"type": "unocc",
				"energy": -0.03147,
				"method": "rhf"
			},
			{
				"type": "unocc",
				"energy": -0.00772,
				"method": "rhf"
			}
		],
		"cosmo_sigma_profile": { 
			"-0.025": 0.0,
			"-0.024": 0.0,
			"-0.023": 0.0,
			"-0.022": 0.0,
			"-0.021": 0.0,
			"-0.02": 0.0,
			"-0.019": 0.0,
			"-0.018": 0.0,
			"-0.017": 0.0,
			"-0.016": 0.0,
			"-0.015": 0.0,
			"-0.014": 0.0,
			"-0.013": 0.0,
			"-0.012": 0.0,
			"-0.011": 0.0,
			"-0.01": 0.0,
			"-0.009": 0.0,
			"-0.008": 0.614117877283,
			"-0.007": 10.1269025242,
			"-0.006": 21.0383835661,
			"-0.005": 29.0687730157,
			"-0.004": 24.8845012642,
			"-0.003": 24.174490027,
			"-0.002": 21.6515102244,
			"-0.001": 26.0382473949,
			"0.0": 21.7340290098,
			"0.001": 23.4954176595,
			"0.002": 27.13813879,
			"0.003": 10.331142985,
			"0.004": 4.11570625717,
			"0.005": 6.27652879436,
			"0.006": 6.84521181166,
			"0.007": 13.5480146599,
			"0.008": 17.4495677593,
			"0.009": 9.84229983208,
			"0.01": 6.04102910986,
			"0.011": 0.782471930455,
			"0.012": 0.0,
			"0.013": 0.0,
			"0.014": 0.0,
			"0.015": 0.0,
			"0.016": 0.0,
			"0.017": 0.0,
			"0.018": 0.0,
			"0.019": 0.0,
			"0.02": 0.0,
			"0.021": 0.0,
			"0.022": 0.0,
			"0.023": 0.0,
			"0.024": 0.0,
			"0.025": 0.0
		}
	}
}
