{
	 "smiles": "CC(=O)OCC(=O)C1CCC2C3CC=C4CC(O)CCC4(C)C3CCC12C", 
	 "Tm": 457.15, 
	 "num_atms": 61, 
	 "gaussian": { 
		 "optdone": 1, 
		 "sigma_profile": "yes", 
		 "theory": "DFT", 
		 "functional": "B3LYP", 
		 "basiset": "6-31G**", 
		 "properties": { 
			 "R2extent": 15027.5123, 
			 "electric_dipole_moment_norm": 3.21189503876, 
			 "electric_quadrupole_moment_norm": 15.5185567957, 
			 "total_energy": -1197.836269, 
			 "HOMO_LUMO_gap": 0.20703, 
			 "cosmo_polarized_energy": -17.76, 
			 "cosmo_cavitation_energy": 53.9, 
			 "cosmo_dispersion_energy": -37.35, 
			 "cosmo_repulsion_energy": 2.77, 
			 "cosmo_total_nonelectrostatic_energy": 19.31, 
			 "SMD_solvation_energy": 9.11 
		},
		"coords": [
			{
				"x": 5.0337912832,
				"y": 6.0340667975,
				"z": -1.1822621268,
				"element": "C" 
			},
			{
				"x": 4.9586865071,
				"y": 4.6356666717,
				"z": -0.6260955165,
				"element": "C" 
			},
			{
				"x": 5.8897088036,
				"y": 3.8771231627,
				"z": -0.4800693733,
				"element": "O" 
			},
			{
				"x": 3.6754461527,
				"y": 4.3210171203,
				"z": -0.2949196685,
				"element": "O" 
			},
			{
				"x": 3.4548554625,
				"y": 2.9665662682,
				"z": 0.0765807204,
				"element": "C" 
			},
			{
				"x": 3.3230628154,
				"y": 2.0706595299,
				"z": -1.1611959046,
				"element": "C" 
			},
			{
				"x": 3.5001465727,
				"y": 2.5400608581,
				"z": -2.2694432571,
				"element": "O" 
			},
			{
				"x": 2.9717926904,
				"y": 0.5999987031,
				"z": -0.9663381321,
				"element": "C" 
			},
			{
				"x": 3.1802922339,
				"y": -0.0042740721,
				"z": 0.4370850407,
				"element": "C" 
			},
			{
				"x": 2.2922154828,
				"y": -1.2724830711,
				"z": 0.4651103839,
				"element": "C" 
			},
			{
				"x": 1.3981949974,
				"y": -1.234274182,
				"z": -0.8088426831,
				"element": "C" 
			},
			{
				"x": -0.0255414817,
				"y": -1.7900418827,
				"z": -0.5588121715,
				"element": "C" 
			},
			{
				"x": -0.7122943129,
				"y": -2.285366472,
				"z": -1.8468247175,
				"element": "C" 
			},
			{
				"x": -2.1390443958,
				"y": -2.6915790435,
				"z": -1.6061626237,
				"element": "C" 
			},
			{
				"x": -2.8656715983,
				"y": -2.3078407626,
				"z": -0.5493849152,
				"element": "C" 
			},
			{
				"x": -4.2438402214,
				"y": -2.8823640838,
				"z": -0.2868383533,
				"element": "C" 
			},
			{
				"x": -4.381254083,
				"y": -3.4152577769,
				"z": 1.172530926,
				"element": "C" 
			},
			{
				"x": -5.0639654549,
				"y": -4.6667702885,
				"z": 1.217880269,
				"element": "O" 
			},
			{
				"x": -3.0004894884,
				"y": -3.6312598361,
				"z": 1.7859024256,
				"element": "C" 
			},
			{
				"x": -2.1645442857,
				"y": -2.3347996624,
				"z": 1.8347027041,
				"element": "C" 
			},
			{
				"x": -2.3160960055,
				"y": -1.4180875615,
				"z": 0.5617968918,
				"element": "C" 
			},
			{
				"x": -3.3321385969,
				"y": -0.2970871134,
				"z": 0.8962790647,
				"element": "C" 
			},
			{
				"x": -0.9277324278,
				"y": -0.7875740221,
				"z": 0.199501736,
				"element": "C" 
			},
			{
				"x": -0.9521006417,
				"y": 0.5496480262,
				"z": -0.568722093,
				"element": "C" 
			},
			{
				"x": 0.4651836863,
				"y": 1.1438288204,
				"z": -0.6476887822,
				"element": "C" 
			},
			{
				"x": 1.4914882437,
				"y": 0.2287004736,
				"z": -1.3606531518,
				"element": "C" 
			},
			{
				"x": 1.317501723,
				"y": 0.3304982414,
				"z": -2.8861860307,
				"element": "C" 
			},
			{
				"x": 4.6003643922,
				"y": 6.0360995865,
				"z": -2.1874885168,
				"element": "H" 
			},
			{
				"x": 6.0753360235,
				"y": 6.3496770608,
				"z": -1.2354142187,
				"element": "H" 
			},
			{
				"x": 4.452378475,
				"y": 6.7276467892,
				"z": -0.569735492,
				"element": "H" 
			},
			{
				"x": 2.5290739871,
				"y": 2.9535060398,
				"z": 0.6587071371,
				"element": "H" 
			},
			{
				"x": 4.2743528186,
				"y": 2.5994236298,
				"z": 0.7033474427,
				"element": "H" 
			},
			{
				"x": 3.6127360318,
				"y": 0.0665954003,
				"z": -1.6802514,
				"element": "H" 
			},
			{
				"x": 4.2354133424,
				"y": -0.2223920186,
				"z": 0.6284567086,
				"element": "H" 
			},
			{
				"x": 2.8604753299,
				"y": 0.6901178572,
				"z": 1.2203924545,
				"element": "H" 
			},
			{
				"x": 1.6850885285,
				"y": -1.2975306154,
				"z": 1.375829131,
				"element": "H" 
			},
			{
				"x": 2.8958327564,
				"y": -2.1853607309,
				"z": 0.4751733349,
				"element": "H" 
			},
			{
				"x": 1.8713740794,
				"y": -1.8806513184,
				"z": -1.5606616964,
				"element": "H" 
			},
			{
				"x": 0.094335673,
				"y": -2.6786633581,
				"z": 0.0773525161,
				"element": "H" 
			},
			{
				"x": -0.1518583759,
				"y": -3.1439212314,
				"z": -2.2413075236,
				"element": "H" 
			},
			{
				"x": -0.6673475364,
				"y": -1.5298369083,
				"z": -2.6408169957,
				"element": "H" 
			},
			{
				"x": -2.5878225612,
				"y": -3.3655784752,
				"z": -2.3356687965,
				"element": "H" 
			},
			{
				"x": -4.4142081043,
				"y": -3.7287186782,
				"z": -0.9601087917,
				"element": "H" 
			},
			{
				"x": -5.0302269789,
				"y": -2.1417393816,
				"z": -0.4878756087,
				"element": "H" 
			},
			{
				"x": -4.929940056,
				"y": -2.6813353908,
				"z": 1.7847868052,
				"element": "H" 
			},
			{
				"x": -5.9543612121,
				"y": -4.5322859817,
				"z": 0.8683337438,
				"element": "H" 
			},
			{
				"x": -2.4871123218,
				"y": -4.3844737997,
				"z": 1.1765692992,
				"element": "H" 
			},
			{
				"x": -3.1096400881,
				"y": -4.0544353558,
				"z": 2.7897837738,
				"element": "H" 
			},
			{
				"x": -1.1132594595,
				"y": -2.6144729209,
				"z": 1.9632336137,
				"element": "H" 
			},
			{
				"x": -2.4350062481,
				"y": -1.7488356688,
				"z": 2.722395167,
				"element": "H" 
			},
			{
				"x": -4.253951288,
				"y": -0.7029504394,
				"z": 1.319780342,
				"element": "H" 
			},
			{
				"x": -2.9117085321,
				"y": 0.3856828044,
				"z": 1.6433860976,
				"element": "H" 
			},
			{
				"x": -3.6048305246,
				"y": 0.2886921377,
				"z": 0.0137978165,
				"element": "H" 
			},
			{
				"x": -0.4502642677,
				"y": -0.5642358364,
				"z": 1.1663434941,
				"element": "H" 
			},
			{
				"x": -1.3756460649,
				"y": 0.4149241396,
				"z": -1.5714005171,
				"element": "H" 
			},
			{
				"x": -1.5929463976,
				"y": 1.2769434354,
				"z": -0.0633280112,
				"element": "H" 
			},
			{
				"x": 0.4350435339,
				"y": 2.1179638037,
				"z": -1.152241772,
				"element": "H" 
			},
			{
				"x": 0.7905255683,
				"y": 1.3393064242,
				"z": 0.3833148072,
				"element": "H" 
			},
			{
				"x": 1.6620187319,
				"y": 1.3043347924,
				"z": -3.2438762103,
				"element": "H" 
			},
			{
				"x": 0.2748926905,
				"y": 0.2114632329,
				"z": -3.1918279628,
				"element": "H" 
			},
			{
				"x": 1.9069343944,
				"y": -0.4366338666,
				"z": -3.4006108329,
				"element": "H" 
			}
		],
		 "valence_orbital": [ 
			{
				"type": "occ",
				"energy": -0.28508,
				"method": "rhf"
			},
			{
				"type": "occ",
				"energy": -0.26977,
				"method": "rhf"
			},
			{
				"type": "occ",
				"energy": -0.26523,
				"method": "rhf"
			},
			{
				"type": "occ",
				"energy": -0.24492,
				"method": "rhf"
			},
			{
				"type": "occ",
				"energy": -0.22789,
				"method": "rhf"
			},
			{
				"type": "unocc",
				"energy": -0.02086,
				"method": "rhf"
			},
			{
				"type": "unocc",
				"energy": 0.01641,
				"method": "rhf"
			},
			{
				"type": "unocc",
				"energy": 0.02731,
				"method": "rhf"
			},
			{
				"type": "unocc",
				"energy": 0.06114,
				"method": "rhf"
			},
			{
				"type": "unocc",
				"energy": 0.07445,
				"method": "rhf"
			}
		],
		"cosmo_sigma_profile": { 
			"-0.025": 0.0,
			"-0.024": 0.0,
			"-0.023": 0.0,
			"-0.022": 0.0,
			"-0.021": 0.0,
			"-0.02": 0.0,
			"-0.019": 0.0,
			"-0.018": 0.0,
			"-0.017": 0.0,
			"-0.016": 0.0754364128874,
			"-0.015": 0.699745558465,
			"-0.014": 0.971573080999,
			"-0.013": 0.988853372583,
			"-0.012": 0.973711781607,
			"-0.011": 0.884833560475,
			"-0.01": 0.681911021648,
			"-0.009": 0.528297425835,
			"-0.008": 2.03507579801,
			"-0.007": 5.59917580128,
			"-0.006": 10.3564728583,
			"-0.005": 14.4820525588,
			"-0.004": 22.6430563482,
			"-0.003": 42.5492628642,
			"-0.002": 67.764211896,
			"-0.001": 62.7157706426,
			"0.0": 47.7237158477,
			"0.001": 36.1983664583,
			"0.002": 17.9032568242,
			"0.003": 9.86728396616,
			"0.004": 8.92614209624,
			"0.005": 7.38630757892,
			"0.006": 7.92030821767,
			"0.007": 7.28475437118,
			"0.008": 5.81688819374,
			"0.009": 5.82646869234,
			"0.01": 6.75288088192,
			"0.011": 7.3936966294,
			"0.012": 6.53064825775,
			"0.013": 2.34967992856,
			"0.014": 2.23791837362,
			"0.015": 1.14497091126,
			"0.016": 0.0,
			"0.017": 0.0,
			"0.018": 0.0,
			"0.019": 0.0,
			"0.02": 0.0,
			"0.021": 0.0,
			"0.022": 0.0,
			"0.023": 0.0,
			"0.024": 0.0,
			"0.025": 0.0
		}
	}
}
