{
	 "smiles": "NC1=CC(Br)=C(O)C(Br)=C1", 
	 "Tm": 468.65, 
	 "num_atms": 15, 
	 "gaussian": { 
		 "optdone": 1, 
		 "sigma_profile": "yes", 
		 "theory": "DFT", 
		 "functional": "B3LYP", 
		 "basiset": "6-31G**", 
		 "properties": { 
			 "R2extent": 4086.4872, 
			 "electric_dipole_moment_norm": 3.39553775859, 
			 "electric_quadrupole_moment_norm": 9.64754095664, 
			 "total_energy": -5504.42991913, 
			 "HOMO_LUMO_gap": 0.18103, 
			 "cosmo_polarized_energy": -11.34, 
			 "cosmo_cavitation_energy": 23.71, 
			 "cosmo_dispersion_energy": -18.73, 
			 "cosmo_repulsion_energy": 1.52, 
			 "cosmo_total_nonelectrostatic_energy": 6.5, 
			 "SMD_solvation_energy": 2.16 
		},
		"coords": [
			{
				"x": -0.9329168084,
				"y": 2.4011448691,
				"z": 0.4298890253,
				"element": "N" 
			},
			{
				"x": -0.5829776778,
				"y": 1.046657687,
				"z": 0.4565789837,
				"element": "C" 
			},
			{
				"x": -1.4489476267,
				"y": 0.0921958761,
				"z": 1.0135270995,
				"element": "C" 
			},
			{
				"x": -1.1287022228,
				"y": -1.259959558,
				"z": 0.9842952515,
				"element": "C" 
			},
			{
				"x": -2.3363713453,
				"y": -2.5132570999,
				"z": 1.7572026137,
				"element": "Br" 
			},
			{
				"x": 0.0593953178,
				"y": -1.7307963013,
				"z": 0.4048335965,
				"element": "C" 
			},
			{
				"x": 0.3262101588,
				"y": -3.0590014625,
				"z": 0.4041744577,
				"element": "O" 
			},
			{
				"x": 0.9062656392,
				"y": -0.7578861532,
				"z": -0.1432272686,
				"element": "C" 
			},
			{
				"x": 2.5466715989,
				"y": -1.34851111,
				"z": -0.9449494948,
				"element": "Br" 
			},
			{
				"x": 0.6107920461,
				"y": 0.600638265,
				"z": -0.1276586083,
				"element": "C" 
			},
			{
				"x": -1.5810436016,
				"y": 2.6828171042,
				"z": 1.1531160045,
				"element": "H" 
			},
			{
				"x": -0.1504460379,
				"y": 3.0388016313,
				"z": 0.3704115126,
				"element": "H" 
			},
			{
				"x": -2.3827113485,
				"y": 0.4030692253,
				"z": 1.4694014953,
				"element": "H" 
			},
			{
				"x": 1.178751862,
				"y": -3.1979860092,
				"z": -0.0381231697,
				"element": "H" 
			},
			{
				"x": 1.303730046,
				"y": 1.3057730361,
				"z": -0.5732714989,
				"element": "H" 
			}
		],
		 "valence_orbital": [ 
			{
				"type": "occ",
				"energy": -0.30981,
				"method": "rhf"
			},
			{
				"type": "occ",
				"energy": -0.28136,
				"method": "rhf"
			},
			{
				"type": "occ",
				"energy": -0.27703,
				"method": "rhf"
			},
			{
				"type": "occ",
				"energy": -0.2442,
				"method": "rhf"
			},
			{
				"type": "occ",
				"energy": -0.20336,
				"method": "rhf"
			},
			{
				"type": "unocc",
				"energy": -0.02233,
				"method": "rhf"
			},
			{
				"type": "unocc",
				"energy": -0.01917,
				"method": "rhf"
			},
			{
				"type": "unocc",
				"energy": 0.00955,
				"method": "rhf"
			},
			{
				"type": "unocc",
				"energy": 0.02662,
				"method": "rhf"
			},
			{
				"type": "unocc",
				"energy": 0.07071,
				"method": "rhf"
			}
		],
		"cosmo_sigma_profile": { 
			"-0.025": 0.0,
			"-0.024": 0.0,
			"-0.023": 0.0,
			"-0.022": 0.0,
			"-0.021": 0.0,
			"-0.02": 0.0,
			"-0.019": 0.0,
			"-0.018": 0.0,
			"-0.017": 0.0,
			"-0.016": 0.0,
			"-0.015": 0.00876534881803,
			"-0.014": 0.419505738029,
			"-0.013": 2.25460043086,
			"-0.012": 3.74839333919,
			"-0.011": 3.99600572915,
			"-0.01": 3.89646032617,
			"-0.009": 4.87063215648,
			"-0.008": 4.74279474558,
			"-0.007": 5.49142020814,
			"-0.006": 5.57434528302,
			"-0.005": 6.32325923753,
			"-0.004": 7.27528038531,
			"-0.003": 7.43981028644,
			"-0.002": 8.54967833648,
			"-0.001": 10.200132951,
			"0.0": 10.1098200578,
			"0.001": 15.2273206039,
			"0.002": 24.7146739015,
			"0.003": 25.0924517573,
			"0.004": 19.3792135891,
			"0.005": 8.27272296985,
			"0.006": 3.19602257955,
			"0.007": 2.1711623488,
			"0.008": 2.96892929033,
			"0.009": 2.94630562321,
			"0.01": 2.57366861201,
			"0.011": 2.55989369611,
			"0.012": 0.630996439103,
			"0.013": 0.68820396209,
			"0.014": 0.404564385392,
			"0.015": 0.18783314587,
			"0.016": 0.0,
			"0.017": 0.0,
			"0.018": 0.0,
			"0.019": 0.0,
			"0.02": 0.0,
			"0.021": 0.0,
			"0.022": 0.0,
			"0.023": 0.0,
			"0.024": 0.0,
			"0.025": 0.0
		}
	}
}
