{
	 "smiles": "NC1=CC(Cl)=CC=C1C(O)=O", 
	 "Tm": 505.15, 
	 "num_atms": 17, 
	 "gaussian": { 
		 "optdone": 1, 
		 "sigma_profile": "yes", 
		 "theory": "DFT", 
		 "functional": "B3LYP", 
		 "basiset": "6-31G**", 
		 "properties": { 
			 "R2extent": 2432.6992, 
			 "electric_dipole_moment_norm": 3.4147427048, 
			 "electric_quadrupole_moment_norm": 9.9550932075, 
			 "total_energy": -935.778749818, 
			 "HOMO_LUMO_gap": 0.17005, 
			 "cosmo_polarized_energy": -11.93, 
			 "cosmo_cavitation_energy": 23.18, 
			 "cosmo_dispersion_energy": -17.75, 
			 "cosmo_repulsion_energy": 1.43, 
			 "cosmo_total_nonelectrostatic_energy": 6.86, 
			 "SMD_solvation_energy": 4.77 
		},
		"coords": [
			{
				"x": 1.3241150253,
				"y": -1.7120744444,
				"z": -0.6248811795,
				"element": "N" 
			},
			{
				"x": 0.7751301089,
				"y": -0.5205043752,
				"z": -0.2347839325,
				"element": "C" 
			},
			{
				"x": -0.1133752847,
				"y": 0.1304261738,
				"z": -1.1226791586,
				"element": "C" 
			},
			{
				"x": -0.7299241307,
				"y": 1.3145872698,
				"z": -0.7614052889,
				"element": "C" 
			},
			{
				"x": -1.8230390919,
				"y": 2.0813123481,
				"z": -1.9023561249,
				"element": "Cl" 
			},
			{
				"x": -0.5101040967,
				"y": 1.9191235787,
				"z": 0.4828136741,
				"element": "C" 
			},
			{
				"x": 0.3605729422,
				"y": 1.2888516092,
				"z": 1.3537334903,
				"element": "C" 
			},
			{
				"x": 1.0177007815,
				"y": 0.0856044133,
				"z": 1.032829162,
				"element": "C" 
			},
			{
				"x": 1.9263931174,
				"y": -0.432586473,
				"z": 2.0751685712,
				"element": "C" 
			},
			{
				"x": 2.6008947404,
				"y": -1.5754260163,
				"z": 1.7325691473,
				"element": "O" 
			},
			{
				"x": 2.1078817374,
				"y": 0.076558622,
				"z": 3.1647648383,
				"element": "O" 
			},
			{
				"x": 2.0739365141,
				"y": -2.1038348756,
				"z": -0.0778638937,
				"element": "H" 
			},
			{
				"x": 1.2641302124,
				"y": -1.96828722,
				"z": -1.5966409477,
				"element": "H" 
			},
			{
				"x": -0.316167669,
				"y": -0.311538437,
				"z": -2.0925690926,
				"element": "H" 
			},
			{
				"x": -1.0050648215,
				"y": 2.846018949,
				"z": 0.7444998785,
				"element": "H" 
			},
			{
				"x": 0.5683975057,
				"y": 1.7180858412,
				"z": 2.3277735532,
				"element": "H" 
			},
			{
				"x": 3.1518224092,
				"y": -1.7872169634,
				"z": 2.5041273034,
				"element": "H" 
			}
		],
		 "valence_orbital": [ 
			{
				"type": "occ",
				"energy": -0.31547,
				"method": "rhf"
			},
			{
				"type": "occ",
				"energy": -0.30685,
				"method": "rhf"
			},
			{
				"type": "occ",
				"energy": -0.28147,
				"method": "rhf"
			},
			{
				"type": "occ",
				"energy": -0.2545,
				"method": "rhf"
			},
			{
				"type": "occ",
				"energy": -0.21816,
				"method": "rhf"
			},
			{
				"type": "unocc",
				"energy": -0.04811,
				"method": "rhf"
			},
			{
				"type": "unocc",
				"energy": -0.00068,
				"method": "rhf"
			},
			{
				"type": "unocc",
				"energy": 0.02787,
				"method": "rhf"
			},
			{
				"type": "unocc",
				"energy": 0.05116,
				"method": "rhf"
			},
			{
				"type": "unocc",
				"energy": 0.06893,
				"method": "rhf"
			}
		],
		"cosmo_sigma_profile": { 
			"-0.025": 0.0,
			"-0.024": 0.0,
			"-0.023": 0.0,
			"-0.022": 0.0,
			"-0.021": 0.0,
			"-0.02": 0.0,
			"-0.019": 0.038361284797,
			"-0.018": 0.68127930763,
			"-0.017": 1.12638473284,
			"-0.016": 0.452433708647,
			"-0.015": 0.8265167888,
			"-0.014": 2.10166196051,
			"-0.013": 1.60751370537,
			"-0.012": 2.55113359129,
			"-0.011": 1.86220467454,
			"-0.01": 3.22376136025,
			"-0.009": 2.56372490514,
			"-0.008": 3.8646817899,
			"-0.007": 4.5646655954,
			"-0.006": 5.88196753114,
			"-0.005": 5.87548375856,
			"-0.004": 6.20740494897,
			"-0.003": 6.47833002356,
			"-0.002": 9.41433281989,
			"-0.001": 12.2422091992,
			"0.0": 12.2575629245,
			"0.001": 17.5234182932,
			"0.002": 20.9820158431,
			"0.003": 22.1373859179,
			"0.004": 18.4651083672,
			"0.005": 6.43790684147,
			"0.006": 2.22438275988,
			"0.007": 1.77918436377,
			"0.008": 2.26982896681,
			"0.009": 1.95547101147,
			"0.01": 1.934023639,
			"0.011": 2.97274922622,
			"0.012": 4.93611647921,
			"0.013": 0.229995353876,
			"0.014": 0.0,
			"0.015": 0.0,
			"0.016": 0.0,
			"0.017": 0.0,
			"0.018": 0.0,
			"0.019": 0.0,
			"0.02": 0.0,
			"0.021": 0.0,
			"0.022": 0.0,
			"0.023": 0.0,
			"0.024": 0.0,
			"0.025": 0.0
		}
	}
}
