{
	 "smiles": "BrC(C=O)C=O", 
	 "Tm": 406.15, 
	 "num_atms": 9, 
	 "gaussian": { 
		 "optdone": 1, 
		 "sigma_profile": "yes", 
		 "theory": "DFT", 
		 "functional": "B3LYP", 
		 "basiset": "6-31G**", 
		 "properties": { 
			 "R2extent": 1573.0468, 
			 "electric_dipole_moment_norm": 2.22559641669, 
			 "electric_quadrupole_moment_norm": 5.26156085397, 
			 "total_energy": -2837.93729527, 
			 "HOMO_LUMO_gap": 0.1908, 
			 "cosmo_polarized_energy": -8.6, 
			 "cosmo_cavitation_energy": 16.43, 
			 "cosmo_dispersion_energy": -12.13, 
			 "cosmo_repulsion_energy": 1.08, 
			 "cosmo_total_nonelectrostatic_energy": 5.37, 
			 "SMD_solvation_energy": 3.92 
		},
		"coords": [
			{
				"x": -0.3332366391,
				"y": 2.0445970834,
				"z": -1.2457226774,
				"element": "Br" 
			},
			{
				"x": 0.2615764857,
				"y": 0.1512251036,
				"z": -1.2094106489,
				"element": "C" 
			},
			{
				"x": 0.5964972799,
				"y": -0.2333444167,
				"z": -2.6434209329,
				"element": "C" 
			},
			{
				"x": 1.6623052722,
				"y": -0.7152567204,
				"z": -2.9474665931,
				"element": "O" 
			},
			{
				"x": 1.4581024453,
				"y": 0.042986796,
				"z": -0.2729372767,
				"element": "C" 
			},
			{
				"x": 1.4507713927,
				"y": -0.6766018141,
				"z": 0.6956521964,
				"element": "O" 
			},
			{
				"x": -0.5794427338,
				"y": -0.4278672094,
				"z": -0.8218966204,
				"element": "H" 
			},
			{
				"x": -0.204667905,
				"y": -0.0370890911,
				"z": -3.3831701726,
				"element": "H" 
			},
			{
				"x": 2.3233944021,
				"y": 0.6752502687,
				"z": -0.5477272746,
				"element": "H" 
			}
		],
		 "valence_orbital": [ 
			{
				"type": "occ",
				"energy": -0.38809,
				"method": "rhf"
			},
			{
				"type": "occ",
				"energy": -0.3177,
				"method": "rhf"
			},
			{
				"type": "occ",
				"energy": -0.31662,
				"method": "rhf"
			},
			{
				"type": "occ",
				"energy": -0.29544,
				"method": "rhf"
			},
			{
				"type": "occ",
				"energy": -0.27457,
				"method": "rhf"
			},
			{
				"type": "unocc",
				"energy": -0.08377,
				"method": "rhf"
			},
			{
				"type": "unocc",
				"energy": -0.05604,
				"method": "rhf"
			},
			{
				"type": "unocc",
				"energy": 0.00594,
				"method": "rhf"
			},
			{
				"type": "unocc",
				"energy": 0.09904,
				"method": "rhf"
			},
			{
				"type": "unocc",
				"energy": 0.11831,
				"method": "rhf"
			}
		],
		"cosmo_sigma_profile": { 
			"-0.025": 0.0,
			"-0.024": 0.0,
			"-0.023": 0.0,
			"-0.022": 0.0,
			"-0.021": 0.0,
			"-0.02": 0.0,
			"-0.019": 0.0,
			"-0.018": 0.0,
			"-0.017": 0.0,
			"-0.016": 0.0,
			"-0.015": 0.0,
			"-0.014": 0.0,
			"-0.013": 0.0,
			"-0.012": 0.0804878142284,
			"-0.011": 2.4708018669,
			"-0.01": 3.0950392686,
			"-0.009": 4.59682804489,
			"-0.008": 8.31612511913,
			"-0.007": 6.1197499847,
			"-0.006": 4.06147879014,
			"-0.005": 5.94886224391,
			"-0.004": 7.9096873682,
			"-0.003": 7.02035068894,
			"-0.002": 5.83247229096,
			"-0.001": 7.34155379679,
			"0.0": 7.15551800479,
			"0.001": 6.95183651319,
			"0.002": 9.0569019288,
			"0.003": 11.5775730694,
			"0.004": 7.22153066639,
			"0.005": 2.39652748652,
			"0.006": 3.71102537565,
			"0.007": 4.08001050434,
			"0.008": 4.50558502089,
			"0.009": 7.65816214857,
			"0.01": 5.99979744082,
			"0.011": 1.54866980318,
			"0.012": 0.0,
			"0.013": 0.0,
			"0.014": 0.0,
			"0.015": 0.0,
			"0.016": 0.0,
			"0.017": 0.0,
			"0.018": 0.0,
			"0.019": 0.0,
			"0.02": 0.0,
			"0.021": 0.0,
			"0.022": 0.0,
			"0.023": 0.0,
			"0.024": 0.0,
			"0.025": 0.0
		}
	}
}
