{
	 "smiles": "NC(=S)C1=C2OCCOC2=CC=C1", 
	 "Tm": 381.15, 
	 "num_atms": 22, 
	 "gaussian": { 
		 "optdone": 1, 
		 "sigma_profile": "yes", 
		 "theory": "DFT", 
		 "functional": "B3LYP", 
		 "basiset": "6-31G**", 
		 "properties": { 
			 "R2extent": 3507.5756, 
			 "electric_dipole_moment_norm": 6.69762751054, 
			 "electric_quadrupole_moment_norm": 14.3792790605, 
			 "total_energy": -951.75769014, 
			 "HOMO_LUMO_gap": 0.14267, 
			 "cosmo_polarized_energy": -16.41, 
			 "cosmo_cavitation_energy": 26.53, 
			 "cosmo_dispersion_energy": -20.84, 
			 "cosmo_repulsion_energy": 1.6, 
			 "cosmo_total_nonelectrostatic_energy": 7.29, 
			 "SMD_solvation_energy": 3.85 
		},
		"coords": [
			{
				"x": -0.7953534339,
				"y": 1.891414349,
				"z": 0.5434557941,
				"element": "N" 
			},
			{
				"x": 0.3395762398,
				"y": 1.8117659878,
				"z": 1.2626485714,
				"element": "C" 
			},
			{
				"x": 0.516007206,
				"y": 2.7567269216,
				"z": 2.6407944234,
				"element": "S" 
			},
			{
				"x": 1.3913879674,
				"y": 0.8542091137,
				"z": 0.7867661821,
				"element": "C" 
			},
			{
				"x": 1.3648135752,
				"y": 0.1855515712,
				"z": -0.4628861139,
				"element": "C" 
			},
			{
				"x": 0.3234924275,
				"y": 0.4060563587,
				"z": -1.3451945611,
				"element": "O" 
			},
			{
				"x": 0.575213025,
				"y": 0.0144629716,
				"z": -2.6987314279,
				"element": "C" 
			},
			{
				"x": 1.1658101121,
				"y": -1.3816906905,
				"z": -2.7140736378,
				"element": "C" 
			},
			{
				"x": 2.4059354453,
				"y": -1.3803716367,
				"z": -2.0161260395,
				"element": "O" 
			},
			{
				"x": 2.3952162248,
				"y": -0.7056455882,
				"z": -0.8172086256,
				"element": "C" 
			},
			{
				"x": 3.4645582617,
				"y": -0.9280770287,
				"z": 0.0461537965,
				"element": "C" 
			},
			{
				"x": 3.5063202871,
				"y": -0.2708914378,
				"z": 1.2729276719,
				"element": "C" 
			},
			{
				"x": 2.4830071246,
				"y": 0.59618196,
				"z": 1.6347372232,
				"element": "C" 
			},
			{
				"x": -1.4944783869,
				"y": 2.5484234881,
				"z": 0.855625683,
				"element": "H" 
			},
			{
				"x": -0.9067368869,
				"y": 1.3871847709,
				"z": -0.3244490012,
				"element": "H" 
			},
			{
				"x": 1.2671534553,
				"y": 0.7266607326,
				"z": -3.1656864254,
				"element": "H" 
			},
			{
				"x": -0.3877076672,
				"y": 0.0552310422,
				"z": -3.2129709423,
				"element": "H" 
			},
			{
				"x": 0.4668304249,
				"y": -2.0889653076,
				"z": -2.246602298,
				"element": "H" 
			},
			{
				"x": 1.3802588024,
				"y": -1.7137270138,
				"z": -3.7330655277,
				"element": "H" 
			},
			{
				"x": 4.2397293095,
				"y": -1.6206578644,
				"z": -0.2653440516,
				"element": "H" 
			},
			{
				"x": 4.3351497053,
				"y": -0.4434396731,
				"z": 1.9517270772,
				"element": "H" 
			},
			{
				"x": 2.4998167808,
				"y": 1.1117969733,
				"z": 2.5875022293,
				"element": "H" 
			}
		],
		 "valence_orbital": [ 
			{
				"type": "occ",
				"energy": -0.31565,
				"method": "rhf"
			},
			{
				"type": "occ",
				"energy": -0.25345,
				"method": "rhf"
			},
			{
				"type": "occ",
				"energy": -0.22668,
				"method": "rhf"
			},
			{
				"type": "occ",
				"energy": -0.2119,
				"method": "rhf"
			},
			{
				"type": "occ",
				"energy": -0.19834,
				"method": "rhf"
			},
			{
				"type": "unocc",
				"energy": -0.05567,
				"method": "rhf"
			},
			{
				"type": "unocc",
				"energy": 0.00388,
				"method": "rhf"
			},
			{
				"type": "unocc",
				"energy": 0.03485,
				"method": "rhf"
			},
			{
				"type": "unocc",
				"energy": 0.06022,
				"method": "rhf"
			},
			{
				"type": "unocc",
				"energy": 0.08776,
				"method": "rhf"
			}
		],
		"cosmo_sigma_profile": { 
			"-0.025": 0.0,
			"-0.024": 0.0,
			"-0.023": 0.0,
			"-0.022": 0.0,
			"-0.021": 0.0,
			"-0.02": 0.0,
			"-0.019": 0.0,
			"-0.018": 0.0,
			"-0.017": 0.0,
			"-0.016": 0.0,
			"-0.015": 0.186865246383,
			"-0.014": 0.813904538533,
			"-0.013": 0.92767193607,
			"-0.012": 1.55736844471,
			"-0.011": 1.95513137034,
			"-0.01": 1.72192017782,
			"-0.009": 1.10245835616,
			"-0.008": 4.27743125589,
			"-0.007": 12.4452360614,
			"-0.006": 18.0035226528,
			"-0.005": 14.4948241923,
			"-0.004": 14.6434704643,
			"-0.003": 10.9773062753,
			"-0.002": 8.29883622923,
			"-0.001": 9.81598305638,
			"0.0": 11.3247453829,
			"0.001": 14.1767481619,
			"0.002": 14.7539479272,
			"0.003": 15.1309367105,
			"0.004": 12.4140347845,
			"0.005": 6.18041742109,
			"0.006": 5.96103777803,
			"0.007": 5.49824299096,
			"0.008": 5.58980878809,
			"0.009": 7.76840966764,
			"0.01": 8.53973678856,
			"0.011": 4.03135368707,
			"0.012": 1.80129556241,
			"0.013": 0.109605443561,
			"0.014": 0.0,
			"0.015": 0.0,
			"0.016": 0.0,
			"0.017": 0.0,
			"0.018": 0.0,
			"0.019": 0.0,
			"0.02": 0.0,
			"0.021": 0.0,
			"0.022": 0.0,
			"0.023": 0.0,
			"0.024": 0.0,
			"0.025": 0.0
		}
	}
}
