{
	 "smiles": "COC1=C(OCC2CCCO2)C=C(C(=C1)C(O)=O)[N+]([O-])=O", 
	 "Tm": 433.15, 
	 "num_atms": 36, 
	 "gaussian": { 
		 "optdone": 1, 
		 "sigma_profile": "yes", 
		 "theory": "DFT", 
		 "functional": "B3LYP", 
		 "basiset": "6-31G**", 
		 "properties": { 
			 "R2extent": 8112.2723, 
			 "electric_dipole_moment_norm": 7.00328483356, 
			 "electric_quadrupole_moment_norm": 12.0431712381, 
			 "total_energy": -1085.6081557, 
			 "HOMO_LUMO_gap": 0.15407, 
			 "cosmo_polarized_energy": -18.58, 
			 "cosmo_cavitation_energy": 40.54, 
			 "cosmo_dispersion_energy": -28.08, 
			 "cosmo_repulsion_energy": 2.19, 
			 "cosmo_total_nonelectrostatic_energy": 14.64, 
			 "SMD_solvation_energy": 10.84 
		},
		"coords": [
			{
				"x": -2.0560542234,
				"y": -3.0025194283,
				"z": 2.5574175046,
				"element": "C" 
			},
			{
				"x": -0.8155801436,
				"y": -2.4351672164,
				"z": 2.9968786978,
				"element": "O" 
			},
			{
				"x": -0.4728369068,
				"y": -1.2110775929,
				"z": 2.5047537891,
				"element": "C" 
			},
			{
				"x": -0.2193500718,
				"y": -0.9887880378,
				"z": 1.1271529671,
				"element": "C" 
			},
			{
				"x": -0.3722178219,
				"y": -2.0613716655,
				"z": 0.3076872501,
				"element": "O" 
			},
			{
				"x": -0.0069869253,
				"y": -1.9694246759,
				"z": -1.0760951987,
				"element": "C" 
			},
			{
				"x": -1.1233759282,
				"y": -1.3793434684,
				"z": -1.9456267151,
				"element": "C" 
			},
			{
				"x": -2.3470242268,
				"y": -2.3078891371,
				"z": -2.1083993311,
				"element": "C" 
			},
			{
				"x": -2.097957469,
				"y": -2.9706955473,
				"z": -3.4743540407,
				"element": "C" 
			},
			{
				"x": -1.3830238045,
				"y": -1.847984951,
				"z": -4.2268652985,
				"element": "C" 
			},
			{
				"x": -0.5556937024,
				"y": -1.2080864524,
				"z": -3.2505073389,
				"element": "O" 
			},
			{
				"x": 0.204705007,
				"y": 0.275841447,
				"z": 0.7153643542,
				"element": "C" 
			},
			{
				"x": 0.3788105126,
				"y": 1.2938779325,
				"z": 1.6517695641,
				"element": "C" 
			},
			{
				"x": 0.1194693708,
				"y": 1.1039112723,
				"z": 3.0128335949,
				"element": "C" 
			},
			{
				"x": -0.2963263492,
				"y": -0.1700226705,
				"z": 3.412444266,
				"element": "C" 
			},
			{
				"x": 0.1741766733,
				"y": 2.1588549714,
				"z": 4.0743331943,
				"element": "C" 
			},
			{
				"x": -0.4405710289,
				"y": 3.3008673137,
				"z": 3.7029423604,
				"element": "O" 
			},
			{
				"x": 0.6288591353,
				"y": 1.9751929749,
				"z": 5.1819523163,
				"element": "O" 
			},
			{
				"x": 0.9527623943,
				"y": 2.550892127,
				"z": 1.1487480601,
				"element": "N" 
			},
			{
				"x": 1.6603450064,
				"y": 3.1983439128,
				"z": 1.9170591704,
				"element": "O" 
			},
			{
				"x": 0.7219436808,
				"y": 2.8513432297,
				"z": -0.0228836659,
				"element": "O" 
			},
			{
				"x": -2.1820708895,
				"y": -3.9200152579,
				"z": 3.1343469645,
				"element": "H" 
			},
			{
				"x": -2.0363688267,
				"y": -3.2367388902,
				"z": 1.4906800746,
				"element": "H" 
			},
			{
				"x": -2.8898487634,
				"y": -2.3230230881,
				"z": 2.7726023274,
				"element": "H" 
			},
			{
				"x": 0.1970780966,
				"y": -2.9986875213,
				"z": -1.382863881,
				"element": "H" 
			},
			{
				"x": 0.9145386525,
				"y": -1.3917185535,
				"z": -1.2003973614,
				"element": "H" 
			},
			{
				"x": -1.4226433556,
				"y": -0.4010825352,
				"z": -1.5462093412,
				"element": "H" 
			},
			{
				"x": -2.4345349271,
				"y": -3.0225972789,
				"z": -1.2853752904,
				"element": "H" 
			},
			{
				"x": -3.26850818,
				"y": -1.7176152596,
				"z": -2.1338704379,
				"element": "H" 
			},
			{
				"x": -1.4372055516,
				"y": -3.8387021197,
				"z": -3.3734756084,
				"element": "H" 
			},
			{
				"x": -3.0170070291,
				"y": -3.3009700246,
				"z": -3.9659550759,
				"element": "H" 
			},
			{
				"x": -0.73681496,
				"y": -2.1941156912,
				"z": -5.0387822592,
				"element": "H" 
			},
			{
				"x": -2.1066357729,
				"y": -1.1296904182,
				"z": -4.6427314553,
				"element": "H" 
			},
			{
				"x": 0.4297187938,
				"y": 0.4981423784,
				"z": -0.3185943913,
				"element": "H" 
			},
			{
				"x": -0.4944198746,
				"y": -0.3630595752,
				"z": 4.4605901656,
				"element": "H" 
			},
			{
				"x": -0.3292505913,
				"y": 3.9240194975,
				"z": 4.4405300695,
				"element": "H" 
			}
		],
		 "valence_orbital": [ 
			{
				"type": "occ",
				"energy": -0.29353,
				"method": "rhf"
			},
			{
				"type": "occ",
				"energy": -0.28434,
				"method": "rhf"
			},
			{
				"type": "occ",
				"energy": -0.27082,
				"method": "rhf"
			},
			{
				"type": "occ",
				"energy": -0.26344,
				"method": "rhf"
			},
			{
				"type": "occ",
				"energy": -0.24037,
				"method": "rhf"
			},
			{
				"type": "unocc",
				"energy": -0.0863,
				"method": "rhf"
			},
			{
				"type": "unocc",
				"energy": -0.03726,
				"method": "rhf"
			},
			{
				"type": "unocc",
				"energy": -0.01186,
				"method": "rhf"
			},
			{
				"type": "unocc",
				"energy": 0.03255,
				"method": "rhf"
			},
			{
				"type": "unocc",
				"energy": 0.06109,
				"method": "rhf"
			}
		],
		"cosmo_sigma_profile": { 
			"-0.025": 0.0,
			"-0.024": 0.0,
			"-0.023": 0.0,
			"-0.022": 0.0,
			"-0.021": 0.0,
			"-0.02": 0.0,
			"-0.019": 0.368466235928,
			"-0.018": 0.83234319138,
			"-0.017": 1.32450407719,
			"-0.016": 0.796782498687,
			"-0.015": 0.569453445659,
			"-0.014": 0.337862074541,
			"-0.013": 0.572464243394,
			"-0.012": 0.633065916263,
			"-0.011": 1.37672818805,
			"-0.01": 0.931354193333,
			"-0.009": 1.34039011664,
			"-0.008": 2.16052376991,
			"-0.007": 5.5611290821,
			"-0.006": 10.9340586721,
			"-0.005": 17.8411645222,
			"-0.004": 31.1946947654,
			"-0.003": 41.2296705022,
			"-0.002": 31.8327156662,
			"-0.001": 31.252300839,
			"0.0": 25.2086412196,
			"0.001": 13.06603975,
			"0.002": 10.137629609,
			"0.003": 8.93248468195,
			"0.004": 10.1208264584,
			"0.005": 9.10016721681,
			"0.006": 10.8322892262,
			"0.007": 14.7886058575,
			"0.008": 11.8601520025,
			"0.009": 7.97513443573,
			"0.01": 6.17275852305,
			"0.011": 6.66729689657,
			"0.012": 2.70793929405,
			"0.013": 1.34899241796,
			"0.014": 0.434077795269,
			"0.015": 0.0,
			"0.016": 0.0,
			"0.017": 0.0,
			"0.018": 0.0,
			"0.019": 0.0,
			"0.02": 0.0,
			"0.021": 0.0,
			"0.022": 0.0,
			"0.023": 0.0,
			"0.024": 0.0,
			"0.025": 0.0
		}
	}
}
