{
	 "smiles": "OC1=C(C=O)C=C2OCOC2=C1", 
	 "Tm": 388.15, 
	 "num_atms": 18, 
	 "gaussian": { 
		 "optdone": 1, 
		 "sigma_profile": "yes", 
		 "theory": "DFT", 
		 "functional": "B3LYP", 
		 "basiset": "6-31G**", 
		 "properties": { 
			 "R2extent": 3367.8998, 
			 "electric_dipole_moment_norm": 2.87195905611, 
			 "electric_quadrupole_moment_norm": 15.0963940791, 
			 "total_energy": -609.317885112, 
			 "HOMO_LUMO_gap": 0.15555, 
			 "cosmo_polarized_energy": -13.32, 
			 "cosmo_cavitation_energy": 22.65, 
			 "cosmo_dispersion_energy": -17.46, 
			 "cosmo_repulsion_energy": 1.37, 
			 "cosmo_total_nonelectrostatic_energy": 6.57, 
			 "SMD_solvation_energy": 5.96 
		},
		"coords": [
			{
				"x": 0.1029778857,
				"y": 3.1099446825,
				"z": -0.1375222942,
				"element": "O" 
			},
			{
				"x": 0.936584813,
				"y": 2.0421264821,
				"z": -0.0005591508,
				"element": "C" 
			},
			{
				"x": 1.1773163009,
				"y": 1.0882561681,
				"z": -1.0165796616,
				"element": "C" 
			},
			{
				"x": 0.5402528443,
				"y": 1.1658104455,
				"z": -2.331759974,
				"element": "C" 
			},
			{
				"x": 0.7112102217,
				"y": 0.3720149271,
				"z": -3.242336514,
				"element": "O" 
			},
			{
				"x": 2.0678184413,
				"y": 0.0030985009,
				"z": -0.7781492233,
				"element": "C" 
			},
			{
				"x": 2.6672152086,
				"y": -0.0762731737,
				"z": 0.4471883025,
				"element": "C" 
			},
			{
				"x": 3.5565719353,
				"y": -1.0133618742,
				"z": 0.9245500804,
				"element": "O" 
			},
			{
				"x": 3.8682695807,
				"y": -0.6259074432,
				"z": 2.2615815451,
				"element": "C" 
			},
			{
				"x": 3.1323108859,
				"y": 0.5749279428,
				"z": 2.5622887503,
				"element": "O" 
			},
			{
				"x": 2.4183033069,
				"y": 0.8777636459,
				"z": 1.4444451454,
				"element": "C" 
			},
			{
				"x": 1.5652001188,
				"y": 1.942480612,
				"z": 1.2571822874,
				"element": "C" 
			},
			{
				"x": -0.2943267136,
				"y": 3.1201598647,
				"z": -1.0175102681,
				"element": "H" 
			},
			{
				"x": -0.1532211942,
				"y": 2.0266580679,
				"z": -2.4953545985,
				"element": "H" 
			},
			{
				"x": 2.2378514786,
				"y": -0.7160678027,
				"z": -1.5703839576,
				"element": "H" 
			},
			{
				"x": 4.9411906289,
				"y": -0.4182921814,
				"z": 2.3500068388,
				"element": "H" 
			},
			{
				"x": 3.5644371406,
				"y": -1.4147689512,
				"z": 2.9597674804,
				"element": "H" 
			},
			{
				"x": 1.3714371166,
				"y": 2.680330087,
				"z": 2.0254452119,
				"element": "H" 
			}
		],
		 "valence_orbital": [ 
			{
				"type": "occ",
				"energy": -0.36383,
				"method": "rhf"
			},
			{
				"type": "occ",
				"energy": -0.30024,
				"method": "rhf"
			},
			{
				"type": "occ",
				"energy": -0.25598,
				"method": "rhf"
			},
			{
				"type": "occ",
				"energy": -0.25491,
				"method": "rhf"
			},
			{
				"type": "occ",
				"energy": -0.21438,
				"method": "rhf"
			},
			{
				"type": "unocc",
				"energy": -0.05883,
				"method": "rhf"
			},
			{
				"type": "unocc",
				"energy": -0.00145,
				"method": "rhf"
			},
			{
				"type": "unocc",
				"energy": 0.04594,
				"method": "rhf"
			},
			{
				"type": "unocc",
				"energy": 0.04844,
				"method": "rhf"
			},
			{
				"type": "unocc",
				"energy": 0.0884,
				"method": "rhf"
			}
		],
		"cosmo_sigma_profile": { 
			"-0.025": 0.0,
			"-0.024": 0.0,
			"-0.023": 0.0,
			"-0.022": 0.0,
			"-0.021": 0.0,
			"-0.02": 0.0,
			"-0.019": 0.0954483130289,
			"-0.018": 0.925530503808,
			"-0.017": 1.32477813718,
			"-0.016": 0.510433430886,
			"-0.015": 1.29405632494,
			"-0.014": 1.16657120169,
			"-0.013": 0.705478051658,
			"-0.012": 1.23758575344,
			"-0.011": 1.60822315116,
			"-0.01": 0.957191258436,
			"-0.009": 1.32882763516,
			"-0.008": 9.19008281236,
			"-0.007": 9.61159252434,
			"-0.006": 10.2365872572,
			"-0.005": 7.41166719063,
			"-0.004": 6.3198326739,
			"-0.003": 6.55811209751,
			"-0.002": 8.52160586093,
			"-0.001": 9.37843799572,
			"0.0": 11.3599432432,
			"0.001": 17.3720127747,
			"0.002": 18.7381897691,
			"0.003": 8.14858050838,
			"0.004": 6.53279291354,
			"0.005": 6.04787503377,
			"0.006": 4.49485408695,
			"0.007": 5.71212864333,
			"0.008": 6.9137844159,
			"0.009": 4.86962274879,
			"0.01": 3.86597204089,
			"0.011": 3.62103408296,
			"0.012": 4.45374038731,
			"0.013": 1.47187569293,
			"0.014": 0.179153296335,
			"0.015": 0.0,
			"0.016": 0.0,
			"0.017": 0.0,
			"0.018": 0.0,
			"0.019": 0.0,
			"0.02": 0.0,
			"0.021": 0.0,
			"0.022": 0.0,
			"0.023": 0.0,
			"0.024": 0.0,
			"0.025": 0.0
		}
	}
}
