{
	 "smiles": "CCC(C(CC)C1=CC=C(O)C(C)=C1)C1=CC(C)=C(O)C=C1", 
	 "Tm": 418.15, 
	 "num_atms": 48, 
	 "gaussian": { 
		 "optdone": 1, 
		 "sigma_profile": "yes", 
		 "theory": "DFT", 
		 "functional": "B3LYP", 
		 "basiset": "6-31G**", 
		 "properties": { 
			 "R2extent": 7661.0924, 
			 "electric_dipole_moment_norm": 1.90022157392, 
			 "electric_quadrupole_moment_norm": 12.024022789, 
			 "total_energy": -928.261664429, 
			 "HOMO_LUMO_gap": 0.20512, 
			 "cosmo_polarized_energy": -14.28, 
			 "cosmo_cavitation_energy": 47.02, 
			 "cosmo_dispersion_energy": -31.25, 
			 "cosmo_repulsion_energy": 2.43, 
			 "cosmo_total_nonelectrostatic_energy": 18.19, 
			 "SMD_solvation_energy": 8.26 
		},
		"coords": [
			{
				"x": 1.6233550708,
				"y": 0.9215234879,
				"z": -1.869240252,
				"element": "C" 
			},
			{
				"x": 0.3568926775,
				"y": 1.7659014906,
				"z": -1.6520174032,
				"element": "C" 
			},
			{
				"x": -0.580245231,
				"y": 1.4788252924,
				"z": -0.4477457771,
				"element": "C" 
			},
			{
				"x": 0.0973880002,
				"y": 1.4044138521,
				"z": 0.9757657925,
				"element": "C" 
			},
			{
				"x": 0.8726896469,
				"y": 2.6988666422,
				"z": 1.3147778928,
				"element": "C" 
			},
			{
				"x": 0.0151167599,
				"y": 3.9697942023,
				"z": 1.359407536,
				"element": "C" 
			},
			{
				"x": 0.9021287839,
				"y": 0.1354737861,
				"z": 1.2754808159,
				"element": "C" 
			},
			{
				"x": 0.2352739806,
				"y": -1.0667079382,
				"z": 1.5505750837,
				"element": "C" 
			},
			{
				"x": 0.9377788986,
				"y": -2.2305627269,
				"z": 1.8602537687,
				"element": "C" 
			},
			{
				"x": 2.3318061895,
				"y": -2.2171744401,
				"z": 1.9141159112,
				"element": "C" 
			},
			{
				"x": 3.0701554015,
				"y": -3.3332735017,
				"z": 2.2159425616,
				"element": "O" 
			},
			{
				"x": 3.0390297512,
				"y": -1.0295319309,
				"z": 1.6677587421,
				"element": "C" 
			},
			{
				"x": 4.5445724721,
				"y": -1.0183782269,
				"z": 1.7480828443,
				"element": "C" 
			},
			{
				"x": 2.303785356,
				"y": 0.1177674551,
				"z": 1.3579655697,
				"element": "C" 
			},
			{
				"x": -1.5922998505,
				"y": 0.3545269743,
				"z": -0.6742417513,
				"element": "C" 
			},
			{
				"x": -1.3903554496,
				"y": -0.7289888117,
				"z": -1.5413428307,
				"element": "C" 
			},
			{
				"x": -2.3384461544,
				"y": -1.7389201573,
				"z": -1.732593097,
				"element": "C" 
			},
			{
				"x": -2.0975813777,
				"y": -2.8923156486,
				"z": -2.6730681631,
				"element": "C" 
			},
			{
				"x": -3.5444644886,
				"y": -1.6578400545,
				"z": -1.0183170745,
				"element": "C" 
			},
			{
				"x": -4.4584485136,
				"y": -2.6609942003,
				"z": -1.2184814362,
				"element": "O" 
			},
			{
				"x": -3.7818641137,
				"y": -0.5872304342,
				"z": -0.1543156216,
				"element": "C" 
			},
			{
				"x": -2.8170179923,
				"y": 0.4061431061,
				"z": 0.0056908717,
				"element": "C" 
			},
			{
				"x": 2.3884106062,
				"y": 1.1333301783,
				"z": -1.1202383413,
				"element": "H" 
			},
			{
				"x": 1.4399915065,
				"y": -0.1546706141,
				"z": -1.8327422221,
				"element": "H" 
			},
			{
				"x": 2.052962679,
				"y": 1.1536598564,
				"z": -2.8503085084,
				"element": "H" 
			},
			{
				"x": 0.6708688909,
				"y": 2.8152736973,
				"z": -1.584999836,
				"element": "H" 
			},
			{
				"x": -0.266407532,
				"y": 1.7100799744,
				"z": -2.5531993539,
				"element": "H" 
			},
			{
				"x": -1.2040458431,
				"y": 2.3797351336,
				"z": -0.3829204862,
				"element": "H" 
			},
			{
				"x": -0.7529380497,
				"y": 1.3771225518,
				"z": 1.6722477406,
				"element": "H" 
			},
			{
				"x": 1.3414499848,
				"y": 2.5606584574,
				"z": 2.296382029,
				"element": "H" 
			},
			{
				"x": 1.6965811992,
				"y": 2.849699983,
				"z": 0.6066795157,
				"element": "H" 
			},
			{
				"x": -0.375759038,
				"y": 4.2477109458,
				"z": 0.3754518242,
				"element": "H" 
			},
			{
				"x": -0.8401197949,
				"y": 3.8479337222,
				"z": 2.0346225532,
				"element": "H" 
			},
			{
				"x": 0.604093317,
				"y": 4.817849519,
				"z": 1.7240061121,
				"element": "H" 
			},
			{
				"x": -0.8487830174,
				"y": -1.0992635001,
				"z": 1.5291244498,
				"element": "H" 
			},
			{
				"x": 0.3967886603,
				"y": -3.1519465853,
				"z": 2.0697357823,
				"element": "H" 
			},
			{
				"x": 2.4682178053,
				"y": -4.0740288958,
				"z": 2.3630885432,
				"element": "H" 
			},
			{
				"x": 4.9405719858,
				"y": -0.0208521479,
				"z": 1.5390937948,
				"element": "H" 
			},
			{
				"x": 4.893522738,
				"y": -1.3262837107,
				"z": 2.7402416499,
				"element": "H" 
			},
			{
				"x": 4.9871319463,
				"y": -1.7205739191,
				"z": 1.0324750441,
				"element": "H" 
			},
			{
				"x": 2.8642721521,
				"y": 1.0309911451,
				"z": 1.1825126085,
				"element": "H" 
			},
			{
				"x": -0.4657639686,
				"y": -0.803136566,
				"z": -2.1022367227,
				"element": "H" 
			},
			{
				"x": -1.1188574953,
				"y": -2.8082775583,
				"z": -3.152647649,
				"element": "H" 
			},
			{
				"x": -2.1409339156,
				"y": -3.8519945057,
				"z": -2.1457082889,
				"element": "H" 
			},
			{
				"x": -2.8631595957,
				"y": -2.9343494141,
				"z": -3.4560180343,
				"element": "H" 
			},
			{
				"x": -5.2411539493,
				"y": -2.4824658045,
				"z": -0.6816878404,
				"element": "H" 
			},
			{
				"x": -4.7269306234,
				"y": -0.5228978663,
				"z": 0.3824733637,
				"element": "H" 
			},
			{
				"x": -3.0275604659,
				"y": 1.2398777057,
				"z": 0.6718182886,
				"element": "H" 
			}
		],
		 "valence_orbital": [ 
			{
				"type": "occ",
				"energy": -0.29585,
				"method": "rhf"
			},
			{
				"type": "occ",
				"energy": -0.23936,
				"method": "rhf"
			},
			{
				"type": "occ",
				"energy": -0.23204,
				"method": "rhf"
			},
			{
				"type": "occ",
				"energy": -0.20643,
				"method": "rhf"
			},
			{
				"type": "occ",
				"energy": -0.20221,
				"method": "rhf"
			},
			{
				"type": "unocc",
				"energy": 0.00291,
				"method": "rhf"
			},
			{
				"type": "unocc",
				"energy": 0.01285,
				"method": "rhf"
			},
			{
				"type": "unocc",
				"energy": 0.01721,
				"method": "rhf"
			},
			{
				"type": "unocc",
				"energy": 0.02415,
				"method": "rhf"
			},
			{
				"type": "unocc",
				"energy": 0.07222,
				"method": "rhf"
			}
		],
		"cosmo_sigma_profile": { 
			"-0.025": 0.0,
			"-0.024": 0.0,
			"-0.023": 0.0,
			"-0.022": 0.0,
			"-0.021": 0.0,
			"-0.02": 0.0,
			"-0.019": 0.0,
			"-0.018": 0.175422290267,
			"-0.017": 1.67600961707,
			"-0.016": 2.26856433671,
			"-0.015": 2.09826514831,
			"-0.014": 1.77709254381,
			"-0.013": 1.8333241607,
			"-0.012": 2.09993754915,
			"-0.011": 1.77146735239,
			"-0.01": 1.49162812518,
			"-0.009": 2.57085055715,
			"-0.008": 2.28964139318,
			"-0.007": 1.98428829386,
			"-0.006": 3.66383620877,
			"-0.005": 6.00876510942,
			"-0.004": 16.8462905491,
			"-0.003": 31.410811783,
			"-0.002": 41.347693116,
			"-0.001": 41.0532914097,
			"0.0": 46.2491590372,
			"0.001": 41.9833437256,
			"0.002": 23.6422186248,
			"0.003": 17.3248416092,
			"0.004": 20.5059091162,
			"0.005": 16.0021879704,
			"0.006": 14.8738967283,
			"0.007": 10.5250206544,
			"0.008": 3.08801450095,
			"0.009": 3.63534101253,
			"0.01": 3.11551744929,
			"0.011": 3.41039978094,
			"0.012": 0.259159389319,
			"0.013": 0.0,
			"0.014": 0.0,
			"0.015": 0.0,
			"0.016": 0.0,
			"0.017": 0.0,
			"0.018": 0.0,
			"0.019": 0.0,
			"0.02": 0.0,
			"0.021": 0.0,
			"0.022": 0.0,
			"0.023": 0.0,
			"0.024": 0.0,
			"0.025": 0.0
		}
	}
}
