{
	 "smiles": "COC(=O)C1=CC=C(C=C1)C(N)=S", 
	 "Tm": 463.15, 
	 "num_atms": 22, 
	 "gaussian": { 
		 "optdone": 1, 
		 "sigma_profile": "yes", 
		 "theory": "DFT", 
		 "functional": "B3LYP", 
		 "basiset": "6-31G**", 
		 "properties": { 
			 "R2extent": 4480.9746, 
			 "electric_dipole_moment_norm": 5.50181706712, 
			 "electric_quadrupole_moment_norm": 13.0502395304, 
			 "total_energy": -951.788974596, 
			 "HOMO_LUMO_gap": 0.13475, 
			 "cosmo_polarized_energy": -17.98, 
			 "cosmo_cavitation_energy": 28.6, 
			 "cosmo_dispersion_energy": -21.39, 
			 "cosmo_repulsion_energy": 1.65, 
			 "cosmo_total_nonelectrostatic_energy": 8.86, 
			 "SMD_solvation_energy": 5.64 
		},
		"coords": [
			{
				"x": -1.8253517509,
				"y": -4.1722224605,
				"z": 1.1321494038,
				"element": "C" 
			},
			{
				"x": -1.5196029257,
				"y": -2.7686573295,
				"z": 1.1297529819,
				"element": "O" 
			},
			{
				"x": -0.2065008201,
				"y": -2.466065871,
				"z": 1.242344831,
				"element": "C" 
			},
			{
				"x": 0.6644465308,
				"y": -3.3075998681,
				"z": 1.3427667277,
				"element": "O" 
			},
			{
				"x": 0.0419381454,
				"y": -0.9952714774,
				"z": 1.2303178485,
				"element": "C" 
			},
			{
				"x": -0.9930758793,
				"y": -0.0586879624,
				"z": 1.1176438875,
				"element": "C" 
			},
			{
				"x": -0.7022932488,
				"y": 1.3025816384,
				"z": 1.1218927141,
				"element": "C" 
			},
			{
				"x": 0.6260327358,
				"y": 1.7534862589,
				"z": 1.2263663425,
				"element": "C" 
			},
			{
				"x": 1.6587048325,
				"y": 0.806125,
				"z": 1.318415169,
				"element": "C" 
			},
			{
				"x": 1.3684636929,
				"y": -0.5519161989,
				"z": 1.3293642036,
				"element": "C" 
			},
			{
				"x": 0.9417496746,
				"y": 3.2111784078,
				"z": 1.230860709,
				"element": "C" 
			},
			{
				"x": -0.0072092585,
				"y": 3.9985199305,
				"z": 1.787758179,
				"element": "N" 
			},
			{
				"x": 2.3333455903,
				"y": 3.8482892658,
				"z": 0.5701120263,
				"element": "S" 
			},
			{
				"x": -1.3324474723,
				"y": -4.6741777706,
				"z": 0.2959202153,
				"element": "H" 
			},
			{
				"x": -1.494783491,
				"y": -4.6360238351,
				"z": 2.0648316715,
				"element": "H" 
			},
			{
				"x": -2.9088264115,
				"y": -4.2372441507,
				"z": 1.0339829744,
				"element": "H" 
			},
			{
				"x": -2.0172318134,
				"y": -0.399489462,
				"z": 1.0205313765,
				"element": "H" 
			},
			{
				"x": -1.5103300599,
				"y": 2.017360245,
				"z": 0.9980188686,
				"element": "H" 
			},
			{
				"x": 2.6828399494,
				"y": 1.156232294,
				"z": 1.3825132189,
				"element": "H" 
			},
			{
				"x": 2.1576041065,
				"y": -1.2912409782,
				"z": 1.4125961264,
				"element": "H" 
			},
			{
				"x": -0.7413968274,
				"y": 3.609280109,
				"z": 2.3607210434,
				"element": "H" 
			},
			{
				"x": 0.1677247005,
				"y": 4.9917442149,
				"z": 1.8367394813,
				"element": "H" 
			}
		],
		 "valence_orbital": [ 
			{
				"type": "occ",
				"energy": -0.28067,
				"method": "rhf"
			},
			{
				"type": "occ",
				"energy": -0.27351,
				"method": "rhf"
			},
			{
				"type": "occ",
				"energy": -0.27064,
				"method": "rhf"
			},
			{
				"type": "occ",
				"energy": -0.23555,
				"method": "rhf"
			},
			{
				"type": "occ",
				"energy": -0.21277,
				"method": "rhf"
			},
			{
				"type": "unocc",
				"energy": -0.07802,
				"method": "rhf"
			},
			{
				"type": "unocc",
				"energy": -0.022,
				"method": "rhf"
			},
			{
				"type": "unocc",
				"energy": -0.01536,
				"method": "rhf"
			},
			{
				"type": "unocc",
				"energy": 0.05626,
				"method": "rhf"
			},
			{
				"type": "unocc",
				"energy": 0.06878,
				"method": "rhf"
			}
		],
		"cosmo_sigma_profile": { 
			"-0.025": 0.0,
			"-0.024": 0.0,
			"-0.023": 0.0,
			"-0.022": 0.0,
			"-0.021": 0.0,
			"-0.02": 0.0,
			"-0.019": 0.0,
			"-0.018": 0.0,
			"-0.017": 0.0,
			"-0.016": 0.448850898174,
			"-0.015": 2.18034006691,
			"-0.014": 2.43066292372,
			"-0.013": 2.54305236187,
			"-0.012": 2.53037661075,
			"-0.011": 2.75424745018,
			"-0.01": 2.04269044675,
			"-0.009": 1.83603394555,
			"-0.008": 2.55273239723,
			"-0.007": 5.07692771883,
			"-0.006": 11.7249844307,
			"-0.005": 14.1405224219,
			"-0.004": 15.5812958953,
			"-0.003": 15.2541734123,
			"-0.002": 13.5042161445,
			"-0.001": 13.9471477712,
			"0.0": 15.7337214605,
			"0.001": 16.2965836733,
			"0.002": 19.3978689716,
			"0.003": 11.3959759558,
			"0.004": 7.36989429824,
			"0.005": 8.17088733316,
			"0.006": 5.94144900986,
			"0.007": 6.86438352391,
			"0.008": 7.90409545421,
			"0.009": 7.29929052693,
			"0.01": 5.74945582652,
			"0.011": 6.52311848965,
			"0.012": 3.96135213788,
			"0.013": 0.042518576597,
			"0.014": 0.0,
			"0.015": 0.0,
			"0.016": 0.0,
			"0.017": 0.0,
			"0.018": 0.0,
			"0.019": 0.0,
			"0.02": 0.0,
			"0.021": 0.0,
			"0.022": 0.0,
			"0.023": 0.0,
			"0.024": 0.0,
			"0.025": 0.0
		}
	}
}
