{
	 "smiles": "CCCCOC(=O)C=C", 
	 "Tm": 208.85, 
	 "num_atms": 21, 
	 "gaussian": { 
		 "optdone": 1, 
		 "sigma_profile": "yes", 
		 "theory": "DFT", 
		 "functional": "B3LYP", 
		 "basiset": "6-31G**", 
		 "properties": { 
			 "R2extent": 2997.4621, 
			 "electric_dipole_moment_norm": 1.7542534737, 
			 "electric_quadrupole_moment_norm": 12.5342957265, 
			 "total_energy": -424.422417871, 
			 "HOMO_LUMO_gap": 0.22686, 
			 "cosmo_polarized_energy": -6.39, 
			 "cosmo_cavitation_energy": 24.67, 
			 "cosmo_dispersion_energy": -17.34, 
			 "cosmo_repulsion_energy": 1.46, 
			 "cosmo_total_nonelectrostatic_energy": 8.79, 
			 "SMD_solvation_energy": 5.96 
		},
		"coords": [
			{
				"x": 2.5948317012,
				"y": -1.6325609947,
				"z": -2.5433933981,
				"element": "C" 
			},
			{
				"x": 1.4439656863,
				"y": -2.1574079051,
				"z": -1.6771294305,
				"element": "C" 
			},
			{
				"x": 1.8908080436,
				"y": -2.8271199423,
				"z": -0.366765065,
				"element": "C" 
			},
			{
				"x": 2.5649746663,
				"y": -1.8972574055,
				"z": 0.6322611861,
				"element": "C" 
			},
			{
				"x": 1.6048683429,
				"y": -0.8878180885,
				"z": 1.0184380961,
				"element": "O" 
			},
			{
				"x": 2.0551998045,
				"y": 0.0599295327,
				"z": 1.8723351247,
				"element": "C" 
			},
			{
				"x": 3.1891258799,
				"y": 0.091239745,
				"z": 2.308875667,
				"element": "O" 
			},
			{
				"x": 0.9784381085,
				"y": 1.033960148,
				"z": 2.1893156107,
				"element": "C" 
			},
			{
				"x": 1.2073069331,
				"y": 2.0550484659,
				"z": 3.0172075757,
				"element": "C" 
			},
			{
				"x": 2.2178599141,
				"y": -1.2120132764,
				"z": -3.4812208083,
				"element": "H" 
			},
			{
				"x": 3.2982187137,
				"y": -2.4339670489,
				"z": -2.7984167303,
				"element": "H" 
			},
			{
				"x": 3.1612161125,
				"y": -0.8427187112,
				"z": -2.0388593274,
				"element": "H" 
			},
			{
				"x": 0.863976797,
				"y": -2.8876725773,
				"z": -2.2546840715,
				"element": "H" 
			},
			{
				"x": 0.7563968562,
				"y": -1.3375383889,
				"z": -1.4393657835,
				"element": "H" 
			},
			{
				"x": 2.5972859689,
				"y": -3.6390525378,
				"z": -0.5866935967,
				"element": "H" 
			},
			{
				"x": 1.0248596539,
				"y": -3.2905203386,
				"z": 0.1213389354,
				"element": "H" 
			},
			{
				"x": 3.4482783586,
				"y": -1.4024400294,
				"z": 0.2171244444,
				"element": "H" 
			},
			{
				"x": 2.8871500647,
				"y": -2.4372627137,
				"z": 1.5286988589,
				"element": "H" 
			},
			{
				"x": 0.0138622853,
				"y": 0.8704735633,
				"z": 1.718570663,
				"element": "H" 
			},
			{
				"x": 2.1870830463,
				"y": 2.1825355408,
				"z": 3.4678681807,
				"element": "H" 
			},
			{
				"x": 0.4347930626,
				"y": 2.7769629626,
				"z": 3.2613938685,
				"element": "H" 
			}
		],
		 "valence_orbital": [ 
			{
				"type": "occ",
				"energy": -0.33239,
				"method": "rhf"
			},
			{
				"type": "occ",
				"energy": -0.32634,
				"method": "rhf"
			},
			{
				"type": "occ",
				"energy": -0.29523,
				"method": "rhf"
			},
			{
				"type": "occ",
				"energy": -0.28086,
				"method": "rhf"
			},
			{
				"type": "occ",
				"energy": -0.26969,
				"method": "rhf"
			},
			{
				"type": "unocc",
				"energy": -0.04283,
				"method": "rhf"
			},
			{
				"type": "unocc",
				"energy": 0.08593,
				"method": "rhf"
			},
			{
				"type": "unocc",
				"energy": 0.08791,
				"method": "rhf"
			},
			{
				"type": "unocc",
				"energy": 0.11655,
				"method": "rhf"
			},
			{
				"type": "unocc",
				"energy": 0.12162,
				"method": "rhf"
			}
		],
		"cosmo_sigma_profile": { 
			"-0.025": 0.0,
			"-0.024": 0.0,
			"-0.023": 0.0,
			"-0.022": 0.0,
			"-0.021": 0.0,
			"-0.02": 0.0,
			"-0.019": 0.0,
			"-0.018": 0.0,
			"-0.017": 0.0,
			"-0.016": 0.0,
			"-0.015": 0.0,
			"-0.014": 0.0,
			"-0.013": 0.0,
			"-0.012": 0.0,
			"-0.011": 0.0,
			"-0.01": 0.0,
			"-0.009": 0.0,
			"-0.008": 0.220732206867,
			"-0.007": 2.91216064529,
			"-0.006": 4.15267263156,
			"-0.005": 8.54108580939,
			"-0.004": 13.84759778,
			"-0.003": 20.8175163054,
			"-0.002": 26.0157824287,
			"-0.001": 24.4389771775,
			"0.0": 24.2344553966,
			"0.001": 21.2339633667,
			"0.002": 11.6290807214,
			"0.003": 7.86945846112,
			"0.004": 4.99930643607,
			"0.005": 3.63553358066,
			"0.006": 2.90699825444,
			"0.007": 1.83054576829,
			"0.008": 1.94993094058,
			"0.009": 1.58275784157,
			"0.01": 2.14759503229,
			"0.011": 2.29931552985,
			"0.012": 4.87567494147,
			"0.013": 1.14111066415,
			"0.014": 0.0,
			"0.015": 0.0,
			"0.016": 0.0,
			"0.017": 0.0,
			"0.018": 0.0,
			"0.019": 0.0,
			"0.02": 0.0,
			"0.021": 0.0,
			"0.022": 0.0,
			"0.023": 0.0,
			"0.024": 0.0,
			"0.025": 0.0
		}
	}
}
