{
	 "smiles": "CN(C)C(=O)C1=C(C)C=CC(N)=C1", 
	 "Tm": 388.15, 
	 "num_atms": 27, 
	 "gaussian": { 
		 "optdone": 1, 
		 "sigma_profile": "yes", 
		 "theory": "DFT", 
		 "functional": "B3LYP", 
		 "basiset": "6-31G**", 
		 "properties": { 
			 "R2extent": 2939.1063, 
			 "electric_dipole_moment_norm": 4.82890036033, 
			 "electric_quadrupole_moment_norm": 7.83077240507, 
			 "total_energy": -574.246155796, 
			 "HOMO_LUMO_gap": 0.18632, 
			 "cosmo_polarized_energy": -15.03, 
			 "cosmo_cavitation_energy": 29.67, 
			 "cosmo_dispersion_energy": -20.97, 
			 "cosmo_repulsion_energy": 1.68, 
			 "cosmo_total_nonelectrostatic_energy": 10.38, 
			 "SMD_solvation_energy": 5.63 
		},
		"coords": [
			{
				"x": 0.7912623104,
				"y": -0.1428200855,
				"z": 3.460486504,
				"element": "C" 
			},
			{
				"x": 0.7231101472,
				"y": -1.2793006887,
				"z": 2.555762289,
				"element": "N" 
			},
			{
				"x": 0.9505321307,
				"y": -2.5801193233,
				"z": 3.1691909449,
				"element": "C" 
			},
			{
				"x": 0.7098927277,
				"y": -1.1963066971,
				"z": 1.1796928062,
				"element": "C" 
			},
			{
				"x": 0.9154268774,
				"y": -2.1780936511,
				"z": 0.4686683712,
				"element": "O" 
			},
			{
				"x": 0.374626159,
				"y": 0.1370871196,
				"z": 0.5541517562,
				"element": "C" 
			},
			{
				"x": 1.2618567481,
				"y": 0.7268140653,
				"z": -0.3689661607,
				"element": "C" 
			},
			{
				"x": 2.6048727665,
				"y": 0.1156218705,
				"z": -0.6952980822,
				"element": "C" 
			},
			{
				"x": 0.8470403772,
				"y": 1.9137765356,
				"z": -0.982919905,
				"element": "C" 
			},
			{
				"x": -0.3937628012,
				"y": 2.4927125422,
				"z": -0.727047724,
				"element": "C" 
			},
			{
				"x": -1.282787559,
				"y": 1.8920902874,
				"z": 0.1761275757,
				"element": "C" 
			},
			{
				"x": -2.5603290473,
				"y": 2.4177739828,
				"z": 0.3909321828,
				"element": "N" 
			},
			{
				"x": -0.872661381,
				"y": 0.7125331663,
				"z": 0.8169554084,
				"element": "C" 
			},
			{
				"x": -0.0248904816,
				"y": -0.1774484958,
				"z": 4.1941294662,
				"element": "H" 
			},
			{
				"x": 0.7233779089,
				"y": 0.7916818079,
				"z": 2.907437577,
				"element": "H" 
			},
			{
				"x": 1.7402054651,
				"y": -0.153874176,
				"z": 4.0145128148,
				"element": "H" 
			},
			{
				"x": 0.2288151569,
				"y": -2.7429572775,
				"z": 3.9784075208,
				"element": "H" 
			},
			{
				"x": 0.8353490263,
				"y": -3.3486620365,
				"z": 2.4068797274,
				"element": "H" 
			},
			{
				"x": 1.9621664526,
				"y": -2.6468488306,
				"z": 3.5925414848,
				"element": "H" 
			},
			{
				"x": 3.2323539749,
				"y": 0.0053932226,
				"z": 0.1974494412,
				"element": "H" 
			},
			{
				"x": 3.150064847,
				"y": 0.7403442457,
				"z": -1.4083625928,
				"element": "H" 
			},
			{
				"x": 2.4859091819,
				"y": -0.884125687,
				"z": -1.1213359096,
				"element": "H" 
			},
			{
				"x": 1.5158076877,
				"y": 2.3999738479,
				"z": -1.6890792372,
				"element": "H" 
			},
			{
				"x": -0.6808149486,
				"y": 3.4093128176,
				"z": -1.2368652316,
				"element": "H" 
			},
			{
				"x": -2.6523921074,
				"y": 3.4066221847,
				"z": 0.2028149382,
				"element": "H" 
			},
			{
				"x": -2.9866881179,
				"y": 2.1631140253,
				"z": 1.2712400596,
				"element": "H" 
			},
			{
				"x": -1.5465435016,
				"y": 0.2253052278,
				"z": 1.5180939746,
				"element": "H" 
			}
		],
		 "valence_orbital": [ 
			{
				"type": "occ",
				"energy": -0.29601,
				"method": "rhf"
			},
			{
				"type": "occ",
				"energy": -0.25281,
				"method": "rhf"
			},
			{
				"type": "occ",
				"energy": -0.23746,
				"method": "rhf"
			},
			{
				"type": "occ",
				"energy": -0.22984,
				"method": "rhf"
			},
			{
				"type": "occ",
				"energy": -0.19763,
				"method": "rhf"
			},
			{
				"type": "unocc",
				"energy": -0.01131,
				"method": "rhf"
			},
			{
				"type": "unocc",
				"energy": 0.01574,
				"method": "rhf"
			},
			{
				"type": "unocc",
				"energy": 0.04884,
				"method": "rhf"
			},
			{
				"type": "unocc",
				"energy": 0.08022,
				"method": "rhf"
			},
			{
				"type": "unocc",
				"energy": 0.0916,
				"method": "rhf"
			}
		],
		"cosmo_sigma_profile": { 
			"-0.025": 0.0,
			"-0.024": 0.0,
			"-0.023": 0.0,
			"-0.022": 0.0,
			"-0.021": 0.0,
			"-0.02": 0.0,
			"-0.019": 0.0,
			"-0.018": 0.0,
			"-0.017": 0.0,
			"-0.016": 0.0,
			"-0.015": 0.0,
			"-0.014": 0.0,
			"-0.013": 0.213915323425,
			"-0.012": 2.30296887283,
			"-0.011": 2.73834158806,
			"-0.01": 2.82252846826,
			"-0.009": 3.0942882341,
			"-0.008": 3.17102823375,
			"-0.007": 3.54503199351,
			"-0.006": 3.95378036618,
			"-0.005": 10.52494173,
			"-0.004": 23.7360976064,
			"-0.003": 23.6972365797,
			"-0.002": 29.4150808492,
			"-0.001": 22.7288621798,
			"0.0": 14.5931028312,
			"0.001": 15.050570766,
			"0.002": 10.4373064781,
			"0.003": 6.96921877542,
			"0.004": 6.91992456728,
			"0.005": 9.60821194871,
			"0.006": 10.1668292667,
			"0.007": 5.05075255633,
			"0.008": 2.88828441052,
			"0.009": 2.9554093971,
			"0.01": 2.23441558044,
			"0.011": 2.45334889917,
			"0.012": 2.5497883386,
			"0.013": 2.92932932197,
			"0.014": 4.97066644063,
			"0.015": 1.44617855434,
			"0.016": 0.0204304803708,
			"0.017": 0.0,
			"0.018": 0.0,
			"0.019": 0.0,
			"0.02": 0.0,
			"0.021": 0.0,
			"0.022": 0.0,
			"0.023": 0.0,
			"0.024": 0.0,
			"0.025": 0.0
		}
	}
}
