{
	 "smiles": "O=C1CCOC2=C1C=C1OCOC1=C2", 
	 "Tm": 370.15, 
	 "num_atms": 22, 
	 "gaussian": { 
		 "optdone": 1, 
		 "sigma_profile": "yes", 
		 "theory": "DFT", 
		 "functional": "B3LYP", 
		 "basiset": "6-31G**", 
		 "properties": { 
			 "R2extent": 3392.7372, 
			 "electric_dipole_moment_norm": 2.65781130444, 
			 "electric_quadrupole_moment_norm": 21.2068677977, 
			 "total_energy": -686.749942548, 
			 "HOMO_LUMO_gap": 0.15908, 
			 "cosmo_polarized_energy": -11.26, 
			 "cosmo_cavitation_energy": 25.68, 
			 "cosmo_dispersion_energy": -19.94, 
			 "cosmo_repulsion_energy": 1.55, 
			 "cosmo_total_nonelectrostatic_energy": 7.29, 
			 "SMD_solvation_energy": 5.63 
		},
		"coords": [
			{
				"x": -1.7359989851,
				"y": 1.781305767,
				"z": -2.5558597962,
				"element": "O" 
			},
			{
				"x": -1.4522594909,
				"y": 1.521857555,
				"z": -1.3944770945,
				"element": "C" 
			},
			{
				"x": -1.4454189934,
				"y": 2.5893152936,
				"z": -0.3053932921,
				"element": "C" 
			},
			{
				"x": -0.4444826378,
				"y": 2.2350263284,
				"z": 0.7858067129,
				"element": "C" 
			},
			{
				"x": -0.7038833881,
				"y": 0.9363027665,
				"z": 1.34014115,
				"element": "O" 
			},
			{
				"x": -0.8262606274,
				"y": -0.0727148734,
				"z": 0.4322151552,
				"element": "C" 
			},
			{
				"x": -1.1439464961,
				"y": 0.1585533155,
				"z": -0.9227842734,
				"element": "C" 
			},
			{
				"x": -1.2456442086,
				"y": -0.9296251804,
				"z": -1.8290179391,
				"element": "C" 
			},
			{
				"x": -1.0429758934,
				"y": -2.1890102281,
				"z": -1.3326370458,
				"element": "C" 
			},
			{
				"x": -1.0885568258,
				"y": -3.399983801,
				"z": -1.9882474103,
				"element": "O" 
			},
			{
				"x": -0.8059559146,
				"y": -4.397778563,
				"z": -1.0083556239,
				"element": "C" 
			},
			{
				"x": -0.59694592,
				"y": -3.7393652666,
				"z": 0.2538851807,
				"element": "O" 
			},
			{
				"x": -0.7476685993,
				"y": -2.4050604006,
				"z": 0.0209163141,
				"element": "C" 
			},
			{
				"x": -0.6262783355,
				"y": -1.3761882203,
				"z": 0.9296597346,
				"element": "C" 
			},
			{
				"x": -2.456628794,
				"y": 2.6470485562,
				"z": 0.1199307025,
				"element": "H" 
			},
			{
				"x": -1.2191832629,
				"y": 3.5601983723,
				"z": -0.7548118207,
				"element": "H" 
			},
			{
				"x": 0.5787909786,
				"y": 2.2443389622,
				"z": 0.3831369058,
				"element": "H" 
			},
			{
				"x": -0.4917402552,
				"y": 2.926160432,
				"z": 1.6298461494,
				"element": "H" 
			},
			{
				"x": -1.4926000669,
				"y": -0.7302785172,
				"z": -2.8649432763,
				"element": "H" 
			},
			{
				"x": 0.1051799526,
				"y": -4.9430308868,
				"z": -1.2827743951,
				"element": "H" 
			},
			{
				"x": -1.6571890857,
				"y": -5.0831941154,
				"z": -0.9179998655,
				"element": "H" 
			},
			{
				"x": -0.3799531504,
				"y": -1.538677296,
				"z": 1.9713638276,
				"element": "H" 
			}
		],
		 "valence_orbital": [ 
			{
				"type": "occ",
				"energy": -0.33088,
				"method": "rhf"
			},
			{
				"type": "occ",
				"energy": -0.2898,
				"method": "rhf"
			},
			{
				"type": "occ",
				"energy": -0.24909,
				"method": "rhf"
			},
			{
				"type": "occ",
				"energy": -0.24294,
				"method": "rhf"
			},
			{
				"type": "occ",
				"energy": -0.20877,
				"method": "rhf"
			},
			{
				"type": "unocc",
				"energy": -0.04969,
				"method": "rhf"
			},
			{
				"type": "unocc",
				"energy": 0.00136,
				"method": "rhf"
			},
			{
				"type": "unocc",
				"energy": 0.04947,
				"method": "rhf"
			},
			{
				"type": "unocc",
				"energy": 0.08918,
				"method": "rhf"
			},
			{
				"type": "unocc",
				"energy": 0.10122,
				"method": "rhf"
			}
		],
		"cosmo_sigma_profile": { 
			"-0.025": 0.0,
			"-0.024": 0.0,
			"-0.023": 0.0,
			"-0.022": 0.0,
			"-0.021": 0.0,
			"-0.02": 0.0,
			"-0.019": 0.0,
			"-0.018": 0.0,
			"-0.017": 0.0,
			"-0.016": 0.0,
			"-0.015": 0.0,
			"-0.014": 0.0,
			"-0.013": 0.0,
			"-0.012": 0.0,
			"-0.011": 0.0,
			"-0.01": 0.0,
			"-0.009": 0.0256552205609,
			"-0.008": 6.64979598183,
			"-0.007": 10.3663508035,
			"-0.006": 19.9958451785,
			"-0.005": 18.1094641864,
			"-0.004": 14.5586627598,
			"-0.003": 12.3785906918,
			"-0.002": 10.3412771194,
			"-0.001": 9.21932125483,
			"0.0": 10.2215151488,
			"0.001": 15.4896937607,
			"0.002": 20.8950449893,
			"0.003": 11.0073708629,
			"0.004": 5.18673010507,
			"0.005": 4.59536582921,
			"0.006": 7.07037380752,
			"0.007": 4.74196267536,
			"0.008": 5.71930656337,
			"0.009": 5.15602102938,
			"0.01": 3.31183055123,
			"0.011": 2.24576516514,
			"0.012": 4.48485919382,
			"0.013": 2.80961925834,
			"0.014": 0.70472145227,
			"0.015": 0.0,
			"0.016": 0.0,
			"0.017": 0.0,
			"0.018": 0.0,
			"0.019": 0.0,
			"0.02": 0.0,
			"0.021": 0.0,
			"0.022": 0.0,
			"0.023": 0.0,
			"0.024": 0.0,
			"0.025": 0.0
		}
	}
}
