{
	 "smiles": "CCCCCCC=CCC(O)=O", 
	 "Tm": 291.15, 
	 "num_atms": 30, 
	 "gaussian": { 
		 "optdone": 1, 
		 "sigma_profile": "yes", 
		 "theory": "DFT", 
		 "functional": "B3LYP", 
		 "basiset": "6-31G**", 
		 "properties": { 
			 "R2extent": 3925.9901, 
			 "electric_dipole_moment_norm": 5.20673825922, 
			 "electric_quadrupole_moment_norm": 25.8516634964, 
			 "total_energy": -542.366926584, 
			 "HOMO_LUMO_gap": 0.2437, 
			 "cosmo_polarized_energy": -11.77, 
			 "cosmo_cavitation_energy": 32.04, 
			 "cosmo_dispersion_energy": -22.05, 
			 "cosmo_repulsion_energy": 1.83, 
			 "cosmo_total_nonelectrostatic_energy": 11.82, 
			 "SMD_solvation_energy": 6.05 
		},
		"coords": [
			{
				"x": 0.9993459759,
				"y": -1.5923016176,
				"z": 1.7612979435,
				"element": "C" 
			},
			{
				"x": 2.2381028565,
				"y": -1.6260853299,
				"z": 0.8588904042,
				"element": "C" 
			},
			{
				"x": 2.0742731517,
				"y": -2.4802457339,
				"z": -0.4100969735,
				"element": "C" 
			},
			{
				"x": 1.0315169298,
				"y": -2.0149621898,
				"z": -1.4455611564,
				"element": "C" 
			},
			{
				"x": 1.3471527325,
				"y": -0.681820711,
				"z": -2.1590817211,
				"element": "C" 
			},
			{
				"x": 0.7531958191,
				"y": 0.5920409299,
				"z": -1.5135832171,
				"element": "C" 
			},
			{
				"x": -0.7487189091,
				"y": 0.6441738677,
				"z": -1.5825714705,
				"element": "C" 
			},
			{
				"x": -1.5778714192,
				"y": 0.7982776843,
				"z": -0.5408890751,
				"element": "C" 
			},
			{
				"x": -3.0779401093,
				"y": 0.8776032804,
				"z": -0.6443896724,
				"element": "C" 
			},
			{
				"x": -3.6549648963,
				"y": 2.2845835499,
				"z": -0.4169838744,
				"element": "C" 
			},
			{
				"x": -2.858560758,
				"y": 3.3057349487,
				"z": -0.8136500211,
				"element": "O" 
			},
			{
				"x": -4.7504993774,
				"y": 2.4890649659,
				"z": 0.0414649339,
				"element": "O" 
			},
			{
				"x": 0.7137724739,
				"y": -2.6037859883,
				"z": 2.0727008727,
				"element": "H" 
			},
			{
				"x": 0.1343683364,
				"y": -1.1505532167,
				"z": 1.2556455339,
				"element": "H" 
			},
			{
				"x": 1.1860329941,
				"y": -1.0072413716,
				"z": 2.6679418021,
				"element": "H" 
			},
			{
				"x": 2.5302899921,
				"y": -0.6032093803,
				"z": 0.5884834412,
				"element": "H" 
			},
			{
				"x": 3.0820070615,
				"y": -2.0290574132,
				"z": 1.4335073379,
				"element": "H" 
			},
			{
				"x": 3.0484755431,
				"y": -2.5513883335,
				"z": -0.9132810673,
				"element": "H" 
			},
			{
				"x": 1.8193426368,
				"y": -3.5045160504,
				"z": -0.104385082,
				"element": "H" 
			},
			{
				"x": 0.035418876,
				"y": -1.9615093749,
				"z": -0.9885332498,
				"element": "H" 
			},
			{
				"x": 0.9619795624,
				"y": -2.802713403,
				"z": -2.2056657466,
				"element": "H" 
			},
			{
				"x": 0.9769708128,
				"y": -0.7315197813,
				"z": -3.1915329557,
				"element": "H" 
			},
			{
				"x": 2.4348773894,
				"y": -0.5586282953,
				"z": -2.2400831354,
				"element": "H" 
			},
			{
				"x": 1.1589364264,
				"y": 1.4603794933,
				"z": -2.0531522164,
				"element": "H" 
			},
			{
				"x": 1.0785487927,
				"y": 0.6935007388,
				"z": -0.4730517374,
				"element": "H" 
			},
			{
				"x": -1.1816956774,
				"y": 0.5296722298,
				"z": -2.5798192962,
				"element": "H" 
			},
			{
				"x": -1.156595215,
				"y": 0.9038746199,
				"z": 0.4596206829,
				"element": "H" 
			},
			{
				"x": -3.5738500332,
				"y": 0.2209060829,
				"z": 0.0756167761,
				"element": "H" 
			},
			{
				"x": -3.4054473458,
				"y": 0.5635595457,
				"z": -1.6441601699,
				"element": "H" 
			},
			{
				"x": -2.0109646224,
				"y": 2.9377662534,
				"z": -1.1166978899,
				"element": "H" 
			}
		],
		 "valence_orbital": [ 
			{
				"type": "occ",
				"energy": -0.32019,
				"method": "rhf"
			},
			{
				"type": "occ",
				"energy": -0.31621,
				"method": "rhf"
			},
			{
				"type": "occ",
				"energy": -0.30778,
				"method": "rhf"
			},
			{
				"type": "occ",
				"energy": -0.28643,
				"method": "rhf"
			},
			{
				"type": "occ",
				"energy": -0.2537,
				"method": "rhf"
			},
			{
				"type": "unocc",
				"energy": -0.01,
				"method": "rhf"
			},
			{
				"type": "unocc",
				"energy": 0.01867,
				"method": "rhf"
			},
			{
				"type": "unocc",
				"energy": 0.06712,
				"method": "rhf"
			},
			{
				"type": "unocc",
				"energy": 0.08285,
				"method": "rhf"
			},
			{
				"type": "unocc",
				"energy": 0.08662,
				"method": "rhf"
			}
		],
		"cosmo_sigma_profile": { 
			"-0.025": 0.0,
			"-0.024": 0.0,
			"-0.023": 0.0,
			"-0.022": 0.0,
			"-0.021": 0.0,
			"-0.02": 0.0,
			"-0.019": 0.0,
			"-0.018": 0.0,
			"-0.017": 0.0,
			"-0.016": 0.0,
			"-0.015": 0.0,
			"-0.014": 0.0238868809435,
			"-0.013": 0.593290022978,
			"-0.012": 0.803432660295,
			"-0.011": 0.544027297,
			"-0.01": 1.36394975599,
			"-0.009": 1.89851853642,
			"-0.008": 1.32333118211,
			"-0.007": 4.44907484163,
			"-0.006": 6.80484221814,
			"-0.005": 11.098242788,
			"-0.004": 10.9708423323,
			"-0.003": 18.034668923,
			"-0.002": 32.7975507411,
			"-0.001": 36.538479324,
			"0.0": 37.7031000559,
			"0.001": 31.6551772534,
			"0.002": 14.4453928685,
			"0.003": 4.02216391504,
			"0.004": 1.73057389386,
			"0.005": 2.10744810139,
			"0.006": 2.53645956858,
			"0.007": 2.02651629944,
			"0.008": 2.64688395214,
			"0.009": 2.94649893538,
			"0.01": 4.59412799546,
			"0.011": 5.27063451121,
			"0.012": 6.01135265973,
			"0.013": 3.33375580241,
			"0.014": 0.264282275742,
			"0.015": 0.0,
			"0.016": 0.0,
			"0.017": 0.0,
			"0.018": 0.0,
			"0.019": 0.0,
			"0.02": 0.0,
			"0.021": 0.0,
			"0.022": 0.0,
			"0.023": 0.0,
			"0.024": 0.0,
			"0.025": 0.0
		}
	}
}
