{
	 "smiles": "OC(=O)C1=CC=CC=C1OC(F)F", 
	 "Tm": 372.15, 
	 "num_atms": 19, 
	 "gaussian": { 
		 "optdone": 1, 
		 "sigma_profile": "yes", 
		 "theory": "DFT", 
		 "functional": "B3LYP", 
		 "basiset": "6-31G**", 
		 "properties": { 
			 "R2extent": 2677.7685, 
			 "electric_dipole_moment_norm": 3.79280842385, 
			 "electric_quadrupole_moment_norm": 10.4493956557, 
			 "total_energy": -733.823380925, 
			 "HOMO_LUMO_gap": 0.20534, 
			 "cosmo_polarized_energy": -10.23, 
			 "cosmo_cavitation_energy": 24.78, 
			 "cosmo_dispersion_energy": -17.91, 
			 "cosmo_repulsion_energy": 1.38, 
			 "cosmo_total_nonelectrostatic_energy": 8.25, 
			 "SMD_solvation_energy": 6.6 
		},
		"coords": [
			{
				"x": 1.9039005655,
				"y": 0.179377213,
				"z": 2.8495330039,
				"element": "O" 
			},
			{
				"x": 1.6611290056,
				"y": 0.7922619165,
				"z": 1.6648621447,
				"element": "C" 
			},
			{
				"x": 2.1751104488,
				"y": 1.8564766202,
				"z": 1.3797971727,
				"element": "O" 
			},
			{
				"x": 0.7483234003,
				"y": 0.0014646573,
				"z": 0.795703207,
				"element": "C" 
			},
			{
				"x": 0.6278328991,
				"y": -1.3859914254,
				"z": 0.9807393815,
				"element": "C" 
			},
			{
				"x": -0.179372596,
				"y": -2.153184444,
				"z": 0.1463700969,
				"element": "C" 
			},
			{
				"x": -0.8948122813,
				"y": -1.5378773791,
				"z": -0.8832762898,
				"element": "C" 
			},
			{
				"x": -0.8038657291,
				"y": -0.1600801384,
				"z": -1.0717050486,
				"element": "C" 
			},
			{
				"x": 0.010889975,
				"y": 0.6075416848,
				"z": -0.2405353152,
				"element": "C" 
			},
			{
				"x": -0.0209207364,
				"y": 1.9830977125,
				"z": -0.3976426705,
				"element": "O" 
			},
			{
				"x": 0.9238296047,
				"y": 2.5424515673,
				"z": -1.2381281184,
				"element": "C" 
			},
			{
				"x": 0.7303256144,
				"y": 3.8695942379,
				"z": -1.1865558462,
				"element": "F" 
			},
			{
				"x": 0.7017191784,
				"y": 2.1353769095,
				"z": -2.5234759434,
				"element": "F" 
			},
			{
				"x": 2.5343374484,
				"y": 0.7521378635,
				"z": 3.3172401164,
				"element": "H" 
			},
			{
				"x": 1.184352548,
				"y": -1.8523531203,
				"z": 1.7853257921,
				"element": "H" 
			},
			{
				"x": -0.2528446575,
				"y": -3.2250417757,
				"z": 0.3004125773,
				"element": "H" 
			},
			{
				"x": -1.5292418596,
				"y": -2.1284202596,
				"z": -1.5374585139,
				"element": "H" 
			},
			{
				"x": -1.3622639366,
				"y": 0.3454093825,
				"z": -1.8510597387,
				"element": "H" 
			},
			{
				"x": 1.9477711082,
				"y": 2.2913587776,
				"z": -0.9551460078,
				"element": "H" 
			}
		],
		 "valence_orbital": [ 
			{
				"type": "occ",
				"energy": -0.33069,
				"method": "rhf"
			},
			{
				"type": "occ",
				"energy": -0.31525,
				"method": "rhf"
			},
			{
				"type": "occ",
				"energy": -0.28744,
				"method": "rhf"
			},
			{
				"type": "occ",
				"energy": -0.27421,
				"method": "rhf"
			},
			{
				"type": "occ",
				"energy": -0.26377,
				"method": "rhf"
			},
			{
				"type": "unocc",
				"energy": -0.05843,
				"method": "rhf"
			},
			{
				"type": "unocc",
				"energy": -0.02066,
				"method": "rhf"
			},
			{
				"type": "unocc",
				"energy": 0.03877,
				"method": "rhf"
			},
			{
				"type": "unocc",
				"energy": 0.0687,
				"method": "rhf"
			},
			{
				"type": "unocc",
				"energy": 0.08754,
				"method": "rhf"
			}
		],
		"cosmo_sigma_profile": { 
			"-0.025": 0.0,
			"-0.024": 0.0,
			"-0.023": 0.0,
			"-0.022": 0.0,
			"-0.021": 0.0,
			"-0.02": 0.0,
			"-0.019": 0.204272251617,
			"-0.018": 0.889093930879,
			"-0.017": 0.915304049356,
			"-0.016": 1.04110445228,
			"-0.015": 0.623932205178,
			"-0.014": 0.487769326449,
			"-0.013": 0.360590594012,
			"-0.012": 0.786739849685,
			"-0.011": 1.26819851476,
			"-0.01": 0.753898619229,
			"-0.009": 0.837437531012,
			"-0.008": 2.85914612639,
			"-0.007": 8.51330775799,
			"-0.006": 10.2285901853,
			"-0.005": 10.5585717375,
			"-0.004": 8.7583245444,
			"-0.003": 10.1987496886,
			"-0.002": 11.9769134362,
			"-0.001": 10.0312586169,
			"0.0": 10.4009826248,
			"0.001": 16.6735907025,
			"0.002": 20.0313800423,
			"0.003": 23.1278171831,
			"0.004": 19.5464440729,
			"0.005": 6.25831456597,
			"0.006": 5.04953179492,
			"0.007": 4.27860007955,
			"0.008": 5.09197153262,
			"0.009": 1.99925407961,
			"0.01": 2.19972125078,
			"0.011": 2.1724527634,
			"0.012": 0.56387303097,
			"0.013": 0.0,
			"0.014": 0.0,
			"0.015": 0.0,
			"0.016": 0.0,
			"0.017": 0.0,
			"0.018": 0.0,
			"0.019": 0.0,
			"0.02": 0.0,
			"0.021": 0.0,
			"0.022": 0.0,
			"0.023": 0.0,
			"0.024": 0.0,
			"0.025": 0.0
		}
	}
}
