{
	 "smiles": "CCNS(=O)(=O)C1=CC=C(C)C=C1", 
	 "Tm": 337.15, 
	 "num_atms": 26, 
	 "gaussian": { 
		 "optdone": 1, 
		 "sigma_profile": "yes", 
		 "theory": "DFT", 
		 "functional": "B3LYP", 
		 "basiset": "6-31G**", 
		 "properties": { 
			 "R2extent": 3284.1756, 
			 "electric_dipole_moment_norm": 6.23115851187, 
			 "electric_quadrupole_moment_norm": 8.02507027882, 
			 "total_energy": -954.121820507, 
			 "HOMO_LUMO_gap": 0.21993, 
			 "cosmo_polarized_energy": -15.68, 
			 "cosmo_cavitation_energy": 30.64, 
			 "cosmo_dispersion_energy": -22.32, 
			 "cosmo_repulsion_energy": 1.75, 
			 "cosmo_total_nonelectrostatic_energy": 10.07, 
			 "SMD_solvation_energy": 4.04 
		},
		"coords": [
			{
				"x": -0.3592152984,
				"y": -1.9795785676,
				"z": -3.8308891666,
				"element": "C" 
			},
			{
				"x": -0.6413127321,
				"y": -1.5687028481,
				"z": -2.3875924705,
				"element": "C" 
			},
			{
				"x": 0.6241902562,
				"y": -1.371993377,
				"z": -1.6672039218,
				"element": "N" 
			},
			{
				"x": 0.6101138322,
				"y": -1.1886368418,
				"z": 0.0035718338,
				"element": "S" 
			},
			{
				"x": -0.2015497531,
				"y": -2.2871254461,
				"z": 0.5303048873,
				"element": "O" 
			},
			{
				"x": 2.0111106178,
				"y": -0.9865384902,
				"z": 0.3768905017,
				"element": "O" 
			},
			{
				"x": -0.2665614152,
				"y": 0.3399449962,
				"z": 0.3577503399,
				"element": "C" 
			},
			{
				"x": -1.6467379654,
				"y": 0.3160854509,
				"z": 0.568029724,
				"element": "C" 
			},
			{
				"x": -2.3190335445,
				"y": 1.5127485323,
				"z": 0.8147449178,
				"element": "C" 
			},
			{
				"x": -1.634268696,
				"y": 2.7349303194,
				"z": 0.8563382342,
				"element": "C" 
			},
			{
				"x": -2.3718847816,
				"y": 4.029648107,
				"z": 1.0990640152,
				"element": "C" 
			},
			{
				"x": -0.2452685848,
				"y": 2.7287273496,
				"z": 0.6554827849,
				"element": "C" 
			},
			{
				"x": 0.4421320132,
				"y": 1.5435280046,
				"z": 0.40634114,
				"element": "C" 
			},
			{
				"x": 0.2342785765,
				"y": -2.8970334987,
				"z": -3.8629138488,
				"element": "H" 
			},
			{
				"x": -1.2994599935,
				"y": -2.1510760935,
				"z": -4.3635999056,
				"element": "H" 
			},
			{
				"x": 0.1884565845,
				"y": -1.197536524,
				"z": -4.3692333353,
				"element": "H" 
			},
			{
				"x": -1.2709888486,
				"y": -0.6657386764,
				"z": -2.3651077605,
				"element": "H" 
			},
			{
				"x": -1.1803100341,
				"y": -2.3630677009,
				"z": -1.8656058623,
				"element": "H" 
			},
			{
				"x": 1.2576830502,
				"y": -0.6972612294,
				"z": -2.0879994447,
				"element": "H" 
			},
			{
				"x": -2.1749036038,
				"y": -0.6311838934,
				"z": 0.5675676555,
				"element": "H" 
			},
			{
				"x": -3.3916820943,
				"y": 1.4948214516,
				"z": 0.9889517211,
				"element": "H" 
			},
			{
				"x": -1.7677044756,
				"y": 4.7308023793,
				"z": 1.6825110746,
				"element": "H" 
			},
			{
				"x": -3.3108935894,
				"y": 3.8617817691,
				"z": 1.6337099605,
				"element": "H" 
			},
			{
				"x": -2.6182894539,
				"y": 4.5244350326,
				"z": 0.1512710233,
				"element": "H" 
			},
			{
				"x": 0.3061582254,
				"y": 3.664069148,
				"z": 0.7063243091,
				"element": "H" 
			},
			{
				"x": 1.5196417083,
				"y": 1.5393506467,
				"z": 0.2794915932,
				"element": "H" 
			}
		],
		 "valence_orbital": [ 
			{
				"type": "occ",
				"energy": -0.30011,
				"method": "rhf"
			},
			{
				"type": "occ",
				"energy": -0.29694,
				"method": "rhf"
			},
			{
				"type": "occ",
				"energy": -0.28033,
				"method": "rhf"
			},
			{
				"type": "occ",
				"energy": -0.26885,
				"method": "rhf"
			},
			{
				"type": "occ",
				"energy": -0.25461,
				"method": "rhf"
			},
			{
				"type": "unocc",
				"energy": -0.03468,
				"method": "rhf"
			},
			{
				"type": "unocc",
				"energy": -0.02078,
				"method": "rhf"
			},
			{
				"type": "unocc",
				"energy": 0.0613,
				"method": "rhf"
			},
			{
				"type": "unocc",
				"energy": 0.08151,
				"method": "rhf"
			},
			{
				"type": "unocc",
				"energy": 0.09071,
				"method": "rhf"
			}
		],
		"cosmo_sigma_profile": { 
			"-0.025": 0.0,
			"-0.024": 0.0,
			"-0.023": 0.0,
			"-0.022": 0.0,
			"-0.021": 0.0,
			"-0.02": 0.0,
			"-0.019": 0.0,
			"-0.018": 0.0,
			"-0.017": 0.0,
			"-0.016": 0.0,
			"-0.015": 0.0809368019537,
			"-0.014": 0.997082094964,
			"-0.013": 1.08140407949,
			"-0.012": 1.11527104528,
			"-0.011": 1.42688515971,
			"-0.01": 1.17213268454,
			"-0.009": 1.85794761058,
			"-0.008": 1.02330947633,
			"-0.007": 3.22958846431,
			"-0.006": 8.9860106269,
			"-0.005": 16.3301790033,
			"-0.004": 23.1601412551,
			"-0.003": 24.7293291565,
			"-0.002": 25.3400138761,
			"-0.001": 22.7351535423,
			"0.0": 20.5213711005,
			"0.001": 12.3959343859,
			"0.002": 11.543290665,
			"0.003": 14.0606349361,
			"0.004": 8.72198085708,
			"0.005": 2.99433193968,
			"0.006": 3.73041104169,
			"0.007": 4.28972927477,
			"0.008": 4.99557360772,
			"0.009": 3.96508584725,
			"0.01": 6.11121417714,
			"0.011": 9.06632964398,
			"0.012": 6.12643997518,
			"0.013": 0.146194595601,
			"0.014": 0.0,
			"0.015": 0.0,
			"0.016": 0.0,
			"0.017": 0.0,
			"0.018": 0.0,
			"0.019": 0.0,
			"0.02": 0.0,
			"0.021": 0.0,
			"0.022": 0.0,
			"0.023": 0.0,
			"0.024": 0.0,
			"0.025": 0.0
		}
	}
}
