{
	 "smiles": "CC1CCCC(C)(C)C1", 
	 "Tm": 207.45, 
	 "num_atms": 27, 
	 "gaussian": { 
		 "optdone": 1, 
		 "sigma_profile": "yes", 
		 "theory": "DFT", 
		 "functional": "B3LYP", 
		 "basiset": "6-31G**", 
		 "properties": { 
			 "R2extent": 2105.5906, 
			 "electric_dipole_moment_norm": 0.0913214651656, 
			 "electric_quadrupole_moment_norm": 0.538242612583, 
			 "total_energy": -353.832191637, 
			 "HOMO_LUMO_gap": 0.36081, 
			 "cosmo_polarized_energy": -0.68, 
			 "cosmo_cavitation_energy": 25.66, 
			 "cosmo_dispersion_energy": -18.61, 
			 "cosmo_repulsion_energy": 1.51, 
			 "cosmo_total_nonelectrostatic_energy": 8.56, 
			 "SMD_solvation_energy": 3.87 
		},
		"coords": [
			{
				"x": -0.5813166655,
				"y": 0.2504747374,
				"z": 1.1625386968,
				"element": "C" 
			},
			{
				"x": 0.4000315449,
				"y": 0.1267299161,
				"z": -0.008111971,
				"element": "C" 
			},
			{
				"x": 0.2399920619,
				"y": -1.2281887282,
				"z": -0.7431444804,
				"element": "C" 
			},
			{
				"x": 0.7497885447,
				"y": -1.1778182153,
				"z": -2.2028939192,
				"element": "C" 
			},
			{
				"x": 1.8779495287,
				"y": -0.1509877516,
				"z": -2.3618967952,
				"element": "C" 
			},
			{
				"x": 1.3972111201,
				"y": 1.3039897095,
				"z": -2.0781256367,
				"element": "C" 
			},
			{
				"x": 0.8615665922,
				"y": 1.9442371256,
				"z": -3.3725184359,
				"element": "C" 
			},
			{
				"x": 2.5865976459,
				"y": 2.137316856,
				"z": -1.5652157306,
				"element": "C" 
			},
			{
				"x": 0.2607334084,
				"y": 1.2827970391,
				"z": -1.0113660567,
				"element": "C" 
			},
			{
				"x": -0.4852290144,
				"y": -0.5948603104,
				"z": 1.8535050631,
				"element": "H" 
			},
			{
				"x": -0.4111563049,
				"y": 1.1701574343,
				"z": 1.7333847995,
				"element": "H" 
			},
			{
				"x": -1.6178312985,
				"y": 0.2675262876,
				"z": 0.8037351802,
				"element": "H" 
			},
			{
				"x": 1.4165951285,
				"y": 0.1695405324,
				"z": 0.4090112484,
				"element": "H" 
			},
			{
				"x": 0.774678182,
				"y": -2.005002802,
				"z": -0.1823284217,
				"element": "H" 
			},
			{
				"x": -0.8180852936,
				"y": -1.5215451793,
				"z": -0.7362236721,
				"element": "H" 
			},
			{
				"x": 1.0870710055,
				"y": -2.1705632279,
				"z": -2.5218098374,
				"element": "H" 
			},
			{
				"x": -0.0750233379,
				"y": -0.9105786896,
				"z": -2.8757769194,
				"element": "H" 
			},
			{
				"x": 2.6906324878,
				"y": -0.4108478181,
				"z": -1.6702123125,
				"element": "H" 
			},
			{
				"x": 2.3101475842,
				"y": -0.2025676811,
				"z": -3.3689575967,
				"element": "H" 
			},
			{
				"x": 0.071125057,
				"y": 1.3334832383,
				"z": -3.8235919565,
				"element": "H" 
			},
			{
				"x": 0.4392817378,
				"y": 2.9364717593,
				"z": -3.1747205324,
				"element": "H" 
			},
			{
				"x": 1.6589268815,
				"y": 2.0622615212,
				"z": -4.1155340101,
				"element": "H" 
			},
			{
				"x": 2.9448250463,
				"y": 1.7691606589,
				"z": -0.5969442588,
				"element": "H" 
			},
			{
				"x": 2.3087014869,
				"y": 3.190458424,
				"z": -1.4409887629,
				"element": "H" 
			},
			{
				"x": 3.4281175981,
				"y": 2.0940808754,
				"z": -2.2666516271,
				"element": "H" 
			},
			{
				"x": 0.2386643845,
				"y": 2.2459449748,
				"z": -0.4849000418,
				"element": "H" 
			},
			{
				"x": -0.7145951122,
				"y": 1.1903293135,
				"z": -1.510462013,
				"element": "H" 
			}
		],
		 "valence_orbital": [ 
			{
				"type": "occ",
				"energy": -0.32692,
				"method": "rhf"
			},
			{
				"type": "occ",
				"energy": -0.32235,
				"method": "rhf"
			},
			{
				"type": "occ",
				"energy": -0.28946,
				"method": "rhf"
			},
			{
				"type": "occ",
				"energy": -0.28762,
				"method": "rhf"
			},
			{
				"type": "occ",
				"energy": -0.2852,
				"method": "rhf"
			},
			{
				"type": "unocc",
				"energy": 0.07561,
				"method": "rhf"
			},
			{
				"type": "unocc",
				"energy": 0.10361,
				"method": "rhf"
			},
			{
				"type": "unocc",
				"energy": 0.1094,
				"method": "rhf"
			},
			{
				"type": "unocc",
				"energy": 0.12813,
				"method": "rhf"
			},
			{
				"type": "unocc",
				"energy": 0.13951,
				"method": "rhf"
			}
		],
		"cosmo_sigma_profile": { 
			"-0.025": 0.0,
			"-0.024": 0.0,
			"-0.023": 0.0,
			"-0.022": 0.0,
			"-0.021": 0.0,
			"-0.02": 0.0,
			"-0.019": 0.0,
			"-0.018": 0.0,
			"-0.017": 0.0,
			"-0.016": 0.0,
			"-0.015": 0.0,
			"-0.014": 0.0,
			"-0.013": 0.0,
			"-0.012": 0.0,
			"-0.011": 0.0,
			"-0.01": 0.0,
			"-0.009": 0.0,
			"-0.008": 0.0,
			"-0.007": 0.0,
			"-0.006": 0.0,
			"-0.005": 0.0,
			"-0.004": 0.0,
			"-0.003": 1.54500492209,
			"-0.002": 26.5860111522,
			"-0.001": 48.1541547335,
			"0.0": 46.6629833692,
			"0.001": 39.9022726202,
			"0.002": 30.4877524143,
			"0.003": 2.15097049542,
			"0.004": 0.0,
			"0.005": 0.0,
			"0.006": 0.0,
			"0.007": 0.0,
			"0.008": 0.0,
			"0.009": 0.0,
			"0.01": 0.0,
			"0.011": 0.0,
			"0.012": 0.0,
			"0.013": 0.0,
			"0.014": 0.0,
			"0.015": 0.0,
			"0.016": 0.0,
			"0.017": 0.0,
			"0.018": 0.0,
			"0.019": 0.0,
			"0.02": 0.0,
			"0.021": 0.0,
			"0.022": 0.0,
			"0.023": 0.0,
			"0.024": 0.0,
			"0.025": 0.0
		}
	}
}
