{
	 "smiles": "CC1=C(C)C(C)=C(C(O)=O)C(C)=C1C", 
	 "Tm": 483.15, 
	 "num_atms": 30, 
	 "gaussian": { 
		 "optdone": 1, 
		 "sigma_profile": "yes", 
		 "theory": "DFT", 
		 "functional": "B3LYP", 
		 "basiset": "6-31G**", 
		 "properties": { 
			 "R2extent": 3520.0559, 
			 "electric_dipole_moment_norm": 2.04628082628, 
			 "electric_quadrupole_moment_norm": 12.6779940767, 
			 "total_energy": -617.402494402, 
			 "HOMO_LUMO_gap": 0.20644, 
			 "cosmo_polarized_energy": -9.67, 
			 "cosmo_cavitation_energy": 30.82, 
			 "cosmo_dispersion_energy": -22.35, 
			 "cosmo_repulsion_energy": 1.75, 
			 "cosmo_total_nonelectrostatic_energy": 10.21, 
			 "SMD_solvation_energy": 6.09 
		},
		"coords": [
			{
				"x": -1.4422090456,
				"y": -0.0216254671,
				"z": 3.1223387593,
				"element": "C" 
			},
			{
				"x": -1.3087038502,
				"y": -0.1426519072,
				"z": 1.6169887776,
				"element": "C" 
			},
			{
				"x": -1.2586742939,
				"y": -1.4181966682,
				"z": 1.0208576689,
				"element": "C" 
			},
			{
				"x": -1.2691401642,
				"y": -2.6599291295,
				"z": 1.8911568569,
				"element": "C" 
			},
			{
				"x": -1.1976005808,
				"y": -1.5366930501,
				"z": -0.3796544938,
				"element": "C" 
			},
			{
				"x": -1.236180087,
				"y": -2.9099336611,
				"z": -1.02321775,
				"element": "C" 
			},
			{
				"x": -1.1513154493,
				"y": -0.3659041605,
				"z": -1.1613486995,
				"element": "C" 
			},
			{
				"x": -1.0793506537,
				"y": -0.4853488093,
				"z": -2.6544872923,
				"element": "C" 
			},
			{
				"x": 0.0372294882,
				"y": -1.1405661777,
				"z": -3.0676347478,
				"element": "O" 
			},
			{
				"x": -1.8891236349,
				"y": -0.0531397445,
				"z": -3.4496061481,
				"element": "O" 
			},
			{
				"x": -1.1783725175,
				"y": 0.9165881979,
				"z": -0.5784341245,
				"element": "C" 
			},
			{
				"x": -1.1173111271,
				"y": 2.1706351472,
				"z": -1.4289762175,
				"element": "C" 
			},
			{
				"x": -1.2407194607,
				"y": 1.0204410766,
				"z": 0.8248001962,
				"element": "C" 
			},
			{
				"x": -1.2353638858,
				"y": 2.3812285988,
				"z": 1.4941060484,
				"element": "C" 
			},
			{
				"x": -2.0108170415,
				"y": -0.852247197,
				"z": 3.5454673605,
				"element": "H" 
			},
			{
				"x": -1.9538821413,
				"y": 0.898174448,
				"z": 3.4109466674,
				"element": "H" 
			},
			{
				"x": -0.4624460522,
				"y": -0.0150013168,
				"z": 3.6199171015,
				"element": "H" 
			},
			{
				"x": -0.6882030836,
				"y": -2.5124833525,
				"z": 2.8051390953,
				"element": "H" 
			},
			{
				"x": -2.2864177855,
				"y": -2.9391650452,
				"z": 2.1983709131,
				"element": "H" 
			},
			{
				"x": -0.8411835119,
				"y": -3.5211354412,
				"z": 1.3765527789,
				"element": "H" 
			},
			{
				"x": -2.0057857769,
				"y": -3.5360410813,
				"z": -0.5622946511,
				"element": "H" 
			},
			{
				"x": -0.2794272101,
				"y": -3.4354860764,
				"z": -0.9164883476,
				"element": "H" 
			},
			{
				"x": -1.4541872879,
				"y": -2.8613638924,
				"z": -2.0896798939,
				"element": "H" 
			},
			{
				"x": -0.0248073853,
				"y": -1.1759412879,
				"z": -4.0380661845,
				"element": "H" 
			},
			{
				"x": -1.9478458657,
				"y": 2.8449840926,
				"z": -1.1956115189,
				"element": "H" 
			},
			{
				"x": -0.190260934,
				"y": 2.7283066229,
				"z": -1.2488402137,
				"element": "H" 
			},
			{
				"x": -1.1780685247,
				"y": 1.9500095186,
				"z": -2.4925383173,
				"element": "H" 
			},
			{
				"x": -0.8950039433,
				"y": 3.1686775268,
				"z": 0.8222268484,
				"element": "H" 
			},
			{
				"x": -2.2367922222,
				"y": 2.6665008598,
				"z": 1.8433966784,
				"element": "H" 
			},
			{
				"x": -0.5770359715,
				"y": 2.3955073768,
				"z": 2.3677128497,
				"element": "H" 
			}
		],
		 "valence_orbital": [ 
			{
				"type": "occ",
				"energy": -0.32345,
				"method": "rhf"
			},
			{
				"type": "occ",
				"energy": -0.31012,
				"method": "rhf"
			},
			{
				"type": "occ",
				"energy": -0.27142,
				"method": "rhf"
			},
			{
				"type": "occ",
				"energy": -0.22928,
				"method": "rhf"
			},
			{
				"type": "occ",
				"energy": -0.22329,
				"method": "rhf"
			},
			{
				"type": "unocc",
				"energy": -0.01685,
				"method": "rhf"
			},
			{
				"type": "unocc",
				"energy": 0.00393,
				"method": "rhf"
			},
			{
				"type": "unocc",
				"energy": 0.03025,
				"method": "rhf"
			},
			{
				"type": "unocc",
				"energy": 0.08283,
				"method": "rhf"
			},
			{
				"type": "unocc",
				"energy": 0.08991,
				"method": "rhf"
			}
		],
		"cosmo_sigma_profile": { 
			"-0.025": 0.0,
			"-0.024": 0.0,
			"-0.023": 0.0,
			"-0.022": 0.0,
			"-0.021": 0.0,
			"-0.02": 0.0,
			"-0.019": 0.0207738001741,
			"-0.018": 0.562424563152,
			"-0.017": 0.677223877526,
			"-0.016": 0.776532640758,
			"-0.015": 1.14192169478,
			"-0.014": 0.780233621169,
			"-0.013": 0.640240448842,
			"-0.012": 0.500043766784,
			"-0.011": 0.443840726178,
			"-0.01": 0.843035047518,
			"-0.009": 0.449509649469,
			"-0.008": 0.579329575441,
			"-0.007": 0.998352951324,
			"-0.006": 1.26798263562,
			"-0.005": 2.55343472141,
			"-0.004": 18.130031832,
			"-0.003": 32.6130281224,
			"-0.002": 35.6551198321,
			"-0.001": 28.5928219085,
			"0.0": 31.0612382215,
			"0.001": 20.7602380385,
			"0.002": 8.14601258424,
			"0.003": 7.99898866512,
			"0.004": 6.6990524135,
			"0.005": 10.1226362289,
			"0.006": 8.89831278163,
			"0.007": 3.54915987836,
			"0.008": 2.90913657821,
			"0.009": 2.97127500766,
			"0.01": 2.83014048215,
			"0.011": 3.54355446902,
			"0.012": 4.2279621579,
			"0.013": 0.705727599262,
			"0.014": 0.0,
			"0.015": 0.0,
			"0.016": 0.0,
			"0.017": 0.0,
			"0.018": 0.0,
			"0.019": 0.0,
			"0.02": 0.0,
			"0.021": 0.0,
			"0.022": 0.0,
			"0.023": 0.0,
			"0.024": 0.0,
			"0.025": 0.0
		}
	}
}
