{
	 "smiles": "OC(=O)CC1(O)CCCC1", 
	 "Tm": 346.15, 
	 "num_atms": 22, 
	 "gaussian": { 
		 "optdone": 1, 
		 "sigma_profile": "yes", 
		 "theory": "DFT", 
		 "functional": "B3LYP", 
		 "basiset": "6-31G**", 
		 "properties": { 
			 "R2extent": 2056.6553, 
			 "electric_dipole_moment_norm": 1.80818162805, 
			 "electric_quadrupole_moment_norm": 6.02181264986, 
			 "total_energy": -499.665640257, 
			 "HOMO_LUMO_gap": 0.27173, 
			 "cosmo_polarized_energy": -11.86, 
			 "cosmo_cavitation_energy": 23.99, 
			 "cosmo_dispersion_energy": -17.45, 
			 "cosmo_repulsion_energy": 1.43, 
			 "cosmo_total_nonelectrostatic_energy": 7.98, 
			 "SMD_solvation_energy": 4.71 
		},
		"coords": [
			{
				"x": 1.2542560073,
				"y": 2.5922467934,
				"z": -1.77301903,
				"element": "O" 
			},
			{
				"x": 0.1363466758,
				"y": 1.828839812,
				"z": -1.7125874144,
				"element": "C" 
			},
			{
				"x": -0.8995522032,
				"y": 2.1453046884,
				"z": -2.2554514904,
				"element": "O" 
			},
			{
				"x": 0.335841946,
				"y": 0.5795291966,
				"z": -0.8849331344,
				"element": "C" 
			},
			{
				"x": 0.209456318,
				"y": 0.8582686776,
				"z": 0.63301276,
				"element": "C" 
			},
			{
				"x": -0.930422315,
				"y": 1.6920889449,
				"z": 0.8796636714,
				"element": "O" 
			},
			{
				"x": 1.4157042979,
				"y": 1.6038695968,
				"z": 1.2675544125,
				"element": "C" 
			},
			{
				"x": 1.678412625,
				"y": 0.9265035572,
				"z": 2.6411007603,
				"element": "C" 
			},
			{
				"x": 0.4699739792,
				"y": -0.0035298721,
				"z": 2.8737743731,
				"element": "C" 
			},
			{
				"x": 0.0991176692,
				"y": -0.446754242,
				"z": 1.4530975531,
				"element": "C" 
			},
			{
				"x": 1.011031461,
				"y": 3.3854424568,
				"z": -2.2799513171,
				"element": "H" 
			},
			{
				"x": 1.3110783386,
				"y": 0.1331712441,
				"z": -1.1000385826,
				"element": "H" 
			},
			{
				"x": -0.442422239,
				"y": -0.1265301569,
				"z": -1.1920433951,
				"element": "H" 
			},
			{
				"x": -1.6914719369,
				"y": 1.317483152,
				"z": 0.4139051287,
				"element": "H" 
			},
			{
				"x": 1.1478764533,
				"y": 2.6579374915,
				"z": 1.368805022,
				"element": "H" 
			},
			{
				"x": 2.2941735244,
				"y": 1.5560064299,
				"z": 0.6191742243,
				"element": "H" 
			},
			{
				"x": 1.8106067989,
				"y": 1.6534660913,
				"z": 3.447629669,
				"element": "H" 
			},
			{
				"x": 2.5980325541,
				"y": 0.3311177944,
				"z": 2.595743733,
				"element": "H" 
			},
			{
				"x": -0.36461359,
				"y": 0.561778221,
				"z": 3.3011299275,
				"element": "H" 
			},
			{
				"x": 0.692354151,
				"y": -0.8384451763,
				"z": 3.5452093038,
				"element": "H" 
			},
			{
				"x": -0.8974632183,
				"y": -0.8944571016,
				"z": 1.3667142125,
				"element": "H" 
			},
			{
				"x": 0.8270827026,
				"y": -1.181637599,
				"z": 1.0830096129,
				"element": "H" 
			}
		],
		 "valence_orbital": [ 
			{
				"type": "occ",
				"energy": -0.32135,
				"method": "rhf"
			},
			{
				"type": "occ",
				"energy": -0.31578,
				"method": "rhf"
			},
			{
				"type": "occ",
				"energy": -0.30961,
				"method": "rhf"
			},
			{
				"type": "occ",
				"energy": -0.27718,
				"method": "rhf"
			},
			{
				"type": "occ",
				"energy": -0.26427,
				"method": "rhf"
			},
			{
				"type": "unocc",
				"energy": 0.00746,
				"method": "rhf"
			},
			{
				"type": "unocc",
				"energy": 0.06762,
				"method": "rhf"
			},
			{
				"type": "unocc",
				"energy": 0.08374,
				"method": "rhf"
			},
			{
				"type": "unocc",
				"energy": 0.10271,
				"method": "rhf"
			},
			{
				"type": "unocc",
				"energy": 0.10618,
				"method": "rhf"
			}
		],
		"cosmo_sigma_profile": { 
			"-0.025": 0.0,
			"-0.024": 0.0,
			"-0.023": 0.0,
			"-0.022": 0.0,
			"-0.021": 0.0,
			"-0.02": 0.0,
			"-0.019": 0.0,
			"-0.018": 0.442774050546,
			"-0.017": 0.946161607922,
			"-0.016": 0.95948316611,
			"-0.015": 0.774970361216,
			"-0.014": 1.73186943004,
			"-0.013": 1.80359950476,
			"-0.012": 1.13828234792,
			"-0.011": 1.78954533395,
			"-0.01": 1.62843959317,
			"-0.009": 1.43647334379,
			"-0.008": 1.42021052959,
			"-0.007": 2.2302712786,
			"-0.006": 4.33171886828,
			"-0.005": 7.71454776096,
			"-0.004": 8.55893925458,
			"-0.003": 16.684318265,
			"-0.002": 20.7259170065,
			"-0.001": 20.975742754,
			"0.0": 17.7880389325,
			"0.001": 17.9232892678,
			"0.002": 7.84678433211,
			"0.003": 5.19676314388,
			"0.004": 4.0094530514,
			"0.005": 3.21416553036,
			"0.006": 4.96707410218,
			"0.007": 4.9039225268,
			"0.008": 4.61596206914,
			"0.009": 3.62957538334,
			"0.01": 2.59670486099,
			"0.011": 4.04978548205,
			"0.012": 6.40801202319,
			"0.013": 2.0852680373,
			"0.014": 0.81885395013,
			"0.015": 0.000716142824408,
			"0.016": 0.0,
			"0.017": 0.0,
			"0.018": 0.0,
			"0.019": 0.0,
			"0.02": 0.0,
			"0.021": 0.0,
			"0.022": 0.0,
			"0.023": 0.0,
			"0.024": 0.0,
			"0.025": 0.0
		}
	}
}
