{
	 "smiles": "CC(C)C1=CC=C(NCC(=O)N2CCCC2)C=C1", 
	 "Tm": 401.15, 
	 "num_atms": 40, 
	 "gaussian": { 
		 "optdone": 1, 
		 "sigma_profile": "yes", 
		 "theory": "DFT", 
		 "functional": "B3LYP", 
		 "basiset": "6-31G**", 
		 "properties": { 
			 "R2extent": 9358.0453, 
			 "electric_dipole_moment_norm": 5.00143617074, 
			 "electric_quadrupole_moment_norm": 14.7759469466, 
			 "total_energy": -769.614974319, 
			 "HOMO_LUMO_gap": 0.19261, 
			 "cosmo_polarized_energy": -12.6, 
			 "cosmo_cavitation_energy": 41.08, 
			 "cosmo_dispersion_energy": -29.57, 
			 "cosmo_repulsion_energy": 2.31, 
			 "cosmo_total_nonelectrostatic_energy": 13.82, 
			 "SMD_solvation_energy": 5.21 
		},
		"coords": [
			{
				"x": -0.5710946258,
				"y": 5.0982635382,
				"z": -3.9482587846,
				"element": "C" 
			},
			{
				"x": 0.5265894195,
				"y": 4.9165055979,
				"z": -2.8825376784,
				"element": "C" 
			},
			{
				"x": 0.7724894708,
				"y": 6.2316608518,
				"z": -2.1184725826,
				"element": "C" 
			},
			{
				"x": 0.224812447,
				"y": 3.7574147078,
				"z": -1.9428102813,
				"element": "C" 
			},
			{
				"x": 1.0665212646,
				"y": 2.6443761228,
				"z": -1.8709556059,
				"element": "C" 
			},
			{
				"x": 0.8097363322,
				"y": 1.5708635878,
				"z": -1.0155540126,
				"element": "C" 
			},
			{
				"x": -0.3253214521,
				"y": 1.5778374049,
				"z": -0.185242763,
				"element": "C" 
			},
			{
				"x": -0.6362707711,
				"y": 0.5266145385,
				"z": 0.6592511231,
				"element": "N" 
			},
			{
				"x": 0.3096991426,
				"y": -0.4879893381,
				"z": 1.0259629074,
				"element": "C" 
			},
			{
				"x": -0.1955314421,
				"y": -1.1907815334,
				"z": 2.2920675901,
				"element": "C" 
			},
			{
				"x": -1.2023375677,
				"y": -0.7965697027,
				"z": 2.8812610139,
				"element": "O" 
			},
			{
				"x": 0.5303358923,
				"y": -2.2514644923,
				"z": 2.7289932706,
				"element": "N" 
			},
			{
				"x": 1.7711123665,
				"y": -2.7717646599,
				"z": 2.137759033,
				"element": "C" 
			},
			{
				"x": 2.0208084118,
				"y": -4.0676512288,
				"z": 2.9262421699,
				"element": "C" 
			},
			{
				"x": 1.4162970301,
				"y": -3.7647906373,
				"z": 4.3080535615,
				"element": "C" 
			},
			{
				"x": 0.1625002593,
				"y": -2.9448079385,
				"z": 3.9745578363,
				"element": "C" 
			},
			{
				"x": -1.1819244623,
				"y": 2.6971362187,
				"z": -0.2528757245,
				"element": "C" 
			},
			{
				"x": -0.9079492443,
				"y": 3.753612629,
				"z": -1.1103865189,
				"element": "C" 
			},
			{
				"x": -1.5302789595,
				"y": 5.3611767005,
				"z": -3.4881397086,
				"element": "H" 
			},
			{
				"x": -0.3086144797,
				"y": 5.9001140886,
				"z": -4.6479314139,
				"element": "H" 
			},
			{
				"x": -0.7200848378,
				"y": 4.1783571076,
				"z": -4.5222290182,
				"element": "H" 
			},
			{
				"x": 1.4568749413,
				"y": 4.6659996997,
				"z": -3.4104725526,
				"element": "H" 
			},
			{
				"x": 1.0418160876,
				"y": 7.0403975431,
				"z": -2.8075245085,
				"element": "H" 
			},
			{
				"x": 1.5813576242,
				"y": 6.1195036352,
				"z": -1.3896996025,
				"element": "H" 
			},
			{
				"x": -0.1243185987,
				"y": 6.5464028208,
				"z": -1.572950534,
				"element": "H" 
			},
			{
				"x": 1.9528920597,
				"y": 2.608140243,
				"z": -2.5012675435,
				"element": "H" 
			},
			{
				"x": 1.4890646134,
				"y": 0.7244795764,
				"z": -1.0065526626,
				"element": "H" 
			},
			{
				"x": -1.3344226998,
				"y": 0.6780992692,
				"z": 1.3784279907,
				"element": "H" 
			},
			{
				"x": 0.4461736535,
				"y": -1.2305821226,
				"z": 0.2237717739,
				"element": "H" 
			},
			{
				"x": 1.3146345022,
				"y": -0.0755763317,
				"z": 1.2317611106,
				"element": "H" 
			},
			{
				"x": 1.6585606375,
				"y": -2.9527194608,
				"z": 1.0637506658,
				"element": "H" 
			},
			{
				"x": 2.598608361,
				"y": -2.0603873136,
				"z": 2.2722979856,
				"element": "H" 
			},
			{
				"x": 1.4838289007,
				"y": -4.8978426604,
				"z": 2.4539338942,
				"element": "H" 
			},
			{
				"x": 3.0808152375,
				"y": -4.3319641941,
				"z": 2.962347588,
				"element": "H" 
			},
			{
				"x": 2.1137789194,
				"y": -3.1610475805,
				"z": 4.8998196581,
				"element": "H" 
			},
			{
				"x": 1.185381587,
				"y": -4.6659783069,
				"z": 4.8817202698,
				"element": "H" 
			},
			{
				"x": -0.7126455966,
				"y": -3.5852515336,
				"z": 3.8050532907,
				"element": "H" 
			},
			{
				"x": -0.110377629,
				"y": -2.2161700784,
				"z": 4.7416426862,
				"element": "H" 
			},
			{
				"x": -2.066954246,
				"y": 2.7247274075,
				"z": 0.378555621,
				"element": "H" 
			},
			{
				"x": -1.593662549,
				"y": 4.5974558247,
				"z": -1.1284695444,
				"element": "H" 
			}
		],
		 "valence_orbital": [ 
			{
				"type": "occ",
				"energy": -0.27511,
				"method": "rhf"
			},
			{
				"type": "occ",
				"energy": -0.25786,
				"method": "rhf"
			},
			{
				"type": "occ",
				"energy": -0.24511,
				"method": "rhf"
			},
			{
				"type": "occ",
				"energy": -0.23291,
				"method": "rhf"
			},
			{
				"type": "occ",
				"energy": -0.17884,
				"method": "rhf"
			},
			{
				"type": "unocc",
				"energy": 0.01377,
				"method": "rhf"
			},
			{
				"type": "unocc",
				"energy": 0.02375,
				"method": "rhf"
			},
			{
				"type": "unocc",
				"energy": 0.03302,
				"method": "rhf"
			},
			{
				"type": "unocc",
				"energy": 0.06491,
				"method": "rhf"
			},
			{
				"type": "unocc",
				"energy": 0.09481,
				"method": "rhf"
			}
		],
		"cosmo_sigma_profile": { 
			"-0.025": 0.0,
			"-0.024": 0.0,
			"-0.023": 0.0,
			"-0.022": 0.0,
			"-0.021": 0.0,
			"-0.02": 0.0,
			"-0.019": 0.0,
			"-0.018": 0.0,
			"-0.017": 0.0,
			"-0.016": 0.0,
			"-0.015": 0.0,
			"-0.014": 0.0,
			"-0.013": 0.0,
			"-0.012": 0.0,
			"-0.011": 0.0,
			"-0.01": 0.0,
			"-0.009": 0.392638647062,
			"-0.008": 1.29651817872,
			"-0.007": 1.97809343587,
			"-0.006": 6.52418706035,
			"-0.005": 15.9267193866,
			"-0.004": 32.0863864479,
			"-0.003": 44.6178033856,
			"-0.002": 41.246307094,
			"-0.001": 32.1992047763,
			"0.0": 33.3545511806,
			"0.001": 24.3700826655,
			"0.002": 18.984019664,
			"0.003": 9.20305542741,
			"0.004": 7.96628982191,
			"0.005": 9.83052378215,
			"0.006": 9.46586180917,
			"0.007": 10.1656601962,
			"0.008": 7.34786269626,
			"0.009": 1.40372902543,
			"0.01": 2.00607727389,
			"0.011": 2.0740764599,
			"0.012": 1.98866322973,
			"0.013": 3.59126594823,
			"0.014": 2.53640808245,
			"0.015": 0.116617098703,
			"0.016": 0.0,
			"0.017": 0.0,
			"0.018": 0.0,
			"0.019": 0.0,
			"0.02": 0.0,
			"0.021": 0.0,
			"0.022": 0.0,
			"0.023": 0.0,
			"0.024": 0.0,
			"0.025": 0.0
		}
	}
}
