{
	 "smiles": "OC1=C(F)C=C(C=O)C=C1F", 
	 "Tm": 396.15, 
	 "num_atms": 15, 
	 "gaussian": { 
		 "optdone": 1, 
		 "sigma_profile": "yes", 
		 "theory": "DFT", 
		 "functional": "B3LYP", 
		 "basiset": "6-31G**", 
		 "properties": { 
			 "R2extent": 1939.0825, 
			 "electric_dipole_moment_norm": 1.768333153, 
			 "electric_quadrupole_moment_norm": 16.8711798399, 
			 "total_energy": -619.250448317, 
			 "HOMO_LUMO_gap": 0.17913, 
			 "cosmo_polarized_energy": -10.1, 
			 "cosmo_cavitation_energy": 21.3, 
			 "cosmo_dispersion_energy": -15.42, 
			 "cosmo_repulsion_energy": 1.19, 
			 "cosmo_total_nonelectrostatic_energy": 7.07, 
			 "SMD_solvation_energy": 6.17 
		},
		"coords": [
			{
				"x": 2.7018918426,
				"y": 0.0677632171,
				"z": -1.4493374089,
				"element": "O" 
			},
			{
				"x": 1.6628683835,
				"y": -0.1176015808,
				"z": -0.6073335487,
				"element": "C" 
			},
			{
				"x": 0.4426020831,
				"y": -0.6109904124,
				"z": -1.0852191693,
				"element": "C" 
			},
			{
				"x": 0.3408281933,
				"y": -0.8908113576,
				"z": -2.3946155872,
				"element": "F" 
			},
			{
				"x": -0.6350507424,
				"y": -0.8079012105,
				"z": -0.2368364492,
				"element": "C" 
			},
			{
				"x": -0.5103420752,
				"y": -0.5101536685,
				"z": 1.127924908,
				"element": "C" 
			},
			{
				"x": -1.657543845,
				"y": -0.7189439454,
				"z": 2.0355544847,
				"element": "C" 
			},
			{
				"x": -1.6401624183,
				"y": -0.4880642985,
				"z": 3.2298108872,
				"element": "O" 
			},
			{
				"x": 0.7006099472,
				"y": -0.0140264913,
				"z": 1.6369952908,
				"element": "C" 
			},
			{
				"x": 1.7499669578,
				"y": 0.1687584655,
				"z": 0.7631429166,
				"element": "C" 
			},
			{
				"x": 2.9494109897,
				"y": 0.6447690858,
				"z": 1.1855845512,
				"element": "F" 
			},
			{
				"x": 3.4455400095,
				"y": 0.4109726445,
				"z": -0.9307687542,
				"element": "H" 
			},
			{
				"x": -1.564676434,
				"y": -1.1921255662,
				"z": -0.6453608748,
				"element": "H" 
			},
			{
				"x": -2.5719370352,
				"y": -1.1137284009,
				"z": 1.5405189917,
				"element": "H" 
			},
			{
				"x": 0.7962941435,
				"y": 0.2158835192,
				"z": 2.6920397621,
				"element": "H" 
			}
		],
		 "valence_orbital": [ 
			{
				"type": "occ",
				"energy": -0.3843,
				"method": "rhf"
			},
			{
				"type": "occ",
				"energy": -0.3488,
				"method": "rhf"
			},
			{
				"type": "occ",
				"energy": -0.27052,
				"method": "rhf"
			},
			{
				"type": "occ",
				"energy": -0.26369,
				"method": "rhf"
			},
			{
				"type": "occ",
				"energy": -0.24887,
				"method": "rhf"
			},
			{
				"type": "unocc",
				"energy": -0.06974,
				"method": "rhf"
			},
			{
				"type": "unocc",
				"energy": -0.01989,
				"method": "rhf"
			},
			{
				"type": "unocc",
				"energy": 0.03757,
				"method": "rhf"
			},
			{
				"type": "unocc",
				"energy": 0.04027,
				"method": "rhf"
			},
			{
				"type": "unocc",
				"energy": 0.09793,
				"method": "rhf"
			}
		],
		"cosmo_sigma_profile": { 
			"-0.025": 0.0,
			"-0.024": 0.0,
			"-0.023": 0.0,
			"-0.022": 0.0,
			"-0.021": 0.0,
			"-0.02": 0.0,
			"-0.019": 0.0,
			"-0.018": 0.379138031734,
			"-0.017": 0.356023030627,
			"-0.016": 1.10050154986,
			"-0.015": 0.916892494831,
			"-0.014": 0.519546839461,
			"-0.013": 0.669279013984,
			"-0.012": 1.12547087165,
			"-0.011": 0.973639175972,
			"-0.01": 0.912009886023,
			"-0.009": 3.27183121371,
			"-0.008": 4.65579162021,
			"-0.007": 6.327750901,
			"-0.006": 6.66126735754,
			"-0.005": 5.53806724053,
			"-0.004": 7.16712519918,
			"-0.003": 7.62310301014,
			"-0.002": 11.5242839233,
			"-0.001": 17.6261304651,
			"0.0": 16.3719478282,
			"0.001": 14.7784394586,
			"0.002": 9.51399465199,
			"0.003": 14.7216359573,
			"0.004": 11.0653358357,
			"0.005": 3.34032211878,
			"0.006": 2.85318233594,
			"0.007": 4.14921181279,
			"0.008": 3.38528100408,
			"0.009": 3.88400866955,
			"0.01": 2.91890403715,
			"0.011": 4.38090486396,
			"0.012": 2.57091562307,
			"0.013": 0.541418719106,
			"0.014": 0.0,
			"0.015": 0.0,
			"0.016": 0.0,
			"0.017": 0.0,
			"0.018": 0.0,
			"0.019": 0.0,
			"0.02": 0.0,
			"0.021": 0.0,
			"0.022": 0.0,
			"0.023": 0.0,
			"0.024": 0.0,
			"0.025": 0.0
		}
	}
}
