{
	 "smiles": "CCC1=CC=C(C=C1)C1=CSC(N)=N1", 
	 "Tm": 394.15, 
	 "num_atms": 26, 
	 "gaussian": { 
		 "optdone": 1, 
		 "sigma_profile": "yes", 
		 "theory": "DFT", 
		 "functional": "B3LYP", 
		 "basiset": "6-31G**", 
		 "properties": { 
			 "R2extent": 4755.0701, 
			 "electric_dipole_moment_norm": 1.57659871242, 
			 "electric_quadrupole_moment_norm": 17.2907240597, 
			 "total_energy": -934.106092245, 
			 "HOMO_LUMO_gap": 0.17082, 
			 "cosmo_polarized_energy": -11.4, 
			 "cosmo_cavitation_energy": 31.34, 
			 "cosmo_dispersion_energy": -23.51, 
			 "cosmo_repulsion_energy": 1.81, 
			 "cosmo_total_nonelectrostatic_energy": 9.64, 
			 "SMD_solvation_energy": 3.86 
		},
		"coords": [
			{
				"x": 1.2483698203,
				"y": 0.3698221208,
				"z": 5.0410527894,
				"element": "C" 
			},
			{
				"x": 1.5879091411,
				"y": 1.5453354356,
				"z": 4.1062974953,
				"element": "C" 
			},
			{
				"x": 1.2025364914,
				"y": 1.2829872123,
				"z": 2.6664835233,
				"element": "C" 
			},
			{
				"x": -0.0641097503,
				"y": 1.6287176319,
				"z": 2.1789471533,
				"element": "C" 
			},
			{
				"x": -0.4355269897,
				"y": 1.3537366014,
				"z": 0.8649909178,
				"element": "C" 
			},
			{
				"x": 0.4545395479,
				"y": 0.7185896978,
				"z": -0.0158546632,
				"element": "C" 
			},
			{
				"x": 1.7273932303,
				"y": 0.3737272949,
				"z": 0.4692018959,
				"element": "C" 
			},
			{
				"x": 2.0903660777,
				"y": 0.6514531032,
				"z": 1.7831094891,
				"element": "C" 
			},
			{
				"x": 0.041845624,
				"y": 0.4390498421,
				"z": -1.4044757515,
				"element": "C" 
			},
			{
				"x": 0.7901990441,
				"y": -0.1873226242,
				"z": -2.36468907,
				"element": "C" 
			},
			{
				"x": -0.0968974865,
				"y": -0.2980857044,
				"z": -3.8631517682,
				"element": "S" 
			},
			{
				"x": -1.4476337546,
				"y": 0.5099142635,
				"z": -3.0533969538,
				"element": "C" 
			},
			{
				"x": -2.5957358676,
				"y": 0.8346809121,
				"z": -3.7422868678,
				"element": "N" 
			},
			{
				"x": -1.2303796364,
				"y": 0.8232139919,
				"z": -1.8128332545,
				"element": "N" 
			},
			{
				"x": 1.768697428,
				"y": -0.541694559,
				"z": 4.72928706,
				"element": "H" 
			},
			{
				"x": 1.5398434871,
				"y": 0.5916260252,
				"z": 6.073278202,
				"element": "H" 
			},
			{
				"x": 0.1743396846,
				"y": 0.1577443496,
				"z": 5.0288238082,
				"element": "H" 
			},
			{
				"x": 1.0766900989,
				"y": 2.4476758166,
				"z": 4.4628219716,
				"element": "H" 
			},
			{
				"x": 2.6632657166,
				"y": 1.7529923584,
				"z": 4.1658175535,
				"element": "H" 
			},
			{
				"x": -0.771668108,
				"y": 2.1263733748,
				"z": 2.8386195872,
				"element": "H" 
			},
			{
				"x": -1.4177943558,
				"y": 1.6308248997,
				"z": 0.4996037239,
				"element": "H" 
			},
			{
				"x": 2.4474328111,
				"y": -0.1099917229,
				"z": -0.1843229047,
				"element": "H" 
			},
			{
				"x": 3.0843444712,
				"y": 0.377953992,
				"z": 2.1300922726,
				"element": "H" 
			},
			{
				"x": 1.7873298071,
				"y": -0.5944571863,
				"z": -2.2970509173,
				"element": "H" 
			},
			{
				"x": -2.8810000928,
				"y": 0.1998261544,
				"z": -4.4743634885,
				"element": "H" 
			},
			{
				"x": -3.3508564396,
				"y": 1.1165067187,
				"z": -3.1305018036,
				"element": "H" 
			}
		],
		 "valence_orbital": [ 
			{
				"type": "occ",
				"energy": -0.27932,
				"method": "rhf"
			},
			{
				"type": "occ",
				"energy": -0.27052,
				"method": "rhf"
			},
			{
				"type": "occ",
				"energy": -0.24352,
				"method": "rhf"
			},
			{
				"type": "occ",
				"energy": -0.23894,
				"method": "rhf"
			},
			{
				"type": "occ",
				"energy": -0.19589,
				"method": "rhf"
			},
			{
				"type": "unocc",
				"energy": -0.02507,
				"method": "rhf"
			},
			{
				"type": "unocc",
				"energy": 0.00579,
				"method": "rhf"
			},
			{
				"type": "unocc",
				"energy": 0.01175,
				"method": "rhf"
			},
			{
				"type": "unocc",
				"energy": 0.02094,
				"method": "rhf"
			},
			{
				"type": "unocc",
				"energy": 0.07133,
				"method": "rhf"
			}
		],
		"cosmo_sigma_profile": { 
			"-0.025": 0.0,
			"-0.024": 0.0,
			"-0.023": 0.0,
			"-0.022": 0.0,
			"-0.021": 0.0,
			"-0.02": 0.0,
			"-0.019": 0.0,
			"-0.018": 0.0,
			"-0.017": 0.0,
			"-0.016": 0.0,
			"-0.015": 0.247438655772,
			"-0.014": 2.0436278587,
			"-0.013": 2.26355147772,
			"-0.012": 2.50424733829,
			"-0.011": 3.28386869045,
			"-0.01": 2.68047739256,
			"-0.009": 2.05610007966,
			"-0.008": 4.37302519106,
			"-0.007": 4.16572956643,
			"-0.006": 4.52100765139,
			"-0.005": 7.58467717652,
			"-0.004": 12.6200283169,
			"-0.003": 19.3892315202,
			"-0.002": 20.8652620793,
			"-0.001": 19.8515853751,
			"0.0": 21.8900692274,
			"0.001": 21.5286769428,
			"0.002": 17.3658590579,
			"0.003": 17.315818897,
			"0.004": 23.8235543698,
			"0.005": 16.2485500207,
			"0.006": 11.7899837377,
			"0.007": 3.36214453327,
			"0.008": 2.0198244521,
			"0.009": 2.86674827866,
			"0.01": 1.99866494538,
			"0.011": 1.87177846976,
			"0.012": 0.642678045511,
			"0.013": 0.0,
			"0.014": 0.0,
			"0.015": 0.0,
			"0.016": 0.0,
			"0.017": 0.0,
			"0.018": 0.0,
			"0.019": 0.0,
			"0.02": 0.0,
			"0.021": 0.0,
			"0.022": 0.0,
			"0.023": 0.0,
			"0.024": 0.0,
			"0.025": 0.0
		}
	}
}
