{
	 "smiles": "CC1=CC(=O)N(O)C(=C1)C1CCCCC1", 
	 "Tm": 417.15, 
	 "num_atms": 32, 
	 "gaussian": { 
		 "optdone": 1, 
		 "sigma_profile": "yes", 
		 "theory": "DFT", 
		 "functional": "B3LYP", 
		 "basiset": "6-31G**", 
		 "properties": { 
			 "R2extent": 4022.8151, 
			 "electric_dipole_moment_norm": 4.16558186692, 
			 "electric_quadrupole_moment_norm": 16.9709514845, 
			 "total_energy": -672.694822133, 
			 "HOMO_LUMO_gap": 0.18108, 
			 "cosmo_polarized_energy": -8.89, 
			 "cosmo_cavitation_energy": 32.28, 
			 "cosmo_dispersion_energy": -23.77, 
			 "cosmo_repulsion_energy": 1.86, 
			 "cosmo_total_nonelectrostatic_energy": 10.37, 
			 "SMD_solvation_energy": 5.98 
		},
		"coords": [
			{
				"x": 1.4839504141,
				"y": 0.6420930784,
				"z": 2.9669657672,
				"element": "C" 
			},
			{
				"x": 1.1580158331,
				"y": 1.1965391557,
				"z": 1.6018028546,
				"element": "C" 
			},
			{
				"x": 1.4820011665,
				"y": 2.4960678731,
				"z": 1.2680927136,
				"element": "C" 
			},
			{
				"x": 1.1794016679,
				"y": 3.0286559949,
				"z": -0.0186044115,
				"element": "C" 
			},
			{
				"x": 1.4021103603,
				"y": 4.1598794059,
				"z": -0.4933344985,
				"element": "O" 
			},
			{
				"x": 0.5275702775,
				"y": 2.1190330178,
				"z": -0.8768930269,
				"element": "N" 
			},
			{
				"x": 0.2505665698,
				"y": 2.6665833665,
				"z": -2.1147434979,
				"element": "O" 
			},
			{
				"x": 0.1920110831,
				"y": 0.831082609,
				"z": -0.6072835633,
				"element": "C" 
			},
			{
				"x": 0.5107299065,
				"y": 0.3628683354,
				"z": 0.6529978072,
				"element": "C" 
			},
			{
				"x": -0.5340167795,
				"y": 0.0634735252,
				"z": -1.6919732714,
				"element": "C" 
			},
			{
				"x": -2.0271866723,
				"y": 0.5103416198,
				"z": -1.7501260641,
				"element": "C" 
			},
			{
				"x": -2.8660592072,
				"y": -0.5115553986,
				"z": -2.5269313323,
				"element": "C" 
			},
			{
				"x": -2.9178048513,
				"y": -1.874951497,
				"z": -1.7938535934,
				"element": "C" 
			},
			{
				"x": -1.6606062452,
				"y": -2.1165675575,
				"z": -0.9264586536,
				"element": "C" 
			},
			{
				"x": -0.4163151787,
				"y": -1.4819620042,
				"z": -1.5645823629,
				"element": "C" 
			},
			{
				"x": 2.1455432002,
				"y": -0.2280305847,
				"z": 2.887146622,
				"element": "H" 
			},
			{
				"x": 0.574995656,
				"y": 0.3081073048,
				"z": 3.4802227728,
				"element": "H" 
			},
			{
				"x": 1.9759078073,
				"y": 1.3871183858,
				"z": 3.5964034653,
				"element": "H" 
			},
			{
				"x": 1.9798912094,
				"y": 3.1595851658,
				"z": 1.9656964256,
				"element": "H" 
			},
			{
				"x": 0.643014133,
				"y": 3.5735586762,
				"z": -1.9496484117,
				"element": "H" 
			},
			{
				"x": 0.2564047213,
				"y": -0.6565149856,
				"z": 0.9137809815,
				"element": "H" 
			},
			{
				"x": -0.0736443839,
				"y": 0.3630122182,
				"z": -2.6393614817,
				"element": "H" 
			},
			{
				"x": -2.0853666101,
				"y": 1.5034478484,
				"z": -2.2031920764,
				"element": "H" 
			},
			{
				"x": -2.4206026539,
				"y": 0.6047406813,
				"z": -0.7300153444,
				"element": "H" 
			},
			{
				"x": -2.4306426104,
				"y": -0.637797428,
				"z": -3.5267426374,
				"element": "H" 
			},
			{
				"x": -3.8793635971,
				"y": -0.1266741111,
				"z": -2.6848002243,
				"element": "H" 
			},
			{
				"x": -3.8095638949,
				"y": -1.925087839,
				"z": -1.1582349177,
				"element": "H" 
			},
			{
				"x": -3.0208832515,
				"y": -2.6805690159,
				"z": -2.5303746106,
				"element": "H" 
			},
			{
				"x": -1.8135892519,
				"y": -1.6915707193,
				"z": 0.0733928907,
				"element": "H" 
			},
			{
				"x": -1.5035767205,
				"y": -3.1908387714,
				"z": -0.779046386,
				"element": "H" 
			},
			{
				"x": 0.4910876041,
				"y": -1.7532138729,
				"z": -1.016161878,
				"element": "H" 
			},
			{
				"x": -0.2910797019,
				"y": -1.8988544769,
				"z": -2.5710400565,
				"element": "H" 
			}
		],
		 "valence_orbital": [ 
			{
				"type": "occ",
				"energy": -0.3079,
				"method": "rhf"
			},
			{
				"type": "occ",
				"energy": -0.30416,
				"method": "rhf"
			},
			{
				"type": "occ",
				"energy": -0.26751,
				"method": "rhf"
			},
			{
				"type": "occ",
				"energy": -0.25868,
				"method": "rhf"
			},
			{
				"type": "occ",
				"energy": -0.21043,
				"method": "rhf"
			},
			{
				"type": "unocc",
				"energy": -0.02935,
				"method": "rhf"
			},
			{
				"type": "unocc",
				"energy": 0.00909,
				"method": "rhf"
			},
			{
				"type": "unocc",
				"energy": 0.07233,
				"method": "rhf"
			},
			{
				"type": "unocc",
				"energy": 0.07544,
				"method": "rhf"
			},
			{
				"type": "unocc",
				"energy": 0.0984,
				"method": "rhf"
			}
		],
		"cosmo_sigma_profile": { 
			"-0.025": 0.0,
			"-0.024": 0.0,
			"-0.023": 0.0,
			"-0.022": 0.0,
			"-0.021": 0.0,
			"-0.02": 0.0,
			"-0.019": 0.0,
			"-0.018": 0.0,
			"-0.017": 0.0,
			"-0.016": 0.0,
			"-0.015": 0.0,
			"-0.014": 0.0,
			"-0.013": 0.0,
			"-0.012": 0.0,
			"-0.011": 0.267059734559,
			"-0.01": 0.622925065174,
			"-0.009": 0.577179582903,
			"-0.008": 0.553145012437,
			"-0.007": 0.931585362054,
			"-0.006": 3.37612150272,
			"-0.005": 9.21492578297,
			"-0.004": 13.2889974187,
			"-0.003": 25.2330474386,
			"-0.002": 37.4675260886,
			"-0.001": 45.5083562265,
			"0.0": 37.5793670392,
			"0.001": 24.2507535293,
			"0.002": 12.7650413787,
			"0.003": 9.99844641304,
			"0.004": 5.0037961017,
			"0.005": 2.93114307131,
			"0.006": 3.60081633045,
			"0.007": 2.96857940765,
			"0.008": 2.46320895354,
			"0.009": 1.55698784693,
			"0.01": 1.35287006919,
			"0.011": 0.98892349276,
			"0.012": 2.11148579283,
			"0.013": 2.57144367348,
			"0.014": 2.78970321748,
			"0.015": 1.78644936076,
			"0.016": 0.103496060497,
			"0.017": 0.0,
			"0.018": 0.0,
			"0.019": 0.0,
			"0.02": 0.0,
			"0.021": 0.0,
			"0.022": 0.0,
			"0.023": 0.0,
			"0.024": 0.0,
			"0.025": 0.0
		}
	}
}
