{
	 "smiles": "CCOC1=CC2=C(OCC(=C2)C(O)=O)C=C1", 
	 "Tm": 460.15, 
	 "num_atms": 28, 
	 "gaussian": { 
		 "optdone": 1, 
		 "sigma_profile": "yes", 
		 "theory": "DFT", 
		 "functional": "B3LYP", 
		 "basiset": "6-31G**", 
		 "properties": { 
			 "R2extent": 5272.8297, 
			 "electric_dipole_moment_norm": 5.26535643998, 
			 "electric_quadrupole_moment_norm": 30.198560823, 
			 "total_energy": -765.384967748, 
			 "HOMO_LUMO_gap": 0.13379, 
			 "cosmo_polarized_energy": -17.21, 
			 "cosmo_cavitation_energy": 31.87, 
			 "cosmo_dispersion_energy": -23.51, 
			 "cosmo_repulsion_energy": 1.84, 
			 "cosmo_total_nonelectrostatic_energy": 10.2, 
			 "SMD_solvation_energy": 6.94 
		},
		"coords": [
			{
				"x": 0.3061460558,
				"y": 2.8641768772,
				"z": 3.1224069567,
				"element": "C" 
			},
			{
				"x": 1.3254543545,
				"y": 2.7404536274,
				"z": 1.9939819843,
				"element": "C" 
			},
			{
				"x": 1.7187308495,
				"y": 1.3881013248,
				"z": 1.7516278981,
				"element": "O" 
			},
			{
				"x": 0.9130577641,
				"y": 0.5660631204,
				"z": 1.0139519406,
				"element": "C" 
			},
			{
				"x": -0.2818069258,
				"y": 0.9377295575,
				"z": 0.3978664117,
				"element": "C" 
			},
			{
				"x": -1.0177991121,
				"y": -0.0023915632,
				"z": -0.3485924906,
				"element": "C" 
			},
			{
				"x": -0.5477491244,
				"y": -1.3239164989,
				"z": -0.4654855151,
				"element": "C" 
			},
			{
				"x": -1.2092389733,
				"y": -2.2475080958,
				"z": -1.2237983904,
				"element": "O" 
			},
			{
				"x": -2.628250045,
				"y": -2.0681981424,
				"z": -1.3458343632,
				"element": "C" 
			},
			{
				"x": -2.9933515919,
				"y": -0.626940665,
				"z": -1.6222064829,
				"element": "C" 
			},
			{
				"x": -2.2271239061,
				"y": 0.3410770786,
				"z": -1.0751080725,
				"element": "C" 
			},
			{
				"x": -4.2687287434,
				"y": -0.3988229962,
				"z": -2.3420576526,
				"element": "C" 
			},
			{
				"x": -4.5051475321,
				"y": 0.8481194308,
				"z": -2.8347066718,
				"element": "O" 
			},
			{
				"x": -5.0944403292,
				"y": -1.2750182414,
				"z": -2.4829956611,
				"element": "O" 
			},
			{
				"x": 0.6588681409,
				"y": -1.6892454718,
				"z": 0.1350352355,
				"element": "C" 
			},
			{
				"x": 1.377466178,
				"y": -0.754093314,
				"z": 0.8689477014,
				"element": "C" 
			},
			{
				"x": -0.632493171,
				"y": 2.3580241511,
				"z": 2.8811448325,
				"element": "H" 
			},
			{
				"x": 0.0858859544,
				"y": 3.9196300744,
				"z": 3.3144994369,
				"element": "H" 
			},
			{
				"x": 0.7040268628,
				"y": 2.4227302739,
				"z": 4.0404333644,
				"element": "H" 
			},
			{
				"x": 2.2547204419,
				"y": 3.2482711235,
				"z": 2.2670429765,
				"element": "H" 
			},
			{
				"x": 0.9619318681,
				"y": 3.2039010246,
				"z": 1.0673397297,
				"element": "H" 
			},
			{
				"x": -0.6680038279,
				"y": 1.9475628182,
				"z": 0.4787221775,
				"element": "H" 
			},
			{
				"x": -3.1231365503,
				"y": -2.4161697637,
				"z": -0.4246702022,
				"element": "H" 
			},
			{
				"x": -2.9481926166,
				"y": -2.7186712244,
				"z": -2.1601887852,
				"element": "H" 
			},
			{
				"x": -2.4882316558,
				"y": 1.3952907638,
				"z": -1.1546138701,
				"element": "H" 
			},
			{
				"x": -3.6913636418,
				"y": 1.3702346125,
				"z": -2.8119274792,
				"element": "H" 
			},
			{
				"x": 1.0173116773,
				"y": -2.7065428034,
				"z": 0.0197557059,
				"element": "H" 
			},
			{
				"x": 2.3124575993,
				"y": -1.0233470786,
				"z": 1.349029285,
				"element": "H" 
			}
		],
		 "valence_orbital": [ 
			{
				"type": "occ",
				"energy": -0.3139,
				"method": "rhf"
			},
			{
				"type": "occ",
				"energy": -0.2872,
				"method": "rhf"
			},
			{
				"type": "occ",
				"energy": -0.27515,
				"method": "rhf"
			},
			{
				"type": "occ",
				"energy": -0.24994,
				"method": "rhf"
			},
			{
				"type": "occ",
				"energy": -0.20705,
				"method": "rhf"
			},
			{
				"type": "unocc",
				"energy": -0.07326,
				"method": "rhf"
			},
			{
				"type": "unocc",
				"energy": -0.0019,
				"method": "rhf"
			},
			{
				"type": "unocc",
				"energy": 0.01897,
				"method": "rhf"
			},
			{
				"type": "unocc",
				"energy": 0.05645,
				"method": "rhf"
			},
			{
				"type": "unocc",
				"energy": 0.07065,
				"method": "rhf"
			}
		],
		"cosmo_sigma_profile": { 
			"-0.025": 0.0,
			"-0.024": 0.0,
			"-0.023": 0.0,
			"-0.022": 0.0,
			"-0.021": 0.0,
			"-0.02": 0.0,
			"-0.019": 0.341331434969,
			"-0.018": 0.76168861458,
			"-0.017": 1.19200758535,
			"-0.016": 1.24290644253,
			"-0.015": 0.611152873733,
			"-0.014": 0.754573095056,
			"-0.013": 1.25541823537,
			"-0.012": 1.18311528504,
			"-0.011": 1.46098578409,
			"-0.01": 1.19394900355,
			"-0.009": 2.23656670487,
			"-0.008": 3.40728431281,
			"-0.007": 5.39661583287,
			"-0.006": 10.8048025302,
			"-0.005": 15.7696139291,
			"-0.004": 21.446393629,
			"-0.003": 20.6891792294,
			"-0.002": 19.3816014907,
			"-0.001": 16.9515889885,
			"0.0": 18.4733854943,
			"0.001": 14.9507251651,
			"0.002": 14.0601748659,
			"0.003": 19.0553743003,
			"0.004": 13.7277519456,
			"0.005": 5.80899111429,
			"0.006": 4.81541163573,
			"0.007": 4.66398689883,
			"0.008": 6.11380160975,
			"0.009": 5.70125279521,
			"0.01": 6.91475871972,
			"0.011": 5.94953495863,
			"0.012": 5.11102149891,
			"0.013": 1.75664418804,
			"0.014": 0.163564777992,
			"0.015": 0.0,
			"0.016": 0.0,
			"0.017": 0.0,
			"0.018": 0.0,
			"0.019": 0.0,
			"0.02": 0.0,
			"0.021": 0.0,
			"0.022": 0.0,
			"0.023": 0.0,
			"0.024": 0.0,
			"0.025": 0.0
		}
	}
}
