{
	 "smiles": "CCOC(=O)C1=NNC(=C1)C(C)C", 
	 "Tm": 348.15, 
	 "num_atms": 27, 
	 "gaussian": { 
		 "optdone": 1, 
		 "sigma_profile": "yes", 
		 "theory": "DFT", 
		 "functional": "B3LYP", 
		 "basiset": "6-31G**", 
		 "properties": { 
			 "R2extent": 3992.6972, 
			 "electric_dipole_moment_norm": 3.32675721086, 
			 "electric_quadrupole_moment_norm": 9.41824895137, 
			 "total_energy": -611.353703439, 
			 "HOMO_LUMO_gap": 0.22421, 
			 "cosmo_polarized_energy": -14.95, 
			 "cosmo_cavitation_energy": 31.11, 
			 "cosmo_dispersion_energy": -22.13, 
			 "cosmo_repulsion_energy": 1.82, 
			 "cosmo_total_nonelectrostatic_energy": 10.8, 
			 "SMD_solvation_energy": 5.65 
		},
		"coords": [
			{
				"x": -4.2514355526,
				"y": -3.7677118246,
				"z": 1.2300045079,
				"element": "C" 
			},
			{
				"x": -3.0229285876,
				"y": -3.6850953845,
				"z": 0.3439751395,
				"element": "C" 
			},
			{
				"x": -2.4833934447,
				"y": -2.3528300433,
				"z": 0.4779804827,
				"element": "O" 
			},
			{
				"x": -1.3774772938,
				"y": -2.0991234074,
				"z": -0.2468847998,
				"element": "C" 
			},
			{
				"x": -0.8398707586,
				"y": -2.9120345145,
				"z": -0.9767565299,
				"element": "O" 
			},
			{
				"x": -0.8717122106,
				"y": -0.7204290911,
				"z": -0.0687190916,
				"element": "C" 
			},
			{
				"x": -1.4571739537,
				"y": 0.1784500917,
				"z": 0.7317588018,
				"element": "N" 
			},
			{
				"x": -0.6866316814,
				"y": 1.2683983377,
				"z": 0.5952190455,
				"element": "N" 
			},
			{
				"x": 0.370833592,
				"y": 1.1118867043,
				"z": -0.2585759384,
				"element": "C" 
			},
			{
				"x": 0.2737091924,
				"y": -0.1908540642,
				"z": -0.7114943653,
				"element": "C" 
			},
			{
				"x": 1.3483066411,
				"y": 2.2228022151,
				"z": -0.5412036833,
				"element": "C" 
			},
			{
				"x": 1.3240894792,
				"y": 2.6262294954,
				"z": -2.0278611988,
				"element": "C" 
			},
			{
				"x": 2.7719310675,
				"y": 1.8456791553,
				"z": -0.088900282,
				"element": "C" 
			},
			{
				"x": -4.6951466545,
				"y": -4.765880528,
				"z": 1.1590758299,
				"element": "H" 
			},
			{
				"x": -5.0021887131,
				"y": -3.033216256,
				"z": 0.9250031841,
				"element": "H" 
			},
			{
				"x": -3.9916005426,
				"y": -3.5784095214,
				"z": 2.2753698211,
				"element": "H" 
			},
			{
				"x": -2.2559453162,
				"y": -4.410512208,
				"z": 0.6349439471,
				"element": "H" 
			},
			{
				"x": -3.2616869629,
				"y": -3.8680127156,
				"z": -0.7089706279,
				"element": "H" 
			},
			{
				"x": -0.9281067478,
				"y": 2.1016028877,
				"z": 1.1118707339,
				"element": "H" 
			},
			{
				"x": 0.919095546,
				"y": -0.709343614,
				"z": -1.4032169396,
				"element": "H" 
			},
			{
				"x": 1.0296436139,
				"y": 3.0951626017,
				"z": 0.0479650541,
				"element": "H" 
			},
			{
				"x": 1.6378933078,
				"y": 1.7901567668,
				"z": -2.6613308422,
				"element": "H" 
			},
			{
				"x": 2.0067936067,
				"y": 3.462686384,
				"z": -2.2104943914,
				"element": "H" 
			},
			{
				"x": 0.3204098073,
				"y": 2.9262693906,
				"z": -2.3431863327,
				"element": "H" 
			},
			{
				"x": 2.7977490165,
				"y": 1.5902851309,
				"z": 0.9745539886,
				"element": "H" 
			},
			{
				"x": 3.4628739219,
				"y": 2.6778036554,
				"z": -0.2600035066,
				"element": "H" 
			},
			{
				"x": 3.1402696277,
				"y": 0.9805403561,
				"z": -0.6498220068,
				"element": "H" 
			}
		],
		 "valence_orbital": [ 
			{
				"type": "occ",
				"energy": -0.29233,
				"method": "rhf"
			},
			{
				"type": "occ",
				"energy": -0.2872,
				"method": "rhf"
			},
			{
				"type": "occ",
				"energy": -0.26235,
				"method": "rhf"
			},
			{
				"type": "occ",
				"energy": -0.25938,
				"method": "rhf"
			},
			{
				"type": "occ",
				"energy": -0.24265,
				"method": "rhf"
			},
			{
				"type": "unocc",
				"energy": -0.01844,
				"method": "rhf"
			},
			{
				"type": "unocc",
				"energy": 0.0309,
				"method": "rhf"
			},
			{
				"type": "unocc",
				"energy": 0.06755,
				"method": "rhf"
			},
			{
				"type": "unocc",
				"energy": 0.09015,
				"method": "rhf"
			},
			{
				"type": "unocc",
				"energy": 0.11014,
				"method": "rhf"
			}
		],
		"cosmo_sigma_profile": { 
			"-0.025": 0.0,
			"-0.024": 0.0,
			"-0.023": 0.0,
			"-0.022": 0.0,
			"-0.021": 0.0,
			"-0.02": 0.0,
			"-0.019": 0.0,
			"-0.018": 0.0,
			"-0.017": 0.384398144084,
			"-0.016": 1.62299218448,
			"-0.015": 1.10665877133,
			"-0.014": 1.10251019104,
			"-0.013": 1.3799945719,
			"-0.012": 1.06350632887,
			"-0.011": 1.34907667243,
			"-0.01": 1.25872519624,
			"-0.009": 0.981306978426,
			"-0.008": 0.973135991329,
			"-0.007": 1.79485473117,
			"-0.006": 3.03192535434,
			"-0.005": 8.84398066249,
			"-0.004": 20.8612318504,
			"-0.003": 32.4263091092,
			"-0.002": 26.6701285652,
			"-0.001": 26.1830078701,
			"0.0": 25.9314504567,
			"0.001": 19.6269685527,
			"0.002": 9.96473759235,
			"0.003": 10.8529029267,
			"0.004": 7.87946528156,
			"0.005": 4.76537051763,
			"0.006": 3.67919797284,
			"0.007": 3.58366597991,
			"0.008": 2.7453617962,
			"0.009": 3.67799831133,
			"0.01": 3.79092433247,
			"0.011": 2.88786478106,
			"0.012": 7.16667548125,
			"0.013": 2.54816570618,
			"0.014": 1.6410298786,
			"0.015": 1.39136380016,
			"0.016": 0.782395644572,
			"0.017": 0.026983595845,
			"0.018": 0.0,
			"0.019": 0.0,
			"0.02": 0.0,
			"0.021": 0.0,
			"0.022": 0.0,
			"0.023": 0.0,
			"0.024": 0.0,
			"0.025": 0.0
		}
	}
}
