{
	 "smiles": "CCC(C)N", 
	 "Tm": 169.15, 
	 "num_atms": 16, 
	 "gaussian": { 
		 "optdone": 1, 
		 "sigma_profile": "yes", 
		 "theory": "DFT", 
		 "functional": "B3LYP", 
		 "basiset": "6-31G**", 
		 "properties": { 
			 "R2extent": 582.9893, 
			 "electric_dipole_moment_norm": 1.22090404619, 
			 "electric_quadrupole_moment_norm": 3.16989296192, 
			 "total_energy": -213.815023057, 
			 "HOMO_LUMO_gap": 0.30678, 
			 "cosmo_polarized_energy": -4.63, 
			 "cosmo_cavitation_energy": 17.53, 
			 "cosmo_dispersion_energy": -13.08, 
			 "cosmo_repulsion_energy": 1.16, 
			 "cosmo_total_nonelectrostatic_energy": 5.61, 
			 "SMD_solvation_energy": 2.16 
		},
		"coords": [
			{
				"x": 2.1071105629,
				"y": -0.9597909704,
				"z": 0.7786109304,
				"element": "C" 
			},
			{
				"x": 1.1162128851,
				"y": -0.5370602684,
				"z": -0.3115738786,
				"element": "C" 
			},
			{
				"x": -0.3621780153,
				"y": -0.6946945606,
				"z": 0.0785799012,
				"element": "C" 
			},
			{
				"x": -1.2816591469,
				"y": -0.3104295918,
				"z": -1.0831948993,
				"element": "C" 
			},
			{
				"x": -0.6688744884,
				"y": 0.1741733693,
				"z": 1.2253817874,
				"element": "N" 
			},
			{
				"x": 2.0352664078,
				"y": -0.3160591328,
				"z": 1.6619038055,
				"element": "H" 
			},
			{
				"x": 1.9336480398,
				"y": -1.9947850409,
				"z": 1.0976052168,
				"element": "H" 
			},
			{
				"x": 3.1388794952,
				"y": -0.8950813447,
				"z": 0.4183254128,
				"element": "H" 
			},
			{
				"x": 1.2894740934,
				"y": 0.5123607583,
				"z": -0.5811766509,
				"element": "H" 
			},
			{
				"x": 1.2969991892,
				"y": -1.1349036646,
				"z": -1.2142453678,
				"element": "H" 
			},
			{
				"x": -0.5315358844,
				"y": -1.7660899377,
				"z": 0.3042494979,
				"element": "H" 
			},
			{
				"x": -2.3360067425,
				"y": -0.4494927442,
				"z": -0.8162687339,
				"element": "H" 
			},
			{
				"x": -1.0784511276,
				"y": -0.9259547698,
				"z": -1.9653422156,
				"element": "H" 
			},
			{
				"x": -1.1376371966,
				"y": 0.7420096157,
				"z": -1.3487588786,
				"element": "H" 
			},
			{
				"x": -0.1679143723,
				"y": -0.1454991438,
				"z": 2.0505926736,
				"element": "H" 
			},
			{
				"x": -1.6579336995,
				"y": 0.1003974263,
				"z": 1.4538113994,
				"element": "H" 
			}
		],
		 "valence_orbital": [ 
			{
				"type": "occ",
				"energy": -0.35978,
				"method": "rhf"
			},
			{
				"type": "occ",
				"energy": -0.33235,
				"method": "rhf"
			},
			{
				"type": "occ",
				"energy": -0.33022,
				"method": "rhf"
			},
			{
				"type": "occ",
				"energy": -0.31822,
				"method": "rhf"
			},
			{
				"type": "occ",
				"energy": -0.22885,
				"method": "rhf"
			},
			{
				"type": "unocc",
				"energy": 0.07793,
				"method": "rhf"
			},
			{
				"type": "unocc",
				"energy": 0.11812,
				"method": "rhf"
			},
			{
				"type": "unocc",
				"energy": 0.13228,
				"method": "rhf"
			},
			{
				"type": "unocc",
				"energy": 0.13929,
				"method": "rhf"
			},
			{
				"type": "unocc",
				"energy": 0.15255,
				"method": "rhf"
			}
		],
		"cosmo_sigma_profile": { 
			"-0.025": 0.0,
			"-0.024": 0.0,
			"-0.023": 0.0,
			"-0.022": 0.0,
			"-0.021": 0.0,
			"-0.02": 0.0,
			"-0.019": 0.0,
			"-0.018": 0.0,
			"-0.017": 0.0,
			"-0.016": 0.0,
			"-0.015": 0.0,
			"-0.014": 0.0,
			"-0.013": 0.0,
			"-0.012": 0.0,
			"-0.011": 0.0,
			"-0.01": 0.0620957995374,
			"-0.009": 1.22983234218,
			"-0.008": 2.44142238844,
			"-0.007": 2.67460571925,
			"-0.006": 3.30278129636,
			"-0.005": 3.39069287572,
			"-0.004": 2.99565004581,
			"-0.003": 8.17816063891,
			"-0.002": 17.3813230463,
			"-0.001": 22.1971517648,
			"0.0": 23.3474194764,
			"0.001": 22.2830324822,
			"0.002": 10.7845968511,
			"0.003": 1.89501705312,
			"0.004": 1.24023944672,
			"0.005": 0.829875883914,
			"0.006": 1.1360445291,
			"0.007": 0.807467136494,
			"0.008": 0.907881307068,
			"0.009": 0.58399978394,
			"0.01": 0.647571883654,
			"0.011": 0.655721838407,
			"0.012": 0.728177478528,
			"0.013": 0.522126862562,
			"0.014": 0.689747349721,
			"0.015": 0.791094480624,
			"0.016": 0.34734213682,
			"0.017": 0.52582435609,
			"0.018": 0.632607557387,
			"0.019": 0.515148076636,
			"0.02": 0.418396749957,
			"0.021": 0.0408285152342,
			"0.022": 0.0,
			"0.023": 0.0,
			"0.024": 0.0,
			"0.025": 0.0
		}
	}
}
