{
	 "smiles": "OC(=O)C1=CNC=C1C1CC1", 
	 "Tm": 424.15, 
	 "num_atms": 20, 
	 "gaussian": { 
		 "optdone": 1, 
		 "sigma_profile": "yes", 
		 "theory": "DFT", 
		 "functional": "B3LYP", 
		 "basiset": "6-31G**", 
		 "properties": { 
			 "R2extent": 2069.2106, 
			 "electric_dipole_moment_norm": 6.33353374823, 
			 "electric_quadrupole_moment_norm": 17.1617747716, 
			 "total_energy": -515.443274058, 
			 "HOMO_LUMO_gap": 0.20693, 
			 "cosmo_polarized_energy": -19.72, 
			 "cosmo_cavitation_energy": 23.87, 
			 "cosmo_dispersion_energy": -17.52, 
			 "cosmo_repulsion_energy": 1.42, 
			 "cosmo_total_nonelectrostatic_energy": 7.78, 
			 "SMD_solvation_energy": 5.13 
		},
		"coords": [
			{
				"x": 1.3171896596,
				"y": 3.0696002978,
				"z": 0.9091984416,
				"element": "O" 
			},
			{
				"x": 1.361146157,
				"y": 1.7051927647,
				"z": 0.8047886755,
				"element": "C" 
			},
			{
				"x": 1.5135833612,
				"y": 1.0395178885,
				"z": 1.8049500638,
				"element": "O" 
			},
			{
				"x": 1.2319228542,
				"y": 1.1629785644,
				"z": -0.5606885498,
				"element": "C" 
			},
			{
				"x": 1.5109191219,
				"y": 1.8430534696,
				"z": -1.7395030867,
				"element": "C" 
			},
			{
				"x": 1.3101124979,
				"y": 0.9791434186,
				"z": -2.7735385889,
				"element": "N" 
			},
			{
				"x": 0.9155956103,
				"y": -0.2515433806,
				"z": -2.2881335322,
				"element": "C" 
			},
			{
				"x": 0.8561582224,
				"y": -0.1833687428,
				"z": -0.9127467079,
				"element": "C" 
			},
			{
				"x": 0.4520874868,
				"y": -1.2499816222,
				"z": 0.0360173177,
				"element": "C" 
			},
			{
				"x": 0.0672746546,
				"y": -2.6303989348,
				"z": -0.4410046517,
				"element": "C" 
			},
			{
				"x": -0.9941833357,
				"y": -1.7165695803,
				"z": 0.1095198407,
				"element": "C" 
			},
			{
				"x": 0.9906518579,
				"y": 3.4422115402,
				"z": 0.0786346481,
				"element": "H" 
			},
			{
				"x": 1.8912382607,
				"y": 2.8401216939,
				"z": -1.9113813123,
				"element": "H" 
			},
			{
				"x": 1.4757190703,
				"y": 1.1905700732,
				"z": -3.7445991851,
				"element": "H" 
			},
			{
				"x": 0.7162401903,
				"y": -1.0711342474,
				"z": -2.961451897,
				"element": "H" 
			},
			{
				"x": 0.9639167209,
				"y": -1.1891175454,
				"z": 0.9899612791,
				"element": "H" 
			},
			{
				"x": 0.0622439386,
				"y": -2.8302304683,
				"z": -1.508742412,
				"element": "H" 
			},
			{
				"x": 0.3885725801,
				"y": -3.4759867473,
				"z": 0.1594598888,
				"element": "H" 
			},
			{
				"x": -1.4099709922,
				"y": -1.9277502715,
				"z": 1.0901432883,
				"element": "H" 
			},
			{
				"x": -1.6947179168,
				"y": -1.2747081703,
				"z": -0.59288352,
				"element": "H" 
			}
		],
		 "valence_orbital": [ 
			{
				"type": "occ",
				"energy": -0.30063,
				"method": "rhf"
			},
			{
				"type": "occ",
				"energy": -0.2908,
				"method": "rhf"
			},
			{
				"type": "occ",
				"energy": -0.2601,
				"method": "rhf"
			},
			{
				"type": "occ",
				"energy": -0.24492,
				"method": "rhf"
			},
			{
				"type": "occ",
				"energy": -0.22138,
				"method": "rhf"
			},
			{
				"type": "unocc",
				"energy": -0.01445,
				"method": "rhf"
			},
			{
				"type": "unocc",
				"energy": 0.03105,
				"method": "rhf"
			},
			{
				"type": "unocc",
				"energy": 0.06082,
				"method": "rhf"
			},
			{
				"type": "unocc",
				"energy": 0.07305,
				"method": "rhf"
			},
			{
				"type": "unocc",
				"energy": 0.10156,
				"method": "rhf"
			}
		],
		"cosmo_sigma_profile": { 
			"-0.025": 0.0,
			"-0.024": 0.0,
			"-0.023": 0.0,
			"-0.022": 0.0,
			"-0.021": 0.0,
			"-0.02": 0.0,
			"-0.019": 0.0,
			"-0.018": 0.201266442632,
			"-0.017": 0.927373624895,
			"-0.016": 2.80509498119,
			"-0.015": 2.56800389508,
			"-0.014": 2.27951526484,
			"-0.013": 2.8126279472,
			"-0.012": 1.59544417821,
			"-0.011": 2.34023642729,
			"-0.01": 3.35427988883,
			"-0.009": 3.9129418695,
			"-0.008": 3.84038442117,
			"-0.007": 5.20524046664,
			"-0.006": 4.14624126949,
			"-0.005": 6.5931997267,
			"-0.004": 9.62085163552,
			"-0.003": 10.7602621322,
			"-0.002": 11.1036064488,
			"-0.001": 11.8505069816,
			"0.0": 12.3291713351,
			"0.001": 11.0933152372,
			"0.002": 8.15953337027,
			"0.003": 10.6390875456,
			"0.004": 13.1043861334,
			"0.005": 12.6563007868,
			"0.006": 8.10382567409,
			"0.007": 3.08984543926,
			"0.008": 2.76915201605,
			"0.009": 3.40755276956,
			"0.01": 3.28593380464,
			"0.011": 4.94859690429,
			"0.012": 5.39924893445,
			"0.013": 3.4015586224,
			"0.014": 1.2580577804,
			"0.015": 0.008270624799,
			"0.016": 0.0,
			"0.017": 0.0,
			"0.018": 0.0,
			"0.019": 0.0,
			"0.02": 0.0,
			"0.021": 0.0,
			"0.022": 0.0,
			"0.023": 0.0,
			"0.024": 0.0,
			"0.025": 0.0
		}
	}
}
