{
	 "smiles": "ClC1=CC=C(C=C1Cl)C(=O)C1=CC=CC=C1", 
	 "Tm": 375.15, 
	 "num_atms": 24, 
	 "gaussian": { 
		 "optdone": 1, 
		 "sigma_profile": "yes", 
		 "theory": "DFT", 
		 "functional": "B3LYP", 
		 "basiset": "6-31G**", 
		 "properties": { 
			 "R2extent": 5727.318, 
			 "electric_dipole_moment_norm": 2.28165952324, 
			 "electric_quadrupole_moment_norm": 13.328892493, 
			 "total_energy": -1495.81208316, 
			 "HOMO_LUMO_gap": 0.17586, 
			 "cosmo_polarized_energy": -8.37, 
			 "cosmo_cavitation_energy": 32.41, 
			 "cosmo_dispersion_energy": -23.62, 
			 "cosmo_repulsion_energy": 1.83, 
			 "cosmo_total_nonelectrostatic_energy": 10.63, 
			 "SMD_solvation_energy": 5.35 
		},
		"coords": [
			{
				"x": 0.1791333716,
				"y": -5.0595810126,
				"z": 1.1938717826,
				"element": "Cl" 
			},
			{
				"x": 0.4041184131,
				"y": -3.4479091936,
				"z": 0.5691877321,
				"element": "C" 
			},
			{
				"x": 0.9820882005,
				"y": -3.2889113744,
				"z": -0.6954678493,
				"element": "C" 
			},
			{
				"x": 1.1795643665,
				"y": -2.0187621066,
				"z": -1.2188485431,
				"element": "C" 
			},
			{
				"x": 0.7792618254,
				"y": -0.8813607101,
				"z": -0.5014208459,
				"element": "C" 
			},
			{
				"x": 0.2097818444,
				"y": -1.0428062888,
				"z": 0.7669420772,
				"element": "C" 
			},
			{
				"x": 0.0259623266,
				"y": -2.3173749279,
				"z": 1.3059633146,
				"element": "C" 
			},
			{
				"x": -0.6736288199,
				"y": -2.4598019788,
				"z": 2.9003866529,
				"element": "Cl" 
			},
			{
				"x": 1.0722607307,
				"y": 0.4663383626,
				"z": -1.1012946543,
				"element": "C" 
			},
			{
				"x": 2.0027625188,
				"y": 0.5761857152,
				"z": -1.891446842,
				"element": "O" 
			},
			{
				"x": 0.2457081006,
				"y": 1.6621268439,
				"z": -0.7401522866,
				"element": "C" 
			},
			{
				"x": 0.8493133128,
				"y": 2.9261675215,
				"z": -0.8462255219,
				"element": "C" 
			},
			{
				"x": 0.1230191875,
				"y": 4.0796895925,
				"z": -0.5678221562,
				"element": "C" 
			},
			{
				"x": -1.2245446398,
				"y": 3.987393155,
				"z": -0.2052025624,
				"element": "C" 
			},
			{
				"x": -1.8412290622,
				"y": 2.7379598306,
				"z": -0.1236930417,
				"element": "C" 
			},
			{
				"x": -1.109837628,
				"y": 1.578483521,
				"z": -0.3838701639,
				"element": "C" 
			},
			{
				"x": 1.2761053651,
				"y": -4.1715262919,
				"z": -1.2525504506,
				"element": "H" 
			},
			{
				"x": 1.6484181896,
				"y": -1.8850706723,
				"z": -2.1873396887,
				"element": "H" 
			},
			{
				"x": -0.0740834813,
				"y": -0.1822015912,
				"z": 1.3604427329,
				"element": "H" 
			},
			{
				"x": 1.8895359752,
				"y": 2.9777587056,
				"z": -1.1498964018,
				"element": "H" 
			},
			{
				"x": 0.6020654863,
				"y": 5.0518034451,
				"z": -0.6382166977,
				"element": "H" 
			},
			{
				"x": -1.7933202346,
				"y": 4.8882616535,
				"z": 0.0065682881,
				"element": "H" 
			},
			{
				"x": -2.8923264427,
				"y": 2.6647009932,
				"z": 0.1391435418,
				"element": "H" 
			},
			{
				"x": -1.6020289061,
				"y": 0.6127368085,
				"z": -0.3379584162,
				"element": "H" 
			}
		],
		 "valence_orbital": [ 
			{
				"type": "occ",
				"energy": -0.27285,
				"method": "rhf"
			},
			{
				"type": "occ",
				"energy": -0.27062,
				"method": "rhf"
			},
			{
				"type": "occ",
				"energy": -0.2667,
				"method": "rhf"
			},
			{
				"type": "occ",
				"energy": -0.26163,
				"method": "rhf"
			},
			{
				"type": "occ",
				"energy": -0.25295,
				"method": "rhf"
			},
			{
				"type": "unocc",
				"energy": -0.07709,
				"method": "rhf"
			},
			{
				"type": "unocc",
				"energy": -0.03374,
				"method": "rhf"
			},
			{
				"type": "unocc",
				"energy": -0.02699,
				"method": "rhf"
			},
			{
				"type": "unocc",
				"energy": -0.0158,
				"method": "rhf"
			},
			{
				"type": "unocc",
				"energy": -0.00268,
				"method": "rhf"
			}
		],
		"cosmo_sigma_profile": { 
			"-0.025": 0.0,
			"-0.024": 0.0,
			"-0.023": 0.0,
			"-0.022": 0.0,
			"-0.021": 0.0,
			"-0.02": 0.0,
			"-0.019": 0.0,
			"-0.018": 0.0,
			"-0.017": 0.0,
			"-0.016": 0.0,
			"-0.015": 0.0,
			"-0.014": 0.0,
			"-0.013": 0.0,
			"-0.012": 0.0,
			"-0.011": 0.0,
			"-0.01": 0.0,
			"-0.009": 0.195561999954,
			"-0.008": 2.25975641715,
			"-0.007": 6.07397713513,
			"-0.006": 14.9614853493,
			"-0.005": 17.6952033927,
			"-0.004": 18.8148669249,
			"-0.003": 16.8106737454,
			"-0.002": 17.8351281357,
			"-0.001": 23.1160192553,
			"0.0": 28.6473341385,
			"0.001": 23.9577341668,
			"0.002": 22.9844212208,
			"0.003": 26.8175200022,
			"0.004": 24.922142013,
			"0.005": 4.69342557912,
			"0.006": 2.20635337988,
			"0.007": 2.05132171487,
			"0.008": 1.7546990024,
			"0.009": 1.54785213085,
			"0.01": 2.24072250482,
			"0.011": 3.500727475,
			"0.012": 2.86562765261,
			"0.013": 0.00290033661919,
			"0.014": 0.0,
			"0.015": 0.0,
			"0.016": 0.0,
			"0.017": 0.0,
			"0.018": 0.0,
			"0.019": 0.0,
			"0.02": 0.0,
			"0.021": 0.0,
			"0.022": 0.0,
			"0.023": 0.0,
			"0.024": 0.0,
			"0.025": 0.0
		}
	}
}
