{
	 "smiles": "NC1=NN=C(CC2=CC=C(Cl)C=C2)O1", 
	 "Tm": 441.15, 
	 "num_atms": 22, 
	 "gaussian": { 
		 "optdone": 1, 
		 "sigma_profile": "yes", 
		 "theory": "DFT", 
		 "functional": "B3LYP", 
		 "basiset": "6-31G**", 
		 "properties": { 
			 "R2extent": 4387.5879, 
			 "electric_dipole_moment_norm": 4.09345208107, 
			 "electric_quadrupole_moment_norm": 19.79833391, 
			 "total_energy": -1047.42618225, 
			 "HOMO_LUMO_gap": 0.21432, 
			 "cosmo_polarized_energy": -17.37, 
			 "cosmo_cavitation_energy": 29.36, 
			 "cosmo_dispersion_energy": -21.35, 
			 "cosmo_repulsion_energy": 1.71, 
			 "cosmo_total_nonelectrostatic_energy": 9.72, 
			 "SMD_solvation_energy": 2.93 
		},
		"coords": [
			{
				"x": 0.6617448402,
				"y": 4.3060239288,
				"z": 2.2650207353,
				"element": "N" 
			},
			{
				"x": 0.0546398916,
				"y": 3.7972972552,
				"z": 1.1500292154,
				"element": "C" 
			},
			{
				"x": -1.1669037063,
				"y": 3.9696458954,
				"z": 0.7414607935,
				"element": "N" 
			},
			{
				"x": -1.2926809421,
				"y": 3.1578102481,
				"z": -0.3980796118,
				"element": "N" 
			},
			{
				"x": -0.1520750279,
				"y": 2.5857583944,
				"z": -0.5860102951,
				"element": "C" 
			},
			{
				"x": 0.2470001669,
				"y": 1.6155035859,
				"z": -1.6446044507,
				"element": "C" 
			},
			{
				"x": 0.4495131884,
				"y": 0.1977759816,
				"z": -1.1274139921,
				"element": "C" 
			},
			{
				"x": 1.6596100995,
				"y": -0.4731508187,
				"z": -1.3240276346,
				"element": "C" 
			},
			{
				"x": 1.8415403453,
				"y": -1.7804642481,
				"z": -0.868901488,
				"element": "C" 
			},
			{
				"x": 0.7948985419,
				"y": -2.4173404646,
				"z": -0.20644829,
				"element": "C" 
			},
			{
				"x": 1.0110964077,
				"y": -4.0633871358,
				"z": 0.3735161177,
				"element": "Cl" 
			},
			{
				"x": -0.4227862771,
				"y": -1.7693619925,
				"z": 0.005398068,
				"element": "C" 
			},
			{
				"x": -0.5867546084,
				"y": -0.465308786,
				"z": -0.4567949583,
				"element": "C" 
			},
			{
				"x": 0.7740337977,
				"y": 2.9436748869,
				"z": 0.3743464226,
				"element": "O" 
			},
			{
				"x": 1.6591935264,
				"y": 4.4502796641,
				"z": 2.1933779291,
				"element": "H" 
			},
			{
				"x": 0.1568349147,
				"y": 5.0785159009,
				"z": 2.6765500588,
				"element": "H" 
			},
			{
				"x": 1.1629592447,
				"y": 1.9643867255,
				"z": -2.1341396808,
				"element": "H" 
			},
			{
				"x": -0.5512788473,
				"y": 1.6380676215,
				"z": -2.3934957033,
				"element": "H" 
			},
			{
				"x": 2.4756877102,
				"y": 0.0257766566,
				"z": -1.8402599431,
				"element": "H" 
			},
			{
				"x": 2.7825712495,
				"y": -2.296374568,
				"z": -1.0242920958,
				"element": "H" 
			},
			{
				"x": -1.2274348785,
				"y": -2.2793812475,
				"z": 0.5233815104,
				"element": "H" 
			},
			{
				"x": -1.530909637,
				"y": 0.0465525166,
				"z": -0.290412707,
				"element": "H" 
			}
		],
		 "valence_orbital": [ 
			{
				"type": "occ",
				"energy": -0.31266,
				"method": "rhf"
			},
			{
				"type": "occ",
				"energy": -0.27214,
				"method": "rhf"
			},
			{
				"type": "occ",
				"energy": -0.26675,
				"method": "rhf"
			},
			{
				"type": "occ",
				"energy": -0.24722,
				"method": "rhf"
			},
			{
				"type": "occ",
				"energy": -0.23385,
				"method": "rhf"
			},
			{
				"type": "unocc",
				"energy": -0.01953,
				"method": "rhf"
			},
			{
				"type": "unocc",
				"energy": -0.01855,
				"method": "rhf"
			},
			{
				"type": "unocc",
				"energy": 0.00782,
				"method": "rhf"
			},
			{
				"type": "unocc",
				"energy": 0.02943,
				"method": "rhf"
			},
			{
				"type": "unocc",
				"energy": 0.04969,
				"method": "rhf"
			}
		],
		"cosmo_sigma_profile": { 
			"-0.025": 0.0,
			"-0.024": 0.0,
			"-0.023": 0.0,
			"-0.022": 0.0,
			"-0.021": 0.0,
			"-0.02": 0.0,
			"-0.019": 0.0,
			"-0.018": 0.0,
			"-0.017": 0.0,
			"-0.016": 0.105070081031,
			"-0.015": 2.11437694025,
			"-0.014": 2.7922742809,
			"-0.013": 2.35903286576,
			"-0.012": 2.02081751558,
			"-0.011": 2.17479894541,
			"-0.01": 2.53904122463,
			"-0.009": 1.87055859146,
			"-0.008": 3.15734717465,
			"-0.007": 11.4287105719,
			"-0.006": 12.66127165,
			"-0.005": 12.8004057718,
			"-0.004": 13.53338608,
			"-0.003": 13.7815521772,
			"-0.002": 13.2581925815,
			"-0.001": 12.4707464965,
			"0.0": 11.933579322,
			"0.001": 15.8946846153,
			"0.002": 20.2223357621,
			"0.003": 20.7628048213,
			"0.004": 19.6416859241,
			"0.005": 10.8613373037,
			"0.006": 3.0323799256,
			"0.007": 2.53833651478,
			"0.008": 1.40650760388,
			"0.009": 3.103031585,
			"0.01": 2.55731449982,
			"0.011": 3.04551874811,
			"0.012": 2.73424432357,
			"0.013": 3.46815749922,
			"0.014": 2.88386186278,
			"0.015": 2.35050042079,
			"0.016": 1.56483962699,
			"0.017": 0.175902569348,
			"0.018": 0.0,
			"0.019": 0.0,
			"0.02": 0.0,
			"0.021": 0.0,
			"0.022": 0.0,
			"0.023": 0.0,
			"0.024": 0.0,
			"0.025": 0.0
		}
	}
}
