{
	 "smiles": "CN(C)C1=NC2=C(C=C1)C=C(N)C=C2", 
	 "Tm": 358.15, 
	 "num_atms": 27, 
	 "gaussian": { 
		 "optdone": 1, 
		 "sigma_profile": "yes", 
		 "theory": "DFT", 
		 "functional": "B3LYP", 
		 "basiset": "6-31G**", 
		 "properties": { 
			 "R2extent": 3590.3536, 
			 "electric_dipole_moment_norm": 1.96526178154, 
			 "electric_quadrupole_moment_norm": 17.5867733755, 
			 "total_energy": -591.272387137, 
			 "HOMO_LUMO_gap": 0.1422, 
			 "cosmo_polarized_energy": -12.57, 
			 "cosmo_cavitation_energy": 29.7, 
			 "cosmo_dispersion_energy": -22.14, 
			 "cosmo_repulsion_energy": 1.72, 
			 "cosmo_total_nonelectrostatic_energy": 9.28, 
			 "SMD_solvation_energy": 3.42 
		},
		"coords": [
			{
				"x": -3.1676444166,
				"y": -0.9023055819,
				"z": -1.5466014227,
				"element": "C" 
			},
			{
				"x": -1.7650302062,
				"y": -0.6870188411,
				"z": -1.8542415746,
				"element": "N" 
			},
			{
				"x": -1.457722656,
				"y": -0.1087665792,
				"z": -3.1553111427,
				"element": "C" 
			},
			{
				"x": -0.8360363489,
				"y": -0.553691705,
				"z": -0.8323174159,
				"element": "C" 
			},
			{
				"x": 0.3696500427,
				"y": -0.1037870278,
				"z": -1.1535736021,
				"element": "N" 
			},
			{
				"x": 1.3224060326,
				"y": -0.0081634065,
				"z": -0.1868772576,
				"element": "C" 
			},
			{
				"x": 1.0893624838,
				"y": -0.3533029554,
				"z": 1.1792032959,
				"element": "C" 
			},
			{
				"x": -0.2187634458,
				"y": -0.8110672734,
				"z": 1.4934565171,
				"element": "C" 
			},
			{
				"x": -1.1740958494,
				"y": -0.9128695445,
				"z": 0.5172465346,
				"element": "C" 
			},
			{
				"x": 2.1229402734,
				"y": -0.218342249,
				"z": 2.1363175085,
				"element": "C" 
			},
			{
				"x": 3.3785333517,
				"y": 0.2397128887,
				"z": 1.7688866177,
				"element": "C" 
			},
			{
				"x": 4.4372351874,
				"y": 0.3185843905,
				"z": 2.6840573119,
				"element": "N" 
			},
			{
				"x": 3.6088315665,
				"y": 0.5796046653,
				"z": 0.4051196617,
				"element": "C" 
			},
			{
				"x": 2.6154139777,
				"y": 0.4639363711,
				"z": -0.5385233386,
				"element": "C" 
			},
			{
				"x": -3.7107508017,
				"y": -1.0548801483,
				"z": -2.4816341417,
				"element": "H" 
			},
			{
				"x": -3.633728341,
				"y": -0.054700985,
				"z": -1.0186366198,
				"element": "H" 
			},
			{
				"x": -3.309180977,
				"y": -1.8023957473,
				"z": -0.939808909,
				"element": "H" 
			},
			{
				"x": -1.6625476192,
				"y": 0.9726858137,
				"z": -3.1960356387,
				"element": "H" 
			},
			{
				"x": -2.0622375094,
				"y": -0.6069068256,
				"z": -3.9188706599,
				"element": "H" 
			},
			{
				"x": -0.4012358488,
				"y": -0.2553361698,
				"z": -3.3731281156,
				"element": "H" 
			},
			{
				"x": -0.4586387407,
				"y": -1.0789631788,
				"z": 2.519890383,
				"element": "H" 
			},
			{
				"x": -2.1686883664,
				"y": -1.2570755933,
				"z": 0.7708473176,
				"element": "H" 
			},
			{
				"x": 1.9214353859,
				"y": -0.4854766069,
				"z": 3.1720426931,
				"element": "H" 
			},
			{
				"x": 4.1499557163,
				"y": 0.3749416065,
				"z": 3.6521595562,
				"element": "H" 
			},
			{
				"x": 5.1259058211,
				"y": 1.0269028204,
				"z": 2.4670404559,
				"element": "H" 
			},
			{
				"x": 4.5958386781,
				"y": 0.9313781609,
				"z": 0.1129219746,
				"element": "H" 
			},
			{
				"x": 2.7940926097,
				"y": 0.7275037019,
				"z": -1.5761299889,
				"element": "H" 
			}
		],
		 "valence_orbital": [ 
			{
				"type": "occ",
				"energy": -0.28902,
				"method": "rhf"
			},
			{
				"type": "occ",
				"energy": -0.23922,
				"method": "rhf"
			},
			{
				"type": "occ",
				"energy": -0.23429,
				"method": "rhf"
			},
			{
				"type": "occ",
				"energy": -0.21924,
				"method": "rhf"
			},
			{
				"type": "occ",
				"energy": -0.17294,
				"method": "rhf"
			},
			{
				"type": "unocc",
				"energy": -0.03074,
				"method": "rhf"
			},
			{
				"type": "unocc",
				"energy": 0.01761,
				"method": "rhf"
			},
			{
				"type": "unocc",
				"energy": 0.04003,
				"method": "rhf"
			},
			{
				"type": "unocc",
				"energy": 0.08377,
				"method": "rhf"
			},
			{
				"type": "unocc",
				"energy": 0.09551,
				"method": "rhf"
			}
		],
		"cosmo_sigma_profile": { 
			"-0.025": 0.0,
			"-0.024": 0.0,
			"-0.023": 0.0,
			"-0.022": 0.0,
			"-0.021": 0.0,
			"-0.02": 0.0,
			"-0.019": 0.0,
			"-0.018": 0.0,
			"-0.017": 0.0,
			"-0.016": 0.0,
			"-0.015": 0.0,
			"-0.014": 0.0,
			"-0.013": 0.0152333109206,
			"-0.012": 2.05855301547,
			"-0.011": 2.46778931282,
			"-0.01": 2.95465752506,
			"-0.009": 3.57708702109,
			"-0.008": 2.8484648059,
			"-0.007": 3.87441897919,
			"-0.006": 10.3221338309,
			"-0.005": 16.247916748,
			"-0.004": 16.4182766664,
			"-0.003": 20.2626233559,
			"-0.002": 20.225927564,
			"-0.001": 21.396669523,
			"0.0": 12.7270965426,
			"0.001": 9.52576242515,
			"0.002": 9.2186665591,
			"0.003": 13.3796153623,
			"0.004": 17.6253620559,
			"0.005": 17.532186708,
			"0.006": 12.7428723647,
			"0.007": 4.60582852924,
			"0.008": 3.3393194762,
			"0.009": 2.92948714226,
			"0.01": 2.47786390276,
			"0.011": 2.46587714886,
			"0.012": 1.41050920167,
			"0.013": 1.20691792557,
			"0.014": 0.80177209101,
			"0.015": 0.584506089417,
			"0.016": 0.0413023638225,
			"0.017": 0.0,
			"0.018": 0.0,
			"0.019": 0.0,
			"0.02": 0.0,
			"0.021": 0.0,
			"0.022": 0.0,
			"0.023": 0.0,
			"0.024": 0.0,
			"0.025": 0.0
		}
	}
}
