{
	 "smiles": "CC12CC3CC(C)(C1)CC(C3)(C2)C(O)=O", 
	 "Tm": 374.15, 
	 "num_atms": 35, 
	 "gaussian": { 
		 "optdone": 1, 
		 "sigma_profile": "yes", 
		 "theory": "DFT", 
		 "functional": "B3LYP", 
		 "basiset": "6-31G**", 
		 "properties": { 
			 "R2extent": 3263.7401, 
			 "electric_dipole_moment_norm": 1.64590516738, 
			 "electric_quadrupole_moment_norm": 8.53481685041, 
			 "total_energy": -657.945431873, 
			 "HOMO_LUMO_gap": 0.27351, 
			 "cosmo_polarized_energy": -7.69, 
			 "cosmo_cavitation_energy": 32.23, 
			 "cosmo_dispersion_energy": -23.2, 
			 "cosmo_repulsion_energy": 1.76, 
			 "cosmo_total_nonelectrostatic_energy": 10.79, 
			 "SMD_solvation_energy": 5.58 
		},
		"coords": [
			{
				"x": 1.7786063142,
				"y": 1.8307695299,
				"z": -1.0071106328,
				"element": "C" 
			},
			{
				"x": 0.8547155143,
				"y": 0.6844187807,
				"z": -0.5786217234,
				"element": "C" 
			},
			{
				"x": -0.5483044185,
				"y": 1.2203547532,
				"z": -0.2104291809,
				"element": "C" 
			},
			{
				"x": -1.4708541862,
				"y": 0.0629245861,
				"z": 0.2173258678,
				"element": "C" 
			},
			{
				"x": -0.8682301042,
				"y": -0.6484220461,
				"z": 1.4439551176,
				"element": "C" 
			},
			{
				"x": 0.5290953548,
				"y": -1.217768745,
				"z": 1.105357786,
				"element": "C" 
			},
			{
				"x": 1.1352071728,
				"y": -1.9284944249,
				"z": 2.3214093418,
				"element": "C" 
			},
			{
				"x": 1.436372818,
				"y": -0.0503373961,
				"z": 0.6518270714,
				"element": "C" 
			},
			{
				"x": 0.3854263596,
				"y": -2.2097276665,
				"z": -0.0725393857,
				"element": "C" 
			},
			{
				"x": -0.2276748676,
				"y": -1.5050076689,
				"z": -1.3135169264,
				"element": "C" 
			},
			{
				"x": -1.6143492361,
				"y": -0.9395216076,
				"z": -0.9426477408,
				"element": "C" 
			},
			{
				"x": 0.7060478644,
				"y": -0.3361830015,
				"z": -1.7311236362,
				"element": "C" 
			},
			{
				"x": -0.3632816538,
				"y": -2.4968279072,
				"z": -2.4592551404,
				"element": "C" 
			},
			{
				"x": 0.8319765197,
				"y": -3.0280525132,
				"z": -2.8294831351,
				"element": "O" 
			},
			{
				"x": -1.3959128926,
				"y": -2.8115342702,
				"z": -3.0122621683,
				"element": "O" 
			},
			{
				"x": 1.3759654721,
				"y": 2.3587741287,
				"z": -1.8793940751,
				"element": "H" 
			},
			{
				"x": 2.7754686947,
				"y": 1.4589736703,
				"z": -1.271461307,
				"element": "H" 
			},
			{
				"x": 1.8977450396,
				"y": 2.562273569,
				"z": -0.1994303209,
				"element": "H" 
			},
			{
				"x": -0.4605807853,
				"y": 1.9545069792,
				"z": 0.6018990449,
				"element": "H" 
			},
			{
				"x": -0.9798602559,
				"y": 1.749433596,
				"z": -1.0708932633,
				"element": "H" 
			},
			{
				"x": -2.4610356295,
				"y": 0.4597012733,
				"z": 0.4740677871,
				"element": "H" 
			},
			{
				"x": -1.5296280816,
				"y": -1.4617419561,
				"z": 1.7720208031,
				"element": "H" 
			},
			{
				"x": -0.7861396175,
				"y": 0.0526143084,
				"z": 2.2856204769,
				"element": "H" 
			},
			{
				"x": 1.2475764057,
				"y": -1.2371762271,
				"z": 3.1646986058,
				"element": "H" 
			},
			{
				"x": 0.5001987716,
				"y": -2.7585965852,
				"z": 2.6522422242,
				"element": "H" 
			},
			{
				"x": 2.125868083,
				"y": -2.3365381998,
				"z": 2.0891664108,
				"element": "H" 
			},
			{
				"x": 2.4388673273,
				"y": -0.433088642,
				"z": 0.4133204283,
				"element": "H" 
			},
			{
				"x": 1.5607220887,
				"y": 0.6615402268,
				"z": 1.4799395958,
				"element": "H" 
			},
			{
				"x": -0.2553788667,
				"y": -3.0497138458,
				"z": 0.2277880153,
				"element": "H" 
			},
			{
				"x": 1.3641647516,
				"y": -2.6292867212,
				"z": -0.3314762842,
				"element": "H" 
			},
			{
				"x": -2.061925388,
				"y": -0.4569328133,
				"z": -1.8186382936,
				"element": "H" 
			},
			{
				"x": -2.2846595563,
				"y": -1.760401431,
				"z": -0.6643877094,
				"element": "H" 
			},
			{
				"x": 1.6890550546,
				"y": -0.7304613931,
				"z": -2.0126578916,
				"element": "H" 
			},
			{
				"x": 0.2945152707,
				"y": 0.1648721165,
				"z": -2.6176829396,
				"element": "H" 
			},
			{
				"x": 0.6339206624,
				"y": -3.6402424564,
				"z": -3.5578268222,
				"element": "H" 
			}
		],
		 "valence_orbital": [ 
			{
				"type": "occ",
				"energy": -0.31145,
				"method": "rhf"
			},
			{
				"type": "occ",
				"energy": -0.30122,
				"method": "rhf"
			},
			{
				"type": "occ",
				"energy": -0.28315,
				"method": "rhf"
			},
			{
				"type": "occ",
				"energy": -0.28011,
				"method": "rhf"
			},
			{
				"type": "occ",
				"energy": -0.26088,
				"method": "rhf"
			},
			{
				"type": "unocc",
				"energy": 0.01263,
				"method": "rhf"
			},
			{
				"type": "unocc",
				"energy": 0.06398,
				"method": "rhf"
			},
			{
				"type": "unocc",
				"energy": 0.08269,
				"method": "rhf"
			},
			{
				"type": "unocc",
				"energy": 0.10441,
				"method": "rhf"
			},
			{
				"type": "unocc",
				"energy": 0.11425,
				"method": "rhf"
			}
		],
		"cosmo_sigma_profile": { 
			"-0.025": 0.0,
			"-0.024": 0.0,
			"-0.023": 0.0,
			"-0.022": 0.0,
			"-0.021": 0.0,
			"-0.02": 0.0,
			"-0.019": 0.0,
			"-0.018": 0.251468344764,
			"-0.017": 1.11072906001,
			"-0.016": 0.590814657914,
			"-0.015": 0.769305748821,
			"-0.014": 1.07502611882,
			"-0.013": 0.655258068009,
			"-0.012": 0.435536245648,
			"-0.011": 0.848338538202,
			"-0.01": 0.95935025759,
			"-0.009": 0.367204046573,
			"-0.008": 0.583543700444,
			"-0.007": 0.631338882929,
			"-0.006": 0.758830750112,
			"-0.005": 1.10936222574,
			"-0.004": 1.68668244009,
			"-0.003": 12.9354755305,
			"-0.002": 55.1398555259,
			"-0.001": 48.556476614,
			"0.0": 33.7358408916,
			"0.001": 32.5189303827,
			"0.002": 18.5771448114,
			"0.003": 3.5144605262,
			"0.004": 3.57992397792,
			"0.005": 4.10172288246,
			"0.006": 2.61103493622,
			"0.007": 2.30713660669,
			"0.008": 3.04928399596,
			"0.009": 2.84383074648,
			"0.01": 1.47944650898,
			"0.011": 2.49944259414,
			"0.012": 5.39368238047,
			"0.013": 1.38088493207,
			"0.014": 0.00941721258963,
			"0.015": 0.0,
			"0.016": 0.0,
			"0.017": 0.0,
			"0.018": 0.0,
			"0.019": 0.0,
			"0.02": 0.0,
			"0.021": 0.0,
			"0.022": 0.0,
			"0.023": 0.0,
			"0.024": 0.0,
			"0.025": 0.0
		}
	}
}
