{
	 "smiles": "OC(=O)C1=C(OC2=CC=C(Cl)C=C2)C=CC=C1Cl", 
	 "Tm": 383.15, 
	 "num_atms": 26, 
	 "gaussian": { 
		 "optdone": 1, 
		 "sigma_profile": "yes", 
		 "theory": "DFT", 
		 "functional": "B3LYP", 
		 "basiset": "6-31G**", 
		 "properties": { 
			 "R2extent": 6773.7495, 
			 "electric_dipole_moment_norm": 2.59565254609, 
			 "electric_quadrupole_moment_norm": 11.8339378539, 
			 "total_energy": -1646.25503043, 
			 "HOMO_LUMO_gap": 0.18188, 
			 "cosmo_polarized_energy": -12.94, 
			 "cosmo_cavitation_energy": 35.18, 
			 "cosmo_dispersion_energy": -24.56, 
			 "cosmo_repulsion_energy": 1.92, 
			 "cosmo_total_nonelectrostatic_energy": 12.54, 
			 "SMD_solvation_energy": 6.6 
		},
		"coords": [
			{
				"x": -1.376959246,
				"y": 0.8473418392,
				"z": -2.862208358,
				"element": "O" 
			},
			{
				"x": -1.9176409938,
				"y": 0.3807001155,
				"z": -1.7185690348,
				"element": "C" 
			},
			{
				"x": -2.8180037297,
				"y": 0.9338396827,
				"z": -1.1303552029,
				"element": "O" 
			},
			{
				"x": -1.2554536117,
				"y": -0.8848757716,
				"z": -1.2508990361,
				"element": "C" 
			},
			{
				"x": -0.6649097942,
				"y": -0.9282244027,
				"z": 0.0280051237,
				"element": "C" 
			},
			{
				"x": -0.6811319926,
				"y": 0.1645963241,
				"z": 0.8656186018,
				"element": "O" 
			},
			{
				"x": -0.0177744569,
				"y": 1.3288965296,
				"z": 0.5277880216,
				"element": "C" 
			},
			{
				"x": 1.0429089899,
				"y": 1.373501055,
				"z": -0.3790680676,
				"element": "C" 
			},
			{
				"x": 1.6896771769,
				"y": 2.5869513945,
				"z": -0.6211718231,
				"element": "C" 
			},
			{
				"x": 1.2747416819,
				"y": 3.7360214962,
				"z": 0.0476306182,
				"element": "C" 
			},
			{
				"x": 2.0919245865,
				"y": 5.2629800717,
				"z": -0.2591764333,
				"element": "Cl" 
			},
			{
				"x": 0.216439947,
				"y": 3.6918802668,
				"z": 0.9574659433,
				"element": "C" 
			},
			{
				"x": -0.4330451965,
				"y": 2.4842432974,
				"z": 1.194561772,
				"element": "C" 
			},
			{
				"x": -0.1005831138,
				"y": -2.1011521719,
				"z": 0.5248314,
				"element": "C" 
			},
			{
				"x": -0.1291599282,
				"y": -3.2610326256,
				"z": -0.2464742921,
				"element": "C" 
			},
			{
				"x": -0.7083963304,
				"y": -3.2522046826,
				"z": -1.5132192155,
				"element": "C" 
			},
			{
				"x": -1.2619045178,
				"y": -2.0688635437,
				"z": -2.00330937,
				"element": "C" 
			},
			{
				"x": -2.0333513521,
				"y": -2.1230008743,
				"z": -3.579444307,
				"element": "Cl" 
			},
			{
				"x": -1.8763858244,
				"y": 1.6495776609,
				"z": -3.0936666352,
				"element": "H" 
			},
			{
				"x": 1.3680699114,
				"y": 0.4758254885,
				"z": -0.8925260552,
				"element": "H" 
			},
			{
				"x": 2.5148046451,
				"y": 2.633515675,
				"z": -1.3231005439,
				"element": "H" 
			},
			{
				"x": -0.0997870469,
				"y": 4.5942368148,
				"z": 1.4686732334,
				"element": "H" 
			},
			{
				"x": -1.2652117702,
				"y": 2.4211582865,
				"z": 1.8868240104,
				"element": "H" 
			},
			{
				"x": 0.344252829,
				"y": -2.0834104045,
				"z": 1.5133849754,
				"element": "H" 
			},
			{
				"x": 0.3039717613,
				"y": -4.1784224146,
				"z": 0.1395815633,
				"element": "H" 
			},
			{
				"x": -0.743592624,
				"y": -4.1496791071,
				"z": -2.1194768883,
				"element": "H" 
			}
		],
		 "valence_orbital": [ 
			{
				"type": "occ",
				"energy": -0.29366,
				"method": "rhf"
			},
			{
				"type": "occ",
				"energy": -0.27129,
				"method": "rhf"
			},
			{
				"type": "occ",
				"energy": -0.26785,
				"method": "rhf"
			},
			{
				"type": "occ",
				"energy": -0.26016,
				"method": "rhf"
			},
			{
				"type": "occ",
				"energy": -0.23123,
				"method": "rhf"
			},
			{
				"type": "unocc",
				"energy": -0.04935,
				"method": "rhf"
			},
			{
				"type": "unocc",
				"energy": -0.02925,
				"method": "rhf"
			},
			{
				"type": "unocc",
				"energy": -0.01825,
				"method": "rhf"
			},
			{
				"type": "unocc",
				"energy": -0.00817,
				"method": "rhf"
			},
			{
				"type": "unocc",
				"energy": 0.00912,
				"method": "rhf"
			}
		],
		"cosmo_sigma_profile": { 
			"-0.025": 0.0,
			"-0.024": 0.0,
			"-0.023": 0.0,
			"-0.022": 0.0,
			"-0.021": 0.0,
			"-0.02": 0.0,
			"-0.019": 0.434435929557,
			"-0.018": 1.21758096902,
			"-0.017": 0.594567788164,
			"-0.016": 0.798281215107,
			"-0.015": 1.15516285636,
			"-0.014": 0.855844722986,
			"-0.013": 0.448032124809,
			"-0.012": 0.391273606268,
			"-0.011": 0.995145245639,
			"-0.01": 0.614816615004,
			"-0.009": 0.442009987225,
			"-0.008": 5.59258412533,
			"-0.007": 14.4469875721,
			"-0.006": 14.7142081137,
			"-0.005": 13.9850496046,
			"-0.004": 10.4432045014,
			"-0.003": 12.6849528463,
			"-0.002": 16.0927654324,
			"-0.001": 16.5975238274,
			"0.0": 23.9200433805,
			"0.001": 30.001008464,
			"0.002": 32.8565238233,
			"0.003": 27.6121215767,
			"0.004": 20.8924638463,
			"0.005": 12.8721500146,
			"0.006": 5.42266795723,
			"0.007": 5.0617330113,
			"0.008": 4.63850931383,
			"0.009": 3.0726770948,
			"0.01": 3.46229726059,
			"0.011": 4.10452875611,
			"0.012": 0.807759169232,
			"0.013": 0.0,
			"0.014": 0.0,
			"0.015": 0.0,
			"0.016": 0.0,
			"0.017": 0.0,
			"0.018": 0.0,
			"0.019": 0.0,
			"0.02": 0.0,
			"0.021": 0.0,
			"0.022": 0.0,
			"0.023": 0.0,
			"0.024": 0.0,
			"0.025": 0.0
		}
	}
}
