{
	 "smiles": "COC1=CC=C2N=C(Cl)C(CO)=CC2=C1", 
	 "Tm": 406.15, 
	 "num_atms": 25, 
	 "gaussian": { 
		 "optdone": 1, 
		 "sigma_profile": "yes", 
		 "theory": "DFT", 
		 "functional": "B3LYP", 
		 "basiset": "6-31G**", 
		 "properties": { 
			 "R2extent": 4995.2345, 
			 "electric_dipole_moment_norm": 4.26850488345, 
			 "electric_quadrupole_moment_norm": 6.62984621164, 
			 "total_energy": -1090.57852596, 
			 "HOMO_LUMO_gap": 0.16867, 
			 "cosmo_polarized_energy": -12.84, 
			 "cosmo_cavitation_energy": 30.73, 
			 "cosmo_dispersion_energy": -22.94, 
			 "cosmo_repulsion_energy": 1.79, 
			 "cosmo_total_nonelectrostatic_energy": 9.58, 
			 "SMD_solvation_energy": 4.1 
		},
		"coords": [
			{
				"x": 3.1122065172,
				"y": -1.1999429016,
				"z": -2.4022194234,
				"element": "C" 
			},
			{
				"x": 2.7251428985,
				"y": 0.1340437258,
				"z": -2.1082290595,
				"element": "O" 
			},
			{
				"x": 1.5211992687,
				"y": 0.3354081141,
				"z": -1.5061570767,
				"element": "C" 
			},
			{
				"x": 1.2151012187,
				"y": 1.7009155882,
				"z": -1.242909717,
				"element": "C" 
			},
			{
				"x": 0.035093962,
				"y": 2.0495991759,
				"z": -0.6373363895,
				"element": "C" 
			},
			{
				"x": -0.9029254042,
				"y": 1.0502327803,
				"z": -0.2630167943,
				"element": "C" 
			},
			{
				"x": -2.064803871,
				"y": 1.4260968388,
				"z": 0.3439670672,
				"element": "N" 
			},
			{
				"x": -2.9111801773,
				"y": 0.4990729919,
				"z": 0.6768961635,
				"element": "C" 
			},
			{
				"x": -4.3977688606,
				"y": 1.0454048576,
				"z": 1.4803675131,
				"element": "Cl" 
			},
			{
				"x": -2.7447185382,
				"y": -0.899719411,
				"z": 0.4601970141,
				"element": "C" 
			},
			{
				"x": -3.7863648285,
				"y": -1.9214012114,
				"z": 0.8779715189,
				"element": "C" 
			},
			{
				"x": -3.5210575237,
				"y": -3.2251575188,
				"z": 0.3871247392,
				"element": "O" 
			},
			{
				"x": -1.565847842,
				"y": -1.2803214348,
				"z": -0.1427410907,
				"element": "C" 
			},
			{
				"x": -0.5987825225,
				"y": -0.3181014193,
				"z": -0.5298488885,
				"element": "C" 
			},
			{
				"x": 0.6285851982,
				"y": -0.6609069833,
				"z": -1.1560763947,
				"element": "C" 
			},
			{
				"x": 4.0944645603,
				"y": -1.1328551703,
				"z": -2.8717138677,
				"element": "H" 
			},
			{
				"x": 3.1859376679,
				"y": -1.8071664985,
				"z": -1.4910655396,
				"element": "H" 
			},
			{
				"x": 2.409993353,
				"y": -1.6785063563,
				"z": -3.0967760915,
				"element": "H" 
			},
			{
				"x": 1.945532162,
				"y": 2.4479755403,
				"z": -1.5357114165,
				"element": "H" 
			},
			{
				"x": -0.2113162051,
				"y": 3.0851119009,
				"z": -0.4282488412,
				"element": "H" 
			},
			{
				"x": -4.7854737492,
				"y": -1.5722331935,
				"z": 0.5831675639,
				"element": "H" 
			},
			{
				"x": -3.8003183822,
				"y": -2.0059399274,
				"z": 1.9706608193,
				"element": "H" 
			},
			{
				"x": -3.6899615028,
				"y": -3.221011455,
				"z": -0.5643265096,
				"element": "H" 
			},
			{
				"x": -1.3846862483,
				"y": -2.3377010416,
				"z": -0.312197286,
				"element": "H" 
			},
			{
				"x": 0.8417488492,
				"y": -1.7063969908,
				"z": -1.3465780126,
				"element": "H" 
			}
		],
		 "valence_orbital": [ 
			{
				"type": "occ",
				"energy": -0.29559,
				"method": "rhf"
			},
			{
				"type": "occ",
				"energy": -0.28996,
				"method": "rhf"
			},
			{
				"type": "occ",
				"energy": -0.26841,
				"method": "rhf"
			},
			{
				"type": "occ",
				"energy": -0.24355,
				"method": "rhf"
			},
			{
				"type": "occ",
				"energy": -0.22319,
				"method": "rhf"
			},
			{
				"type": "unocc",
				"energy": -0.05452,
				"method": "rhf"
			},
			{
				"type": "unocc",
				"energy": -0.01909,
				"method": "rhf"
			},
			{
				"type": "unocc",
				"energy": 0.01655,
				"method": "rhf"
			},
			{
				"type": "unocc",
				"energy": 0.03592,
				"method": "rhf"
			},
			{
				"type": "unocc",
				"energy": 0.0673,
				"method": "rhf"
			}
		],
		"cosmo_sigma_profile": { 
			"-0.025": 0.0,
			"-0.024": 0.0,
			"-0.023": 0.0,
			"-0.022": 0.0,
			"-0.021": 0.0,
			"-0.02": 0.0,
			"-0.019": 0.0,
			"-0.018": 0.0,
			"-0.017": 0.157300189774,
			"-0.016": 0.757719333118,
			"-0.015": 0.904899002533,
			"-0.014": 0.998071177477,
			"-0.013": 1.15026389968,
			"-0.012": 0.680031454856,
			"-0.011": 0.847197363445,
			"-0.01": 1.43006479767,
			"-0.009": 0.808566293169,
			"-0.008": 1.60757084647,
			"-0.007": 6.3905662698,
			"-0.006": 14.9491078579,
			"-0.005": 18.9805329188,
			"-0.004": 18.5517303906,
			"-0.003": 15.9793290078,
			"-0.002": 13.628604303,
			"-0.001": 13.8540054029,
			"0.0": 17.3026424994,
			"0.001": 18.8394717433,
			"0.002": 27.0665718216,
			"0.003": 20.3328323824,
			"0.004": 13.6524849642,
			"0.005": 9.60406338725,
			"0.006": 5.54632948799,
			"0.007": 4.24671914518,
			"0.008": 3.01350472774,
			"0.009": 4.22176648893,
			"0.01": 3.43645436559,
			"0.011": 2.29552222473,
			"0.012": 1.87853639094,
			"0.013": 2.89473557687,
			"0.014": 1.22125800125,
			"0.015": 0.074597467672,
			"0.016": 0.0,
			"0.017": 0.0,
			"0.018": 0.0,
			"0.019": 0.0,
			"0.02": 0.0,
			"0.021": 0.0,
			"0.022": 0.0,
			"0.023": 0.0,
			"0.024": 0.0,
			"0.025": 0.0
		}
	}
}
