{
	 "smiles": "CC1=CC=CC(N)=C1C", 
	 "Tm": 275.65, 
	 "num_atms": 20, 
	 "gaussian": { 
		 "optdone": 1, 
		 "sigma_profile": "yes", 
		 "theory": "DFT", 
		 "functional": "B3LYP", 
		 "basiset": "6-31G**", 
		 "properties": { 
			 "R2extent": 1389.1674, 
			 "electric_dipole_moment_norm": 1.63066048582, 
			 "electric_quadrupole_moment_norm": 7.35365220214, 
			 "total_energy": -366.247280299, 
			 "HOMO_LUMO_gap": 0.20638, 
			 "cosmo_polarized_energy": -7.42, 
			 "cosmo_cavitation_energy": 22.14, 
			 "cosmo_dispersion_energy": -16.6, 
			 "cosmo_repulsion_energy": 1.35, 
			 "cosmo_total_nonelectrostatic_energy": 6.88, 
			 "SMD_solvation_energy": 3.75 
		},
		"coords": [
			{
				"x": 2.2381752126,
				"y": 1.0334479665,
				"z": 1.8710413707,
				"element": "C" 
			},
			{
				"x": 1.606757216,
				"y": 0.5389187977,
				"z": 0.586888879,
				"element": "C" 
			},
			{
				"x": 1.9689733126,
				"y": 1.1434149316,
				"z": -0.6243487809,
				"element": "C" 
			},
			{
				"x": 1.4077935403,
				"y": 0.7168070461,
				"z": -1.8265657621,
				"element": "C" 
			},
			{
				"x": 0.4871687075,
				"y": -0.3246201915,
				"z": -1.83627148,
				"element": "C" 
			},
			{
				"x": 0.1119547374,
				"y": -0.9439334274,
				"z": -0.6344002466,
				"element": "C" 
			},
			{
				"x": -0.8598118097,
				"y": -1.9553201526,
				"z": -0.6434189661,
				"element": "N" 
			},
			{
				"x": 0.6660800409,
				"y": -0.5089439668,
				"z": 0.5913040897,
				"element": "C" 
			},
			{
				"x": 0.2144826273,
				"y": -1.1870134476,
				"z": 1.8642564003,
				"element": "C" 
			},
			{
				"x": 1.4929142,
				"y": 1.4359905489,
				"z": 2.5675955036,
				"element": "H" 
			},
			{
				"x": 2.7735883731,
				"y": 0.2365799646,
				"z": 2.4003557609,
				"element": "H" 
			},
			{
				"x": 2.9564888772,
				"y": 1.8311375693,
				"z": 1.6644383942,
				"element": "H" 
			},
			{
				"x": 2.6935858214,
				"y": 1.9528185334,
				"z": -0.6197992241,
				"element": "H" 
			},
			{
				"x": 1.694201375,
				"y": 1.1918080778,
				"z": -2.760904062,
				"element": "H" 
			},
			{
				"x": 0.0503457081,
				"y": -0.6657674005,
				"z": -2.7721801258,
				"element": "H" 
			},
			{
				"x": -0.7521767777,
				"y": -2.6620107047,
				"z": 0.0713836911,
				"element": "H" 
			},
			{
				"x": -1.0072415077,
				"y": -2.3756729456,
				"z": -1.5513239941,
				"element": "H" 
			},
			{
				"x": -0.8803842921,
				"y": -1.2163124989,
				"z": 1.9248016515,
				"element": "H" 
			},
			{
				"x": 0.5821870401,
				"y": -0.6807631238,
				"z": 2.7571618015,
				"element": "H" 
			},
			{
				"x": 0.5652175976,
				"y": -2.2285655766,
				"z": 1.9224850993,
				"element": "H" 
			}
		],
		 "valence_orbital": [ 
			{
				"type": "occ",
				"energy": -0.33473,
				"method": "rhf"
			},
			{
				"type": "occ",
				"energy": -0.32172,
				"method": "rhf"
			},
			{
				"type": "occ",
				"energy": -0.29348,
				"method": "rhf"
			},
			{
				"type": "occ",
				"energy": -0.22466,
				"method": "rhf"
			},
			{
				"type": "occ",
				"energy": -0.19358,
				"method": "rhf"
			},
			{
				"type": "unocc",
				"energy": 0.0128,
				"method": "rhf"
			},
			{
				"type": "unocc",
				"energy": 0.02836,
				"method": "rhf"
			},
			{
				"type": "unocc",
				"energy": 0.07962,
				"method": "rhf"
			},
			{
				"type": "unocc",
				"energy": 0.10603,
				"method": "rhf"
			},
			{
				"type": "unocc",
				"energy": 0.11656,
				"method": "rhf"
			}
		],
		"cosmo_sigma_profile": { 
			"-0.025": 0.0,
			"-0.024": 0.0,
			"-0.023": 0.0,
			"-0.022": 0.0,
			"-0.021": 0.0,
			"-0.02": 0.0,
			"-0.019": 0.0,
			"-0.018": 0.0,
			"-0.017": 0.0,
			"-0.016": 0.0,
			"-0.015": 0.0,
			"-0.014": 0.0,
			"-0.013": 0.0,
			"-0.012": 0.67504624471,
			"-0.011": 2.29717651377,
			"-0.01": 2.31128745715,
			"-0.009": 3.72918286932,
			"-0.008": 2.55988458789,
			"-0.007": 2.72047128447,
			"-0.006": 3.41383316513,
			"-0.005": 5.04264962125,
			"-0.004": 11.2707091324,
			"-0.003": 18.6586409256,
			"-0.002": 17.7301383358,
			"-0.001": 15.6771597273,
			"0.0": 17.4624911913,
			"0.001": 14.2249101571,
			"0.002": 8.26820592928,
			"0.003": 6.77943129361,
			"0.004": 6.63968157788,
			"0.005": 7.46574635543,
			"0.006": 7.8199761692,
			"0.007": 8.18310874273,
			"0.008": 5.94374582917,
			"0.009": 1.17915594458,
			"0.01": 0.815557463988,
			"0.011": 0.385606270472,
			"0.012": 1.00276278177,
			"0.013": 0.630970094559,
			"0.014": 0.463753509305,
			"0.015": 0.495740284946,
			"0.016": 0.0669314788334,
			"0.017": 0.0,
			"0.018": 0.0,
			"0.019": 0.0,
			"0.02": 0.0,
			"0.021": 0.0,
			"0.022": 0.0,
			"0.023": 0.0,
			"0.024": 0.0,
			"0.025": 0.0
		}
	}
}
