{
	 "smiles": "NCCCNCCNCCCN", 
	 "Tm": 271.65, 
	 "num_atms": 34, 
	 "gaussian": { 
		 "optdone": 1, 
		 "sigma_profile": "yes", 
		 "theory": "DFT", 
		 "functional": "B3LYP", 
		 "basiset": "6-31G**", 
		 "properties": { 
			 "R2extent": 4275.1868, 
			 "electric_dipole_moment_norm": 3.38045468391, 
			 "electric_quadrupole_moment_norm": 11.9433486862, 
			 "total_energy": -537.091446582, 
			 "HOMO_LUMO_gap": 0.27587, 
			 "cosmo_polarized_energy": -14.72, 
			 "cosmo_cavitation_energy": 34.89, 
			 "cosmo_dispersion_energy": -24.17, 
			 "cosmo_repulsion_energy": 2.05, 
			 "cosmo_total_nonelectrostatic_energy": 12.77, 
			 "SMD_solvation_energy": 0.5 
		},
		"coords": [
			{
				"x": -1.5451012075,
				"y": 5.7815102005,
				"z": 0.229256151,
				"element": "N" 
			},
			{
				"x": -0.6877372967,
				"y": 4.6359738549,
				"z": -0.098210547,
				"element": "C" 
			},
			{
				"x": -1.4954467414,
				"y": 3.5355159845,
				"z": -0.7890091978,
				"element": "C" 
			},
			{
				"x": -0.6329821397,
				"y": 2.3349130695,
				"z": -1.1973375446,
				"element": "C" 
			},
			{
				"x": -1.4224514215,
				"y": 1.2972991773,
				"z": -1.8762300234,
				"element": "N" 
			},
			{
				"x": -2.177091823,
				"y": 0.3730263459,
				"z": -1.0344272841,
				"element": "C" 
			},
			{
				"x": -1.4120809262,
				"y": -0.7926564303,
				"z": -0.3828547843,
				"element": "C" 
			},
			{
				"x": -0.4710735656,
				"y": -0.3615243682,
				"z": 0.6506820673,
				"element": "N" 
			},
			{
				"x": 0.2151535389,
				"y": -1.4608919645,
				"z": 1.3384374245,
				"element": "C" 
			},
			{
				"x": 1.3705300916,
				"y": -2.0507913983,
				"z": 0.5191787322,
				"element": "C" 
			},
			{
				"x": 2.4755904956,
				"y": -1.0408438026,
				"z": 0.2048933601,
				"element": "C" 
			},
			{
				"x": 3.5107349453,
				"y": -1.656505934,
				"z": -0.6329227396,
				"element": "N" 
			},
			{
				"x": -0.9941969018,
				"y": 6.5109881376,
				"z": 0.6756346356,
				"element": "H" 
			},
			{
				"x": -2.2435776739,
				"y": 5.4982835905,
				"z": 0.9137698366,
				"element": "H" 
			},
			{
				"x": -0.162645417,
				"y": 4.2051988787,
				"z": 0.7750407363,
				"element": "H" 
			},
			{
				"x": 0.0950877959,
				"y": 4.9919393133,
				"z": -0.7809898691,
				"element": "H" 
			},
			{
				"x": -1.9919887554,
				"y": 3.9475387662,
				"z": -1.6735302331,
				"element": "H" 
			},
			{
				"x": -2.2954940063,
				"y": 3.2049519716,
				"z": -0.1101124358,
				"element": "H" 
			},
			{
				"x": 0.1221584402,
				"y": 2.6816141467,
				"z": -1.9141830407,
				"element": "H" 
			},
			{
				"x": -0.0852492228,
				"y": 1.9456952133,
				"z": -0.3256035454,
				"element": "H" 
			},
			{
				"x": -0.8221742678,
				"y": 0.7659467699,
				"z": -2.4996938224,
				"element": "H" 
			},
			{
				"x": -2.9760531001,
				"y": -0.0710768685,
				"z": -1.6443035468,
				"element": "H" 
			},
			{
				"x": -2.6889958428,
				"y": 0.9541110797,
				"z": -0.255779527,
				"element": "H" 
			},
			{
				"x": -0.8517632974,
				"y": -1.3209398045,
				"z": -1.1654034564,
				"element": "H" 
			},
			{
				"x": -2.1535012984,
				"y": -1.5217301422,
				"z": 0.0049879631,
				"element": "H" 
			},
			{
				"x": -0.9801141612,
				"y": 0.1873683283,
				"z": 1.338925545,
				"element": "H" 
			},
			{
				"x": -0.4806245186,
				"y": -2.2766813408,
				"z": 1.6123683407,
				"element": "H" 
			},
			{
				"x": 0.6156111977,
				"y": -1.060299986,
				"z": 2.2782519842,
				"element": "H" 
			},
			{
				"x": 1.7909916065,
				"y": -2.894352129,
				"z": 1.0851644547,
				"element": "H" 
			},
			{
				"x": 1.0045293408,
				"y": -2.4726975163,
				"z": -0.423922329,
				"element": "H" 
			},
			{
				"x": 2.8556910962,
				"y": -0.620584474,
				"z": 1.1554022846,
				"element": "H" 
			},
			{
				"x": 2.0385932161,
				"y": -0.2035144431,
				"z": -0.348072486,
				"element": "H" 
			},
			{
				"x": 4.0049908916,
				"y": -2.3702778019,
				"z": -0.1010870081,
				"element": "H" 
			},
			{
				"x": 4.2091809286,
				"y": -0.9625064241,
				"z": -0.8877200952,
				"element": "H" 
			}
		],
		 "valence_orbital": [ 
			{
				"type": "occ",
				"energy": -0.31521,
				"method": "rhf"
			},
			{
				"type": "occ",
				"energy": -0.22766,
				"method": "rhf"
			},
			{
				"type": "occ",
				"energy": -0.22737,
				"method": "rhf"
			},
			{
				"type": "occ",
				"energy": -0.22436,
				"method": "rhf"
			},
			{
				"type": "occ",
				"energy": -0.2003,
				"method": "rhf"
			},
			{
				"type": "unocc",
				"energy": 0.07557,
				"method": "rhf"
			},
			{
				"type": "unocc",
				"energy": 0.08608,
				"method": "rhf"
			},
			{
				"type": "unocc",
				"energy": 0.09249,
				"method": "rhf"
			},
			{
				"type": "unocc",
				"energy": 0.09497,
				"method": "rhf"
			},
			{
				"type": "unocc",
				"energy": 0.10408,
				"method": "rhf"
			}
		],
		"cosmo_sigma_profile": { 
			"-0.025": 0.0,
			"-0.024": 0.0,
			"-0.023": 0.0,
			"-0.022": 0.0,
			"-0.021": 0.0,
			"-0.02": 0.0,
			"-0.019": 0.0,
			"-0.018": 0.0,
			"-0.017": 0.0,
			"-0.016": 0.0,
			"-0.015": 0.0,
			"-0.014": 0.0,
			"-0.013": 0.0,
			"-0.012": 0.0,
			"-0.011": 0.0,
			"-0.01": 0.565447518105,
			"-0.009": 6.43175616095,
			"-0.008": 7.96860481399,
			"-0.007": 9.14259023043,
			"-0.006": 8.22080096558,
			"-0.005": 9.05942156039,
			"-0.004": 11.5231866541,
			"-0.003": 23.1178275131,
			"-0.002": 30.5046859447,
			"-0.001": 44.5746458291,
			"0.0": 35.5414923757,
			"0.001": 17.0737362632,
			"0.002": 10.2533477751,
			"0.003": 6.24404311738,
			"0.004": 5.23421426597,
			"0.005": 4.57186414657,
			"0.006": 4.36521792785,
			"0.007": 3.96701497614,
			"0.008": 3.44341337298,
			"0.009": 4.29105734812,
			"0.01": 2.94516147594,
			"0.011": 2.15401477783,
			"0.012": 2.15961804346,
			"0.013": 2.07549165137,
			"0.014": 1.89422251488,
			"0.015": 1.74870321845,
			"0.016": 1.17760377898,
			"0.017": 1.72910497117,
			"0.018": 1.83430532665,
			"0.019": 1.22881977207,
			"0.02": 1.01333987097,
			"0.021": 0.112205247731,
			"0.022": 0.0,
			"0.023": 0.0,
			"0.024": 0.0,
			"0.025": 0.0
		}
	}
}
