{
	 "smiles": "FC(F)(F)OC1=CC=C(C=C1)C(=O)CBr", 
	 "Tm": 329.65, 
	 "num_atms": 21, 
	 "gaussian": { 
		 "optdone": 1, 
		 "sigma_profile": "yes", 
		 "theory": "DFT", 
		 "functional": "B3LYP", 
		 "basiset": "6-31G**", 
		 "properties": { 
			 "R2extent": 6330.5177, 
			 "electric_dipole_moment_norm": 1.85441584064, 
			 "electric_quadrupole_moment_norm": 10.0635064595, 
			 "total_energy": -3367.94585576, 
			 "HOMO_LUMO_gap": 0.18146, 
			 "cosmo_polarized_energy": -8.29, 
			 "cosmo_cavitation_energy": 29.73, 
			 "cosmo_dispersion_energy": -21.57, 
			 "cosmo_repulsion_energy": 1.63, 
			 "cosmo_total_nonelectrostatic_energy": 9.79, 
			 "SMD_solvation_energy": 6.09 
		},
		"coords": [
			{
				"x": -3.8624648121,
				"y": 0.3775515175,
				"z": 2.7928042769,
				"element": "F" 
			},
			{
				"x": -4.3649069371,
				"y": -0.4541815675,
				"z": 1.8614440703,
				"element": "C" 
			},
			{
				"x": -4.7617934139,
				"y": 0.300815726,
				"z": 0.819824058,
				"element": "F" 
			},
			{
				"x": -5.4273658847,
				"y": -1.0713532872,
				"z": 2.3698308005,
				"element": "F" 
			},
			{
				"x": -3.4776969438,
				"y": -1.4168836945,
				"z": 1.4939506742,
				"element": "O" 
			},
			{
				"x": -2.255015361,
				"y": -1.0967094569,
				"z": 0.9161242657,
				"element": "C" 
			},
			{
				"x": -1.8061925981,
				"y": 0.2020055483,
				"z": 0.6689074565,
				"element": "C" 
			},
			{
				"x": -0.5546140288,
				"y": 0.376808605,
				"z": 0.081122273,
				"element": "C" 
			},
			{
				"x": 0.2476154128,
				"y": -0.7206430747,
				"z": -0.2611681001,
				"element": "C" 
			},
			{
				"x": -0.229972377,
				"y": -2.0159388179,
				"z": 0.0038722583,
				"element": "C" 
			},
			{
				"x": -1.4720652668,
				"y": -2.2076091589,
				"z": 0.587966606,
				"element": "C" 
			},
			{
				"x": 1.5793553171,
				"y": -0.5926275522,
				"z": -0.917844008,
				"element": "C" 
			},
			{
				"x": 2.2475760718,
				"y": -1.5731472664,
				"z": -1.2061437424,
				"element": "O" 
			},
			{
				"x": 2.115773448,
				"y": 0.7860925437,
				"z": -1.2931695521,
				"element": "C" 
			},
			{
				"x": 2.7250379697,
				"y": 1.7787894542,
				"z": 0.3083900344,
				"element": "Br" 
			},
			{
				"x": -2.4051075611,
				"y": 1.064307128,
				"z": 0.9279713359,
				"element": "H" 
			},
			{
				"x": -0.2039761755,
				"y": 1.389107693,
				"z": -0.0857865734,
				"element": "H" 
			},
			{
				"x": 0.3952394185,
				"y": -2.8609113227,
				"z": -0.2627715412,
				"element": "H" 
			},
			{
				"x": -1.855371804,
				"y": -3.2002660326,
				"z": 0.7972858256,
				"element": "H" 
			},
			{
				"x": 2.9930217491,
				"y": 0.6574452563,
				"z": -1.9218353489,
				"element": "H" 
			},
			{
				"x": 1.3742237768,
				"y": 1.4204477596,
				"z": -1.7783750692,
				"element": "H" 
			}
		],
		 "valence_orbital": [ 
			{
				"type": "occ",
				"energy": -0.29906,
				"method": "rhf"
			},
			{
				"type": "occ",
				"energy": -0.28998,
				"method": "rhf"
			},
			{
				"type": "occ",
				"energy": -0.2793,
				"method": "rhf"
			},
			{
				"type": "occ",
				"energy": -0.26552,
				"method": "rhf"
			},
			{
				"type": "occ",
				"energy": -0.26159,
				"method": "rhf"
			},
			{
				"type": "unocc",
				"energy": -0.08013,
				"method": "rhf"
			},
			{
				"type": "unocc",
				"energy": -0.02898,
				"method": "rhf"
			},
			{
				"type": "unocc",
				"energy": -0.01855,
				"method": "rhf"
			},
			{
				"type": "unocc",
				"energy": 0.0395,
				"method": "rhf"
			},
			{
				"type": "unocc",
				"energy": 0.07572,
				"method": "rhf"
			}
		],
		"cosmo_sigma_profile": { 
			"-0.025": 0.0,
			"-0.024": 0.0,
			"-0.023": 0.0,
			"-0.022": 0.0,
			"-0.021": 0.0,
			"-0.02": 0.0,
			"-0.019": 0.0,
			"-0.018": 0.0,
			"-0.017": 0.0,
			"-0.016": 0.0,
			"-0.015": 0.0,
			"-0.014": 0.0,
			"-0.013": 0.0,
			"-0.012": 0.0,
			"-0.011": 0.0,
			"-0.01": 0.750231385792,
			"-0.009": 3.86854261068,
			"-0.008": 7.32910054004,
			"-0.007": 8.82779246298,
			"-0.006": 10.3073011632,
			"-0.005": 8.94820701219,
			"-0.004": 8.38559108825,
			"-0.003": 10.3806965726,
			"-0.002": 13.6121110925,
			"-0.001": 18.9345086588,
			"0.0": 25.3528155303,
			"0.001": 42.1726638666,
			"0.002": 37.0636066166,
			"0.003": 10.1572502676,
			"0.004": 12.3423503648,
			"0.005": 9.16478867714,
			"0.006": 1.54327794809,
			"0.007": 1.97511942571,
			"0.008": 2.0570004568,
			"0.009": 1.25092824823,
			"0.01": 3.25069213903,
			"0.011": 3.72164397848,
			"0.012": 0.929183546671,
			"0.013": 0.0,
			"0.014": 0.0,
			"0.015": 0.0,
			"0.016": 0.0,
			"0.017": 0.0,
			"0.018": 0.0,
			"0.019": 0.0,
			"0.02": 0.0,
			"0.021": 0.0,
			"0.022": 0.0,
			"0.023": 0.0,
			"0.024": 0.0,
			"0.025": 0.0
		}
	}
}
