{
	 "smiles": "CC1=CC(=NN1)C1=CC=CC=C1", 
	 "Tm": 401.15, 
	 "num_atms": 22, 
	 "gaussian": { 
		 "optdone": 1, 
		 "sigma_profile": "yes", 
		 "theory": "DFT", 
		 "functional": "B3LYP", 
		 "basiset": "6-31G**", 
		 "properties": { 
			 "R2extent": 2798.4109, 
			 "electric_dipole_moment_norm": 3.00332518552, 
			 "electric_quadrupole_moment_norm": 15.959321244, 
			 "total_energy": -496.587518426, 
			 "HOMO_LUMO_gap": 0.19675, 
			 "cosmo_polarized_energy": -11.07, 
			 "cosmo_cavitation_energy": 25.85, 
			 "cosmo_dispersion_energy": -19.36, 
			 "cosmo_repulsion_energy": 1.54, 
			 "cosmo_total_nonelectrostatic_energy": 8.03, 
			 "SMD_solvation_energy": 3.62 
		},
		"coords": [
			{
				"x": -3.1990917429,
				"y": 2.939687412,
				"z": 0.2732162096,
				"element": "C" 
			},
			{
				"x": -1.7949316781,
				"y": 2.4295352602,
				"z": 0.2006672358,
				"element": "C" 
			},
			{
				"x": -1.281755019,
				"y": 1.1608572016,
				"z": 0.0155436873,
				"element": "C" 
			},
			{
				"x": 0.133266323,
				"y": 1.3094308957,
				"z": 0.0395704041,
				"element": "C" 
			},
			{
				"x": 0.4710526499,
				"y": 2.5907509833,
				"z": 0.2278312336,
				"element": "N" 
			},
			{
				"x": -0.7061205094,
				"y": 3.2419841324,
				"z": 0.3214477513,
				"element": "N" 
			},
			{
				"x": 1.1712793174,
				"y": 0.2748633173,
				"z": -0.1104484999,
				"element": "C" 
			},
			{
				"x": 0.8301353218,
				"y": -1.0723717508,
				"z": -0.3079822977,
				"element": "C" 
			},
			{
				"x": 1.8184775346,
				"y": -2.0458173467,
				"z": -0.4491880233,
				"element": "C" 
			},
			{
				"x": 3.1674866157,
				"y": -1.6918092866,
				"z": -0.3957213789,
				"element": "C" 
			},
			{
				"x": 3.5180716889,
				"y": -0.3531667451,
				"z": -0.19941526,
				"element": "C" 
			},
			{
				"x": 2.5328269579,
				"y": 0.62029468,
				"z": -0.0582098579,
				"element": "C" 
			},
			{
				"x": -3.9028183621,
				"y": 2.1136298948,
				"z": 0.150998031,
				"element": "H" 
			},
			{
				"x": -3.4101015996,
				"y": 3.4175680929,
				"z": 1.2371899473,
				"element": "H" 
			},
			{
				"x": -3.4073047413,
				"y": 3.674247349,
				"z": -0.5136810565,
				"element": "H" 
			},
			{
				"x": -1.8572063684,
				"y": 0.2572470179,
				"z": -0.1178475973,
				"element": "H" 
			},
			{
				"x": -0.6991481403,
				"y": 4.2395483099,
				"z": 0.4676989403,
				"element": "H" 
			},
			{
				"x": -0.2148850683,
				"y": -1.3642882912,
				"z": -0.3519587505,
				"element": "H" 
			},
			{
				"x": 1.5325122746,
				"y": -3.082981588,
				"z": -0.6013074419,
				"element": "H" 
			},
			{
				"x": 3.9373724654,
				"y": -2.4500942593,
				"z": -0.5057240669,
				"element": "H" 
			},
			{
				"x": 4.5653242192,
				"y": -0.0663977523,
				"z": -0.1561569544,
				"element": "H" 
			},
			{
				"x": 2.8003578611,
				"y": 1.6602824731,
				"z": 0.0942777447,
				"element": "H" 
			}
		],
		 "valence_orbital": [ 
			{
				"type": "occ",
				"energy": -0.28089,
				"method": "rhf"
			},
			{
				"type": "occ",
				"energy": -0.28085,
				"method": "rhf"
			},
			{
				"type": "occ",
				"energy": -0.24171,
				"method": "rhf"
			},
			{
				"type": "occ",
				"energy": -0.23603,
				"method": "rhf"
			},
			{
				"type": "occ",
				"energy": -0.2099,
				"method": "rhf"
			},
			{
				"type": "unocc",
				"energy": -0.01315,
				"method": "rhf"
			},
			{
				"type": "unocc",
				"energy": 0.00922,
				"method": "rhf"
			},
			{
				"type": "unocc",
				"energy": 0.03384,
				"method": "rhf"
			},
			{
				"type": "unocc",
				"energy": 0.07799,
				"method": "rhf"
			},
			{
				"type": "unocc",
				"energy": 0.09836,
				"method": "rhf"
			}
		],
		"cosmo_sigma_profile": { 
			"-0.025": 0.0,
			"-0.024": 0.0,
			"-0.023": 0.0,
			"-0.022": 0.0,
			"-0.021": 0.0,
			"-0.02": 0.0,
			"-0.019": 0.0,
			"-0.018": 0.0,
			"-0.017": 0.0259517216947,
			"-0.016": 1.04852453495,
			"-0.015": 1.1707456029,
			"-0.014": 1.21502140946,
			"-0.013": 1.07160941518,
			"-0.012": 1.50396281652,
			"-0.011": 0.458896221881,
			"-0.01": 0.898894629949,
			"-0.009": 1.51211538174,
			"-0.008": 0.713854255141,
			"-0.007": 2.58400906105,
			"-0.006": 7.05629960773,
			"-0.005": 17.4169256557,
			"-0.004": 18.3175292906,
			"-0.003": 17.8195891009,
			"-0.002": 14.1863149431,
			"-0.001": 16.087043812,
			"0.0": 10.6725744536,
			"0.001": 8.64004033217,
			"0.002": 11.0192057214,
			"0.003": 10.5739294106,
			"0.004": 17.1575904011,
			"0.005": 18.0624350613,
			"0.006": 14.3523297815,
			"0.007": 3.22846128499,
			"0.008": 1.93816067931,
			"0.009": 1.53474425172,
			"0.01": 1.61366473351,
			"0.011": 0.972695853866,
			"0.012": 1.42142325059,
			"0.013": 1.05429348491,
			"0.014": 0.871999748491,
			"0.015": 0.271285045374,
			"0.016": 0.0,
			"0.017": 0.0,
			"0.018": 0.0,
			"0.019": 0.0,
			"0.02": 0.0,
			"0.021": 0.0,
			"0.022": 0.0,
			"0.023": 0.0,
			"0.024": 0.0,
			"0.025": 0.0
		}
	}
}
