{
	 "smiles": "NC1=NC(Br)=CN2C=CN=C12", 
	 "Tm": 489.15, 
	 "num_atms": 16, 
	 "gaussian": { 
		 "optdone": 1, 
		 "sigma_profile": "yes", 
		 "theory": "DFT", 
		 "functional": "B3LYP", 
		 "basiset": "6-31G**", 
		 "properties": { 
			 "R2extent": 3735.144, 
			 "electric_dipole_moment_norm": 1.90668875541, 
			 "electric_quadrupole_moment_norm": 14.7349420549, 
			 "total_energy": -3022.05654079, 
			 "HOMO_LUMO_gap": 0.17928, 
			 "cosmo_polarized_energy": -11.87, 
			 "cosmo_cavitation_energy": 22.94, 
			 "cosmo_dispersion_energy": -17.93, 
			 "cosmo_repulsion_energy": 1.43, 
			 "cosmo_total_nonelectrostatic_energy": 6.44, 
			 "SMD_solvation_energy": 0.56 
		},
		"coords": [
			{
				"x": -3.7401990821,
				"y": 1.9377535061,
				"z": -0.3290933918,
				"element": "N" 
			},
			{
				"x": -2.4534250549,
				"y": 1.626474476,
				"z": -0.0450233024,
				"element": "C" 
			},
			{
				"x": -1.9614807023,
				"y": 1.8556913262,
				"z": 1.163702592,
				"element": "N" 
			},
			{
				"x": -0.6668287917,
				"y": 1.5504604779,
				"z": 1.3772774331,
				"element": "C" 
			},
			{
				"x": 0.0045180847,
				"y": 1.9040828251,
				"z": 3.1375802988,
				"element": "Br" 
			},
			{
				"x": 0.1984706907,
				"y": 1.017857709,
				"z": 0.4659474603,
				"element": "C" 
			},
			{
				"x": -0.3271506767,
				"y": 0.7722409686,
				"z": -0.7947361181,
				"element": "N" 
			},
			{
				"x": 0.2130678925,
				"y": 0.2461212149,
				"z": -1.9434074025,
				"element": "C" 
			},
			{
				"x": -0.8184592548,
				"y": 0.2474025758,
				"z": -2.8692800876,
				"element": "C" 
			},
			{
				"x": -1.9686807299,
				"y": 0.7512115953,
				"z": -2.3425035647,
				"element": "N" 
			},
			{
				"x": -1.6510005751,
				"y": 1.063419387,
				"z": -1.0887940634,
				"element": "C" 
			},
			{
				"x": -4.1254740741,
				"y": 1.6507185406,
				"z": -1.2147988863,
				"element": "H" 
			},
			{
				"x": -4.3453598175,
				"y": 2.225200211,
				"z": 0.4227145461,
				"element": "H" 
			},
			{
				"x": 1.2343499067,
				"y": 0.7773443307,
				"z": 0.6503211869,
				"element": "H" 
			},
			{
				"x": 1.2422709036,
				"y": -0.0714540024,
				"z": -1.999635311,
				"element": "H" 
			},
			{
				"x": -0.7698187188,
				"y": -0.0971251417,
				"z": -3.8935713893,
				"element": "H" 
			}
		],
		 "valence_orbital": [ 
			{
				"type": "occ",
				"energy": -0.28796,
				"method": "rhf"
			},
			{
				"type": "occ",
				"energy": -0.27624,
				"method": "rhf"
			},
			{
				"type": "occ",
				"energy": -0.27446,
				"method": "rhf"
			},
			{
				"type": "occ",
				"energy": -0.2444,
				"method": "rhf"
			},
			{
				"type": "occ",
				"energy": -0.21276,
				"method": "rhf"
			},
			{
				"type": "unocc",
				"energy": -0.03348,
				"method": "rhf"
			},
			{
				"type": "unocc",
				"energy": -0.00768,
				"method": "rhf"
			},
			{
				"type": "unocc",
				"energy": 0.009,
				"method": "rhf"
			},
			{
				"type": "unocc",
				"energy": 0.0547,
				"method": "rhf"
			},
			{
				"type": "unocc",
				"energy": 0.08288,
				"method": "rhf"
			}
		],
		"cosmo_sigma_profile": { 
			"-0.025": 0.0,
			"-0.024": 0.0,
			"-0.023": 0.0,
			"-0.022": 0.0,
			"-0.021": 0.0,
			"-0.02": 0.0,
			"-0.019": 0.0,
			"-0.018": 0.0,
			"-0.017": 0.0,
			"-0.016": 0.0,
			"-0.015": 0.224386347588,
			"-0.014": 1.57126082879,
			"-0.013": 2.16715620902,
			"-0.012": 1.36324882252,
			"-0.011": 1.9257852379,
			"-0.01": 4.95127464967,
			"-0.009": 6.00236864232,
			"-0.008": 5.57959534543,
			"-0.007": 5.75687770558,
			"-0.006": 5.38397414636,
			"-0.005": 5.4679369586,
			"-0.004": 7.79543497876,
			"-0.003": 8.60140467625,
			"-0.002": 10.624130235,
			"-0.001": 12.4798377843,
			"0.0": 13.394900896,
			"0.001": 15.0967353274,
			"0.002": 15.688048887,
			"0.003": 13.4157943361,
			"0.004": 15.8947750016,
			"0.005": 10.6645516006,
			"0.006": 4.91512665814,
			"0.007": 3.66557789215,
			"0.008": 3.11715978103,
			"0.009": 2.75130684906,
			"0.01": 1.56230216668,
			"0.011": 2.21459273003,
			"0.012": 2.56904839491,
			"0.013": 1.44191685324,
			"0.014": 1.50502549054,
			"0.015": 0.46568734163,
			"0.016": 0.0162331247088,
			"0.017": 0.0,
			"0.018": 0.0,
			"0.019": 0.0,
			"0.02": 0.0,
			"0.021": 0.0,
			"0.022": 0.0,
			"0.023": 0.0,
			"0.024": 0.0,
			"0.025": 0.0
		}
	}
}
