{
	 "smiles": "BrC1=CC2=C(N=CC=N2)N=C1", 
	 "Tm": 432.15, 
	 "num_atms": 15, 
	 "gaussian": { 
		 "optdone": 1, 
		 "sigma_profile": "yes", 
		 "theory": "DFT", 
		 "functional": "B3LYP", 
		 "basiset": "6-31G**", 
		 "properties": { 
			 "R2extent": 4442.8797, 
			 "electric_dipole_moment_norm": 1.85339349573, 
			 "electric_quadrupole_moment_norm": 10.6703895477, 
			 "total_energy": -3004.7974477, 
			 "HOMO_LUMO_gap": 0.16096, 
			 "cosmo_polarized_energy": -9.71, 
			 "cosmo_cavitation_energy": 22.31, 
			 "cosmo_dispersion_energy": -17.38, 
			 "cosmo_repulsion_energy": 1.37, 
			 "cosmo_total_nonelectrostatic_energy": 6.3, 
			 "SMD_solvation_energy": -1.92 
		},
		"coords": [
			{
				"x": -2.615441227,
				"y": 4.1148313645,
				"z": -0.8445427137,
				"element": "Br" 
			},
			{
				"x": -1.696181691,
				"y": 2.454139589,
				"z": -0.977497663,
				"element": "C" 
			},
			{
				"x": -1.4637291353,
				"y": 1.6773497012,
				"z": 0.1289976633,
				"element": "C" 
			},
			{
				"x": -0.7714035015,
				"y": 0.4543240908,
				"z": -0.0582346056,
				"element": "C" 
			},
			{
				"x": -0.3562942585,
				"y": 0.099371363,
				"z": -1.3788457952,
				"element": "C" 
			},
			{
				"x": 0.3111691993,
				"y": -1.0633927863,
				"z": -1.6107024544,
				"element": "N" 
			},
			{
				"x": 0.542129134,
				"y": -1.8199733282,
				"z": -0.558845081,
				"element": "C" 
			},
			{
				"x": 0.1276438116,
				"y": -1.4641367682,
				"z": 0.7551805896,
				"element": "C" 
			},
			{
				"x": -0.5194248878,
				"y": -0.3476989886,
				"z": 1.0141956709,
				"element": "N" 
			},
			{
				"x": -0.6031549193,
				"y": 0.8933675724,
				"z": -2.4556315952,
				"element": "N" 
			},
			{
				"x": -1.2463748787,
				"y": 2.0218581291,
				"z": -2.2567275218,
				"element": "C" 
			},
			{
				"x": -1.7842120179,
				"y": 1.958746611,
				"z": 1.1254743658,
				"element": "H" 
			},
			{
				"x": 1.0753300674,
				"y": -2.7554772698,
				"z": -0.7226046102,
				"element": "H" 
			},
			{
				"x": 0.3433928641,
				"y": -2.1254968357,
				"z": 1.5925967671,
				"element": "H" 
			},
			{
				"x": -1.4382485593,
				"y": 2.6488875557,
				"z": -3.1249130167,
				"element": "H" 
			}
		],
		 "valence_orbital": [ 
			{
				"type": "occ",
				"energy": -0.31019,
				"method": "rhf"
			},
			{
				"type": "occ",
				"energy": -0.29196,
				"method": "rhf"
			},
			{
				"type": "occ",
				"energy": -0.28742,
				"method": "rhf"
			},
			{
				"type": "occ",
				"energy": -0.26408,
				"method": "rhf"
			},
			{
				"type": "occ",
				"energy": -0.25481,
				"method": "rhf"
			},
			{
				"type": "unocc",
				"energy": -0.09385,
				"method": "rhf"
			},
			{
				"type": "unocc",
				"energy": -0.04618,
				"method": "rhf"
			},
			{
				"type": "unocc",
				"energy": -0.0218,
				"method": "rhf"
			},
			{
				"type": "unocc",
				"energy": -0.00793,
				"method": "rhf"
			},
			{
				"type": "unocc",
				"energy": 0.05495,
				"method": "rhf"
			}
		],
		"cosmo_sigma_profile": { 
			"-0.025": 0.0,
			"-0.024": 0.0,
			"-0.023": 0.0,
			"-0.022": 0.0,
			"-0.021": 0.0,
			"-0.02": 0.0,
			"-0.019": 0.0,
			"-0.018": 0.0,
			"-0.017": 0.0,
			"-0.016": 0.0,
			"-0.015": 0.0,
			"-0.014": 0.0,
			"-0.013": 0.0,
			"-0.012": 0.0,
			"-0.011": 0.0,
			"-0.01": 0.00787140370659,
			"-0.009": 2.67873110944,
			"-0.008": 9.80607655742,
			"-0.007": 6.29497172092,
			"-0.006": 7.58838472781,
			"-0.005": 8.38967121839,
			"-0.004": 12.5322363432,
			"-0.003": 15.4516672495,
			"-0.002": 20.219016218,
			"-0.001": 18.5495161072,
			"0.0": 11.3011658773,
			"0.001": 11.0186139774,
			"0.002": 9.78833942972,
			"0.003": 14.2960406317,
			"0.004": 7.32177139414,
			"0.005": 4.28869496939,
			"0.006": 2.75741553091,
			"0.007": 2.46244013592,
			"0.008": 2.33731974238,
			"0.009": 2.45637758023,
			"0.01": 2.72694143702,
			"0.011": 2.32498348581,
			"0.012": 2.69246454344,
			"0.013": 2.48410023653,
			"0.014": 2.39201771632,
			"0.015": 2.40102066018,
			"0.016": 0.119231186026,
			"0.017": 0.0,
			"0.018": 0.0,
			"0.019": 0.0,
			"0.02": 0.0,
			"0.021": 0.0,
			"0.022": 0.0,
			"0.023": 0.0,
			"0.024": 0.0,
			"0.025": 0.0
		}
	}
}
