{
	 "smiles": "CC1(C)C(=O)NS1(=O)=O", 
	 "Tm": 411.15, 
	 "num_atms": 16, 
	 "gaussian": { 
		 "optdone": 1, 
		 "sigma_profile": "yes", 
		 "theory": "DFT", 
		 "functional": "B3LYP", 
		 "basiset": "6-31G**", 
		 "properties": { 
			 "R2extent": 1806.0228, 
			 "electric_dipole_moment_norm": 1.68298554361, 
			 "electric_quadrupole_moment_norm": 18.5206289602, 
			 "total_energy": -835.18238862, 
			 "HOMO_LUMO_gap": 0.26954, 
			 "cosmo_polarized_energy": -14.96, 
			 "cosmo_cavitation_energy": 21.05, 
			 "cosmo_dispersion_energy": -15.93, 
			 "cosmo_repulsion_energy": 1.27, 
			 "cosmo_total_nonelectrostatic_energy": 6.39, 
			 "SMD_solvation_energy": 3.58 
		},
		"coords": [
			{
				"x": 2.8900643275,
				"y": 1.8282280825,
				"z": -0.7459581609,
				"element": "C" 
			},
			{
				"x": 2.0843027194,
				"y": 0.5349666197,
				"z": -0.7198616124,
				"element": "C" 
			},
			{
				"x": 2.797771728,
				"y": -0.6581726969,
				"z": -1.3443141945,
				"element": "C" 
			},
			{
				"x": 0.6200755651,
				"y": 0.7073019741,
				"z": -1.2097232554,
				"element": "C" 
			},
			{
				"x": 0.192365606,
				"y": 0.9872848163,
				"z": -2.3033370768,
				"element": "O" 
			},
			{
				"x": -0.0461034912,
				"y": 0.4459271688,
				"z": -0.0259749633,
				"element": "N" 
			},
			{
				"x": 1.3495004076,
				"y": 0.1579995486,
				"z": 0.9596323439,
				"element": "S" 
			},
			{
				"x": 1.4331541815,
				"y": -1.2461314557,
				"z": 1.3617390184,
				"element": "O" 
			},
			{
				"x": 1.5233177006,
				"y": 1.2172224013,
				"z": 1.9537165314,
				"element": "O" 
			},
			{
				"x": 3.8806621051,
				"y": 1.6758952789,
				"z": -0.3087247567,
				"element": "H" 
			},
			{
				"x": 3.0134816264,
				"y": 2.1367535118,
				"z": -1.7887895582,
				"element": "H" 
			},
			{
				"x": 2.3900885708,
				"y": 2.6321910279,
				"z": -0.2020591914,
				"element": "H" 
			},
			{
				"x": 3.7885535584,
				"y": -0.7917733107,
				"z": -0.9013978835,
				"element": "H" 
			},
			{
				"x": 2.9181344338,
				"y": -0.4664262116,
				"z": -2.4151380093,
				"element": "H" 
			},
			{
				"x": 2.233036033,
				"y": -1.5840610558,
				"z": -1.2179524358,
				"element": "H" 
			},
			{
				"x": -1.0394050722,
				"y": 0.4346943008,
				"z": 0.1780432045,
				"element": "H" 
			}
		],
		 "valence_orbital": [ 
			{
				"type": "occ",
				"energy": -0.35082,
				"method": "rhf"
			},
			{
				"type": "occ",
				"energy": -0.33119,
				"method": "rhf"
			},
			{
				"type": "occ",
				"energy": -0.33048,
				"method": "rhf"
			},
			{
				"type": "occ",
				"energy": -0.29626,
				"method": "rhf"
			},
			{
				"type": "occ",
				"energy": -0.2788,
				"method": "rhf"
			},
			{
				"type": "unocc",
				"energy": -0.00926,
				"method": "rhf"
			},
			{
				"type": "unocc",
				"energy": 0.00892,
				"method": "rhf"
			},
			{
				"type": "unocc",
				"energy": 0.01877,
				"method": "rhf"
			},
			{
				"type": "unocc",
				"energy": 0.05081,
				"method": "rhf"
			},
			{
				"type": "unocc",
				"energy": 0.08362,
				"method": "rhf"
			}
		],
		"cosmo_sigma_profile": { 
			"-0.025": 0.0,
			"-0.024": 0.0,
			"-0.023": 0.0,
			"-0.022": 0.0,
			"-0.021": 0.0,
			"-0.02": 0.0,
			"-0.019": 0.0,
			"-0.018": 0.726898609751,
			"-0.017": 2.10112496902,
			"-0.016": 1.3110995902,
			"-0.015": 1.13506919743,
			"-0.014": 0.932272256276,
			"-0.013": 1.48710826366,
			"-0.012": 1.3953190982,
			"-0.011": 0.416328942655,
			"-0.01": 1.26504999235,
			"-0.009": 2.45696341745,
			"-0.008": 2.05124219125,
			"-0.007": 4.5882703003,
			"-0.006": 12.5910264234,
			"-0.005": 11.5644987961,
			"-0.004": 12.0534786563,
			"-0.003": 13.2909136901,
			"-0.002": 16.5584290375,
			"-0.001": 8.85262872597,
			"0.0": 4.82525431077,
			"0.001": 4.41906542588,
			"0.002": 4.20729815796,
			"0.003": 3.28986915593,
			"0.004": 3.89685572929,
			"0.005": 3.47228321465,
			"0.006": 4.31314654856,
			"0.007": 5.03783041179,
			"0.008": 4.32456521828,
			"0.009": 12.5681500832,
			"0.01": 13.1141213957,
			"0.011": 6.72217208745,
			"0.012": 1.44242626571,
			"0.013": 0.0,
			"0.014": 0.0,
			"0.015": 0.0,
			"0.016": 0.0,
			"0.017": 0.0,
			"0.018": 0.0,
			"0.019": 0.0,
			"0.02": 0.0,
			"0.021": 0.0,
			"0.022": 0.0,
			"0.023": 0.0,
			"0.024": 0.0,
			"0.025": 0.0
		}
	}
}
