{
	 "smiles": "CCCCNC(=O)OCC#CI", 
	 "Tm": 339.15, 
	 "num_atms": 24, 
	 "gaussian": { 
		 "optdone": 1, 
		 "sigma_profile": "no", 
		 "theory": "DFT", 
		 "functional": "B3LYP", 
		 "basiset": "6-31G**", 
		 "properties": { 
			 "R2extent": 3211.9437, 
			 "electric_dipole_moment_norm": 2.25310893212, 
			 "electric_quadrupole_moment_norm": 7.67289650523, 
			 "total_energy": -528.618566156, 
			 "HOMO_LUMO_gap": 0.21067, 
			 "cosmo_polarized_energy": -118668.5, 
			 "cosmo_cavitation_energy": 31.83, 
			 "cosmo_dispersion_energy": -23.65, 
			 "cosmo_repulsion_energy": 1.96, 
			 "cosmo_total_nonelectrostatic_energy": 10.14, 
			 "SMD_solvation_energy": 6.0 
		},
		"coords": [
			{
				"x": 1.7528893587,
				"y": -1.339193208,
				"z": 3.1809813783,
				"element": "C" 
			},
			{
				"x": 0.4882050667,
				"y": -2.0901961152,
				"z": 2.746874415,
				"element": "C" 
			},
			{
				"x": -0.8260037483,
				"y": -1.4491733673,
				"z": 3.2196162657,
				"element": "C" 
			},
			{
				"x": -1.098937137,
				"y": -0.034947017,
				"z": 2.6827376968,
				"element": "C" 
			},
			{
				"x": -1.1990092884,
				"y": 0.0313528729,
				"z": 1.2310258188,
				"element": "N" 
			},
			{
				"x": -0.2652767376,
				"y": 0.6376800787,
				"z": 0.4551150827,
				"element": "C" 
			},
			{
				"x": 0.7368994438,
				"y": 1.2114779194,
				"z": 0.8458475031,
				"element": "O" 
			},
			{
				"x": -0.6318034174,
				"y": 0.5302927531,
				"z": -0.8638710165,
				"element": "O" 
			},
			{
				"x": 0.319405142,
				"y": 1.043915022,
				"z": -1.8134417811,
				"element": "C" 
			},
			{
				"x": 1.1179924113,
				"y": -0.0265075615,
				"z": -2.4085749028,
				"element": "C" 
			},
			{
				"x": 1.7816604244,
				"y": -0.9031874149,
				"z": -2.9166027761,
				"element": "C" 
			},
			{
				"x": 2.8779535598,
				"y": -2.3521034231,
				"z": -3.7325541769,
				"element": "I" 
			},
			{
				"x": 1.8170306189,
				"y": -0.3540148785,
				"z": 2.7099838432,
				"element": "H" 
			},
			{
				"x": 2.6507574958,
				"y": -1.8974535423,
				"z": 2.896362751,
				"element": "H" 
			},
			{
				"x": 1.7797490772,
				"y": -1.2031623556,
				"z": 4.2690344918,
				"element": "H" 
			},
			{
				"x": 0.4737783148,
				"y": -2.1785791191,
				"z": 1.6531732779,
				"element": "H" 
			},
			{
				"x": 0.5219397632,
				"y": -3.1169740004,
				"z": 3.1325223325,
				"element": "H" 
			},
			{
				"x": -1.666862284,
				"y": -2.1010600643,
				"z": 2.9441978618,
				"element": "H" 
			},
			{
				"x": -0.834680467,
				"y": -1.390910017,
				"z": 4.31680359,
				"element": "H" 
			},
			{
				"x": -0.3000214849,
				"y": 0.6530788863,
				"z": 2.9653326138,
				"element": "H" 
			},
			{
				"x": -2.0295140098,
				"y": 0.3481103431,
				"z": 3.1201534885,
				"element": "H" 
			},
			{
				"x": -1.9532406597,
				"y": -0.4412989005,
				"z": 0.7550659412,
				"element": "H" 
			},
			{
				"x": 0.966509271,
				"y": 1.7696238123,
				"z": -1.3118833629,
				"element": "H" 
			},
			{
				"x": -0.2694207136,
				"y": 1.5538292968,
				"z": -2.5822003357,
				"element": "H" 
			}
		],
		 "valence_orbital": [ 
			{
				"type": "occ",
				"energy": -0.30335,
				"method": "rhf"
			},
			{
				"type": "occ",
				"energy": -0.27866,
				"method": "rhf"
			},
			{
				"type": "occ",
				"energy": -0.25794,
				"method": "rhf"
			},
			{
				"type": "occ",
				"energy": -0.25482,
				"method": "rhf"
			},
			{
				"type": "occ",
				"energy": -0.25033,
				"method": "rhf"
			},
			{
				"type": "unocc",
				"energy": -0.03966,
				"method": "rhf"
			},
			{
				"type": "unocc",
				"energy": 0.01401,
				"method": "rhf"
			},
			{
				"type": "unocc",
				"energy": 0.03516,
				"method": "rhf"
			},
			{
				"type": "unocc",
				"energy": 0.04649,
				"method": "rhf"
			},
			{
				"type": "unocc",
				"energy": 0.04779,
				"method": "rhf"
			}
		],
		"cosmo_sigma_profile": { 
			"0.0": 0.0,
			"0.0": 0.0,
			"0.0": 0.0,
			"0.0": 0.0,
			"0.0": 0.0,
			"0.0": 0.0,
			"0.0": 0.0,
			"0.0": 0.0,
			"0.0": 0.0,
			"0.0": 0.0,
			"0.0": 0.0,
			"0.0": 0.0,
			"0.0": 0.0,
			"0.0": 0.0,
			"0.0": 0.0,
			"0.0": 0.0,
			"0.0": 0.0,
			"0.0": 0.0,
			"0.0": 0.0,
			"0.0": 0.0,
			"0.0": 0.0,
			"0.0": 0.0,
			"0.0": 0.0,
			"0.0": 0.0,
			"0.0": 0.0,
			"0.0": 0.0,
			"0.0": 0.0,
			"0.0": 0.0,
			"0.0": 0.0,
			"0.0": 0.0,
			"0.0": 0.0,
			"0.0": 0.0,
			"0.0": 0.0,
			"0.0": 0.0,
			"0.0": 0.0,
			"0.0": 0.0,
			"0.0": 0.0,
			"0.0": 0.0,
			"0.0": 0.0,
			"0.0": 0.0,
			"0.0": 0.0,
			"0.0": 0.0,
			"0.0": 0.0,
			"0.0": 0.0,
			"0.0": 0.0,
			"0.0": 0.0,
			"0.0": 0.0,
			"0.0": 0.0,
			"0.0": 0.0,
			"0.0": 0.0,
			"0.0": 0.0
		}
	}
}
