{
	 "smiles": "FC(F)(F)C1=NN(CN2CCCCC2)C(=S)N1N=CC1=CC2=C(OCO2)C=C1", 
	 "Tm": 395.15, 
	 "num_atms": 46, 
	 "gaussian": { 
		 "optdone": 1, 
		 "sigma_profile": "yes", 
		 "theory": "DFT", 
		 "functional": "B3LYP", 
		 "basiset": "6-31G**", 
		 "properties": { 
			 "R2extent": 17300.9462, 
			 "electric_dipole_moment_norm": 1.9151404361, 
			 "electric_quadrupole_moment_norm": 28.7906606617, 
			 "total_energy": -1780.49081044, 
			 "HOMO_LUMO_gap": 0.14123, 
			 "cosmo_polarized_energy": -12.32, 
			 "cosmo_cavitation_energy": 52.16, 
			 "cosmo_dispersion_energy": -36.34, 
			 "cosmo_repulsion_energy": 2.64, 
			 "cosmo_total_nonelectrostatic_energy": 18.46, 
			 "SMD_solvation_energy": 6.65 
		},
		"coords": [
			{
				"x": 3.2436330952,
				"y": 0.3160409379,
				"z": -1.5039644472,
				"element": "F" 
			},
			{
				"x": 3.4820800466,
				"y": 0.0007583586,
				"z": -0.217670983,
				"element": "C" 
			},
			{
				"x": 3.9432602911,
				"y": -1.2624893454,
				"z": -0.1817490926,
				"element": "F" 
			},
			{
				"x": 4.4453961418,
				"y": 0.8124246404,
				"z": 0.2413470451,
				"element": "F" 
			},
			{
				"x": 2.2442371152,
				"y": 0.1579867296,
				"z": 0.6239355302,
				"element": "C" 
			},
			{
				"x": 2.1588342774,
				"y": 0.9637061264,
				"z": 1.6375083677,
				"element": "N" 
			},
			{
				"x": 0.8887858408,
				"y": 0.7963324335,
				"z": 2.1056911757,
				"element": "N" 
			},
			{
				"x": 0.4383206579,
				"y": 1.6006595898,
				"z": 3.2852211248,
				"element": "C" 
			},
			{
				"x": 0.1630352539,
				"y": 2.9744070191,
				"z": 3.0451396473,
				"element": "N" 
			},
			{
				"x": 1.2983145344,
				"y": 3.8582025944,
				"z": 2.7682806866,
				"element": "C" 
			},
			{
				"x": 0.952254301,
				"y": 5.2964485666,
				"z": 3.2162227153,
				"element": "C" 
			},
			{
				"x": -0.5636008475,
				"y": 5.5707276288,
				"z": 3.0935647924,
				"element": "C" 
			},
			{
				"x": -1.1558551407,
				"y": 4.7569621871,
				"z": 1.9378367411,
				"element": "C" 
			},
			{
				"x": -1.0144858212,
				"y": 3.2440438478,
				"z": 2.2061777664,
				"element": "C" 
			},
			{
				"x": 0.1583259178,
				"y": -0.1250474498,
				"z": 1.3961554202,
				"element": "C" 
			},
			{
				"x": -1.4197461034,
				"y": -0.6120231541,
				"z": 1.6845425325,
				"element": "S" 
			},
			{
				"x": 1.0705751754,
				"y": -0.537665696,
				"z": 0.4141210973,
				"element": "N" 
			},
			{
				"x": 1.0284561047,
				"y": -1.433977866,
				"z": -0.6296441655,
				"element": "N" 
			},
			{
				"x": -0.040798618,
				"y": -2.1138387283,
				"z": -0.8717042236,
				"element": "C" 
			},
			{
				"x": -0.0564484963,
				"y": -3.0578143633,
				"z": -1.9871249204,
				"element": "C" 
			},
			{
				"x": -1.2503767514,
				"y": -3.784976347,
				"z": -2.2205389544,
				"element": "C" 
			},
			{
				"x": -1.2510354686,
				"y": -4.6710351786,
				"z": -3.2746642519,
				"element": "C" 
			},
			{
				"x": -0.1313277555,
				"y": -4.8536595087,
				"z": -4.0848781497,
				"element": "C" 
			},
			{
				"x": -0.4029778491,
				"y": -5.7832781205,
				"z": -5.0498563036,
				"element": "O" 
			},
			{
				"x": -1.7556816941,
				"y": -6.2108270276,
				"z": -4.8257967582,
				"element": "C" 
			},
			{
				"x": -2.2708228443,
				"y": -5.4838941916,
				"z": -3.7051725898,
				"element": "O" 
			},
			{
				"x": 1.0468371731,
				"y": -4.1547726166,
				"z": -3.8769789156,
				"element": "C" 
			},
			{
				"x": 1.067520649,
				"y": -3.2496407373,
				"z": -2.8104595263,
				"element": "C" 
			},
			{
				"x": -0.4594823722,
				"y": 1.0870821595,
				"z": 3.6358951737,
				"element": "H" 
			},
			{
				"x": 1.241381896,
				"y": 1.5028830148,
				"z": 4.0196324981,
				"element": "H" 
			},
			{
				"x": 1.5737878382,
				"y": 3.8428866507,
				"z": 1.7005191929,
				"element": "H" 
			},
			{
				"x": 2.171659074,
				"y": 3.4829259225,
				"z": 3.3092532607,
				"element": "H" 
			},
			{
				"x": 1.5195446222,
				"y": 6.0036957551,
				"z": 2.5994308849,
				"element": "H" 
			},
			{
				"x": 1.2713061284,
				"y": 5.4530803576,
				"z": 4.2522501676,
				"element": "H" 
			},
			{
				"x": -0.747417,
				"y": 6.6408133318,
				"z": 2.949049532,
				"element": "H" 
			},
			{
				"x": -1.0667851436,
				"y": 5.2862253218,
				"z": 4.0246521719,
				"element": "H" 
			},
			{
				"x": -2.2124632771,
				"y": 4.9973495432,
				"z": 1.7803205402,
				"element": "H" 
			},
			{
				"x": -0.6375044935,
				"y": 5.0223771545,
				"z": 1.0077706054,
				"element": "H" 
			},
			{
				"x": -0.9693125657,
				"y": 2.701198683,
				"z": 1.2472926518,
				"element": "H" 
			},
			{
				"x": -1.8947177173,
				"y": 2.8654005482,
				"z": 2.7395252879,
				"element": "H" 
			},
			{
				"x": -0.9425778085,
				"y": -2.0124945508,
				"z": -0.2718341021,
				"element": "H" 
			},
			{
				"x": -2.1258708952,
				"y": -3.6488222755,
				"z": -1.594953528,
				"element": "H" 
			},
			{
				"x": -1.7646181235,
				"y": -7.2849573507,
				"z": -4.6043650973,
				"element": "H" 
			},
			{
				"x": -2.3574748502,
				"y": -5.9913426216,
				"z": -5.7156111877,
				"element": "H" 
			},
			{
				"x": 1.9098441872,
				"y": -4.3068605966,
				"z": -4.5149605507,
				"element": "H" 
			},
			{
				"x": 1.9635913155,
				"y": -2.6762013767,
				"z": -2.6016088619,
				"element": "H" 
			}
		],
		 "valence_orbital": [ 
			{
				"type": "occ",
				"energy": -0.25812,
				"method": "rhf"
			},
			{
				"type": "occ",
				"energy": -0.23063,
				"method": "rhf"
			},
			{
				"type": "occ",
				"energy": -0.22176,
				"method": "rhf"
			},
			{
				"type": "occ",
				"energy": -0.21435,
				"method": "rhf"
			},
			{
				"type": "occ",
				"energy": -0.20798,
				"method": "rhf"
			},
			{
				"type": "unocc",
				"energy": -0.06675,
				"method": "rhf"
			},
			{
				"type": "unocc",
				"energy": -0.0192,
				"method": "rhf"
			},
			{
				"type": "unocc",
				"energy": -0.00963,
				"method": "rhf"
			},
			{
				"type": "unocc",
				"energy": -0.00082,
				"method": "rhf"
			},
			{
				"type": "unocc",
				"energy": 0.05369,
				"method": "rhf"
			}
		],
		"cosmo_sigma_profile": { 
			"-0.025": 0.0,
			"-0.024": 0.0,
			"-0.023": 0.0,
			"-0.022": 0.0,
			"-0.021": 0.0,
			"-0.02": 0.0,
			"-0.019": 0.0,
			"-0.018": 0.0,
			"-0.017": 0.0,
			"-0.016": 0.0,
			"-0.015": 0.0,
			"-0.014": 0.0,
			"-0.013": 0.0,
			"-0.012": 0.0,
			"-0.011": 0.0,
			"-0.01": 0.0,
			"-0.009": 0.177092546109,
			"-0.008": 8.42599951822,
			"-0.007": 13.7499515641,
			"-0.006": 14.7939072374,
			"-0.005": 17.5773511272,
			"-0.004": 20.4565513273,
			"-0.003": 30.7206976297,
			"-0.002": 43.5519203311,
			"-0.001": 43.982886014,
			"0.0": 37.7809279077,
			"0.001": 41.5210505001,
			"0.002": 50.2113138577,
			"0.003": 27.6706410506,
			"0.004": 14.3236023279,
			"0.005": 12.612706629,
			"0.006": 8.80193673469,
			"0.007": 10.0828650434,
			"0.008": 9.95798839434,
			"0.009": 8.53200562508,
			"0.01": 1.78800977008,
			"0.011": 0.395167475042,
			"0.012": 0.0816111680395,
			"0.013": 0.0,
			"0.014": 0.0,
			"0.015": 0.0,
			"0.016": 0.0,
			"0.017": 0.0,
			"0.018": 0.0,
			"0.019": 0.0,
			"0.02": 0.0,
			"0.021": 0.0,
			"0.022": 0.0,
			"0.023": 0.0,
			"0.024": 0.0,
			"0.025": 0.0
		}
	}
}
