{
	 "smiles": "OC(=O)C1=CC=C(COC2=CC=C(Cl)C=C2)C=C1", 
	 "Tm": 475.15, 
	 "num_atms": 29, 
	 "gaussian": { 
		 "optdone": 1, 
		 "sigma_profile": "yes", 
		 "theory": "DFT", 
		 "functional": "B3LYP", 
		 "basiset": "6-31G**", 
		 "properties": { 
			 "R2extent": 7850.6884, 
			 "electric_dipole_moment_norm": 3.31840708925, 
			 "electric_quadrupole_moment_norm": 17.3077786093, 
			 "total_energy": -1225.99478112, 
			 "HOMO_LUMO_gap": 0.16954, 
			 "cosmo_polarized_energy": -13.23, 
			 "cosmo_cavitation_energy": 36.06, 
			 "cosmo_dispersion_energy": -25.9, 
			 "cosmo_repulsion_energy": 2.01, 
			 "cosmo_total_nonelectrostatic_energy": 12.17, 
			 "SMD_solvation_energy": 7.15 
		},
		"coords": [
			{
				"x": 5.0428761088,
				"y": -1.9685585556,
				"z": 0.7670367562,
				"element": "O" 
			},
			{
				"x": 3.9655157808,
				"y": -2.4987058766,
				"z": 0.1341538954,
				"element": "C" 
			},
			{
				"x": 4.0595819602,
				"y": -3.4601132348,
				"z": -0.6030952166,
				"element": "O" 
			},
			{
				"x": 2.6988751829,
				"y": -1.7848447836,
				"z": 0.4430933124,
				"element": "C" 
			},
			{
				"x": 2.6519893763,
				"y": -0.6818594457,
				"z": 1.3060805111,
				"element": "C" 
			},
			{
				"x": 1.437087085,
				"y": -0.0481870851,
				"z": 1.555544162,
				"element": "C" 
			},
			{
				"x": 0.2558979129,
				"y": -0.5062857735,
				"z": 0.9578900587,
				"element": "C" 
			},
			{
				"x": -1.0667985869,
				"y": 0.155713403,
				"z": 1.2954290709,
				"element": "C" 
			},
			{
				"x": -2.061171116,
				"y": 0.0250734244,
				"z": 0.2853586649,
				"element": "O" 
			},
			{
				"x": -2.0205467619,
				"y": 0.8561362749,
				"z": -0.8038356907,
				"element": "C" 
			},
			{
				"x": -3.129971807,
				"y": 0.7799625104,
				"z": -1.6574831524,
				"element": "C" 
			},
			{
				"x": -3.2027553578,
				"y": 1.5816299182,
				"z": -2.7906042363,
				"element": "C" 
			},
			{
				"x": -2.1607370352,
				"y": 2.4678852746,
				"z": -3.0731024018,
				"element": "C" 
			},
			{
				"x": -2.2501481088,
				"y": 3.4872047,
				"z": -4.5047098753,
				"element": "Cl" 
			},
			{
				"x": -1.0528842438,
				"y": 2.5491565348,
				"z": -2.2358564374,
				"element": "C" 
			},
			{
				"x": -0.9772497797,
				"y": 1.7405916302,
				"z": -1.098217198,
				"element": "C" 
			},
			{
				"x": 0.3080528258,
				"y": -1.610318386,
				"z": 0.0974730287,
				"element": "C" 
			},
			{
				"x": 1.519806922,
				"y": -2.2425353591,
				"z": -0.1605128185,
				"element": "C" 
			},
			{
				"x": 5.8012816509,
				"y": -2.509745391,
				"z": 0.4927406586,
				"element": "H" 
			},
			{
				"x": 3.5638975777,
				"y": -0.3230366898,
				"z": 1.769484954,
				"element": "H" 
			},
			{
				"x": 1.4074415225,
				"y": 0.8116364932,
				"z": 2.2208398778,
				"element": "H" 
			},
			{
				"x": -1.5078846229,
				"y": -0.3333944516,
				"z": 2.1712307246,
				"element": "H" 
			},
			{
				"x": -0.9154770275,
				"y": 1.212215075,
				"z": 1.5535779759,
				"element": "H" 
			},
			{
				"x": -3.9291992324,
				"y": 0.0885929326,
				"z": -1.411967772,
				"element": "H" 
			},
			{
				"x": -4.0622572093,
				"y": 1.5243881851,
				"z": -3.4492969278,
				"element": "H" 
			},
			{
				"x": -0.2448408644,
				"y": 3.2338639199,
				"z": -2.4687328504,
				"element": "H" 
			},
			{
				"x": -0.0960626932,
				"y": 1.7976281609,
				"z": -0.4712196584,
				"element": "H" 
			},
			{
				"x": -0.6049973774,
				"y": -1.9621829933,
				"z": -0.3712296427,
				"element": "H" 
			},
			{
				"x": 1.5760779183,
				"y": -3.0962104115,
				"z": -0.827469773,
				"element": "H" 
			}
		],
		 "valence_orbital": [ 
			{
				"type": "occ",
				"energy": -0.28035,
				"method": "rhf"
			},
			{
				"type": "occ",
				"energy": -0.269,
				"method": "rhf"
			},
			{
				"type": "occ",
				"energy": -0.26691,
				"method": "rhf"
			},
			{
				"type": "occ",
				"energy": -0.2614,
				"method": "rhf"
			},
			{
				"type": "occ",
				"energy": -0.22487,
				"method": "rhf"
			},
			{
				"type": "unocc",
				"energy": -0.05533,
				"method": "rhf"
			},
			{
				"type": "unocc",
				"energy": -0.02079,
				"method": "rhf"
			},
			{
				"type": "unocc",
				"energy": -0.01386,
				"method": "rhf"
			},
			{
				"type": "unocc",
				"energy": -0.00123,
				"method": "rhf"
			},
			{
				"type": "unocc",
				"energy": 0.03215,
				"method": "rhf"
			}
		],
		"cosmo_sigma_profile": { 
			"-0.025": 0.0,
			"-0.024": 0.0,
			"-0.023": 0.0,
			"-0.022": 0.0,
			"-0.021": 0.0,
			"-0.02": 0.0,
			"-0.019": 0.0662687092572,
			"-0.018": 0.669569383815,
			"-0.017": 0.790729300126,
			"-0.016": 0.852529177663,
			"-0.015": 1.07409813903,
			"-0.014": 0.868482492728,
			"-0.013": 0.895763940814,
			"-0.012": 0.14762782857,
			"-0.011": 0.28550657403,
			"-0.01": 0.980364275691,
			"-0.009": 0.433320435172,
			"-0.008": 2.01085337632,
			"-0.007": 12.5333361635,
			"-0.006": 19.4333464504,
			"-0.005": 18.329336971,
			"-0.004": 16.4523914465,
			"-0.003": 13.7968682604,
			"-0.002": 16.7746904203,
			"-0.001": 17.3664903027,
			"0.0": 18.4449828694,
			"0.001": 23.2138762267,
			"0.002": 29.2068744019,
			"0.003": 34.2916855694,
			"0.004": 23.9327125406,
			"0.005": 13.2012249535,
			"0.006": 4.98144350532,
			"0.007": 4.33502871862,
			"0.008": 3.40250174714,
			"0.009": 2.05743940148,
			"0.01": 2.45062985049,
			"0.011": 3.43343624535,
			"0.012": 4.31282775848,
			"0.013": 0.0832057536054,
			"0.014": 0.0,
			"0.015": 0.0,
			"0.016": 0.0,
			"0.017": 0.0,
			"0.018": 0.0,
			"0.019": 0.0,
			"0.02": 0.0,
			"0.021": 0.0,
			"0.022": 0.0,
			"0.023": 0.0,
			"0.024": 0.0,
			"0.0": 0.0
		}
	}
}
