{
	 "smiles": "CC(C)(C)OC(=O)NC(C1CC1)C(N)=NO", 
	 "Tm": 421.15, 
	 "num_atms": 35, 
	 "gaussian": { 
		 "optdone": 1, 
		 "sigma_profile": "yes", 
		 "theory": "DFT", 
		 "functional": "B3LYP", 
		 "basiset": "6-31G**", 
		 "properties": { 
			 "R2extent": 4248.0025, 
			 "electric_dipole_moment_norm": 1.73130625252, 
			 "electric_quadrupole_moment_norm": 11.3667099409, 
			 "total_energy": -782.396236893, 
			 "HOMO_LUMO_gap": 0.24473, 
			 "cosmo_polarized_energy": -16.11, 
			 "cosmo_cavitation_energy": 36.96, 
			 "cosmo_dispersion_energy": -24.43, 
			 "cosmo_repulsion_energy": 1.95, 
			 "cosmo_total_nonelectrostatic_energy": 14.48, 
			 "SMD_solvation_energy": 6.39 
		},
		"coords": [
			{
				"x": 2.5988947056,
				"y": -0.9398793015,
				"z": -1.8600105708,
				"element": "C" 
			},
			{
				"x": 2.3524763352,
				"y": 0.1638019124,
				"z": -0.8263894115,
				"element": "C" 
			},
			{
				"x": 1.941305157,
				"y": 1.4696148627,
				"z": -1.5119145155,
				"element": "C" 
			},
			{
				"x": 3.5633785756,
				"y": 0.3914094732,
				"z": 0.0839685478,
				"element": "C" 
			},
			{
				"x": 1.1633589326,
				"y": -0.1657132237,
				"z": -0.0118807665,
				"element": "O" 
			},
			{
				"x": 1.1699853795,
				"y": -1.2546339181,
				"z": 0.8105085529,
				"element": "C" 
			},
			{
				"x": 2.0604551181,
				"y": -2.0868256161,
				"z": 0.8688495929,
				"element": "O" 
			},
			{
				"x": 0.0408973194,
				"y": -1.3259280279,
				"z": 1.5762814255,
				"element": "N" 
			},
			{
				"x": -1.1241172595,
				"y": -0.4273998722,
				"z": 1.6881727545,
				"element": "C" 
			},
			{
				"x": -0.7587990465,
				"y": 1.0249398847,
				"z": 1.953764661,
				"element": "C" 
			},
			{
				"x": -1.7147421655,
				"y": 1.8638702555,
				"z": 2.7636408071,
				"element": "C" 
			},
			{
				"x": -0.3906005315,
				"y": 1.4438858722,
				"z": 3.3549310342,
				"element": "C" 
			},
			{
				"x": -2.1023464559,
				"y": -0.5906474105,
				"z": 0.5365582454,
				"element": "C" 
			},
			{
				"x": -1.7440814163,
				"y": -0.1582970319,
				"z": -0.7124622636,
				"element": "N" 
			},
			{
				"x": -3.2483262557,
				"y": -1.0956605669,
				"z": 0.8533900851,
				"element": "N" 
			},
			{
				"x": -4.0637675296,
				"y": -1.1809188477,
				"z": -0.3189910953,
				"element": "O" 
			},
			{
				"x": 1.7050622771,
				"y": -1.097081004,
				"z": -2.4727864747,
				"element": "H" 
			},
			{
				"x": 2.8622611752,
				"y": -1.8777222051,
				"z": -1.3716368752,
				"element": "H" 
			},
			{
				"x": 3.415468866,
				"y": -0.6422459093,
				"z": -2.5258639795,
				"element": "H" 
			},
			{
				"x": 2.7503890485,
				"y": 1.8201800486,
				"z": -2.1593181729,
				"element": "H" 
			},
			{
				"x": 1.7294612769,
				"y": 2.2484598884,
				"z": -0.7736700925,
				"element": "H" 
			},
			{
				"x": 1.0493862237,
				"y": 1.3274004145,
				"z": -2.1300605764,
				"element": "H" 
			},
			{
				"x": 3.3333732025,
				"y": 1.1487839559,
				"z": 0.8400129396,
				"element": "H" 
			},
			{
				"x": 3.856980173,
				"y": -0.5313201465,
				"z": 0.5839550023,
				"element": "H" 
			},
			{
				"x": 4.4053621798,
				"y": 0.7538959433,
				"z": -0.5144768381,
				"element": "H" 
			},
			{
				"x": 0.0072581851,
				"y": -2.1828044721,
				"z": 2.1077590478,
				"element": "H" 
			},
			{
				"x": -1.6718300452,
				"y": -0.794586494,
				"z": 2.5601990708,
				"element": "H" 
			},
			{
				"x": -0.243905636,
				"y": 1.524261124,
				"z": 1.1415011603,
				"element": "H" 
			},
			{
				"x": -1.8506575094,
				"y": 2.9018632482,
				"z": 2.4764717771,
				"element": "H" 
			},
			{
				"x": -2.6171283983,
				"y": 1.3857004608,
				"z": 3.1340225121,
				"element": "H" 
			},
			{
				"x": 0.3848724658,
				"y": 2.1936951895,
				"z": 3.4791891572,
				"element": "H" 
			},
			{
				"x": -0.3965949738,
				"y": 0.6834438806,
				"z": 4.131218633,
				"element": "H" 
			},
			{
				"x": -0.7531366865,
				"y": -0.1045057409,
				"z": -0.9012832982,
				"element": "H" 
			},
			{
				"x": -2.3443833227,
				"y": -0.4770834071,
				"z": -1.4595696167,
				"element": "H" 
			},
			{
				"x": -4.8566093642,
				"y": -1.6098532192,
				"z": 0.0238195408,
				"element": "H" 
			}
		],
		 "valence_orbital": [ 
			{
				"type": "occ",
				"energy": -0.28856,
				"method": "rhf"
			},
			{
				"type": "occ",
				"energy": -0.26873,
				"method": "rhf"
			},
			{
				"type": "occ",
				"energy": -0.26588,
				"method": "rhf"
			},
			{
				"type": "occ",
				"energy": -0.25364,
				"method": "rhf"
			},
			{
				"type": "occ",
				"energy": -0.20685,
				"method": "rhf"
			},
			{
				"type": "unocc",
				"energy": 0.03788,
				"method": "rhf"
			},
			{
				"type": "unocc",
				"energy": 0.05236,
				"method": "rhf"
			},
			{
				"type": "unocc",
				"energy": 0.06355,
				"method": "rhf"
			},
			{
				"type": "unocc",
				"energy": 0.07169,
				"method": "rhf"
			},
			{
				"type": "unocc",
				"energy": 0.08458,
				"method": "rhf"
			}
		],
		"cosmo_sigma_profile": { 
			"-0.025": 0.0,
			"-0.024": 0.0,
			"-0.023": 0.0,
			"-0.022": 0.0,
			"-0.021": 0.0,
			"-0.02": 0.0,
			"-0.019": 0.0,
			"-0.018": 0.0,
			"-0.017": 0.0912756873344,
			"-0.016": 0.987840625006,
			"-0.015": 0.983154061876,
			"-0.014": 1.83717813769,
			"-0.013": 1.96319298001,
			"-0.012": 1.91307056005,
			"-0.011": 2.65574990691,
			"-0.01": 1.80055862919,
			"-0.009": 2.15643035732,
			"-0.008": 3.3704489439,
			"-0.007": 5.47987187778,
			"-0.006": 6.24069938233,
			"-0.005": 10.7514012037,
			"-0.004": 24.8076616044,
			"-0.003": 25.9885148615,
			"-0.002": 25.7804091745,
			"-0.001": 27.6514773792,
			"0.0": 34.0540357908,
			"0.001": 23.7254262912,
			"0.002": 10.9455566003,
			"0.003": 11.5118384254,
			"0.004": 10.038928969,
			"0.005": 7.84956435881,
			"0.006": 6.86094132375,
			"0.007": 5.98308176078,
			"0.008": 6.30488324553,
			"0.009": 6.44943844808,
			"0.01": 4.8130139267,
			"0.011": 4.22415278608,
			"0.012": 3.03283384533,
			"0.013": 4.34333201038,
			"0.014": 2.47294915148,
			"0.015": 0.623436927414,
			"0.016": 0.000873784210656,
			"0.017": 0.0,
			"0.018": 0.0,
			"0.019": 0.0,
			"0.02": 0.0,
			"0.021": 0.0,
			"0.022": 0.0,
			"0.023": 0.0,
			"0.024": 0.0,
			"0.025": 0.0
		}
	}
}
