{
	 "smiles": "OC(=O)C1=CC=C(CCCl)C=C1", 
	 "Tm": 461.15, 
	 "num_atms": 21, 
	 "gaussian": { 
		 "optdone": 1, 
		 "sigma_profile": "yes", 
		 "theory": "DFT", 
		 "functional": "B3LYP", 
		 "basiset": "6-31G**", 
		 "properties": { 
			 "R2extent": 4390.7376, 
			 "electric_dipole_moment_norm": 2.18556621725, 
			 "electric_quadrupole_moment_norm": 15.3347379365, 
			 "total_energy": -959.052099645, 
			 "HOMO_LUMO_gap": 0.20772, 
			 "cosmo_polarized_energy": -12.24, 
			 "cosmo_cavitation_energy": 27.15, 
			 "cosmo_dispersion_energy": -19.66, 
			 "cosmo_repulsion_energy": 1.59, 
			 "cosmo_total_nonelectrostatic_energy": 9.07, 
			 "SMD_solvation_energy": 5.37 
		},
		"coords": [
			{
				"x": -1.2555821624,
				"y": 4.3143347235,
				"z": -3.6382069535,
				"element": "O" 
			},
			{
				"x": -1.3517169634,
				"y": 4.2099566705,
				"z": -2.2883744625,
				"element": "C" 
			},
			{
				"x": -1.6326793245,
				"y": 5.1629426987,
				"z": -1.5877257433,
				"element": "O" 
			},
			{
				"x": -1.0811959724,
				"y": 2.8372594878,
				"z": -1.7884652615,
				"element": "C" 
			},
			{
				"x": -0.7636904837,
				"y": 1.7750150589,
				"z": -2.644874184,
				"element": "C" 
			},
			{
				"x": -0.5231992756,
				"y": 0.5066756135,
				"z": -2.1215026864,
				"element": "C" 
			},
			{
				"x": -0.5925948351,
				"y": 0.2730770351,
				"z": -0.7417818806,
				"element": "C" 
			},
			{
				"x": -0.3116356667,
				"y": -1.0979859676,
				"z": -0.1669509094,
				"element": "C" 
			},
			{
				"x": 1.1077432396,
				"y": -1.2791095456,
				"z": 0.3792097685,
				"element": "C" 
			},
			{
				"x": 2.3683043163,
				"y": -1.2669735429,
				"z": -0.9300417933,
				"element": "Cl" 
			},
			{
				"x": -0.9144014478,
				"y": 1.34399717,
				"z": 0.1063775407,
				"element": "C" 
			},
			{
				"x": -1.1552429989,
				"y": 2.613267789,
				"z": -0.4070267867,
				"element": "C" 
			},
			{
				"x": -1.4483596426,
				"y": 5.2437697306,
				"z": -3.8435073002,
				"element": "H" 
			},
			{
				"x": -0.7074889209,
				"y": 1.9459118855,
				"z": -3.7138657249,
				"element": "H" 
			},
			{
				"x": -0.2744149952,
				"y": -0.3124284046,
				"z": -2.789641228,
				"element": "H" 
			},
			{
				"x": -0.9906243586,
				"y": -1.286909871,
				"z": 0.6755362713,
				"element": "H" 
			},
			{
				"x": -0.5073725758,
				"y": -1.8745609334,
				"z": -0.913034988,
				"element": "H" 
			},
			{
				"x": 1.3775787306,
				"y": -0.4780106665,
				"z": 1.0692559121,
				"element": "H" 
			},
			{
				"x": 1.2099131779,
				"y": -2.2402574696,
				"z": 0.8854001428,
				"element": "H" 
			},
			{
				"x": -0.9832565526,
				"y": 1.1777670129,
				"z": 1.178922711,
				"element": "H" 
			},
			{
				"x": -1.4079832881,
				"y": 3.4449615256,
				"z": 0.241897556,
				"element": "H" 
			}
		],
		 "valence_orbital": [ 
			{
				"type": "occ",
				"energy": -0.29999,
				"method": "rhf"
			},
			{
				"type": "occ",
				"energy": -0.29722,
				"method": "rhf"
			},
			{
				"type": "occ",
				"energy": -0.27629,
				"method": "rhf"
			},
			{
				"type": "occ",
				"energy": -0.26194,
				"method": "rhf"
			},
			{
				"type": "occ",
				"energy": -0.25775,
				"method": "rhf"
			},
			{
				"type": "unocc",
				"energy": -0.05003,
				"method": "rhf"
			},
			{
				"type": "unocc",
				"energy": -0.01239,
				"method": "rhf"
			},
			{
				"type": "unocc",
				"energy": 0.02366,
				"method": "rhf"
			},
			{
				"type": "unocc",
				"energy": 0.05142,
				"method": "rhf"
			},
			{
				"type": "unocc",
				"energy": 0.07739,
				"method": "rhf"
			}
		],
		"cosmo_sigma_profile": { 
			"-0.025": 0.0,
			"-0.024": 0.0,
			"-0.023": 0.0,
			"-0.022": 0.0,
			"-0.021": 0.0,
			"-0.02": 0.0,
			"-0.019": 0.0990701414368,
			"-0.018": 0.625333317853,
			"-0.017": 1.18828574293,
			"-0.016": 0.487738242629,
			"-0.015": 1.00292475015,
			"-0.014": 0.683843747441,
			"-0.013": 0.210159316568,
			"-0.012": 0.27323554103,
			"-0.011": 1.55605488403,
			"-0.01": 0.548169916565,
			"-0.009": 0.241360554587,
			"-0.008": 1.17215766839,
			"-0.007": 5.71272108861,
			"-0.006": 17.5677636546,
			"-0.005": 18.1013592016,
			"-0.004": 15.8620607164,
			"-0.003": 11.1515397538,
			"-0.002": 13.7108999791,
			"-0.001": 10.1944905712,
			"0.0": 13.702932192,
			"0.001": 14.7116140628,
			"0.002": 13.2765521651,
			"0.003": 16.7897255715,
			"0.004": 15.5001666375,
			"0.005": 9.47453214628,
			"0.006": 11.3133812217,
			"0.007": 8.62485018987,
			"0.008": 2.33378939471,
			"0.009": 1.38872999631,
			"0.01": 2.02901066983,
			"0.011": 3.39241565098,
			"0.012": 4.58978503347,
			"0.013": 0.234928816272,
			"0.014": 0.0,
			"0.015": 0.0,
			"0.016": 0.0,
			"0.017": 0.0,
			"0.018": 0.0,
			"0.019": 0.0,
			"0.02": 0.0,
			"0.021": 0.0,
			"0.022": 0.0,
			"0.023": 0.0,
			"0.024": 0.0,
			"0.025": 0.0
		}
	}
}
