{
	 "smiles": "S1C(=C2C=CC=CC2=C1C1=CC=CC=C1)C1=CC=CC=C1", 
	 "Tm": 389.15, 
	 "num_atms": 35, 
	 "gaussian": { 
		 "optdone": 1, 
		 "sigma_profile": "yes", 
		 "theory": "DFT", 
		 "functional": "B3LYP", 
		 "basiset": "6-31G**", 
		 "properties": { 
			 "R2extent": 8097.4445, 
			 "electric_dipole_moment_norm": 0.126937504308, 
			 "electric_quadrupole_moment_norm": 13.0553113582, 
			 "total_energy": -1168.75516847, 
			 "HOMO_LUMO_gap": 0.12109, 
			 "cosmo_polarized_energy": -7.1, 
			 "cosmo_cavitation_energy": 39.76, 
			 "cosmo_dispersion_energy": -29.21, 
			 "cosmo_repulsion_energy": 2.16, 
			 "cosmo_total_nonelectrostatic_energy": 12.7, 
			 "SMD_solvation_energy": 5.74 
		},
		"coords": [
			{
				"x": 0.623303537,
				"y": -2.0557763772,
				"z": 0.468697592,
				"element": "S" 
			},
			{
				"x": -0.7919864966,
				"y": -1.3538991243,
				"z": 1.1827775793,
				"element": "C" 
			},
			{
				"x": -1.0348603224,
				"y": -0.0953904507,
				"z": 0.6199041826,
				"element": "C" 
			},
			{
				"x": -2.0584148886,
				"y": 0.8414012107,
				"z": 0.969901991,
				"element": "C" 
			},
			{
				"x": -2.1157514487,
				"y": 2.0553422199,
				"z": 0.3388060734,
				"element": "C" 
			},
			{
				"x": -1.1539539142,
				"y": 2.4161044919,
				"z": -0.6557743511,
				"element": "C" 
			},
			{
				"x": -0.1458391995,
				"y": 1.5587771408,
				"z": -1.0077845548,
				"element": "C" 
			},
			{
				"x": -0.0581494123,
				"y": 0.270985626,
				"z": -0.3899984678,
				"element": "C" 
			},
			{
				"x": 0.9189275662,
				"y": -0.71212053,
				"z": -0.5861974849,
				"element": "C" 
			},
			{
				"x": 2.0519420682,
				"y": -0.7400928221,
				"z": -1.5190717053,
				"element": "C" 
			},
			{
				"x": 1.9100552195,
				"y": -0.2813912089,
				"z": -2.8437103172,
				"element": "C" 
			},
			{
				"x": 2.9862247269,
				"y": -0.3122836687,
				"z": -3.7284911125,
				"element": "C" 
			},
			{
				"x": 4.2231292183,
				"y": -0.8156927988,
				"z": -3.320120372,
				"element": "C" 
			},
			{
				"x": 4.3743953396,
				"y": -1.2886022334,
				"z": -2.0148245776,
				"element": "C" 
			},
			{
				"x": 3.3048615697,
				"y": -1.2473903201,
				"z": -1.1232416656,
				"element": "C" 
			},
			{
				"x": -1.5480207315,
				"y": -2.0903303739,
				"z": 2.2029926438,
				"element": "C" 
			},
			{
				"x": -0.8865894223,
				"y": -2.8192319597,
				"z": 3.2104869652,
				"element": "C" 
			},
			{
				"x": -1.6055553706,
				"y": -3.5308638902,
				"z": 4.1681859942,
				"element": "C" 
			},
			{
				"x": -3.001966503,
				"y": -3.5248524357,
				"z": 4.1502395659,
				"element": "C" 
			},
			{
				"x": -3.6722923128,
				"y": -2.8092754017,
				"z": 3.1558905161,
				"element": "C" 
			},
			{
				"x": -2.956820925,
				"y": -2.1067757192,
				"z": 2.1881514569,
				"element": "C" 
			},
			{
				"x": -2.7682578339,
				"y": 0.5915712198,
				"z": 1.7507105148,
				"element": "H" 
			},
			{
				"x": -2.889132419,
				"y": 2.7684600157,
				"z": 0.6093546107,
				"element": "H" 
			},
			{
				"x": -1.2163300222,
				"y": 3.395908619,
				"z": -1.1204709869,
				"element": "H" 
			},
			{
				"x": 0.6022417247,
				"y": 1.8557326254,
				"z": -1.7345230224,
				"element": "H" 
			},
			{
				"x": 0.9418725787,
				"y": 0.070820277,
				"z": -3.1837708385,
				"element": "H" 
			},
			{
				"x": 2.8526721918,
				"y": 0.0440856103,
				"z": -4.7460745178,
				"element": "H" 
			},
			{
				"x": 5.059155169,
				"y": -0.8426285593,
				"z": -4.0127238851,
				"element": "H" 
			},
			{
				"x": 5.3321930951,
				"y": -1.6810225092,
				"z": -1.685045407,
				"element": "H" 
			},
			{
				"x": 3.440217734,
				"y": -1.5914382294,
				"z": -0.101927542,
				"element": "H" 
			},
			{
				"x": 0.1988123447,
				"y": -2.8069965576,
				"z": 3.2495795576,
				"element": "H" 
			},
			{
				"x": -1.0729075663,
				"y": -4.0825117992,
				"z": 4.9376628509,
				"element": "H" 
			},
			{
				"x": -3.5617158269,
				"y": -4.0749629013,
				"z": 4.9008542537,
				"element": "H" 
			},
			{
				"x": -4.7582136408,
				"y": -2.8100543282,
				"z": 3.1229211345,
				"element": "H" 
			},
			{
				"x": -3.4864458269,
				"y": -1.5903048578,
				"z": 1.3945333258,
				"element": "H" 
			}
		],
		 "valence_orbital": [ 
			{
				"type": "occ",
				"energy": -0.25347,
				"method": "rhf"
			},
			{
				"type": "occ",
				"energy": -0.25284,
				"method": "rhf"
			},
			{
				"type": "occ",
				"energy": -0.25083,
				"method": "rhf"
			},
			{
				"type": "occ",
				"energy": -0.244,
				"method": "rhf"
			},
			{
				"type": "occ",
				"energy": -0.18303,
				"method": "rhf"
			},
			{
				"type": "unocc",
				"energy": -0.06194,
				"method": "rhf"
			},
			{
				"type": "unocc",
				"energy": -0.01074,
				"method": "rhf"
			},
			{
				"type": "unocc",
				"energy": -0.01011,
				"method": "rhf"
			},
			{
				"type": "unocc",
				"energy": -0.0054,
				"method": "rhf"
			},
			{
				"type": "unocc",
				"energy": -0.00371,
				"method": "rhf"
			}
		],
		"cosmo_sigma_profile": { 
			"-0.025": 0.0,
			"-0.024": 0.0,
			"-0.023": 0.0,
			"-0.022": 0.0,
			"-0.021": 0.0,
			"-0.02": 0.0,
			"-0.019": 0.0,
			"-0.018": 0.0,
			"-0.017": 0.0,
			"-0.016": 0.0,
			"-0.015": 0.0,
			"-0.014": 0.0,
			"-0.013": 0.0,
			"-0.012": 0.0,
			"-0.011": 0.0,
			"-0.01": 0.0,
			"-0.009": 0.0,
			"-0.008": 0.0,
			"-0.007": 0.106382683399,
			"-0.006": 12.9859474905,
			"-0.005": 27.6022200465,
			"-0.004": 33.7513819672,
			"-0.003": 27.331186126,
			"-0.002": 21.5011185866,
			"-0.001": 20.0121435932,
			"0.0": 22.4450485151,
			"0.001": 23.814931238,
			"0.002": 34.6631820286,
			"0.003": 32.9462335893,
			"0.004": 30.4416129173,
			"0.005": 28.4279711846,
			"0.006": 6.30519460448,
			"0.007": 0.0,
			"0.008": 0.0,
			"0.009": 0.0,
			"0.01": 0.0,
			"0.011": 0.0,
			"0.012": 0.0,
			"0.013": 0.0,
			"0.014": 0.0,
			"0.015": 0.0,
			"0.016": 0.0,
			"0.017": 0.0,
			"0.018": 0.0,
			"0.019": 0.0,
			"0.02": 0.0,
			"0.021": 0.0,
			"0.022": 0.0,
			"0.023": 0.0,
			"0.024": 0.0,
			"0.025": 0.0
		}
	}
}
