{
	 "smiles": "CC1=CC=CN=C1C(N)=S", 
	 "Tm": 392.65, 
	 "num_atms": 18, 
	 "gaussian": { 
		 "optdone": 1, 
		 "sigma_profile": "yes", 
		 "theory": "DFT", 
		 "functional": "B3LYP", 
		 "basiset": "6-31G**", 
		 "properties": { 
			 "R2extent": 1990.9213, 
			 "electric_dipole_moment_norm": 4.1463620018, 
			 "electric_quadrupole_moment_norm": 8.94015331133, 
			 "total_energy": -779.268315919, 
			 "HOMO_LUMO_gap": 0.13346, 
			 "cosmo_polarized_energy": -10.82, 
			 "cosmo_cavitation_energy": 22.94, 
			 "cosmo_dispersion_energy": -17.81, 
			 "cosmo_repulsion_energy": 1.39, 
			 "cosmo_total_nonelectrostatic_energy": 6.52, 
			 "SMD_solvation_energy": 2.63 
		},
		"coords": [
			{
				"x": 0.1579561649,
				"y": 1.1920752932,
				"z": 0.5483425318,
				"element": "C" 
			},
			{
				"x": -0.6223098639,
				"y": 0.0392435727,
				"z": -0.0303878069,
				"element": "C" 
			},
			{
				"x": -2.0225226871,
				"y": 0.0855436465,
				"z": 0.0777031552,
				"element": "C" 
			},
			{
				"x": -2.8283830768,
				"y": -0.9270844551,
				"z": -0.4237566866,
				"element": "C" 
			},
			{
				"x": -2.1997554526,
				"y": -2.0045022867,
				"z": -1.0457355551,
				"element": "C" 
			},
			{
				"x": -0.8791116907,
				"y": -2.0806099472,
				"z": -1.1653913181,
				"element": "N" 
			},
			{
				"x": -0.0853228204,
				"y": -1.1008136403,
				"z": -0.6805488154,
				"element": "C" 
			},
			{
				"x": 1.3818272415,
				"y": -1.3785362922,
				"z": -0.9178000286,
				"element": "C" 
			},
			{
				"x": 1.5868796272,
				"y": -2.5364637041,
				"z": -1.5631879754,
				"element": "N" 
			},
			{
				"x": 2.6692273721,
				"y": -0.4097202517,
				"z": -0.4619541515,
				"element": "S" 
			},
			{
				"x": 0.768691444,
				"y": 1.6876387256,
				"z": -0.2097252648,
				"element": "H" 
			},
			{
				"x": 0.85603524,
				"y": 0.8602906697,
				"z": 1.3202717982,
				"element": "H" 
			},
			{
				"x": -0.5333842087,
				"y": 1.9213099555,
				"z": 0.9821744823,
				"element": "H" 
			},
			{
				"x": -2.4749957538,
				"y": 0.9423818338,
				"z": 0.5692089613,
				"element": "H" 
			},
			{
				"x": -3.9093779765,
				"y": -0.8858522206,
				"z": -0.3372324563,
				"element": "H" 
			},
			{
				"x": -2.7741058181,
				"y": -2.8306968361,
				"z": -1.4600873837,
				"element": "H" 
			},
			{
				"x": 2.5319012536,
				"y": -2.8181023581,
				"z": -1.7707555312,
				"element": "H" 
			},
			{
				"x": 0.7774510052,
				"y": -3.0914017049,
				"z": -1.8177379553,
				"element": "H" 
			}
		],
		 "valence_orbital": [ 
			{
				"type": "occ",
				"energy": -0.2934,
				"method": "rhf"
			},
			{
				"type": "occ",
				"energy": -0.2782,
				"method": "rhf"
			},
			{
				"type": "occ",
				"energy": -0.26583,
				"method": "rhf"
			},
			{
				"type": "occ",
				"energy": -0.22399,
				"method": "rhf"
			},
			{
				"type": "occ",
				"energy": -0.20253,
				"method": "rhf"
			},
			{
				"type": "unocc",
				"energy": -0.06907,
				"method": "rhf"
			},
			{
				"type": "unocc",
				"energy": -0.02827,
				"method": "rhf"
			},
			{
				"type": "unocc",
				"energy": 0.02367,
				"method": "rhf"
			},
			{
				"type": "unocc",
				"energy": 0.08504,
				"method": "rhf"
			},
			{
				"type": "unocc",
				"energy": 0.09883,
				"method": "rhf"
			}
		],
		"cosmo_sigma_profile": { 
			"-0.025": 0.0,
			"-0.024": 0.0,
			"-0.023": 0.0,
			"-0.022": 0.0,
			"-0.021": 0.0,
			"-0.02": 0.0,
			"-0.019": 0.0,
			"-0.018": 0.0,
			"-0.017": 0.0,
			"-0.016": 0.0,
			"-0.015": 0.307489775864,
			"-0.014": 1.04149647792,
			"-0.013": 1.16363391575,
			"-0.012": 1.22844810142,
			"-0.011": 1.67762959205,
			"-0.01": 2.13580881972,
			"-0.009": 1.51496436505,
			"-0.008": 2.45923944533,
			"-0.007": 7.44386940317,
			"-0.006": 10.0538873684,
			"-0.005": 9.03385231744,
			"-0.004": 7.38647737018,
			"-0.003": 9.78908775611,
			"-0.002": 9.61599005903,
			"-0.001": 13.9567303486,
			"0.0": 22.1855980205,
			"0.001": 20.0979842653,
			"0.002": 14.9732207765,
			"0.003": 7.46244311181,
			"0.004": 5.23648373856,
			"0.005": 7.36055438951,
			"0.006": 6.06179204855,
			"0.007": 5.68292663721,
			"0.008": 5.78444873579,
			"0.009": 5.89913063883,
			"0.01": 2.71287234256,
			"0.011": 1.92158220965,
			"0.012": 1.37287171,
			"0.013": 0.0810977782421,
			"0.014": 0.0,
			"0.015": 0.0,
			"0.016": 0.0,
			"0.017": 0.0,
			"0.018": 0.0,
			"0.019": 0.0,
			"0.02": 0.0,
			"0.021": 0.0,
			"0.022": 0.0,
			"0.023": 0.0,
			"0.024": 0.0,
			"0.025": 0.0
		}
	}
}
