{
	 "smiles": "OC(=O)C1=CC2=C(S1)C1=C(SC2)C=CC(F)=C1", 
	 "Tm": 553.15, 
	 "num_atms": 24, 
	 "gaussian": { 
		 "optdone": 1, 
		 "sigma_profile": "yes", 
		 "theory": "DFT", 
		 "functional": "B3LYP", 
		 "basiset": "6-31G**", 
		 "properties": { 
			 "R2extent": 6156.6204, 
			 "electric_dipole_moment_norm": 5.19982762984, 
			 "electric_quadrupole_moment_norm": 24.4117918228, 
			 "total_energy": -1508.15543214, 
			 "HOMO_LUMO_gap": 0.13933, 
			 "cosmo_polarized_energy": -17.94, 
			 "cosmo_cavitation_energy": 31.98, 
			 "cosmo_dispersion_energy": -24.48, 
			 "cosmo_repulsion_energy": 1.75, 
			 "cosmo_total_nonelectrostatic_energy": 9.24, 
			 "SMD_solvation_energy": 5.94 
		},
		"coords": [
			{
				"x": 1.5237876494,
				"y": -4.7134677858,
				"z": -0.1516064024,
				"element": "O" 
			},
			{
				"x": 0.2500986415,
				"y": -4.2751063256,
				"z": 0.0338807527,
				"element": "C" 
			},
			{
				"x": -0.6454080198,
				"y": -5.0642290563,
				"z": 0.2331872475,
				"element": "O" 
			},
			{
				"x": 0.0379174239,
				"y": -2.8143183189,
				"z": -0.0263244259,
				"element": "C" 
			},
			{
				"x": 0.8784218623,
				"y": -1.7950609336,
				"z": -0.4219820084,
				"element": "C" 
			},
			{
				"x": 0.2766339014,
				"y": -0.5132019787,
				"z": -0.3522678667,
				"element": "C" 
			},
			{
				"x": -1.0328334792,
				"y": -0.5670314859,
				"z": 0.0969383438,
				"element": "C" 
			},
			{
				"x": -1.522693719,
				"y": -2.2007881323,
				"z": 0.4387251215,
				"element": "S" 
			},
			{
				"x": -1.8988421645,
				"y": 0.5917458615,
				"z": 0.2967293138,
				"element": "C" 
			},
			{
				"x": -1.3257338944,
				"y": 1.8835589638,
				"z": 0.4152549287,
				"element": "C" 
			},
			{
				"x": 0.4371700754,
				"y": 2.1454957551,
				"z": 0.3652743619,
				"element": "S" 
			},
			{
				"x": 0.9119531451,
				"y": 0.7832969581,
				"z": -0.7707964848,
				"element": "C" 
			},
			{
				"x": -2.15001435,
				"y": 2.989324084,
				"z": 0.6532577661,
				"element": "C" 
			},
			{
				"x": -3.5301904378,
				"y": 2.8451114566,
				"z": 0.7750556659,
				"element": "C" 
			},
			{
				"x": -4.0794564962,
				"y": 1.5749653742,
				"z": 0.6343936826,
				"element": "C" 
			},
			{
				"x": -5.4153860939,
				"y": 1.4239579739,
				"z": 0.7256046424,
				"element": "F" 
			},
			{
				"x": -3.2949070558,
				"y": 0.4592654556,
				"z": 0.3912818409,
				"element": "C" 
			},
			{
				"x": 2.1432055733,
				"y": -3.9712392664,
				"z": -0.1705616136,
				"element": "H" 
			},
			{
				"x": 1.8917775772,
				"y": -1.945048148,
				"z": -0.783797175,
				"element": "H" 
			},
			{
				"x": 2.0024813203,
				"y": 0.7282427943,
				"z": -0.7242039325,
				"element": "H" 
			},
			{
				"x": 0.6321298618,
				"y": 1.0545335007,
				"z": -1.795445772,
				"element": "H" 
			},
			{
				"x": -1.7051788274,
				"y": 3.9759124515,
				"z": 0.737425289,
				"element": "H" 
			},
			{
				"x": -4.1764664614,
				"y": 3.6964277717,
				"z": 0.9571488441,
				"element": "H" 
			},
			{
				"x": -3.7752660323,
				"y": -0.5061469694,
				"z": 0.2715278803,
				"element": "H" 
			}
		],
		 "valence_orbital": [ 
			{
				"type": "occ",
				"energy": -0.292,
				"method": "rhf"
			},
			{
				"type": "occ",
				"energy": -0.28182,
				"method": "rhf"
			},
			{
				"type": "occ",
				"energy": -0.27253,
				"method": "rhf"
			},
			{
				"type": "occ",
				"energy": -0.24466,
				"method": "rhf"
			},
			{
				"type": "occ",
				"energy": -0.22211,
				"method": "rhf"
			},
			{
				"type": "unocc",
				"energy": -0.08278,
				"method": "rhf"
			},
			{
				"type": "unocc",
				"energy": -0.02727,
				"method": "rhf"
			},
			{
				"type": "unocc",
				"energy": -0.02237,
				"method": "rhf"
			},
			{
				"type": "unocc",
				"energy": 0.01255,
				"method": "rhf"
			},
			{
				"type": "unocc",
				"energy": 0.02025,
				"method": "rhf"
			}
		],
		"cosmo_sigma_profile": { 
			"-0.025": 0.0,
			"-0.024": 0.0,
			"-0.023": 0.0,
			"-0.022": 0.0,
			"-0.021": 0.0,
			"-0.02": 0.0800373393836,
			"-0.019": 0.719618141509,
			"-0.018": 1.31143547762,
			"-0.017": 1.02065256439,
			"-0.016": 1.19119365878,
			"-0.015": 0.912872577614,
			"-0.014": 0.671086380278,
			"-0.013": 1.09757857555,
			"-0.012": 1.47549852858,
			"-0.011": 1.40496996853,
			"-0.01": 1.30321608382,
			"-0.009": 2.63889913229,
			"-0.008": 7.68402732359,
			"-0.007": 10.8158217294,
			"-0.006": 10.89382977,
			"-0.005": 12.2020958812,
			"-0.004": 12.4172291388,
			"-0.003": 12.1367584042,
			"-0.002": 10.7270571275,
			"-0.001": 15.3244223192,
			"0.0": 19.9756848445,
			"0.001": 28.5280548785,
			"0.002": 28.9228564742,
			"0.003": 20.2810793163,
			"0.004": 16.2146622041,
			"0.005": 6.63966709841,
			"0.006": 6.07416491272,
			"0.007": 4.56566268717,
			"0.008": 4.60494388123,
			"0.009": 4.17879229777,
			"0.01": 4.87534864787,
			"0.011": 5.30474759273,
			"0.012": 4.36251792736,
			"0.013": 1.11097389096,
			"0.014": 0.000654651875159,
			"0.015": 0.0,
			"0.016": 0.0,
			"0.017": 0.0,
			"0.018": 0.0,
			"0.019": 0.0,
			"0.02": 0.0,
			"0.021": 0.0,
			"0.022": 0.0,
			"0.023": 0.0,
			"0.024": 0.0,
			"0.025": 0.0
		}
	}
}
