{
	 "smiles": "CC1=CC=C(C(C)=C1)[N+]([O-])=O", 
	 "Tm": 280.65, 
	 "num_atms": 20, 
	 "gaussian": { 
		 "optdone": 1, 
		 "sigma_profile": "yes", 
		 "theory": "DFT", 
		 "functional": "B3LYP", 
		 "basiset": "6-31G**", 
		 "properties": { 
			 "R2extent": 1902.8285, 
			 "electric_dipole_moment_norm": 4.93102937428, 
			 "electric_quadrupole_moment_norm": 4.59273092071, 
			 "total_energy": -515.387216692, 
			 "HOMO_LUMO_gap": 0.18171, 
			 "cosmo_polarized_energy": -7.76, 
			 "cosmo_cavitation_energy": 23.84, 
			 "cosmo_dispersion_energy": -17.63, 
			 "cosmo_repulsion_energy": 1.41, 
			 "cosmo_total_nonelectrostatic_energy": 7.61, 
			 "SMD_solvation_energy": 6.29 
		},
		"coords": [
			{
				"x": 2.9657167306,
				"y": 0.8865729604,
				"z": -2.1824356303,
				"element": "C" 
			},
			{
				"x": 1.7758168155,
				"y": 0.6361402693,
				"z": -1.289470154,
				"element": "C" 
			},
			{
				"x": 1.9413755176,
				"y": 0.4652816473,
				"z": 0.0931913462,
				"element": "C" 
			},
			{
				"x": 0.8412443418,
				"y": 0.2460424134,
				"z": 0.906615788,
				"element": "C" 
			},
			{
				"x": -0.4429929144,
				"y": 0.1939971724,
				"z": 0.3534359648,
				"element": "C" 
			},
			{
				"x": -0.663241972,
				"y": 0.3578820531,
				"z": -1.0290554931,
				"element": "C" 
			},
			{
				"x": -2.0051928296,
				"y": 0.314736696,
				"z": -1.7185210041,
				"element": "C" 
			},
			{
				"x": 0.4811072431,
				"y": 0.5762403141,
				"z": -1.8119262286,
				"element": "C" 
			},
			{
				"x": -1.5454622151,
				"y": -0.0429681558,
				"z": 1.2991069994,
				"element": "N" 
			},
			{
				"x": -2.6985541807,
				"y": -0.0726104046,
				"z": 0.8645371117,
				"element": "O" 
			},
			{
				"x": -1.2589848561,
				"y": -0.199971151,
				"z": 2.4873337483,
				"element": "O" 
			},
			{
				"x": 3.4212524574,
				"y": 1.8596701355,
				"z": -1.9642015734,
				"element": "H" 
			},
			{
				"x": 3.7411427303,
				"y": 0.1282153499,
				"z": -2.029567242,
				"element": "H" 
			},
			{
				"x": 2.6858513664,
				"y": 0.8779155523,
				"z": -3.2388000202,
				"element": "H" 
			},
			{
				"x": 2.9346847,
				"y": 0.5035664341,
				"z": 0.5315691559,
				"element": "H" 
			},
			{
				"x": 0.9463404687,
				"y": 0.1102546868,
				"z": 1.9751509498,
				"element": "H" 
			},
			{
				"x": -2.5150305201,
				"y": -0.6368219351,
				"z": -1.5494344414,
				"element": "H" 
			},
			{
				"x": -2.6774051561,
				"y": 1.0881488432,
				"z": -1.338996842,
				"element": "H" 
			},
			{
				"x": -1.869628075,
				"y": 0.4587158102,
				"z": -2.7936819304,
				"element": "H" 
			},
			{
				"x": 0.3443603478,
				"y": 0.7042913085,
				"z": -2.8825505046,
				"element": "H" 
			}
		],
		 "valence_orbital": [ 
			{
				"type": "occ",
				"energy": -0.3017,
				"method": "rhf"
			},
			{
				"type": "occ",
				"energy": -0.29883,
				"method": "rhf"
			},
			{
				"type": "occ",
				"energy": -0.28071,
				"method": "rhf"
			},
			{
				"type": "occ",
				"energy": -0.26833,
				"method": "rhf"
			},
			{
				"type": "occ",
				"energy": -0.2629,
				"method": "rhf"
			},
			{
				"type": "unocc",
				"energy": -0.08119,
				"method": "rhf"
			},
			{
				"type": "unocc",
				"energy": -0.01988,
				"method": "rhf"
			},
			{
				"type": "unocc",
				"energy": 0.00431,
				"method": "rhf"
			},
			{
				"type": "unocc",
				"energy": 0.08411,
				"method": "rhf"
			},
			{
				"type": "unocc",
				"energy": 0.11271,
				"method": "rhf"
			}
		],
		"cosmo_sigma_profile": { 
			"-0.025": 0.0,
			"-0.024": 0.0,
			"-0.023": 0.0,
			"-0.022": 0.0,
			"-0.021": 0.0,
			"-0.02": 0.0,
			"-0.019": 0.0,
			"-0.018": 0.0,
			"-0.017": 0.0,
			"-0.016": 0.0,
			"-0.015": 0.0,
			"-0.014": 0.0,
			"-0.013": 0.0,
			"-0.012": 0.0,
			"-0.011": 0.0,
			"-0.01": 0.0,
			"-0.009": 0.0,
			"-0.008": 0.0,
			"-0.007": 1.38910687279,
			"-0.006": 7.73688195099,
			"-0.005": 14.3943120426,
			"-0.004": 17.7490711052,
			"-0.003": 19.073866736,
			"-0.002": 17.7451799411,
			"-0.001": 21.7826427495,
			"0.0": 21.5361007858,
			"0.001": 12.0930504348,
			"0.002": 12.3954605726,
			"0.003": 11.185317817,
			"0.004": 3.36339798128,
			"0.005": 3.03427043674,
			"0.006": 3.12400814103,
			"0.007": 4.25742192448,
			"0.008": 7.8296411242,
			"0.009": 4.88615761278,
			"0.01": 4.26529260109,
			"0.011": 1.48604075803,
			"0.012": 0.0,
			"0.013": 0.0,
			"0.014": 0.0,
			"0.015": 0.0,
			"0.016": 0.0,
			"0.017": 0.0,
			"0.018": 0.0,
			"0.019": 0.0,
			"0.02": 0.0,
			"0.021": 0.0,
			"0.022": 0.0,
			"0.023": 0.0,
			"0.024": 0.0,
			"0.025": 0.0
		}
	}
}
