{
	 "smiles": "OC(=O)CCC1=NC=C(O1)C1=C(Cl)C=CC=C1", 
	 "Tm": 458.15, 
	 "num_atms": 27, 
	 "gaussian": { 
		 "optdone": 1, 
		 "sigma_profile": "yes", 
		 "theory": "DFT", 
		 "functional": "B3LYP", 
		 "basiset": "6-31G**", 
		 "properties": { 
			 "R2extent": 7251.7968, 
			 "electric_dipole_moment_norm": 2.68227958647, 
			 "electric_quadrupole_moment_norm": 21.7057004893, 
			 "total_energy": -1203.92386102, 
			 "HOMO_LUMO_gap": 0.17558, 
			 "cosmo_polarized_energy": -17.19, 
			 "cosmo_cavitation_energy": 34.06, 
			 "cosmo_dispersion_energy": -25.08, 
			 "cosmo_repulsion_energy": 1.94, 
			 "cosmo_total_nonelectrostatic_energy": 10.92, 
			 "SMD_solvation_energy": 5.47 
		},
		"coords": [
			{
				"x": 0.4652574211,
				"y": -4.4857853231,
				"z": -4.1676479752,
				"element": "O" 
			},
			{
				"x": -0.2361424968,
				"y": -3.6715503671,
				"z": -3.3348847053,
				"element": "C" 
			},
			{
				"x": -1.4396125744,
				"y": -3.7357085891,
				"z": -3.296792769,
				"element": "O" 
			},
			{
				"x": 0.6065994941,
				"y": -2.7203556393,
				"z": -2.498652729,
				"element": "C" 
			},
			{
				"x": -0.2534425368,
				"y": -1.8402091675,
				"z": -1.5931530683,
				"element": "C" 
			},
			{
				"x": 0.579275691,
				"y": -0.9099722063,
				"z": -0.7768279677,
				"element": "C" 
			},
			{
				"x": 1.8717734356,
				"y": -0.7779207871,
				"z": -0.7589471078,
				"element": "N" 
			},
			{
				"x": 2.1125556768,
				"y": 0.2205856834,
				"z": 0.1716640016,
				"element": "C" 
			},
			{
				"x": 0.9287227038,
				"y": 0.666931471,
				"z": 0.6954462717,
				"element": "C" 
			},
			{
				"x": -0.06549364,
				"y": -0.0724313328,
				"z": 0.0743523953,
				"element": "O" 
			},
			{
				"x": 0.471423503,
				"y": 1.6516842916,
				"z": 1.6706895855,
				"element": "C" 
			},
			{
				"x": 1.3169256056,
				"y": 2.5007281621,
				"z": 2.4142786147,
				"element": "C" 
			},
			{
				"x": 3.0668445537,
				"y": 2.45545744,
				"z": 2.2342075389,
				"element": "Cl" 
			},
			{
				"x": 0.8092370551,
				"y": 3.4203913122,
				"z": 3.3314284248,
				"element": "C" 
			},
			{
				"x": -0.5644720254,
				"y": 3.5211511923,
				"z": 3.5353579862,
				"element": "C" 
			},
			{
				"x": -1.4276836388,
				"y": 2.6944758859,
				"z": 2.8145594791,
				"element": "C" 
			},
			{
				"x": -0.9160620762,
				"y": 1.7804388361,
				"z": 1.9024542965,
				"element": "C" 
			},
			{
				"x": 1.4145421637,
				"y": -4.3155466511,
				"z": -4.0841362576,
				"element": "H" 
			},
			{
				"x": 1.218900987,
				"y": -2.0991914407,
				"z": -3.1640386887,
				"element": "H" 
			},
			{
				"x": 1.3200054839,
				"y": -3.3004772018,
				"z": -1.9002735196,
				"element": "H" 
			},
			{
				"x": -0.9679064035,
				"y": -1.2677681492,
				"z": -2.1957170765,
				"element": "H" 
			},
			{
				"x": -0.8660559515,
				"y": -2.4659651266,
				"z": -0.9341365311,
				"element": "H" 
			},
			{
				"x": 3.1138366833,
				"y": 0.5445558058,
				"z": 0.3962379116,
				"element": "H" 
			},
			{
				"x": 1.500269168,
				"y": 4.0513316672,
				"z": 3.8791663437,
				"element": "H" 
			},
			{
				"x": -0.9517570509,
				"y": 4.2395179794,
				"z": 4.251030259,
				"element": "H" 
			},
			{
				"x": -2.5011938284,
				"y": 2.7604056084,
				"z": 2.9616800514,
				"element": "H" 
			},
			{
				"x": -1.5896474032,
				"y": 1.1408266463,
				"z": 1.3451552358,
				"element": "H" 
			}
		],
		 "valence_orbital": [ 
			{
				"type": "occ",
				"energy": -0.29752,
				"method": "rhf"
			},
			{
				"type": "occ",
				"energy": -0.29602,
				"method": "rhf"
			},
			{
				"type": "occ",
				"energy": -0.27645,
				"method": "rhf"
			},
			{
				"type": "occ",
				"energy": -0.25777,
				"method": "rhf"
			},
			{
				"type": "occ",
				"energy": -0.22501,
				"method": "rhf"
			},
			{
				"type": "unocc",
				"energy": -0.04943,
				"method": "rhf"
			},
			{
				"type": "unocc",
				"energy": -0.01935,
				"method": "rhf"
			},
			{
				"type": "unocc",
				"energy": 0.00588,
				"method": "rhf"
			},
			{
				"type": "unocc",
				"energy": 0.01872,
				"method": "rhf"
			},
			{
				"type": "unocc",
				"energy": 0.02192,
				"method": "rhf"
			}
		],
		"cosmo_sigma_profile": { 
			"-0.025": 0.0,
			"-0.024": 0.0,
			"-0.023": 0.0,
			"-0.022": 0.0,
			"-0.021": 0.0,
			"-0.02": 0.0522892164467,
			"-0.019": 0.881643226144,
			"-0.018": 1.19208402798,
			"-0.017": 0.731231054849,
			"-0.016": 1.22886650685,
			"-0.015": 1.44171851581,
			"-0.014": 0.910096533859,
			"-0.013": 1.07282406741,
			"-0.012": 1.23765234319,
			"-0.011": 1.2547733129,
			"-0.01": 1.35250376941,
			"-0.009": 0.915965986483,
			"-0.008": 2.85980298483,
			"-0.007": 10.3101849219,
			"-0.006": 18.9631404251,
			"-0.005": 17.9815573107,
			"-0.004": 14.1693896379,
			"-0.003": 12.8184330656,
			"-0.002": 14.9733779055,
			"-0.001": 14.1359110724,
			"0.0": 21.8856945547,
			"0.001": 25.5820033349,
			"0.002": 24.4728418158,
			"0.003": 25.0358674489,
			"0.004": 16.6855888145,
			"0.005": 5.0441779177,
			"0.006": 3.71023543485,
			"0.007": 4.33324403934,
			"0.008": 3.32051861114,
			"0.009": 4.43415882733,
			"0.01": 5.94146371704,
			"0.011": 6.57329300903,
			"0.012": 5.8026896046,
			"0.013": 2.17334661588,
			"0.014": 0.547851901879,
			"0.015": 0.612653775732,
			"0.016": 0.0103812413242,
			"0.017": 0.0,
			"0.018": 0.0,
			"0.019": 0.0,
			"0.02": 0.0,
			"0.021": 0.0,
			"0.022": 0.0,
			"0.023": 0.0,
			"0.024": 0.0,
			"0.025": 0.0
		}
	}
}
