{
	 "smiles": "CCN(C1=CC=CC=C1)S(=O)(=O)C1=C(C)C=CC(=C1)C(O)=O", 
	 "Tm": 434.15, 
	 "num_atms": 39, 
	 "gaussian": { 
		 "optdone": 1, 
		 "sigma_profile": "yes", 
		 "theory": "DFT", 
		 "functional": "B3LYP", 
		 "basiset": "6-31G**", 
		 "properties": { 
			 "R2extent": 6984.1622, 
			 "electric_dipole_moment_norm": 4.85398490109, 
			 "electric_quadrupole_moment_norm": 20.6664733888, 
			 "total_energy": -1373.72612369, 
			 "HOMO_LUMO_gap": 0.19488, 
			 "cosmo_polarized_energy": -19.93, 
			 "cosmo_cavitation_energy": 43.41, 
			 "cosmo_dispersion_energy": -28.8, 
			 "cosmo_repulsion_energy": 2.17, 
			 "cosmo_total_nonelectrostatic_energy": 16.78, 
			 "SMD_solvation_energy": 8.06 
		},
		"coords": [
			{
				"x": -2.4488260794,
				"y": -1.8504582769,
				"z": -2.543289711,
				"element": "C" 
			},
			{
				"x": -2.2120215206,
				"y": -0.3868788962,
				"z": -2.1813390302,
				"element": "C" 
			},
			{
				"x": -1.2565174079,
				"y": -0.2663667714,
				"z": -1.0461507834,
				"element": "N" 
			},
			{
				"x": 0.1115747375,
				"y": -0.6485071282,
				"z": -1.3261350681,
				"element": "C" 
			},
			{
				"x": 0.9057164812,
				"y": 0.070111258,
				"z": -2.2299755921,
				"element": "C" 
			},
			{
				"x": 2.2093996488,
				"y": -0.3495465063,
				"z": -2.4922231675,
				"element": "C" 
			},
			{
				"x": 2.7259962969,
				"y": -1.482282061,
				"z": -1.857929627,
				"element": "C" 
			},
			{
				"x": 1.9356904886,
				"y": -2.1969348352,
				"z": -0.956524441,
				"element": "C" 
			},
			{
				"x": 0.6300865676,
				"y": -1.7810796373,
				"z": -0.6904993251,
				"element": "C" 
			},
			{
				"x": -1.433847111,
				"y": 1.1508177124,
				"z": -0.1012342018,
				"element": "S" 
			},
			{
				"x": -2.8760650368,
				"y": 1.404901064,
				"z": -0.0047780373,
				"element": "O" 
			},
			{
				"x": -0.5454326368,
				"y": 2.2276268165,
				"z": -0.5651385729,
				"element": "O" 
			},
			{
				"x": -0.8072406778,
				"y": 0.6095717003,
				"z": 1.5006322801,
				"element": "C" 
			},
			{
				"x": -1.4993068556,
				"y": -0.3203643623,
				"z": 2.3034377965,
				"element": "C" 
			},
			{
				"x": -2.7943709431,
				"y": -0.9742108986,
				"z": 1.895877825,
				"element": "C" 
			},
			{
				"x": -0.9177055806,
				"y": -0.6345651473,
				"z": 3.541902055,
				"element": "C" 
			},
			{
				"x": 0.2720537136,
				"y": -0.0551926684,
				"z": 3.9681107662,
				"element": "C" 
			},
			{
				"x": 0.9274579472,
				"y": 0.8881130282,
				"z": 3.1681747097,
				"element": "C" 
			},
			{
				"x": 0.3792846731,
				"y": 1.2089403098,
				"z": 1.9231363964,
				"element": "C" 
			},
			{
				"x": 2.2088625687,
				"y": 1.4757902172,
				"z": 3.6812753978,
				"element": "C" 
			},
			{
				"x": 2.6489924719,
				"y": 2.614621115,
				"z": 3.0890746422,
				"element": "O" 
			},
			{
				"x": 2.8422982541,
				"y": 0.977298845,
				"z": 4.5822085942,
				"element": "O" 
			},
			{
				"x": -2.8669930296,
				"y": -2.4002553225,
				"z": -1.6947741572,
				"element": "H" 
			},
			{
				"x": -1.5243192134,
				"y": -2.3459349968,
				"z": -2.8524705786,
				"element": "H" 
			},
			{
				"x": -3.1581430861,
				"y": -1.9100805471,
				"z": -3.3749691792,
				"element": "H" 
			},
			{
				"x": -3.1447903181,
				"y": 0.0804803327,
				"z": -1.8626670007,
				"element": "H" 
			},
			{
				"x": -1.8414672848,
				"y": 0.16635391,
				"z": -3.0548333372,
				"element": "H" 
			},
			{
				"x": 0.5079093138,
				"y": 0.9614089906,
				"z": -2.7026042364,
				"element": "H" 
			},
			{
				"x": 2.8245585026,
				"y": 0.2121656458,
				"z": -3.1889686823,
				"element": "H" 
			},
			{
				"x": 3.7423174666,
				"y": -1.8045946692,
				"z": -2.0644396893,
				"element": "H" 
			},
			{
				"x": 2.3331339259,
				"y": -3.0769386034,
				"z": -0.4597403463,
				"element": "H" 
			},
			{
				"x": 0.0026238493,
				"y": -2.3264911449,
				"z": 0.0066572211,
				"element": "H" 
			},
			{
				"x": -3.581784468,
				"y": -0.2286051256,
				"z": 1.7591687858,
				"element": "H" 
			},
			{
				"x": -3.111673434,
				"y": -1.6952102235,
				"z": 2.6525824245,
				"element": "H" 
			},
			{
				"x": -2.6855071997,
				"y": -1.4929877799,
				"z": 0.9385140082,
				"element": "H" 
			},
			{
				"x": -1.4205083523,
				"y": -1.35322803,
				"z": 4.1827542936,
				"element": "H" 
			},
			{
				"x": 0.7126475197,
				"y": -0.3176195389,
				"z": 4.9239452144,
				"element": "H" 
			},
			{
				"x": 0.8614314643,
				"y": 1.8986503854,
				"z": 1.2376362882,
				"element": "H" 
			},
			{
				"x": 1.9777843444,
				"y": 2.9757818402,
				"z": 2.4934960655,
				"element": "H" 
			}
		],
		 "valence_orbital": [ 
			{
				"type": "occ",
				"energy": -0.28038,
				"method": "rhf"
			},
			{
				"type": "occ",
				"energy": -0.27146,
				"method": "rhf"
			},
			{
				"type": "occ",
				"energy": -0.26647,
				"method": "rhf"
			},
			{
				"type": "occ",
				"energy": -0.26328,
				"method": "rhf"
			},
			{
				"type": "occ",
				"energy": -0.25824,
				"method": "rhf"
			},
			{
				"type": "unocc",
				"energy": -0.06336,
				"method": "rhf"
			},
			{
				"type": "unocc",
				"energy": -0.04524,
				"method": "rhf"
			},
			{
				"type": "unocc",
				"energy": -0.02603,
				"method": "rhf"
			},
			{
				"type": "unocc",
				"energy": -0.01613,
				"method": "rhf"
			},
			{
				"type": "unocc",
				"energy": 0.03141,
				"method": "rhf"
			}
		],
		"cosmo_sigma_profile": { 
			"-0.025": 0.0,
			"-0.024": 0.0,
			"-0.023": 0.0,
			"-0.022": 0.0,
			"-0.021": 0.0,
			"-0.02": 0.00877657411865,
			"-0.019": 0.776764983459,
			"-0.018": 0.577711631294,
			"-0.017": 1.20332641428,
			"-0.016": 1.02201962345,
			"-0.015": 0.90164965498,
			"-0.014": 1.21185666035,
			"-0.013": 0.891723672131,
			"-0.012": 0.633657367317,
			"-0.011": 1.19005901398,
			"-0.01": 0.92193235059,
			"-0.009": 0.900411796788,
			"-0.008": 1.68400826213,
			"-0.007": 6.95581981877,
			"-0.006": 15.6458307655,
			"-0.005": 20.5152118487,
			"-0.004": 26.7930096665,
			"-0.003": 31.2986866962,
			"-0.002": 33.7175947899,
			"-0.001": 32.4042837822,
			"0.0": 31.7169555417,
			"0.001": 29.2404769352,
			"0.002": 15.4683435962,
			"0.003": 14.4395750815,
			"0.004": 13.5437444572,
			"0.005": 8.97083002121,
			"0.006": 5.4163442763,
			"0.007": 5.25674784675,
			"0.008": 5.792661706,
			"0.009": 8.64823357639,
			"0.01": 10.2391665566,
			"0.011": 10.6869529156,
			"0.012": 5.68875424081,
			"0.013": 1.03848465298,
			"0.014": 0.0,
			"0.015": 0.0,
			"0.016": 0.0,
			"0.017": 0.0,
			"0.018": 0.0,
			"0.019": 0.0,
			"0.02": 0.0,
			"0.021": 0.0,
			"0.022": 0.0,
			"0.023": 0.0,
			"0.024": 0.0,
			"0.0": 0.0
		}
	}
}
