{
	 "smiles": "CC1(C)C2CC(C)(C)OC(=O)C12", 
	 "Tm": 354.65, 
	 "num_atms": 28, 
	 "gaussian": { 
		 "optdone": 1, 
		 "sigma_profile": "yes", 
		 "theory": "DFT", 
		 "functional": "B3LYP", 
		 "basiset": "6-31G**", 
		 "properties": { 
			 "R2extent": 2208.656, 
			 "electric_dipole_moment_norm": 4.53497734724, 
			 "electric_quadrupole_moment_norm": 12.6698984045, 
			 "total_energy": -541.154797111, 
			 "HOMO_LUMO_gap": 0.25918, 
			 "cosmo_polarized_energy": -10.91, 
			 "cosmo_cavitation_energy": 28.2, 
			 "cosmo_dispersion_energy": -20.04, 
			 "cosmo_repulsion_energy": 1.6, 
			 "cosmo_total_nonelectrostatic_energy": 9.76, 
			 "SMD_solvation_energy": 5.52 
		},
		"coords": [
			{
				"x": 0.2744136411,
				"y": 0.3897653486,
				"z": 3.6584856738,
				"element": "C" 
			},
			{
				"x": -0.3199539283,
				"y": -0.1136978836,
				"z": 2.352947556,
				"element": "C" 
			},
			{
				"x": -1.5137057627,
				"y": -1.0332555138,
				"z": 2.5467253788,
				"element": "C" 
			},
			{
				"x": -0.2313999676,
				"y": 0.81246821,
				"z": 1.1592509205,
				"element": "C" 
			},
			{
				"x": -1.2882529838,
				"y": 0.8071048589,
				"z": 0.0601774898,
				"element": "C" 
			},
			{
				"x": -0.8884267159,
				"y": -0.0817302213,
				"z": -1.131573738,
				"element": "C" 
			},
			{
				"x": -2.0834989023,
				"y": -0.3570225693,
				"z": -2.0426027186,
				"element": "C" 
			},
			{
				"x": 0.2804325798,
				"y": 0.511082161,
				"z": -1.928405092,
				"element": "C" 
			},
			{
				"x": -0.4928933119,
				"y": -1.4102591089,
				"z": -0.6541069226,
				"element": "O" 
			},
			{
				"x": 0.458271264,
				"y": -1.5527277965,
				"z": 0.3141915878,
				"element": "C" 
			},
			{
				"x": 1.0412784588,
				"y": -2.6070407434,
				"z": 0.4209010971,
				"element": "O" 
			},
			{
				"x": 0.6845399847,
				"y": -0.396349004,
				"z": 1.2332628081,
				"element": "C" 
			},
			{
				"x": 0.6184581514,
				"y": -0.4446596062,
				"z": 4.279959427,
				"element": "H" 
			},
			{
				"x": 1.1278027207,
				"y": 1.0531751172,
				"z": 3.4853179086,
				"element": "H" 
			},
			{
				"x": -0.4736236089,
				"y": 0.9487736054,
				"z": 4.2333996982,
				"element": "H" 
			},
			{
				"x": -2.3343218277,
				"y": -0.4992272721,
				"z": 3.0407682414,
				"element": "H" 
			},
			{
				"x": -1.892221769,
				"y": -1.4437007457,
				"z": 1.6083273296,
				"element": "H" 
			},
			{
				"x": -1.2357269578,
				"y": -1.8795194623,
				"z": 3.184058859,
				"element": "H" 
			},
			{
				"x": 0.2427021897,
				"y": 1.7726164854,
				"z": 1.3481703105,
				"element": "H" 
			},
			{
				"x": -1.4458469419,
				"y": 1.8269640337,
				"z": -0.3060808166,
				"element": "H" 
			},
			{
				"x": -2.2549682226,
				"y": 0.4664405892,
				"z": 0.4460704457,
				"element": "H" 
			},
			{
				"x": -1.7916541733,
				"y": -1.0077385777,
				"z": -2.871363595,
				"element": "H" 
			},
			{
				"x": -2.8848178863,
				"y": -0.850617133,
				"z": -1.4854716733,
				"element": "H" 
			},
			{
				"x": -2.4715197845,
				"y": 0.5798576104,
				"z": -2.4547522373,
				"element": "H" 
			},
			{
				"x": 0.6001818305,
				"y": -0.1919243304,
				"z": -2.7024555697,
				"element": "H" 
			},
			{
				"x": -0.0227467548,
				"y": 1.4453432339,
				"z": -2.4121135239,
				"element": "H" 
			},
			{
				"x": 1.1374171175,
				"y": 0.7260127671,
				"z": -1.28380434,
				"element": "H" 
			},
			{
				"x": 1.7318815611,
				"y": -0.2652340526,
				"z": 1.487415495,
				"element": "H" 
			}
		],
		 "valence_orbital": [ 
			{
				"type": "occ",
				"energy": -0.31689,
				"method": "rhf"
			},
			{
				"type": "occ",
				"energy": -0.29944,
				"method": "rhf"
			},
			{
				"type": "occ",
				"energy": -0.28479,
				"method": "rhf"
			},
			{
				"type": "occ",
				"energy": -0.27176,
				"method": "rhf"
			},
			{
				"type": "occ",
				"energy": -0.24906,
				"method": "rhf"
			},
			{
				"type": "unocc",
				"energy": 0.01012,
				"method": "rhf"
			},
			{
				"type": "unocc",
				"energy": 0.06737,
				"method": "rhf"
			},
			{
				"type": "unocc",
				"energy": 0.09053,
				"method": "rhf"
			},
			{
				"type": "unocc",
				"energy": 0.10017,
				"method": "rhf"
			},
			{
				"type": "unocc",
				"energy": 0.11078,
				"method": "rhf"
			}
		],
		"cosmo_sigma_profile": { 
			"-0.025": 0.0,
			"-0.024": 0.0,
			"-0.023": 0.0,
			"-0.022": 0.0,
			"-0.021": 0.0,
			"-0.02": 0.0,
			"-0.019": 0.0,
			"-0.018": 0.0,
			"-0.017": 0.0,
			"-0.016": 0.0,
			"-0.015": 0.0,
			"-0.014": 0.0,
			"-0.013": 0.0,
			"-0.012": 0.0,
			"-0.011": 0.0,
			"-0.01": 0.0,
			"-0.009": 0.0,
			"-0.008": 0.0,
			"-0.007": 0.0981537746612,
			"-0.006": 1.56015485173,
			"-0.005": 9.48344377438,
			"-0.004": 25.1431327778,
			"-0.003": 32.7532866361,
			"-0.002": 31.8061644057,
			"-0.001": 31.243509979,
			"0.0": 31.096468062,
			"0.001": 16.2437480202,
			"0.002": 4.63323634266,
			"0.003": 2.56188294628,
			"0.004": 1.67571694291,
			"0.005": 2.0062386447,
			"0.006": 2.04065047081,
			"0.007": 2.31946545294,
			"0.008": 2.07548229994,
			"0.009": 2.54522684835,
			"0.01": 1.78266822282,
			"0.011": 3.84657255011,
			"0.012": 6.23202838262,
			"0.013": 5.15605163346,
			"0.014": 2.08424800456,
			"0.015": 0.10166770328,
			"0.016": 0.0,
			"0.017": 0.0,
			"0.018": 0.0,
			"0.019": 0.0,
			"0.02": 0.0,
			"0.021": 0.0,
			"0.022": 0.0,
			"0.023": 0.0,
			"0.024": 0.0,
			"0.025": 0.0
		}
	}
}
