{
	 "smiles": "CC1=C(C)C=CS1", 
	 "Tm": 224.15, 
	 "num_atms": 15, 
	 "gaussian": { 
		 "optdone": 1, 
		 "sigma_profile": "yes", 
		 "theory": "DFT", 
		 "functional": "B3LYP", 
		 "basiset": "6-31G**", 
		 "properties": { 
			 "R2extent": 1190.8604, 
			 "electric_dipole_moment_norm": 1.03082773052, 
			 "electric_quadrupole_moment_norm": 5.5318683625, 
			 "total_energy": -631.642340225, 
			 "HOMO_LUMO_gap": 0.21077, 
			 "cosmo_polarized_energy": -3.36, 
			 "cosmo_cavitation_energy": 19.43, 
			 "cosmo_dispersion_energy": -15.01, 
			 "cosmo_repulsion_energy": 1.21, 
			 "cosmo_total_nonelectrostatic_energy": 5.63, 
			 "SMD_solvation_energy": 3.52 
		},
		"coords": [
			{
				"x": 0.2286174129,
				"y": 0.5398861809,
				"z": 2.9609497942,
				"element": "C" 
			},
			{
				"x": 0.5527682488,
				"y": 0.5683704175,
				"z": 1.4958270876,
				"element": "C" 
			},
			{
				"x": -0.1783769125,
				"y": 1.1152950899,
				"z": 0.4666905118,
				"element": "C" 
			},
			{
				"x": -1.5034028232,
				"y": 1.8197238874,
				"z": 0.6355843912,
				"element": "C" 
			},
			{
				"x": 0.4616031322,
				"y": 0.9430039945,
				"z": -0.8064893562,
				"element": "C" 
			},
			{
				"x": 1.6515718516,
				"y": 0.2791779582,
				"z": -0.7373031538,
				"element": "C" 
			},
			{
				"x": 2.0276049994,
				"y": -0.1579999785,
				"z": 0.8985851596,
				"element": "S" 
			},
			{
				"x": -0.7263471513,
				"y": 1.0384087976,
				"z": 3.145715335,
				"element": "H" 
			},
			{
				"x": 0.146937054,
				"y": -0.4842469178,
				"z": 3.3435283732,
				"element": "H" 
			},
			{
				"x": 0.9907367761,
				"y": 1.0518172114,
				"z": 3.5601054888,
				"element": "H" 
			},
			{
				"x": -1.4216613818,
				"y": 2.6975874523,
				"z": 1.2866806484,
				"element": "H" 
			},
			{
				"x": -2.2654606672,
				"y": 1.1624368955,
				"z": 1.0697575482,
				"element": "H" 
			},
			{
				"x": -1.8826429167,
				"y": 2.1646411338,
				"z": -0.3302390149,
				"element": "H" 
			},
			{
				"x": 0.0363919846,
				"y": 1.3076757894,
				"z": -1.7358367487,
				"element": "H" 
			},
			{
				"x": 2.3273603931,
				"y": 0.0209220877,
				"z": -1.5404560643,
				"element": "H" 
			}
		],
		 "valence_orbital": [ 
			{
				"type": "occ",
				"energy": -0.35341,
				"method": "rhf"
			},
			{
				"type": "occ",
				"energy": -0.34865,
				"method": "rhf"
			},
			{
				"type": "occ",
				"energy": -0.32649,
				"method": "rhf"
			},
			{
				"type": "occ",
				"energy": -0.23639,
				"method": "rhf"
			},
			{
				"type": "occ",
				"energy": -0.21476,
				"method": "rhf"
			},
			{
				"type": "unocc",
				"energy": -0.00399,
				"method": "rhf"
			},
			{
				"type": "unocc",
				"energy": 0.0364,
				"method": "rhf"
			},
			{
				"type": "unocc",
				"energy": 0.0764,
				"method": "rhf"
			},
			{
				"type": "unocc",
				"energy": 0.10039,
				"method": "rhf"
			},
			{
				"type": "unocc",
				"energy": 0.11235,
				"method": "rhf"
			}
		],
		"cosmo_sigma_profile": { 
			"-0.025": 0.0,
			"-0.024": 0.0,
			"-0.023": 0.0,
			"-0.022": 0.0,
			"-0.021": 0.0,
			"-0.02": 0.0,
			"-0.019": 0.0,
			"-0.018": 0.0,
			"-0.017": 0.0,
			"-0.016": 0.0,
			"-0.015": 0.0,
			"-0.014": 0.0,
			"-0.013": 0.0,
			"-0.012": 0.0,
			"-0.011": 0.0,
			"-0.01": 0.0,
			"-0.009": 0.0,
			"-0.008": 0.710837226413,
			"-0.007": 2.20745867183,
			"-0.006": 2.53305161998,
			"-0.005": 4.89519002844,
			"-0.004": 14.8632671365,
			"-0.003": 18.0002789803,
			"-0.002": 17.822186932,
			"-0.001": 16.9934282308,
			"0.0": 17.2034913496,
			"0.001": 10.5933084647,
			"0.002": 8.781077374,
			"0.003": 8.3735824139,
			"0.004": 9.01775106907,
			"0.005": 11.1054393458,
			"0.006": 10.2345089455,
			"0.007": 2.6343891283,
			"0.008": 0.0345491538572,
			"0.009": 0.0,
			"0.01": 0.0,
			"0.011": 0.0,
			"0.012": 0.0,
			"0.013": 0.0,
			"0.014": 0.0,
			"0.015": 0.0,
			"0.016": 0.0,
			"0.017": 0.0,
			"0.018": 0.0,
			"0.019": 0.0,
			"0.02": 0.0,
			"0.021": 0.0,
			"0.022": 0.0,
			"0.023": 0.0,
			"0.024": 0.0,
			"0.025": 0.0
		}
	}
}
