{
	 "smiles": "CCN1C(C)=CC(C(=O)CCl)=C1C", 
	 "Tm": 363.15, 
	 "num_atms": 27, 
	 "gaussian": { 
		 "optdone": 1, 
		 "sigma_profile": "yes", 
		 "theory": "DFT", 
		 "functional": "B3LYP", 
		 "basiset": "6-31G**", 
		 "properties": { 
			 "R2extent": 4874.0362, 
			 "electric_dipole_moment_norm": 7.77224333767, 
			 "electric_quadrupole_moment_norm": 22.7236264533, 
			 "total_energy": -979.676160465, 
			 "HOMO_LUMO_gap": 0.18331, 
			 "cosmo_polarized_energy": -16.64, 
			 "cosmo_cavitation_energy": 31.08, 
			 "cosmo_dispersion_energy": -22.25, 
			 "cosmo_repulsion_energy": 1.77, 
			 "cosmo_total_nonelectrostatic_energy": 10.59, 
			 "SMD_solvation_energy": 5.48 
		},
		"coords": [
			{
				"x": -0.9296418787,
				"y": -1.5226474374,
				"z": -1.5038563093,
				"element": "C" 
			},
			{
				"x": -0.2450803348,
				"y": -1.8126966501,
				"z": -0.1634596654,
				"element": "C" 
			},
			{
				"x": -0.0756663932,
				"y": -0.6247464859,
				"z": 0.6705894071,
				"element": "N" 
			},
			{
				"x": -1.0332926989,
				"y": -0.1475986579,
				"z": 1.5674078219,
				"element": "C" 
			},
			{
				"x": -2.318478378,
				"y": -0.8636177215,
				"z": 1.8373932628,
				"element": "C" 
			},
			{
				"x": -0.5452049001,
				"y": 1.0101498465,
				"z": 2.1068169046,
				"element": "C" 
			},
			{
				"x": 0.7439093747,
				"y": 1.266862655,
				"z": 1.5373900651,
				"element": "C" 
			},
			{
				"x": 1.5129180869,
				"y": 2.4523250971,
				"z": 1.9563786985,
				"element": "C" 
			},
			{
				"x": 1.059703047,
				"y": 3.2363709904,
				"z": 2.7738015463,
				"element": "O" 
			},
			{
				"x": 2.9035305663,
				"y": 2.680694163,
				"z": 1.3406106911,
				"element": "C" 
			},
			{
				"x": 3.7316607185,
				"y": 4.1377339349,
				"z": 1.9799069381,
				"element": "Cl" 
			},
			{
				"x": 1.008205442,
				"y": 0.2264260362,
				"z": 0.6376023284,
				"element": "C" 
			},
			{
				"x": 2.1803160274,
				"y": -0.088943065,
				"z": -0.2432653671,
				"element": "C" 
			},
			{
				"x": -1.9251076501,
				"y": -1.095962863,
				"z": -1.3524419339,
				"element": "H" 
			},
			{
				"x": -1.0371357733,
				"y": -2.4472712445,
				"z": -2.0801009678,
				"element": "H" 
			},
			{
				"x": -0.3490699801,
				"y": -0.8132785986,
				"z": -2.1007577068,
				"element": "H" 
			},
			{
				"x": 0.7377386328,
				"y": -2.2621532462,
				"z": -0.3271159742,
				"element": "H" 
			},
			{
				"x": -0.8281945762,
				"y": -2.5405736492,
				"z": 0.407021421,
				"element": "H" 
			},
			{
				"x": -2.9415095394,
				"y": -0.976241863,
				"z": 0.9415419366,
				"element": "H" 
			},
			{
				"x": -2.1617022086,
				"y": -1.8667218616,
				"z": 2.2546933743,
				"element": "H" 
			},
			{
				"x": -2.8957870748,
				"y": -0.2934593219,
				"z": 2.5685873504,
				"element": "H" 
			},
			{
				"x": -1.0252620271,
				"y": 1.6362053384,
				"z": 2.8438111911,
				"element": "H" 
			},
			{
				"x": 3.5522327933,
				"y": 1.8251414588,
				"z": 1.5404797613,
				"element": "H" 
			},
			{
				"x": 2.818000181,
				"y": 2.8080178871,
				"z": 0.258750599,
				"element": "H" 
			},
			{
				"x": 2.896357952,
				"y": 0.7293984751,
				"z": -0.2663713611,
				"element": "H" 
			},
			{
				"x": 1.8750707823,
				"y": -0.2745260178,
				"z": -1.2792191848,
				"element": "H" 
			},
			{
				"x": 2.7207898091,
				"y": -0.981187199,
				"z": 0.0999051728,
				"element": "H" 
			}
		],
		 "valence_orbital": [ 
			{
				"type": "occ",
				"energy": -0.28667,
				"method": "rhf"
			},
			{
				"type": "occ",
				"energy": -0.28606,
				"method": "rhf"
			},
			{
				"type": "occ",
				"energy": -0.24269,
				"method": "rhf"
			},
			{
				"type": "occ",
				"energy": -0.24086,
				"method": "rhf"
			},
			{
				"type": "occ",
				"energy": -0.21132,
				"method": "rhf"
			},
			{
				"type": "unocc",
				"energy": -0.02801,
				"method": "rhf"
			},
			{
				"type": "unocc",
				"energy": 0.03316,
				"method": "rhf"
			},
			{
				"type": "unocc",
				"energy": 0.03582,
				"method": "rhf"
			},
			{
				"type": "unocc",
				"energy": 0.06447,
				"method": "rhf"
			},
			{
				"type": "unocc",
				"energy": 0.08625,
				"method": "rhf"
			}
		],
		"cosmo_sigma_profile": { 
			"-0.025": 0.0,
			"-0.024": 0.0,
			"-0.023": 0.0,
			"-0.022": 0.0,
			"-0.021": 0.0,
			"-0.02": 0.0,
			"-0.019": 0.0,
			"-0.018": 0.0,
			"-0.017": 0.0,
			"-0.016": 0.0,
			"-0.015": 0.0,
			"-0.014": 0.0,
			"-0.013": 0.0,
			"-0.012": 0.0,
			"-0.011": 0.0,
			"-0.01": 0.00479981344985,
			"-0.009": 2.08946156503,
			"-0.008": 5.25013210265,
			"-0.007": 5.54096066886,
			"-0.006": 10.5539338192,
			"-0.005": 19.3481013252,
			"-0.004": 27.0275892458,
			"-0.003": 25.5060662424,
			"-0.002": 21.9177576859,
			"-0.001": 21.1829270004,
			"0.0": 19.1430321548,
			"0.001": 11.1613564441,
			"0.002": 7.50507159311,
			"0.003": 8.15553625628,
			"0.004": 9.5491925432,
			"0.005": 10.4294577632,
			"0.006": 15.2457316496,
			"0.007": 7.47862352075,
			"0.008": 3.03132913995,
			"0.009": 2.04005941688,
			"0.01": 2.11618771417,
			"0.011": 3.05511462631,
			"0.012": 4.1167102949,
			"0.013": 3.60424009232,
			"0.014": 1.78384785022,
			"0.015": 0.240991496261,
			"0.016": 0.0,
			"0.017": 0.0,
			"0.018": 0.0,
			"0.019": 0.0,
			"0.02": 0.0,
			"0.021": 0.0,
			"0.022": 0.0,
			"0.023": 0.0,
			"0.024": 0.0,
			"0.025": 0.0
		}
	}
}
