{
	 "smiles": "[O-][N+](=O)C1=C(Cl)C=CC(I)=C1", 
	 "Tm": 345.15, 
	 "num_atms": 14, 
	 "gaussian": { 
		 "optdone": 1, 
		 "sigma_profile": "yes", 
		 "theory": "DFT", 
		 "functional": "B3LYP", 
		 "basiset": "6-31G**", 
		 "properties": { 
			 "R2extent": 2091.3291, 
			 "electric_dipole_moment_norm": 4.06559940107, 
			 "electric_quadrupole_moment_norm": 5.30022733852, 
			 "total_energy": -907.105491093, 
			 "HOMO_LUMO_gap": 0.16166, 
			 "cosmo_polarized_energy": -8.39, 
			 "cosmo_cavitation_energy": 24.44, 
			 "cosmo_dispersion_energy": -19.52, 
			 "cosmo_repulsion_energy": 1.54, 
			 "cosmo_total_nonelectrostatic_energy": 6.46, 
			 "SMD_solvation_energy": 5.32 
		},
		"coords": [
			{
				"x": -0.180692668,
				"y": 2.2651685699,
				"z": -1.9773059314,
				"element": "O" 
			},
			{
				"x": -0.2014506494,
				"y": 1.0405124795,
				"z": -1.9419915977,
				"element": "N" 
			},
			{
				"x": -0.3622029223,
				"y": 0.3016131942,
				"z": -2.9124799543,
				"element": "O" 
			},
			{
				"x": -0.0600855957,
				"y": 0.3829845927,
				"z": -0.6275838606,
				"element": "C" 
			},
			{
				"x": 0.7067856928,
				"y": 0.9152478089,
				"z": 0.4192899527,
				"element": "C" 
			},
			{
				"x": 1.6637829652,
				"y": 2.3613271262,
				"z": 0.2844321528,
				"element": "Cl" 
			},
			{
				"x": 0.754412596,
				"y": 0.2157679095,
				"z": 1.6289790218,
				"element": "C" 
			},
			{
				"x": 0.0479439815,
				"y": -0.9713260328,
				"z": 1.8025385005,
				"element": "C" 
			},
			{
				"x": -0.7058111772,
				"y": -1.4893300506,
				"z": 0.7456420975,
				"element": "C" 
			},
			{
				"x": -1.7734327916,
				"y": -3.2949913969,
				"z": 0.9910828124,
				"element": "I" 
			},
			{
				"x": -0.7516481271,
				"y": -0.8208993433,
				"z": -0.4727278098,
				"element": "C" 
			},
			{
				"x": 1.3570075302,
				"y": 0.6124400124,
				"z": 2.438305393,
				"element": "H" 
			},
			{
				"x": 0.0946809519,
				"y": -1.4877595897,
				"z": 2.754472764,
				"element": "H" 
			},
			{
				"x": -1.3105897863,
				"y": -1.2018552801,
				"z": -1.3174535409,
				"element": "H" 
			}
		],
		 "valence_orbital": [ 
			{
				"type": "occ",
				"energy": -0.30939,
				"method": "rhf"
			},
			{
				"type": "occ",
				"energy": -0.30726,
				"method": "rhf"
			},
			{
				"type": "occ",
				"energy": -0.29184,
				"method": "rhf"
			},
			{
				"type": "occ",
				"energy": -0.28912,
				"method": "rhf"
			},
			{
				"type": "occ",
				"energy": -0.26172,
				"method": "rhf"
			},
			{
				"type": "unocc",
				"energy": -0.10006,
				"method": "rhf"
			},
			{
				"type": "unocc",
				"energy": -0.06093,
				"method": "rhf"
			},
			{
				"type": "unocc",
				"energy": -0.05277,
				"method": "rhf"
			},
			{
				"type": "unocc",
				"energy": -0.02869,
				"method": "rhf"
			},
			{
				"type": "unocc",
				"energy": 0.00458,
				"method": "rhf"
			}
		],
		"cosmo_sigma_profile": { 
			"-0.025": 0.0,
			"-0.024": 0.0,
			"-0.023": 0.0,
			"-0.022": 0.0,
			"-0.021": 0.0,
			"-0.02": 0.0,
			"-0.019": 0.0,
			"-0.018": 0.0,
			"-0.017": 0.0,
			"-0.016": 0.0,
			"-0.015": 0.0,
			"-0.014": 0.0,
			"-0.013": 0.0,
			"-0.012": 0.0,
			"-0.011": 0.0,
			"-0.01": 0.0415134265058,
			"-0.009": 3.31094405281,
			"-0.008": 7.95587797235,
			"-0.007": 8.63331114327,
			"-0.006": 7.91212535345,
			"-0.005": 7.43702885228,
			"-0.004": 9.33977189945,
			"-0.003": 11.4077121779,
			"-0.002": 17.011717027,
			"-0.001": 20.2389375605,
			"0.0": 21.8089249627,
			"0.001": 13.6317935933,
			"0.002": 14.1890478049,
			"0.003": 20.7456196528,
			"0.004": 9.99000422441,
			"0.005": 4.21194040134,
			"0.006": 5.51971399183,
			"0.007": 10.7547194302,
			"0.008": 6.98176234629,
			"0.009": 3.08755575085,
			"0.01": 0.459248125941,
			"0.011": 0.0,
			"0.012": 0.0,
			"0.013": 0.0,
			"0.014": 0.0,
			"0.015": 0.0,
			"0.016": 0.0,
			"0.017": 0.0,
			"0.018": 0.0,
			"0.019": 0.0,
			"0.02": 0.0,
			"0.021": 0.0,
			"0.022": 0.0,
			"0.023": 0.0,
			"0.024": 0.0,
			"0.025": 0.0
		}
	}
}
