{
	 "smiles": "NCC1=CC=CC=C1", 
	 "Tm": 283.15, 
	 "num_atms": 17, 
	 "gaussian": { 
		 "optdone": 1, 
		 "sigma_profile": "yes", 
		 "theory": "DFT", 
		 "functional": "B3LYP", 
		 "basiset": "6-31G**", 
		 "properties": { 
			 "R2extent": 1169.9102, 
			 "electric_dipole_moment_norm": 1.33499371534, 
			 "electric_quadrupole_moment_norm": 5.7279519167, 
			 "total_energy": -326.916460544, 
			 "HOMO_LUMO_gap": 0.22525, 
			 "cosmo_polarized_energy": -6.87, 
			 "cosmo_cavitation_energy": 20.24, 
			 "cosmo_dispersion_energy": -14.89, 
			 "cosmo_repulsion_energy": 1.25, 
			 "cosmo_total_nonelectrostatic_energy": 6.6, 
			 "SMD_solvation_energy": 2.02 
		},
		"coords": [
			{
				"x": 0.5192422415,
				"y": -2.4487868262,
				"z": -0.9597118594,
				"element": "N" 
			},
			{
				"x": -0.0681467627,
				"y": -1.0982932546,
				"z": -0.9963847279,
				"element": "C" 
			},
			{
				"x": 0.3224353277,
				"y": -0.1843067367,
				"z": 0.1526296238,
				"element": "C" 
			},
			{
				"x": 1.4666187692,
				"y": 0.6215099376,
				"z": 0.0716497886,
				"element": "C" 
			},
			{
				"x": 1.8618949869,
				"y": 1.4168266028,
				"z": 1.1482125125,
				"element": "C" 
			},
			{
				"x": 1.1134672099,
				"y": 1.4205970983,
				"z": 2.3271440544,
				"element": "C" 
			},
			{
				"x": -0.0319168316,
				"y": 0.6271909533,
				"z": 2.4199388347,
				"element": "C" 
			},
			{
				"x": -0.4223114203,
				"y": -0.1660839871,
				"z": 1.3400919402,
				"element": "C" 
			},
			{
				"x": 0.263501415,
				"y": -2.8985978942,
				"z": -0.0823397822,
				"element": "H" 
			},
			{
				"x": 1.5344248387,
				"y": -2.3690587777,
				"z": -0.9360102025,
				"element": "H" 
			},
			{
				"x": -1.1579152114,
				"y": -1.2130876389,
				"z": -1.0220894627,
				"element": "H" 
			},
			{
				"x": 0.2213774684,
				"y": -0.638298716,
				"z": -1.9482317828,
				"element": "H" 
			},
			{
				"x": 2.0495918547,
				"y": 0.629609013,
				"z": -0.8472075123,
				"element": "H" 
			},
			{
				"x": 2.7494457272,
				"y": 2.038156458,
				"z": 1.0650279645,
				"element": "H" 
			},
			{
				"x": 1.4170472874,
				"y": 2.0417910569,
				"z": 3.1649363202,
				"element": "H" 
			},
			{
				"x": -0.6245422606,
				"y": 0.6313442145,
				"z": 3.3307050239,
				"element": "H" 
			},
			{
				"x": -1.32061464,
				"y": -0.775611503,
				"z": 1.4159392671,
				"element": "H" 
			}
		],
		 "valence_orbital": [ 
			{
				"type": "occ",
				"energy": -0.34724,
				"method": "rhf"
			},
			{
				"type": "occ",
				"energy": -0.33555,
				"method": "rhf"
			},
			{
				"type": "occ",
				"energy": -0.25403,
				"method": "rhf"
			},
			{
				"type": "occ",
				"energy": -0.24967,
				"method": "rhf"
			},
			{
				"type": "occ",
				"energy": -0.22736,
				"method": "rhf"
			},
			{
				"type": "unocc",
				"energy": -0.00211,
				"method": "rhf"
			},
			{
				"type": "unocc",
				"energy": -0.0016,
				"method": "rhf"
			},
			{
				"type": "unocc",
				"energy": 0.087,
				"method": "rhf"
			},
			{
				"type": "unocc",
				"energy": 0.10259,
				"method": "rhf"
			},
			{
				"type": "unocc",
				"energy": 0.12574,
				"method": "rhf"
			}
		],
		"cosmo_sigma_profile": { 
			"-0.025": 0.0,
			"-0.024": 0.0,
			"-0.023": 0.0,
			"-0.022": 0.0,
			"-0.021": 0.0,
			"-0.02": 0.0,
			"-0.019": 0.0,
			"-0.018": 0.0,
			"-0.017": 0.0,
			"-0.016": 0.0,
			"-0.015": 0.0,
			"-0.014": 0.0,
			"-0.013": 0.0,
			"-0.012": 0.0,
			"-0.011": 0.0,
			"-0.01": 0.119692498273,
			"-0.009": 2.04059700519,
			"-0.008": 2.80802414577,
			"-0.007": 2.44707384091,
			"-0.006": 4.79029318663,
			"-0.005": 15.6279115555,
			"-0.004": 18.6291065619,
			"-0.003": 16.614884621,
			"-0.002": 12.6065181594,
			"-0.001": 10.7828432074,
			"0.0": 9.82711496484,
			"0.001": 8.14578294922,
			"0.002": 8.46494104773,
			"0.003": 7.74169916038,
			"0.004": 8.74327572175,
			"0.005": 8.825791108,
			"0.006": 9.2712742643,
			"0.007": 3.28075427375,
			"0.008": 0.837784833084,
			"0.009": 0.89688719769,
			"0.01": 0.880574420102,
			"0.011": 0.637672698723,
			"0.012": 0.703942899004,
			"0.013": 0.38036508225,
			"0.014": 0.860221810561,
			"0.015": 0.706589772515,
			"0.016": 0.607340698878,
			"0.017": 0.636911528828,
			"0.018": 0.654539024846,
			"0.019": 0.647174166003,
			"0.02": 0.389721211761,
			"0.021": 0.01918796679,
			"0.022": 0.0,
			"0.023": 0.0,
			"0.024": 0.0,
			"0.025": 0.0
		}
	}
}
