{
	 "smiles": "CNC1=CC=C2C=C3C=CC4=C(COCN4)C3=NC2=C1CO", 
	 "Tm": 378.15, 
	 "num_atms": 39, 
	 "gaussian": { 
		 "optdone": 1, 
		 "sigma_profile": "yes", 
		 "theory": "DFT", 
		 "functional": "B3LYP", 
		 "basiset": "6-31G**", 
		 "properties": { 
			 "R2extent": 8239.0489, 
			 "electric_dipole_moment_norm": 1.52070208456, 
			 "electric_quadrupole_moment_norm": 22.4345743644, 
			 "total_energy": -972.752856586, 
			 "HOMO_LUMO_gap": 0.12177, 
			 "cosmo_polarized_energy": -18.72, 
			 "cosmo_cavitation_energy": 40.5, 
			 "cosmo_dispersion_energy": -30.1, 
			 "cosmo_repulsion_energy": 2.25, 
			 "cosmo_total_nonelectrostatic_energy": 12.66, 
			 "SMD_solvation_energy": 3.71 
		},
		"coords": [
			{
				"x": 4.3809725661,
				"y": -1.9723386714,
				"z": 2.621141727,
				"element": "C" 
			},
			{
				"x": 3.3735952318,
				"y": -1.9198545694,
				"z": 1.5811435181,
				"element": "N" 
			},
			{
				"x": 2.3530843369,
				"y": -0.9905274383,
				"z": 1.5666328216,
				"element": "C" 
			},
			{
				"x": 2.1325410167,
				"y": -0.1355498002,
				"z": 2.6973984634,
				"element": "C" 
			},
			{
				"x": 1.11368037,
				"y": 0.7754754177,
				"z": 2.6979813821,
				"element": "C" 
			},
			{
				"x": 0.2459468621,
				"y": 0.9077715637,
				"z": 1.5780411356,
				"element": "C" 
			},
			{
				"x": -0.805623803,
				"y": 1.8261129579,
				"z": 1.5384946196,
				"element": "C" 
			},
			{
				"x": -1.6338174921,
				"y": 1.9107307342,
				"z": 0.419562455,
				"element": "C" 
			},
			{
				"x": -2.7242318316,
				"y": 2.8255330414,
				"z": 0.313283391,
				"element": "C" 
			},
			{
				"x": -3.4960337153,
				"y": 2.8646116273,
				"z": -0.8130309474,
				"element": "C" 
			},
			{
				"x": -3.220719217,
				"y": 1.9886382765,
				"z": -1.9128637772,
				"element": "C" 
			},
			{
				"x": -2.1828808712,
				"y": 1.0718011742,
				"z": -1.8443402258,
				"element": "C" 
			},
			{
				"x": -1.9333628039,
				"y": 0.1234563413,
				"z": -2.9938200444,
				"element": "C" 
			},
			{
				"x": -3.0012480928,
				"y": 0.1328200669,
				"z": -3.9473592174,
				"element": "O" 
			},
			{
				"x": -3.4332904939,
				"y": 1.432465244,
				"z": -4.2421007105,
				"element": "C" 
			},
			{
				"x": -4.0165754161,
				"y": 2.0383789245,
				"z": -3.052331047,
				"element": "N" 
			},
			{
				"x": -1.3591209554,
				"y": 1.0128217306,
				"z": -0.6795411787,
				"element": "C" 
			},
			{
				"x": -0.3538452246,
				"y": 0.1210587767,
				"z": -0.6551274673,
				"element": "N" 
			},
			{
				"x": 0.4494462553,
				"y": 0.0513065976,
				"z": 0.4283431819,
				"element": "C" 
			},
			{
				"x": 1.5143362239,
				"y": -0.9009446735,
				"z": 0.4485515338,
				"element": "C" 
			},
			{
				"x": 1.6873499506,
				"y": -1.8504543871,
				"z": -0.705200307,
				"element": "C" 
			},
			{
				"x": 3.052047832,
				"y": -1.8042897032,
				"z": -1.1844509637,
				"element": "O" 
			},
			{
				"x": 5.0860466096,
				"y": -2.7707417244,
				"z": 2.3782792654,
				"element": "H" 
			},
			{
				"x": 3.935503776,
				"y": -2.213708093,
				"z": 3.5928518453,
				"element": "H" 
			},
			{
				"x": 4.9508633292,
				"y": -1.0363166262,
				"z": 2.7312997653,
				"element": "H" 
			},
			{
				"x": 3.6796923973,
				"y": -2.1786291727,
				"z": 0.6489980815,
				"element": "H" 
			},
			{
				"x": 2.7859899421,
				"y": -0.2118702041,
				"z": 3.5587010997,
				"element": "H" 
			},
			{
				"x": 0.9568925658,
				"y": 1.4189952674,
				"z": 3.5604140627,
				"element": "H" 
			},
			{
				"x": -0.97955777,
				"y": 2.4803559007,
				"z": 2.3913286527,
				"element": "H" 
			},
			{
				"x": -2.9302016971,
				"y": 3.4951975852,
				"z": 1.1445641377,
				"element": "H" 
			},
			{
				"x": -4.3285136052,
				"y": 3.5593831727,
				"z": -0.8922043591,
				"element": "H" 
			},
			{
				"x": -0.9760603786,
				"y": 0.3532430713,
				"z": -3.4893921659,
				"element": "H" 
			},
			{
				"x": -1.8640349646,
				"y": -0.9052198096,
				"z": -2.6307605114,
				"element": "H" 
			},
			{
				"x": -2.5875807342,
				"y": 2.0371901098,
				"z": -4.6242279701,
				"element": "H" 
			},
			{
				"x": -4.1993571814,
				"y": 1.3578979857,
				"z": -5.0188031296,
				"element": "H" 
			},
			{
				"x": -4.514840681,
				"y": 2.9057830124,
				"z": -3.2023290089,
				"element": "H" 
			},
			{
				"x": 1.4554981134,
				"y": -2.8766726325,
				"z": -0.3737652031,
				"element": "H" 
			},
			{
				"x": 0.9888208492,
				"y": -1.57332259,
				"z": -1.4978825861,
				"element": "H" 
			},
			{
				"x": 3.1249887011,
				"y": -2.449788484,
				"z": -1.899280319,
				"element": "H" 
			}
		],
		 "valence_orbital": [ 
			{
				"type": "occ",
				"energy": -0.23932,
				"method": "rhf"
			},
			{
				"type": "occ",
				"energy": -0.23884,
				"method": "rhf"
			},
			{
				"type": "occ",
				"energy": -0.23227,
				"method": "rhf"
			},
			{
				"type": "occ",
				"energy": -0.19003,
				"method": "rhf"
			},
			{
				"type": "occ",
				"energy": -0.17843,
				"method": "rhf"
			},
			{
				"type": "unocc",
				"energy": -0.05666,
				"method": "rhf"
			},
			{
				"type": "unocc",
				"energy": 0.00037,
				"method": "rhf"
			},
			{
				"type": "unocc",
				"energy": 0.01502,
				"method": "rhf"
			},
			{
				"type": "unocc",
				"energy": 0.04163,
				"method": "rhf"
			},
			{
				"type": "unocc",
				"energy": 0.07082,
				"method": "rhf"
			}
		],
		"cosmo_sigma_profile": { 
			"-0.025": 0.0,
			"-0.024": 0.0,
			"-0.023": 0.0,
			"-0.022": 0.0,
			"-0.021": 0.0,
			"-0.02": 0.0,
			"-0.019": 0.0,
			"-0.018": 0.0,
			"-0.017": 0.0,
			"-0.016": 0.558687232651,
			"-0.015": 1.12723632111,
			"-0.014": 1.13351113064,
			"-0.013": 2.7565538103,
			"-0.012": 2.39286195251,
			"-0.011": 2.39840402566,
			"-0.01": 1.82421525102,
			"-0.009": 2.23808019259,
			"-0.008": 3.45271015351,
			"-0.007": 8.44269110101,
			"-0.006": 16.144790266,
			"-0.005": 18.195473726,
			"-0.004": 27.0637382152,
			"-0.003": 28.2289434974,
			"-0.002": 22.2326446856,
			"-0.001": 21.9460681554,
			"0.0": 14.6271707866,
			"0.001": 13.3561078301,
			"0.002": 15.8226400852,
			"0.003": 26.2069226478,
			"0.004": 30.2770170861,
			"0.005": 17.8935184367,
			"0.006": 8.90598588301,
			"0.007": 8.48497500502,
			"0.008": 5.78087732214,
			"0.009": 5.34842303505,
			"0.01": 3.95093537268,
			"0.011": 3.33777682965,
			"0.012": 3.95070191778,
			"0.013": 1.7378463673,
			"0.014": 1.06518325216,
			"0.015": 0.0694735250463,
			"0.016": 0.0,
			"0.017": 0.0,
			"0.018": 0.0,
			"0.019": 0.0,
			"0.02": 0.0,
			"0.021": 0.0,
			"0.022": 0.0,
			"0.023": 0.0,
			"0.024": 0.0,
			"0.025": 0.0
		}
	}
}
