{
	 "smiles": "CN1CCN(CC1)C1=CC(=C(N)C=C1)C(F)(F)F", 
	 "Tm": 361.15, 
	 "num_atms": 34, 
	 "gaussian": { 
		 "optdone": 1, 
		 "sigma_profile": "yes", 
		 "theory": "DFT", 
		 "functional": "B3LYP", 
		 "basiset": "6-31G**", 
		 "properties": { 
			 "R2extent": 5580.2657, 
			 "electric_dipole_moment_norm": 2.9708490066, 
			 "electric_quadrupole_moment_norm": 16.4432101303, 
			 "total_energy": -930.683589877, 
			 "HOMO_LUMO_gap": 0.15527, 
			 "cosmo_polarized_energy": -10.62, 
			 "cosmo_cavitation_energy": 35.67, 
			 "cosmo_dispersion_energy": -25.49, 
			 "cosmo_repulsion_energy": 1.88, 
			 "cosmo_total_nonelectrostatic_energy": 12.06, 
			 "SMD_solvation_energy": 2.68 
		},
		"coords": [
			{
				"x": 3.1915551869,
				"y": 3.6587601629,
				"z": 2.1691545,
				"element": "C" 
			},
			{
				"x": 2.0069163219,
				"y": 2.8118615203,
				"z": 2.2526440749,
				"element": "N" 
			},
			{
				"x": 2.2618030648,
				"y": 1.3938530695,
				"z": 1.9708453444,
				"element": "C" 
			},
			{
				"x": 2.3876197435,
				"y": 1.095534319,
				"z": 0.4633672502,
				"element": "C" 
			},
			{
				"x": 1.2293792718,
				"y": 1.5727640373,
				"z": -0.2951071915,
				"element": "N" 
			},
			{
				"x": 0.9929734573,
				"y": 3.0023816139,
				"z": -0.0465974959,
				"element": "C" 
			},
			{
				"x": 0.8692699898,
				"y": 3.2933659271,
				"z": 1.4632562881,
				"element": "C" 
			},
			{
				"x": 0.1248531099,
				"y": 0.7202787783,
				"z": -0.5082088652,
				"element": "C" 
			},
			{
				"x": -0.007492986,
				"y": -0.5367392472,
				"z": 0.0988132517,
				"element": "C" 
			},
			{
				"x": -1.0781233907,
				"y": -1.3917455112,
				"z": -0.1913291531,
				"element": "C" 
			},
			{
				"x": -2.0923814102,
				"y": -1.0095299442,
				"z": -1.0915451895,
				"element": "C" 
			},
			{
				"x": -3.1511740626,
				"y": -1.8499053663,
				"z": -1.4398304771,
				"element": "N" 
			},
			{
				"x": -1.9595483126,
				"y": 0.2538635482,
				"z": -1.694424586,
				"element": "C" 
			},
			{
				"x": -0.8835271124,
				"y": 1.0849926039,
				"z": -1.4254788114,
				"element": "C" 
			},
			{
				"x": -1.1274382295,
				"y": -2.7419015832,
				"z": 0.4615560826,
				"element": "C" 
			},
			{
				"x": -0.1730725641,
				"y": -2.9078375153,
				"z": 1.400592824,
				"element": "F" 
			},
			{
				"x": -0.9879512142,
				"y": -3.751440981,
				"z": -0.4289984509,
				"element": "F" 
			},
			{
				"x": -2.3263477946,
				"y": -2.9623577757,
				"z": 1.0849496553,
				"element": "F" 
			},
			{
				"x": 2.9284181988,
				"y": 4.6741487299,
				"z": 2.484645875,
				"element": "H" 
			},
			{
				"x": 3.9512293745,
				"y": 3.2813835099,
				"z": 2.862105272,
				"element": "H" 
			},
			{
				"x": 3.6605554366,
				"y": 3.7329554419,
				"z": 1.1717076762,
				"element": "H" 
			},
			{
				"x": 3.1711605666,
				"y": 1.0852619313,
				"z": 2.4998557445,
				"element": "H" 
			},
			{
				"x": 1.4276549915,
				"y": 0.8141576903,
				"z": 2.3872978963,
				"element": "H" 
			},
			{
				"x": 2.5369532322,
				"y": 0.0292559558,
				"z": 0.2752168377,
				"element": "H" 
			},
			{
				"x": 3.2732401958,
				"y": 1.6091850683,
				"z": 0.0641960038,
				"element": "H" 
			},
			{
				"x": 0.0883433574,
				"y": 3.3275038988,
				"z": -0.5636362797,
				"element": "H" 
			},
			{
				"x": 1.8298920189,
				"y": 3.5692774153,
				"z": -0.4763482947,
				"element": "H" 
			},
			{
				"x": -0.036781689,
				"y": 2.7964101407,
				"z": 1.8366470884,
				"element": "H" 
			},
			{
				"x": 0.748538716,
				"y": 4.3696650854,
				"z": 1.6355757222,
				"element": "H" 
			},
			{
				"x": 0.719025376,
				"y": -0.8780746179,
				"z": 0.8232019312,
				"element": "H" 
			},
			{
				"x": -3.4241918203,
				"y": -2.5188892682,
				"z": -0.7339629465,
				"element": "H" 
			},
			{
				"x": -3.947993212,
				"y": -1.3701765052,
				"z": -1.8345860698,
				"element": "H" 
			},
			{
				"x": -2.712313978,
				"y": 0.574807225,
				"z": -2.4105184181,
				"element": "H" 
			},
			{
				"x": -0.8124438343,
				"y": 2.0292306423,
				"z": -1.9555570889,
				"element": "H" 
			}
		],
		 "valence_orbital": [ 
			{
				"type": "occ",
				"energy": -0.32119,
				"method": "rhf"
			},
			{
				"type": "occ",
				"energy": -0.25893,
				"method": "rhf"
			},
			{
				"type": "occ",
				"energy": -0.2541,
				"method": "rhf"
			},
			{
				"type": "occ",
				"energy": -0.2098,
				"method": "rhf"
			},
			{
				"type": "occ",
				"energy": -0.16971,
				"method": "rhf"
			},
			{
				"type": "unocc",
				"energy": -0.01444,
				"method": "rhf"
			},
			{
				"type": "unocc",
				"energy": 0.01829,
				"method": "rhf"
			},
			{
				"type": "unocc",
				"energy": 0.07628,
				"method": "rhf"
			},
			{
				"type": "unocc",
				"energy": 0.08985,
				"method": "rhf"
			},
			{
				"type": "unocc",
				"energy": 0.10054,
				"method": "rhf"
			}
		],
		"cosmo_sigma_profile": { 
			"-0.025": 0.0,
			"-0.024": 0.0,
			"-0.023": 0.0,
			"-0.022": 0.0,
			"-0.021": 0.0,
			"-0.02": 0.0,
			"-0.019": 0.0,
			"-0.018": 0.0,
			"-0.017": 0.0,
			"-0.016": 0.0,
			"-0.015": 0.0,
			"-0.014": 0.0,
			"-0.013": 0.477671744809,
			"-0.012": 1.37512136792,
			"-0.011": 1.50186580413,
			"-0.01": 2.75858694924,
			"-0.009": 2.74740062516,
			"-0.008": 2.49416147342,
			"-0.007": 3.57240941624,
			"-0.006": 6.56690315877,
			"-0.005": 9.02088593704,
			"-0.004": 20.6687076555,
			"-0.003": 32.2534746212,
			"-0.002": 30.1671685933,
			"-0.001": 25.8769005692,
			"0.0": 23.3365269526,
			"0.001": 14.4388435998,
			"0.002": 19.4145713957,
			"0.003": 33.7805733038,
			"0.004": 13.4010025083,
			"0.005": 12.8991321794,
			"0.006": 7.5404820798,
			"0.007": 2.96340660033,
			"0.008": 2.72432267618,
			"0.009": 1.77424032201,
			"0.01": 2.02523464162,
			"0.011": 1.95556799434,
			"0.012": 1.69391390559,
			"0.013": 0.962027531399,
			"0.014": 0.777694769377,
			"0.015": 0.316214727653,
			"0.016": 0.859318686187,
			"0.017": 0.0487466209667,
			"0.018": 0.0,
			"0.019": 0.0,
			"0.02": 0.0,
			"0.021": 0.0,
			"0.022": 0.0,
			"0.023": 0.0,
			"0.024": 0.0,
			"0.025": 0.0
		}
	}
}
