{
	 "smiles": "OC(=O)C1=CSC(=N1)C1=CC(Cl)=CC=C1", 
	 "Tm": 479.15, 
	 "num_atms": 21, 
	 "gaussian": { 
		 "optdone": 1, 
		 "sigma_profile": "yes", 
		 "theory": "DFT", 
		 "functional": "B3LYP", 
		 "basiset": "6-31G**", 
		 "properties": { 
			 "R2extent": 5442.928, 
			 "electric_dipole_moment_norm": 4.24370904398, 
			 "electric_quadrupole_moment_norm": 26.3666569375, 
			 "total_energy": -1448.27112779, 
			 "HOMO_LUMO_gap": 0.16673, 
			 "cosmo_polarized_energy": -12.6, 
			 "cosmo_cavitation_energy": 30.05, 
			 "cosmo_dispersion_energy": -22.73, 
			 "cosmo_repulsion_energy": 1.72, 
			 "cosmo_total_nonelectrostatic_energy": 9.04, 
			 "SMD_solvation_energy": 5.24 
		},
		"coords": [
			{
				"x": 3.1637228299,
				"y": 1.4760815282,
				"z": 2.4881668131,
				"element": "O" 
			},
			{
				"x": 3.4324158788,
				"y": 1.7989831744,
				"z": 1.2071121062,
				"element": "C" 
			},
			{
				"x": 4.4988273491,
				"y": 2.246087312,
				"z": 0.8547965384,
				"element": "O" 
			},
			{
				"x": 2.2944364221,
				"y": 1.5530120749,
				"z": 0.2723731889,
				"element": "C" 
			},
			{
				"x": 2.3249569088,
				"y": 1.8005135909,
				"z": -1.0723576597,
				"element": "C" 
			},
			{
				"x": 0.8106438049,
				"y": 1.3780682263,
				"z": -1.7758707948,
				"element": "S" 
			},
			{
				"x": 0.2219215164,
				"y": 0.8847763669,
				"z": -0.1814415373,
				"element": "C" 
			},
			{
				"x": 1.1159029817,
				"y": 1.0417609593,
				"z": 0.7609554677,
				"element": "N" 
			},
			{
				"x": -1.1317566189,
				"y": 0.3579284928,
				"z": 0.0389692082,
				"element": "C" 
			},
			{
				"x": -2.0395961947,
				"y": 0.2059412655,
				"z": -1.0208908663,
				"element": "C" 
			},
			{
				"x": -3.3125657609,
				"y": -0.2966996081,
				"z": -0.7687787059,
				"element": "C" 
			},
			{
				"x": -4.4372986219,
				"y": -0.4814072994,
				"z": -2.1038030632,
				"element": "Cl" 
			},
			{
				"x": -3.7110639014,
				"y": -0.6556043495,
				"z": 0.5188056253,
				"element": "C" 
			},
			{
				"x": -2.8034445829,
				"y": -0.5023017548,
				"z": 1.5688687008,
				"element": "C" 
			},
			{
				"x": -1.5258395565,
				"y": -0.001588784,
				"z": 1.3392954359,
				"element": "C" 
			},
			{
				"x": 2.2492350664,
				"y": 1.1397295229,
				"z": 2.5223331527,
				"element": "H" 
			},
			{
				"x": 3.1471403096,
				"y": 2.1985007044,
				"z": -1.6487108977,
				"element": "H" 
			},
			{
				"x": -1.7683631717,
				"y": 0.472692643,
				"z": -2.0367849169,
				"element": "H" 
			},
			{
				"x": -4.7079492313,
				"y": -1.0451079663,
				"z": 0.691229374,
				"element": "H" 
			},
			{
				"x": -3.1011981943,
				"y": -0.7778921324,
				"z": 2.5758368443,
				"element": "H" 
			},
			{
				"x": -0.8217272332,
				"y": 0.1176260329,
				"z": 2.153995986,
				"element": "H" 
			}
		],
		 "valence_orbital": [ 
			{
				"type": "occ",
				"energy": -0.31445,
				"method": "rhf"
			},
			{
				"type": "occ",
				"energy": -0.30323,
				"method": "rhf"
			},
			{
				"type": "occ",
				"energy": -0.27583,
				"method": "rhf"
			},
			{
				"type": "occ",
				"energy": -0.26989,
				"method": "rhf"
			},
			{
				"type": "occ",
				"energy": -0.25008,
				"method": "rhf"
			},
			{
				"type": "unocc",
				"energy": -0.08335,
				"method": "rhf"
			},
			{
				"type": "unocc",
				"energy": -0.04568,
				"method": "rhf"
			},
			{
				"type": "unocc",
				"energy": -0.03162,
				"method": "rhf"
			},
			{
				"type": "unocc",
				"energy": -0.0082,
				"method": "rhf"
			},
			{
				"type": "unocc",
				"energy": 0.01548,
				"method": "rhf"
			}
		],
		"cosmo_sigma_profile": { 
			"-0.025": 0.0,
			"-0.024": 0.0,
			"-0.023": 0.0,
			"-0.022": 0.0,
			"-0.021": 0.0,
			"-0.02": 0.0,
			"-0.019": 0.0,
			"-0.018": 0.0,
			"-0.017": 0.0,
			"-0.016": 0.0,
			"-0.015": 0.0,
			"-0.014": 0.130944180353,
			"-0.013": 0.843059006922,
			"-0.012": 0.435941682185,
			"-0.011": 1.50149635538,
			"-0.01": 2.69211702241,
			"-0.009": 2.94158792394,
			"-0.008": 5.10513460067,
			"-0.007": 8.00260513551,
			"-0.006": 11.8758054142,
			"-0.005": 11.439754764,
			"-0.004": 11.4922013436,
			"-0.003": 14.4963713922,
			"-0.002": 18.2321154445,
			"-0.001": 21.8701632438,
			"0.0": 26.6183174827,
			"0.001": 26.0612489001,
			"0.002": 23.4344825713,
			"0.003": 13.8230020851,
			"0.004": 13.4119851201,
			"0.005": 5.75374602459,
			"0.006": 2.45425405887,
			"0.007": 2.69755153596,
			"0.008": 2.09837022102,
			"0.009": 4.03827900157,
			"0.01": 5.47674521521,
			"0.011": 4.89344271977,
			"0.012": 4.15839758087,
			"0.013": 1.32305797988,
			"0.014": 0.0221610523021,
			"0.015": 0.0,
			"0.016": 0.0,
			"0.017": 0.0,
			"0.018": 0.0,
			"0.019": 0.0,
			"0.02": 0.0,
			"0.021": 0.0,
			"0.022": 0.0,
			"0.023": 0.0,
			"0.024": 0.0,
			"0.025": 0.0
		}
	}
}
