{
	 "smiles": "O=C1C2=CC=CC=C2SC2=CC=CC=C12", 
	 "Tm": 483.15, 
	 "num_atms": 23, 
	 "gaussian": { 
		 "optdone": 1, 
		 "sigma_profile": "yes", 
		 "theory": "DFT", 
		 "functional": "B3LYP", 
		 "basiset": "6-31G**", 
		 "properties": { 
			 "R2extent": 3851.7462, 
			 "electric_dipole_moment_norm": 2.40216125604, 
			 "electric_quadrupole_moment_norm": 17.9306837223, 
			 "total_energy": -973.629674498, 
			 "HOMO_LUMO_gap": 0.15028, 
			 "cosmo_polarized_energy": -8.73, 
			 "cosmo_cavitation_energy": 28.21, 
			 "cosmo_dispersion_energy": -21.82, 
			 "cosmo_repulsion_energy": 1.59, 
			 "cosmo_total_nonelectrostatic_energy": 7.98, 
			 "SMD_solvation_energy": 4.56 
		},
		"coords": [
			{
				"x": -2.228126676,
				"y": 1.6574138861,
				"z": -2.4389699425,
				"element": "O" 
			},
			{
				"x": -1.5369220638,
				"y": 1.2072042031,
				"z": -1.5254685272,
				"element": "C" 
			},
			{
				"x": -0.466229326,
				"y": 2.041002873,
				"z": -0.9172240808,
				"element": "C" 
			},
			{
				"x": -0.2914607978,
				"y": 3.3407857804,
				"z": -1.4323247004,
				"element": "C" 
			},
			{
				"x": 0.6794732927,
				"y": 4.1916311975,
				"z": -0.9307573148,
				"element": "C" 
			},
			{
				"x": 1.5087401713,
				"y": 3.7542944233,
				"z": 0.1122336997,
				"element": "C" 
			},
			{
				"x": 1.3587906033,
				"y": 2.4791817208,
				"z": 0.6385984088,
				"element": "C" 
			},
			{
				"x": 0.3730354377,
				"y": 1.6148144971,
				"z": 0.1296137008,
				"element": "C" 
			},
			{
				"x": 0.2819271898,
				"y": 0.0223689931,
				"z": 0.8810541447,
				"element": "S" 
			},
			{
				"x": -1.0318306872,
				"y": -0.773647961,
				"z": 0.0154827805,
				"element": "C" 
			},
			{
				"x": -1.3273658689,
				"y": -2.0876785306,
				"z": 0.4203188421,
				"element": "C" 
			},
			{
				"x": -2.3450704717,
				"y": -2.7975284627,
				"z": -0.2008539825,
				"element": "C" 
			},
			{
				"x": -3.0869563636,
				"y": -2.2113775487,
				"z": -1.2366140039,
				"element": "C" 
			},
			{
				"x": -2.7962835127,
				"y": -0.9173591881,
				"z": -1.6356681629,
				"element": "C" 
			},
			{
				"x": -1.7686446508,
				"y": -0.1731458835,
				"z": -1.0229694422,
				"element": "C" 
			},
			{
				"x": -0.9521029746,
				"y": 3.6417763799,
				"z": -2.2381948994,
				"element": "H" 
			},
			{
				"x": 0.7979142507,
				"y": 5.1893841728,
				"z": -1.341567257,
				"element": "H" 
			},
			{
				"x": 2.2740989315,
				"y": 4.4115854871,
				"z": 0.5147086059,
				"element": "H" 
			},
			{
				"x": 2.0024193018,
				"y": 2.142758455,
				"z": 1.4464909952,
				"element": "H" 
			},
			{
				"x": -0.7541513452,
				"y": -2.5439499137,
				"z": 1.2224235508,
				"element": "H" 
			},
			{
				"x": -2.5627769437,
				"y": -3.8115987552,
				"z": 0.1217274432,
				"element": "H" 
			},
			{
				"x": -3.8828164315,
				"y": -2.7678677016,
				"z": -1.7216172099,
				"element": "H" 
			},
			{
				"x": -3.3469610651,
				"y": -0.4292481241,
				"z": -2.4325226482,
				"element": "H" 
			}
		],
		 "valence_orbital": [ 
			{
				"type": "occ",
				"energy": -0.27142,
				"method": "rhf"
			},
			{
				"type": "occ",
				"energy": -0.26402,
				"method": "rhf"
			},
			{
				"type": "occ",
				"energy": -0.26168,
				"method": "rhf"
			},
			{
				"type": "occ",
				"energy": -0.25017,
				"method": "rhf"
			},
			{
				"type": "occ",
				"energy": -0.21865,
				"method": "rhf"
			},
			{
				"type": "unocc",
				"energy": -0.06837,
				"method": "rhf"
			},
			{
				"type": "unocc",
				"energy": -0.02813,
				"method": "rhf"
			},
			{
				"type": "unocc",
				"energy": -0.01033,
				"method": "rhf"
			},
			{
				"type": "unocc",
				"energy": -0.00896,
				"method": "rhf"
			},
			{
				"type": "unocc",
				"energy": 0.02035,
				"method": "rhf"
			}
		],
		"cosmo_sigma_profile": { 
			"-0.025": 0.0,
			"-0.024": 0.0,
			"-0.023": 0.0,
			"-0.022": 0.0,
			"-0.021": 0.0,
			"-0.02": 0.0,
			"-0.019": 0.0,
			"-0.018": 0.0,
			"-0.017": 0.0,
			"-0.016": 0.0,
			"-0.015": 0.0,
			"-0.014": 0.0,
			"-0.013": 0.0,
			"-0.012": 0.0,
			"-0.011": 0.0,
			"-0.01": 0.0,
			"-0.009": 0.0,
			"-0.008": 1.46489652065,
			"-0.007": 9.97727185268,
			"-0.006": 14.7295379232,
			"-0.005": 17.5281378388,
			"-0.004": 14.8891857823,
			"-0.003": 13.0763142177,
			"-0.002": 13.3761137367,
			"-0.001": 14.8474807213,
			"0.0": 16.0672392789,
			"0.001": 22.6974953492,
			"0.002": 30.4725113615,
			"0.003": 28.3089343489,
			"0.004": 12.9919438904,
			"0.005": 3.34799107502,
			"0.006": 2.22901103278,
			"0.007": 1.5893774496,
			"0.008": 1.16307679844,
			"0.009": 1.57248922261,
			"0.01": 2.13531577627,
			"0.011": 1.83172973036,
			"0.012": 4.00570504159,
			"0.013": 1.69346062609,
			"0.014": 0.0,
			"0.015": 0.0,
			"0.016": 0.0,
			"0.017": 0.0,
			"0.018": 0.0,
			"0.019": 0.0,
			"0.02": 0.0,
			"0.021": 0.0,
			"0.022": 0.0,
			"0.023": 0.0,
			"0.024": 0.0,
			"0.025": 0.0
		}
	}
}
