{
	 "smiles": "CN1C2=C(C=CC=C2)N=C1C(=NNC1=CC=CC(O)=C1)C#N", 
	 "Tm": 558.15, 
	 "num_atms": 35, 
	 "gaussian": { 
		 "optdone": 1, 
		 "sigma_profile": "yes", 
		 "theory": "DFT", 
		 "functional": "B3LYP", 
		 "basiset": "6-31G**", 
		 "properties": { 
			 "R2extent": 10328.8846, 
			 "electric_dipole_moment_norm": 2.46915807918, 
			 "electric_quadrupole_moment_norm": 14.5567585609, 
			 "total_energy": -966.46968047, 
			 "HOMO_LUMO_gap": 0.12719, 
			 "cosmo_polarized_energy": -23.0, 
			 "cosmo_cavitation_energy": 41.38, 
			 "cosmo_dispersion_energy": -29.34, 
			 "cosmo_repulsion_energy": 2.21, 
			 "cosmo_total_nonelectrostatic_energy": 14.25, 
			 "SMD_solvation_energy": 5.57 
		},
		"coords": [
			{
				"x": -1.6283449005,
				"y": -0.0270053338,
				"z": 3.2710282546,
				"element": "C" 
			},
			{
				"x": -0.5538105245,
				"y": -0.8105098346,
				"z": 2.6799555273,
				"element": "N" 
			},
			{
				"x": -0.2784284432,
				"y": -2.1349342879,
				"z": 2.9802958733,
				"element": "C" 
			},
			{
				"x": 0.7683917014,
				"y": -2.5079919686,
				"z": 2.1023972925,
				"element": "C" 
			},
			{
				"x": 1.2844456921,
				"y": -3.8114634339,
				"z": 2.144219506,
				"element": "C" 
			},
			{
				"x": 0.736392794,
				"y": -4.7013985855,
				"z": 3.0601563015,
				"element": "C" 
			},
			{
				"x": -0.3065995749,
				"y": -4.3131730795,
				"z": 3.9274945915,
				"element": "C" 
			},
			{
				"x": -0.8317875906,
				"y": -3.0238059175,
				"z": 3.9062793097,
				"element": "C" 
			},
			{
				"x": 1.1308833975,
				"y": -1.4415884641,
				"z": 1.3058290965,
				"element": "N" 
			},
			{
				"x": 0.3334567729,
				"y": -0.4581704736,
				"z": 1.6683408062,
				"element": "C" 
			},
			{
				"x": 0.3857258642,
				"y": 0.8835184914,
				"z": 1.0754410316,
				"element": "C" 
			},
			{
				"x": 0.7995417812,
				"y": 1.0033504128,
				"z": -0.1628534889,
				"element": "N" 
			},
			{
				"x": 0.9480323261,
				"y": 2.1919550776,
				"z": -0.7026961361,
				"element": "N" 
			},
			{
				"x": 1.3884739415,
				"y": 2.3487246413,
				"z": -2.0285522357,
				"element": "C" 
			},
			{
				"x": 1.7223882945,
				"y": 1.2470995927,
				"z": -2.8233057278,
				"element": "C" 
			},
			{
				"x": 2.153074565,
				"y": 1.4778016195,
				"z": -4.1292954036,
				"element": "C" 
			},
			{
				"x": 2.2566819255,
				"y": 2.7658136967,
				"z": -4.6505100486,
				"element": "C" 
			},
			{
				"x": 1.9201308721,
				"y": 3.857098117,
				"z": -3.8414246505,
				"element": "C" 
			},
			{
				"x": 2.0350784677,
				"y": 5.1025039049,
				"z": -4.3870917966,
				"element": "O" 
			},
			{
				"x": 1.4845699898,
				"y": 3.653878497,
				"z": -2.5298398399,
				"element": "C" 
			},
			{
				"x": 0.0807447661,
				"y": 2.0544052867,
				"z": 1.8463182527,
				"element": "C" 
			},
			{
				"x": -0.1339415154,
				"y": 3.0762701315,
				"z": 2.3664193722,
				"element": "N" 
			},
			{
				"x": -2.4240152138,
				"y": -0.7059966088,
				"z": 3.5850277456,
				"element": "H" 
			},
			{
				"x": -2.0433893018,
				"y": 0.6623991363,
				"z": 2.5347470867,
				"element": "H" 
			},
			{
				"x": -1.2868135661,
				"y": 0.5475560681,
				"z": 4.1380207677,
				"element": "H" 
			},
			{
				"x": 2.0874662591,
				"y": -4.1008282868,
				"z": 1.4742481945,
				"element": "H" 
			},
			{
				"x": 1.1164157479,
				"y": -5.7172090269,
				"z": 3.1146120559,
				"element": "H" 
			},
			{
				"x": -0.7067944852,
				"y": -5.03594513,
				"z": 4.6323389011,
				"element": "H" 
			},
			{
				"x": -1.6270802343,
				"y": -2.7320321868,
				"z": 4.5852230634,
				"element": "H" 
			},
			{
				"x": 0.7475072684,
				"y": 3.0314529692,
				"z": -0.1580276934,
				"element": "H" 
			},
			{
				"x": 1.6462883167,
				"y": 0.2476155811,
				"z": -2.4148832431,
				"element": "H" 
			},
			{
				"x": 2.416148131,
				"y": 0.6298927132,
				"z": -4.754736131,
				"element": "H" 
			},
			{
				"x": 2.5922022234,
				"y": 2.9464203985,
				"z": -5.6655102879,
				"element": "H" 
			},
			{
				"x": 1.7808496973,
				"y": 5.7667617287,
				"z": -3.7336432365,
				"element": "H" 
			},
			{
				"x": 1.2211145545,
				"y": 4.5030345541,
				"z": -1.9016231109,
				"element": "H" 
			}
		],
		 "valence_orbital": [ 
			{
				"type": "occ",
				"energy": -0.2702,
				"method": "rhf"
			},
			{
				"type": "occ",
				"energy": -0.24742,
				"method": "rhf"
			},
			{
				"type": "occ",
				"energy": -0.23091,
				"method": "rhf"
			},
			{
				"type": "occ",
				"energy": -0.2245,
				"method": "rhf"
			},
			{
				"type": "occ",
				"energy": -0.20568,
				"method": "rhf"
			},
			{
				"type": "unocc",
				"energy": -0.07849,
				"method": "rhf"
			},
			{
				"type": "unocc",
				"energy": -0.01344,
				"method": "rhf"
			},
			{
				"type": "unocc",
				"energy": -0.0054,
				"method": "rhf"
			},
			{
				"type": "unocc",
				"energy": 0.00603,
				"method": "rhf"
			},
			{
				"type": "unocc",
				"energy": 0.01644,
				"method": "rhf"
			}
		],
		"cosmo_sigma_profile": { 
			"-0.025": 0.0,
			"-0.024": 0.0,
			"-0.023": 0.0,
			"-0.022": 0.0,
			"-0.021": 0.0,
			"-0.02": 0.0,
			"-0.019": 0.0,
			"-0.018": 0.613809024012,
			"-0.017": 1.54297040186,
			"-0.016": 0.718506072241,
			"-0.015": 2.00449596759,
			"-0.014": 2.18548000407,
			"-0.013": 2.08786506326,
			"-0.012": 2.37060123131,
			"-0.011": 2.12606800822,
			"-0.01": 2.95693237693,
			"-0.009": 3.38175012787,
			"-0.008": 4.25387617703,
			"-0.007": 9.72686437765,
			"-0.006": 16.6926479548,
			"-0.005": 24.3618327904,
			"-0.004": 25.7293493148,
			"-0.003": 23.6962173831,
			"-0.002": 16.9716557734,
			"-0.001": 17.084101645,
			"0.0": 17.5958962466,
			"0.001": 17.0790491875,
			"0.002": 20.2497002748,
			"0.003": 22.1944325821,
			"0.004": 27.0690421008,
			"0.005": 21.2494877787,
			"0.006": 11.5562150907,
			"0.007": 5.51154359973,
			"0.008": 6.41872335827,
			"0.009": 5.40727656069,
			"0.01": 5.73199177226,
			"0.011": 5.08507151886,
			"0.012": 3.26866182703,
			"0.013": 1.6808110986,
			"0.014": 0.989285554692,
			"0.015": 1.2862290805,
			"0.016": 1.01223791654,
			"0.017": 1.0749450868,
			"0.018": 0.161149917236,
			"0.019": 0.0,
			"0.02": 0.0,
			"0.021": 0.0,
			"0.022": 0.0,
			"0.023": 0.0,
			"0.024": 0.0,
			"0.025": 0.0
		}
	}
}
