{
	 "smiles": "CC1(C)NC(=O)N=C1N", 
	 "Tm": 533.15, 
	 "num_atms": 18, 
	 "gaussian": { 
		 "optdone": 1, 
		 "sigma_profile": "yes", 
		 "theory": "DFT", 
		 "functional": "B3LYP", 
		 "basiset": "6-31G**", 
		 "properties": { 
			 "R2extent": 1145.9239, 
			 "electric_dipole_moment_norm": 7.28853591196, 
			 "electric_quadrupole_moment_norm": 12.2613034254, 
			 "total_energy": -435.461196505, 
			 "HOMO_LUMO_gap": 0.23333, 
			 "cosmo_polarized_energy": -24.45, 
			 "cosmo_cavitation_energy": 21.37, 
			 "cosmo_dispersion_energy": -15.48, 
			 "cosmo_repulsion_energy": 1.29, 
			 "cosmo_total_nonelectrostatic_energy": 7.18, 
			 "SMD_solvation_energy": 2.43 
		},
		"coords": [
			{
				"x": -1.3110364168,
				"y": 1.4029552641,
				"z": -1.5750557345,
				"element": "C" 
			},
			{
				"x": -0.2903852717,
				"y": 0.9406357852,
				"z": -0.5148524773,
				"element": "C" 
			},
			{
				"x": 0.4373938473,
				"y": 2.138726799,
				"z": 0.1221497964,
				"element": "C" 
			},
			{
				"x": 0.6418752593,
				"y": -0.0446214806,
				"z": -1.0352122339,
				"element": "N" 
			},
			{
				"x": 0.3868735207,
				"y": -1.3168885829,
				"z": -0.5107579041,
				"element": "C" 
			},
			{
				"x": 0.9108475379,
				"y": -2.3439018723,
				"z": -0.8860634937,
				"element": "O" 
			},
			{
				"x": -0.5734913634,
				"y": -1.1938931443,
				"z": 0.5308986459,
				"element": "N" 
			},
			{
				"x": -0.9534946203,
				"y": 0.0426388317,
				"z": 0.5391924706,
				"element": "C" 
			},
			{
				"x": -1.8473366943,
				"y": 0.544251148,
				"z": 1.4212193693,
				"element": "N" 
			},
			{
				"x": -1.8294929474,
				"y": 0.5460844689,
				"z": -2.0138140888,
				"element": "H" 
			},
			{
				"x": -2.0587300095,
				"y": 2.0784974149,
				"z": -1.1450694268,
				"element": "H" 
			},
			{
				"x": -0.8008613128,
				"y": 1.9479415843,
				"z": -2.3762841763,
				"element": "H" 
			},
			{
				"x": 0.9848219714,
				"y": 2.6951125829,
				"z": -0.6453160198,
				"element": "H" 
			},
			{
				"x": 1.1528697945,
				"y": 1.7949769645,
				"z": 0.872788856,
				"element": "H" 
			},
			{
				"x": -0.265378963,
				"y": 2.8310939651,
				"z": 0.5982360991,
				"element": "H" 
			},
			{
				"x": 1.0565656491,
				"y": 0.0322151936,
				"z": -1.9519677423,
				"element": "H" 
			},
			{
				"x": -2.2458835409,
				"y": 1.4595152234,
				"z": 1.2982175511,
				"element": "H" 
			},
			{
				"x": -2.31825644,
				"y": -0.1044401456,
				"z": 2.0337905092,
				"element": "H" 
			}
		],
		 "valence_orbital": [ 
			{
				"type": "occ",
				"energy": -0.36175,
				"method": "rhf"
			},
			{
				"type": "occ",
				"energy": -0.27316,
				"method": "rhf"
			},
			{
				"type": "occ",
				"energy": -0.25121,
				"method": "rhf"
			},
			{
				"type": "occ",
				"energy": -0.24789,
				"method": "rhf"
			},
			{
				"type": "occ",
				"energy": -0.23892,
				"method": "rhf"
			},
			{
				"type": "unocc",
				"energy": -0.00559,
				"method": "rhf"
			},
			{
				"type": "unocc",
				"energy": 0.04004,
				"method": "rhf"
			},
			{
				"type": "unocc",
				"energy": 0.08789,
				"method": "rhf"
			},
			{
				"type": "unocc",
				"energy": 0.09399,
				"method": "rhf"
			},
			{
				"type": "unocc",
				"energy": 0.10905,
				"method": "rhf"
			}
		],
		"cosmo_sigma_profile": { 
			"-0.025": 0.0,
			"-0.024": 0.0,
			"-0.023": 0.0,
			"-0.022": 0.0,
			"-0.021": 0.0,
			"-0.02": 0.0,
			"-0.019": 0.0,
			"-0.018": 0.0,
			"-0.017": 0.0,
			"-0.016": 0.0,
			"-0.015": 0.912646702561,
			"-0.014": 2.81843185257,
			"-0.013": 3.99591944548,
			"-0.012": 4.35751338557,
			"-0.011": 3.67748422662,
			"-0.01": 3.97211694544,
			"-0.009": 3.03961067413,
			"-0.008": 3.23418499971,
			"-0.007": 3.56280895868,
			"-0.006": 3.60138018692,
			"-0.005": 8.54599109854,
			"-0.004": 14.5045631543,
			"-0.003": 12.0705595842,
			"-0.002": 13.0220685607,
			"-0.001": 15.3041263726,
			"0.0": 11.8481051602,
			"0.001": 5.73916781018,
			"0.002": 4.32858004744,
			"0.003": 3.94536259478,
			"0.004": 2.95416168975,
			"0.005": 3.26753787937,
			"0.006": 3.77481375887,
			"0.007": 2.39005740203,
			"0.008": 2.27997534514,
			"0.009": 2.32425618967,
			"0.01": 1.92746190506,
			"0.011": 1.71572198714,
			"0.012": 2.90772281637,
			"0.013": 4.21802076837,
			"0.014": 8.01955109013,
			"0.015": 5.17489993227,
			"0.016": 2.2966730093,
			"0.017": 1.13412751685,
			"0.018": 0.27260408013,
			"0.019": 0.0,
			"0.02": 0.0,
			"0.021": 0.0,
			"0.022": 0.0,
			"0.023": 0.0,
			"0.024": 0.0,
			"0.025": 0.0
		}
	}
}
