{
	 "smiles": "CC1=CC(=CC(Cl)=C1N)[N+]([O-])=O", 
	 "Tm": 448.15, 
	 "num_atms": 19, 
	 "gaussian": { 
		 "optdone": 1, 
		 "sigma_profile": "yes", 
		 "theory": "DFT", 
		 "functional": "B3LYP", 
		 "basiset": "6-31G**", 
		 "properties": { 
			 "R2extent": 2839.7852, 
			 "electric_dipole_moment_norm": 6.70505124067, 
			 "electric_quadrupole_moment_norm": 8.47095385833, 
			 "total_energy": -991.02219361, 
			 "HOMO_LUMO_gap": 0.15479, 
			 "cosmo_polarized_energy": -13.24, 
			 "cosmo_cavitation_energy": 25.18, 
			 "cosmo_dispersion_energy": -18.87, 
			 "cosmo_repulsion_energy": 1.5, 
			 "cosmo_total_nonelectrostatic_energy": 7.82, 
			 "SMD_solvation_energy": 6.25 
		},
		"coords": [
			{
				"x": -2.2274809896,
				"y": -1.8306880009,
				"z": -0.0106593317,
				"element": "C" 
			},
			{
				"x": -0.9894625248,
				"y": -1.0543765503,
				"z": 0.3628796927,
				"element": "C" 
			},
			{
				"x": -1.0557396265,
				"y": 0.2997603998,
				"z": 0.6608235022,
				"element": "C" 
			},
			{
				"x": 0.0985304731,
				"y": 1.0101677899,
				"z": 0.9945943775,
				"element": "C" 
			},
			{
				"x": 1.3447077014,
				"y": 0.3892191019,
				"z": 1.0393771019,
				"element": "C" 
			},
			{
				"x": 1.414140053,
				"y": -0.9609190595,
				"z": 0.744687699,
				"element": "C" 
			},
			{
				"x": 2.9782298381,
				"y": -1.7687471123,
				"z": 0.8039320628,
				"element": "Cl" 
			},
			{
				"x": 0.2688870016,
				"y": -1.7173960906,
				"z": 0.4014753775,
				"element": "C" 
			},
			{
				"x": 0.3690265101,
				"y": -3.0440744643,
				"z": 0.0730851904,
				"element": "N" 
			},
			{
				"x": 0.004446549,
				"y": 2.4315293041,
				"z": 1.3040031602,
				"element": "N" 
			},
			{
				"x": 1.0446958845,
				"y": 3.0280445494,
				"z": 1.5923954667,
				"element": "O" 
			},
			{
				"x": -1.1112820282,
				"y": 2.9558647861,
				"z": 1.2599226436,
				"element": "O" 
			},
			{
				"x": -3.103890234,
				"y": -1.1797166171,
				"z": -0.0262371751,
				"element": "H" 
			},
			{
				"x": -2.4353268256,
				"y": -2.6392469205,
				"z": 0.7038675579,
				"element": "H" 
			},
			{
				"x": -2.1313966756,
				"y": -2.2877216304,
				"z": -1.0035097346,
				"element": "H" 
			},
			{
				"x": -2.0025228502,
				"y": 0.8255441821,
				"z": 0.6371834249,
				"element": "H" 
			},
			{
				"x": 2.2267161413,
				"y": 0.9578077184,
				"z": 1.3025105417,
				"element": "H" 
			},
			{
				"x": 1.2325732162,
				"y": -3.5187911308,
				"z": 0.2885432105,
				"element": "H" 
			},
			{
				"x": -0.4637516136,
				"y": -3.609360255,
				"z": 0.0971252318,
				"element": "H" 
			}
		],
		 "valence_orbital": [ 
			{
				"type": "occ",
				"energy": -0.29931,
				"method": "rhf"
			},
			{
				"type": "occ",
				"energy": -0.29826,
				"method": "rhf"
			},
			{
				"type": "occ",
				"energy": -0.28059,
				"method": "rhf"
			},
			{
				"type": "occ",
				"energy": -0.26551,
				"method": "rhf"
			},
			{
				"type": "occ",
				"energy": -0.23267,
				"method": "rhf"
			},
			{
				"type": "unocc",
				"energy": -0.07788,
				"method": "rhf"
			},
			{
				"type": "unocc",
				"energy": -0.02623,
				"method": "rhf"
			},
			{
				"type": "unocc",
				"energy": 0.01268,
				"method": "rhf"
			},
			{
				"type": "unocc",
				"energy": 0.01403,
				"method": "rhf"
			},
			{
				"type": "unocc",
				"energy": 0.0569,
				"method": "rhf"
			}
		],
		"cosmo_sigma_profile": { 
			"-0.025": 0.0,
			"-0.024": 0.0,
			"-0.023": 0.0,
			"-0.022": 0.0,
			"-0.021": 0.0,
			"-0.02": 0.0,
			"-0.019": 0.0,
			"-0.018": 0.0,
			"-0.017": 0.0,
			"-0.016": 0.0,
			"-0.015": 0.00850356103872,
			"-0.014": 0.815485576346,
			"-0.013": 1.56136831014,
			"-0.012": 2.72038893693,
			"-0.011": 2.47639966605,
			"-0.01": 2.58789142175,
			"-0.009": 2.168203353,
			"-0.008": 2.32565324965,
			"-0.007": 5.09120726019,
			"-0.006": 6.57022501512,
			"-0.005": 10.0732241107,
			"-0.004": 10.653808032,
			"-0.003": 11.8482179044,
			"-0.002": 13.7878930995,
			"-0.001": 18.9446528862,
			"0.0": 20.3872383108,
			"0.001": 22.9563087162,
			"0.002": 13.7689204484,
			"0.003": 9.09764171794,
			"0.004": 9.08665887712,
			"0.005": 4.24889019507,
			"0.006": 4.15948572122,
			"0.007": 3.85663386015,
			"0.008": 9.90851259054,
			"0.009": 7.1801224934,
			"0.01": 4.41083562441,
			"0.011": 2.3771637019,
			"0.012": 0.0270356488122,
			"0.013": 0.0,
			"0.014": 0.0,
			"0.015": 0.0,
			"0.016": 0.0,
			"0.017": 0.0,
			"0.018": 0.0,
			"0.019": 0.0,
			"0.02": 0.0,
			"0.021": 0.0,
			"0.022": 0.0,
			"0.023": 0.0,
			"0.024": 0.0,
			"0.025": 0.0
		}
	}
}
