{
	 "smiles": "COC1=CC(C=CC(O)=O)=CC=C1OC(C)=O", 
	 "Tm": 468.15, 
	 "num_atms": 29, 
	 "gaussian": { 
		 "optdone": 1, 
		 "sigma_profile": "yes", 
		 "theory": "DFT", 
		 "functional": "B3LYP", 
		 "basiset": "6-31G**", 
		 "properties": { 
			 "R2extent": 6580.5007, 
			 "electric_dipole_moment_norm": 6.43221627901, 
			 "electric_quadrupole_moment_norm": 26.3386215252, 
			 "total_energy": -840.609561744, 
			 "HOMO_LUMO_gap": 0.16722, 
			 "cosmo_polarized_energy": -22.23, 
			 "cosmo_cavitation_energy": 35.31, 
			 "cosmo_dispersion_energy": -24.33, 
			 "cosmo_repulsion_energy": 1.92, 
			 "cosmo_total_nonelectrostatic_energy": 12.89, 
			 "SMD_solvation_energy": 9.38 
		},
		"coords": [
			{
				"x": 0.0869225468,
				"y": -3.1147752112,
				"z": -1.1087479,
				"element": "C" 
			},
			{
				"x": 0.799905648,
				"y": -2.482723634,
				"z": -0.0398033531,
				"element": "O" 
			},
			{
				"x": 0.5792553898,
				"y": -1.1345579178,
				"z": 0.0819563666,
				"element": "C" 
			},
			{
				"x": 1.5543573486,
				"y": -0.230829703,
				"z": -0.3333663278,
				"element": "C" 
			},
			{
				"x": 1.3800733724,
				"y": 1.1562771242,
				"z": -0.1842793246,
				"element": "C" 
			},
			{
				"x": 2.4499288831,
				"y": 2.0488564526,
				"z": -0.6388486492,
				"element": "C" 
			},
			{
				"x": 2.4263446493,
				"y": 3.3937635057,
				"z": -0.6958099951,
				"element": "C" 
			},
			{
				"x": 3.5270893697,
				"y": 4.2378805035,
				"z": -1.2268921541,
				"element": "C" 
			},
			{
				"x": 4.7839622091,
				"y": 3.7085107309,
				"z": -1.2223884355,
				"element": "O" 
			},
			{
				"x": 3.3389531941,
				"y": 5.349456239,
				"z": -1.6647101436,
				"element": "O" 
			},
			{
				"x": 0.1854021647,
				"y": 1.6220340914,
				"z": 0.3954927198,
				"element": "C" 
			},
			{
				"x": -0.7908025342,
				"y": 0.7273017803,
				"z": 0.818715876,
				"element": "C" 
			},
			{
				"x": -0.5966622298,
				"y": -0.6433662374,
				"z": 0.6650717241,
				"element": "C" 
			},
			{
				"x": -1.5957287177,
				"y": -1.5311776517,
				"z": 1.0495187429,
				"element": "O" 
			},
			{
				"x": -1.4486387054,
				"y": -2.1568953983,
				"z": 2.2749971154,
				"element": "C" 
			},
			{
				"x": -2.5573673056,
				"y": -3.1576492574,
				"z": 2.4721261149,
				"element": "C" 
			},
			{
				"x": -0.5573301018,
				"y": -1.9071309334,
				"z": 3.0417272225,
				"element": "O" 
			},
			{
				"x": 0.3558692753,
				"y": -4.1720305245,
				"z": -1.0718820166,
				"element": "H" 
			},
			{
				"x": -0.9964493709,
				"y": -3.0071638221,
				"z": -0.9866134546,
				"element": "H" 
			},
			{
				"x": 0.3846744086,
				"y": -2.6983102498,
				"z": -2.0792342042,
				"element": "H" 
			},
			{
				"x": 2.4636501602,
				"y": -0.6307838166,
				"z": -0.7725191922,
				"element": "H" 
			},
			{
				"x": 3.3409288887,
				"y": 1.5288373215,
				"z": -0.9930887562,
				"element": "H" 
			},
			{
				"x": 1.5386528137,
				"y": 3.9617847069,
				"z": -0.4373002475,
				"element": "H" 
			},
			{
				"x": 4.8031097782,
				"y": 2.9122289549,
				"z": -0.673743107,
				"element": "H" 
			},
			{
				"x": 0.022283259,
				"y": 2.6853662712,
				"z": 0.5332655998,
				"element": "H" 
			},
			{
				"x": -1.7094892895,
				"y": 1.0776784732,
				"z": 1.2774306921,
				"element": "H" 
			},
			{
				"x": -2.5216092607,
				"y": -3.5385328156,
				"z": 3.4920922256,
				"element": "H" 
			},
			{
				"x": -2.4325926857,
				"y": -3.9862540455,
				"z": 1.7678571318,
				"element": "H" 
			},
			{
				"x": -3.5284931579,
				"y": -2.6982949369,
				"z": 2.27017573,
				"element": "H" 
			}
		],
		 "valence_orbital": [ 
			{
				"type": "occ",
				"energy": -0.29045,
				"method": "rhf"
			},
			{
				"type": "occ",
				"energy": -0.28735,
				"method": "rhf"
			},
			{
				"type": "occ",
				"energy": -0.26991,
				"method": "rhf"
			},
			{
				"type": "occ",
				"energy": -0.26435,
				"method": "rhf"
			},
			{
				"type": "occ",
				"energy": -0.24154,
				"method": "rhf"
			},
			{
				"type": "unocc",
				"energy": -0.07432,
				"method": "rhf"
			},
			{
				"type": "unocc",
				"energy": -0.02052,
				"method": "rhf"
			},
			{
				"type": "unocc",
				"energy": -0.00363,
				"method": "rhf"
			},
			{
				"type": "unocc",
				"energy": 0.01043,
				"method": "rhf"
			},
			{
				"type": "unocc",
				"energy": 0.06084,
				"method": "rhf"
			}
		],
		"cosmo_sigma_profile": { 
			"-0.025": 0.0,
			"-0.024": 0.0,
			"-0.023": 0.0,
			"-0.022": 0.0,
			"-0.021": 0.0,
			"-0.02": 0.0,
			"-0.019": 0.157118622559,
			"-0.018": 0.714749494705,
			"-0.017": 1.20669239147,
			"-0.016": 0.904353916471,
			"-0.015": 0.772568479557,
			"-0.014": 1.06521830418,
			"-0.013": 0.732002112681,
			"-0.012": 1.45741516786,
			"-0.011": 1.15120252476,
			"-0.01": 1.14086460828,
			"-0.009": 3.9091469194,
			"-0.008": 5.87138819853,
			"-0.007": 10.4886932454,
			"-0.006": 14.5826069908,
			"-0.005": 19.1274661605,
			"-0.004": 21.1205161985,
			"-0.003": 27.5861919373,
			"-0.002": 23.508588342,
			"-0.001": 16.4297150995,
			"0.0": 12.3005101826,
			"0.001": 16.1531569656,
			"0.002": 19.2557873752,
			"0.003": 11.7167683187,
			"0.004": 7.68936738306,
			"0.005": 5.303415047,
			"0.006": 5.48910571722,
			"0.007": 6.99594792515,
			"0.008": 7.01493414505,
			"0.009": 6.27885500821,
			"0.01": 8.74738573763,
			"0.011": 11.9098127031,
			"0.012": 7.19037453347,
			"0.013": 3.28090966048,
			"0.014": 0.302502537111,
			"0.015": 0.0,
			"0.016": 0.0,
			"0.017": 0.0,
			"0.018": 0.0,
			"0.019": 0.0,
			"0.02": 0.0,
			"0.021": 0.0,
			"0.022": 0.0,
			"0.023": 0.0,
			"0.024": 0.0,
			"0.025": 0.0
		}
	}
}
