{
	 "smiles": "ClCC1=NC(=NO1)C1=CC(Br)=CS1", 
	 "Tm": 330.15, 
	 "num_atms": 17, 
	 "gaussian": { 
		 "optdone": 1, 
		 "sigma_profile": "yes", 
		 "theory": "DFT", 
		 "functional": "B3LYP", 
		 "basiset": "6-31G**", 
		 "properties": { 
			 "R2extent": 8710.6298, 
			 "electric_dipole_moment_norm": 2.30622970669, 
			 "electric_quadrupole_moment_norm": 9.20506630231, 
			 "total_energy": -3883.60657263, 
			 "HOMO_LUMO_gap": 0.17026, 
			 "cosmo_polarized_energy": -9.29, 
			 "cosmo_cavitation_energy": 28.84, 
			 "cosmo_dispersion_energy": -22.29, 
			 "cosmo_repulsion_energy": 1.74, 
			 "cosmo_total_nonelectrostatic_energy": 8.29, 
			 "SMD_solvation_energy": 1.63 
		},
		"coords": [
			{
				"x": -2.2391150926,
				"y": 4.9451589651,
				"z": 0.3918751753,
				"element": "Cl" 
			},
			{
				"x": -0.6809988297,
				"y": 4.2545155594,
				"z": -0.2322066217,
				"element": "C" 
			},
			{
				"x": -0.4710414324,
				"y": 2.861461745,
				"z": 0.2420663843,
				"element": "C" 
			},
			{
				"x": 0.2948917131,
				"y": 2.4565457133,
				"z": 1.2100341674,
				"element": "N" 
			},
			{
				"x": 0.0901429609,
				"y": 1.0902245745,
				"z": 1.1915587427,
				"element": "C" 
			},
			{
				"x": -0.7519714156,
				"y": 0.6785597042,
				"z": 0.2646918472,
				"element": "N" 
			},
			{
				"x": -1.1275794996,
				"y": 1.8666841231,
				"z": -0.3751360552,
				"element": "O" 
			},
			{
				"x": 0.7523762745,
				"y": 0.1887816988,
				"z": 2.1162810105,
				"element": "C" 
			},
			{
				"x": 0.6371899762,
				"y": -1.1786185807,
				"z": 2.1971125805,
				"element": "C" 
			},
			{
				"x": 1.4450714041,
				"y": -1.7141776637,
				"z": 3.2358770011,
				"element": "C" 
			},
			{
				"x": 1.5232361602,
				"y": -3.5691729659,
				"z": 3.6214534401,
				"element": "Br" 
			},
			{
				"x": 2.1572839155,
				"y": -0.7715794111,
				"z": 3.9275870721,
				"element": "C" 
			},
			{
				"x": 1.8523411308,
				"y": 0.8167530804,
				"z": 3.3167240394,
				"element": "S" 
			},
			{
				"x": 0.1266935315,
				"y": 4.8837459007,
				"z": 0.136587482,
				"element": "H" 
			},
			{
				"x": -0.7324620165,
				"y": 4.2923681732,
				"z": -1.3202295628,
				"element": "H" 
			},
			{
				"x": 0.0060926994,
				"y": -1.7693751887,
				"z": 1.5462101644,
				"element": "H" 
			},
			{
				"x": 2.8360485202,
				"y": -0.9238754274,
				"z": 4.7537131326,
				"element": "H" 
			}
		],
		 "valence_orbital": [ 
			{
				"type": "occ",
				"energy": -0.31555,
				"method": "rhf"
			},
			{
				"type": "occ",
				"energy": -0.31082,
				"method": "rhf"
			},
			{
				"type": "occ",
				"energy": -0.29688,
				"method": "rhf"
			},
			{
				"type": "occ",
				"energy": -0.26382,
				"method": "rhf"
			},
			{
				"type": "occ",
				"energy": -0.24262,
				"method": "rhf"
			},
			{
				"type": "unocc",
				"energy": -0.07236,
				"method": "rhf"
			},
			{
				"type": "unocc",
				"energy": -0.05046,
				"method": "rhf"
			},
			{
				"type": "unocc",
				"energy": -0.00772,
				"method": "rhf"
			},
			{
				"type": "unocc",
				"energy": 0.01452,
				"method": "rhf"
			},
			{
				"type": "unocc",
				"energy": 0.01829,
				"method": "rhf"
			}
		],
		"cosmo_sigma_profile": { 
			"-0.025": 0.0,
			"-0.024": 0.0,
			"-0.023": 0.0,
			"-0.022": 0.0,
			"-0.021": 0.0,
			"-0.02": 0.0,
			"-0.019": 0.0,
			"-0.018": 0.0,
			"-0.017": 0.0,
			"-0.016": 0.0,
			"-0.015": 0.0,
			"-0.014": 0.0,
			"-0.013": 0.0,
			"-0.012": 0.0,
			"-0.011": 1.25153355926,
			"-0.01": 6.05149657578,
			"-0.009": 6.94320424936,
			"-0.008": 6.9271830547,
			"-0.007": 8.24748843421,
			"-0.006": 6.47909838973,
			"-0.005": 7.68999704187,
			"-0.004": 8.21246892123,
			"-0.003": 10.0564357414,
			"-0.002": 13.2791200364,
			"-0.001": 17.3078675193,
			"0.0": 20.9133057277,
			"0.001": 29.7887831591,
			"0.002": 27.1130396207,
			"0.003": 17.5796804226,
			"0.004": 22.3178971847,
			"0.005": 14.7014862591,
			"0.006": 5.07353595252,
			"0.007": 2.46863828409,
			"0.008": 1.93762610538,
			"0.009": 2.20218822057,
			"0.01": 2.48167439147,
			"0.011": 1.22898735409,
			"0.012": 0.67207325166,
			"0.013": 0.0,
			"0.014": 0.0,
			"0.015": 0.0,
			"0.016": 0.0,
			"0.017": 0.0,
			"0.018": 0.0,
			"0.019": 0.0,
			"0.02": 0.0,
			"0.021": 0.0,
			"0.022": 0.0,
			"0.023": 0.0,
			"0.024": 0.0,
			"0.025": 0.0
		}
	}
}
