{
	 "smiles": "NC1CCN(CC(=O)NC2=CC=CC=C2)CC1", 
	 "Tm": 349.15, 
	 "num_atms": 36, 
	 "gaussian": { 
		 "optdone": 1, 
		 "sigma_profile": "yes", 
		 "theory": "DFT", 
		 "functional": "B3LYP", 
		 "basiset": "6-31G**", 
		 "properties": { 
			 "R2extent": 6454.0743, 
			 "electric_dipole_moment_norm": 4.01804111602, 
			 "electric_quadrupole_moment_norm": 15.3236741048, 
			 "total_energy": -746.331076853, 
			 "HOMO_LUMO_gap": 0.20624, 
			 "cosmo_polarized_energy": -15.01, 
			 "cosmo_cavitation_energy": 36.93, 
			 "cosmo_dispersion_energy": -26.3, 
			 "cosmo_repulsion_energy": 2.04, 
			 "cosmo_total_nonelectrostatic_energy": 12.67, 
			 "SMD_solvation_energy": 4.42 
		},
		"coords": [
			{
				"x": -1.3708800032,
				"y": 0.1052235703,
				"z": 3.636697652,
				"element": "N" 
			},
			{
				"x": -1.3661216829,
				"y": 0.9035912831,
				"z": 2.4024297268,
				"element": "C" 
			},
			{
				"x": -0.0208260901,
				"y": 0.7381002842,
				"z": 1.6747707296,
				"element": "C" 
			},
			{
				"x": 0.0901384869,
				"y": -0.6124649878,
				"z": 0.9599251376,
				"element": "C" 
			},
			{
				"x": -1.0293896176,
				"y": -0.8159104278,
				"z": 0.0256140475,
				"element": "N" 
			},
			{
				"x": -0.8553678332,
				"y": -2.0304078838,
				"z": -0.7671843189,
				"element": "C" 
			},
			{
				"x": 0.0908233801,
				"y": -1.8635589396,
				"z": -1.9688752306,
				"element": "C" 
			},
			{
				"x": 0.6186507088,
				"y": -2.8370946336,
				"z": -2.4904668129,
				"element": "O" 
			},
			{
				"x": 0.2035427446,
				"y": -0.5641238508,
				"z": -2.3820212516,
				"element": "N" 
			},
			{
				"x": 0.9287679409,
				"y": -0.0315252049,
				"z": -3.4645736338,
				"element": "C" 
			},
			{
				"x": 0.879095795,
				"y": 1.3588593157,
				"z": -3.656488083,
				"element": "C" 
			},
			{
				"x": 1.5726091792,
				"y": 1.9502879783,
				"z": -4.7088078994,
				"element": "C" 
			},
			{
				"x": 2.3258326669,
				"y": 1.1660440775,
				"z": -5.5849494867,
				"element": "C" 
			},
			{
				"x": 2.3732512134,
				"y": -0.2155084072,
				"z": -5.3919951715,
				"element": "C" 
			},
			{
				"x": 1.6840708348,
				"y": -0.824676142,
				"z": -4.3431846034,
				"element": "C" 
			},
			{
				"x": -2.3208993525,
				"y": -0.7635489892,
				"z": 0.7235696727,
				"element": "C" 
			},
			{
				"x": -2.5109321756,
				"y": 0.5915283383,
				"z": 1.4104728548,
				"element": "C" 
			},
			{
				"x": -1.309082059,
				"y": -0.8878999357,
				"z": 3.4257156432,
				"element": "H" 
			},
			{
				"x": -2.252490263,
				"y": 0.2348745039,
				"z": 4.1282957501,
				"element": "H" 
			},
			{
				"x": -1.4594700556,
				"y": 1.9504719886,
				"z": 2.7167598192,
				"element": "H" 
			},
			{
				"x": 0.0828017777,
				"y": 1.536124259,
				"z": 0.9298846142,
				"element": "H" 
			},
			{
				"x": 0.7970205543,
				"y": 0.8424198462,
				"z": 2.3943500629,
				"element": "H" 
			},
			{
				"x": 1.0253541136,
				"y": -0.6556508819,
				"z": 0.3921245327,
				"element": "H" 
			},
			{
				"x": 0.1348614898,
				"y": -1.4381838054,
				"z": 1.6966956846,
				"element": "H" 
			},
			{
				"x": -0.4833772941,
				"y": -2.8881111438,
				"z": -0.1849356625,
				"element": "H" 
			},
			{
				"x": -1.8273822581,
				"y": -2.3276752941,
				"z": -1.1791660986,
				"element": "H" 
			},
			{
				"x": -0.3120663514,
				"y": 0.082187222,
				"z": -1.790290901,
				"element": "H" 
			},
			{
				"x": 0.293217748,
				"y": 1.9737149153,
				"z": -2.9768811554,
				"element": "H" 
			},
			{
				"x": 1.5227206989,
				"y": 3.0272409405,
				"z": -4.8425028398,
				"element": "H" 
			},
			{
				"x": 2.8673580113,
				"y": 1.6260675099,
				"z": -6.4059317277,
				"element": "H" 
			},
			{
				"x": 2.9555254336,
				"y": -0.8366336233,
				"z": -6.0670667428,
				"element": "H" 
			},
			{
				"x": 1.7187065149,
				"y": -1.8945037054,
				"z": -4.1912047656,
				"element": "H" 
			},
			{
				"x": -3.1173559091,
				"y": -0.9269221638,
				"z": -0.0102693142,
				"element": "H" 
			},
			{
				"x": -2.4046939379,
				"y": -1.5786105368,
				"z": 1.4694602777,
				"element": "H" 
			},
			{
				"x": -2.5458863922,
				"y": 1.3712816129,
				"z": 0.6388425059,
				"element": "H" 
			},
			{
				"x": -3.4766280171,
				"y": 0.6069929111,
				"z": 1.9309869881,
				"element": "H" 
			}
		],
		 "valence_orbital": [ 
			{
				"type": "occ",
				"energy": -0.25468,
				"method": "rhf"
			},
			{
				"type": "occ",
				"energy": -0.24543,
				"method": "rhf"
			},
			{
				"type": "occ",
				"energy": -0.24061,
				"method": "rhf"
			},
			{
				"type": "occ",
				"energy": -0.23214,
				"method": "rhf"
			},
			{
				"type": "occ",
				"energy": -0.21383,
				"method": "rhf"
			},
			{
				"type": "unocc",
				"energy": -0.00759,
				"method": "rhf"
			},
			{
				"type": "unocc",
				"energy": 0.0043,
				"method": "rhf"
			},
			{
				"type": "unocc",
				"energy": 0.04723,
				"method": "rhf"
			},
			{
				"type": "unocc",
				"energy": 0.05917,
				"method": "rhf"
			},
			{
				"type": "unocc",
				"energy": 0.07633,
				"method": "rhf"
			}
		],
		"cosmo_sigma_profile": { 
			"-0.025": 0.0,
			"-0.024": 0.0,
			"-0.023": 0.0,
			"-0.022": 0.0,
			"-0.021": 0.0,
			"-0.02": 0.0,
			"-0.019": 0.0,
			"-0.018": 0.0,
			"-0.017": 0.0,
			"-0.016": 0.0,
			"-0.015": 0.0,
			"-0.014": 0.0,
			"-0.013": 0.0,
			"-0.012": 0.0,
			"-0.011": 0.325461464926,
			"-0.01": 1.03885109723,
			"-0.009": 2.49776648024,
			"-0.008": 4.48975530105,
			"-0.007": 5.02149091525,
			"-0.006": 11.3080191095,
			"-0.005": 16.6229001963,
			"-0.004": 23.0807528222,
			"-0.003": 33.2531517998,
			"-0.002": 38.3763467713,
			"-0.001": 30.8523126838,
			"0.0": 18.7320537958,
			"0.001": 15.3914003725,
			"0.002": 12.1927717616,
			"0.003": 14.5550588949,
			"0.004": 13.0846407342,
			"0.005": 11.6514447746,
			"0.006": 10.2638456553,
			"0.007": 3.55583893063,
			"0.008": 2.82885545301,
			"0.009": 1.83690765204,
			"0.01": 1.16606965572,
			"0.011": 3.22391022554,
			"0.012": 3.66795814741,
			"0.013": 3.70332845544,
			"0.014": 2.64521769238,
			"0.015": 0.901863625559,
			"0.016": 0.458197732185,
			"0.017": 0.386388731749,
			"0.018": 0.978540923612,
			"0.019": 0.37793923971,
			"0.02": 0.390638366505,
			"0.021": 0.0,
			"0.022": 0.0,
			"0.023": 0.0,
			"0.024": 0.0,
			"0.025": 0.0
		}
	}
}
