{
	 "smiles": "COC1=C(CC(O)=O)C=C(Cl)C=C1", 
	 "Tm": 405.15, 
	 "num_atms": 22, 
	 "gaussian": { 
		 "optdone": 1, 
		 "sigma_profile": "yes", 
		 "theory": "DFT", 
		 "functional": "B3LYP", 
		 "basiset": "6-31G**", 
		 "properties": { 
			 "R2extent": 4300.5378, 
			 "electric_dipole_moment_norm": 2.60314168842, 
			 "electric_quadrupole_moment_norm": 12.5641039382, 
			 "total_energy": -1034.25131272, 
			 "HOMO_LUMO_gap": 0.20562, 
			 "cosmo_polarized_energy": -12.99, 
			 "cosmo_cavitation_energy": 28.43, 
			 "cosmo_dispersion_energy": -20.24, 
			 "cosmo_repulsion_energy": 1.64, 
			 "cosmo_total_nonelectrostatic_energy": 9.83, 
			 "SMD_solvation_energy": 6.48 
		},
		"coords": [
			{
				"x": -1.1538963918,
				"y": 1.6270217673,
				"z": -1.1389244942,
				"element": "C" 
			},
			{
				"x": -0.2563887972,
				"y": 0.600001896,
				"z": -1.5341745635,
				"element": "O" 
			},
			{
				"x": -0.4633916888,
				"y": -0.6659545898,
				"z": -1.0686279343,
				"element": "C" 
			},
			{
				"x": 0.4853404797,
				"y": -1.6194434359,
				"z": -1.4942171462,
				"element": "C" 
			},
			{
				"x": 1.6016048241,
				"y": -1.1980044838,
				"z": -2.4194281649,
				"element": "C" 
			},
			{
				"x": 2.6049264131,
				"y": -0.2075903494,
				"z": -1.8436887123,
				"element": "C" 
			},
			{
				"x": 2.8351640052,
				"y": -0.4086827331,
				"z": -0.5252201958,
				"element": "O" 
			},
			{
				"x": 3.1844458944,
				"y": 0.6373386196,
				"z": -2.4873182824,
				"element": "O" 
			},
			{
				"x": 0.3518198416,
				"y": -2.9371153594,
				"z": -1.0645759981,
				"element": "C" 
			},
			{
				"x": -0.7038257973,
				"y": -3.3055378704,
				"z": -0.2274406386,
				"element": "C" 
			},
			{
				"x": -0.8469059709,
				"y": -4.979254889,
				"z": 0.2975837503,
				"element": "Cl" 
			},
			{
				"x": -1.6384809694,
				"y": -2.3672695198,
				"z": 0.1913473398,
				"element": "C" 
			},
			{
				"x": -1.5171958795,
				"y": -1.0402812874,
				"z": -0.2318053982,
				"element": "C" 
			},
			{
				"x": -2.1766797737,
				"y": 1.4195759059,
				"z": -1.4779093768,
				"element": "H" 
			},
			{
				"x": -0.7942397811,
				"y": 2.5394065419,
				"z": -1.6160734951,
				"element": "H" 
			},
			{
				"x": -1.1550506223,
				"y": 1.7626577341,
				"z": -0.0501333853,
				"element": "H" 
			},
			{
				"x": 2.1751865239,
				"y": -2.0808391122,
				"z": -2.7257637086,
				"element": "H" 
			},
			{
				"x": 1.212119823,
				"y": -0.732461532,
				"z": -3.3283334648,
				"element": "H" 
			},
			{
				"x": 3.5057309893,
				"y": 0.2473610122,
				"z": -0.270723607,
				"element": "H" 
			},
			{
				"x": 1.0725749365,
				"y": -3.6837390809,
				"z": -1.3814497513,
				"element": "H" 
			},
			{
				"x": -2.4556124881,
				"y": -2.6608893079,
				"z": 0.8407679556,
				"element": "H" 
			},
			{
				"x": -2.2494455706,
				"y": -0.3137999259,
				"z": 0.0991092719,
				"element": "H" 
			}
		],
		 "valence_orbital": [ 
			{
				"type": "occ",
				"energy": -0.31018,
				"method": "rhf"
			},
			{
				"type": "occ",
				"energy": -0.30681,
				"method": "rhf"
			},
			{
				"type": "occ",
				"energy": -0.27857,
				"method": "rhf"
			},
			{
				"type": "occ",
				"energy": -0.25741,
				"method": "rhf"
			},
			{
				"type": "occ",
				"energy": -0.22265,
				"method": "rhf"
			},
			{
				"type": "unocc",
				"energy": -0.01703,
				"method": "rhf"
			},
			{
				"type": "unocc",
				"energy": -0.0023,
				"method": "rhf"
			},
			{
				"type": "unocc",
				"energy": 0.01265,
				"method": "rhf"
			},
			{
				"type": "unocc",
				"energy": 0.03337,
				"method": "rhf"
			},
			{
				"type": "unocc",
				"energy": 0.07824,
				"method": "rhf"
			}
		],
		"cosmo_sigma_profile": { 
			"-0.025": 0.0,
			"-0.024": 0.0,
			"-0.023": 0.0,
			"-0.022": 0.0,
			"-0.021": 0.0,
			"-0.02": 0.0,
			"-0.019": 0.0108869337022,
			"-0.018": 0.673232433888,
			"-0.017": 1.26417886247,
			"-0.016": 0.512888885873,
			"-0.015": 0.956449768785,
			"-0.014": 0.58526956638,
			"-0.013": 0.670564309042,
			"-0.012": 0.549038145076,
			"-0.011": 0.648171341599,
			"-0.01": 0.806581097559,
			"-0.009": 0.753583557406,
			"-0.008": 3.93188580429,
			"-0.007": 10.0106686681,
			"-0.006": 14.7010027303,
			"-0.005": 17.2054588496,
			"-0.004": 15.252483139,
			"-0.003": 15.83035169,
			"-0.002": 11.2023761129,
			"-0.001": 9.95905700826,
			"0.0": 10.3827977399,
			"0.001": 12.2865057991,
			"0.002": 17.3980399539,
			"0.003": 18.3543679717,
			"0.004": 19.883929321,
			"0.005": 15.4038471931,
			"0.006": 5.99939230422,
			"0.007": 4.46564963894,
			"0.008": 3.31853903388,
			"0.009": 2.96145595907,
			"0.01": 2.13666014326,
			"0.011": 4.24782888577,
			"0.012": 4.76027911683,
			"0.013": 0.990056584133,
			"0.014": 0.0,
			"0.015": 0.0,
			"0.016": 0.0,
			"0.017": 0.0,
			"0.018": 0.0,
			"0.019": 0.0,
			"0.02": 0.0,
			"0.021": 0.0,
			"0.022": 0.0,
			"0.023": 0.0,
			"0.024": 0.0,
			"0.025": 0.0
		}
	}
}
