{
	 "smiles": "ClCC1=NC(=NO1)C1=NNC=N1", 
	 "Tm": 461.15, 
	 "num_atms": 16, 
	 "gaussian": { 
		 "optdone": 1, 
		 "sigma_profile": "yes", 
		 "theory": "DFT", 
		 "functional": "B3LYP", 
		 "basiset": "6-31G**", 
		 "properties": { 
			 "R2extent": 5109.1127, 
			 "electric_dipole_moment_norm": 4.36836983897, 
			 "electric_quadrupole_moment_norm": 20.7637382846, 
			 "total_energy": -1002.04947544, 
			 "HOMO_LUMO_gap": 0.21109, 
			 "cosmo_polarized_energy": -20.88, 
			 "cosmo_cavitation_energy": 24.22, 
			 "cosmo_dispersion_energy": -18.3, 
			 "cosmo_repulsion_energy": 1.48, 
			 "cosmo_total_nonelectrostatic_energy": 7.4, 
			 "SMD_solvation_energy": -0.26 
		},
		"coords": [
			{
				"x": 2.866712645,
				"y": 1.5693448399,
				"z": -5.2813553351,
				"element": "Cl" 
			},
			{
				"x": 1.3670236856,
				"y": 1.8768283548,
				"z": -4.3040136233,
				"element": "C" 
			},
			{
				"x": 1.0415542986,
				"y": 0.7289620193,
				"z": -3.4179428808,
				"element": "C" 
			},
			{
				"x": 1.2451622948,
				"y": 0.6300390752,
				"z": -2.1394227772,
				"element": "N" 
			},
			{
				"x": 0.7470563586,
				"y": -0.6279044141,
				"z": -1.8678386823,
				"element": "C" 
			},
			{
				"x": 0.2647245648,
				"y": -1.266427491,
				"z": -2.9127452378,
				"element": "N" 
			},
			{
				"x": 0.4588297649,
				"y": -0.3558996067,
				"z": -3.9564275899,
				"element": "O" 
			},
			{
				"x": 0.7483529651,
				"y": -1.213708563,
				"z": -0.5281638184,
				"element": "C" 
			},
			{
				"x": 1.2370789892,
				"y": -0.5558928581,
				"z": 0.5205677444,
				"element": "N" 
			},
			{
				"x": 1.0415198198,
				"y": -1.4453566317,
				"z": 1.5166084826,
				"element": "N" 
			},
			{
				"x": 0.4588761625,
				"y": -2.5730720245,
				"z": 1.0420562656,
				"element": "C" 
			},
			{
				"x": 0.2572500234,
				"y": -2.4610131886,
				"z": -0.2543651817,
				"element": "N" 
			},
			{
				"x": 0.5624664831,
				"y": 2.0626611934,
				"z": -5.0154610054,
				"element": "H" 
			},
			{
				"x": 1.5511012774,
				"y": 2.7578795057,
				"z": -3.6924599124,
				"element": "H" 
			},
			{
				"x": 1.3261245164,
				"y": -1.2130213944,
				"z": 2.4570119279,
				"element": "H" 
			},
			{
				"x": 0.2086661508,
				"y": -3.4226188162,
				"z": 1.662051624,
				"element": "H" 
			}
		],
		 "valence_orbital": [ 
			{
				"type": "occ",
				"energy": -0.31285,
				"method": "rhf"
			},
			{
				"type": "occ",
				"energy": -0.30728,
				"method": "rhf"
			},
			{
				"type": "occ",
				"energy": -0.30298,
				"method": "rhf"
			},
			{
				"type": "occ",
				"energy": -0.2912,
				"method": "rhf"
			},
			{
				"type": "occ",
				"energy": -0.26836,
				"method": "rhf"
			},
			{
				"type": "unocc",
				"energy": -0.05727,
				"method": "rhf"
			},
			{
				"type": "unocc",
				"energy": -0.02932,
				"method": "rhf"
			},
			{
				"type": "unocc",
				"energy": 0.0023,
				"method": "rhf"
			},
			{
				"type": "unocc",
				"energy": 0.04096,
				"method": "rhf"
			},
			{
				"type": "unocc",
				"energy": 0.0604,
				"method": "rhf"
			}
		],
		"cosmo_sigma_profile": { 
			"-0.025": 0.0,
			"-0.024": 0.0,
			"-0.023": 0.0,
			"-0.022": 0.0,
			"-0.021": 0.0,
			"-0.02": 0.0,
			"-0.019": 0.500417071577,
			"-0.018": 2.12410257395,
			"-0.017": 1.50636414691,
			"-0.016": 1.43749992714,
			"-0.015": 0.932909207811,
			"-0.014": 1.06155490288,
			"-0.013": 1.24501919589,
			"-0.012": 1.64694136218,
			"-0.011": 4.43758913865,
			"-0.01": 7.0833234312,
			"-0.009": 6.81129874824,
			"-0.008": 5.96302774029,
			"-0.007": 6.3985475992,
			"-0.006": 6.51601001392,
			"-0.005": 5.16226414018,
			"-0.004": 6.24394916924,
			"-0.003": 7.86866336319,
			"-0.002": 11.5442500051,
			"-0.001": 12.1326457583,
			"0.0": 10.6970828192,
			"0.001": 9.17396133169,
			"0.002": 9.2261222172,
			"0.003": 10.5519124732,
			"0.004": 12.2651925161,
			"0.005": 16.0860413789,
			"0.006": 5.51236525099,
			"0.007": 4.62610353476,
			"0.008": 4.08123377959,
			"0.009": 3.61917916016,
			"0.01": 4.25793096324,
			"0.011": 4.36837799641,
			"0.012": 4.65107823874,
			"0.013": 4.829926211,
			"0.014": 2.29114237521,
			"0.015": 1.19526530381,
			"0.016": 0.0487702918756,
			"0.017": 0.0,
			"0.018": 0.0,
			"0.019": 0.0,
			"0.02": 0.0,
			"0.021": 0.0,
			"0.022": 0.0,
			"0.023": 0.0,
			"0.024": 0.0,
			"0.025": 0.0
		}
	}
}
