{
	 "smiles": "CNCCC=C1C2=CC=CC=C2CCC2=CC=CC=C12", 
	 "Tm": 487.15, 
	 "num_atms": 41, 
	 "gaussian": { 
		 "optdone": 1, 
		 "sigma_profile": "yes", 
		 "theory": "DFT", 
		 "functional": "B3LYP", 
		 "basiset": "6-31G**", 
		 "properties": { 
			 "R2extent": 5996.095, 
			 "electric_dipole_moment_norm": 1.47884658095, 
			 "electric_quadrupole_moment_norm": 3.11489089857, 
			 "total_energy": -791.418010366, 
			 "HOMO_LUMO_gap": 0.1916, 
			 "cosmo_polarized_energy": -8.02, 
			 "cosmo_cavitation_energy": 41.65, 
			 "cosmo_dispersion_energy": -28.45, 
			 "cosmo_repulsion_energy": 2.22, 
			 "cosmo_total_nonelectrostatic_energy": 15.42, 
			 "SMD_solvation_energy": 4.45 
		},
		"coords": [
			{
				"x": -4.3453306728,
				"y": 2.0961831309,
				"z": -0.5664233872,
				"element": "C" 
			},
			{
				"x": -3.9177599576,
				"y": 2.422063322,
				"z": 0.7907958245,
				"element": "N" 
			},
			{
				"x": -2.5135842599,
				"y": 2.8329366578,
				"z": 0.9115927178,
				"element": "C" 
			},
			{
				"x": -1.6053428554,
				"y": 1.7348347171,
				"z": 1.5120617148,
				"element": "C" 
			},
			{
				"x": -1.6307820967,
				"y": 0.4447223608,
				"z": 0.7435615373,
				"element": "C" 
			},
			{
				"x": -0.6061042922,
				"y": -0.1658448683,
				"z": 0.1125841415,
				"element": "C" 
			},
			{
				"x": 0.7868301285,
				"y": 0.3778794637,
				"z": 0.1282583805,
				"element": "C" 
			},
			{
				"x": 1.5171000751,
				"y": 0.4677488944,
				"z": 1.3208563814,
				"element": "C" 
			},
			{
				"x": 2.8176588968,
				"y": 0.9749170941,
				"z": 1.3272016962,
				"element": "C" 
			},
			{
				"x": 3.4027450687,
				"y": 1.3965926684,
				"z": 0.1333964212,
				"element": "C" 
			},
			{
				"x": 2.6835274484,
				"y": 1.3037490812,
				"z": -1.0596579806,
				"element": "C" 
			},
			{
				"x": 1.380871135,
				"y": 0.7959794625,
				"z": -1.0776538645,
				"element": "C" 
			},
			{
				"x": 0.5996852096,
				"y": 0.6515000173,
				"z": -2.360206998,
				"element": "C" 
			},
			{
				"x": 0.4478283411,
				"y": -0.8175206704,
				"z": -2.7899810131,
				"element": "C" 
			},
			{
				"x": -0.3610790742,
				"y": -1.7560136307,
				"z": -1.8997790379,
				"element": "C" 
			},
			{
				"x": -0.6555612634,
				"y": -3.012918166,
				"z": -2.4529790058,
				"element": "C" 
			},
			{
				"x": -1.3895632861,
				"y": -3.9763198224,
				"z": -1.7689880483,
				"element": "C" 
			},
			{
				"x": -1.8539653108,
				"y": -3.6922246387,
				"z": -0.4845133362,
				"element": "C" 
			},
			{
				"x": -1.5728032038,
				"y": -2.4543970894,
				"z": 0.0826574197,
				"element": "C" 
			},
			{
				"x": -0.837537935,
				"y": -1.4639537003,
				"z": -0.6002451894,
				"element": "C" 
			},
			{
				"x": -3.8030014747,
				"y": 1.2174848863,
				"z": -0.9285565162,
				"element": "H" 
			},
			{
				"x": -5.4114144447,
				"y": 1.8469461196,
				"z": -0.5633542687,
				"element": "H" 
			},
			{
				"x": -4.1837575914,
				"y": 2.907544361,
				"z": -1.2997966369,
				"element": "H" 
			},
			{
				"x": -4.5177053313,
				"y": 3.1522823158,
				"z": 1.1580314977,
				"element": "H" 
			},
			{
				"x": -2.4530345428,
				"y": 3.7069920032,
				"z": 1.5714847992,
				"element": "H" 
			},
			{
				"x": -2.1038894605,
				"y": 3.1487284786,
				"z": -0.061863744,
				"element": "H" 
			},
			{
				"x": -0.5870458726,
				"y": 2.1284093473,
				"z": 1.586989562,
				"element": "H" 
			},
			{
				"x": -1.959585903,
				"y": 1.5426720749,
				"z": 2.5346241901,
				"element": "H" 
			},
			{
				"x": -2.6125066102,
				"y": -0.020636925,
				"z": 0.6774600714,
				"element": "H" 
			},
			{
				"x": 1.0600819726,
				"y": 0.1290873612,
				"z": 2.2463130497,
				"element": "H" 
			},
			{
				"x": 3.3703143425,
				"y": 1.0366382292,
				"z": 2.2604412753,
				"element": "H" 
			},
			{
				"x": 4.4137727281,
				"y": 1.7941150462,
				"z": 0.1287949208,
				"element": "H" 
			},
			{
				"x": 3.1374206026,
				"y": 1.6332433819,
				"z": -1.9915458319,
				"element": "H" 
			},
			{
				"x": -0.3935164369,
				"y": 1.1035139676,
				"z": -2.2473169403,
				"element": "H" 
			},
			{
				"x": 1.1058843298,
				"y": 1.1936662537,
				"z": -3.1664200407,
				"element": "H" 
			},
			{
				"x": -0.002971136,
				"y": -0.8387802866,
				"z": -3.7906192162,
				"element": "H" 
			},
			{
				"x": 1.4544141632,
				"y": -1.2422007366,
				"z": -2.9107852175,
				"element": "H" 
			},
			{
				"x": -0.2983665459,
				"y": -3.2311741188,
				"z": -3.4574245,
				"element": "H" 
			},
			{
				"x": -1.5938604176,
				"y": -4.9373977697,
				"z": -2.2323467981,
				"element": "H" 
			},
			{
				"x": -2.4198223815,
				"y": -4.4309456768,
				"z": 0.0759702135,
				"element": "H" 
			},
			{
				"x": -1.9067420852,
				"y": -2.2399025971,
				"z": 1.0929817571,
				"element": "H" 
			}
		],
		 "valence_orbital": [ 
			{
				"type": "occ",
				"energy": -0.24035,
				"method": "rhf"
			},
			{
				"type": "occ",
				"energy": -0.23515,
				"method": "rhf"
			},
			{
				"type": "occ",
				"energy": -0.22978,
				"method": "rhf"
			},
			{
				"type": "occ",
				"energy": -0.22123,
				"method": "rhf"
			},
			{
				"type": "occ",
				"energy": -0.20842,
				"method": "rhf"
			},
			{
				"type": "unocc",
				"energy": -0.01682,
				"method": "rhf"
			},
			{
				"type": "unocc",
				"energy": 0.00053,
				"method": "rhf"
			},
			{
				"type": "unocc",
				"energy": 0.00877,
				"method": "rhf"
			},
			{
				"type": "unocc",
				"energy": 0.01079,
				"method": "rhf"
			},
			{
				"type": "unocc",
				"energy": 0.04362,
				"method": "rhf"
			}
		],
		"cosmo_sigma_profile": { 
			"-0.025": 0.0,
			"-0.024": 0.0,
			"-0.023": 0.0,
			"-0.022": 0.0,
			"-0.021": 0.0,
			"-0.02": 0.0,
			"-0.019": 0.0,
			"-0.018": 0.0,
			"-0.017": 0.0,
			"-0.016": 0.0,
			"-0.015": 0.0,
			"-0.014": 0.0,
			"-0.013": 0.0,
			"-0.012": 0.0,
			"-0.011": 0.0,
			"-0.01": 0.750744805057,
			"-0.009": 1.50250367904,
			"-0.008": 1.3453698053,
			"-0.007": 1.07793244091,
			"-0.006": 3.32040846546,
			"-0.005": 15.4954735638,
			"-0.004": 24.5533892625,
			"-0.003": 35.3625315709,
			"-0.002": 40.4191806261,
			"-0.001": 41.8606009408,
			"0.0": 39.8260125635,
			"0.001": 25.6155035111,
			"0.002": 20.1556103822,
			"0.003": 17.643267868,
			"0.004": 16.9050388944,
			"0.005": 15.0484844643,
			"0.006": 16.0345164636,
			"0.007": 5.44284621039,
			"0.008": 0.968239560971,
			"0.009": 0.758070795618,
			"0.01": 0.401267942431,
			"0.011": 0.981880541131,
			"0.012": 0.498869190912,
			"0.013": 0.363690551513,
			"0.014": 0.337758915533,
			"0.015": 0.343011370333,
			"0.016": 0.551020804476,
			"0.017": 0.481035384671,
			"0.018": 0.0,
			"0.019": 0.0,
			"0.02": 0.0,
			"0.021": 0.0,
			"0.022": 0.0,
			"0.023": 0.0,
			"0.024": 0.0,
			"0.025": 0.0
		}
	}
}
