{
	 "smiles": "CCCC1=NN(C(Cl)=C1C(O)=O)C1=C(F)C=CC=C1", 
	 "Tm": 443.15, 
	 "num_atms": 31, 
	 "gaussian": { 
		 "optdone": 1, 
		 "sigma_profile": "yes", 
		 "theory": "DFT", 
		 "functional": "B3LYP", 
		 "basiset": "6-31G**", 
		 "properties": { 
			 "R2extent": 6864.0485, 
			 "electric_dipole_moment_norm": 3.23363277754, 
			 "electric_quadrupole_moment_norm": 11.0314430942, 
			 "total_energy": -1322.59285891, 
			 "HOMO_LUMO_gap": 0.20608, 
			 "cosmo_polarized_energy": -11.47, 
			 "cosmo_cavitation_energy": 37.44, 
			 "cosmo_dispersion_energy": -25.95, 
			 "cosmo_repulsion_energy": 2.0, 
			 "cosmo_total_nonelectrostatic_energy": 13.49, 
			 "SMD_solvation_energy": 6.81 
		},
		"coords": [
			{
				"x": -0.0867885464,
				"y": 2.1186845856,
				"z": -2.7562743762,
				"element": "C" 
			},
			{
				"x": 0.3538190293,
				"y": 0.6600604848,
				"z": -2.9070964217,
				"element": "C" 
			},
			{
				"x": 0.9690347549,
				"y": 0.0538100154,
				"z": -1.6262265645,
				"element": "C" 
			},
			{
				"x": 0.011084293,
				"y": -0.041285003,
				"z": -0.4739722214,
				"element": "C" 
			},
			{
				"x": 0.073159865,
				"y": 0.8391323092,
				"z": 0.5159127743,
				"element": "N" 
			},
			{
				"x": -0.9193314739,
				"y": 0.4867197359,
				"z": 1.394369,
				"element": "N" 
			},
			{
				"x": -1.6066553213,
				"y": -0.59984634,
				"z": 0.9556240821,
				"element": "C" 
			},
			{
				"x": -2.9632158915,
				"y": -1.2127785263,
				"z": 1.8096107827,
				"element": "Cl" 
			},
			{
				"x": -1.0385065271,
				"y": -0.990710402,
				"z": -0.255250343,
				"element": "C" 
			},
			{
				"x": -1.3701225284,
				"y": -2.113428951,
				"z": -1.1342030621,
				"element": "C" 
			},
			{
				"x": -2.3804349848,
				"y": -2.8883624639,
				"z": -0.6720412792,
				"element": "O" 
			},
			{
				"x": -0.8049283798,
				"y": -2.3565407982,
				"z": -2.1866886807,
				"element": "O" 
			},
			{
				"x": -1.1180523252,
				"y": 1.2728436183,
				"z": 2.5629511397,
				"element": "C" 
			},
			{
				"x": -1.0459363615,
				"y": 0.7003413851,
				"z": 3.8355610197,
				"element": "C" 
			},
			{
				"x": -0.8003529703,
				"y": -0.6159622899,
				"z": 3.9524140045,
				"element": "F" 
			},
			{
				"x": -1.2143200248,
				"y": 1.4659841385,
				"z": 4.9823551046,
				"element": "C" 
			},
			{
				"x": -1.4317678928,
				"y": 2.8380136796,
				"z": 4.8557907425,
				"element": "C" 
			},
			{
				"x": -1.4789810505,
				"y": 3.4313411341,
				"z": 3.5916396898,
				"element": "C" 
			},
			{
				"x": -1.3239926186,
				"y": 2.6500424822,
				"z": 2.4485035775,
				"element": "C" 
			},
			{
				"x": -0.5045806456,
				"y": 2.5003683954,
				"z": -3.6937622732,
				"element": "H" 
			},
			{
				"x": -0.8512155569,
				"y": 2.2298241991,
				"z": -1.9803052887,
				"element": "H" 
			},
			{
				"x": 0.7560290396,
				"y": 2.7620864352,
				"z": -2.4788190138,
				"element": "H" 
			},
			{
				"x": -0.4883569359,
				"y": 0.0351348332,
				"z": -3.2213546978,
				"element": "H" 
			},
			{
				"x": 1.1044830315,
				"y": 0.5851785062,
				"z": -3.7035195016,
				"element": "H" 
			},
			{
				"x": 1.8162264181,
				"y": 0.6657680524,
				"z": -1.2973624962,
				"element": "H" 
			},
			{
				"x": 1.3397191783,
				"y": -0.9484594504,
				"z": -1.8580392071,
				"element": "H" 
			},
			{
				"x": -2.495172047,
				"y": -3.586970663,
				"z": -1.3376480964,
				"element": "H" 
			},
			{
				"x": -1.1565337938,
				"y": 0.9794058754,
				"z": 5.9497516674,
				"element": "H" 
			},
			{
				"x": -1.5584211621,
				"y": 3.4432058917,
				"z": 5.7479943124,
				"element": "H" 
			},
			{
				"x": -1.6400791012,
				"y": 4.4999423467,
				"z": 3.4950243882,
				"element": "H" 
			},
			{
				"x": -1.3496094703,
				"y": 3.0879567837,
				"z": 1.4569612382,
				"element": "H" 
			}
		],
		 "valence_orbital": [ 
			{
				"type": "occ",
				"energy": -0.28917,
				"method": "rhf"
			},
			{
				"type": "occ",
				"energy": -0.27567,
				"method": "rhf"
			},
			{
				"type": "occ",
				"energy": -0.26606,
				"method": "rhf"
			},
			{
				"type": "occ",
				"energy": -0.2542,
				"method": "rhf"
			},
			{
				"type": "occ",
				"energy": -0.2492,
				"method": "rhf"
			},
			{
				"type": "unocc",
				"energy": -0.04312,
				"method": "rhf"
			},
			{
				"type": "unocc",
				"energy": -0.02074,
				"method": "rhf"
			},
			{
				"type": "unocc",
				"energy": -0.01572,
				"method": "rhf"
			},
			{
				"type": "unocc",
				"energy": 0.01274,
				"method": "rhf"
			},
			{
				"type": "unocc",
				"energy": 0.02578,
				"method": "rhf"
			}
		],
		"cosmo_sigma_profile": { 
			"-0.025": 0.0,
			"-0.024": 0.0,
			"-0.023": 0.0,
			"-0.022": 0.0,
			"-0.021": 0.0,
			"-0.02": 0.0,
			"-0.019": 0.0352630836497,
			"-0.018": 0.840514573195,
			"-0.017": 0.864281788173,
			"-0.016": 0.819345322386,
			"-0.015": 0.725452852699,
			"-0.014": 0.56876743473,
			"-0.013": 0.339613314372,
			"-0.012": 0.908779732479,
			"-0.011": 1.09556756907,
			"-0.01": 0.862011891346,
			"-0.009": 0.372682583173,
			"-0.008": 2.23543334706,
			"-0.007": 8.3823615026,
			"-0.006": 8.97414258408,
			"-0.005": 10.2219410762,
			"-0.004": 10.6956634332,
			"-0.003": 19.0009361837,
			"-0.002": 28.8838482753,
			"-0.001": 38.756064131,
			"0.0": 38.559670966,
			"0.001": 31.5097094822,
			"0.002": 25.9642181882,
			"0.003": 23.7507293146,
			"0.004": 11.3035422296,
			"0.005": 6.12697916052,
			"0.006": 4.72361091749,
			"0.007": 4.83268680752,
			"0.008": 5.56083712808,
			"0.009": 2.96728608715,
			"0.01": 1.64488062716,
			"0.011": 3.82485863037,
			"0.012": 3.66228005789,
			"0.013": 0.813619881136,
			"0.014": 0.448759513388,
			"0.015": 0.019684215481,
			"0.016": 0.0,
			"0.017": 0.0,
			"0.018": 0.0,
			"0.019": 0.0,
			"0.02": 0.0,
			"0.021": 0.0,
			"0.022": 0.0,
			"0.023": 0.0,
			"0.024": 0.0,
			"0.025": 0.0
		}
	}
}
