{
	 "smiles": "CCN(CC)S(=O)(=O)C1=CC(N)=C(OC2=CC(C)=CC=C2)C=C1", 
	 "Tm": 396.15, 
	 "num_atms": 45, 
	 "gaussian": { 
		 "optdone": 1, 
		 "sigma_profile": "yes", 
		 "theory": "DFT", 
		 "functional": "B3LYP", 
		 "basiset": "6-31G**", 
		 "properties": { 
			 "R2extent": 11202.862, 
			 "electric_dipole_moment_norm": 5.544696062, 
			 "electric_quadrupole_moment_norm": 29.119968382, 
			 "total_energy": -1394.36905113, 
			 "HOMO_LUMO_gap": 0.18294, 
			 "cosmo_polarized_energy": -18.03, 
			 "cosmo_cavitation_energy": 48.59, 
			 "cosmo_dispersion_energy": -33.07, 
			 "cosmo_repulsion_energy": 2.53, 
			 "cosmo_total_nonelectrostatic_energy": 18.04, 
			 "SMD_solvation_energy": 7.58 
		},
		"coords": [
			{
				"x": -2.8486459529,
				"y": 1.1194916547,
				"z": 0.2648816066,
				"element": "C" 
			},
			{
				"x": -3.4675087845,
				"y": 0.8672834342,
				"z": -1.1143895701,
				"element": "C" 
			},
			{
				"x": -2.805846408,
				"y": -0.1857478121,
				"z": -1.8943584203,
				"element": "N" 
			},
			{
				"x": -3.0415916197,
				"y": -1.594648687,
				"z": -1.5466214228,
				"element": "C" 
			},
			{
				"x": -4.2616944513,
				"y": -2.1902494353,
				"z": -2.2525466873,
				"element": "C" 
			},
			{
				"x": -1.719526344,
				"y": 0.1885566559,
				"z": -3.1045932119,
				"element": "S" 
			},
			{
				"x": -2.019232383,
				"y": 1.5583981488,
				"z": -3.5342864198,
				"element": "O" 
			},
			{
				"x": -1.733092456,
				"y": -0.9418348075,
				"z": -4.0404078055,
				"element": "O" 
			},
			{
				"x": -0.0824429582,
				"y": 0.2170783599,
				"z": -2.3606405637,
				"element": "C" 
			},
			{
				"x": 0.6755703492,
				"y": -0.9540485421,
				"z": -2.3532998114,
				"element": "C" 
			},
			{
				"x": 1.9384871471,
				"y": -0.9720958877,
				"z": -1.745055656,
				"element": "C" 
			},
			{
				"x": 2.7079679498,
				"y": -2.1246312211,
				"z": -1.6699833259,
				"element": "N" 
			},
			{
				"x": 2.4071610316,
				"y": 0.2236161941,
				"z": -1.1573075274,
				"element": "C" 
			},
			{
				"x": 3.6951650914,
				"y": 0.1702522464,
				"z": -0.6567556091,
				"element": "O" 
			},
			{
				"x": 4.0311757377,
				"y": 0.8249539519,
				"z": 0.5183765914,
				"element": "C" 
			},
			{
				"x": 3.1703676613,
				"y": 0.8791958583,
				"z": 1.6163545108,
				"element": "C" 
			},
			{
				"x": 3.5840603268,
				"y": 1.4957127128,
				"z": 2.8036923867,
				"element": "C" 
			},
			{
				"x": 2.6685346385,
				"y": 1.5261389861,
				"z": 4.005759706,
				"element": "C" 
			},
			{
				"x": 4.8699658449,
				"y": 2.0499492929,
				"z": 2.8651482951,
				"element": "C" 
			},
			{
				"x": 5.72542263,
				"y": 1.9827169689,
				"z": 1.764918288,
				"element": "C" 
			},
			{
				"x": 5.3124715809,
				"y": 1.3728595961,
				"z": 0.5812377051,
				"element": "C" 
			},
			{
				"x": 1.6532867072,
				"y": 1.3939494153,
				"z": -1.1937234543,
				"element": "C" 
			},
			{
				"x": 0.3930498814,
				"y": 1.4001475414,
				"z": -1.7918646658,
				"element": "C" 
			},
			{
				"x": -2.8593190275,
				"y": 0.2176226317,
				"z": 0.885854116,
				"element": "H" 
			},
			{
				"x": -1.8118157296,
				"y": 1.4553117955,
				"z": 0.1756328586,
				"element": "H" 
			},
			{
				"x": -3.4160690259,
				"y": 1.892979341,
				"z": 0.7937975397,
				"element": "H" 
			},
			{
				"x": -4.5205472835,
				"y": 0.5782758774,
				"z": -1.0073543187,
				"element": "H" 
			},
			{
				"x": -3.4543109984,
				"y": 1.7779470733,
				"z": -1.7153082443,
				"element": "H" 
			},
			{
				"x": -3.1583585046,
				"y": -1.651047443,
				"z": -0.4579641078,
				"element": "H" 
			},
			{
				"x": -2.1495789608,
				"y": -2.1764513102,
				"z": -1.7918890374,
				"element": "H" 
			},
			{
				"x": -4.1081108294,
				"y": -2.1813320272,
				"z": -3.3338386137,
				"element": "H" 
			},
			{
				"x": -4.4227979555,
				"y": -3.2242270127,
				"z": -1.9274091974,
				"element": "H" 
			},
			{
				"x": -5.1691459382,
				"y": -1.6211201321,
				"z": -2.0257254106,
				"element": "H" 
			},
			{
				"x": 0.2948007587,
				"y": -1.844359717,
				"z": -2.842626316,
				"element": "H" 
			},
			{
				"x": 3.6877825472,
				"y": -1.9624404708,
				"z": -1.4845581546,
				"element": "H" 
			},
			{
				"x": 2.5405954412,
				"y": -2.8099387064,
				"z": -2.3925034439,
				"element": "H" 
			},
			{
				"x": 2.18056107,
				"y": 0.4395076357,
				"z": 1.5450312131,
				"element": "H" 
			},
			{
				"x": 2.8743509376,
				"y": 2.3921291901,
				"z": 4.641663668,
				"element": "H" 
			},
			{
				"x": 1.6162429797,
				"y": 1.5647786239,
				"z": 3.7087772486,
				"element": "H" 
			},
			{
				"x": 2.7995954257,
				"y": 0.6293467995,
				"z": 4.6240879036,
				"element": "H" 
			},
			{
				"x": 5.2007503528,
				"y": 2.535911673,
				"z": 3.7789772789,
				"element": "H" 
			},
			{
				"x": 6.7191086656,
				"y": 2.4173262347,
				"z": 1.8242003242,
				"element": "H" 
			},
			{
				"x": 5.9574608778,
				"y": 1.3161408132,
				"z": -0.2890709287,
				"element": "H" 
			},
			{
				"x": 2.0635687634,
				"y": 2.3007781217,
				"z": -0.762368175,
				"element": "H" 
			},
			{
				"x": -0.1904687866,
				"y": 2.3109163838,
				"z": -1.8542411411,
				"element": "H" 
			}
		],
		 "valence_orbital": [ 
			{
				"type": "occ",
				"energy": -0.26681,
				"method": "rhf"
			},
			{
				"type": "occ",
				"energy": -0.25071,
				"method": "rhf"
			},
			{
				"type": "occ",
				"energy": -0.23903,
				"method": "rhf"
			},
			{
				"type": "occ",
				"energy": -0.2324,
				"method": "rhf"
			},
			{
				"type": "occ",
				"energy": -0.20745,
				"method": "rhf"
			},
			{
				"type": "unocc",
				"energy": -0.02451,
				"method": "rhf"
			},
			{
				"type": "unocc",
				"energy": -0.01176,
				"method": "rhf"
			},
			{
				"type": "unocc",
				"energy": -0.00018,
				"method": "rhf"
			},
			{
				"type": "unocc",
				"energy": 0.00191,
				"method": "rhf"
			},
			{
				"type": "unocc",
				"energy": 0.06661,
				"method": "rhf"
			}
		],
		"cosmo_sigma_profile": { 
			"-0.025": 0.0,
			"-0.024": 0.0,
			"-0.023": 0.0,
			"-0.022": 0.0,
			"-0.021": 0.0,
			"-0.02": 0.0,
			"-0.019": 0.0,
			"-0.018": 0.0,
			"-0.017": 0.0,
			"-0.016": 0.0,
			"-0.015": 0.0,
			"-0.014": 0.0896590233906,
			"-0.013": 1.29213592371,
			"-0.012": 1.97644086153,
			"-0.011": 2.63174565482,
			"-0.01": 3.19529011488,
			"-0.009": 2.9764654574,
			"-0.008": 3.76222875126,
			"-0.007": 3.88976820809,
			"-0.006": 9.25417925177,
			"-0.005": 19.956080599,
			"-0.004": 33.2542049756,
			"-0.003": 36.9734951044,
			"-0.002": 35.9621869567,
			"-0.001": 35.5365052337,
			"0.0": 34.3099795462,
			"0.001": 33.4971647767,
			"0.002": 24.9599621645,
			"0.003": 25.8048674201,
			"0.004": 19.1597181977,
			"0.005": 13.4461391804,
			"0.006": 8.02750552698,
			"0.007": 4.22946677028,
			"0.008": 4.75878431931,
			"0.009": 4.11517847111,
			"0.01": 5.56605620425,
			"0.011": 7.9965896621,
			"0.012": 6.34605840912,
			"0.013": 0.800732479943,
			"0.014": 0.116184698056,
			"0.015": 0.0,
			"0.016": 0.0,
			"0.017": 0.0,
			"0.018": 0.0,
			"0.019": 0.0,
			"0.02": 0.0,
			"0.021": 0.0,
			"0.022": 0.0,
			"0.023": 0.0,
			"0.024": 0.0,
			"0.025": 0.0
		}
	}
}
