{
	 "smiles": "O(C1=CC=CC=C1)[Si](OC1=CC=CC=C1)(OC1=CC=CC=C1)OC1=CC=CC=C1", 
	 "Tm": 322.15, 
	 "num_atms": 49, 
	 "gaussian": { 
		 "optdone": 1, 
		 "sigma_profile": "yes", 
		 "theory": "DFT", 
		 "functional": "B3LYP", 
		 "basiset": "6-31G**", 
		 "properties": { 
			 "R2extent": 12329.1708, 
			 "electric_dipole_moment_norm": 1.37729747332, 
			 "electric_quadrupole_moment_norm": 8.91776825949, 
			 "total_energy": -1517.16634619, 
			 "HOMO_LUMO_gap": 0.22105, 
			 "cosmo_polarized_energy": -11.26, 
			 "cosmo_cavitation_energy": 56.54, 
			 "cosmo_dispersion_energy": -34.67, 
			 "cosmo_repulsion_energy": 2.74, 
			 "cosmo_total_nonelectrostatic_energy": 24.61, 
			 "SMD_solvation_energy": 9.53 
		},
		"coords": [
			{
				"x": -0.8652460066,
				"y": -1.142534918,
				"z": -1.1468527417,
				"element": "O" 
			},
			{
				"x": -0.8776606283,
				"y": -1.3276686952,
				"z": -2.5157024027,
				"element": "C" 
			},
			{
				"x": 0.2604504766,
				"y": -1.0957140888,
				"z": -3.2921624665,
				"element": "C" 
			},
			{
				"x": 0.2083842666,
				"y": -1.3361607383,
				"z": -4.6662196378,
				"element": "C" 
			},
			{
				"x": -0.9614413983,
				"y": -1.8128168063,
				"z": -5.260579446,
				"element": "C" 
			},
			{
				"x": -2.0882623178,
				"y": -2.0502156412,
				"z": -4.4699927322,
				"element": "C" 
			},
			{
				"x": -2.0518231838,
				"y": -1.8095727003,
				"z": -3.0966656943,
				"element": "C" 
			},
			{
				"x": -0.3640808977,
				"y": 0.1412040116,
				"z": -0.2643955067,
				"element": "Si" 
			},
			{
				"x": -1.1198948751,
				"y": 1.465783899,
				"z": -0.8948807268,
				"element": "O" 
			},
			{
				"x": -0.9158792283,
				"y": 2.8094662278,
				"z": -0.6557719817,
				"element": "C" 
			},
			{
				"x": -0.612188258,
				"y": 3.2972117889,
				"z": 0.61854601,
				"element": "C" 
			},
			{
				"x": -0.4473535892,
				"y": 4.6711780843,
				"z": 0.8025561703,
				"element": "C" 
			},
			{
				"x": -0.5926492913,
				"y": 5.5542507559,
				"z": -0.2682854911,
				"element": "C" 
			},
			{
				"x": -0.9048762025,
				"y": 5.0544840617,
				"z": -1.5350041162,
				"element": "C" 
			},
			{
				"x": -1.0669490604,
				"y": 3.6840677588,
				"z": -1.7343350376,
				"element": "C" 
			},
			{
				"x": 1.2679276355,
				"y": 0.2797896781,
				"z": -0.3576114696,
				"element": "O" 
			},
			{
				"x": 2.2224333829,
				"y": 0.8934073907,
				"z": 0.4297051336,
				"element": "C" 
			},
			{
				"x": 3.1185786284,
				"y": 1.7662786655,
				"z": -0.190420469,
				"element": "C" 
			},
			{
				"x": 4.1287447393,
				"y": 2.3623676512,
				"z": 0.5640463093,
				"element": "C" 
			},
			{
				"x": 4.2466233467,
				"y": 2.0905924049,
				"z": 1.9289303838,
				"element": "C" 
			},
			{
				"x": 3.3462385318,
				"y": 1.2131725546,
				"z": 2.5359130317,
				"element": "C" 
			},
			{
				"x": 2.3327294007,
				"y": 0.6058703529,
				"z": 1.7924905222,
				"element": "C" 
			},
			{
				"x": -0.7538338513,
				"y": -0.148987565,
				"z": 1.3084942369,
				"element": "O" 
			},
			{
				"x": -1.9818707758,
				"y": -0.4300963717,
				"z": 1.8793707861,
				"element": "C" 
			},
			{
				"x": -3.1461129414,
				"y": 0.2430500963,
				"z": 1.4995289484,
				"element": "C" 
			},
			{
				"x": -4.3485803906,
				"y": -0.0607526534,
				"z": 2.1405951621,
				"element": "C" 
			},
			{
				"x": -4.3929026942,
				"y": -1.0184938346,
				"z": 3.1547863495,
				"element": "C" 
			},
			{
				"x": -3.2202881863,
				"y": -1.6789362151,
				"z": 3.5286520472,
				"element": "C" 
			},
			{
				"x": -2.0130083822,
				"y": -1.388613019,
				"z": 2.8941510833,
				"element": "C" 
			},
			{
				"x": 1.1698824771,
				"y": -0.7411466317,
				"z": -2.8183086838,
				"element": "H" 
			},
			{
				"x": 1.0920211068,
				"y": -1.1544215925,
				"z": -5.2714367741,
				"element": "H" 
			},
			{
				"x": -0.9940971157,
				"y": -2.0006874168,
				"z": -6.3294516159,
				"element": "H" 
			},
			{
				"x": -3.0024560845,
				"y": -2.4241794615,
				"z": -4.9221143798,
				"element": "H" 
			},
			{
				"x": -2.916080283,
				"y": -1.9888128705,
				"z": -2.4657317743,
				"element": "H" 
			},
			{
				"x": -0.5109719168,
				"y": 2.6118289615,
				"z": 1.4540102628,
				"element": "H" 
			},
			{
				"x": -0.2068744828,
				"y": 5.0484579886,
				"z": 1.7922486776,
				"element": "H" 
			},
			{
				"x": -0.4652539879,
				"y": 6.6218148498,
				"z": -0.1175382146,
				"element": "H" 
			},
			{
				"x": -1.0220915299,
				"y": 5.7330918291,
				"z": -2.3751031186,
				"element": "H" 
			},
			{
				"x": -1.3092920581,
				"y": 3.2761417969,
				"z": -2.7100628645,
				"element": "H" 
			},
			{
				"x": 3.0110385656,
				"y": 1.9671392871,
				"z": -1.2511589636,
				"element": "H" 
			},
			{
				"x": 4.8243849761,
				"y": 3.0425579268,
				"z": 0.0810380714,
				"element": "H" 
			},
			{
				"x": 5.0341300194,
				"y": 2.5566959426,
				"z": 2.5132206387,
				"element": "H" 
			},
			{
				"x": 3.432194288,
				"y": 0.9920295947,
				"z": 3.5960502632,
				"element": "H" 
			},
			{
				"x": 1.6307535374,
				"y": -0.0798276132,
				"z": 2.2525719017,
				"element": "H" 
			},
			{
				"x": -3.1080507489,
				"y": 0.9947797436,
				"z": 0.7186851913,
				"element": "H" 
			},
			{
				"x": -5.2537832973,
				"y": 0.4613394173,
				"z": 1.8440105721,
				"element": "H" 
			},
			{
				"x": -5.3314678977,
				"y": -1.2476609261,
				"z": 3.6500092187,
				"element": "H" 
			},
			{
				"x": -3.2424952961,
				"y": -2.426096694,
				"z": 4.3167834972,
				"element": "H" 
			},
			{
				"x": -1.0932985212,
				"y": -1.8945562668,
				"z": 3.1686918398,
				"element": "H" 
			}
		],
		 "valence_orbital": [ 
			{
				"type": "occ",
				"energy": -0.24971,
				"method": "rhf"
			},
			{
				"type": "occ",
				"energy": -0.23913,
				"method": "rhf"
			},
			{
				"type": "occ",
				"energy": -0.23398,
				"method": "rhf"
			},
			{
				"type": "occ",
				"energy": -0.23139,
				"method": "rhf"
			},
			{
				"type": "occ",
				"energy": -0.22708,
				"method": "rhf"
			},
			{
				"type": "unocc",
				"energy": -0.00603,
				"method": "rhf"
			},
			{
				"type": "unocc",
				"energy": -0.00392,
				"method": "rhf"
			},
			{
				"type": "unocc",
				"energy": -0.00279,
				"method": "rhf"
			},
			{
				"type": "unocc",
				"energy": -0.00156,
				"method": "rhf"
			},
			{
				"type": "unocc",
				"energy": 0.00423,
				"method": "rhf"
			}
		],
		"cosmo_sigma_profile": { 
			"-0.025": 0.0,
			"-0.024": 0.0,
			"-0.023": 0.0,
			"-0.022": 0.0,
			"-0.021": 0.0,
			"-0.02": 0.0,
			"-0.019": 0.0,
			"-0.018": 0.0,
			"-0.017": 0.0,
			"-0.016": 0.0,
			"-0.015": 0.0,
			"-0.014": 0.0,
			"-0.013": 0.0,
			"-0.012": 0.0,
			"-0.011": 0.0,
			"-0.01": 0.0,
			"-0.009": 0.0,
			"-0.008": 0.0,
			"-0.007": 1.51364925827,
			"-0.006": 25.1870596723,
			"-0.005": 36.978130412,
			"-0.004": 42.8361670519,
			"-0.003": 36.3008117406,
			"-0.002": 30.901061919,
			"-0.001": 29.632980261,
			"0.0": 28.0969942411,
			"0.001": 35.2387836557,
			"0.002": 37.9906203293,
			"0.003": 42.6396086883,
			"0.004": 44.9102236969,
			"0.005": 43.131744252,
			"0.006": 10.2763406444,
			"0.007": 2.12426890147,
			"0.008": 1.25998442792,
			"0.009": 0.206457699963,
			"0.01": 0.0,
			"0.011": 0.0,
			"0.012": 0.0,
			"0.013": 0.0,
			"0.014": 0.0,
			"0.015": 0.0,
			"0.016": 0.0,
			"0.017": 0.0,
			"0.018": 0.0,
			"0.019": 0.0,
			"0.02": 0.0,
			"0.021": 0.0,
			"0.022": 0.0,
			"0.023": 0.0,
			"0.024": 0.0,
			"0.025": 0.0
		}
	}
}
