{
	 "smiles": "CC1=CC=C(O)C(=C1)C(O)CC1=CC=CC=C1", 
	 "Tm": 356.15, 
	 "num_atms": 33, 
	 "gaussian": { 
		 "optdone": 1, 
		 "sigma_profile": "yes", 
		 "theory": "DFT", 
		 "functional": "B3LYP", 
		 "basiset": "6-31G**", 
		 "properties": { 
			 "R2extent": 5374.8613, 
			 "electric_dipole_moment_norm": 1.58103278271, 
			 "electric_quadrupole_moment_norm": 15.2029651753, 
			 "total_energy": -731.687541444, 
			 "HOMO_LUMO_gap": 0.21109, 
			 "cosmo_polarized_energy": -14.8, 
			 "cosmo_cavitation_energy": 35.83, 
			 "cosmo_dispersion_energy": -24.32, 
			 "cosmo_repulsion_energy": 1.91, 
			 "cosmo_total_nonelectrostatic_energy": 13.43, 
			 "SMD_solvation_energy": 6.11 
		},
		"coords": [
			{
				"x": 0.0989946884,
				"y": 0.3234577484,
				"z": -3.4936388503,
				"element": "C" 
			},
			{
				"x": 1.157319062,
				"y": 0.0472394777,
				"z": -2.4506347081,
				"element": "C" 
			},
			{
				"x": 2.4950236372,
				"y": -0.1461700329,
				"z": -2.8023490036,
				"element": "C" 
			},
			{
				"x": 3.4629741875,
				"y": -0.4049252469,
				"z": -1.8295477049,
				"element": "C" 
			},
			{
				"x": 3.0995873289,
				"y": -0.473094698,
				"z": -0.4856586775,
				"element": "C" 
			},
			{
				"x": 4.0150936493,
				"y": -0.7260166838,
				"z": 0.5099965773,
				"element": "O" 
			},
			{
				"x": 1.7614654242,
				"y": -0.2814018002,
				"z": -0.099263828,
				"element": "C" 
			},
			{
				"x": 0.8165260958,
				"y": -0.0242889148,
				"z": -1.0915060973,
				"element": "C" 
			},
			{
				"x": 1.3841835495,
				"y": -0.3560218485,
				"z": 1.3661182962,
				"element": "C" 
			},
			{
				"x": 0.1244900605,
				"y": 0.2895779051,
				"z": 1.532960374,
				"element": "O" 
			},
			{
				"x": 1.3557460545,
				"y": -1.8117505611,
				"z": 1.9144112895,
				"element": "C" 
			},
			{
				"x": 0.3778454044,
				"y": -2.7385063353,
				"z": 1.2293612001,
				"element": "C" 
			},
			{
				"x": 0.8098229116,
				"y": -3.6296172817,
				"z": 0.2374876035,
				"element": "C" 
			},
			{
				"x": -0.0893388896,
				"y": -4.4810992712,
				"z": -0.4061404071,
				"element": "C" 
			},
			{
				"x": -1.4431034848,
				"y": -4.4551805456,
				"z": -0.067794961,
				"element": "C" 
			},
			{
				"x": -1.8884681784,
				"y": -3.5721070282,
				"z": 0.9178518393,
				"element": "C" 
			},
			{
				"x": -0.9850745227,
				"y": -2.7241324427,
				"z": 1.5587917245,
				"element": "C" 
			},
			{
				"x": -0.6593236963,
				"y": -0.4681456221,
				"z": -3.514592731,
				"element": "H" 
			},
			{
				"x": 0.5343548441,
				"y": 0.3921475821,
				"z": -4.4948854968,
				"element": "H" 
			},
			{
				"x": -0.4263134359,
				"y": 1.2644567111,
				"z": -3.2933646897,
				"element": "H" 
			},
			{
				"x": 2.7928020582,
				"y": -0.0941014183,
				"z": -3.8465504554,
				"element": "H" 
			},
			{
				"x": 4.5029229845,
				"y": -0.5505250913,
				"z": -2.1166748497,
				"element": "H" 
			},
			{
				"x": 4.8936359097,
				"y": -0.79604092,
				"z": 0.115232355,
				"element": "H" 
			},
			{
				"x": -0.2114823368,
				"y": 0.1321463833,
				"z": -0.7825844271,
				"element": "H" 
			},
			{
				"x": 2.1594753518,
				"y": 0.1752028249,
				"z": 1.9392927381,
				"element": "H" 
			},
			{
				"x": -0.0764511319,
				"y": 0.2929386136,
				"z": 2.4769755205,
				"element": "H" 
			},
			{
				"x": 1.120838909,
				"y": -1.7502078121,
				"z": 2.9867646575,
				"element": "H" 
			},
			{
				"x": 2.3724671965,
				"y": -2.2099370243,
				"z": 1.8418982948,
				"element": "H" 
			},
			{
				"x": 1.8625421025,
				"y": -3.6547342588,
				"z": -0.0318653555,
				"element": "H" 
			},
			{
				"x": 0.2687439757,
				"y": -5.1659183471,
				"z": -1.1700301157,
				"element": "H" 
			},
			{
				"x": -2.1445801436,
				"y": -5.1196578276,
				"z": -0.5644735714,
				"element": "H" 
			},
			{
				"x": -2.93998833,
				"y": -3.5456848615,
				"z": 1.1906562632,
				"element": "H" 
			},
			{
				"x": -1.3422312358,
				"y": -2.0402013721,
				"z": 2.3234571964,
				"element": "H" 
			}
		],
		 "valence_orbital": [ 
			{
				"type": "occ",
				"energy": -0.26981,
				"method": "rhf"
			},
			{
				"type": "occ",
				"energy": -0.23956,
				"method": "rhf"
			},
			{
				"type": "occ",
				"energy": -0.23519,
				"method": "rhf"
			},
			{
				"type": "occ",
				"energy": -0.23113,
				"method": "rhf"
			},
			{
				"type": "occ",
				"energy": -0.20764,
				"method": "rhf"
			},
			{
				"type": "unocc",
				"energy": 0.00345,
				"method": "rhf"
			},
			{
				"type": "unocc",
				"energy": 0.00794,
				"method": "rhf"
			},
			{
				"type": "unocc",
				"energy": 0.01259,
				"method": "rhf"
			},
			{
				"type": "unocc",
				"energy": 0.02128,
				"method": "rhf"
			},
			{
				"type": "unocc",
				"energy": 0.06801,
				"method": "rhf"
			}
		],
		"cosmo_sigma_profile": { 
			"-0.025": 0.0,
			"-0.024": 0.0,
			"-0.023": 0.0,
			"-0.022": 0.0,
			"-0.021": 0.0,
			"-0.02": 0.0,
			"-0.019": 0.0,
			"-0.018": 0.27218649608,
			"-0.017": 0.822116264947,
			"-0.016": 1.35300131566,
			"-0.015": 2.18215320007,
			"-0.014": 1.53484926392,
			"-0.013": 1.69379402019,
			"-0.012": 1.60614000376,
			"-0.011": 2.10631424137,
			"-0.01": 2.61936385788,
			"-0.009": 2.72561018113,
			"-0.008": 2.12190390828,
			"-0.007": 2.85349682514,
			"-0.006": 4.9655847032,
			"-0.005": 13.8913066445,
			"-0.004": 20.6072080827,
			"-0.003": 26.450249131,
			"-0.002": 23.2618827221,
			"-0.001": 22.8481699174,
			"0.0": 21.8475632164,
			"0.001": 18.5121999874,
			"0.002": 15.2978598942,
			"0.003": 14.9131501328,
			"0.004": 14.6712752099,
			"0.005": 17.0849684111,
			"0.006": 21.2054824234,
			"0.007": 12.4626696702,
			"0.008": 4.10007785755,
			"0.009": 2.63056593565,
			"0.01": 2.24905685813,
			"0.011": 1.80863967787,
			"0.012": 1.06306010632,
			"0.013": 0.652578977559,
			"0.014": 0.283656124287,
			"0.015": 0.0,
			"0.016": 0.0,
			"0.017": 0.0,
			"0.018": 0.0,
			"0.019": 0.0,
			"0.02": 0.0,
			"0.021": 0.0,
			"0.022": 0.0,
			"0.023": 0.0,
			"0.024": 0.0,
			"0.025": 0.0
		}
	}
}
