{
	 "smiles": "ClC(=O)C1=CC2=NSN=C2C=C1", 
	 "Tm": 384.15, 
	 "num_atms": 15, 
	 "gaussian": { 
		 "optdone": 1, 
		 "sigma_profile": "yes", 
		 "theory": "DFT", 
		 "functional": "B3LYP", 
		 "basiset": "6-31G**", 
		 "properties": { 
			 "R2extent": 4248.9876, 
			 "electric_dipole_moment_norm": 2.66888711264, 
			 "electric_quadrupole_moment_norm": 11.661362152, 
			 "total_energy": -1311.63791963, 
			 "HOMO_LUMO_gap": 0.14899, 
			 "cosmo_polarized_energy": -7.05, 
			 "cosmo_cavitation_energy": 23.87, 
			 "cosmo_dispersion_energy": -18.72, 
			 "cosmo_repulsion_energy": 1.41, 
			 "cosmo_total_nonelectrostatic_energy": 6.55, 
			 "SMD_solvation_energy": 1.31 
		},
		"coords": [
			{
				"x": -2.623070592,
				"y": -2.0478546625,
				"z": -2.3906224001,
				"element": "Cl" 
			},
			{
				"x": -1.7386041933,
				"y": -2.9094994498,
				"z": -1.0459487064,
				"element": "C" 
			},
			{
				"x": -2.0379713866,
				"y": -4.0365779445,
				"z": -0.7900721707,
				"element": "O" 
			},
			{
				"x": -0.6868205035,
				"y": -2.1102149948,
				"z": -0.3605780595,
				"element": "C" 
			},
			{
				"x": -0.0174774939,
				"y": -2.7607166982,
				"z": 0.6583575064,
				"element": "C" 
			},
			{
				"x": 0.9978267614,
				"y": -2.0549035946,
				"z": 1.3529477393,
				"element": "C" 
			},
			{
				"x": 1.7416568037,
				"y": -2.5339869511,
				"z": 2.3624398014,
				"element": "N" 
			},
			{
				"x": 2.7510171822,
				"y": -1.3193721821,
				"z": 2.796277244,
				"element": "S" 
			},
			{
				"x": 2.2932072769,
				"y": -0.151679306,
				"z": 1.7343701143,
				"element": "N" 
			},
			{
				"x": 1.3149434738,
				"y": -0.6873409648,
				"z": 0.9928976365,
				"element": "C" 
			},
			{
				"x": 0.6035120044,
				"y": -0.0487104847,
				"z": -0.0637627454,
				"element": "C" 
			},
			{
				"x": -0.3712643576,
				"y": -0.7537171207,
				"z": -0.7166303579,
				"element": "C" 
			},
			{
				"x": -0.2598623537,
				"y": -3.7832211264,
				"z": 0.9218850227,
				"element": "H" 
			},
			{
				"x": 0.8434091863,
				"y": 0.9742201807,
				"z": -0.3305208695,
				"element": "H" 
			},
			{
				"x": -0.9250018082,
				"y": -0.2893247005,
				"z": -1.522639755,
				"element": "H" 
			}
		],
		 "valence_orbital": [ 
			{
				"type": "occ",
				"energy": -0.32882,
				"method": "rhf"
			},
			{
				"type": "occ",
				"energy": -0.32089,
				"method": "rhf"
			},
			{
				"type": "occ",
				"energy": -0.30343,
				"method": "rhf"
			},
			{
				"type": "occ",
				"energy": -0.28923,
				"method": "rhf"
			},
			{
				"type": "occ",
				"energy": -0.26664,
				"method": "rhf"
			},
			{
				"type": "unocc",
				"energy": -0.11765,
				"method": "rhf"
			},
			{
				"type": "unocc",
				"energy": -0.06643,
				"method": "rhf"
			},
			{
				"type": "unocc",
				"energy": -0.0145,
				"method": "rhf"
			},
			{
				"type": "unocc",
				"energy": -0.00742,
				"method": "rhf"
			},
			{
				"type": "unocc",
				"energy": 0.01275,
				"method": "rhf"
			}
		],
		"cosmo_sigma_profile": { 
			"-0.025": 0.0,
			"-0.024": 0.0,
			"-0.023": 0.0,
			"-0.022": 0.0,
			"-0.021": 0.0,
			"-0.02": 0.0,
			"-0.019": 0.0,
			"-0.018": 0.0,
			"-0.017": 0.0,
			"-0.016": 0.0,
			"-0.015": 0.0,
			"-0.014": 0.0,
			"-0.013": 0.0,
			"-0.012": 0.0,
			"-0.011": 0.0,
			"-0.01": 0.0,
			"-0.009": 0.676709186336,
			"-0.008": 2.9564743255,
			"-0.007": 4.58556864698,
			"-0.006": 6.66752302379,
			"-0.005": 11.0436086431,
			"-0.004": 15.0174152919,
			"-0.003": 22.3587690015,
			"-0.002": 24.342260086,
			"-0.001": 19.2849165513,
			"0.0": 15.8138319551,
			"0.001": 12.6061353212,
			"0.002": 11.3133339109,
			"0.003": 10.5828375455,
			"0.004": 9.03738481217,
			"0.005": 6.53556212127,
			"0.006": 5.88998542577,
			"0.007": 4.27471035098,
			"0.008": 6.21932462703,
			"0.009": 3.42173354155,
			"0.01": 2.89929440104,
			"0.011": 1.59863370575,
			"0.012": 1.58517683154,
			"0.013": 0.185657258915,
			"0.014": 0.0,
			"0.015": 0.0,
			"0.016": 0.0,
			"0.017": 0.0,
			"0.018": 0.0,
			"0.019": 0.0,
			"0.02": 0.0,
			"0.021": 0.0,
			"0.022": 0.0,
			"0.023": 0.0,
			"0.024": 0.0,
			"0.025": 0.0
		}
	}
}
