{
	 "smiles": "OC1=CC(NN=C(/C#N)C2=NC3=C(S2)C=CC=C3)=CC=C1", 
	 "Tm": 448.15, 
	 "num_atms": 31, 
	 "gaussian": { 
		 "optdone": 1, 
		 "sigma_profile": "yes", 
		 "theory": "DFT", 
		 "functional": "B3LYP", 
		 "basiset": "6-31G**", 
		 "properties": { 
			 "R2extent": 9801.9933, 
			 "electric_dipole_moment_norm": 4.48887060295, 
			 "electric_quadrupole_moment_norm": 30.0564506451, 
			 "total_energy": -1269.9944999, 
			 "HOMO_LUMO_gap": 0.12563, 
			 "cosmo_polarized_energy": -18.33, 
			 "cosmo_cavitation_energy": 39.85, 
			 "cosmo_dispersion_energy": -28.78, 
			 "cosmo_repulsion_energy": 2.14, 
			 "cosmo_total_nonelectrostatic_energy": 13.22, 
			 "SMD_solvation_energy": 5.68 
		},
		"coords": [
			{
				"x": 3.4452649864,
				"y": -2.1915942667,
				"z": -2.2937983843,
				"element": "O" 
			},
			{
				"x": 2.151352093,
				"y": -2.6131151281,
				"z": -2.2094925469,
				"element": "C" 
			},
			{
				"x": 1.2583164372,
				"y": -1.7707718461,
				"z": -1.5442469802,
				"element": "C" 
			},
			{
				"x": -0.0787029233,
				"y": -2.157906565,
				"z": -1.4311408411,
				"element": "C" 
			},
			{
				"x": -1.0183983066,
				"y": -1.3490644194,
				"z": -0.7726063835,
				"element": "N" 
			},
			{
				"x": -0.6951161361,
				"y": -0.1943755153,
				"z": -0.2318090064,
				"element": "N" 
			},
			{
				"x": -1.6032417035,
				"y": 0.5293467925,
				"z": 0.3732560168,
				"element": "C" 
			},
			{
				"x": -2.9660742394,
				"y": 0.0851565328,
				"z": 0.4619216344,
				"element": "C" 
			},
			{
				"x": -4.0170911461,
				"y": -0.4166156353,
				"z": 0.4450637593,
				"element": "N" 
			},
			{
				"x": -1.2287789713,
				"y": 1.8043929441,
				"z": 0.9660312324,
				"element": "C" 
			},
			{
				"x": -2.0765132619,
				"y": 2.5733808872,
				"z": 1.5810658762,
				"element": "N" 
			},
			{
				"x": -1.4571359506,
				"y": 3.7183910229,
				"z": 2.045416867,
				"element": "C" 
			},
			{
				"x": -0.0704000296,
				"y": 3.8137914272,
				"z": 1.7637953401,
				"element": "C" 
			},
			{
				"x": 0.4479044772,
				"y": 2.3908439204,
				"z": 0.8777846863,
				"element": "S" 
			},
			{
				"x": 0.6800002186,
				"y": 4.9174507058,
				"z": 2.1744198657,
				"element": "C" 
			},
			{
				"x": 0.0271201722,
				"y": 5.9306153736,
				"z": 2.8732934415,
				"element": "C" 
			},
			{
				"x": -1.3473959056,
				"y": 5.8475497254,
				"z": 3.1586065448,
				"element": "C" 
			},
			{
				"x": -2.0953837493,
				"y": 4.7503908471,
				"z": 2.7508732208,
				"element": "C" 
			},
			{
				"x": -0.5297413968,
				"y": -3.371242771,
				"z": -1.9729938045,
				"element": "C" 
			},
			{
				"x": 0.3790169094,
				"y": -4.1941286435,
				"z": -2.6316361357,
				"element": "C" 
			},
			{
				"x": 1.7188404873,
				"y": -3.8286454059,
				"z": -2.7569710741,
				"element": "C" 
			},
			{
				"x": 3.9645908709,
				"y": -2.8509226861,
				"z": -2.7719009975,
				"element": "H" 
			},
			{
				"x": 1.6058905583,
				"y": -0.8351079002,
				"z": -1.1263736789,
				"element": "H" 
			},
			{
				"x": -1.9823368953,
				"y": -1.6784728348,
				"z": -0.7185097711,
				"element": "H" 
			},
			{
				"x": 1.7410288238,
				"y": 4.987761509,
				"z": 1.9574887583,
				"element": "H" 
			},
			{
				"x": 0.5914524937,
				"y": 6.7981023672,
				"z": 3.2021638011,
				"element": "H" 
			},
			{
				"x": -1.8285632804,
				"y": 6.6529415881,
				"z": 3.7050863607,
				"element": "H" 
			},
			{
				"x": -3.1563869002,
				"y": 4.6699523181,
				"z": 2.962364608,
				"element": "H" 
			},
			{
				"x": -1.5721213705,
				"y": -3.6613786041,
				"z": -1.8785511859,
				"element": "H" 
			},
			{
				"x": 0.0390676157,
				"y": -5.1347217207,
				"z": -3.0540417463,
				"element": "H" 
			},
			{
				"x": 2.4219360228,
				"y": -4.4776040191,
				"z": -3.2731594767,
				"element": "H" 
			}
		],
		 "valence_orbital": [ 
			{
				"type": "occ",
				"energy": -0.28323,
				"method": "rhf"
			},
			{
				"type": "occ",
				"energy": -0.25434,
				"method": "rhf"
			},
			{
				"type": "occ",
				"energy": -0.23874,
				"method": "rhf"
			},
			{
				"type": "occ",
				"energy": -0.2373,
				"method": "rhf"
			},
			{
				"type": "occ",
				"energy": -0.21231,
				"method": "rhf"
			},
			{
				"type": "unocc",
				"energy": -0.08668,
				"method": "rhf"
			},
			{
				"type": "unocc",
				"energy": -0.01994,
				"method": "rhf"
			},
			{
				"type": "unocc",
				"energy": -0.00765,
				"method": "rhf"
			},
			{
				"type": "unocc",
				"energy": -0.00547,
				"method": "rhf"
			},
			{
				"type": "unocc",
				"energy": 0.00643,
				"method": "rhf"
			}
		],
		"cosmo_sigma_profile": { 
			"-0.025": 0.0,
			"-0.024": 0.0,
			"-0.023": 0.0,
			"-0.022": 0.0,
			"-0.021": 0.0,
			"-0.02": 0.0,
			"-0.019": 0.0,
			"-0.018": 0.676378098111,
			"-0.017": 1.04779304,
			"-0.016": 1.5615318648,
			"-0.015": 1.11487258861,
			"-0.014": 2.18701438793,
			"-0.013": 1.97919726568,
			"-0.012": 2.06117707765,
			"-0.011": 2.54317277925,
			"-0.01": 3.19413824539,
			"-0.009": 2.89325431085,
			"-0.008": 3.62062183554,
			"-0.007": 8.32583567465,
			"-0.006": 16.1271432407,
			"-0.005": 18.2238586635,
			"-0.004": 17.6570280012,
			"-0.003": 15.47130902,
			"-0.002": 18.1347244676,
			"-0.001": 20.5723685761,
			"0.0": 20.172039186,
			"0.001": 26.4175479849,
			"0.002": 28.5087598893,
			"0.003": 32.8426036794,
			"0.004": 28.7225398069,
			"0.005": 14.8600771779,
			"0.006": 6.11271948383,
			"0.007": 5.53367821376,
			"0.008": 5.06328517108,
			"0.009": 6.11643261977,
			"0.01": 5.61615667687,
			"0.011": 4.34724398316,
			"0.012": 2.52539817554,
			"0.013": 0.351820028169,
			"0.014": 0.0,
			"0.015": 0.0,
			"0.016": 0.0,
			"0.017": 0.0,
			"0.018": 0.0,
			"0.019": 0.0,
			"0.02": 0.0,
			"0.021": 0.0,
			"0.022": 0.0,
			"0.023": 0.0,
			"0.024": 0.0,
			"0.025": 0.0
		}
	}
}
