{
	 "smiles": "CN(C)C(=O)COC1=CC(N)=CC=C1", 
	 "Tm": 374.15, 
	 "num_atms": 28, 
	 "gaussian": { 
		 "optdone": 1, 
		 "sigma_profile": "yes", 
		 "theory": "DFT", 
		 "functional": "B3LYP", 
		 "basiset": "6-31G**", 
		 "properties": { 
			 "R2extent": 4189.0841, 
			 "electric_dipole_moment_norm": 2.65896610546, 
			 "electric_quadrupole_moment_norm": 14.4639145141, 
			 "total_energy": -649.451958461, 
			 "HOMO_LUMO_gap": 0.20296, 
			 "cosmo_polarized_energy": -14.31, 
			 "cosmo_cavitation_energy": 30.96, 
			 "cosmo_dispersion_energy": -21.97, 
			 "cosmo_repulsion_energy": 1.75, 
			 "cosmo_total_nonelectrostatic_energy": 10.74, 
			 "SMD_solvation_energy": 6.08 
		},
		"coords": [
			{
				"x": 1.1725299076,
				"y": -0.8994003203,
				"z": 4.4877591908,
				"element": "C" 
			},
			{
				"x": 1.3727959497,
				"y": -1.0546782229,
				"z": 3.0531435165,
				"element": "N" 
			},
			{
				"x": 0.7207207209,
				"y": -2.2081102042,
				"z": 2.4486199272,
				"element": "C" 
			},
			{
				"x": 2.217937025,
				"y": -0.1936082505,
				"z": 2.4106505737,
				"element": "C" 
			},
			{
				"x": 2.8216761187,
				"y": 0.7077245692,
				"z": 2.9925242602,
				"element": "O" 
			},
			{
				"x": 2.4475136265,
				"y": -0.3808225139,
				"z": 0.8974046928,
				"element": "C" 
			},
			{
				"x": 1.2799664064,
				"y": -0.4104338965,
				"z": 0.0873191683,
				"element": "O" 
			},
			{
				"x": 0.5952227647,
				"y": 0.7639650749,
				"z": -0.1373807762,
				"element": "C" 
			},
			{
				"x": 0.9189558531,
				"y": 1.9783933348,
				"z": 0.4686347773,
				"element": "C" 
			},
			{
				"x": 0.1632476738,
				"y": 3.1282281504,
				"z": 0.1695178262,
				"element": "C" 
			},
			{
				"x": 0.5209249654,
				"y": 4.3545348609,
				"z": 0.7316549112,
				"element": "N" 
			},
			{
				"x": -0.9102398234,
				"y": 3.0365433056,
				"z": -0.7298785508,
				"element": "C" 
			},
			{
				"x": -1.2157440188,
				"y": 1.809817558,
				"z": -1.3187650198,
				"element": "C" 
			},
			{
				"x": -0.4754741542,
				"y": 0.6661055546,
				"z": -1.0355593711,
				"element": "C" 
			},
			{
				"x": 0.1026337826,
				"y": -0.8160106183,
				"z": 4.7126597875,
				"element": "H" 
			},
			{
				"x": 1.6914048997,
				"y": 0.0002188031,
				"z": 4.8139481132,
				"element": "H" 
			},
			{
				"x": 1.5725298966,
				"y": -1.7655975012,
				"z": 5.0307129392,
				"element": "H" 
			},
			{
				"x": -0.3480587114,
				"y": -2.1966164555,
				"z": 2.6935770913,
				"element": "H" 
			},
			{
				"x": 1.1458220945,
				"y": -3.1433824674,
				"z": 2.8379565107,
				"element": "H" 
			},
			{
				"x": 0.8103830818,
				"y": -2.1880076198,
				"z": 1.3656048309,
				"element": "H" 
			},
			{
				"x": 2.9470984528,
				"y": -1.3380177839,
				"z": 0.7146175268,
				"element": "H" 
			},
			{
				"x": 3.1229723095,
				"y": 0.4241699456,
				"z": 0.5949008581,
				"element": "H" 
			},
			{
				"x": 1.7318338438,
				"y": 2.0522575032,
				"z": 1.1824074364,
				"element": "H" 
			},
			{
				"x": -0.2239828977,
				"y": 5.0349740448,
				"z": 0.7875085098,
				"element": "H" 
			},
			{
				"x": 1.0478847146,
				"y": 4.2963459811,
				"z": 1.5922790964,
				"element": "H" 
			},
			{
				"x": -1.4945891465,
				"y": 3.9217051815,
				"z": -0.9659786977,
				"element": "H" 
			},
			{
				"x": -2.048513789,
				"y": 1.7465925276,
				"z": -2.0139011758,
				"element": "H" 
			},
			{
				"x": -0.6995515466,
				"y": -0.2913905407,
				"z": -1.4921379535,
				"element": "H" 
			}
		],
		 "valence_orbital": [ 
			{
				"type": "occ",
				"energy": -0.28691,
				"method": "rhf"
			},
			{
				"type": "occ",
				"energy": -0.25051,
				"method": "rhf"
			},
			{
				"type": "occ",
				"energy": -0.24217,
				"method": "rhf"
			},
			{
				"type": "occ",
				"energy": -0.22093,
				"method": "rhf"
			},
			{
				"type": "occ",
				"energy": -0.19228,
				"method": "rhf"
			},
			{
				"type": "unocc",
				"energy": 0.01068,
				"method": "rhf"
			},
			{
				"type": "unocc",
				"energy": 0.01762,
				"method": "rhf"
			},
			{
				"type": "unocc",
				"energy": 0.02769,
				"method": "rhf"
			},
			{
				"type": "unocc",
				"energy": 0.08734,
				"method": "rhf"
			},
			{
				"type": "unocc",
				"energy": 0.09028,
				"method": "rhf"
			}
		],
		"cosmo_sigma_profile": { 
			"-0.025": 0.0,
			"-0.024": 0.0,
			"-0.023": 0.0,
			"-0.022": 0.0,
			"-0.021": 0.0,
			"-0.02": 0.0,
			"-0.019": 0.0,
			"-0.018": 0.0,
			"-0.017": 0.0,
			"-0.016": 0.0,
			"-0.015": 0.0,
			"-0.014": 0.0,
			"-0.013": 0.174078848839,
			"-0.012": 2.18830908207,
			"-0.011": 2.6970272893,
			"-0.01": 2.92227324288,
			"-0.009": 2.75777293595,
			"-0.008": 4.0249102404,
			"-0.007": 5.61696422307,
			"-0.006": 7.30223967726,
			"-0.005": 19.902255261,
			"-0.004": 23.6527234456,
			"-0.003": 23.4998147705,
			"-0.002": 25.8464188213,
			"-0.001": 13.9212820769,
			"0.0": 9.90382553716,
			"0.001": 10.0936874883,
			"0.002": 11.7349226713,
			"0.003": 11.293691291,
			"0.004": 11.2983153835,
			"0.005": 11.3768992756,
			"0.006": 13.5761981174,
			"0.007": 9.04660327488,
			"0.008": 2.69348875757,
			"0.009": 3.59837678347,
			"0.01": 2.49453283565,
			"0.011": 1.89490204091,
			"0.012": 2.72251439468,
			"0.013": 3.60316353871,
			"0.014": 4.08086850153,
			"0.015": 0.377202188254,
			"0.016": 0.0,
			"0.017": 0.0,
			"0.018": 0.0,
			"0.019": 0.0,
			"0.02": 0.0,
			"0.021": 0.0,
			"0.022": 0.0,
			"0.023": 0.0,
			"0.024": 0.0,
			"0.025": 0.0
		}
	}
}
