{
	 "smiles": "OC(=O)CBr", 
	 "Tm": 321.65, 
	 "num_atms": 8, 
	 "gaussian": { 
		 "optdone": 1, 
		 "sigma_profile": "yes", 
		 "theory": "DFT", 
		 "functional": "B3LYP", 
		 "basiset": "6-31G**", 
		 "properties": { 
			 "R2extent": 1643.9232, 
			 "electric_dipole_moment_norm": 2.71204955154, 
			 "electric_quadrupole_moment_norm": 12.9580033257, 
			 "total_energy": -2799.87696777, 
			 "HOMO_LUMO_gap": 0.25376, 
			 "cosmo_polarized_energy": -10.05, 
			 "cosmo_cavitation_energy": 14.39, 
			 "cosmo_dispersion_energy": -11.44, 
			 "cosmo_repulsion_energy": 1.03, 
			 "cosmo_total_nonelectrostatic_energy": 3.98, 
			 "SMD_solvation_energy": 3.0 
		},
		"coords": [
			{
				"x": -0.9485998488,
				"y": -0.6392939602,
				"z": 2.9330680737,
				"element": "O" 
			},
			{
				"x": -0.4959861788,
				"y": 0.6181923106,
				"z": 2.8826205073,
				"element": "C" 
			},
			{
				"x": -0.9906986409,
				"y": 1.5163009771,
				"z": 3.517442561,
				"element": "O" 
			},
			{
				"x": 0.7004628955,
				"y": 0.9423226678,
				"z": 1.9837439519,
				"element": "C" 
			},
			{
				"x": 1.4561594945,
				"y": -0.5841251881,
				"z": 0.9765987877,
				"element": "Br" 
			},
			{
				"x": -0.4129474917,
				"y": -1.2064176421,
				"z": 2.3496173676,
				"element": "H" 
			},
			{
				"x": 0.4009334579,
				"y": 1.6852664051,
				"z": 1.2460993473,
				"element": "H" 
			},
			{
				"x": 1.5073763123,
				"y": 1.3429544298,
				"z": 2.5954094036,
				"element": "H" 
			}
		],
		 "valence_orbital": [ 
			{
				"type": "occ",
				"energy": -0.39394,
				"method": "rhf"
			},
			{
				"type": "occ",
				"energy": -0.33177,
				"method": "rhf"
			},
			{
				"type": "occ",
				"energy": -0.32575,
				"method": "rhf"
			},
			{
				"type": "occ",
				"energy": -0.30535,
				"method": "rhf"
			},
			{
				"type": "occ",
				"energy": -0.28424,
				"method": "rhf"
			},
			{
				"type": "unocc",
				"energy": -0.03048,
				"method": "rhf"
			},
			{
				"type": "unocc",
				"energy": -0.00712,
				"method": "rhf"
			},
			{
				"type": "unocc",
				"energy": 0.07557,
				"method": "rhf"
			},
			{
				"type": "unocc",
				"energy": 0.10196,
				"method": "rhf"
			},
			{
				"type": "unocc",
				"energy": 0.14048,
				"method": "rhf"
			}
		],
		"cosmo_sigma_profile": { 
			"-0.025": 0.0,
			"-0.024": 0.0,
			"-0.023": 0.0,
			"-0.022": 0.0,
			"-0.021": 0.0,
			"-0.02": 0.0,
			"-0.019": 0.0,
			"-0.018": 0.0,
			"-0.017": 0.0,
			"-0.016": 0.0,
			"-0.015": 0.220043119687,
			"-0.014": 0.399785501898,
			"-0.013": 1.05724869034,
			"-0.012": 0.68295315124,
			"-0.011": 1.23694734601,
			"-0.01": 5.16768972308,
			"-0.009": 5.43124914509,
			"-0.008": 6.89990989193,
			"-0.007": 5.03310500595,
			"-0.006": 5.19491904769,
			"-0.005": 3.89066081477,
			"-0.004": 5.26054335663,
			"-0.003": 4.56920806826,
			"-0.002": 5.43840342107,
			"-0.001": 5.5255942249,
			"0.0": 5.19967471942,
			"0.001": 5.024222607,
			"0.002": 5.37953139047,
			"0.003": 7.9985651767,
			"0.004": 9.04377570712,
			"0.005": 3.5403522704,
			"0.006": 1.88684380757,
			"0.007": 3.19987042252,
			"0.008": 3.36514903542,
			"0.009": 4.90784527413,
			"0.01": 3.60225690883,
			"0.011": 5.76884311987,
			"0.012": 2.84319102004,
			"0.013": 0.177213809966,
			"0.014": 0.0,
			"0.015": 0.0,
			"0.016": 0.0,
			"0.017": 0.0,
			"0.018": 0.0,
			"0.019": 0.0,
			"0.02": 0.0,
			"0.021": 0.0,
			"0.022": 0.0,
			"0.023": 0.0,
			"0.024": 0.0,
			"0.025": 0.0
		}
	}
}
