{
	 "smiles": "OC(=O)CSC1=NN=C(O1)C1=CC2=C(C=CC=C2)C=C1", 
	 "Tm": 456.15, 
	 "num_atms": 30, 
	 "gaussian": { 
		 "optdone": 1, 
		 "sigma_profile": "yes", 
		 "theory": "DFT", 
		 "functional": "B3LYP", 
		 "basiset": "6-31G**", 
		 "properties": { 
			 "R2extent": 8292.7644, 
			 "electric_dipole_moment_norm": 4.11793530911, 
			 "electric_quadrupole_moment_norm": 22.6842329348, 
			 "total_energy": -1272.86550672, 
			 "HOMO_LUMO_gap": 0.15665, 
			 "cosmo_polarized_energy": -18.36, 
			 "cosmo_cavitation_energy": 37.72, 
			 "cosmo_dispersion_energy": -27.3, 
			 "cosmo_repulsion_energy": 2.01, 
			 "cosmo_total_nonelectrostatic_energy": 12.43, 
			 "SMD_solvation_energy": 5.13 
		},
		"coords": [
			{
				"x": 2.3139327218,
				"y": -1.6392842397,
				"z": -4.710568581,
				"element": "O" 
			},
			{
				"x": 1.6070981,
				"y": -2.3195613345,
				"z": -3.7863960707,
				"element": "C" 
			},
			{
				"x": 2.0850606441,
				"y": -2.747375274,
				"z": -2.7602928497,
				"element": "O" 
			},
			{
				"x": 0.1620986561,
				"y": -2.5230604659,
				"z": -4.2111275405,
				"element": "C" 
			},
			{
				"x": -0.7900776651,
				"y": -0.9875045931,
				"z": -4.5633403846,
				"element": "S" 
			},
			{
				"x": -1.0921547005,
				"y": -0.4260745872,
				"z": -2.929539771,
				"element": "C" 
			},
			{
				"x": -2.0501347935,
				"y": 0.3555440463,
				"z": -2.5380890795,
				"element": "N" 
			},
			{
				"x": -1.8241472134,
				"y": 0.584827604,
				"z": -1.180600659,
				"element": "N" 
			},
			{
				"x": -0.7605568571,
				"y": -0.0883771231,
				"z": -0.8515730673,
				"element": "C" 
			},
			{
				"x": -0.2290905882,
				"y": -0.755224177,
				"z": -1.9296404654,
				"element": "O" 
			},
			{
				"x": -0.1120159064,
				"y": -0.2264358328,
				"z": 0.4451641089,
				"element": "C" 
			},
			{
				"x": -0.6154361781,
				"y": 0.4669095646,
				"z": 1.5338061384,
				"element": "C" 
			},
			{
				"x": -0.0086638015,
				"y": 0.354988487,
				"z": 2.8073782971,
				"element": "C" 
			},
			{
				"x": 1.139813071,
				"y": -0.4907497381,
				"z": 2.9607132724,
				"element": "C" 
			},
			{
				"x": 1.7448160835,
				"y": -0.6000368462,
				"z": 4.2406015497,
				"element": "C" 
			},
			{
				"x": 1.2407986572,
				"y": 0.0924706353,
				"z": 5.3190578305,
				"element": "C" 
			},
			{
				"x": 0.106001629,
				"y": 0.9283876151,
				"z": 5.1681992633,
				"element": "C" 
			},
			{
				"x": -0.5040898661,
				"y": 1.0565034862,
				"z": 3.9415287618,
				"element": "C" 
			},
			{
				"x": 1.6304585454,
				"y": -1.1900299042,
				"z": 1.8241848012,
				"element": "C" 
			},
			{
				"x": 1.0283513113,
				"y": -1.067448539,
				"z": 0.5956752809,
				"element": "C" 
			},
			{
				"x": 3.2175649613,
				"y": -1.5544693061,
				"z": -4.3626613878,
				"element": "H" 
			},
			{
				"x": -0.3449959062,
				"y": -3.1169176247,
				"z": -3.4518014136,
				"element": "H" 
			},
			{
				"x": 0.1460561008,
				"y": -3.0630561005,
				"z": -5.1626542613,
				"element": "H" 
			},
			{
				"x": -1.4856448488,
				"y": 1.1032192256,
				"z": 1.4047673234,
				"element": "H" 
			},
			{
				"x": 2.6147741611,
				"y": -1.2414535482,
				"z": 4.3552675424,
				"element": "H" 
			},
			{
				"x": 1.7125892211,
				"y": 0.000340125,
				"z": 6.2930206393,
				"element": "H" 
			},
			{
				"x": -0.2803944078,
				"y": 1.4683254332,
				"z": 6.0276076257,
				"element": "H" 
			},
			{
				"x": -1.3743748024,
				"y": 1.6960558184,
				"z": 3.8209725131,
				"element": "H" 
			},
			{
				"x": 2.4990721012,
				"y": -1.8327116241,
				"z": 1.9400339882,
				"element": "H" 
			},
			{
				"x": 1.4112915702,
				"y": -1.6096011821,
				"z": -0.2628934047,
				"element": "H" 
			}
		],
		 "valence_orbital": [ 
			{
				"type": "occ",
				"energy": -0.28992,
				"method": "rhf"
			},
			{
				"type": "occ",
				"energy": -0.27953,
				"method": "rhf"
			},
			{
				"type": "occ",
				"energy": -0.26285,
				"method": "rhf"
			},
			{
				"type": "occ",
				"energy": -0.23776,
				"method": "rhf"
			},
			{
				"type": "occ",
				"energy": -0.21778,
				"method": "rhf"
			},
			{
				"type": "unocc",
				"energy": -0.06113,
				"method": "rhf"
			},
			{
				"type": "unocc",
				"energy": -0.03649,
				"method": "rhf"
			},
			{
				"type": "unocc",
				"energy": -0.03018,
				"method": "rhf"
			},
			{
				"type": "unocc",
				"energy": 0.00158,
				"method": "rhf"
			},
			{
				"type": "unocc",
				"energy": 0.01826,
				"method": "rhf"
			}
		],
		"cosmo_sigma_profile": { 
			"-0.025": 0.0,
			"-0.024": 0.0,
			"-0.023": 0.0,
			"-0.022": 0.0,
			"-0.021": 0.0,
			"-0.02": 0.0483607680135,
			"-0.019": 0.61878178351,
			"-0.018": 1.01467435193,
			"-0.017": 1.2639719058,
			"-0.016": 0.256505252926,
			"-0.015": 0.570404895789,
			"-0.014": 0.559306370483,
			"-0.013": 0.840492331798,
			"-0.012": 0.722043788463,
			"-0.011": 2.18758034417,
			"-0.01": 3.73633403666,
			"-0.009": 4.20739390729,
			"-0.008": 4.98252147205,
			"-0.007": 8.87834647394,
			"-0.006": 18.7857195476,
			"-0.005": 17.9961934512,
			"-0.004": 17.579912146,
			"-0.003": 16.9032434808,
			"-0.002": 18.0196421968,
			"-0.001": 18.9576306714,
			"0.0": 18.9590164416,
			"0.001": 20.2636968558,
			"0.002": 27.7892257883,
			"0.003": 30.8592740487,
			"0.004": 20.7497462836,
			"0.005": 9.22858554773,
			"0.006": 5.30856898779,
			"0.007": 5.12300527149,
			"0.008": 5.39863373521,
			"0.009": 4.69572934525,
			"0.01": 5.76745457046,
			"0.011": 6.24880216247,
			"0.012": 3.07169959684,
			"0.013": 2.17485500379,
			"0.014": 1.75369475602,
			"0.015": 0.163592973286,
			"0.016": 0.0,
			"0.017": 0.0,
			"0.018": 0.0,
			"0.019": 0.0,
			"0.02": 0.0,
			"0.021": 0.0,
			"0.022": 0.0,
			"0.023": 0.0,
			"0.024": 0.0,
			"0.025": 0.0
		}
	}
}
