{
	 "smiles": "FC1=C(I)C=CC(Br)=C1", 
	 "Tm": 321.15, 
	 "num_atms": 12, 
	 "gaussian": { 
		 "optdone": 1, 
		 "sigma_profile": "no", 
		 "theory": "DFT", 
		 "functional": "B3LYP", 
		 "basiset": "6-31G**", 
		 "properties": { 
			 "R2extent": 3362.3046, 
			 "electric_dipole_moment_norm": 1.1334966299, 
			 "electric_quadrupole_moment_norm": 2.87920084746, 
			 "total_energy": -2913.06492581, 
			 "HOMO_LUMO_gap": 0.19544, 
			 "cosmo_polarized_energy": -98487.27, 
			 "cosmo_cavitation_energy": 22.42, 
			 "cosmo_dispersion_energy": -18.4, 
			 "cosmo_repulsion_energy": 1.45, 
			 "cosmo_total_nonelectrostatic_energy": 5.47, 
			 "SMD_solvation_energy": 2.34 
		},
		"coords": [
			{
				"x": -2.9663583109,
				"y": -0.638671978,
				"z": -1.7535973863,
				"element": "F" 
			},
			{
				"x": -2.0972678221,
				"y": -0.4234932409,
				"z": -0.755654325,
				"element": "C" 
			},
			{
				"x": -0.9687176616,
				"y": 0.3695520889,
				"z": -0.9652443134,
				"element": "C" 
			},
			{
				"x": -0.6209799235,
				"y": 1.235284817,
				"z": -2.851750086,
				"element": "I" 
			},
			{
				"x": -0.0831879808,
				"y": 0.5737151307,
				"z": 0.0958194324,
				"element": "C" 
			},
			{
				"x": -0.3225578542,
				"y": -0.0047658676,
				"z": 1.3425576361,
				"element": "C" 
			},
			{
				"x": -1.4593688945,
				"y": -0.7925880629,
				"z": 1.5210345227,
				"element": "C" 
			},
			{
				"x": -1.79683921,
				"y": -1.5885136413,
				"z": 3.2198069547,
				"element": "Br" 
			},
			{
				"x": -2.3566674973,
				"y": -1.0107502909,
				"z": 0.4791957393,
				"element": "C" 
			},
			{
				"x": 0.7987229346,
				"y": 1.1873639207,
				"z": -0.0500866672,
				"element": "H" 
			},
			{
				"x": 0.3676751217,
				"y": 0.156969039,
				"z": 2.161767365,
				"element": "H" 
			},
			{
				"x": -3.2435529014,
				"y": -1.6200019146,
				"z": 0.6026511277,
				"element": "H" 
			}
		],
		 "valence_orbital": [ 
			{
				"type": "occ",
				"energy": -0.30044,
				"method": "rhf"
			},
			{
				"type": "occ",
				"energy": -0.28981,
				"method": "rhf"
			},
			{
				"type": "occ",
				"energy": -0.27761,
				"method": "rhf"
			},
			{
				"type": "occ",
				"energy": -0.27439,
				"method": "rhf"
			},
			{
				"type": "occ",
				"energy": -0.24498,
				"method": "rhf"
			},
			{
				"type": "unocc",
				"energy": -0.04954,
				"method": "rhf"
			},
			{
				"type": "unocc",
				"energy": -0.03858,
				"method": "rhf"
			},
			{
				"type": "unocc",
				"energy": -0.02511,
				"method": "rhf"
			},
			{
				"type": "unocc",
				"energy": -0.0062,
				"method": "rhf"
			},
			{
				"type": "unocc",
				"energy": 0.04245,
				"method": "rhf"
			}
		],
		"cosmo_sigma_profile": { 
			"0.0": 0.0,
			"0.0": 0.0,
			"0.0": 0.0,
			"0.0": 0.0,
			"0.0": 0.0,
			"0.0": 0.0,
			"0.0": 0.0,
			"0.0": 0.0,
			"0.0": 0.0,
			"0.0": 0.0,
			"0.0": 0.0,
			"0.0": 0.0,
			"0.0": 0.0,
			"0.0": 0.0,
			"0.0": 0.0,
			"0.0": 0.0,
			"0.0": 0.0,
			"0.0": 0.0,
			"0.0": 0.0,
			"0.0": 0.0,
			"0.0": 0.0,
			"0.0": 0.0,
			"0.0": 0.0,
			"0.0": 0.0,
			"0.0": 0.0,
			"0.0": 0.0,
			"0.0": 0.0,
			"0.0": 0.0,
			"0.0": 0.0,
			"0.0": 0.0,
			"0.0": 0.0,
			"0.0": 0.0,
			"0.0": 0.0,
			"0.0": 0.0,
			"0.0": 0.0,
			"0.0": 0.0,
			"0.0": 0.0,
			"0.0": 0.0,
			"0.0": 0.0,
			"0.0": 0.0,
			"0.0": 0.0,
			"0.0": 0.0,
			"0.0": 0.0,
			"0.0": 0.0,
			"0.0": 0.0,
			"0.0": 0.0,
			"0.0": 0.0,
			"0.0": 0.0,
			"0.0": 0.0,
			"0.0": 0.0,
			"0.0": 0.0
		}
	}
}
