{
	 "smiles": "FC1=C(C=CC=C1)C1=NNC=C1C=O", 
	 "Tm": 388.15, 
	 "num_atms": 21, 
	 "gaussian": { 
		 "optdone": 1, 
		 "sigma_profile": "yes", 
		 "theory": "DFT", 
		 "functional": "B3LYP", 
		 "basiset": "6-31G**", 
		 "properties": { 
			 "R2extent": 3754.6856, 
			 "electric_dipole_moment_norm": 4.17004405852, 
			 "electric_quadrupole_moment_norm": 28.6204979216, 
			 "total_energy": -669.812838428, 
			 "HOMO_LUMO_gap": 0.18844, 
			 "cosmo_polarized_energy": -17.38, 
			 "cosmo_cavitation_energy": 26.38, 
			 "cosmo_dispersion_energy": -19.12, 
			 "cosmo_repulsion_energy": 1.49, 
			 "cosmo_total_nonelectrostatic_energy": 8.74, 
			 "SMD_solvation_energy": 5.15 
		},
		"coords": [
			{
				"x": 1.3268657494,
				"y": -0.4023860867,
				"z": -0.4722030408,
				"element": "F" 
			},
			{
				"x": 0.4636665193,
				"y": 0.1778064118,
				"z": 0.3831134409,
				"element": "C" 
			},
			{
				"x": 0.6639784681,
				"y": 1.5116194412,
				"z": 0.7554100324,
				"element": "C" 
			},
			{
				"x": -0.2132886038,
				"y": 2.0554597494,
				"z": 1.7067791715,
				"element": "C" 
			},
			{
				"x": -1.2591283045,
				"y": 1.3024789251,
				"z": 2.2366805084,
				"element": "C" 
			},
			{
				"x": -1.4439691525,
				"y": -0.0192547115,
				"z": 1.8243133216,
				"element": "C" 
			},
			{
				"x": -0.5752589939,
				"y": -0.5894729978,
				"z": 0.8938995628,
				"element": "C" 
			},
			{
				"x": 1.7780086473,
				"y": 2.3137706187,
				"z": 0.2181101879,
				"element": "C" 
			},
			{
				"x": 2.5226284645,
				"y": 3.0411734257,
				"z": 1.051204065,
				"element": "N" 
			},
			{
				"x": 3.4240629622,
				"y": 3.6680599052,
				"z": 0.2562216727,
				"element": "N" 
			},
			{
				"x": 3.2865763204,
				"y": 3.3660003855,
				"z": -1.0492505432,
				"element": "C" 
			},
			{
				"x": 2.2148713456,
				"y": 2.4857290066,
				"z": -1.1386368895,
				"element": "C" 
			},
			{
				"x": 1.6563547905,
				"y": 1.998270145,
				"z": -2.398741081,
				"element": "C" 
			},
			{
				"x": 0.6398704046,
				"y": 1.3404792288,
				"z": -2.5203985549,
				"element": "O" 
			},
			{
				"x": -0.0614482382,
				"y": 3.0840452642,
				"z": 2.0168562145,
				"element": "H" 
			},
			{
				"x": -1.930630666,
				"y": 1.7469924154,
				"z": 2.9645478724,
				"element": "H" 
			},
			{
				"x": -2.2604774204,
				"y": -0.6103528777,
				"z": 2.228182429,
				"element": "H" 
			},
			{
				"x": -0.6801210262,
				"y": -1.6171129579,
				"z": 0.5636288667,
				"element": "H" 
			},
			{
				"x": 4.1103954129,
				"y": 4.2703830787,
				"z": 0.684518717,
				"element": "H" 
			},
			{
				"x": 3.923979867,
				"y": 3.7878905288,
				"z": -1.8135983126,
				"element": "H" 
			},
			{
				"x": 2.2425634537,
				"y": 2.3066211018,
				"z": -3.2947376406,
				"element": "H" 
			}
		],
		 "valence_orbital": [ 
			{
				"type": "occ",
				"energy": -0.29033,
				"method": "rhf"
			},
			{
				"type": "occ",
				"energy": -0.26597,
				"method": "rhf"
			},
			{
				"type": "occ",
				"energy": -0.2482,
				"method": "rhf"
			},
			{
				"type": "occ",
				"energy": -0.24545,
				"method": "rhf"
			},
			{
				"type": "occ",
				"energy": -0.23186,
				"method": "rhf"
			},
			{
				"type": "unocc",
				"energy": -0.04342,
				"method": "rhf"
			},
			{
				"type": "unocc",
				"energy": -0.01857,
				"method": "rhf"
			},
			{
				"type": "unocc",
				"energy": 0.00521,
				"method": "rhf"
			},
			{
				"type": "unocc",
				"energy": 0.0222,
				"method": "rhf"
			},
			{
				"type": "unocc",
				"energy": 0.06355,
				"method": "rhf"
			}
		],
		"cosmo_sigma_profile": { 
			"-0.025": 0.0,
			"-0.024": 0.0,
			"-0.023": 0.0,
			"-0.022": 0.0,
			"-0.021": 0.0,
			"-0.02": 0.0,
			"-0.019": 0.0,
			"-0.018": 0.578093391781,
			"-0.017": 1.96241950015,
			"-0.016": 1.36643204098,
			"-0.015": 1.16184485226,
			"-0.014": 1.27848826366,
			"-0.013": 1.23576054095,
			"-0.012": 0.898006594961,
			"-0.011": 2.04710737508,
			"-0.01": 3.97785253245,
			"-0.009": 2.63727215785,
			"-0.008": 4.04942143586,
			"-0.007": 5.34277781149,
			"-0.006": 12.3229683335,
			"-0.005": 11.4570455528,
			"-0.004": 12.09521879,
			"-0.003": 9.6430845199,
			"-0.002": 9.60296161817,
			"-0.001": 9.78866367759,
			"0.0": 12.6397613246,
			"0.001": 17.8300452919,
			"0.002": 14.6638349952,
			"0.003": 14.1438917587,
			"0.004": 21.2769536745,
			"0.005": 9.1947253677,
			"0.006": 3.99482308635,
			"0.007": 3.44472956223,
			"0.008": 4.24999364442,
			"0.009": 3.78121798568,
			"0.01": 3.42411757521,
			"0.011": 4.33029950903,
			"0.012": 4.11385503152,
			"0.013": 2.62277047195,
			"0.014": 1.1244225723,
			"0.015": 0.21511536228,
			"0.016": 0.0,
			"0.017": 0.0,
			"0.018": 0.0,
			"0.019": 0.0,
			"0.02": 0.0,
			"0.021": 0.0,
			"0.022": 0.0,
			"0.023": 0.0,
			"0.024": 0.0,
			"0.025": 0.0
		}
	}
}
