{
	 "smiles": "CCOC(=O)NC(N)=O", 
	 "Tm": 469.15, 
	 "num_atms": 17, 
	 "gaussian": { 
		 "optdone": 1, 
		 "sigma_profile": "yes", 
		 "theory": "DFT", 
		 "functional": "B3LYP", 
		 "basiset": "6-31G**", 
		 "properties": { 
			 "R2extent": 1549.7603, 
			 "electric_dipole_moment_norm": 4.68842792949, 
			 "electric_quadrupole_moment_norm": 7.99812661378, 
			 "total_energy": -492.472268381, 
			 "HOMO_LUMO_gap": 0.2729, 
			 "cosmo_polarized_energy": -14.49, 
			 "cosmo_cavitation_energy": 21.55, 
			 "cosmo_dispersion_energy": -15.86, 
			 "cosmo_repulsion_energy": 1.35, 
			 "cosmo_total_nonelectrostatic_energy": 7.04, 
			 "SMD_solvation_energy": 6.23 
		},
		"coords": [
			{
				"x": 1.18887636,
				"y": 1.2619592051,
				"z": 2.5502361956,
				"element": "C" 
			},
			{
				"x": 0.1223264694,
				"y": 1.3941092984,
				"z": 1.4808408904,
				"element": "C" 
			},
			{
				"x": 0.0940378006,
				"y": 0.1483195475,
				"z": 0.7376618177,
				"element": "O" 
			},
			{
				"x": -0.8155771228,
				"y": 0.1011318121,
				"z": -0.2674081784,
				"element": "C" 
			},
			{
				"x": -1.5639534112,
				"y": 1.0133334015,
				"z": -0.5502160951,
				"element": "O" 
			},
			{
				"x": -0.8085507963,
				"y": -1.1014016386,
				"z": -0.9480729007,
				"element": "N" 
			},
			{
				"x": -0.0733020852,
				"y": -2.3106473069,
				"z": -0.8487283173,
				"element": "C" 
			},
			{
				"x": 0.8675893167,
				"y": -2.3792935663,
				"z": 0.1263427595,
				"element": "N" 
			},
			{
				"x": -0.323799001,
				"y": -3.2104702591,
				"z": -1.6342856347,
				"element": "O" 
			},
			{
				"x": 1.2393947773,
				"y": 2.1864228321,
				"z": 3.1333296457,
				"element": "H" 
			},
			{
				"x": 0.9612096568,
				"y": 0.4397987978,
				"z": 3.2353092838,
				"element": "H" 
			},
			{
				"x": 2.1732111603,
				"y": 1.0856737014,
				"z": 2.1062689575,
				"element": "H" 
			},
			{
				"x": 0.3345425014,
				"y": 2.2097244192,
				"z": 0.7841946535,
				"element": "H" 
			},
			{
				"x": -0.8699155162,
				"y": 1.5678652976,
				"z": 1.9061159117,
				"element": "H" 
			},
			{
				"x": -1.4859067416,
				"y": -1.1374223072,
				"z": -1.6979374484,
				"element": "H" 
			},
			{
				"x": 1.042245428,
				"y": -1.6109596365,
				"z": 0.753336795,
				"element": "H" 
			},
			{
				"x": 1.384071204,
				"y": -3.2404435981,
				"z": 0.1880116643,
				"element": "H" 
			}
		],
		 "valence_orbital": [ 
			{
				"type": "occ",
				"energy": -0.31764,
				"method": "rhf"
			},
			{
				"type": "occ",
				"energy": -0.30071,
				"method": "rhf"
			},
			{
				"type": "occ",
				"energy": -0.28338,
				"method": "rhf"
			},
			{
				"type": "occ",
				"energy": -0.26956,
				"method": "rhf"
			},
			{
				"type": "occ",
				"energy": -0.26363,
				"method": "rhf"
			},
			{
				"type": "unocc",
				"energy": 0.00927,
				"method": "rhf"
			},
			{
				"type": "unocc",
				"energy": 0.07579,
				"method": "rhf"
			},
			{
				"type": "unocc",
				"energy": 0.08548,
				"method": "rhf"
			},
			{
				"type": "unocc",
				"energy": 0.08747,
				"method": "rhf"
			},
			{
				"type": "unocc",
				"energy": 0.10803,
				"method": "rhf"
			}
		],
		"cosmo_sigma_profile": { 
			"-0.025": 0.0,
			"-0.024": 0.0,
			"-0.023": 0.0,
			"-0.022": 0.0,
			"-0.021": 0.0,
			"-0.02": 0.0,
			"-0.019": 0.0,
			"-0.018": 0.0,
			"-0.017": 0.0,
			"-0.016": 0.0,
			"-0.015": 0.759952976348,
			"-0.014": 1.99204027143,
			"-0.013": 1.7158302008,
			"-0.012": 1.24293645362,
			"-0.011": 2.04736273622,
			"-0.01": 2.60868322958,
			"-0.009": 3.04240361924,
			"-0.008": 1.91608792915,
			"-0.007": 2.48344622778,
			"-0.006": 4.40014836194,
			"-0.005": 9.63167890962,
			"-0.004": 17.6818461386,
			"-0.003": 17.4573298726,
			"-0.002": 17.4011046132,
			"-0.001": 16.5186597959,
			"0.0": 11.6687686853,
			"0.001": 6.81765301608,
			"0.002": 5.32448378057,
			"0.003": 4.1321380509,
			"0.004": 3.8933591007,
			"0.005": 2.19322006941,
			"0.006": 2.35604482376,
			"0.007": 2.81804398588,
			"0.008": 2.56936089034,
			"0.009": 1.7391783772,
			"0.01": 3.5722459544,
			"0.011": 3.9077812994,
			"0.012": 7.31901349362,
			"0.013": 6.68724360493,
			"0.014": 3.62796526303,
			"0.015": 0.144481278471,
			"0.016": 0.0,
			"0.017": 0.0,
			"0.018": 0.0,
			"0.019": 0.0,
			"0.02": 0.0,
			"0.021": 0.0,
			"0.022": 0.0,
			"0.023": 0.0,
			"0.024": 0.0,
			"0.025": 0.0
		}
	}
}
