{
	 "smiles": "COCCOC1=C(C=O)C=C2OCOC2=C1", 
	 "Tm": 358.15, 
	 "num_atms": 28, 
	 "gaussian": { 
		 "optdone": 1, 
		 "sigma_profile": "yes", 
		 "theory": "DFT", 
		 "functional": "B3LYP", 
		 "basiset": "6-31G**", 
		 "properties": { 
			 "R2extent": 4437.0713, 
			 "electric_dipole_moment_norm": 5.02735145976, 
			 "electric_quadrupole_moment_norm": 17.1684739625, 
			 "total_energy": -802.453571592, 
			 "HOMO_LUMO_gap": 0.1642, 
			 "cosmo_polarized_energy": -14.49, 
			 "cosmo_cavitation_energy": 32.23, 
			 "cosmo_dispersion_energy": -23.01, 
			 "cosmo_repulsion_energy": 1.8, 
			 "cosmo_total_nonelectrostatic_energy": 11.02, 
			 "SMD_solvation_energy": 7.94 
		},
		"coords": [
			{
				"x": -1.0733777571,
				"y": -2.8916645781,
				"z": 2.4749509036,
				"element": "C" 
			},
			{
				"x": -1.1572461271,
				"y": -2.6180530743,
				"z": 1.0901576314,
				"element": "O" 
			},
			{
				"x": 0.0895929574,
				"y": -2.2910975873,
				"z": 0.5174957202,
				"element": "C" 
			},
			{
				"x": -0.1163472176,
				"y": -1.965413047,
				"z": -0.9526783789,
				"element": "C" 
			},
			{
				"x": -0.9390814889,
				"y": -0.8112613403,
				"z": -1.1542850079,
				"element": "O" 
			},
			{
				"x": -0.3937917168,
				"y": 0.4205062145,
				"z": -0.885730548,
				"element": "C" 
			},
			{
				"x": -1.0478759371,
				"y": 1.2519405603,
				"z": 0.0430996447,
				"element": "C" 
			},
			{
				"x": -2.2171079085,
				"y": 0.7691913646,
				"z": 0.8094381665,
				"element": "C" 
			},
			{
				"x": -2.8300873896,
				"y": 1.4675818789,
				"z": 1.6028953494,
				"element": "O" 
			},
			{
				"x": -0.5853116406,
				"y": 2.571403857,
				"z": 0.2753723303,
				"element": "C" 
			},
			{
				"x": 0.5233839173,
				"y": 2.9868497905,
				"z": -0.4157455496,
				"element": "C" 
			},
			{
				"x": 1.1856214729,
				"y": 4.1929063679,
				"z": -0.3539596769,
				"element": "O" 
			},
			{
				"x": 2.1823951016,
				"y": 4.1461707238,
				"z": -1.3740648707,
				"element": "C" 
			},
			{
				"x": 2.243977291,
				"y": 2.797845881,
				"z": -1.8725376251,
				"element": "O" 
			},
			{
				"x": 1.1741535439,
				"y": 2.148248188,
				"z": -1.3276296617,
				"element": "C" 
			},
			{
				"x": 0.7437454181,
				"y": 0.8640214133,
				"z": -1.5920138986,
				"element": "C" 
			},
			{
				"x": -0.4174662292,
				"y": -3.7522446602,
				"z": 2.6808317172,
				"element": "H" 
			},
			{
				"x": -0.6962550624,
				"y": -2.0255294796,
				"z": 3.0398959849,
				"element": "H" 
			},
			{
				"x": -2.0829989664,
				"y": -3.1252760308,
				"z": 2.8193728602,
				"element": "H" 
			},
			{
				"x": 0.7974327301,
				"y": -3.1356744246,
				"z": 0.5947750921,
				"element": "H" 
			},
			{
				"x": 0.548650667,
				"y": -1.431706537,
				"z": 1.0347208151,
				"element": "H" 
			},
			{
				"x": -0.6511891711,
				"y": -2.7835472315,
				"z": -1.4409252293,
				"element": "H" 
			},
			{
				"x": 0.8605503759,
				"y": -1.8455085532,
				"z": -1.438810542,
				"element": "H" 
			},
			{
				"x": -2.4940815793,
				"y": -0.2846696797,
				"z": 0.6350642456,
				"element": "H" 
			},
			{
				"x": -1.1094142875,
				"y": 3.1939774116,
				"z": 0.9911670824,
				"element": "H" 
			},
			{
				"x": 3.1549508531,
				"y": 4.4183969427,
				"z": -0.9527919702,
				"element": "H" 
			},
			{
				"x": 1.9090118187,
				"y": 4.8203396156,
				"z": -2.1974142665,
				"element": "H" 
			},
			{
				"x": 1.2361663322,
				"y": 0.2426660139,
				"z": -2.3301503182,
				"element": "H" 
			}
		],
		 "valence_orbital": [ 
			{
				"type": "occ",
				"energy": -0.28807,
				"method": "rhf"
			},
			{
				"type": "occ",
				"energy": -0.26527,
				"method": "rhf"
			},
			{
				"type": "occ",
				"energy": -0.25259,
				"method": "rhf"
			},
			{
				"type": "occ",
				"energy": -0.23582,
				"method": "rhf"
			},
			{
				"type": "occ",
				"energy": -0.21342,
				"method": "rhf"
			},
			{
				"type": "unocc",
				"energy": -0.04922,
				"method": "rhf"
			},
			{
				"type": "unocc",
				"energy": -0.00537,
				"method": "rhf"
			},
			{
				"type": "unocc",
				"energy": 0.05292,
				"method": "rhf"
			},
			{
				"type": "unocc",
				"energy": 0.0825,
				"method": "rhf"
			},
			{
				"type": "unocc",
				"energy": 0.08946,
				"method": "rhf"
			}
		],
		"cosmo_sigma_profile": { 
			"-0.025": 0.0,
			"-0.024": 0.0,
			"-0.023": 0.0,
			"-0.022": 0.0,
			"-0.021": 0.0,
			"-0.02": 0.0,
			"-0.019": 0.0,
			"-0.018": 0.0,
			"-0.017": 0.0,
			"-0.016": 0.0,
			"-0.015": 0.0,
			"-0.014": 0.0,
			"-0.013": 0.0,
			"-0.012": 0.0,
			"-0.011": 0.0,
			"-0.01": 0.0,
			"-0.009": 1.34425922759,
			"-0.008": 7.88836875399,
			"-0.007": 10.4423308729,
			"-0.006": 13.1704954403,
			"-0.005": 15.806179063,
			"-0.004": 24.8249182225,
			"-0.003": 23.8131029893,
			"-0.002": 23.0941270348,
			"-0.001": 15.4705641007,
			"0.0": 15.8207842697,
			"0.001": 19.6402204946,
			"0.002": 18.5381225106,
			"0.003": 10.4382918656,
			"0.004": 6.71610842686,
			"0.005": 5.60786780237,
			"0.006": 6.60221705423,
			"0.007": 6.39117542834,
			"0.008": 6.82627577458,
			"0.009": 7.13252628955,
			"0.01": 3.9814210205,
			"0.011": 4.34414805398,
			"0.012": 5.23744392473,
			"0.013": 2.48962365713,
			"0.014": 0.452968715143,
			"0.015": 0.0,
			"0.016": 0.0,
			"0.017": 0.0,
			"0.018": 0.0,
			"0.019": 0.0,
			"0.02": 0.0,
			"0.021": 0.0,
			"0.022": 0.0,
			"0.023": 0.0,
			"0.024": 0.0,
			"0.025": 0.0
		}
	}
}
