{
	 "smiles": "CN1C=NN=C1SCC1=CC=C(O1)C(O)=O", 
	 "Tm": 453.15, 
	 "num_atms": 25, 
	 "gaussian": { 
		 "optdone": 1, 
		 "sigma_profile": "yes", 
		 "theory": "DFT", 
		 "functional": "B3LYP", 
		 "basiset": "6-31G**", 
		 "properties": { 
			 "R2extent": 5711.2611, 
			 "electric_dipole_moment_norm": 4.86409341502, 
			 "electric_quadrupole_moment_norm": 38.1486848194, 
			 "total_energy": -1136.44652085, 
			 "HOMO_LUMO_gap": 0.18047, 
			 "cosmo_polarized_energy": -26.71, 
			 "cosmo_cavitation_energy": 32.41, 
			 "cosmo_dispersion_energy": -23.5, 
			 "cosmo_repulsion_energy": 1.79, 
			 "cosmo_total_nonelectrostatic_energy": 10.7, 
			 "SMD_solvation_energy": 6.06 
		},
		"coords": [
			{
				"x": 2.5481066795,
				"y": -3.1091854385,
				"z": 1.8027209798,
				"element": "C" 
			},
			{
				"x": 1.1888345029,
				"y": -3.1910732755,
				"z": 1.28985919,
				"element": "N" 
			},
			{
				"x": 0.2825283399,
				"y": -4.2131142458,
				"z": 1.4390770386,
				"element": "C" 
			},
			{
				"x": -0.8442494129,
				"y": -3.9373292989,
				"z": 0.8371400005,
				"element": "N" 
			},
			{
				"x": -0.7001128012,
				"y": -2.690092585,
				"z": 0.2532340041,
				"element": "N" 
			},
			{
				"x": 0.5147330726,
				"y": -2.26687569,
				"z": 0.5331072162,
				"element": "C" 
			},
			{
				"x": 1.2538672666,
				"y": -0.7440912737,
				"z": 0.0381798156,
				"element": "S" 
			},
			{
				"x": -0.2438260338,
				"y": 0.0408104191,
				"z": -0.7376246659,
				"element": "C" 
			},
			{
				"x": -1.1921308409,
				"y": 0.6367958338,
				"z": 0.2322703158,
				"element": "C" 
			},
			{
				"x": -2.3045250107,
				"y": 0.1499860912,
				"z": 0.8688777174,
				"element": "C" 
			},
			{
				"x": -2.7802143759,
				"y": 1.20834393,
				"z": 1.6915397672,
				"element": "C" 
			},
			{
				"x": -1.9268391883,
				"y": 2.2695365692,
				"z": 1.5030888727,
				"element": "C" 
			},
			{
				"x": -0.9537832798,
				"y": 1.9199649177,
				"z": 0.6126949473,
				"element": "O" 
			},
			{
				"x": -1.8441255642,
				"y": 3.6349280593,
				"z": 2.0538842594,
				"element": "C" 
			},
			{
				"x": -2.8981346875,
				"y": 4.0124220416,
				"z": 2.8303745099,
				"element": "O" 
			},
			{
				"x": -0.9200720945,
				"y": 4.3866356215,
				"z": 1.8604112814,
				"element": "O" 
			},
			{
				"x": 3.2749049012,
				"y": -3.1239854774,
				"z": 0.9851286655,
				"element": "H" 
			},
			{
				"x": 2.7294811935,
				"y": -3.9661317095,
				"z": 2.452927831,
				"element": "H" 
			},
			{
				"x": 2.6801913238,
				"y": -2.1912128043,
				"z": 2.3819016305,
				"element": "H" 
			},
			{
				"x": 0.5043701799,
				"y": -5.1157302837,
				"z": 1.9910381687,
				"element": "H" 
			},
			{
				"x": -0.7310983211,
				"y": -0.7351308982,
				"z": -1.3274881655,
				"element": "H" 
			},
			{
				"x": 0.1695773767,
				"y": 0.8072157362,
				"z": -1.3963105257,
				"element": "H" 
			},
			{
				"x": -2.6970521982,
				"y": -0.8502032982,
				"z": 0.7640392049,
				"element": "H" 
			},
			{
				"x": -3.6387011861,
				"y": 1.1670760711,
				"z": 2.3491075906,
				"element": "H" 
			},
			{
				"x": -3.5972298418,
				"y": 3.3443409881,
				"z": 2.8099203501,
				"element": "H" 
			}
		],
		 "valence_orbital": [ 
			{
				"type": "occ",
				"energy": -0.29713,
				"method": "rhf"
			},
			{
				"type": "occ",
				"energy": -0.27415,
				"method": "rhf"
			},
			{
				"type": "occ",
				"energy": -0.26511,
				"method": "rhf"
			},
			{
				"type": "occ",
				"energy": -0.24405,
				"method": "rhf"
			},
			{
				"type": "occ",
				"energy": -0.23321,
				"method": "rhf"
			},
			{
				"type": "unocc",
				"energy": -0.05274,
				"method": "rhf"
			},
			{
				"type": "unocc",
				"energy": -0.00334,
				"method": "rhf"
			},
			{
				"type": "unocc",
				"energy": 0.01045,
				"method": "rhf"
			},
			{
				"type": "unocc",
				"energy": 0.03348,
				"method": "rhf"
			},
			{
				"type": "unocc",
				"energy": 0.03585,
				"method": "rhf"
			}
		],
		"cosmo_sigma_profile": { 
			"-0.025": 0.0,
			"-0.024": 0.0,
			"-0.023": 0.0,
			"-0.022": 0.0,
			"-0.021": 0.0,
			"-0.02": 0.0156243633375,
			"-0.019": 0.587283418384,
			"-0.018": 1.12167595775,
			"-0.017": 1.50252941629,
			"-0.016": 1.1486955197,
			"-0.015": 0.519240166739,
			"-0.014": 0.512349279417,
			"-0.013": 1.55222581574,
			"-0.012": 1.76718620376,
			"-0.011": 2.08961144403,
			"-0.01": 4.69256939612,
			"-0.009": 6.72515579044,
			"-0.008": 7.34756747014,
			"-0.007": 12.1557813859,
			"-0.006": 15.3173871791,
			"-0.005": 15.8785246661,
			"-0.004": 21.1292250402,
			"-0.003": 13.9505697723,
			"-0.002": 10.6279962164,
			"-0.001": 13.9826366308,
			"0.0": 13.3240657221,
			"0.001": 14.3133408146,
			"0.002": 15.83311558,
			"0.003": 11.678207922,
			"0.004": 9.23753908473,
			"0.005": 7.66544824025,
			"0.006": 6.9092547522,
			"0.007": 5.16612798172,
			"0.008": 5.17248009997,
			"0.009": 5.94725938193,
			"0.01": 7.39328289509,
			"0.011": 8.19046367494,
			"0.012": 8.22343360266,
			"0.013": 4.71217881518,
			"0.014": 2.04821967378,
			"0.015": 1.57979224647,
			"0.016": 1.28354472629,
			"0.017": 0.466505717404,
			"0.018": 0.0,
			"0.019": 0.0,
			"0.02": 0.0,
			"0.021": 0.0,
			"0.022": 0.0,
			"0.023": 0.0,
			"0.024": 0.0,
			"0.025": 0.0
		}
	}
}
