{
	 "smiles": "CC1=C(Br)C=CC(=C1)N1CCCS1(=O)=O", 
	 "Tm": 405.15, 
	 "num_atms": 27, 
	 "gaussian": { 
		 "optdone": 1, 
		 "sigma_profile": "yes", 
		 "theory": "DFT", 
		 "functional": "B3LYP", 
		 "basiset": "6-31G**", 
		 "properties": { 
			 "R2extent": 6720.675, 
			 "electric_dipole_moment_norm": 6.03485800496, 
			 "electric_quadrupole_moment_norm": 15.2835470055, 
			 "total_energy": -3563.0230157, 
			 "HOMO_LUMO_gap": 0.20389, 
			 "cosmo_polarized_energy": -16.77, 
			 "cosmo_cavitation_energy": 32.87, 
			 "cosmo_dispersion_energy": -24.82, 
			 "cosmo_repulsion_energy": 1.88, 
			 "cosmo_total_nonelectrostatic_energy": 9.93, 
			 "SMD_solvation_energy": 2.81 
		},
		"coords": [
			{
				"x": -0.9741744336,
				"y": 3.0477604919,
				"z": -1.1419561524,
				"element": "C" 
			},
			{
				"x": -0.9753033496,
				"y": 1.5506501064,
				"z": -1.3147032502,
				"element": "C" 
			},
			{
				"x": -1.1899773783,
				"y": 0.9363957525,
				"z": -2.5542483559,
				"element": "C" 
			},
			{
				"x": -1.507862273,
				"y": 2.0007540164,
				"z": -4.1157986557,
				"element": "Br" 
			},
			{
				"x": -1.1871385911,
				"y": -0.4509837592,
				"z": -2.6923557085,
				"element": "C" 
			},
			{
				"x": -0.9796360297,
				"y": -1.2647003185,
				"z": -1.5854095257,
				"element": "C" 
			},
			{
				"x": -0.7451517765,
				"y": -0.6820568224,
				"z": -0.3302717574,
				"element": "C" 
			},
			{
				"x": -0.744383935,
				"y": 0.7135423102,
				"z": -0.2141063186,
				"element": "C" 
			},
			{
				"x": -0.5565148269,
				"y": -1.5131895645,
				"z": 0.8041638721,
				"element": "N" 
			},
			{
				"x": -0.5317124635,
				"y": -0.9671315182,
				"z": 2.161664222,
				"element": "C" 
			},
			{
				"x": -0.4333620831,
				"y": -2.1914901539,
				"z": 3.0820260883,
				"element": "C" 
			},
			{
				"x": 0.6480487235,
				"y": -3.0893249842,
				"z": 2.4777633533,
				"element": "C" 
			},
			{
				"x": 0.5270146485,
				"y": -2.8576202926,
				"z": 0.6681191947,
				"element": "S" 
			},
			{
				"x": 1.8246379266,
				"y": -2.4356226061,
				"z": 0.1291323288,
				"element": "O" 
			},
			{
				"x": -0.1834605333,
				"y": -3.9722665517,
				"z": 0.0338615654,
				"element": "O" 
			},
			{
				"x": -0.2075136124,
				"y": 3.5175255559,
				"z": -1.7670195279,
				"element": "H" 
			},
			{
				"x": -1.9340190367,
				"y": 3.4816289552,
				"z": -1.4418193598,
				"element": "H" 
			},
			{
				"x": -0.7834836369,
				"y": 3.3203143035,
				"z": -0.1008959448,
				"element": "H" 
			},
			{
				"x": -1.3638628298,
				"y": -0.8954036484,
				"z": -3.6651062335,
				"element": "H" 
			},
			{
				"x": -1.0081521144,
				"y": -2.3432854507,
				"z": -1.6889394542,
				"element": "H" 
			},
			{
				"x": -0.5577670493,
				"y": 1.1797284923,
				"z": 0.7471230928,
				"element": "H" 
			},
			{
				"x": 0.318197772,
				"y": -0.2855722955,
				"z": 2.3260912465,
				"element": "H" 
			},
			{
				"x": -1.456071199,
				"y": -0.4083014711,
				"z": 2.331996349,
				"element": "H" 
			},
			{
				"x": -0.179389428,
				"y": -1.9027913629,
				"z": 4.1053456834,
				"element": "H" 
			},
			{
				"x": -1.393590866,
				"y": -2.7139147601,
				"z": 3.0973858037,
				"element": "H" 
			},
			{
				"x": 0.524151716,
				"y": -4.1547752975,
				"z": 2.675785038,
				"element": "H" 
			},
			{
				"x": 1.6583766594,
				"y": -2.7720691267,
				"z": 2.7452724068,
				"element": "H" 
			}
		],
		 "valence_orbital": [ 
			{
				"type": "occ",
				"energy": -0.30325,
				"method": "rhf"
			},
			{
				"type": "occ",
				"energy": -0.28298,
				"method": "rhf"
			},
			{
				"type": "occ",
				"energy": -0.27437,
				"method": "rhf"
			},
			{
				"type": "occ",
				"energy": -0.25592,
				"method": "rhf"
			},
			{
				"type": "occ",
				"energy": -0.21866,
				"method": "rhf"
			},
			{
				"type": "unocc",
				"energy": -0.01477,
				"method": "rhf"
			},
			{
				"type": "unocc",
				"energy": -0.01131,
				"method": "rhf"
			},
			{
				"type": "unocc",
				"energy": 0.01235,
				"method": "rhf"
			},
			{
				"type": "unocc",
				"energy": 0.0464,
				"method": "rhf"
			},
			{
				"type": "unocc",
				"energy": 0.05107,
				"method": "rhf"
			}
		],
		"cosmo_sigma_profile": { 
			"-0.025": 0.0,
			"-0.024": 0.0,
			"-0.023": 0.0,
			"-0.022": 0.0,
			"-0.021": 0.0,
			"-0.02": 0.0,
			"-0.019": 0.0,
			"-0.018": 0.0,
			"-0.017": 0.0,
			"-0.016": 0.0,
			"-0.015": 0.0,
			"-0.014": 0.0,
			"-0.013": 0.0,
			"-0.012": 0.0,
			"-0.011": 0.0,
			"-0.01": 0.0,
			"-0.009": 1.73457431684,
			"-0.008": 5.49406734455,
			"-0.007": 13.1891757115,
			"-0.006": 22.8616464628,
			"-0.005": 23.3375920881,
			"-0.004": 19.9111885118,
			"-0.003": 16.3279510368,
			"-0.002": 13.9154229025,
			"-0.001": 15.7266875956,
			"0.0": 16.3178140342,
			"0.001": 11.8330307096,
			"0.002": 15.7269252648,
			"0.003": 21.4144559704,
			"0.004": 20.1014058031,
			"0.005": 10.1291480402,
			"0.006": 3.41879104752,
			"0.007": 3.52903968043,
			"0.008": 3.22649567935,
			"0.009": 4.36413176954,
			"0.01": 8.72311096488,
			"0.011": 10.6867549899,
			"0.012": 1.82341425166,
			"0.013": 0.0,
			"0.014": 0.0,
			"0.015": 0.0,
			"0.016": 0.0,
			"0.017": 0.0,
			"0.018": 0.0,
			"0.019": 0.0,
			"0.02": 0.0,
			"0.021": 0.0,
			"0.022": 0.0,
			"0.023": 0.0,
			"0.024": 0.0,
			"0.025": 0.0
		}
	}
}
