{
	 "smiles": "CCOCC1=C(OC2=C1C=CC=C2)C(O)=O", 
	 "Tm": 377.15, 
	 "num_atms": 28, 
	 "gaussian": { 
		 "optdone": 1, 
		 "sigma_profile": "yes", 
		 "theory": "DFT", 
		 "functional": "B3LYP", 
		 "basiset": "6-31G**", 
		 "properties": { 
			 "R2extent": 4324.7155, 
			 "electric_dipole_moment_norm": 4.18924212239, 
			 "electric_quadrupole_moment_norm": 18.9977218292, 
			 "total_energy": -765.387240684, 
			 "HOMO_LUMO_gap": 0.17687, 
			 "cosmo_polarized_energy": -16.22, 
			 "cosmo_cavitation_energy": 32.1, 
			 "cosmo_dispersion_energy": -22.64, 
			 "cosmo_repulsion_energy": 1.78, 
			 "cosmo_total_nonelectrostatic_energy": 11.25, 
			 "SMD_solvation_energy": 7.06 
		},
		"coords": [
			{
				"x": 3.342516324,
				"y": 1.5616552879,
				"z": -0.382753168,
				"element": "C" 
			},
			{
				"x": 1.8817045312,
				"y": 1.309875042,
				"z": -0.7448199785,
				"element": "C" 
			},
			{
				"x": 0.9971689023,
				"y": 2.2904170835,
				"z": -0.1903301287,
				"element": "O" 
			},
			{
				"x": 0.6619307555,
				"y": 2.0890800632,
				"z": 1.1720474823,
				"element": "C" 
			},
			{
				"x": -0.2990548409,
				"y": 0.9423697194,
				"z": 1.3715894661,
				"element": "C" 
			},
			{
				"x": -0.2951102125,
				"y": -0.0514853021,
				"z": 2.3207993414,
				"element": "C" 
			},
			{
				"x": -1.336431558,
				"y": -0.9319034497,
				"z": 2.1462951521,
				"element": "O" 
			},
			{
				"x": -2.0372706335,
				"y": -0.4894584014,
				"z": 1.0643568981,
				"element": "C" 
			},
			{
				"x": -1.442343844,
				"y": 0.6680182314,
				"z": 0.5319205685,
				"element": "C" 
			},
			{
				"x": -2.0118332903,
				"y": 1.2723637697,
				"z": -0.6029362792,
				"element": "C" 
			},
			{
				"x": -3.1588760481,
				"y": 0.7010949688,
				"z": -1.1400490316,
				"element": "C" 
			},
			{
				"x": -3.7373791008,
				"y": -0.4559931046,
				"z": -0.5769160837,
				"element": "C" 
			},
			{
				"x": -3.185095388,
				"y": -1.0768094383,
				"z": 0.5400564963,
				"element": "C" 
			},
			{
				"x": 0.6296711838,
				"y": -0.409266993,
				"z": 3.4231628695,
				"element": "C" 
			},
			{
				"x": 1.3445564845,
				"y": 0.627133032,
				"z": 3.9503164523,
				"element": "O" 
			},
			{
				"x": 0.7799592514,
				"y": -1.5328464017,
				"z": 3.8315880023,
				"element": "O" 
			},
			{
				"x": 3.5230562928,
				"y": 1.466335022,
				"z": 0.6927767884,
				"element": "H" 
			},
			{
				"x": 3.9848220636,
				"y": 0.8324958548,
				"z": -0.8878950101,
				"element": "H" 
			},
			{
				"x": 3.6465157169,
				"y": 2.5651389219,
				"z": -0.6945715172,
				"element": "H" 
			},
			{
				"x": 1.5704402884,
				"y": 0.3005957802,
				"z": -0.4412297465,
				"element": "H" 
			},
			{
				"x": 1.7424646698,
				"y": 1.3834951682,
				"z": -1.8275993856,
				"element": "H" 
			},
			{
				"x": 1.5617921725,
				"y": 1.947245019,
				"z": 1.7868133748,
				"element": "H" 
			},
			{
				"x": 0.189721432,
				"y": 3.027849369,
				"z": 1.4875049757,
				"element": "H" 
			},
			{
				"x": -1.5547008466,
				"y": 2.1512125154,
				"z": -1.0430939815,
				"element": "H" 
			},
			{
				"x": -3.6208790432,
				"y": 1.1493399952,
				"z": -2.0144362314,
				"element": "H" 
			},
			{
				"x": -4.6318121633,
				"y": -0.8750565087,
				"z": -1.0278666848,
				"element": "H" 
			},
			{
				"x": -3.6141177513,
				"y": -1.9693356287,
				"z": 0.9813712792,
				"element": "H" 
			},
			{
				"x": 0.9457846519,
				"y": 1.4700403847,
				"z": 3.6935980796,
				"element": "H" 
			}
		],
		 "valence_orbital": [ 
			{
				"type": "occ",
				"energy": -0.30249,
				"method": "rhf"
			},
			{
				"type": "occ",
				"energy": -0.28328,
				"method": "rhf"
			},
			{
				"type": "occ",
				"energy": -0.27239,
				"method": "rhf"
			},
			{
				"type": "occ",
				"energy": -0.25009,
				"method": "rhf"
			},
			{
				"type": "occ",
				"energy": -0.23845,
				"method": "rhf"
			},
			{
				"type": "unocc",
				"energy": -0.06158,
				"method": "rhf"
			},
			{
				"type": "unocc",
				"energy": -0.00199,
				"method": "rhf"
			},
			{
				"type": "unocc",
				"energy": 0.00662,
				"method": "rhf"
			},
			{
				"type": "unocc",
				"energy": 0.05246,
				"method": "rhf"
			},
			{
				"type": "unocc",
				"energy": 0.06324,
				"method": "rhf"
			}
		],
		"cosmo_sigma_profile": { 
			"-0.025": 0.0,
			"-0.024": 0.0,
			"-0.023": 0.0,
			"-0.022": 0.0,
			"-0.021": 0.0,
			"-0.02": 0.0,
			"-0.019": 0.192525549866,
			"-0.018": 0.929888664592,
			"-0.017": 1.13859244673,
			"-0.016": 0.984110345055,
			"-0.015": 1.00609395137,
			"-0.014": 0.856834395624,
			"-0.013": 0.876281670206,
			"-0.012": 0.867284418686,
			"-0.011": 1.00602744194,
			"-0.01": 0.904219795801,
			"-0.009": 0.949355879158,
			"-0.008": 2.34989989981,
			"-0.007": 5.74760798678,
			"-0.006": 12.3959843857,
			"-0.005": 15.0470051169,
			"-0.004": 19.5812360941,
			"-0.003": 23.082164902,
			"-0.002": 20.3856287507,
			"-0.001": 19.5757047557,
			"0.0": 20.1296075109,
			"0.001": 18.3326643373,
			"0.002": 14.5549417126,
			"0.003": 14.7239018975,
			"0.004": 13.8385545624,
			"0.005": 7.05970640842,
			"0.006": 3.49161324414,
			"0.007": 5.26539417769,
			"0.008": 4.494901868,
			"0.009": 5.45291718687,
			"0.01": 7.54013976987,
			"0.011": 6.81506374402,
			"0.012": 5.11466330565,
			"0.013": 0.85744304404,
			"0.014": 0.0,
			"0.015": 0.0,
			"0.016": 0.0,
			"0.017": 0.0,
			"0.018": 0.0,
			"0.019": 0.0,
			"0.02": 0.0,
			"0.021": 0.0,
			"0.022": 0.0,
			"0.023": 0.0,
			"0.024": 0.0,
			"0.025": 0.0
		}
	}
}
