{
	 "smiles": "NC1=CC=C(C=CC(O)=O)C=C1", 
	 "Tm": 395.15, 
	 "num_atms": 21, 
	 "gaussian": { 
		 "optdone": 1, 
		 "sigma_profile": "yes", 
		 "theory": "DFT", 
		 "functional": "B3LYP", 
		 "basiset": "6-31G**", 
		 "properties": { 
			 "R2extent": 3443.8938, 
			 "electric_dipole_moment_norm": 5.54304803335, 
			 "electric_quadrupole_moment_norm": 15.7467808605, 
			 "total_energy": -553.589987506, 
			 "HOMO_LUMO_gap": 0.15014, 
			 "cosmo_polarized_energy": -16.2, 
			 "cosmo_cavitation_energy": 26.12, 
			 "cosmo_dispersion_energy": -19.2, 
			 "cosmo_repulsion_energy": 1.54, 
			 "cosmo_total_nonelectrostatic_energy": 8.45, 
			 "SMD_solvation_energy": 5.81 
		},
		"coords": [
			{
				"x": 3.3999758416,
				"y": -1.6366129523,
				"z": -1.7068182127,
				"element": "N" 
			},
			{
				"x": 2.4122937404,
				"y": -0.9620568185,
				"z": -1.0072035134,
				"element": "C" 
			},
			{
				"x": 1.7349232724,
				"y": -1.5853216784,
				"z": 0.0621221797,
				"element": "C" 
			},
			{
				"x": 0.7830964186,
				"y": -0.8968639139,
				"z": 0.795013738,
				"element": "C" 
			},
			{
				"x": 0.4564105987,
				"y": 0.4440462215,
				"z": 0.5033800279,
				"element": "C" 
			},
			{
				"x": -0.5376732542,
				"y": 1.2115826112,
				"z": 1.2407548664,
				"element": "C" 
			},
			{
				"x": -1.2882781095,
				"y": 0.8019136951,
				"z": 2.285717689,
				"element": "C" 
			},
			{
				"x": -2.2702681491,
				"y": 1.6498335805,
				"z": 2.9693989326,
				"element": "C" 
			},
			{
				"x": -2.3692604328,
				"y": 2.9111880264,
				"z": 2.4582567547,
				"element": "O" 
			},
			{
				"x": -2.9529654205,
				"y": 1.29037134,
				"z": 3.9124410791,
				"element": "O" 
			},
			{
				"x": 1.1405292671,
				"y": 1.0543488181,
				"z": -0.5657021146,
				"element": "C" 
			},
			{
				"x": 2.0959045961,
				"y": 0.3754293215,
				"z": -1.3083499175,
				"element": "C" 
			},
			{
				"x": 3.3731196106,
				"y": -2.6450483601,
				"z": -1.668534128,
				"element": "H" 
			},
			{
				"x": 3.6322142576,
				"y": -1.2773680316,
				"z": -2.6212288494,
				"element": "H" 
			},
			{
				"x": 1.9692277177,
				"y": -2.6171628668,
				"z": 0.3119063772,
				"element": "H" 
			},
			{
				"x": 0.2806808155,
				"y": -1.4099574735,
				"z": 1.6091950305,
				"element": "H" 
			},
			{
				"x": -0.6824094317,
				"y": 2.2344633168,
				"z": 0.8987566837,
				"element": "H" 
			},
			{
				"x": -1.218541286,
				"y": -0.1976024518,
				"z": 2.7012934774,
				"element": "H" 
			},
			{
				"x": -3.0443200996,
				"y": 3.3502834436,
				"z": 2.9999755834,
				"element": "H" 
			},
			{
				"x": 0.9106075293,
				"y": 2.0867005966,
				"z": -0.817295191,
				"element": "H" 
			},
			{
				"x": 2.6078325177,
				"y": 0.8768335755,
				"z": -2.125780493,
				"element": "H" 
			}
		],
		 "valence_orbital": [ 
			{
				"type": "occ",
				"energy": -0.30192,
				"method": "rhf"
			},
			{
				"type": "occ",
				"energy": -0.27334,
				"method": "rhf"
			},
			{
				"type": "occ",
				"energy": -0.25964,
				"method": "rhf"
			},
			{
				"type": "occ",
				"energy": -0.25834,
				"method": "rhf"
			},
			{
				"type": "occ",
				"energy": -0.20345,
				"method": "rhf"
			},
			{
				"type": "unocc",
				"energy": -0.05331,
				"method": "rhf"
			},
			{
				"type": "unocc",
				"energy": -0.00722,
				"method": "rhf"
			},
			{
				"type": "unocc",
				"energy": 0.03402,
				"method": "rhf"
			},
			{
				"type": "unocc",
				"energy": 0.06965,
				"method": "rhf"
			},
			{
				"type": "unocc",
				"energy": 0.08945,
				"method": "rhf"
			}
		],
		"cosmo_sigma_profile": { 
			"-0.025": 0.0,
			"-0.024": 0.0,
			"-0.023": 0.0,
			"-0.022": 0.0,
			"-0.021": 0.0,
			"-0.02": 0.0,
			"-0.019": 0.0,
			"-0.018": 0.104563606338,
			"-0.017": 0.794651242689,
			"-0.016": 0.829826198147,
			"-0.015": 0.968895631248,
			"-0.014": 0.617631129959,
			"-0.013": 3.1222289685,
			"-0.012": 3.0826528822,
			"-0.011": 3.66289803134,
			"-0.01": 4.3282780342,
			"-0.009": 3.80028718594,
			"-0.008": 3.86741104351,
			"-0.007": 7.10408510349,
			"-0.006": 11.2732468025,
			"-0.005": 11.3544775826,
			"-0.004": 9.86416490756,
			"-0.003": 8.94611901505,
			"-0.002": 8.14134109422,
			"-0.001": 9.08256205384,
			"0.0": 9.8500764877,
			"0.001": 12.3098323651,
			"0.002": 14.5818970867,
			"0.003": 15.7580719283,
			"0.004": 16.769789415,
			"0.005": 16.7177301944,
			"0.006": 4.79624324644,
			"0.007": 3.7079858441,
			"0.008": 3.77135780761,
			"0.009": 3.05789414464,
			"0.01": 2.19942202207,
			"0.011": 2.80952904773,
			"0.012": 4.64409956662,
			"0.013": 5.06950475206,
			"0.014": 0.905687424212,
			"0.015": 0.0,
			"0.016": 0.0,
			"0.017": 0.0,
			"0.018": 0.0,
			"0.019": 0.0,
			"0.02": 0.0,
			"0.021": 0.0,
			"0.022": 0.0,
			"0.023": 0.0,
			"0.024": 0.0,
			"0.025": 0.0
		}
	}
}
