{
	 "smiles": "CNC1=NC=NC(Cl)=C1", 
	 "Tm": 412.15, 
	 "num_atms": 15, 
	 "gaussian": { 
		 "optdone": 1, 
		 "sigma_profile": "yes", 
		 "theory": "DFT", 
		 "functional": "B3LYP", 
		 "basiset": "6-31G**", 
		 "properties": { 
			 "R2extent": 1677.8389, 
			 "electric_dipole_moment_norm": 4.83238374614, 
			 "electric_quadrupole_moment_norm": 1.16509024972, 
			 "total_energy": -818.599950213, 
			 "HOMO_LUMO_gap": 0.20692, 
			 "cosmo_polarized_energy": -10.28, 
			 "cosmo_cavitation_energy": 21.02, 
			 "cosmo_dispersion_energy": -16.02, 
			 "cosmo_repulsion_energy": 1.32, 
			 "cosmo_total_nonelectrostatic_energy": 6.32, 
			 "SMD_solvation_energy": 0.21 
		},
		"coords": [
			{
				"x": -0.3509704856,
				"y": 1.9324919059,
				"z": -1.824055404,
				"element": "C" 
			},
			{
				"x": -0.6208350927,
				"y": 1.9604629537,
				"z": -0.4025994491,
				"element": "N" 
			},
			{
				"x": -0.4851438938,
				"y": 0.902845433,
				"z": 0.4362491036,
				"element": "C" 
			},
			{
				"x": -0.7855892484,
				"y": 1.1355913323,
				"z": 1.7355888008,
				"element": "N" 
			},
			{
				"x": -0.6563151717,
				"y": 0.1074235327,
				"z": 2.5636769263,
				"element": "C" 
			},
			{
				"x": -0.2623739513,
				"y": -1.1410974601,
				"z": 2.2705341413,
				"element": "N" 
			},
			{
				"x": 0.0243990986,
				"y": -1.3369406573,
				"z": 0.9910092258,
				"element": "C" 
			},
			{
				"x": 0.5482746678,
				"y": -2.9564714789,
				"z": 0.5402590439,
				"element": "Cl" 
			},
			{
				"x": -0.058426613,
				"y": -0.3708422094,
				"z": 0.0008683092,
				"element": "C" 
			},
			{
				"x": -0.5455728316,
				"y": 2.9234726109,
				"z": -2.2369073018,
				"element": "H" 
			},
			{
				"x": 0.6948660971,
				"y": 1.6755622273,
				"z": -2.0361650289,
				"element": "H" 
			},
			{
				"x": -0.9948873418,
				"y": 1.2142026815,
				"z": -2.3476524984,
				"element": "H" 
			},
			{
				"x": -0.93188279,
				"y": 2.8129270577,
				"z": 0.0381232171,
				"element": "H" 
			},
			{
				"x": -0.8981717319,
				"y": 0.2958043866,
				"z": 3.6080662014,
				"element": "H" 
			},
			{
				"x": 0.1887292883,
				"y": -0.5889323157,
				"z": -1.0288952872,
				"element": "H" 
			}
		],
		 "valence_orbital": [ 
			{
				"type": "occ",
				"energy": -0.31384,
				"method": "rhf"
			},
			{
				"type": "occ",
				"energy": -0.30399,
				"method": "rhf"
			},
			{
				"type": "occ",
				"energy": -0.27727,
				"method": "rhf"
			},
			{
				"type": "occ",
				"energy": -0.26335,
				"method": "rhf"
			},
			{
				"type": "occ",
				"energy": -0.23731,
				"method": "rhf"
			},
			{
				"type": "unocc",
				"energy": -0.03039,
				"method": "rhf"
			},
			{
				"type": "unocc",
				"energy": -0.01316,
				"method": "rhf"
			},
			{
				"type": "unocc",
				"energy": 0.03408,
				"method": "rhf"
			},
			{
				"type": "unocc",
				"energy": 0.07297,
				"method": "rhf"
			},
			{
				"type": "unocc",
				"energy": 0.09534,
				"method": "rhf"
			}
		],
		"cosmo_sigma_profile": { 
			"-0.025": 0.0,
			"-0.024": 0.0,
			"-0.023": 0.0,
			"-0.022": 0.0,
			"-0.021": 0.0,
			"-0.02": 0.0,
			"-0.019": 0.0,
			"-0.018": 0.0,
			"-0.017": 0.0,
			"-0.016": 0.0,
			"-0.015": 0.012930909982,
			"-0.014": 0.937357767871,
			"-0.013": 0.997520543664,
			"-0.012": 1.01502558729,
			"-0.011": 1.25189497802,
			"-0.01": 0.737471965148,
			"-0.009": 0.891721271634,
			"-0.008": 2.99323764764,
			"-0.007": 6.13315240771,
			"-0.006": 7.89204524363,
			"-0.005": 11.2204415302,
			"-0.004": 10.2271191545,
			"-0.003": 10.6552950519,
			"-0.002": 12.3808401218,
			"-0.001": 12.3108939556,
			"0.0": 16.765490015,
			"0.001": 14.0221695913,
			"0.002": 10.6673942695,
			"0.003": 10.8794091572,
			"0.004": 11.6268976746,
			"0.005": 5.35670805292,
			"0.006": 3.7055225259,
			"0.007": 3.46723794591,
			"0.008": 2.61283366663,
			"0.009": 1.63850422904,
			"0.01": 1.77299095876,
			"0.011": 2.09159271355,
			"0.012": 1.92752647738,
			"0.013": 1.78183040031,
			"0.014": 1.52422751433,
			"0.015": 0.77623970677,
			"0.016": 0.0564044204474,
			"0.017": 0.0,
			"0.018": 0.0,
			"0.019": 0.0,
			"0.02": 0.0,
			"0.021": 0.0,
			"0.022": 0.0,
			"0.023": 0.0,
			"0.024": 0.0,
			"0.025": 0.0
		}
	}
}
