{
	 "smiles": "OC(=O)CC(NC(=O)OCC1C2=C(C=CC=C2)C2=C1C=CC=C2)C1=CC=C(Br)C=C1", 
	 "Tm": 465.15, 
	 "num_atms": 50, 
	 "gaussian": { 
		 "optdone": 1, 
		 "sigma_profile": "yes", 
		 "theory": "DFT", 
		 "functional": "B3LYP", 
		 "basiset": "6-31G**", 
		 "properties": { 
			 "R2extent": 22163.5347, 
			 "electric_dipole_moment_norm": 4.46324749034, 
			 "electric_quadrupole_moment_norm": 24.811181458, 
			 "total_energy": -3853.70799848, 
			 "HOMO_LUMO_gap": 0.18394, 
			 "cosmo_polarized_energy": -24.16, 
			 "cosmo_cavitation_energy": 57.1, 
			 "cosmo_dispersion_energy": -38.62, 
			 "cosmo_repulsion_energy": 2.97, 
			 "cosmo_total_nonelectrostatic_energy": 21.45, 
			 "SMD_solvation_energy": 8.9 
		},
		"coords": [
			{
				"x": 5.1022352327,
				"y": 0.9178020847,
				"z": 3.7815344386,
				"element": "O" 
			},
			{
				"x": 3.9883547347,
				"y": 0.1690617705,
				"z": 3.586507145,
				"element": "C" 
			},
			{
				"x": 3.6241655915,
				"y": -0.6057664403,
				"z": 4.4378926729,
				"element": "O" 
			},
			{
				"x": 3.2455409669,
				"y": 0.4312166797,
				"z": 2.2815412933,
				"element": "C" 
			},
			{
				"x": 2.2997702771,
				"y": -0.7337026674,
				"z": 1.9301164479,
				"element": "C" 
			},
			{
				"x": 1.2231911888,
				"y": -0.3021278724,
				"z": 1.0320842956,
				"element": "N" 
			},
			{
				"x": 1.3844041554,
				"y": 0.4339323942,
				"z": -0.1029652882,
				"element": "C" 
			},
			{
				"x": 2.4241407059,
				"y": 0.9459441649,
				"z": -0.4949377551,
				"element": "O" 
			},
			{
				"x": 0.1948820747,
				"y": 0.5437715619,
				"z": -0.7476069055,
				"element": "O" 
			},
			{
				"x": 0.2196573193,
				"y": 1.3097158147,
				"z": -1.9624848968,
				"element": "C" 
			},
			{
				"x": -1.1887892876,
				"y": 1.3054251491,
				"z": -2.5586361197,
				"element": "C" 
			},
			{
				"x": -2.2637057772,
				"y": 1.8888680914,
				"z": -1.6520510693,
				"element": "C" 
			},
			{
				"x": -3.3078005599,
				"y": 0.9590960556,
				"z": -1.4738763821,
				"element": "C" 
			},
			{
				"x": -4.4144625222,
				"y": 1.2820846159,
				"z": -0.6858877408,
				"element": "C" 
			},
			{
				"x": -4.465625462,
				"y": 2.5383585991,
				"z": -0.0770980797,
				"element": "C" 
			},
			{
				"x": -3.4285502688,
				"y": 3.4602357744,
				"z": -0.2548248356,
				"element": "C" 
			},
			{
				"x": -2.3201402496,
				"y": 3.138944085,
				"z": -1.0475611095,
				"element": "C" 
			},
			{
				"x": -2.9843914636,
				"y": -0.2607184137,
				"z": -2.2272675475,
				"element": "C" 
			},
			{
				"x": -1.742177846,
				"y": -0.0787898671,
				"z": -2.8677366152,
				"element": "C" 
			},
			{
				"x": -1.1998084483,
				"y": -1.0862304591,
				"z": -3.6565622872,
				"element": "C" 
			},
			{
				"x": -1.9043062228,
				"y": -2.2872392943,
				"z": -3.8028833997,
				"element": "C" 
			},
			{
				"x": -3.1376031948,
				"y": -2.4690341858,
				"z": -3.1681147625,
				"element": "C" 
			},
			{
				"x": -3.6879316611,
				"y": -1.4576005331,
				"z": -2.3771883435,
				"element": "C" 
			},
			{
				"x": 3.0510076624,
				"y": -1.9721625452,
				"z": 1.4426217687,
				"element": "C" 
			},
			{
				"x": 3.1908814854,
				"y": -3.0758315607,
				"z": 2.2918950617,
				"element": "C" 
			},
			{
				"x": 3.8768802666,
				"y": -4.2202890007,
				"z": 1.8814241566,
				"element": "C" 
			},
			{
				"x": 4.4276214379,
				"y": -4.2558632918,
				"z": 0.6035034002,
				"element": "C" 
			},
			{
				"x": 5.3642832232,
				"y": -5.8196047123,
				"z": 0.0233421191,
				"element": "Br" 
			},
			{
				"x": 4.3096005057,
				"y": -3.167838261,
				"z": -0.2606636078,
				"element": "C" 
			},
			{
				"x": 3.6248822886,
				"y": -2.0298887568,
				"z": 0.1636293909,
				"element": "C" 
			},
			{
				"x": 5.2762013608,
				"y": 1.4664661142,
				"z": 3.0033265651,
				"element": "H" 
			},
			{
				"x": 3.9363399533,
				"y": 0.6331004403,
				"z": 1.4594235612,
				"element": "H" 
			},
			{
				"x": 2.6541825897,
				"y": 1.3451777746,
				"z": 2.4236275769,
				"element": "H" 
			},
			{
				"x": 1.8039133002,
				"y": -1.0024426227,
				"z": 2.8664965595,
				"element": "H" 
			},
			{
				"x": 0.326112475,
				"y": -0.7544387974,
				"z": 1.133845782,
				"element": "H" 
			},
			{
				"x": 0.5515928091,
				"y": 2.3298699654,
				"z": -1.7439305359,
				"element": "H" 
			},
			{
				"x": 0.9426565605,
				"y": 0.8691201132,
				"z": -2.6565314925,
				"element": "H" 
			},
			{
				"x": -1.1218798931,
				"y": 1.896078789,
				"z": -3.4853078432,
				"element": "H" 
			},
			{
				"x": -5.2247138676,
				"y": 0.5718970705,
				"z": -0.54556887,
				"element": "H" 
			},
			{
				"x": -5.3200140348,
				"y": 2.8030825058,
				"z": 0.5393053612,
				"element": "H" 
			},
			{
				"x": -3.4845165544,
				"y": 4.4333835546,
				"z": 0.2242853209,
				"element": "H" 
			},
			{
				"x": -1.5198321647,
				"y": 3.8624012019,
				"z": -1.1830506347,
				"element": "H" 
			},
			{
				"x": -0.2431263356,
				"y": -0.9523204437,
				"z": -4.155554854,
				"element": "H" 
			},
			{
				"x": -1.4906187486,
				"y": -3.0834053259,
				"z": -4.4149083027,
				"element": "H" 
			},
			{
				"x": -3.6729570223,
				"y": -3.4059543281,
				"z": -3.2927948931,
				"element": "H" 
			},
			{
				"x": -4.6473431569,
				"y": -1.6047993988,
				"z": -1.8888747059,
				"element": "H" 
			},
			{
				"x": 2.7761436211,
				"y": -3.0361131171,
				"z": 3.2945627388,
				"element": "H" 
			},
			{
				"x": 3.9801230681,
				"y": -5.0699350194,
				"z": 2.5466286917,
				"element": "H" 
			},
			{
				"x": 4.7486274745,
				"y": -3.2087645998,
				"z": -1.2511508584,
				"element": "H" 
			},
			{
				"x": 3.5391024129,
				"y": -1.1799728563,
				"z": -0.5057746117,
				"element": "H" 
			}
		],
		 "valence_orbital": [ 
			{
				"type": "occ",
				"energy": -0.26044,
				"method": "rhf"
			},
			{
				"type": "occ",
				"energy": -0.25405,
				"method": "rhf"
			},
			{
				"type": "occ",
				"energy": -0.24907,
				"method": "rhf"
			},
			{
				"type": "occ",
				"energy": -0.23796,
				"method": "rhf"
			},
			{
				"type": "occ",
				"energy": -0.21923,
				"method": "rhf"
			},
			{
				"type": "unocc",
				"energy": -0.03529,
				"method": "rhf"
			},
			{
				"type": "unocc",
				"energy": -0.01835,
				"method": "rhf"
			},
			{
				"type": "unocc",
				"energy": -0.01699,
				"method": "rhf"
			},
			{
				"type": "unocc",
				"energy": -0.01175,
				"method": "rhf"
			},
			{
				"type": "unocc",
				"energy": 0.00381,
				"method": "rhf"
			}
		],
		"cosmo_sigma_profile": { 
			"-0.025": 0.0,
			"-0.024": 0.0,
			"-0.023": 0.0,
			"-0.022": 0.0,
			"-0.021": 0.0,
			"-0.02": 0.00937636163151,
			"-0.019": 0.729050867411,
			"-0.018": 1.50627389665,
			"-0.017": 0.920673871432,
			"-0.016": 0.808678038222,
			"-0.015": 2.06801168373,
			"-0.014": 2.10107107905,
			"-0.013": 1.69054810281,
			"-0.012": 2.28547178763,
			"-0.011": 1.73560917043,
			"-0.01": 2.4862659268,
			"-0.009": 2.67033129366,
			"-0.008": 3.84072732298,
			"-0.007": 8.09762247066,
			"-0.006": 27.8105886504,
			"-0.005": 36.6683308263,
			"-0.004": 32.9308687865,
			"-0.003": 30.9958066844,
			"-0.002": 26.0537080414,
			"-0.001": 27.4426043125,
			"0.0": 25.1789036481,
			"0.001": 26.0274689273,
			"0.002": 32.3261728671,
			"0.003": 37.8469824511,
			"0.004": 36.8545234386,
			"0.005": 30.0686339996,
			"0.006": 19.1737504365,
			"0.007": 7.52624199481,
			"0.008": 5.90525012178,
			"0.009": 3.84247564902,
			"0.01": 6.32094749037,
			"0.011": 5.62996078261,
			"0.012": 5.20441832138,
			"0.013": 3.59145440343,
			"0.014": 0.143367397612,
			"0.015": 0.0,
			"0.016": 0.0,
			"0.017": 0.0,
			"0.018": 0.0,
			"0.019": 0.0,
			"0.02": 0.0,
			"0.021": 0.0,
			"0.022": 0.0,
			"0.023": 0.0,
			"0.024": 0.0,
			"0.025": 0.0
		}
	}
}
