{
	 "smiles": "FC1=C(C#N)C(SC2=CC=CC=C2)=CC=C1", 
	 "Tm": 382.15, 
	 "num_atms": 24, 
	 "gaussian": { 
		 "optdone": 1, 
		 "sigma_profile": "yes", 
		 "theory": "DFT", 
		 "functional": "B3LYP", 
		 "basiset": "6-31G**", 
		 "properties": { 
			 "R2extent": 4003.3518, 
			 "electric_dipole_moment_norm": 4.41666998541, 
			 "electric_quadrupole_moment_norm": 22.0543428474, 
			 "total_energy": -1052.9516236, 
			 "HOMO_LUMO_gap": 0.16737, 
			 "cosmo_polarized_energy": -11.08, 
			 "cosmo_cavitation_energy": 31.75, 
			 "cosmo_dispersion_energy": -21.92, 
			 "cosmo_repulsion_energy": 1.64, 
			 "cosmo_total_nonelectrostatic_energy": 11.47, 
			 "SMD_solvation_energy": 6.46 
		},
		"coords": [
			{
				"x": -2.1664922872,
				"y": -3.4003359351,
				"z": -1.3973717762,
				"element": "F" 
			},
			{
				"x": -2.4225380897,
				"y": -2.1871822197,
				"z": -0.8866332769,
				"element": "C" 
			},
			{
				"x": -1.415038763,
				"y": -1.5462127554,
				"z": -0.150880855,
				"element": "C" 
			},
			{
				"x": -0.1779062822,
				"y": -2.2312363518,
				"z": 0.0618648174,
				"element": "C" 
			},
			{
				"x": 0.8149487836,
				"y": -2.8110445449,
				"z": 0.2354721055,
				"element": "N" 
			},
			{
				"x": -1.678384324,
				"y": -0.2587786868,
				"z": 0.3781434703,
				"element": "C" 
			},
			{
				"x": -0.4824520023,
				"y": 0.6264191669,
				"z": 1.3768133014,
				"element": "S" 
			},
			{
				"x": 0.8795557997,
				"y": 0.8966561064,
				"z": 0.2286885234,
				"element": "C" 
			},
			{
				"x": 0.6945390454,
				"y": 1.6432165499,
				"z": -0.9423272062,
				"element": "C" 
			},
			{
				"x": 1.7794543262,
				"y": 1.8951758518,
				"z": -1.7809042234,
				"element": "C" 
			},
			{
				"x": 3.0524120564,
				"y": 1.4277009944,
				"z": -1.4432657485,
				"element": "C" 
			},
			{
				"x": 3.2362270421,
				"y": 0.6959724914,
				"z": -0.2697742151,
				"element": "C" 
			},
			{
				"x": 2.1510113189,
				"y": 0.419687327,
				"z": 0.5643899139,
				"element": "C" 
			},
			{
				"x": -2.9393379665,
				"y": 0.3127840828,
				"z": 0.1830243414,
				"element": "C" 
			},
			{
				"x": -3.9276367679,
				"y": -0.3646525965,
				"z": -0.5355449941,
				"element": "C" 
			},
			{
				"x": -3.673154473,
				"y": -1.6191200719,
				"z": -1.0863318174,
				"element": "C" 
			},
			{
				"x": -0.2913903796,
				"y": 2.0222156826,
				"z": -1.1926313124,
				"element": "H" 
			},
			{
				"x": 1.6326199972,
				"y": 2.4676395426,
				"z": -2.6923204365,
				"element": "H" 
			},
			{
				"x": 3.896790832,
				"y": 1.6325538409,
				"z": -2.0948200485,
				"element": "H" 
			},
			{
				"x": 4.2215754021,
				"y": 0.3223798939,
				"z": -0.0076130917,
				"element": "H" 
			},
			{
				"x": 2.2832982708,
				"y": -0.1761016136,
				"z": 1.4609542857,
				"element": "H" 
			},
			{
				"x": -3.1377319815,
				"y": 1.2971748658,
				"z": 0.5921252266,
				"element": "H" 
			},
			{
				"x": -4.9001940385,
				"y": 0.0960252153,
				"z": -0.6782823498,
				"element": "H" 
			},
			{
				"x": -4.4166755188,
				"y": -2.1623368361,
				"z": -1.6582746343,
				"element": "H" 
			}
		],
		 "valence_orbital": [ 
			{
				"type": "occ",
				"energy": -0.28787,
				"method": "rhf"
			},
			{
				"type": "occ",
				"energy": -0.26983,
				"method": "rhf"
			},
			{
				"type": "occ",
				"energy": -0.26719,
				"method": "rhf"
			},
			{
				"type": "occ",
				"energy": -0.25768,
				"method": "rhf"
			},
			{
				"type": "occ",
				"energy": -0.23288,
				"method": "rhf"
			},
			{
				"type": "unocc",
				"energy": -0.06551,
				"method": "rhf"
			},
			{
				"type": "unocc",
				"energy": -0.0332,
				"method": "rhf"
			},
			{
				"type": "unocc",
				"energy": -0.02268,
				"method": "rhf"
			},
			{
				"type": "unocc",
				"energy": -0.00783,
				"method": "rhf"
			},
			{
				"type": "unocc",
				"energy": 0.03095,
				"method": "rhf"
			}
		],
		"cosmo_sigma_profile": { 
			"-0.025": 0.0,
			"-0.024": 0.0,
			"-0.023": 0.0,
			"-0.022": 0.0,
			"-0.021": 0.0,
			"-0.02": 0.0,
			"-0.019": 0.0,
			"-0.018": 0.0,
			"-0.017": 0.0,
			"-0.016": 0.0,
			"-0.015": 0.0,
			"-0.014": 0.0,
			"-0.013": 0.0,
			"-0.012": 0.0,
			"-0.011": 0.0,
			"-0.01": 0.0,
			"-0.009": 1.19459083514,
			"-0.008": 5.08216620983,
			"-0.007": 7.81206416346,
			"-0.006": 15.3388188285,
			"-0.005": 15.4476149149,
			"-0.004": 15.7900488079,
			"-0.003": 17.4109642034,
			"-0.002": 21.2763866772,
			"-0.001": 23.5149330192,
			"0.0": 21.6869949592,
			"0.001": 19.1184957036,
			"0.002": 19.2533037529,
			"0.003": 23.5871260135,
			"0.004": 16.63525185,
			"0.005": 11.6237300892,
			"0.006": 5.58707999924,
			"0.007": 4.98251466025,
			"0.008": 3.10216400279,
			"0.009": 2.87818573029,
			"0.01": 2.54953426967,
			"0.011": 2.14871165302,
			"0.012": 2.23645726143,
			"0.013": 0.622848540467,
			"0.014": 0.0,
			"0.015": 0.0,
			"0.016": 0.0,
			"0.017": 0.0,
			"0.018": 0.0,
			"0.019": 0.0,
			"0.02": 0.0,
			"0.021": 0.0,
			"0.022": 0.0,
			"0.023": 0.0,
			"0.024": 0.0,
			"0.025": 0.0
		}
	}
}
