{
	 "smiles": "OCC(F)(F)C(F)F", 
	 "Tm": 258.15, 
	 "num_atms": 12, 
	 "gaussian": { 
		 "optdone": 1, 
		 "sigma_profile": "yes", 
		 "theory": "DFT", 
		 "functional": "B3LYP", 
		 "basiset": "6-31G**", 
		 "properties": { 
			 "R2extent": 1674.0156, 
			 "electric_dipole_moment_norm": 1.85327387075, 
			 "electric_quadrupole_moment_norm": 10.0461457346, 
			 "total_energy": -591.286345423, 
			 "HOMO_LUMO_gap": 0.33968, 
			 "cosmo_polarized_energy": -9.18, 
			 "cosmo_cavitation_energy": 17.55, 
			 "cosmo_dispersion_energy": -12.44, 
			 "cosmo_repulsion_energy": 0.99, 
			 "cosmo_total_nonelectrostatic_energy": 6.11, 
			 "SMD_solvation_energy": 4.87 
		},
		"coords": [
			{
				"x": -1.8646009443,
				"y": -1.6362734123,
				"z": -0.3347406587,
				"element": "O" 
			},
			{
				"x": -0.9998445051,
				"y": -1.9354135118,
				"z": 0.7378248475,
				"element": "C" 
			},
			{
				"x": -0.5367361782,
				"y": -0.6190369801,
				"z": 1.3402923015,
				"element": "C" 
			},
			{
				"x": 0.1161185173,
				"y": 0.1330470476,
				"z": 0.4070305643,
				"element": "F" 
			},
			{
				"x": -1.6031469079,
				"y": 0.1068761626,
				"z": 1.7859595942,
				"element": "F" 
			},
			{
				"x": 0.4182001127,
				"y": -0.7806618586,
				"z": 2.5278964802,
				"element": "C" 
			},
			{
				"x": -0.2012030916,
				"y": -1.4973402129,
				"z": 3.5065972458,
				"element": "F" 
			},
			{
				"x": 1.5209745641,
				"y": -1.4713716621,
				"z": 2.125445108,
				"element": "F" 
			},
			{
				"x": -2.1613491772,
				"y": -2.4686984569,
				"z": -0.7207774299,
				"element": "H" 
			},
			{
				"x": -1.4909482575,
				"y": -2.5066336638,
				"z": 1.5380387726,
				"element": "H" 
			},
			{
				"x": -0.1016174682,
				"y": -2.4853520097,
				"z": 0.4238605678,
				"element": "H" 
			},
			{
				"x": 0.7214533359,
				"y": 0.194158558,
				"z": 2.9243726067,
				"element": "H" 
			}
		],
		 "valence_orbital": [ 
			{
				"type": "occ",
				"energy": -0.3938,
				"method": "rhf"
			},
			{
				"type": "occ",
				"energy": -0.39374,
				"method": "rhf"
			},
			{
				"type": "occ",
				"energy": -0.36241,
				"method": "rhf"
			},
			{
				"type": "occ",
				"energy": -0.32596,
				"method": "rhf"
			},
			{
				"type": "occ",
				"energy": -0.28831,
				"method": "rhf"
			},
			{
				"type": "unocc",
				"energy": 0.05137,
				"method": "rhf"
			},
			{
				"type": "unocc",
				"energy": 0.08471,
				"method": "rhf"
			},
			{
				"type": "unocc",
				"energy": 0.10293,
				"method": "rhf"
			},
			{
				"type": "unocc",
				"energy": 0.12922,
				"method": "rhf"
			},
			{
				"type": "unocc",
				"energy": 0.14064,
				"method": "rhf"
			}
		],
		"cosmo_sigma_profile": { 
			"-0.025": 0.0,
			"-0.024": 0.0,
			"-0.023": 0.0,
			"-0.022": 0.0,
			"-0.021": 0.0,
			"-0.02": 0.0,
			"-0.019": 0.0,
			"-0.018": 0.0444269343551,
			"-0.017": 1.07561210074,
			"-0.016": 0.87634895371,
			"-0.015": 0.857459999756,
			"-0.014": 1.30098827397,
			"-0.013": 0.981922738923,
			"-0.012": 0.597561962594,
			"-0.011": 1.6628258976,
			"-0.01": 3.3802278967,
			"-0.009": 3.19499900306,
			"-0.008": 2.8184788123,
			"-0.007": 3.87313782404,
			"-0.006": 6.46194708279,
			"-0.005": 7.04223733998,
			"-0.004": 5.50857874621,
			"-0.003": 4.89192499064,
			"-0.002": 5.13642939862,
			"-0.001": 4.30102169118,
			"0.0": 4.47659026855,
			"0.001": 5.19762872582,
			"0.002": 9.24591048816,
			"0.003": 27.1401200958,
			"0.004": 20.044829773,
			"0.005": 3.18590032384,
			"0.006": 2.71864559374,
			"0.007": 2.29963954426,
			"0.008": 1.91245316512,
			"0.009": 1.67071529785,
			"0.01": 2.08470500966,
			"0.011": 1.85240594836,
			"0.012": 2.27272869492,
			"0.013": 0.467822974706,
			"0.014": 0.0,
			"0.015": 0.0,
			"0.016": 0.0,
			"0.017": 0.0,
			"0.018": 0.0,
			"0.019": 0.0,
			"0.02": 0.0,
			"0.021": 0.0,
			"0.022": 0.0,
			"0.023": 0.0,
			"0.024": 0.0,
			"0.025": 0.0
		}
	}
}
