{
	 "smiles": "OC(=O)C1=C2OCCOC2=CC=C1", 
	 "Tm": 463.15, 
	 "num_atms": 21, 
	 "gaussian": { 
		 "optdone": 1, 
		 "sigma_profile": "yes", 
		 "theory": "DFT", 
		 "functional": "B3LYP", 
		 "basiset": "6-31G**", 
		 "properties": { 
			 "R2extent": 2408.749, 
			 "electric_dipole_moment_norm": 1.76142438384, 
			 "electric_quadrupole_moment_norm": 9.89743964417, 
			 "total_energy": -648.665941324, 
			 "HOMO_LUMO_gap": 0.17635, 
			 "cosmo_polarized_energy": -13.39, 
			 "cosmo_cavitation_energy": 24.85, 
			 "cosmo_dispersion_energy": -19.01, 
			 "cosmo_repulsion_energy": 1.5, 
			 "cosmo_total_nonelectrostatic_energy": 7.34, 
			 "SMD_solvation_energy": 5.81 
		},
		"coords": [
			{
				"x": 1.1861093786,
				"y": -0.5516389721,
				"z": 3.4349273997,
				"element": "O" 
			},
			{
				"x": 0.4412413553,
				"y": -0.6947114955,
				"z": 2.2999051169,
				"element": "C" 
			},
			{
				"x": -0.5937559253,
				"y": -1.3283608929,
				"z": 2.3078075601,
				"element": "O" 
			},
			{
				"x": 1.0540312053,
				"y": 0.0055114204,
				"z": 1.1400769078,
				"element": "C" 
			},
			{
				"x": 0.5047688932,
				"y": -0.1197169565,
				"z": -0.1561176929,
				"element": "C" 
			},
			{
				"x": -0.5828664899,
				"y": -0.9143080035,
				"z": -0.3588411305,
				"element": "O" 
			},
			{
				"x": -0.8552759746,
				"y": -1.2305198944,
				"z": -1.7245062196,
				"element": "C" 
			},
			{
				"x": -0.7377970981,
				"y": 0.0158484239,
				"z": -2.5808608635,
				"element": "C" 
			},
			{
				"x": 0.5926117767,
				"y": 0.5253727552,
				"z": -2.5012981387,
				"element": "O" 
			},
			{
				"x": 1.0981206659,
				"y": 0.5843867397,
				"z": -1.2252671577,
				"element": "C" 
			},
			{
				"x": 2.2305394599,
				"y": 1.3667644503,
				"z": -1.0166039448,
				"element": "C" 
			},
			{
				"x": 2.7841292735,
				"y": 1.4731377391,
				"z": 0.258710897,
				"element": "C" 
			},
			{
				"x": 2.1942199715,
				"y": 0.8065853912,
				"z": 1.3263684796,
				"element": "C" 
			},
			{
				"x": 0.6899802552,
				"y": -1.0294212484,
				"z": 4.1190603693,
				"element": "H" 
			},
			{
				"x": -1.8673031994,
				"y": -1.6415747511,
				"z": -1.7439142616,
				"element": "H" 
			},
			{
				"x": -0.1501440274,
				"y": -1.9954721954,
				"z": -2.0759857931,
				"element": "H" 
			},
			{
				"x": -0.9250551755,
				"y": -0.2015815615,
				"z": -3.6353488545,
				"element": "H" 
			},
			{
				"x": -1.4527826884,
				"y": 0.7765661278,
				"z": -2.2388417643,
				"element": "H" 
			},
			{
				"x": 2.6548072603,
				"y": 1.8871588106,
				"z": -1.8694263565,
				"element": "H" 
			},
			{
				"x": 3.6660963435,
				"y": 2.0851712935,
				"z": 0.416585306,
				"element": "H" 
			},
			{
				"x": 2.6076247393,
				"y": 0.8919028195,
				"z": 2.3230701413,
				"element": "H" 
			}
		],
		 "valence_orbital": [ 
			{
				"type": "occ",
				"energy": -0.31349,
				"method": "rhf"
			},
			{
				"type": "occ",
				"energy": -0.30518,
				"method": "rhf"
			},
			{
				"type": "occ",
				"energy": -0.26009,
				"method": "rhf"
			},
			{
				"type": "occ",
				"energy": -0.24455,
				"method": "rhf"
			},
			{
				"type": "occ",
				"energy": -0.21724,
				"method": "rhf"
			},
			{
				"type": "unocc",
				"energy": -0.04089,
				"method": "rhf"
			},
			{
				"type": "unocc",
				"energy": 0.00825,
				"method": "rhf"
			},
			{
				"type": "unocc",
				"energy": 0.06425,
				"method": "rhf"
			},
			{
				"type": "unocc",
				"energy": 0.0771,
				"method": "rhf"
			},
			{
				"type": "unocc",
				"energy": 0.09136,
				"method": "rhf"
			}
		],
		"cosmo_sigma_profile": { 
			"-0.025": 0.0,
			"-0.024": 0.0,
			"-0.023": 0.0,
			"-0.022": 0.0,
			"-0.021": 0.0,
			"-0.02": 0.0,
			"-0.019": 0.0,
			"-0.018": 0.326685886576,
			"-0.017": 0.856261289136,
			"-0.016": 1.05268026744,
			"-0.015": 0.656008095621,
			"-0.014": 0.462956071821,
			"-0.013": 0.707590881651,
			"-0.012": 0.665210954625,
			"-0.011": 0.839937125033,
			"-0.01": 1.14299608824,
			"-0.009": 0.3825064641,
			"-0.008": 1.16535222387,
			"-0.007": 9.27565981539,
			"-0.006": 19.5306283366,
			"-0.005": 16.0160264673,
			"-0.004": 13.8157702961,
			"-0.003": 8.38406571685,
			"-0.002": 10.0607751512,
			"-0.001": 11.0524756421,
			"0.0": 10.5965047583,
			"0.001": 12.6339997205,
			"0.002": 14.7832368548,
			"0.003": 13.7483106397,
			"0.004": 11.6686905537,
			"0.005": 5.33889308936,
			"0.006": 4.14529218704,
			"0.007": 4.98669407666,
			"0.008": 3.9565153885,
			"0.009": 3.29057062152,
			"0.01": 3.29905307581,
			"0.011": 3.01049766857,
			"0.012": 4.75887621818,
			"0.013": 1.99106537178,
			"0.014": 1.57025970254,
			"0.015": 1.69658643931,
			"0.016": 0.255242269092,
			"0.017": 0.0,
			"0.018": 0.0,
			"0.019": 0.0,
			"0.02": 0.0,
			"0.021": 0.0,
			"0.022": 0.0,
			"0.023": 0.0,
			"0.024": 0.0,
			"0.025": 0.0
		}
	}
}
