{
	 "smiles": "NC1=C(C=C(Br)C=C1)C(O)=O", 
	 "Tm": 493.15, 
	 "num_atms": 17, 
	 "gaussian": { 
		 "optdone": 1, 
		 "sigma_profile": "yes", 
		 "theory": "DFT", 
		 "functional": "B3LYP", 
		 "basiset": "6-31G**", 
		 "properties": { 
			 "R2extent": 3170.4173, 
			 "electric_dipole_moment_norm": 4.78254378548, 
			 "electric_quadrupole_moment_norm": 7.58662985653, 
			 "total_energy": -3046.98794877, 
			 "HOMO_LUMO_gap": 0.16057, 
			 "cosmo_polarized_energy": -12.78, 
			 "cosmo_cavitation_energy": 23.75, 
			 "cosmo_dispersion_energy": -18.38, 
			 "cosmo_repulsion_energy": 1.48, 
			 "cosmo_total_nonelectrostatic_energy": 6.84, 
			 "SMD_solvation_energy": 3.99 
		},
		"coords": [
			{
				"x": -1.5273372003,
				"y": -2.5631812915,
				"z": -0.9345716052,
				"element": "N" 
			},
			{
				"x": -1.3663631301,
				"y": -1.290711172,
				"z": -0.4525940932,
				"element": "C" 
			},
			{
				"x": -0.1291201054,
				"y": -0.5854616657,
				"z": -0.4714539744,
				"element": "C" 
			},
			{
				"x": -0.0511176217,
				"y": 0.7012204947,
				"z": 0.0980867328,
				"element": "C" 
			},
			{
				"x": -1.1579553225,
				"y": 1.2976041383,
				"z": 0.6680457172,
				"element": "C" 
			},
			{
				"x": -1.0290497062,
				"y": 3.0459062595,
				"z": 1.4296352541,
				"element": "Br" 
			},
			{
				"x": -2.3844888584,
				"y": 0.6215871883,
				"z": 0.6868407182,
				"element": "C" 
			},
			{
				"x": -2.4790582854,
				"y": -0.6439977404,
				"z": 0.1376379407,
				"element": "C" 
			},
			{
				"x": 1.135319528,
				"y": -1.0789384477,
				"z": -1.0597612527,
				"element": "C" 
			},
			{
				"x": 1.0448571365,
				"y": -2.3053862521,
				"z": -1.6624253149,
				"element": "O" 
			},
			{
				"x": 2.1946632318,
				"y": -0.4828643877,
				"z": -1.0461091407,
				"element": "O" 
			},
			{
				"x": -2.4664071873,
				"y": -2.8982451682,
				"z": -1.075177838,
				"element": "H" 
			},
			{
				"x": -0.7972666851,
				"y": -2.9630894374,
				"z": -1.5019804225,
				"element": "H" 
			},
			{
				"x": 0.9066733929,
				"y": 1.2060801633,
				"z": 0.0677955809,
				"element": "H" 
			},
			{
				"x": -3.2569693469,
				"y": 1.0880640027,
				"z": 1.1310394512,
				"element": "H" 
			},
			{
				"x": -3.4315935839,
				"y": -1.1667929658,
				"z": 0.1627248587,
				"element": "H" 
			},
			{
				"x": 1.937013744,
				"y": -2.4908937183,
				"z": -1.9993326123,
				"element": "H" 
			}
		],
		 "valence_orbital": [ 
			{
				"type": "occ",
				"energy": -0.28442,
				"method": "rhf"
			},
			{
				"type": "occ",
				"energy": -0.28246,
				"method": "rhf"
			},
			{
				"type": "occ",
				"energy": -0.28104,
				"method": "rhf"
			},
			{
				"type": "occ",
				"energy": -0.26755,
				"method": "rhf"
			},
			{
				"type": "occ",
				"energy": -0.21062,
				"method": "rhf"
			},
			{
				"type": "unocc",
				"energy": -0.05005,
				"method": "rhf"
			},
			{
				"type": "unocc",
				"energy": -0.00155,
				"method": "rhf"
			},
			{
				"type": "unocc",
				"energy": 0.01145,
				"method": "rhf"
			},
			{
				"type": "unocc",
				"energy": 0.05087,
				"method": "rhf"
			},
			{
				"type": "unocc",
				"energy": 0.06966,
				"method": "rhf"
			}
		],
		"cosmo_sigma_profile": { 
			"-0.025": 0.0,
			"-0.024": 0.0,
			"-0.023": 0.0,
			"-0.022": 0.0,
			"-0.021": 0.0,
			"-0.02": 0.0,
			"-0.019": 0.0201088693343,
			"-0.018": 1.09161929862,
			"-0.017": 0.685236938279,
			"-0.016": 0.740550940364,
			"-0.015": 0.772357202776,
			"-0.014": 1.55840267952,
			"-0.013": 1.78471973359,
			"-0.012": 2.32661360278,
			"-0.011": 2.17991027391,
			"-0.01": 3.04169784374,
			"-0.009": 3.07382734791,
			"-0.008": 3.62246488683,
			"-0.007": 4.9646155992,
			"-0.006": 6.58414759332,
			"-0.005": 6.22771885585,
			"-0.004": 6.72500957672,
			"-0.003": 7.0842592088,
			"-0.002": 10.7079873401,
			"-0.001": 12.2979840433,
			"0.0": 12.7376254898,
			"0.001": 16.5366177704,
			"0.002": 18.8298612775,
			"0.003": 23.8579146067,
			"0.004": 15.1794668668,
			"0.005": 11.9358608556,
			"0.006": 2.4881050628,
			"0.007": 2.0585712396,
			"0.008": 2.46064716098,
			"0.009": 1.48938587562,
			"0.01": 2.17221339226,
			"0.011": 3.53873882413,
			"0.012": 4.38610420607,
			"0.013": 0.0960326968008,
			"0.014": 0.0,
			"0.015": 0.0,
			"0.016": 0.0,
			"0.017": 0.0,
			"0.018": 0.0,
			"0.019": 0.0,
			"0.02": 0.0,
			"0.021": 0.0,
			"0.022": 0.0,
			"0.023": 0.0,
			"0.024": 0.0,
			"0.025": 0.0
		}
	}
}
