{
	 "smiles": "COC1=CC=C(NS(=O)(=O)CC2=CC=C(N)C=C2)C=C1", 
	 "Tm": 427.15, 
	 "num_atms": 36, 
	 "gaussian": { 
		 "optdone": 1, 
		 "sigma_profile": "yes", 
		 "theory": "DFT", 
		 "functional": "B3LYP", 
		 "basiset": "6-31G**", 
		 "properties": { 
			 "R2extent": 9807.7469, 
			 "electric_dipole_moment_norm": 4.46575217181, 
			 "electric_quadrupole_moment_norm": 39.1988955972, 
			 "total_energy": -1276.42334938, 
			 "HOMO_LUMO_gap": 0.18987, 
			 "cosmo_polarized_energy": -24.97, 
			 "cosmo_cavitation_energy": 41.63, 
			 "cosmo_dispersion_energy": -29.61, 
			 "cosmo_repulsion_energy": 2.24, 
			 "cosmo_total_nonelectrostatic_energy": 14.26, 
			 "SMD_solvation_energy": 6.69 
		},
		"coords": [
			{
				"x": -3.6612603551,
				"y": 0.3473437564,
				"z": 4.8329982433,
				"element": "C" 
			},
			{
				"x": -3.21271599,
				"y": -0.6388739335,
				"z": 3.9182781297,
				"element": "O" 
			},
			{
				"x": -1.8922021894,
				"y": -0.6433327347,
				"z": 3.5711894446,
				"element": "C" 
			},
			{
				"x": -0.9383578842,
				"y": 0.2624309469,
				"z": 4.0469018684,
				"element": "C" 
			},
			{
				"x": 0.3848615129,
				"y": 0.1678972122,
				"z": 3.6073447893,
				"element": "C" 
			},
			{
				"x": 0.7804599819,
				"y": -0.8395309802,
				"z": 2.7234984256,
				"element": "C" 
			},
			{
				"x": 2.147417859,
				"y": -0.959650042,
				"z": 2.3409123092,
				"element": "N" 
			},
			{
				"x": 2.6580649284,
				"y": -0.9851134814,
				"z": 0.718895977,
				"element": "S" 
			},
			{
				"x": 4.1184351925,
				"y": -0.9009715664,
				"z": 0.8006505776,
				"element": "O" 
			},
			{
				"x": 1.9837282523,
				"y": -2.1023825148,
				"z": 0.0565678325,
				"element": "O" 
			},
			{
				"x": 2.0144719325,
				"y": 0.5763170546,
				"z": -0.0126230102,
				"element": "C" 
			},
			{
				"x": 2.318601932,
				"y": 0.6791859713,
				"z": -1.47720943,
				"element": "C" 
			},
			{
				"x": 1.4176842965,
				"y": 0.1968602064,
				"z": -2.4363869314,
				"element": "C" 
			},
			{
				"x": 1.7049307175,
				"y": 0.270506707,
				"z": -3.7939674392,
				"element": "C" 
			},
			{
				"x": 2.9179968962,
				"y": 0.8256494251,
				"z": -4.2394888335,
				"element": "C" 
			},
			{
				"x": 3.1869442242,
				"y": 0.9515814999,
				"z": -5.6005946812,
				"element": "N" 
			},
			{
				"x": 3.8275060873,
				"y": 1.3033959221,
				"z": -3.2789788752,
				"element": "C" 
			},
			{
				"x": 3.5299475969,
				"y": 1.2252773592,
				"z": -1.9237463967,
				"element": "C" 
			},
			{
				"x": -0.1781954628,
				"y": -1.7591847345,
				"z": 2.2641346488,
				"element": "C" 
			},
			{
				"x": -1.4995358171,
				"y": -1.6476730082,
				"z": 2.6728035035,
				"element": "C" 
			},
			{
				"x": -3.1524730786,
				"y": 0.2632639981,
				"z": 5.8023031724,
				"element": "H" 
			},
			{
				"x": -3.5159327485,
				"y": 1.3622107839,
				"z": 4.4398489425,
				"element": "H" 
			},
			{
				"x": -4.7283308208,
				"y": 0.1674464822,
				"z": 4.9722856183,
				"element": "H" 
			},
			{
				"x": -1.2075511689,
				"y": 1.047173648,
				"z": 4.7435924824,
				"element": "H" 
			},
			{
				"x": 1.1165268171,
				"y": 0.8864598435,
				"z": 3.969223003,
				"element": "H" 
			},
			{
				"x": 2.8051144161,
				"y": -0.4216988102,
				"z": 2.8954031878,
				"element": "H" 
			},
			{
				"x": 0.9410418898,
				"y": 0.5677662657,
				"z": 0.1947546807,
				"element": "H" 
			},
			{
				"x": 2.4840484314,
				"y": 1.374329071,
				"z": 0.5691432318,
				"element": "H" 
			},
			{
				"x": 0.4809328859,
				"y": -0.2498012974,
				"z": -2.1149263038,
				"element": "H" 
			},
			{
				"x": 0.9878489275,
				"y": -0.1033880399,
				"z": -4.5204513525,
				"element": "H" 
			},
			{
				"x": 4.1651425674,
				"y": 1.0231192803,
				"z": -5.8440526861,
				"element": "H" 
			},
			{
				"x": 2.6921718066,
				"y": 0.3069407538,
				"z": -6.201342163,
				"element": "H" 
			},
			{
				"x": 4.7703546554,
				"y": 1.7371281767,
				"z": -3.6025440176,
				"element": "H" 
			},
			{
				"x": 4.2544483989,
				"y": 1.586283096,
				"z": -1.1989781938,
				"element": "H" 
			},
			{
				"x": 0.1259663892,
				"y": -2.5504165783,
				"z": 1.5894660925,
				"element": "H" 
			},
			{
				"x": -2.24999308,
				"y": -2.3485497389,
				"z": 2.3221941533,
				"element": "H" 
			}
		],
		 "valence_orbital": [ 
			{
				"type": "occ",
				"energy": -0.28654,
				"method": "rhf"
			},
			{
				"type": "occ",
				"energy": -0.25783,
				"method": "rhf"
			},
			{
				"type": "occ",
				"energy": -0.24891,
				"method": "rhf"
			},
			{
				"type": "occ",
				"energy": -0.21433,
				"method": "rhf"
			},
			{
				"type": "occ",
				"energy": -0.20019,
				"method": "rhf"
			},
			{
				"type": "unocc",
				"energy": -0.01032,
				"method": "rhf"
			},
			{
				"type": "unocc",
				"energy": -0.00759,
				"method": "rhf"
			},
			{
				"type": "unocc",
				"energy": -8e-05,
				"method": "rhf"
			},
			{
				"type": "unocc",
				"energy": 0.01349,
				"method": "rhf"
			},
			{
				"type": "unocc",
				"energy": 0.06839,
				"method": "rhf"
			}
		],
		"cosmo_sigma_profile": { 
			"-0.025": 0.0,
			"-0.024": 0.0,
			"-0.023": 0.0,
			"-0.022": 0.0,
			"-0.021": 0.0,
			"-0.02": 0.0,
			"-0.019": 0.0,
			"-0.018": 0.0,
			"-0.017": 0.0,
			"-0.016": 0.0978225463115,
			"-0.015": 0.942433306161,
			"-0.014": 1.37919662154,
			"-0.013": 1.80118766206,
			"-0.012": 4.17228152388,
			"-0.011": 4.11268543532,
			"-0.01": 5.23206736796,
			"-0.009": 4.74573319964,
			"-0.008": 5.82909702247,
			"-0.007": 9.56647514985,
			"-0.006": 21.1027943037,
			"-0.005": 25.7185301429,
			"-0.004": 26.6733502362,
			"-0.003": 23.6241996856,
			"-0.002": 15.9320589436,
			"-0.001": 12.9698950926,
			"0.0": 12.2228946079,
			"0.001": 13.8488382828,
			"0.002": 14.7252071544,
			"0.003": 18.5715583031,
			"0.004": 23.0963047595,
			"0.005": 21.9501103168,
			"0.006": 16.7178953753,
			"0.007": 6.70482635568,
			"0.008": 7.53254257901,
			"0.009": 6.8607215797,
			"0.01": 8.97575360624,
			"0.011": 9.89326824621,
			"0.012": 4.16826372685,
			"0.013": 0.818555191513,
			"0.014": 0.513591365241,
			"0.015": 0.0,
			"0.016": 0.0,
			"0.017": 0.0,
			"0.018": 0.0,
			"0.019": 0.0,
			"0.02": 0.0,
			"0.021": 0.0,
			"0.022": 0.0,
			"0.023": 0.0,
			"0.024": 0.0,
			"0.025": 0.0
		}
	}
}
