{
	 "smiles": "BrC1=CC=CC2=C1C=CC=C2", 
	 "Tm": 271.75, 
	 "num_atms": 18, 
	 "gaussian": { 
		 "optdone": 1, 
		 "sigma_profile": "yes", 
		 "theory": "DFT", 
		 "functional": "B3LYP", 
		 "basiset": "6-31G**", 
		 "properties": { 
			 "R2extent": 2992.1016, 
			 "electric_dipole_moment_norm": 1.76770812353, 
			 "electric_quadrupole_moment_norm": 8.65678699403, 
			 "total_energy": -2956.69800275, 
			 "HOMO_LUMO_gap": 0.171, 
			 "cosmo_polarized_energy": -4.5, 
			 "cosmo_cavitation_energy": 23.69, 
			 "cosmo_dispersion_energy": -18.29, 
			 "cosmo_repulsion_energy": 1.43, 
			 "cosmo_total_nonelectrostatic_energy": 6.83, 
			 "SMD_solvation_energy": 2.72 
		},
		"coords": [
			{
				"x": 0.9697168357,
				"y": 1.7503729726,
				"z": 3.001289844,
				"element": "Br" 
			},
			{
				"x": -0.2465412579,
				"y": 1.3060778739,
				"z": 1.5861873853,
				"element": "C" 
			},
			{
				"x": -1.5481070014,
				"y": 1.7344771525,
				"z": 1.7040484631,
				"element": "C" 
			},
			{
				"x": -2.4837093843,
				"y": 1.4323055716,
				"z": 0.6869577547,
				"element": "C" 
			},
			{
				"x": -2.0987519922,
				"y": 0.7124357542,
				"z": -0.4191496008,
				"element": "C" 
			},
			{
				"x": -0.7601716012,
				"y": 0.2602512636,
				"z": -0.5613062973,
				"element": "C" 
			},
			{
				"x": 0.2063986708,
				"y": 0.5568272478,
				"z": 0.4613628585,
				"element": "C" 
			},
			{
				"x": 1.5381483872,
				"y": 0.0925460297,
				"z": 0.2940081024,
				"element": "C" 
			},
			{
				"x": 1.9005767423,
				"y": -0.6267760427,
				"z": -0.8224665422,
				"element": "C" 
			},
			{
				"x": 0.9512602911,
				"y": -0.9198953348,
				"z": -1.8302549781,
				"element": "C" 
			},
			{
				"x": -0.3469573695,
				"y": -0.4848835968,
				"z": -1.6988023206,
				"element": "C" 
			},
			{
				"x": -1.8545089252,
				"y": 2.3022458604,
				"z": 2.5749689548,
				"element": "H" 
			},
			{
				"x": -3.5080796397,
				"y": 1.7764706397,
				"z": 0.7923904732,
				"element": "H" 
			},
			{
				"x": -2.8143928478,
				"y": 0.4783283533,
				"z": -1.2025192441,
				"element": "H" 
			},
			{
				"x": 2.2685062547,
				"y": 0.3147409732,
				"z": 1.0633584163,
				"element": "H" 
			},
			{
				"x": 2.9242611859,
				"y": -0.9726717541,
				"z": -0.9312945446,
				"element": "H" 
			},
			{
				"x": 1.2510082574,
				"y": -1.4883065563,
				"z": -2.7057517824,
				"element": "H" 
			},
			{
				"x": -1.0832566059,
				"y": -0.7050464078,
				"z": -2.4674269421,
				"element": "H" 
			}
		],
		 "valence_orbital": [ 
			{
				"type": "occ",
				"energy": -0.31549,
				"method": "rhf"
			},
			{
				"type": "occ",
				"energy": -0.28547,
				"method": "rhf"
			},
			{
				"type": "occ",
				"energy": -0.27028,
				"method": "rhf"
			},
			{
				"type": "occ",
				"energy": -0.25204,
				"method": "rhf"
			},
			{
				"type": "occ",
				"energy": -0.21876,
				"method": "rhf"
			},
			{
				"type": "unocc",
				"energy": -0.04776,
				"method": "rhf"
			},
			{
				"type": "unocc",
				"energy": -0.01767,
				"method": "rhf"
			},
			{
				"type": "unocc",
				"energy": 0.00958,
				"method": "rhf"
			},
			{
				"type": "unocc",
				"energy": 0.02551,
				"method": "rhf"
			},
			{
				"type": "unocc",
				"energy": 0.09011,
				"method": "rhf"
			}
		],
		"cosmo_sigma_profile": { 
			"-0.025": 0.0,
			"-0.024": 0.0,
			"-0.023": 0.0,
			"-0.022": 0.0,
			"-0.021": 0.0,
			"-0.02": 0.0,
			"-0.019": 0.0,
			"-0.018": 0.0,
			"-0.017": 0.0,
			"-0.016": 0.0,
			"-0.015": 0.0,
			"-0.014": 0.0,
			"-0.013": 0.0,
			"-0.012": 0.0,
			"-0.011": 0.0,
			"-0.01": 0.0,
			"-0.009": 0.0,
			"-0.008": 0.00325357353488,
			"-0.007": 3.68172937848,
			"-0.006": 12.6433452446,
			"-0.005": 13.9143200116,
			"-0.004": 15.2537347695,
			"-0.003": 11.648820734,
			"-0.002": 11.9721570053,
			"-0.001": 9.98472937268,
			"0.0": 11.5860482138,
			"0.001": 15.6150495911,
			"0.002": 23.0848258909,
			"0.003": 29.9764473588,
			"0.004": 25.1588714186,
			"0.005": 9.53565498019,
			"0.006": 0.0,
			"0.007": 0.0,
			"0.008": 0.0,
			"0.009": 0.0,
			"0.01": 0.0,
			"0.011": 0.0,
			"0.012": 0.0,
			"0.013": 0.0,
			"0.014": 0.0,
			"0.015": 0.0,
			"0.016": 0.0,
			"0.017": 0.0,
			"0.018": 0.0,
			"0.019": 0.0,
			"0.02": 0.0,
			"0.021": 0.0,
			"0.022": 0.0,
			"0.023": 0.0,
			"0.024": 0.0,
			"0.025": 0.0
		}
	}
}
