{
	 "smiles": "CC(C(O)=O)S(=O)(=O)CC1=CC(Br)=CC=C1", 
	 "Tm": 383.15, 
	 "num_atms": 27, 
	 "gaussian": { 
		 "optdone": 1, 
		 "sigma_profile": "yes", 
		 "theory": "DFT", 
		 "functional": "B3LYP", 
		 "basiset": "6-31G**", 
		 "properties": { 
			 "R2extent": 6210.6734, 
			 "electric_dipole_moment_norm": 2.91838428073, 
			 "electric_quadrupole_moment_norm": 10.9067657965, 
			 "total_energy": -3658.13698966, 
			 "HOMO_LUMO_gap": 0.21081, 
			 "cosmo_polarized_energy": -17.77, 
			 "cosmo_cavitation_energy": 34.4, 
			 "cosmo_dispersion_energy": -24.38, 
			 "cosmo_repulsion_energy": 1.85, 
			 "cosmo_total_nonelectrostatic_energy": 11.87, 
			 "SMD_solvation_energy": 4.84 
		},
		"coords": [
			{
				"x": 1.8713577533,
				"y": -0.5060409226,
				"z": 4.0250405531,
				"element": "C" 
			},
			{
				"x": 1.5942129243,
				"y": -0.2141612778,
				"z": 2.5411363862,
				"element": "C" 
			},
			{
				"x": 2.8958938333,
				"y": -0.0688595693,
				"z": 1.7304013794,
				"element": "C" 
			},
			{
				"x": 3.586381769,
				"y": 1.0687245134,
				"z": 1.8880101557,
				"element": "O" 
			},
			{
				"x": 3.2866993997,
				"y": -0.9673969493,
				"z": 1.0234744197,
				"element": "O" 
			},
			{
				"x": 0.5374510059,
				"y": 1.2853191415,
				"z": 2.4382196499,
				"element": "S" 
			},
			{
				"x": 1.4121578201,
				"y": 2.4308917887,
				"z": 2.8118805231,
				"element": "O" 
			},
			{
				"x": -0.7071791954,
				"y": 1.0512814459,
				"z": 3.1814575059,
				"element": "O" 
			},
			{
				"x": 0.1536313399,
				"y": 1.475028749,
				"z": 0.6509147349,
				"element": "C" 
			},
			{
				"x": -0.671346962,
				"y": 0.3585507342,
				"z": 0.0737541073,
				"element": "C" 
			},
			{
				"x": -0.0498583449,
				"y": -0.6739972103,
				"z": -0.6434945938,
				"element": "C" 
			},
			{
				"x": -0.8269822324,
				"y": -1.7004723012,
				"z": -1.1777797279,
				"element": "C" 
			},
			{
				"x": 0.0212509017,
				"y": -3.0979188138,
				"z": -2.162317369,
				"element": "Br" 
			},
			{
				"x": -2.2104759551,
				"y": -1.7239864193,
				"z": -1.009356157,
				"element": "C" 
			},
			{
				"x": -2.820917655,
				"y": -0.6974561882,
				"z": -0.2866229219,
				"element": "C" 
			},
			{
				"x": -2.0612317796,
				"y": 0.3383688969,
				"z": 0.2533609134,
				"element": "C" 
			},
			{
				"x": 0.9324249638,
				"y": -0.6431230759,
				"z": 4.5652460096,
				"element": "H" 
			},
			{
				"x": 2.4606607447,
				"y": -1.4235119216,
				"z": 4.0979486767,
				"element": "H" 
			},
			{
				"x": 2.4308469789,
				"y": 0.3088530276,
				"z": 4.490692756,
				"element": "H" 
			},
			{
				"x": 1.0173213801,
				"y": -1.0219374162,
				"z": 2.0873463621,
				"element": "H" 
			},
			{
				"x": 3.0536655591,
				"y": 1.7293790417,
				"z": 2.3864060858,
				"element": "H" 
			},
			{
				"x": 1.120592838,
				"y": 1.5938957855,
				"z": 0.155041495,
				"element": "H" 
			},
			{
				"x": -0.3639093508,
				"y": 2.4389259284,
				"z": 0.627419336,
				"element": "H" 
			},
			{
				"x": 1.0269896578,
				"y": -0.6853628011,
				"z": -0.7781590175,
				"element": "H" 
			},
			{
				"x": -2.7975890521,
				"y": -2.5292876169,
				"z": -1.4355618948,
				"element": "H" 
			},
			{
				"x": -3.897596197,
				"y": -0.7087399258,
				"z": -0.1478679666,
				"element": "H" 
			},
			{
				"x": -2.5416521452,
				"y": 1.128633356,
				"z": 0.8211085989,
				"element": "H" 
			}
		],
		 "valence_orbital": [ 
			{
				"type": "occ",
				"energy": -0.3168,
				"method": "rhf"
			},
			{
				"type": "occ",
				"energy": -0.29598,
				"method": "rhf"
			},
			{
				"type": "occ",
				"energy": -0.28359,
				"method": "rhf"
			},
			{
				"type": "occ",
				"energy": -0.27484,
				"method": "rhf"
			},
			{
				"type": "occ",
				"energy": -0.25626,
				"method": "rhf"
			},
			{
				"type": "unocc",
				"energy": -0.04545,
				"method": "rhf"
			},
			{
				"type": "unocc",
				"energy": -0.03308,
				"method": "rhf"
			},
			{
				"type": "unocc",
				"energy": -0.01976,
				"method": "rhf"
			},
			{
				"type": "unocc",
				"energy": -0.00351,
				"method": "rhf"
			},
			{
				"type": "unocc",
				"energy": 0.03303,
				"method": "rhf"
			}
		],
		"cosmo_sigma_profile": { 
			"-0.025": 0.0,
			"-0.024": 0.0,
			"-0.023": 0.0,
			"-0.022": 0.0,
			"-0.021": 0.0,
			"-0.02": 0.0,
			"-0.019": 0.0,
			"-0.018": 0.0,
			"-0.017": 0.0,
			"-0.016": 0.0,
			"-0.015": 0.0,
			"-0.014": 0.0,
			"-0.013": 0.0164100352049,
			"-0.012": 0.21070315161,
			"-0.011": 1.27857569862,
			"-0.01": 5.56932150532,
			"-0.009": 7.71181464764,
			"-0.008": 6.85766807084,
			"-0.007": 13.4637771058,
			"-0.006": 18.3213489344,
			"-0.005": 18.0972758048,
			"-0.004": 17.582399153,
			"-0.003": 16.6172327866,
			"-0.002": 16.4676284394,
			"-0.001": 13.1459459842,
			"0.0": 14.3348576526,
			"0.001": 17.7404889343,
			"0.002": 19.6294883424,
			"0.003": 17.7421845349,
			"0.004": 15.2046398426,
			"0.005": 8.23808345099,
			"0.006": 4.60535780429,
			"0.007": 6.2120666635,
			"0.008": 6.13294110254,
			"0.009": 8.87195058951,
			"0.01": 11.0861410729,
			"0.011": 9.27568049331,
			"0.012": 2.42651464483,
			"0.013": 0.0971219389746,
			"0.014": 0.0,
			"0.015": 0.0,
			"0.016": 0.0,
			"0.017": 0.0,
			"0.018": 0.0,
			"0.019": 0.0,
			"0.02": 0.0,
			"0.021": 0.0,
			"0.022": 0.0,
			"0.023": 0.0,
			"0.024": 0.0,
			"0.025": 0.0
		}
	}
}
