{
	 "smiles": "CCC(=O)C1=CC=CC=C1", 
	 "Tm": 291.65, 
	 "num_atms": 20, 
	 "gaussian": { 
		 "optdone": 1, 
		 "sigma_profile": "yes", 
		 "theory": "DFT", 
		 "functional": "B3LYP", 
		 "basiset": "6-31G**", 
		 "properties": { 
			 "R2extent": 2075.5359, 
			 "electric_dipole_moment_norm": 2.82196017335, 
			 "electric_quadrupole_moment_norm": 7.8700533645, 
			 "total_energy": -424.216757139, 
			 "HOMO_LUMO_gap": 0.19322, 
			 "cosmo_polarized_energy": -7.56, 
			 "cosmo_cavitation_energy": 23.47, 
			 "cosmo_dispersion_energy": -17.28, 
			 "cosmo_repulsion_energy": 1.4, 
			 "cosmo_total_nonelectrostatic_energy": 7.59, 
			 "SMD_solvation_energy": 4.57 
		},
		"coords": [
			{
				"x": -0.5336659177,
				"y": 2.4288343173,
				"z": 0.3561586209,
				"element": "C" 
			},
			{
				"x": -0.3001673853,
				"y": 1.1057428236,
				"z": -0.3702581044,
				"element": "C" 
			},
			{
				"x": -0.1128488477,
				"y": -0.0723781292,
				"z": 0.5809039854,
				"element": "C" 
			},
			{
				"x": -0.155749865,
				"y": 0.0907913594,
				"z": 1.7915742988,
				"element": "O" 
			},
			{
				"x": 0.1256296987,
				"y": -1.4392319685,
				"z": 0.0059010997,
				"element": "C" 
			},
			{
				"x": 0.2951387499,
				"y": -2.5088581338,
				"z": 0.8995635887,
				"element": "C" 
			},
			{
				"x": 0.5190488926,
				"y": -3.7978274135,
				"z": 0.4255431257,
				"element": "C" 
			},
			{
				"x": 0.5767685408,
				"y": -4.0360330191,
				"z": -0.9510668689,
				"element": "C" 
			},
			{
				"x": 0.4096741456,
				"y": -2.9801290328,
				"z": -1.8490620068,
				"element": "C" 
			},
			{
				"x": 0.1851839473,
				"y": -1.6878825133,
				"z": -1.3740540541,
				"element": "C" 
			},
			{
				"x": -0.6624793911,
				"y": 3.2437711172,
				"z": -0.3622669975,
				"element": "H" 
			},
			{
				"x": 0.3092589286,
				"y": 2.6704623885,
				"z": 1.0085388651,
				"element": "H" 
			},
			{
				"x": -1.4252028779,
				"y": 2.3766218076,
				"z": 0.9861971985,
				"element": "H" 
			},
			{
				"x": 0.5838037858,
				"y": 1.1682499317,
				"z": -1.0196918115,
				"element": "H" 
			},
			{
				"x": -1.1388178718,
				"y": 0.8764497573,
				"z": -1.0419423555,
				"element": "H" 
			},
			{
				"x": 0.2459944825,
				"y": -2.2978252595,
				"z": 1.9626078311,
				"element": "H" 
			},
			{
				"x": 0.6488945462,
				"y": -4.6184176486,
				"z": 1.1252879944,
				"element": "H" 
			},
			{
				"x": 0.7515162759,
				"y": -5.0418837684,
				"z": -1.322495272,
				"element": "H" 
			},
			{
				"x": 0.4541160717,
				"y": -3.1627089159,
				"z": -2.9188081442,
				"element": "H" 
			},
			{
				"x": 0.0572040907,
				"y": -0.8774476998,
				"z": -2.0841309934,
				"element": "H" 
			}
		],
		 "valence_orbital": [ 
			{
				"type": "occ",
				"energy": -0.34474,
				"method": "rhf"
			},
			{
				"type": "occ",
				"energy": -0.34206,
				"method": "rhf"
			},
			{
				"type": "occ",
				"energy": -0.26041,
				"method": "rhf"
			},
			{
				"type": "occ",
				"energy": -0.25698,
				"method": "rhf"
			},
			{
				"type": "occ",
				"energy": -0.24647,
				"method": "rhf"
			},
			{
				"type": "unocc",
				"energy": -0.05325,
				"method": "rhf"
			},
			{
				"type": "unocc",
				"energy": -0.0088,
				"method": "rhf"
			},
			{
				"type": "unocc",
				"energy": 0.04134,
				"method": "rhf"
			},
			{
				"type": "unocc",
				"energy": 0.08699,
				"method": "rhf"
			},
			{
				"type": "unocc",
				"energy": 0.1048,
				"method": "rhf"
			}
		],
		"cosmo_sigma_profile": { 
			"-0.025": 0.0,
			"-0.024": 0.0,
			"-0.023": 0.0,
			"-0.022": 0.0,
			"-0.021": 0.0,
			"-0.02": 0.0,
			"-0.019": 0.0,
			"-0.018": 0.0,
			"-0.017": 0.0,
			"-0.016": 0.0,
			"-0.015": 0.0,
			"-0.014": 0.0,
			"-0.013": 0.0,
			"-0.012": 0.0,
			"-0.011": 0.0,
			"-0.01": 0.0,
			"-0.009": 0.0,
			"-0.008": 0.0,
			"-0.007": 1.09490836783,
			"-0.006": 11.3446837707,
			"-0.005": 16.8671347076,
			"-0.004": 16.1947847893,
			"-0.003": 16.035083445,
			"-0.002": 18.2329295553,
			"-0.001": 17.2154409152,
			"0.0": 13.3448764379,
			"0.001": 15.3673143133,
			"0.002": 11.6048269088,
			"0.003": 11.6453838657,
			"0.004": 14.0587665478,
			"0.005": 6.29380097182,
			"0.006": 2.31189216145,
			"0.007": 1.28288385998,
			"0.008": 1.31238324872,
			"0.009": 2.2060117064,
			"0.01": 2.0677538077,
			"0.011": 2.48713196389,
			"0.012": 3.59553358848,
			"0.013": 1.62229589633,
			"0.014": 0.0524242107654,
			"0.015": 0.0,
			"0.016": 0.0,
			"0.017": 0.0,
			"0.018": 0.0,
			"0.019": 0.0,
			"0.02": 0.0,
			"0.021": 0.0,
			"0.022": 0.0,
			"0.023": 0.0,
			"0.024": 0.0,
			"0.025": 0.0
		}
	}
}
