{
	 "smiles": "CO[P@@](=S)(NC(C)C)OC1=C(C=C(C)C=C1)[N+]([O-])=O", 
	 "Tm": 338.15, 
	 "num_atms": 36, 
	 "gaussian": { 
		 "optdone": 1, 
		 "sigma_profile": "yes", 
		 "theory": "DFT", 
		 "functional": "B3LYP", 
		 "basiset": "6-31G**", 
		 "properties": { 
			 "R2extent": 6957.1239, 
			 "electric_dipole_moment_norm": 8.21838760585, 
			 "electric_quadrupole_moment_norm": 17.8137049114, 
			 "total_energy": -1579.31800352, 
			 "HOMO_LUMO_gap": 0.14687, 
			 "cosmo_polarized_energy": -19.25, 
			 "cosmo_cavitation_energy": 42.8, 
			 "cosmo_dispersion_energy": -28.21, 
			 "cosmo_repulsion_energy": 2.13, 
			 "cosmo_total_nonelectrostatic_energy": 16.72, 
			 "SMD_solvation_energy": 9.8 
		},
		"coords": [
			{
				"x": 3.8799010999,
				"y": 3.0697269522,
				"z": -0.4513190593,
				"element": "C" 
			},
			{
				"x": 2.6792661878,
				"y": 2.4655760971,
				"z": -0.9647747295,
				"element": "O" 
			},
			{
				"x": 2.5745781804,
				"y": 0.8359039044,
				"z": -1.0139695733,
				"element": "P" 
			},
			{
				"x": 4.0136695278,
				"y": -0.1564602204,
				"z": -1.8347092053,
				"element": "S" 
			},
			{
				"x": 2.2253176923,
				"y": 0.4781109662,
				"z": 0.565189337,
				"element": "N" 
			},
			{
				"x": 2.4498411129,
				"y": -0.8100302611,
				"z": 1.256003465,
				"element": "C" 
			},
			{
				"x": 1.1889041326,
				"y": -1.2148467843,
				"z": 2.0239794265,
				"element": "C" 
			},
			{
				"x": 3.6819594033,
				"y": -0.7220708319,
				"z": 2.1637793355,
				"element": "C" 
			},
			{
				"x": 1.1999320907,
				"y": 0.7426285215,
				"z": -1.9289904322,
				"element": "O" 
			},
			{
				"x": -0.0611248268,
				"y": 1.0722536529,
				"z": -1.5017736353,
				"element": "C" 
			},
			{
				"x": -1.065431053,
				"y": 0.0962717516,
				"z": -1.4155059646,
				"element": "C" 
			},
			{
				"x": -2.3884055693,
				"y": 0.4427691494,
				"z": -1.1348129508,
				"element": "C" 
			},
			{
				"x": -2.7450038964,
				"y": 1.7685356764,
				"z": -0.8895579856,
				"element": "C" 
			},
			{
				"x": -4.1657383516,
				"y": 2.1447882816,
				"z": -0.5433289426,
				"element": "C" 
			},
			{
				"x": -1.7357018555,
				"y": 2.7408778131,
				"z": -0.9694441954,
				"element": "C" 
			},
			{
				"x": -0.4218089401,
				"y": 2.4059350584,
				"z": -1.2834842762,
				"element": "C" 
			},
			{
				"x": -0.7768301374,
				"y": -1.3297388411,
				"z": -1.6152071858,
				"element": "N" 
			},
			{
				"x": 0.3086668994,
				"y": -1.7620041025,
				"z": -1.2306398105,
				"element": "O" 
			},
			{
				"x": -1.6630023795,
				"y": -2.0129993642,
				"z": -2.1271781636,
				"element": "O" 
			},
			{
				"x": 3.7369677042,
				"y": 4.1484992669,
				"z": -0.5289317843,
				"element": "H" 
			},
			{
				"x": 4.7443162385,
				"y": 2.7635470303,
				"z": -1.0464371437,
				"element": "H" 
			},
			{
				"x": 4.0388836615,
				"y": 2.7912348984,
				"z": 0.5957133448,
				"element": "H" 
			},
			{
				"x": 1.7255975698,
				"y": 1.1850386543,
				"z": 1.0916476483,
				"element": "H" 
			},
			{
				"x": 2.6386615816,
				"y": -1.5513528929,
				"z": 0.4750562623,
				"element": "H" 
			},
			{
				"x": 0.9378312749,
				"y": -0.4695109287,
				"z": 2.7899370852,
				"element": "H" 
			},
			{
				"x": 1.3449422874,
				"y": -2.1701278024,
				"z": 2.5343012689,
				"element": "H" 
			},
			{
				"x": 0.3415041127,
				"y": -1.3221154734,
				"z": 1.3438626606,
				"element": "H" 
			},
			{
				"x": 3.5397333594,
				"y": 0.0362916994,
				"z": 2.9432907488,
				"element": "H" 
			},
			{
				"x": 4.568224933,
				"y": -0.4582484078,
				"z": 1.5808282872,
				"element": "H" 
			},
			{
				"x": 3.8673656299,
				"y": -1.6818546466,
				"z": 2.6576220906,
				"element": "H" 
			},
			{
				"x": -3.1278131705,
				"y": -0.34971593,
				"z": -1.1113026092,
				"element": "H" 
			},
			{
				"x": -4.26838958,
				"y": 2.3637388152,
				"z": 0.5263734378,
				"element": "H" 
			},
			{
				"x": -4.4839044006,
				"y": 3.0389494732,
				"z": -1.0887710743,
				"element": "H" 
			},
			{
				"x": -4.8619596173,
				"y": 1.3371245021,
				"z": -0.7831229486,
				"element": "H" 
			},
			{
				"x": -1.9867397113,
				"y": 3.7852990853,
				"z": -0.8026404107,
				"element": "H" 
			},
			{
				"x": 0.3439888095,
				"y": 3.1655752372,
				"z": -1.3857823174,
				"element": "H" 
			}
		],
		 "valence_orbital": [ 
			{
				"type": "occ",
				"energy": -0.27789,
				"method": "rhf"
			},
			{
				"type": "occ",
				"energy": -0.27591,
				"method": "rhf"
			},
			{
				"type": "occ",
				"energy": -0.25757,
				"method": "rhf"
			},
			{
				"type": "occ",
				"energy": -0.23795,
				"method": "rhf"
			},
			{
				"type": "occ",
				"energy": -0.23222,
				"method": "rhf"
			},
			{
				"type": "unocc",
				"energy": -0.08535,
				"method": "rhf"
			},
			{
				"type": "unocc",
				"energy": -0.02692,
				"method": "rhf"
			},
			{
				"type": "unocc",
				"energy": -0.01304,
				"method": "rhf"
			},
			{
				"type": "unocc",
				"energy": 0.03892,
				"method": "rhf"
			},
			{
				"type": "unocc",
				"energy": 0.05547,
				"method": "rhf"
			}
		],
		"cosmo_sigma_profile": { 
			"-0.025": 0.0,
			"-0.024": 0.0,
			"-0.023": 0.0,
			"-0.022": 0.0,
			"-0.021": 0.0,
			"-0.02": 0.0,
			"-0.019": 0.0,
			"-0.018": 0.0,
			"-0.017": 0.0,
			"-0.016": 0.0,
			"-0.015": 0.0,
			"-0.014": 0.223647368282,
			"-0.013": 0.683926519205,
			"-0.012": 1.01120403692,
			"-0.011": 0.906287021459,
			"-0.01": 0.819858846506,
			"-0.009": 1.3760297424,
			"-0.008": 2.10873904309,
			"-0.007": 8.73249058264,
			"-0.006": 11.568980977,
			"-0.005": 22.3866505841,
			"-0.004": 26.943136764,
			"-0.003": 32.6329491955,
			"-0.002": 27.3526017529,
			"-0.001": 32.1970686413,
			"0.0": 33.9551479895,
			"0.001": 31.8080726495,
			"0.002": 19.2693169125,
			"0.003": 11.5689979235,
			"0.004": 9.59604322004,
			"0.005": 9.02946090033,
			"0.006": 10.3644122629,
			"0.007": 13.3214225869,
			"0.008": 15.9718072101,
			"0.009": 9.77496694135,
			"0.01": 4.78153989899,
			"0.011": 0.0,
			"0.012": 0.0,
			"0.013": 0.0,
			"0.014": 0.0,
			"0.015": 0.0,
			"0.016": 0.0,
			"0.017": 0.0,
			"0.018": 0.0,
			"0.019": 0.0,
			"0.02": 0.0,
			"0.021": 0.0,
			"0.022": 0.0,
			"0.023": 0.0,
			"0.024": 0.0,
			"0.025": 0.0
		}
	}
}
