{
	 "smiles": "CC1=CC=C(O)C(C)=N1", 
	 "Tm": 484.15, 
	 "num_atms": 18, 
	 "gaussian": { 
		 "optdone": 1, 
		 "sigma_profile": "yes", 
		 "theory": "DFT", 
		 "functional": "B3LYP", 
		 "basiset": "6-31G**", 
		 "properties": { 
			 "R2extent": 1427.0462, 
			 "electric_dipole_moment_norm": 0.758345732499, 
			 "electric_quadrupole_moment_norm": 8.85484218832, 
			 "total_energy": -402.150442965, 
			 "HOMO_LUMO_gap": 0.20612, 
			 "cosmo_polarized_energy": -8.86, 
			 "cosmo_cavitation_energy": 21.33, 
			 "cosmo_dispersion_energy": -16.01, 
			 "cosmo_repulsion_energy": 1.32, 
			 "cosmo_total_nonelectrostatic_energy": 6.64, 
			 "SMD_solvation_energy": 2.84 
		},
		"coords": [
			{
				"x": -2.3125463348,
				"y": -0.0186192825,
				"z": 0.3859332013,
				"element": "C" 
			},
			{
				"x": -0.8225916829,
				"y": -0.2032707517,
				"z": 0.2207364021,
				"element": "C" 
			},
			{
				"x": -0.2305318171,
				"y": -0.2819082909,
				"z": -1.0480866458,
				"element": "C" 
			},
			{
				"x": 1.144232157,
				"y": -0.4520218374,
				"z": -1.1506687809,
				"element": "C" 
			},
			{
				"x": 1.8972299758,
				"y": -0.5398367014,
				"z": 0.0207792743,
				"element": "C" 
			},
			{
				"x": 3.2497762828,
				"y": -0.7073119991,
				"z": -0.0947482556,
				"element": "O" 
			},
			{
				"x": 1.2386356474,
				"y": -0.4531370908,
				"z": 1.2586180591,
				"element": "C" 
			},
			{
				"x": 2.0082055897,
				"y": -0.5425877902,
				"z": 2.5552123422,
				"element": "C" 
			},
			{
				"x": -0.0896607,
				"y": -0.2888117503,
				"z": 1.3399878004,
				"element": "N" 
			},
			{
				"x": -2.8727525384,
				"y": -0.840164611,
				"z": -0.0758425328,
				"element": "H" 
			},
			{
				"x": -2.6566335503,
				"y": 0.9105063601,
				"z": -0.083466034,
				"element": "H" 
			},
			{
				"x": -2.5599499884,
				"y": 0.0165449173,
				"z": 1.4482046647,
				"element": "H" 
			},
			{
				"x": -0.8423852206,
				"y": -0.2103015437,
				"z": -1.942902571,
				"element": "H" 
			},
			{
				"x": 1.6459716946,
				"y": -0.5181465148,
				"z": -2.1108826411,
				"element": "H" 
			},
			{
				"x": 3.642158941,
				"y": -0.7519050559,
				"z": 0.7862677863,
				"element": "H" 
			},
			{
				"x": 2.7533641968,
				"y": 0.259345716,
				"z": 2.6502100281,
				"element": "H" 
			},
			{
				"x": 1.3085885576,
				"y": -0.4524505288,
				"z": 3.3870349576,
				"element": "H" 
			},
			{
				"x": 2.5356887897,
				"y": -1.5010232447,
				"z": 2.6579129451,
				"element": "H" 
			}
		],
		 "valence_orbital": [ 
			{
				"type": "occ",
				"energy": -0.35807,
				"method": "rhf"
			},
			{
				"type": "occ",
				"energy": -0.34097,
				"method": "rhf"
			},
			{
				"type": "occ",
				"energy": -0.27008,
				"method": "rhf"
			},
			{
				"type": "occ",
				"energy": -0.24588,
				"method": "rhf"
			},
			{
				"type": "occ",
				"energy": -0.2189,
				"method": "rhf"
			},
			{
				"type": "unocc",
				"energy": -0.01278,
				"method": "rhf"
			},
			{
				"type": "unocc",
				"energy": 0.00739,
				"method": "rhf"
			},
			{
				"type": "unocc",
				"energy": 0.06457,
				"method": "rhf"
			},
			{
				"type": "unocc",
				"energy": 0.11245,
				"method": "rhf"
			},
			{
				"type": "unocc",
				"energy": 0.13136,
				"method": "rhf"
			}
		],
		"cosmo_sigma_profile": { 
			"-0.025": 0.0,
			"-0.024": 0.0,
			"-0.023": 0.0,
			"-0.022": 0.0,
			"-0.021": 0.0,
			"-0.02": 0.0,
			"-0.019": 0.0,
			"-0.018": 0.0,
			"-0.017": 0.0,
			"-0.016": 0.813051268861,
			"-0.015": 0.466984697731,
			"-0.014": 1.23891914533,
			"-0.013": 0.864510569742,
			"-0.012": 1.06310593005,
			"-0.011": 1.64951874779,
			"-0.01": 0.922823539391,
			"-0.009": 1.12917053937,
			"-0.008": 1.24476713551,
			"-0.007": 2.97373774286,
			"-0.006": 5.87225841623,
			"-0.005": 7.60494622795,
			"-0.004": 12.2388298817,
			"-0.003": 13.7795321333,
			"-0.002": 14.8366842897,
			"-0.001": 13.8781991506,
			"0.0": 18.3741804099,
			"0.001": 10.7214430809,
			"0.002": 9.33428129854,
			"0.003": 13.7212434443,
			"0.004": 9.4090738278,
			"0.005": 4.88982276712,
			"0.006": 2.70602394186,
			"0.007": 3.88502448886,
			"0.008": 2.95029828521,
			"0.009": 2.69549417227,
			"0.01": 2.19830015326,
			"0.011": 3.18298032884,
			"0.012": 1.49559708163,
			"0.013": 0.78109191641,
			"0.014": 0.81287463429,
			"0.015": 0.694917826479,
			"0.016": 0.217362439255,
			"0.017": 0.0,
			"0.018": 0.0,
			"0.019": 0.0,
			"0.02": 0.0,
			"0.021": 0.0,
			"0.022": 0.0,
			"0.023": 0.0,
			"0.024": 0.0,
			"0.025": 0.0
		}
	}
}
