{
	 "smiles": "SC1=NC=CN1C1=CC=C(C=C1)C(=O)NCC1=CC=CC=C1", 
	 "Tm": 490.15, 
	 "num_atms": 37, 
	 "gaussian": { 
		 "optdone": 1, 
		 "sigma_profile": "yes", 
		 "theory": "DFT", 
		 "functional": "B3LYP", 
		 "basiset": "6-31G**", 
		 "properties": { 
			 "R2extent": 13168.577, 
			 "electric_dipole_moment_norm": 4.67117066804, 
			 "electric_quadrupole_moment_norm": 10.0301148952, 
			 "total_energy": -1294.52110501, 
			 "HOMO_LUMO_gap": 0.16075, 
			 "cosmo_polarized_energy": -19.2, 
			 "cosmo_cavitation_energy": 43.85, 
			 "cosmo_dispersion_energy": -31.44, 
			 "cosmo_repulsion_energy": 2.34, 
			 "cosmo_total_nonelectrostatic_energy": 14.75, 
			 "SMD_solvation_energy": 6.05 
		},
		"coords": [
			{
				"x": -1.0201603285,
				"y": 4.7681338897,
				"z": -3.7158226356,
				"element": "S" 
			},
			{
				"x": 0.6442449669,
				"y": 4.7204509655,
				"z": -3.1002960664,
				"element": "C" 
			},
			{
				"x": 1.4773403707,
				"y": 5.7351730255,
				"z": -3.1129440108,
				"element": "N" 
			},
			{
				"x": 2.6187040043,
				"y": 5.2768733971,
				"z": -2.4861565093,
				"element": "C" 
			},
			{
				"x": 2.4671913222,
				"y": 3.9795273092,
				"z": -2.0877846925,
				"element": "C" 
			},
			{
				"x": 1.1844928418,
				"y": 3.6055833603,
				"z": -2.4907846462,
				"element": "N" 
			},
			{
				"x": 0.5825673267,
				"y": 2.3391726652,
				"z": -2.2528790669,
				"element": "C" 
			},
			{
				"x": 0.6480613809,
				"y": 1.7780329445,
				"z": -0.9721700843,
				"element": "C" 
			},
			{
				"x": 0.0863773874,
				"y": 0.5264222292,
				"z": -0.7345888631,
				"element": "C" 
			},
			{
				"x": -0.5590385761,
				"y": -0.1745096172,
				"z": -1.7631226293,
				"element": "C" 
			},
			{
				"x": -0.6398223452,
				"y": 0.4097143469,
				"z": -3.033345845,
				"element": "C" 
			},
			{
				"x": -0.0596789706,
				"y": 1.6482771283,
				"z": -3.2876967866,
				"element": "C" 
			},
			{
				"x": -1.2067479397,
				"y": -1.520936667,
				"z": -1.5822432843,
				"element": "C" 
			},
			{
				"x": -2.0722653478,
				"y": -1.9216577946,
				"z": -2.3559152276,
				"element": "O" 
			},
			{
				"x": -0.7759311872,
				"y": -2.2588378691,
				"z": -0.5121819336,
				"element": "N" 
			},
			{
				"x": -1.2994693292,
				"y": -3.5903291386,
				"z": -0.2301872264,
				"element": "C" 
			},
			{
				"x": -1.4714660332,
				"y": -3.835462511,
				"z": 1.2553872651,
				"element": "C" 
			},
			{
				"x": -0.9097880883,
				"y": -4.9654789794,
				"z": 1.8592459989,
				"element": "C" 
			},
			{
				"x": -1.085663086,
				"y": -5.2081227725,
				"z": 3.2237667455,
				"element": "C" 
			},
			{
				"x": -1.8227600601,
				"y": -4.3159243657,
				"z": 4.0021802526,
				"element": "C" 
			},
			{
				"x": -2.3846826535,
				"y": -3.1816889582,
				"z": 3.4091162848,
				"element": "C" 
			},
			{
				"x": -2.2107982417,
				"y": -2.9442529713,
				"z": 2.0466177177,
				"element": "C" 
			},
			{
				"x": -0.9428577283,
				"y": 6.0882882645,
				"z": -3.9655457139,
				"element": "H" 
			},
			{
				"x": 3.4846379448,
				"y": 5.9131421022,
				"z": -2.3681970457,
				"element": "H" 
			},
			{
				"x": 3.1290585839,
				"y": 3.273518508,
				"z": -1.611886076,
				"element": "H" 
			},
			{
				"x": 1.1143884057,
				"y": 2.3355583872,
				"z": -0.1666953118,
				"element": "H" 
			},
			{
				"x": 0.1155861983,
				"y": 0.1259050406,
				"z": 0.2745398307,
				"element": "H" 
			},
			{
				"x": -1.1558490435,
				"y": -0.134655703,
				"z": -3.816486313,
				"element": "H" 
			},
			{
				"x": -0.0896826956,
				"y": 2.0738671778,
				"z": -4.2849131977,
				"element": "H" 
			},
			{
				"x": 0.0539462505,
				"y": -1.9695437699,
				"z": -0.0171218794,
				"element": "H" 
			},
			{
				"x": -0.6466259266,
				"y": -4.3618604024,
				"z": -0.6603081048,
				"element": "H" 
			},
			{
				"x": -2.2539053733,
				"y": -3.6533854571,
				"z": -0.7611680223,
				"element": "H" 
			},
			{
				"x": -0.3314370991,
				"y": -5.6620237043,
				"z": 1.256779899,
				"element": "H" 
			},
			{
				"x": -0.6429457024,
				"y": -6.090734205,
				"z": 3.6766302388,
				"element": "H" 
			},
			{
				"x": -1.9590549435,
				"y": -4.5006635624,
				"z": 5.0638192026,
				"element": "H" 
			},
			{
				"x": -2.9621394472,
				"y": -2.48398779,
				"z": 4.0091774607,
				"element": "H" 
			},
			{
				"x": -2.6483268376,
				"y": -2.0617845028,
				"z": 1.587580276,
				"element": "H" 
			}
		],
		 "valence_orbital": [ 
			{
				"type": "occ",
				"energy": -0.26614,
				"method": "rhf"
			},
			{
				"type": "occ",
				"energy": -0.25686,
				"method": "rhf"
			},
			{
				"type": "occ",
				"energy": -0.25096,
				"method": "rhf"
			},
			{
				"type": "occ",
				"energy": -0.24281,
				"method": "rhf"
			},
			{
				"type": "occ",
				"energy": -0.21234,
				"method": "rhf"
			},
			{
				"type": "unocc",
				"energy": -0.05159,
				"method": "rhf"
			},
			{
				"type": "unocc",
				"energy": -0.02868,
				"method": "rhf"
			},
			{
				"type": "unocc",
				"energy": -0.01184,
				"method": "rhf"
			},
			{
				"type": "unocc",
				"energy": -0.00755,
				"method": "rhf"
			},
			{
				"type": "unocc",
				"energy": 0.01876,
				"method": "rhf"
			}
		],
		"cosmo_sigma_profile": { 
			"-0.025": 0.0,
			"-0.024": 0.0,
			"-0.023": 0.0,
			"-0.022": 0.0,
			"-0.021": 0.0,
			"-0.02": 0.0,
			"-0.019": 0.0,
			"-0.018": 0.0,
			"-0.017": 0.0,
			"-0.016": 0.0,
			"-0.015": 0.299161905675,
			"-0.014": 0.704933050275,
			"-0.013": 0.962459448766,
			"-0.012": 1.62167301939,
			"-0.011": 2.85199004466,
			"-0.01": 2.13901799189,
			"-0.009": 3.59812792514,
			"-0.008": 5.72607495523,
			"-0.007": 9.41727017201,
			"-0.006": 18.4431953409,
			"-0.005": 26.5352356497,
			"-0.004": 25.8736389773,
			"-0.003": 24.2261367798,
			"-0.002": 23.6210660015,
			"-0.001": 25.9396276347,
			"0.0": 23.904757403,
			"0.001": 24.5268666226,
			"0.002": 30.1459370633,
			"0.003": 22.8853986739,
			"0.004": 17.307375394,
			"0.005": 18.7705879782,
			"0.006": 13.3938950575,
			"0.007": 5.34462341603,
			"0.008": 3.11067118696,
			"0.009": 3.09290229563,
			"0.01": 2.39146695074,
			"0.011": 2.79362064332,
			"0.012": 3.44417711678,
			"0.013": 4.89113988507,
			"0.014": 3.78710712526,
			"0.015": 1.13859488918,
			"0.016": 0.870571924723,
			"0.017": 0.122287627787,
			"0.018": 0.0,
			"0.019": 0.0,
			"0.02": 0.0,
			"0.021": 0.0,
			"0.022": 0.0,
			"0.023": 0.0,
			"0.024": 0.0,
			"0.025": 0.0
		}
	}
}
