{
	 "smiles": "CCC1=CC(NC(N)=S)=CC=C1", 
	 "Tm": 359.15, 
	 "num_atms": 24, 
	 "gaussian": { 
		 "optdone": 1, 
		 "sigma_profile": "yes", 
		 "theory": "DFT", 
		 "functional": "B3LYP", 
		 "basiset": "6-31G**", 
		 "properties": { 
			 "R2extent": 4252.846, 
			 "electric_dipole_moment_norm": 5.76140118548, 
			 "electric_quadrupole_moment_norm": 24.8888519966, 
			 "total_energy": -857.910391975, 
			 "HOMO_LUMO_gap": 0.17486, 
			 "cosmo_polarized_energy": -16.38, 
			 "cosmo_cavitation_energy": 29.17, 
			 "cosmo_dispersion_energy": -21.58, 
			 "cosmo_repulsion_energy": 1.71, 
			 "cosmo_total_nonelectrostatic_energy": 9.29, 
			 "SMD_solvation_energy": 4.03 
		},
		"coords": [
			{
				"x": -1.8028600049,
				"y": 2.4937993766,
				"z": 0.5653005955,
				"element": "C" 
			},
			{
				"x": -0.6671967236,
				"y": 1.9902861555,
				"z": -0.3440737304,
				"element": "C" 
			},
			{
				"x": -0.5076856014,
				"y": 0.4849937317,
				"z": -0.3021930153,
				"element": "C" 
			},
			{
				"x": 0.3604466886,
				"y": -0.1125428416,
				"z": 0.6159277269,
				"element": "C" 
			},
			{
				"x": 0.489164618,
				"y": -1.5068928985,
				"z": 0.6969336056,
				"element": "C" 
			},
			{
				"x": 1.3555170103,
				"y": -2.0416650981,
				"z": 1.6817806465,
				"element": "N" 
			},
			{
				"x": 2.2200918165,
				"y": -3.1018830375,
				"z": 1.6165224275,
				"element": "C" 
			},
			{
				"x": 2.310561844,
				"y": -3.7553536544,
				"z": 0.4276618709,
				"element": "N" 
			},
			{
				"x": 3.1128791322,
				"y": -3.5631119145,
				"z": 2.9648741684,
				"element": "S" 
			},
			{
				"x": -0.274186181,
				"y": -2.3218080177,
				"z": -0.1527642169,
				"element": "C" 
			},
			{
				"x": -1.1244169953,
				"y": -1.7277705745,
				"z": -1.0862159222,
				"element": "C" 
			},
			{
				"x": -1.243258495,
				"y": -0.3413276608,
				"z": -1.1643046971,
				"element": "C" 
			},
			{
				"x": -1.619962794,
				"y": 2.2208624149,
				"z": 1.6095742218,
				"element": "H" 
			},
			{
				"x": -2.7633987258,
				"y": 2.0581408444,
				"z": 0.272160007,
				"element": "H" 
			},
			{
				"x": -1.8925844901,
				"y": 3.5834690776,
				"z": 0.5096306083,
				"element": "H" 
			},
			{
				"x": -0.8632727333,
				"y": 2.3060332273,
				"z": -1.3754973557,
				"element": "H" 
			},
			{
				"x": 0.2737268563,
				"y": 2.4670727106,
				"z": -0.045608974,
				"element": "H" 
			},
			{
				"x": 0.9600377471,
				"y": 0.5109027131,
				"z": 1.2754096922,
				"element": "H" 
			},
			{
				"x": 1.4261890531,
				"y": -1.5397313895,
				"z": 2.5561444162,
				"element": "H" 
			},
			{
				"x": 1.9959553507,
				"y": -3.3143750937,
				"z": -0.4258303116,
				"element": "H" 
			},
			{
				"x": 3.0529850245,
				"y": -4.4340484396,
				"z": 0.3636392664,
				"element": "H" 
			},
			{
				"x": -0.2260225913,
				"y": -3.4010745175,
				"z": -0.0621276992,
				"element": "H" 
			},
			{
				"x": -1.7116769963,
				"y": -2.3593557852,
				"z": -1.746695709,
				"element": "H" 
			},
			{
				"x": -1.9123328094,
				"y": 0.1055806713,
				"z": -1.894847622,
				"element": "H" 
			}
		],
		 "valence_orbital": [ 
			{
				"type": "occ",
				"energy": -0.30241,
				"method": "rhf"
			},
			{
				"type": "occ",
				"energy": -0.26059,
				"method": "rhf"
			},
			{
				"type": "occ",
				"energy": -0.24584,
				"method": "rhf"
			},
			{
				"type": "occ",
				"energy": -0.20808,
				"method": "rhf"
			},
			{
				"type": "occ",
				"energy": -0.2037,
				"method": "rhf"
			},
			{
				"type": "unocc",
				"energy": -0.02884,
				"method": "rhf"
			},
			{
				"type": "unocc",
				"energy": -0.01926,
				"method": "rhf"
			},
			{
				"type": "unocc",
				"energy": 0.01799,
				"method": "rhf"
			},
			{
				"type": "unocc",
				"energy": 0.07112,
				"method": "rhf"
			},
			{
				"type": "unocc",
				"energy": 0.08237,
				"method": "rhf"
			}
		],
		"cosmo_sigma_profile": { 
			"-0.025": 0.0,
			"-0.024": 0.0,
			"-0.023": 0.0,
			"-0.022": 0.0,
			"-0.021": 0.0,
			"-0.02": 0.0,
			"-0.019": 0.0,
			"-0.018": 0.0,
			"-0.017": 0.0,
			"-0.016": 0.0,
			"-0.015": 0.268936852971,
			"-0.014": 1.93819401121,
			"-0.013": 3.49074919094,
			"-0.012": 3.06820908503,
			"-0.011": 2.79758147876,
			"-0.01": 3.19458931536,
			"-0.009": 3.15829703594,
			"-0.008": 2.51443541828,
			"-0.007": 3.40324826104,
			"-0.006": 6.94707976517,
			"-0.005": 11.9493427036,
			"-0.004": 13.4423651549,
			"-0.003": 19.0107323518,
			"-0.002": 18.4794441383,
			"-0.001": 20.5257372221,
			"0.0": 20.9244790059,
			"0.001": 18.7929695611,
			"0.002": 11.4452511317,
			"0.003": 9.87159656549,
			"0.004": 11.4685322835,
			"0.005": 10.7567380442,
			"0.006": 4.9930936249,
			"0.007": 2.96101089297,
			"0.008": 3.22345976409,
			"0.009": 4.05695063881,
			"0.01": 4.90281560341,
			"0.011": 7.77571142212,
			"0.012": 6.49638446885,
			"0.013": 1.41170692444,
			"0.014": 0.0,
			"0.015": 0.0,
			"0.016": 0.0,
			"0.017": 0.0,
			"0.018": 0.0,
			"0.019": 0.0,
			"0.02": 0.0,
			"0.021": 0.0,
			"0.022": 0.0,
			"0.023": 0.0,
			"0.024": 0.0,
			"0.025": 0.0
		}
	}
}
