{
	 "smiles": "NC1=CC=CC2=C1NC=C2", 
	 "Tm": 364.15, 
	 "num_atms": 18, 
	 "gaussian": { 
		 "optdone": 1, 
		 "sigma_profile": "yes", 
		 "theory": "DFT", 
		 "functional": "B3LYP", 
		 "basiset": "6-31G**", 
		 "properties": { 
			 "R2extent": 2396.421, 
			 "electric_dipole_moment_norm": 2.60443178832, 
			 "electric_quadrupole_moment_norm": 9.37033921958, 
			 "total_energy": -419.176722061, 
			 "HOMO_LUMO_gap": 0.19083, 
			 "cosmo_polarized_energy": -11.94, 
			 "cosmo_cavitation_energy": 21.43, 
			 "cosmo_dispersion_energy": -16.31, 
			 "cosmo_repulsion_energy": 1.31, 
			 "cosmo_total_nonelectrostatic_energy": 6.44, 
			 "SMD_solvation_energy": 3.55 
		},
		"coords": [
			{
				"x": 0.5515146917,
				"y": 0.2723697638,
				"z": -0.5472630458,
				"element": "N" 
			},
			{
				"x": 0.9551290297,
				"y": 0.3670980286,
				"z": 0.8046922503,
				"element": "C" 
			},
			{
				"x": 2.2546725169,
				"y": 0.6655661725,
				"z": 1.2098458494,
				"element": "C" 
			},
			{
				"x": 2.5909655091,
				"y": 0.7819928354,
				"z": 2.5755219865,
				"element": "C" 
			},
			{
				"x": 1.651366793,
				"y": 0.5892479486,
				"z": 3.5773841042,
				"element": "C" 
			},
			{
				"x": 0.323704825,
				"y": 0.3012471286,
				"z": 3.2025738707,
				"element": "C" 
			},
			{
				"x": 0.0026764444,
				"y": 0.2078846795,
				"z": 1.8256477957,
				"element": "C" 
			},
			{
				"x": -1.3489472842,
				"y": -0.07032595,
				"z": 1.720959492,
				"element": "N" 
			},
			{
				"x": -1.8914794385,
				"y": -0.1142658637,
				"z": 2.994002849,
				"element": "C" 
			},
			{
				"x": -0.9032718776,
				"y": 0.0837567276,
				"z": 3.9220262474,
				"element": "C" 
			},
			{
				"x": 0.0570408424,
				"y": -0.5930344075,
				"z": -0.7437049394,
				"element": "H" 
			},
			{
				"x": 1.3344278459,
				"y": 0.3510602687,
				"z": -1.1863169603,
				"element": "H" 
			},
			{
				"x": 3.0253811202,
				"y": 0.8004870504,
				"z": 0.4543507927,
				"element": "H" 
			},
			{
				"x": 3.6192004355,
				"y": 1.0131150167,
				"z": 2.83929789,
				"element": "H" 
			},
			{
				"x": 1.9282531242,
				"y": 0.6693342228,
				"z": 4.6242716528,
				"element": "H" 
			},
			{
				"x": -1.8812899831,
				"y": 0.0329114978,
				"z": 0.8717893308,
				"element": "H" 
			},
			{
				"x": -2.94779359,
				"y": -0.296673498,
				"z": 3.1322515605,
				"element": "H" 
			},
			{
				"x": -1.0311510045,
				"y": 0.073128378,
				"z": 4.9952692734,
				"element": "H" 
			}
		],
		 "valence_orbital": [ 
			{
				"type": "occ",
				"energy": -0.33537,
				"method": "rhf"
			},
			{
				"type": "occ",
				"energy": -0.298,
				"method": "rhf"
			},
			{
				"type": "occ",
				"energy": -0.24324,
				"method": "rhf"
			},
			{
				"type": "occ",
				"energy": -0.20877,
				"method": "rhf"
			},
			{
				"type": "occ",
				"energy": -0.1841,
				"method": "rhf"
			},
			{
				"type": "unocc",
				"energy": 0.00673,
				"method": "rhf"
			},
			{
				"type": "unocc",
				"energy": 0.0358,
				"method": "rhf"
			},
			{
				"type": "unocc",
				"energy": 0.0668,
				"method": "rhf"
			},
			{
				"type": "unocc",
				"energy": 0.08283,
				"method": "rhf"
			},
			{
				"type": "unocc",
				"energy": 0.10659,
				"method": "rhf"
			}
		],
		"cosmo_sigma_profile": { 
			"-0.025": 0.0,
			"-0.024": 0.0,
			"-0.023": 0.0,
			"-0.022": 0.0,
			"-0.021": 0.0,
			"-0.02": 0.0,
			"-0.019": 0.0,
			"-0.018": 0.0,
			"-0.017": 0.0,
			"-0.016": 0.0,
			"-0.015": 0.581466974428,
			"-0.014": 1.20932818271,
			"-0.013": 0.921564309121,
			"-0.012": 2.50750605118,
			"-0.011": 4.47196468377,
			"-0.01": 3.75933681418,
			"-0.009": 4.6600384464,
			"-0.008": 4.43911308243,
			"-0.007": 5.52000319987,
			"-0.006": 5.64210721246,
			"-0.005": 7.06960703611,
			"-0.004": 9.50576485328,
			"-0.003": 10.8245496578,
			"-0.002": 10.6398925363,
			"-0.001": 8.75281029297,
			"0.0": 8.04043793559,
			"0.001": 8.10963168925,
			"0.002": 6.7266817786,
			"0.003": 6.85216099649,
			"0.004": 9.31922603728,
			"0.005": 9.80289331615,
			"0.006": 13.5220907397,
			"0.007": 13.8087084496,
			"0.008": 8.66946795669,
			"0.009": 1.57276717987,
			"0.01": 0.493486513216,
			"0.011": 0.79684457585,
			"0.012": 0.497800481272,
			"0.013": 0.46755625141,
			"0.014": 0.695790352935,
			"0.015": 0.513345271846,
			"0.016": 0.272382818293,
			"0.017": 0.0,
			"0.018": 0.0,
			"0.019": 0.0,
			"0.02": 0.0,
			"0.021": 0.0,
			"0.022": 0.0,
			"0.023": 0.0,
			"0.024": 0.0,
			"0.025": 0.0
		}
	}
}
