{
	 "smiles": "CC(C)(C)OC(=O)N1CCN(CC2=CC(=CC=C2)C(O)=O)CC1", 
	 "Tm": 447.15, 
	 "num_atms": 47, 
	 "gaussian": { 
		 "optdone": 1, 
		 "sigma_profile": "yes", 
		 "theory": "DFT", 
		 "functional": "B3LYP", 
		 "basiset": "6-31G**", 
		 "properties": { 
			 "R2extent": 14613.5093, 
			 "electric_dipole_moment_norm": 2.68663416378, 
			 "electric_quadrupole_moment_norm": 20.1421172822, 
			 "total_energy": -1072.72705166, 
			 "HOMO_LUMO_gap": 0.17612, 
			 "cosmo_polarized_energy": -15.34, 
			 "cosmo_cavitation_energy": 48.36, 
			 "cosmo_dispersion_energy": -33.45, 
			 "cosmo_repulsion_energy": 2.57, 
			 "cosmo_total_nonelectrostatic_energy": 17.47, 
			 "SMD_solvation_energy": 8.29 
		},
		"coords": [
			{
				"x": 5.320151626,
				"y": -2.5165748009,
				"z": 0.1942467052,
				"element": "C" 
			},
			{
				"x": 4.8205279433,
				"y": -1.6583587551,
				"z": -0.9714685103,
				"element": "C" 
			},
			{
				"x": 5.661680777,
				"y": -0.3843991127,
				"z": -1.1058460866,
				"element": "C" 
			},
			{
				"x": 4.7883151663,
				"y": -2.4734621806,
				"z": -2.268962607,
				"element": "C" 
			},
			{
				"x": 3.4516410273,
				"y": -1.32025655,
				"z": -0.5530990358,
				"element": "O" 
			},
			{
				"x": 2.658322018,
				"y": -0.5440890671,
				"z": -1.333316404,
				"element": "C" 
			},
			{
				"x": 2.971520341,
				"y": -0.0811268933,
				"z": -2.4218172531,
				"element": "O" 
			},
			{
				"x": 1.4421717358,
				"y": -0.3246986731,
				"z": -0.73702518,
				"element": "N" 
			},
			{
				"x": 0.4080640384,
				"y": 0.3971871288,
				"z": -1.4710333204,
				"element": "C" 
			},
			{
				"x": -0.2896883593,
				"y": 1.3984253974,
				"z": -0.5520115223,
				"element": "C" 
			},
			{
				"x": -0.8104649414,
				"y": 0.7250002073,
				"z": 0.6422924155,
				"element": "N" 
			},
			{
				"x": -1.5971648292,
				"y": 1.6222176814,
				"z": 1.4874059351,
				"element": "C" 
			},
			{
				"x": -2.9298282359,
				"y": 2.0061557516,
				"z": 0.8695135242,
				"element": "C" 
			},
			{
				"x": -3.4122364404,
				"y": 3.3109949972,
				"z": 0.9668836705,
				"element": "C" 
			},
			{
				"x": -4.6677569729,
				"y": 3.6538169504,
				"z": 0.4455604722,
				"element": "C" 
			},
			{
				"x": -5.4508611473,
				"y": 2.6822491757,
				"z": -0.1900309442,
				"element": "C" 
			},
			{
				"x": -4.9693613748,
				"y": 1.377608002,
				"z": -0.2977345034,
				"element": "C" 
			},
			{
				"x": -3.7220288116,
				"y": 1.041633429,
				"z": 0.2282709133,
				"element": "C" 
			},
			{
				"x": -5.1150113601,
				"y": 5.0643076724,
				"z": 0.5882198277,
				"element": "C" 
			},
			{
				"x": -6.3399861986,
				"y": 5.2926664024,
				"z": 0.0496710493,
				"element": "O" 
			},
			{
				"x": -4.4753587482,
				"y": 5.9471596881,
				"z": 1.1263105275,
				"element": "O" 
			},
			{
				"x": 0.2800876257,
				"y": 0.0862842873,
				"z": 1.3798330949,
				"element": "C" 
			},
			{
				"x": 0.9910586245,
				"y": -0.9472077387,
				"z": 0.503000723,
				"element": "C" 
			},
			{
				"x": 5.3040586872,
				"y": -1.9473899341,
				"z": 1.1284798585,
				"element": "H" 
			},
			{
				"x": 4.6914325527,
				"y": -3.4032000061,
				"z": 0.3187610288,
				"element": "H" 
			},
			{
				"x": 6.3470147677,
				"y": -2.8442149668,
				"z": 0.0067922446,
				"element": "H" 
			},
			{
				"x": 5.2969399143,
				"y": 0.2389599388,
				"z": -1.9221946567,
				"element": "H" 
			},
			{
				"x": 5.6285163629,
				"y": 0.1920468963,
				"z": -0.1757147886,
				"element": "H" 
			},
			{
				"x": 6.7051444104,
				"y": -0.6522446849,
				"z": -1.3017360615,
				"element": "H" 
			},
			{
				"x": 4.4125349037,
				"y": -1.8726634511,
				"z": -3.0970602828,
				"element": "H" 
			},
			{
				"x": 5.7985858712,
				"y": -2.8199039444,
				"z": -2.51033737,
				"element": "H" 
			},
			{
				"x": 4.1478545823,
				"y": -3.3530921669,
				"z": -2.1482410992,
				"element": "H" 
			},
			{
				"x": -0.3358715825,
				"y": -0.3136398243,
				"z": -1.8608184096,
				"element": "H" 
			},
			{
				"x": 0.8810457713,
				"y": 0.9006634549,
				"z": -2.3139028631,
				"element": "H" 
			},
			{
				"x": 0.4214541521,
				"y": 2.2023358265,
				"z": -0.2795270197,
				"element": "H" 
			},
			{
				"x": -1.1236147149,
				"y": 1.8605028063,
				"z": -1.0887922403,
				"element": "H" 
			},
			{
				"x": -1.0402422362,
				"y": 2.5406543797,
				"z": 1.7536297908,
				"element": "H" 
			},
			{
				"x": -1.7868137532,
				"y": 1.0947720893,
				"z": 2.4319038617,
				"element": "H" 
			},
			{
				"x": -2.8252360896,
				"y": 4.0879644327,
				"z": 1.447455435,
				"element": "H" 
			},
			{
				"x": -6.4194254881,
				"y": 2.9514821954,
				"z": -0.5953550871,
				"element": "H" 
			},
			{
				"x": -5.5693829551,
				"y": 0.6195950488,
				"z": -0.7928289658,
				"element": "H" 
			},
			{
				"x": -3.3372767851,
				"y": 0.0304333361,
				"z": 0.1367222257,
				"element": "H" 
			},
			{
				"x": -6.521258346,
				"y": 6.2344884117,
				"z": 0.2023104463,
				"element": "H" 
			},
			{
				"x": 1.0223969159,
				"y": 0.8263138651,
				"z": 1.7378734774,
				"element": "H" 
			},
			{
				"x": -0.1363927163,
				"y": -0.4179021368,
				"z": 2.2594236054,
				"element": "H" 
			},
			{
				"x": 0.289964872,
				"y": -1.7644302511,
				"z": 0.2751396891,
				"element": "H" 
			},
			{
				"x": 1.8485773997,
				"y": -1.3641643144,
				"z": 1.0275536901,
				"element": "H" 
			}
		],
		 "valence_orbital": [ 
			{
				"type": "occ",
				"energy": -0.26053,
				"method": "rhf"
			},
			{
				"type": "occ",
				"energy": -0.25774,
				"method": "rhf"
			},
			{
				"type": "occ",
				"energy": -0.25494,
				"method": "rhf"
			},
			{
				"type": "occ",
				"energy": -0.23848,
				"method": "rhf"
			},
			{
				"type": "occ",
				"energy": -0.22465,
				"method": "rhf"
			},
			{
				"type": "unocc",
				"energy": -0.04853,
				"method": "rhf"
			},
			{
				"type": "unocc",
				"energy": -0.01025,
				"method": "rhf"
			},
			{
				"type": "unocc",
				"energy": 0.05197,
				"method": "rhf"
			},
			{
				"type": "unocc",
				"energy": 0.05454,
				"method": "rhf"
			},
			{
				"type": "unocc",
				"energy": 0.0785,
				"method": "rhf"
			}
		],
		"cosmo_sigma_profile": { 
			"-0.025": 0.0,
			"-0.024": 0.0,
			"-0.023": 0.0,
			"-0.022": 0.0,
			"-0.021": 0.0,
			"-0.02": 0.0,
			"-0.019": 0.0234016640739,
			"-0.018": 0.588928572608,
			"-0.017": 0.924523397909,
			"-0.016": 0.677665269112,
			"-0.015": 1.33904706375,
			"-0.014": 0.411343185645,
			"-0.013": 0.5842199967,
			"-0.012": 0.436994862263,
			"-0.011": 1.04771252735,
			"-0.01": 0.574240336568,
			"-0.009": 0.791302938835,
			"-0.008": 0.356564658088,
			"-0.007": 1.09390697678,
			"-0.006": 5.24175898683,
			"-0.005": 15.4359647412,
			"-0.004": 30.062839765,
			"-0.003": 45.8528052723,
			"-0.002": 47.9430232921,
			"-0.001": 41.6887654796,
			"0.0": 40.8423850947,
			"0.001": 35.9491991136,
			"0.002": 23.671410206,
			"0.003": 19.254161589,
			"0.004": 16.046605432,
			"0.005": 7.27191430441,
			"0.006": 7.24163194392,
			"0.007": 6.16844455268,
			"0.008": 3.53616662956,
			"0.009": 3.85451559164,
			"0.01": 4.15982100229,
			"0.011": 5.15426514365,
			"0.012": 5.61646521035,
			"0.013": 3.48626103587,
			"0.014": 1.16473728161,
			"0.015": 0.0,
			"0.016": 0.0,
			"0.017": 0.0,
			"0.018": 0.0,
			"0.019": 0.0,
			"0.02": 0.0,
			"0.021": 0.0,
			"0.022": 0.0,
			"0.023": 0.0,
			"0.024": 0.0,
			"0.025": 0.0
		}
	}
}
