{
	 "smiles": "COC1=C(CN2C=CC=N2)C=C(C=C1)C(C)=O", 
	 "Tm": 354.15, 
	 "num_atms": 31, 
	 "gaussian": { 
		 "optdone": 1, 
		 "sigma_profile": "yes", 
		 "theory": "DFT", 
		 "functional": "B3LYP", 
		 "basiset": "6-31G**", 
		 "properties": { 
			 "R2extent": 4970.7642, 
			 "electric_dipole_moment_norm": 2.83907841385, 
			 "electric_quadrupole_moment_norm": 17.162838207, 
			 "total_energy": -763.73708729, 
			 "HOMO_LUMO_gap": 0.18673, 
			 "cosmo_polarized_energy": -14.35, 
			 "cosmo_cavitation_energy": 35.07, 
			 "cosmo_dispersion_energy": -24.21, 
			 "cosmo_repulsion_energy": 1.87, 
			 "cosmo_total_nonelectrostatic_energy": 12.74, 
			 "SMD_solvation_energy": 7.24 
		},
		"coords": [
			{
				"x": -1.2439843295,
				"y": 0.2183751427,
				"z": -3.9264809401,
				"element": "C" 
			},
			{
				"x": -0.8506225666,
				"y": 1.4131838484,
				"z": -3.2340898665,
				"element": "O" 
			},
			{
				"x": -1.2030113499,
				"y": 1.4869748942,
				"z": -1.9127888746,
				"element": "C" 
			},
			{
				"x": -0.1889369814,
				"y": 1.5042582071,
				"z": -0.9394364902,
				"element": "C" 
			},
			{
				"x": 1.2605954085,
				"y": 1.3310589157,
				"z": -1.3434081397,
				"element": "C" 
			},
			{
				"x": 1.7546222691,
				"y": -0.0295951822,
				"z": -1.1272858316,
				"element": "N" 
			},
			{
				"x": 2.6275984943,
				"y": -0.4581133679,
				"z": -0.1763401803,
				"element": "C" 
			},
			{
				"x": 2.7509577434,
				"y": -1.8265708451,
				"z": -0.3305456744,
				"element": "C" 
			},
			{
				"x": 1.8972885152,
				"y": -2.1322727431,
				"z": -1.4111865995,
				"element": "C" 
			},
			{
				"x": 1.2933309643,
				"y": -1.0436740713,
				"z": -1.890815874,
				"element": "N" 
			},
			{
				"x": -0.5499554458,
				"y": 1.6579860161,
				"z": 0.4013905627,
				"element": "C" 
			},
			{
				"x": -1.8893825686,
				"y": 1.7786462966,
				"z": 0.7930307948,
				"element": "C" 
			},
			{
				"x": -2.8857119548,
				"y": 1.7529525911,
				"z": -0.1976463938,
				"element": "C" 
			},
			{
				"x": -2.5481793384,
				"y": 1.6120081516,
				"z": -1.5352395514,
				"element": "C" 
			},
			{
				"x": -2.3112890539,
				"y": 1.9399135481,
				"z": 2.2194402835,
				"element": "C" 
			},
			{
				"x": -1.2451670354,
				"y": 1.9700370042,
				"z": 3.303241765,
				"element": "C" 
			},
			{
				"x": -3.4938224512,
				"y": 2.0444398851,
				"z": 2.5117594967,
				"element": "O" 
			},
			{
				"x": -0.9693787008,
				"y": 0.3720194334,
				"z": -4.9716007543,
				"element": "H" 
			},
			{
				"x": -2.3258698537,
				"y": 0.0538049099,
				"z": -3.8600100571,
				"element": "H" 
			},
			{
				"x": -0.7029843499,
				"y": -0.6407588115,
				"z": -3.518190922,
				"element": "H" 
			},
			{
				"x": 1.904783707,
				"y": 1.9941247851,
				"z": -0.759644437,
				"element": "H" 
			},
			{
				"x": 1.3808657178,
				"y": 1.5691532103,
				"z": -2.400844327,
				"element": "H" 
			},
			{
				"x": 3.0925582243,
				"y": 0.2313369038,
				"z": 0.51357109,
				"element": "H" 
			},
			{
				"x": 3.3696063103,
				"y": -2.4979872707,
				"z": 0.2456362068,
				"element": "H" 
			},
			{
				"x": 1.7009167698,
				"y": -3.0953353387,
				"z": -1.8636023062,
				"element": "H" 
			},
			{
				"x": 0.2373567523,
				"y": 1.6706668244,
				"z": 1.1500558877,
				"element": "H" 
			},
			{
				"x": -3.9196331426,
				"y": 1.8581664311,
				"z": 0.1134746651,
				"element": "H" 
			},
			{
				"x": -3.3145276819,
				"y": 1.616753488,
				"z": -2.304020316,
				"element": "H" 
			},
			{
				"x": -1.7355962161,
				"y": 2.0896797549,
				"z": 4.2696008863,
				"element": "H" 
			},
			{
				"x": -0.5463578081,
				"y": 2.799235496,
				"z": 3.1463667802,
				"element": "H" 
			},
			{
				"x": -0.6596700473,
				"y": 1.0439318927,
				"z": 3.305409117,
				"element": "H" 
			}
		],
		 "valence_orbital": [ 
			{
				"type": "occ",
				"energy": -0.26451,
				"method": "rhf"
			},
			{
				"type": "occ",
				"energy": -0.25069,
				"method": "rhf"
			},
			{
				"type": "occ",
				"energy": -0.24673,
				"method": "rhf"
			},
			{
				"type": "occ",
				"energy": -0.24484,
				"method": "rhf"
			},
			{
				"type": "occ",
				"energy": -0.23896,
				"method": "rhf"
			},
			{
				"type": "unocc",
				"energy": -0.05223,
				"method": "rhf"
			},
			{
				"type": "unocc",
				"energy": -0.019,
				"method": "rhf"
			},
			{
				"type": "unocc",
				"energy": 0.0173,
				"method": "rhf"
			},
			{
				"type": "unocc",
				"energy": 0.04059,
				"method": "rhf"
			},
			{
				"type": "unocc",
				"energy": 0.06954,
				"method": "rhf"
			}
		],
		"cosmo_sigma_profile": { 
			"-0.025": 0.0,
			"-0.024": 0.0,
			"-0.023": 0.0,
			"-0.022": 0.0,
			"-0.021": 0.0,
			"-0.02": 0.0,
			"-0.019": 0.0,
			"-0.018": 0.0,
			"-0.017": 0.0,
			"-0.016": 0.0,
			"-0.015": 0.0,
			"-0.014": 0.0,
			"-0.013": 0.0,
			"-0.012": 0.0,
			"-0.011": 0.0,
			"-0.01": 0.15783523505,
			"-0.009": 2.65985659561,
			"-0.008": 4.66629622271,
			"-0.007": 8.25142658432,
			"-0.006": 19.9349263829,
			"-0.005": 22.1811061104,
			"-0.004": 22.2540454093,
			"-0.003": 24.329798874,
			"-0.002": 21.1297761417,
			"-0.001": 20.2283453078,
			"0.0": 15.4785579213,
			"0.001": 14.1342050732,
			"0.002": 16.8442983106,
			"0.003": 21.7086449994,
			"0.004": 13.4700895774,
			"0.005": 10.2331939989,
			"0.006": 11.9158622558,
			"0.007": 6.73594292099,
			"0.008": 4.56947437306,
			"0.009": 4.01738545678,
			"0.01": 3.84634612245,
			"0.011": 4.37596760158,
			"0.012": 4.24808056365,
			"0.013": 1.87155172236,
			"0.014": 0.310972344685,
			"0.015": 0.0,
			"0.016": 0.0,
			"0.017": 0.0,
			"0.018": 0.0,
			"0.019": 0.0,
			"0.02": 0.0,
			"0.021": 0.0,
			"0.022": 0.0,
			"0.023": 0.0,
			"0.024": 0.0,
			"0.025": 0.0
		}
	}
}
