{
	 "smiles": "[O-][N+](=O)C1=NNC=C1Br", 
	 "Tm": 467.15, 
	 "num_atms": 11, 
	 "gaussian": { 
		 "optdone": 1, 
		 "sigma_profile": "yes", 
		 "theory": "DFT", 
		 "functional": "B3LYP", 
		 "basiset": "6-31G**", 
		 "properties": { 
			 "R2extent": 2050.6899, 
			 "electric_dipole_moment_norm": 6.4055261876, 
			 "electric_quadrupole_moment_norm": 9.37834747277, 
			 "total_energy": -3001.48194838, 
			 "HOMO_LUMO_gap": 0.18172, 
			 "cosmo_polarized_energy": -16.77, 
			 "cosmo_cavitation_energy": 19.04, 
			 "cosmo_dispersion_energy": -14.78, 
			 "cosmo_repulsion_energy": 1.23, 
			 "cosmo_total_nonelectrostatic_energy": 5.49, 
			 "SMD_solvation_energy": 4.19 
		},
		"coords": [
			{
				"x": 1.9477464606,
				"y": -1.7141976566,
				"z": 0.7184294362,
				"element": "O" 
			},
			{
				"x": 1.8635662423,
				"y": -0.4870881899,
				"z": 0.7674789596,
				"element": "N" 
			},
			{
				"x": 2.4728612395,
				"y": 0.246289677,
				"z": 1.5374110312,
				"element": "O" 
			},
			{
				"x": 0.9544774758,
				"y": 0.1337067727,
				"z": -0.1804993666,
				"element": "C" 
			},
			{
				"x": 0.8247945195,
				"y": 1.4568784597,
				"z": -0.1749522035,
				"element": "N" 
			},
			{
				"x": -0.0630863836,
				"y": 1.6952766811,
				"z": -1.1426422231,
				"element": "N" 
			},
			{
				"x": -0.5089917411,
				"y": 0.5744052375,
				"z": -1.7702830661,
				"element": "C" 
			},
			{
				"x": 0.1396926461,
				"y": -0.4835706442,
				"z": -1.1640792826,
				"element": "C" 
			},
			{
				"x": -0.0891884026,
				"y": -2.2827168617,
				"z": -1.6251869784,
				"element": "Br" 
			},
			{
				"x": -0.3269006706,
				"y": 2.6518969147,
				"z": -1.3301532059,
				"element": "H" 
			},
			{
				"x": -1.2287713861,
				"y": 0.5948196097,
				"z": -2.5739231009,
				"element": "H" 
			}
		],
		 "valence_orbital": [ 
			{
				"type": "occ",
				"energy": -0.30892,
				"method": "rhf"
			},
			{
				"type": "occ",
				"energy": -0.30362,
				"method": "rhf"
			},
			{
				"type": "occ",
				"energy": -0.29923,
				"method": "rhf"
			},
			{
				"type": "occ",
				"energy": -0.28429,
				"method": "rhf"
			},
			{
				"type": "occ",
				"energy": -0.26716,
				"method": "rhf"
			},
			{
				"type": "unocc",
				"energy": -0.08544,
				"method": "rhf"
			},
			{
				"type": "unocc",
				"energy": -0.01781,
				"method": "rhf"
			},
			{
				"type": "unocc",
				"energy": -0.00868,
				"method": "rhf"
			},
			{
				"type": "unocc",
				"energy": 0.05169,
				"method": "rhf"
			},
			{
				"type": "unocc",
				"energy": 0.05448,
				"method": "rhf"
			}
		],
		"cosmo_sigma_profile": { 
			"-0.025": 0.0,
			"-0.024": 0.0,
			"-0.023": 0.0,
			"-0.022": 0.0,
			"-0.021": 0.0,
			"-0.02": 0.00532554436848,
			"-0.019": 1.49852775448,
			"-0.018": 1.7703259872,
			"-0.017": 1.60216142647,
			"-0.016": 1.2893047658,
			"-0.015": 0.666721854681,
			"-0.014": 1.28508354473,
			"-0.013": 1.38626190146,
			"-0.012": 1.9184829996,
			"-0.011": 3.11108104544,
			"-0.01": 2.79530049044,
			"-0.009": 2.31332044818,
			"-0.008": 1.55338728263,
			"-0.007": 3.19975206162,
			"-0.006": 4.64005175582,
			"-0.005": 5.1923393319,
			"-0.004": 5.33299322111,
			"-0.003": 7.32735814314,
			"-0.002": 12.2964132443,
			"-0.001": 10.7873726859,
			"0.0": 10.7705825119,
			"0.001": 6.55550913098,
			"0.002": 8.1945784678,
			"0.003": 11.8641054291,
			"0.004": 6.1299440526,
			"0.005": 4.12784835859,
			"0.006": 5.06035515912,
			"0.007": 10.3688841613,
			"0.008": 10.6843852135,
			"0.009": 5.9078248838,
			"0.01": 2.78982188076,
			"0.011": 1.34537615004,
			"0.012": 1.57996085005,
			"0.013": 1.33074543496,
			"0.014": 0.232763415264,
			"0.015": 0.0,
			"0.016": 0.0,
			"0.017": 0.0,
			"0.018": 0.0,
			"0.019": 0.0,
			"0.02": 0.0,
			"0.021": 0.0,
			"0.022": 0.0,
			"0.023": 0.0,
			"0.024": 0.0,
			"0.025": 0.0
		}
	}
}
