{
	 "smiles": "S=C(NC1=CC=CC=C1)C(=S)NC1=CC=CC=C1", 
	 "Tm": 407.15, 
	 "num_atms": 30, 
	 "gaussian": { 
		 "optdone": 1, 
		 "sigma_profile": "yes", 
		 "theory": "DFT", 
		 "functional": "B3LYP", 
		 "basiset": "6-31G**", 
		 "properties": { 
			 "R2extent": 6492.1864, 
			 "electric_dipole_moment_norm": 3.9694556982, 
			 "electric_quadrupole_moment_norm": 18.0681542549, 
			 "total_energy": -1446.60135395, 
			 "HOMO_LUMO_gap": 0.12629, 
			 "cosmo_polarized_energy": -16.77, 
			 "cosmo_cavitation_energy": 37.76, 
			 "cosmo_dispersion_energy": -26.98, 
			 "cosmo_repulsion_energy": 2.02, 
			 "cosmo_total_nonelectrostatic_energy": 12.8, 
			 "SMD_solvation_energy": 4.29 
		},
		"coords": [
			{
				"x": 1.1072001017,
				"y": 0.3298428171,
				"z": 1.0299131264,
				"element": "S" 
			},
			{
				"x": 0.4927246189,
				"y": 0.9430431632,
				"z": -0.3876691439,
				"element": "C" 
			},
			{
				"x": -0.5068797135,
				"y": 1.8358811417,
				"z": -0.5710624466,
				"element": "N" 
			},
			{
				"x": -1.3705933622,
				"y": 2.5212024331,
				"z": 0.3095921693,
				"element": "C" 
			},
			{
				"x": -1.4453082826,
				"y": 2.2988616478,
				"z": 1.6929217617,
				"element": "C" 
			},
			{
				"x": -2.3600005897,
				"y": 3.0302005133,
				"z": 2.4521682515,
				"element": "C" 
			},
			{
				"x": -3.197344283,
				"y": 3.9771819997,
				"z": 1.8634707156,
				"element": "C" 
			},
			{
				"x": -3.1196645931,
				"y": 4.1960806881,
				"z": 0.4854262638,
				"element": "C" 
			},
			{
				"x": -2.217027588,
				"y": 3.474362033,
				"z": -0.2863994483,
				"element": "C" 
			},
			{
				"x": 1.1583563874,
				"y": 0.5767200976,
				"z": -1.7029707206,
				"element": "C" 
			},
			{
				"x": 1.6978478368,
				"y": 1.7896703266,
				"z": -2.7245575621,
				"element": "S" 
			},
			{
				"x": 1.3691697358,
				"y": -0.7239943541,
				"z": -1.9889942419,
				"element": "N" 
			},
			{
				"x": 0.7827637943,
				"y": -1.9050549139,
				"z": -1.4560501123,
				"element": "C" 
			},
			{
				"x": -0.566887601,
				"y": -1.958391828,
				"z": -1.0894346404,
				"element": "C" 
			},
			{
				"x": -1.1057855968,
				"y": -3.1547222517,
				"z": -0.6209985119,
				"element": "C" 
			},
			{
				"x": -0.3171360411,
				"y": -4.304378675,
				"z": -0.5394544436,
				"element": "C" 
			},
			{
				"x": 1.0223035518,
				"y": -4.2519417756,
				"z": -0.9294596226,
				"element": "C" 
			},
			{
				"x": 1.5747525254,
				"y": -3.0564470902,
				"z": -1.3850141383,
				"element": "C" 
			},
			{
				"x": -0.5552485962,
				"y": 2.1702054092,
				"z": -1.5306258362,
				"element": "H" 
			},
			{
				"x": -0.7927382339,
				"y": 1.574667397,
				"z": 2.1581037198,
				"element": "H" 
			},
			{
				"x": -2.4097197231,
				"y": 2.8530275095,
				"z": 3.5225728167,
				"element": "H" 
			},
			{
				"x": -3.9011677685,
				"y": 4.5402084936,
				"z": 2.4686361596,
				"element": "H" 
			},
			{
				"x": -3.7623519397,
				"y": 4.930306035,
				"z": 0.0090293444,
				"element": "H" 
			},
			{
				"x": -2.160712892,
				"y": 3.6470538308,
				"z": -1.3586958559,
				"element": "H" 
			},
			{
				"x": 1.9868771181,
				"y": -0.8590172835,
				"z": -2.781900107,
				"element": "H" 
			},
			{
				"x": -1.1906140518,
				"y": -1.0758051534,
				"z": -1.1792312918,
				"element": "H" 
			},
			{
				"x": -2.1519811275,
				"y": -3.1898699866,
				"z": -0.3324971594,
				"element": "H" 
			},
			{
				"x": -0.7452834329,
				"y": -5.2352330831,
				"z": -0.1807366781,
				"element": "H" 
			},
			{
				"x": 1.64355476,
				"y": -5.1406067161,
				"z": -0.8723485069,
				"element": "H" 
			},
			{
				"x": 2.6219949867,
				"y": -3.0058524253,
				"z": -1.6692338608,
				"element": "H" 
			}
		],
		 "valence_orbital": [ 
			{
				"type": "occ",
				"energy": -0.26013,
				"method": "rhf"
			},
			{
				"type": "occ",
				"energy": -0.23959,
				"method": "rhf"
			},
			{
				"type": "occ",
				"energy": -0.23024,
				"method": "rhf"
			},
			{
				"type": "occ",
				"energy": -0.2221,
				"method": "rhf"
			},
			{
				"type": "occ",
				"energy": -0.21197,
				"method": "rhf"
			},
			{
				"type": "unocc",
				"energy": -0.08568,
				"method": "rhf"
			},
			{
				"type": "unocc",
				"energy": -0.03789,
				"method": "rhf"
			},
			{
				"type": "unocc",
				"energy": -0.01633,
				"method": "rhf"
			},
			{
				"type": "unocc",
				"energy": -0.01045,
				"method": "rhf"
			},
			{
				"type": "unocc",
				"energy": 0.00122,
				"method": "rhf"
			}
		],
		"cosmo_sigma_profile": { 
			"-0.025": 0.0,
			"-0.024": 0.0,
			"-0.023": 0.0,
			"-0.022": 0.0,
			"-0.021": 0.0,
			"-0.02": 0.0,
			"-0.019": 0.0,
			"-0.018": 0.0,
			"-0.017": 0.0,
			"-0.016": 0.490532729319,
			"-0.015": 1.10241216585,
			"-0.014": 1.75133295164,
			"-0.013": 1.77853753697,
			"-0.012": 2.28134131858,
			"-0.011": 2.19315602253,
			"-0.01": 2.19618395939,
			"-0.009": 3.03013557263,
			"-0.008": 4.09780424278,
			"-0.007": 7.6890293882,
			"-0.006": 19.8793293923,
			"-0.005": 22.2348690717,
			"-0.004": 21.5470663805,
			"-0.003": 15.4319621846,
			"-0.002": 15.5917003797,
			"-0.001": 13.808516332,
			"0.0": 15.5936785769,
			"0.001": 17.633426913,
			"0.002": 22.7772269936,
			"0.003": 26.0199794469,
			"0.004": 30.6554567201,
			"0.005": 19.5773154258,
			"0.006": 13.2287886982,
			"0.007": 12.5652437179,
			"0.008": 7.88713555764,
			"0.009": 5.05525811979,
			"0.01": 2.52813847243,
			"0.011": 0.0465239691453,
			"0.012": 0.0,
			"0.013": 0.0,
			"0.014": 0.0,
			"0.015": 0.0,
			"0.016": 0.0,
			"0.017": 0.0,
			"0.018": 0.0,
			"0.019": 0.0,
			"0.02": 0.0,
			"0.021": 0.0,
			"0.022": 0.0,
			"0.023": 0.0,
			"0.024": 0.0,
			"0.025": 0.0
		}
	}
}
