{
	 "smiles": "CC1=C(C(=NN1)C(O)=O)S(Cl)(=O)=O", 
	 "Tm": 424.15, 
	 "num_atms": 18, 
	 "gaussian": { 
		 "optdone": 1, 
		 "sigma_profile": "yes", 
		 "theory": "DFT", 
		 "functional": "B3LYP", 
		 "basiset": "6-31G**", 
		 "properties": { 
			 "R2extent": 3745.0301, 
			 "electric_dipole_moment_norm": 9.49759506244, 
			 "electric_quadrupole_moment_norm": 30.1970830937, 
			 "total_energy": -1462.23426376, 
			 "HOMO_LUMO_gap": 0.20228, 
			 "cosmo_polarized_energy": -26.21, 
			 "cosmo_cavitation_energy": 26.17, 
			 "cosmo_dispersion_energy": -19.89, 
			 "cosmo_repulsion_energy": 1.52, 
			 "cosmo_total_nonelectrostatic_energy": 7.81, 
			 "SMD_solvation_energy": 3.86 
		},
		"coords": [
			{
				"x": -0.2923193044,
				"y": -3.8196957727,
				"z": 1.0201930855,
				"element": "C" 
			},
			{
				"x": -0.6964304572,
				"y": -3.0309032017,
				"z": -0.1848173663,
				"element": "C" 
			},
			{
				"x": -0.4273450194,
				"y": -1.7606351462,
				"z": -0.6966988973,
				"element": "C" 
			},
			{
				"x": -1.1676606321,
				"y": -1.6728469011,
				"z": -1.9109199923,
				"element": "C" 
			},
			{
				"x": -1.8410038495,
				"y": -2.7954471078,
				"z": -2.1348894391,
				"element": "N" 
			},
			{
				"x": -1.5433412677,
				"y": -3.5856066055,
				"z": -1.0941400502,
				"element": "N" 
			},
			{
				"x": -1.2712773114,
				"y": -0.5531680705,
				"z": -2.8916637243,
				"element": "C" 
			},
			{
				"x": -2.0697589912,
				"y": -0.8095028163,
				"z": -3.9443320407,
				"element": "O" 
			},
			{
				"x": -0.6883364691,
				"y": 0.4941960022,
				"z": -2.7530374193,
				"element": "O" 
			},
			{
				"x": 0.5854842343,
				"y": -0.4148643446,
				"z": -0.1086252889,
				"element": "S" 
			},
			{
				"x": 1.3830514776,
				"y": -1.2181115995,
				"z": 1.7192102936,
				"element": "Cl" 
			},
			{
				"x": 1.7348797738,
				"y": -0.2575858005,
				"z": -0.9815043465,
				"element": "O" 
			},
			{
				"x": -0.2659116889,
				"y": 0.6855546728,
				"z": 0.3060402063,
				"element": "O" 
			},
			{
				"x": 0.7892953014,
				"y": -3.9641304559,
				"z": 1.0566648902,
				"element": "H" 
			},
			{
				"x": -0.7715044342,
				"y": -4.8028476103,
				"z": 0.9954839491,
				"element": "H" 
			},
			{
				"x": -0.5869775006,
				"y": -3.3156117226,
				"z": 1.9427762995,
				"element": "H" 
			},
			{
				"x": -1.9469396848,
				"y": -4.5107871683,
				"z": -1.0437109138,
				"element": "H" 
			},
			{
				"x": -2.4347041765,
				"y": -1.7074063515,
				"z": -3.8538292453,
				"element": "H" 
			}
		],
		 "valence_orbital": [ 
			{
				"type": "occ",
				"energy": -0.32856,
				"method": "rhf"
			},
			{
				"type": "occ",
				"energy": -0.31572,
				"method": "rhf"
			},
			{
				"type": "occ",
				"energy": -0.31035,
				"method": "rhf"
			},
			{
				"type": "occ",
				"energy": -0.29712,
				"method": "rhf"
			},
			{
				"type": "occ",
				"energy": -0.29012,
				"method": "rhf"
			},
			{
				"type": "unocc",
				"energy": -0.08784,
				"method": "rhf"
			},
			{
				"type": "unocc",
				"energy": -0.0627,
				"method": "rhf"
			},
			{
				"type": "unocc",
				"energy": -0.03478,
				"method": "rhf"
			},
			{
				"type": "unocc",
				"energy": 0.02028,
				"method": "rhf"
			},
			{
				"type": "unocc",
				"energy": 0.04071,
				"method": "rhf"
			}
		],
		"cosmo_sigma_profile": { 
			"-0.025": 0.0,
			"-0.024": 0.0,
			"-0.023": 0.0,
			"-0.022": 0.0,
			"-0.021": 0.0,
			"-0.02": 0.0,
			"-0.019": 0.881270762848,
			"-0.018": 2.10866851177,
			"-0.017": 1.25796953831,
			"-0.016": 1.58678747489,
			"-0.015": 2.40366649387,
			"-0.014": 1.57601731027,
			"-0.013": 1.80985391667,
			"-0.012": 1.80339605771,
			"-0.011": 1.90661407529,
			"-0.01": 1.31726265237,
			"-0.009": 1.84386269244,
			"-0.008": 4.11682230577,
			"-0.007": 6.43175406633,
			"-0.006": 9.61538774911,
			"-0.005": 11.225365612,
			"-0.004": 13.5983643904,
			"-0.003": 15.4148730428,
			"-0.002": 14.1072140842,
			"-0.001": 11.5355344095,
			"0.0": 8.14590313007,
			"0.001": 8.32335036484,
			"0.002": 9.09933513054,
			"0.003": 11.7763792147,
			"0.004": 10.6703889627,
			"0.005": 5.24784389559,
			"0.006": 6.15453610026,
			"0.007": 11.3125308976,
			"0.008": 15.5821481604,
			"0.009": 8.98759741805,
			"0.01": 5.8891216012,
			"0.011": 3.30540769708,
			"0.012": 1.11386490712,
			"0.013": 0.577148240258,
			"0.014": 0.494408477136,
			"0.015": 0.214044601947,
			"0.016": 0.000576414823821,
			"0.017": 0.222414260681,
			"0.018": 0.206088991134,
			"0.019": 0.0693670631853,
			"0.02": 0.0,
			"0.021": 0.0,
			"0.022": 0.0,
			"0.023": 0.0,
			"0.024": 0.0,
			"0.025": 0.0
		}
	}
}
