{
	 "smiles": "CC(CC(=O)C1=CC=CC=C1)C(O)=O", 
	 "Tm": 414.15, 
	 "num_atms": 26, 
	 "gaussian": { 
		 "optdone": 1, 
		 "sigma_profile": "yes", 
		 "theory": "DFT", 
		 "functional": "B3LYP", 
		 "basiset": "6-31G**", 
		 "properties": { 
			 "R2extent": 3363.2268, 
			 "electric_dipole_moment_norm": 3.93406048505, 
			 "electric_quadrupole_moment_norm": 7.20735040358, 
			 "total_energy": -652.094857138, 
			 "HOMO_LUMO_gap": 0.18879, 
			 "cosmo_polarized_energy": -14.94, 
			 "cosmo_cavitation_energy": 30.22, 
			 "cosmo_dispersion_energy": -20.87, 
			 "cosmo_repulsion_energy": 1.66, 
			 "cosmo_total_nonelectrostatic_energy": 11.01, 
			 "SMD_solvation_energy": 6.7 
		},
		"coords": [
			{
				"x": 2.8482657931,
				"y": -1.7480343892,
				"z": -0.7472809883,
				"element": "C" 
			},
			{
				"x": 1.5435276413,
				"y": -1.0464407795,
				"z": -0.3503735577,
				"element": "C" 
			},
			{
				"x": 0.8512146178,
				"y": -0.4194954359,
				"z": -1.5953165362,
				"element": "C" 
			},
			{
				"x": -0.403615172,
				"y": 0.3812808569,
				"z": -1.2549038512,
				"element": "C" 
			},
			{
				"x": -1.5018191073,
				"y": -0.1454131747,
				"z": -1.3616735558,
				"element": "O" 
			},
			{
				"x": -0.2792127787,
				"y": 1.7956249844,
				"z": -0.7724691682,
				"element": "C" 
			},
			{
				"x": -1.4589254629,
				"y": 2.4708536242,
				"z": -0.4174145056,
				"element": "C" 
			},
			{
				"x": -1.4128436694,
				"y": 3.784627173,
				"z": 0.0367749024,
				"element": "C" 
			},
			{
				"x": -0.1843614254,
				"y": 4.4443511147,
				"z": 0.1452048757,
				"element": "C" 
			},
			{
				"x": 0.9948313607,
				"y": 3.7839408407,
				"z": -0.2034275221,
				"element": "C" 
			},
			{
				"x": 0.9485319714,
				"y": 2.4667719426,
				"z": -0.6608845783,
				"element": "C" 
			},
			{
				"x": 0.588194982,
				"y": -2.0421425788,
				"z": 0.2949417574,
				"element": "C" 
			},
			{
				"x": -0.108311622,
				"y": -1.4872886338,
				"z": 1.3130587726,
				"element": "O" 
			},
			{
				"x": 0.439100748,
				"y": -3.1918353877,
				"z": -0.0550658136,
				"element": "O" 
			},
			{
				"x": 3.5274927669,
				"y": -1.0464425265,
				"z": -1.2412414425,
				"element": "H" 
			},
			{
				"x": 3.3587729399,
				"y": -2.1548030828,
				"z": 0.1308411868,
				"element": "H" 
			},
			{
				"x": 2.641112791,
				"y": -2.5776391354,
				"z": -1.4278666422,
				"element": "H" 
			},
			{
				"x": 1.7451066631,
				"y": -0.2554959103,
				"z": 0.3792833218,
				"element": "H" 
			},
			{
				"x": 0.5420292374,
				"y": -1.2230428763,
				"z": -2.2691019108,
				"element": "H" 
			},
			{
				"x": 1.584432113,
				"y": 0.2018901716,
				"z": -2.1195929296,
				"element": "H" 
			},
			{
				"x": -2.3986219741,
				"y": 1.936908999,
				"z": -0.5097434431,
				"element": "H" 
			},
			{
				"x": -2.3310513475,
				"y": 4.2975855065,
				"z": 0.3078230886,
				"element": "H" 
			},
			{
				"x": -0.1471917489,
				"y": 5.4704675637,
				"z": 0.4999017571,
				"element": "H" 
			},
			{
				"x": 1.9500201088,
				"y": 4.2941150417,
				"z": -0.1210708674,
				"element": "H" 
			},
			{
				"x": 1.8748896674,
				"y": 1.9700966253,
				"z": -0.9303119174,
				"element": "H" 
			},
			{
				"x": -0.7398690938,
				"y": -2.1633405336,
				"z": 1.6131095678,
				"element": "H" 
			}
		],
		 "valence_orbital": [ 
			{
				"type": "occ",
				"energy": -0.31538,
				"method": "rhf"
			},
			{
				"type": "occ",
				"energy": -0.27371,
				"method": "rhf"
			},
			{
				"type": "occ",
				"energy": -0.26393,
				"method": "rhf"
			},
			{
				"type": "occ",
				"energy": -0.26056,
				"method": "rhf"
			},
			{
				"type": "occ",
				"energy": -0.24917,
				"method": "rhf"
			},
			{
				"type": "unocc",
				"energy": -0.06038,
				"method": "rhf"
			},
			{
				"type": "unocc",
				"energy": -0.01311,
				"method": "rhf"
			},
			{
				"type": "unocc",
				"energy": 0.00871,
				"method": "rhf"
			},
			{
				"type": "unocc",
				"energy": 0.03482,
				"method": "rhf"
			},
			{
				"type": "unocc",
				"energy": 0.07497,
				"method": "rhf"
			}
		],
		"cosmo_sigma_profile": { 
			"-0.025": 0.0,
			"-0.024": 0.0,
			"-0.023": 0.0,
			"-0.022": 0.0,
			"-0.021": 0.0,
			"-0.02": 0.0,
			"-0.019": 0.0,
			"-0.018": 0.888335494683,
			"-0.017": 1.04238187491,
			"-0.016": 0.33014954065,
			"-0.015": 0.94241020961,
			"-0.014": 1.12805171816,
			"-0.013": 0.617293636939,
			"-0.012": 0.788211720352,
			"-0.011": 0.449364270226,
			"-0.01": 0.897639814494,
			"-0.009": 0.303436227533,
			"-0.008": 2.17331853734,
			"-0.007": 5.41882803315,
			"-0.006": 12.7603817606,
			"-0.005": 19.3552559919,
			"-0.004": 22.1793307779,
			"-0.003": 20.0570136276,
			"-0.002": 17.4782975921,
			"-0.001": 15.322328872,
			"0.0": 15.8956997608,
			"0.001": 12.4347978857,
			"0.002": 13.3620749406,
			"0.003": 15.3486172587,
			"0.004": 15.8852633484,
			"0.005": 7.29174923381,
			"0.006": 6.09627564328,
			"0.007": 2.4126027874,
			"0.008": 4.52667246838,
			"0.009": 4.670125333,
			"0.01": 4.20958975377,
			"0.011": 6.5258897643,
			"0.012": 7.4876677395,
			"0.013": 0.806504860111,
			"0.014": 0.0,
			"0.015": 0.0,
			"0.016": 0.0,
			"0.017": 0.0,
			"0.018": 0.0,
			"0.019": 0.0,
			"0.02": 0.0,
			"0.021": 0.0,
			"0.022": 0.0,
			"0.023": 0.0,
			"0.024": 0.0,
			"0.025": 0.0
		}
	}
}
