{
	 "smiles": "CCCCNC(=S)NCCCC", 
	 "Tm": 338.15, 
	 "num_atms": 32, 
	 "gaussian": { 
		 "optdone": 1, 
		 "sigma_profile": "yes", 
		 "theory": "DFT", 
		 "functional": "B3LYP", 
		 "basiset": "6-31G**", 
		 "properties": { 
			 "R2extent": 4670.3296, 
			 "electric_dipole_moment_norm": 5.56651306385, 
			 "electric_quadrupole_moment_norm": 18.8814018132, 
			 "total_energy": -862.742101929, 
			 "HOMO_LUMO_gap": 0.20548, 
			 "cosmo_polarized_energy": -16.81, 
			 "cosmo_cavitation_energy": 35.15, 
			 "cosmo_dispersion_energy": -24.64, 
			 "cosmo_repulsion_energy": 2.02, 
			 "cosmo_total_nonelectrostatic_energy": 12.52, 
			 "SMD_solvation_energy": 3.95 
		},
		"coords": [
			{
				"x": 2.3727887409,
				"y": -3.7648877007,
				"z": 2.0813126475,
				"element": "C" 
			},
			{
				"x": 1.7377133731,
				"y": -2.567490826,
				"z": 2.7953410879,
				"element": "C" 
			},
			{
				"x": 0.841323988,
				"y": -1.7288066253,
				"z": 1.8760912297,
				"element": "C" 
			},
			{
				"x": 0.2149428625,
				"y": -0.5322103094,
				"z": 2.6032524253,
				"element": "C" 
			},
			{
				"x": -0.6362722876,
				"y": 0.2883577924,
				"z": 1.7465107832,
				"element": "N" 
			},
			{
				"x": -1.9635726978,
				"y": 0.0764992459,
				"z": 1.5457688279,
				"element": "C" 
			},
			{
				"x": -2.8581826629,
				"y": -1.1241194294,
				"z": 2.3334371317,
				"element": "S" 
			},
			{
				"x": -2.580721869,
				"y": 0.9161090974,
				"z": 0.6645057293,
				"element": "N" 
			},
			{
				"x": -2.0013765151,
				"y": 2.048696108,
				"z": -0.0483664915,
				"element": "C" 
			},
			{
				"x": -1.281075423,
				"y": 1.6832425052,
				"z": -1.3594782199,
				"element": "C" 
			},
			{
				"x": -2.2063068044,
				"y": 1.0731122675,
				"z": -2.4191000556,
				"element": "C" 
			},
			{
				"x": -1.4745677586,
				"y": 0.7102118267,
				"z": -3.7147818705,
				"element": "C" 
			},
			{
				"x": 3.0033117706,
				"y": -4.346701332,
				"z": 2.7614458685,
				"element": "H" 
			},
			{
				"x": 1.6059810381,
				"y": -4.4369768739,
				"z": 1.680601451,
				"element": "H" 
			},
			{
				"x": 2.9993327004,
				"y": -3.4404844675,
				"z": 1.2424083251,
				"element": "H" 
			},
			{
				"x": 2.5285514169,
				"y": -1.9313351999,
				"z": 3.2172212918,
				"element": "H" 
			},
			{
				"x": 1.1443742963,
				"y": -2.9225966356,
				"z": 3.6480894223,
				"element": "H" 
			},
			{
				"x": 0.0312084415,
				"y": -2.3491019288,
				"z": 1.475664886,
				"element": "H" 
			},
			{
				"x": 1.4261188342,
				"y": -1.3701780452,
				"z": 1.0166356842,
				"element": "H" 
			},
			{
				"x": -0.401726683,
				"y": -0.8789228617,
				"z": 3.435315627,
				"element": "H" 
			},
			{
				"x": 0.9973328614,
				"y": 0.121234131,
				"z": 3.0085944225,
				"element": "H" 
			},
			{
				"x": -0.1600779611,
				"y": 0.9356699315,
				"z": 1.1357730372,
				"element": "H" 
			},
			{
				"x": -3.5654905211,
				"y": 0.7246780972,
				"z": 0.5602886414,
				"element": "H" 
			},
			{
				"x": -1.3235199325,
				"y": 2.5905366926,
				"z": 0.6244259106,
				"element": "H" 
			},
			{
				"x": -2.8219936262,
				"y": 2.7407769866,
				"z": -0.2664017983,
				"element": "H" 
			},
			{
				"x": -0.4623683322,
				"y": 0.9816017038,
				"z": -1.1484065913,
				"element": "H" 
			},
			{
				"x": -0.8129804891,
				"y": 2.5950169681,
				"z": -1.7552887846,
				"element": "H" 
			},
			{
				"x": -2.6847154431,
				"y": 0.1775526928,
				"z": -2.0044082385,
				"element": "H" 
			},
			{
				"x": -3.0156082151,
				"y": 1.7830509069,
				"z": -2.6405781825,
				"element": "H" 
			},
			{
				"x": -0.6833711552,
				"y": -0.0250140511,
				"z": -3.5296470238,
				"element": "H" 
			},
			{
				"x": -2.1607296401,
				"y": 0.2798927429,
				"z": -4.4509086533,
				"element": "H" 
			},
			{
				"x": -1.0080223067,
				"y": 1.59148659,
				"z": -4.1697185204,
				"element": "H" 
			}
		],
		 "valence_orbital": [ 
			{
				"type": "occ",
				"energy": -0.33184,
				"method": "rhf"
			},
			{
				"type": "occ",
				"energy": -0.32478,
				"method": "rhf"
			},
			{
				"type": "occ",
				"energy": -0.25135,
				"method": "rhf"
			},
			{
				"type": "occ",
				"energy": -0.20029,
				"method": "rhf"
			},
			{
				"type": "occ",
				"energy": -0.19361,
				"method": "rhf"
			},
			{
				"type": "unocc",
				"energy": 0.01187,
				"method": "rhf"
			},
			{
				"type": "unocc",
				"energy": 0.05944,
				"method": "rhf"
			},
			{
				"type": "unocc",
				"energy": 0.07341,
				"method": "rhf"
			},
			{
				"type": "unocc",
				"energy": 0.09439,
				"method": "rhf"
			},
			{
				"type": "unocc",
				"energy": 0.0963,
				"method": "rhf"
			}
		],
		"cosmo_sigma_profile": { 
			"-0.025": 0.0,
			"-0.024": 0.0,
			"-0.023": 0.0,
			"-0.022": 0.0,
			"-0.021": 0.0,
			"-0.02": 0.0,
			"-0.019": 0.0,
			"-0.018": 0.0,
			"-0.017": 0.0,
			"-0.016": 0.0,
			"-0.015": 0.0,
			"-0.014": 0.665297497002,
			"-0.013": 1.79356908556,
			"-0.012": 2.38030848752,
			"-0.011": 1.75866122624,
			"-0.01": 2.14413608041,
			"-0.009": 2.37568558059,
			"-0.008": 2.90820660855,
			"-0.007": 2.8124389809,
			"-0.006": 5.99107774444,
			"-0.005": 8.62292496755,
			"-0.004": 9.41493666515,
			"-0.003": 25.3330916037,
			"-0.002": 39.1006944191,
			"-0.001": 37.0159075491,
			"0.0": 35.0739242632,
			"0.001": 32.0354133878,
			"0.002": 15.7219222768,
			"0.003": 4.86902927383,
			"0.004": 4.30805252795,
			"0.005": 4.19624488605,
			"0.006": 3.15599749022,
			"0.007": 3.61297229302,
			"0.008": 3.8811326631,
			"0.009": 4.03864976095,
			"0.01": 4.37647354026,
			"0.011": 5.61903888283,
			"0.012": 7.04463529303,
			"0.013": 4.06770263301,
			"0.014": 0.140396450099,
			"0.015": 0.0,
			"0.016": 0.0,
			"0.017": 0.0,
			"0.018": 0.0,
			"0.019": 0.0,
			"0.02": 0.0,
			"0.021": 0.0,
			"0.022": 0.0,
			"0.023": 0.0,
			"0.024": 0.0,
			"0.025": 0.0
		}
	}
}
