{
	 "smiles": "SC1=NC2=C(SC=C2)C(=O)N1CC1=CC=CC=C1", 
	 "Tm": 523.15, 
	 "num_atms": 28, 
	 "gaussian": { 
		 "optdone": 1, 
		 "sigma_profile": "yes", 
		 "theory": "DFT", 
		 "functional": "B3LYP", 
		 "basiset": "6-31G**", 
		 "properties": { 
			 "R2extent": 6495.3337, 
			 "electric_dipole_moment_norm": 2.3637193869, 
			 "electric_quadrupole_moment_norm": 16.3860875559, 
			 "total_energy": -1482.51929741, 
			 "HOMO_LUMO_gap": 0.17328, 
			 "cosmo_polarized_energy": -11.64, 
			 "cosmo_cavitation_energy": 34.86, 
			 "cosmo_dispersion_energy": -26.32, 
			 "cosmo_repulsion_energy": 1.91, 
			 "cosmo_total_nonelectrostatic_energy": 10.45, 
			 "SMD_solvation_energy": 4.26 
		},
		"coords": [
			{
				"x": -1.0628553459,
				"y": -1.0786235275,
				"z": -2.6805278284,
				"element": "S" 
			},
			{
				"x": -0.8723988309,
				"y": -1.8679649464,
				"z": -1.0873976263,
				"element": "C" 
			},
			{
				"x": -0.251573175,
				"y": -3.0115548057,
				"z": -1.0553277982,
				"element": "N" 
			},
			{
				"x": -0.1288477237,
				"y": -3.6040261739,
				"z": 0.1751697471,
				"element": "C" 
			},
			{
				"x": -0.6327758701,
				"y": -3.0274745744,
				"z": 1.3367535651,
				"element": "C" 
			},
			{
				"x": -0.3273618579,
				"y": -3.9998495863,
				"z": 2.7432300489,
				"element": "S" 
			},
			{
				"x": 0.4792397094,
				"y": -5.1850735445,
				"z": 1.7545317405,
				"element": "C" 
			},
			{
				"x": 0.5153245418,
				"y": -4.8580485277,
				"z": 0.4296792704,
				"element": "C" 
			},
			{
				"x": -1.3116585787,
				"y": -1.76609581,
				"z": 1.3253805903,
				"element": "C" 
			},
			{
				"x": -1.7819793234,
				"y": -1.1705784245,
				"z": 2.2899686832,
				"element": "O" 
			},
			{
				"x": -1.404219539,
				"y": -1.2148201386,
				"z": 0.0040706254,
				"element": "N" 
			},
			{
				"x": -2.1346711116,
				"y": 0.0724433609,
				"z": -0.1081712978,
				"element": "C" 
			},
			{
				"x": -1.2484003969,
				"y": 1.3040184717,
				"z": -0.089631009,
				"element": "C" 
			},
			{
				"x": -0.4810829354,
				"y": 1.6116874397,
				"z": 1.0441599361,
				"element": "C" 
			},
			{
				"x": 0.3109950828,
				"y": 2.7585299776,
				"z": 1.0663743123,
				"element": "C" 
			},
			{
				"x": 0.3391807444,
				"y": 3.618312299,
				"z": -0.035099757,
				"element": "C" 
			},
			{
				"x": -0.4317079616,
				"y": 3.3260380065,
				"z": -1.1597696829,
				"element": "C" 
			},
			{
				"x": -1.2196007676,
				"y": 2.1731194604,
				"z": -1.1858858803,
				"element": "C" 
			},
			{
				"x": -0.5229515794,
				"y": -2.132506535,
				"z": -3.3190854014,
				"element": "H" 
			},
			{
				"x": 0.8863295776,
				"y": -6.0709310686,
				"z": 2.2234729462,
				"element": "H" 
			},
			{
				"x": 0.9714800874,
				"y": -5.4624986046,
				"z": -0.3442929818,
				"element": "H" 
			},
			{
				"x": -2.7354501216,
				"y": 0.0398266413,
				"z": -1.0203989097,
				"element": "H" 
			},
			{
				"x": -2.8105741715,
				"y": 0.0834911132,
				"z": 0.7485781507,
				"element": "H" 
			},
			{
				"x": -0.52180423,
				"y": 0.9553804935,
				"z": 1.907800954,
				"element": "H" 
			},
			{
				"x": 0.9013760023,
				"y": 2.9866233719,
				"z": 1.9492849659,
				"element": "H" 
			},
			{
				"x": 0.955204807,
				"y": 4.5127447351,
				"z": -0.0133278336,
				"element": "H" 
			},
			{
				"x": -0.4195978522,
				"y": 3.9906135173,
				"z": -2.0188802199,
				"element": "H" 
			},
			{
				"x": -1.8178191806,
				"y": 1.9504173796,
				"z": -2.0655593097,
				"element": "H" 
			}
		],
		 "valence_orbital": [ 
			{
				"type": "occ",
				"energy": -0.2724,
				"method": "rhf"
			},
			{
				"type": "occ",
				"energy": -0.25594,
				"method": "rhf"
			},
			{
				"type": "occ",
				"energy": -0.25129,
				"method": "rhf"
			},
			{
				"type": "occ",
				"energy": -0.24802,
				"method": "rhf"
			},
			{
				"type": "occ",
				"energy": -0.22533,
				"method": "rhf"
			},
			{
				"type": "unocc",
				"energy": -0.05205,
				"method": "rhf"
			},
			{
				"type": "unocc",
				"energy": -0.01704,
				"method": "rhf"
			},
			{
				"type": "unocc",
				"energy": -0.01269,
				"method": "rhf"
			},
			{
				"type": "unocc",
				"energy": -0.00388,
				"method": "rhf"
			},
			{
				"type": "unocc",
				"energy": 0.00889,
				"method": "rhf"
			}
		],
		"cosmo_sigma_profile": { 
			"-0.025": 0.0,
			"-0.024": 0.0,
			"-0.023": 0.0,
			"-0.022": 0.0,
			"-0.021": 0.0,
			"-0.02": 0.0,
			"-0.019": 0.0,
			"-0.018": 0.0,
			"-0.017": 0.0,
			"-0.016": 0.0,
			"-0.015": 0.0,
			"-0.014": 0.0,
			"-0.013": 0.0,
			"-0.012": 0.89848559737,
			"-0.011": 1.42734923417,
			"-0.01": 1.93685107027,
			"-0.009": 3.54967602644,
			"-0.008": 4.2839455004,
			"-0.007": 6.84662782529,
			"-0.006": 12.5231100396,
			"-0.005": 17.5997416066,
			"-0.004": 22.9529138146,
			"-0.003": 20.7304425934,
			"-0.002": 16.2476702278,
			"-0.001": 18.6371017406,
			"0.0": 20.5024565972,
			"0.001": 28.5700837357,
			"0.002": 27.7989547921,
			"0.003": 21.4728225438,
			"0.004": 16.2895812938,
			"0.005": 15.8835354101,
			"0.006": 9.23637283187,
			"0.007": 2.08772660671,
			"0.008": 3.30505303364,
			"0.009": 1.71040098461,
			"0.01": 2.68316950942,
			"0.011": 2.57547123471,
			"0.012": 3.74429495259,
			"0.013": 1.66774579739,
			"0.014": 0.0,
			"0.015": 0.0,
			"0.016": 0.0,
			"0.017": 0.0,
			"0.018": 0.0,
			"0.019": 0.0,
			"0.02": 0.0,
			"0.021": 0.0,
			"0.022": 0.0,
			"0.023": 0.0,
			"0.024": 0.0,
			"0.025": 0.0
		}
	}
}
