{
	 "smiles": "CCCCC1CCCC(=O)O1", 
	 "Tm": 247.15, 
	 "num_atms": 27, 
	 "gaussian": { 
		 "optdone": 1, 
		 "sigma_profile": "yes", 
		 "theory": "DFT", 
		 "functional": "B3LYP", 
		 "basiset": "6-31G**", 
		 "properties": { 
			 "R2extent": 2930.6743, 
			 "electric_dipole_moment_norm": 4.69834423707, 
			 "electric_quadrupole_moment_norm": 23.0253907359, 
			 "total_energy": -503.074459252, 
			 "HOMO_LUMO_gap": 0.27089, 
			 "cosmo_polarized_energy": -10.79, 
			 "cosmo_cavitation_energy": 28.14, 
			 "cosmo_dispersion_energy": -20.56, 
			 "cosmo_repulsion_energy": 1.7, 
			 "cosmo_total_nonelectrostatic_energy": 9.28, 
			 "SMD_solvation_energy": 5.13 
		},
		"coords": [
			{
				"x": -2.3460902882,
				"y": 2.7181977448,
				"z": 2.3140548403,
				"element": "C" 
			},
			{
				"x": -1.9146876425,
				"y": 1.2678161526,
				"z": 2.0763497766,
				"element": "C" 
			},
			{
				"x": -1.5837071887,
				"y": 0.9700962065,
				"z": 0.6073727242,
				"element": "C" 
			},
			{
				"x": -1.1496811544,
				"y": -0.4837484058,
				"z": 0.3767850139,
				"element": "C" 
			},
			{
				"x": -0.9397051687,
				"y": -0.853829749,
				"z": -1.0982961577,
				"element": "C" 
			},
			{
				"x": 0.2560157885,
				"y": -0.1858026843,
				"z": -1.7818543268,
				"element": "C" 
			},
			{
				"x": 1.5739245802,
				"y": -0.7967638144,
				"z": -1.3037376955,
				"element": "C" 
			},
			{
				"x": 1.5632079133,
				"y": -2.2969486409,
				"z": -1.6096138276,
				"element": "C" 
			},
			{
				"x": 0.271381657,
				"y": -3.0216631275,
				"z": -1.2536538714,
				"element": "C" 
			},
			{
				"x": 0.2230804402,
				"y": -4.2200360292,
				"z": -1.1063973083,
				"element": "O" 
			},
			{
				"x": -0.8819475994,
				"y": -2.3060924966,
				"z": -1.1840396604,
				"element": "O" 
			},
			{
				"x": -3.2404704737,
				"y": 2.96661265,
				"z": 1.7313578666,
				"element": "H" 
			},
			{
				"x": -2.5768676138,
				"y": 2.8978012231,
				"z": 3.36896571,
				"element": "H" 
			},
			{
				"x": -1.5567361445,
				"y": 3.4205339848,
				"z": 2.0224893556,
				"element": "H" 
			},
			{
				"x": -2.7093666683,
				"y": 0.5879812621,
				"z": 2.4110228402,
				"element": "H" 
			},
			{
				"x": -1.0384058441,
				"y": 1.0388214403,
				"z": 2.697706355,
				"element": "H" 
			},
			{
				"x": -0.7969385245,
				"y": 1.660571527,
				"z": 0.27452564,
				"element": "H" 
			},
			{
				"x": -2.464822643,
				"y": 1.1908519947,
				"z": -0.0123316976,
				"element": "H" 
			},
			{
				"x": -1.9185395185,
				"y": -1.1609002745,
				"z": 0.7666518826,
				"element": "H" 
			},
			{
				"x": -0.2370605709,
				"y": -0.6976009625,
				"z": 0.9483185955,
				"element": "H" 
			},
			{
				"x": -1.854302429,
				"y": -0.6015342205,
				"z": -1.6471597745,
				"element": "H" 
			},
			{
				"x": 0.1664529909,
				"y": -0.3192940856,
				"z": -2.8674073208,
				"element": "H" 
			},
			{
				"x": 0.2209057742,
				"y": 0.8918584653,
				"z": -1.5930076717,
				"element": "H" 
			},
			{
				"x": 1.7020894187,
				"y": -0.6309609025,
				"z": -0.2276329564,
				"element": "H" 
			},
			{
				"x": 2.4268510655,
				"y": -0.3169553585,
				"z": -1.7950088559,
				"element": "H" 
			},
			{
				"x": 1.6967977535,
				"y": -2.4536224314,
				"z": -2.6889746968,
				"element": "H" 
			},
			{
				"x": 2.3767220903,
				"y": -2.836889468,
				"z": -1.1190847792,
				"element": "H" 
			}
		],
		 "valence_orbital": [ 
			{
				"type": "occ",
				"energy": -0.33437,
				"method": "rhf"
			},
			{
				"type": "occ",
				"energy": -0.33073,
				"method": "rhf"
			},
			{
				"type": "occ",
				"energy": -0.31472,
				"method": "rhf"
			},
			{
				"type": "occ",
				"energy": -0.27903,
				"method": "rhf"
			},
			{
				"type": "occ",
				"energy": -0.25378,
				"method": "rhf"
			},
			{
				"type": "unocc",
				"energy": 0.01711,
				"method": "rhf"
			},
			{
				"type": "unocc",
				"energy": 0.06927,
				"method": "rhf"
			},
			{
				"type": "unocc",
				"energy": 0.08899,
				"method": "rhf"
			},
			{
				"type": "unocc",
				"energy": 0.09502,
				"method": "rhf"
			},
			{
				"type": "unocc",
				"energy": 0.10756,
				"method": "rhf"
			}
		],
		"cosmo_sigma_profile": { 
			"-0.025": 0.0,
			"-0.024": 0.0,
			"-0.023": 0.0,
			"-0.022": 0.0,
			"-0.021": 0.0,
			"-0.02": 0.0,
			"-0.019": 0.0,
			"-0.018": 0.0,
			"-0.017": 0.0,
			"-0.016": 0.0,
			"-0.015": 0.0,
			"-0.014": 0.0,
			"-0.013": 0.0,
			"-0.012": 0.0,
			"-0.011": 0.0,
			"-0.01": 0.0,
			"-0.009": 0.0,
			"-0.008": 0.0,
			"-0.007": 0.405153012411,
			"-0.006": 4.58644053228,
			"-0.005": 11.0932662201,
			"-0.004": 20.8455029501,
			"-0.003": 27.2649734217,
			"-0.002": 37.2929561119,
			"-0.001": 31.7440212447,
			"0.0": 24.3262283093,
			"0.001": 18.15393506,
			"0.002": 7.81257239808,
			"0.003": 2.4907008295,
			"0.004": 1.84192641292,
			"0.005": 1.58294461853,
			"0.006": 2.17944014408,
			"0.007": 2.35674948373,
			"0.008": 1.66779669833,
			"0.009": 2.04226184863,
			"0.01": 2.8928663917,
			"0.011": 3.50997657999,
			"0.012": 5.39224310886,
			"0.013": 5.71096169651,
			"0.014": 2.20868065776,
			"0.015": 0.119125104986,
			"0.016": 0.0,
			"0.017": 0.0,
			"0.018": 0.0,
			"0.019": 0.0,
			"0.02": 0.0,
			"0.021": 0.0,
			"0.022": 0.0,
			"0.023": 0.0,
			"0.024": 0.0,
			"0.025": 0.0
		}
	}
}
