{
	 "smiles": "CCN1C(=O)N(C)C(C)(C)C1=N", 
	 "Tm": 362.15, 
	 "num_atms": 27, 
	 "gaussian": { 
		 "optdone": 1, 
		 "sigma_profile": "yes", 
		 "theory": "DFT", 
		 "functional": "B3LYP", 
		 "basiset": "6-31G**", 
		 "properties": { 
			 "R2extent": 2397.4845, 
			 "electric_dipole_moment_norm": 0.997868297923, 
			 "electric_quadrupole_moment_norm": 17.2397408536, 
			 "total_energy": -553.411301453, 
			 "HOMO_LUMO_gap": 0.24322, 
			 "cosmo_polarized_energy": -12.18, 
			 "cosmo_cavitation_energy": 28.88, 
			 "cosmo_dispersion_energy": -19.77, 
			 "cosmo_repulsion_energy": 1.57, 
			 "cosmo_total_nonelectrostatic_energy": 10.67, 
			 "SMD_solvation_energy": 5.17 
		},
		"coords": [
			{
				"x": 1.5530163455,
				"y": 2.8907953843,
				"z": -1.8414342247,
				"element": "C" 
			},
			{
				"x": 2.0850919124,
				"y": 1.4555878021,
				"z": -1.788942024,
				"element": "C" 
			},
			{
				"x": 1.503005277,
				"y": 0.6686106214,
				"z": -0.7120700367,
				"element": "N" 
			},
			{
				"x": 2.1580741215,
				"y": 0.5024523671,
				"z": 0.525657661,
				"element": "C" 
			},
			{
				"x": 3.2546408818,
				"y": 0.9632889354,
				"z": 0.8019926503,
				"element": "O" 
			},
			{
				"x": 1.3359994445,
				"y": -0.2560380265,
				"z": 1.3130912898,
				"element": "N" 
			},
			{
				"x": 1.6999047122,
				"y": -0.6332672055,
				"z": 2.6613065794,
				"element": "C" 
			},
			{
				"x": 0.0891278875,
				"y": -0.6389636904,
				"z": 0.6344201867,
				"element": "C" 
			},
			{
				"x": -0.0266377686,
				"y": -2.1626734515,
				"z": 0.459125952,
				"element": "C" 
			},
			{
				"x": -1.1506928404,
				"y": -0.069027716,
				"z": 1.3438176706,
				"element": "C" 
			},
			{
				"x": 0.271273338,
				"y": 0.0354150647,
				"z": -0.7338218424,
				"element": "C" 
			},
			{
				"x": -0.6106175559,
				"y": -0.0451733561,
				"z": -1.6522361143,
				"element": "N" 
			},
			{
				"x": 0.4670818374,
				"y": 2.9102359507,
				"z": -1.9753798166,
				"element": "H" 
			},
			{
				"x": 1.7952078276,
				"y": 3.4193625913,
				"z": -0.9152727664,
				"element": "H" 
			},
			{
				"x": 2.0097991179,
				"y": 3.4333527497,
				"z": -2.6753627391,
				"element": "H" 
			},
			{
				"x": 3.1637989113,
				"y": 1.4553056524,
				"z": -1.6167717441,
				"element": "H" 
			},
			{
				"x": 1.8953893562,
				"y": 0.9323601062,
				"z": -2.7337718649,
				"element": "H" 
			},
			{
				"x": 2.6762472234,
				"y": -0.1929291706,
				"z": 2.8692817512,
				"element": "H" 
			},
			{
				"x": 1.7720459167,
				"y": -1.7217822546,
				"z": 2.7707610159,
				"element": "H" 
			},
			{
				"x": 0.9771871948,
				"y": -0.2556419564,
				"z": 3.3939751397,
				"element": "H" 
			},
			{
				"x": 0.873129157,
				"y": -2.5686961661,
				"z": -0.0123223113,
				"element": "H" 
			},
			{
				"x": -0.1689071007,
				"y": -2.6583427807,
				"z": 1.4247492038,
				"element": "H" 
			},
			{
				"x": -0.8836049911,
				"y": -2.3866643112,
				"z": -0.1802385766,
				"element": "H" 
			},
			{
				"x": -2.032933034,
				"y": -0.2481458687,
				"z": 0.7250737082,
				"element": "H" 
			},
			{
				"x": -1.0485467563,
				"y": 1.0091739427,
				"z": 1.4979999321,
				"element": "H" 
			},
			{
				"x": -1.3002305641,
				"y": -0.5480862745,
				"z": 2.3166918105,
				"element": "H" 
			},
			{
				"x": -0.3330498515,
				"y": 0.4592910608,
				"z": -2.49612049,
				"element": "H" 
			}
		],
		 "valence_orbital": [ 
			{
				"type": "occ",
				"energy": -0.33272,
				"method": "rhf"
			},
			{
				"type": "occ",
				"energy": -0.28333,
				"method": "rhf"
			},
			{
				"type": "occ",
				"energy": -0.25655,
				"method": "rhf"
			},
			{
				"type": "occ",
				"energy": -0.25237,
				"method": "rhf"
			},
			{
				"type": "occ",
				"energy": -0.23101,
				"method": "rhf"
			},
			{
				"type": "unocc",
				"energy": 0.01221,
				"method": "rhf"
			},
			{
				"type": "unocc",
				"energy": 0.06581,
				"method": "rhf"
			},
			{
				"type": "unocc",
				"energy": 0.07605,
				"method": "rhf"
			},
			{
				"type": "unocc",
				"energy": 0.0913,
				"method": "rhf"
			},
			{
				"type": "unocc",
				"energy": 0.12793,
				"method": "rhf"
			}
		],
		"cosmo_sigma_profile": { 
			"-0.025": 0.0,
			"-0.024": 0.0,
			"-0.023": 0.0,
			"-0.022": 0.0,
			"-0.021": 0.0,
			"-0.02": 0.0,
			"-0.019": 0.0,
			"-0.018": 0.0,
			"-0.017": 0.0,
			"-0.016": 0.0,
			"-0.015": 0.0,
			"-0.014": 0.0,
			"-0.013": 0.0,
			"-0.012": 0.0,
			"-0.011": 0.0185170102943,
			"-0.01": 0.881188052109,
			"-0.009": 1.65448538105,
			"-0.008": 1.62349570395,
			"-0.007": 1.93765978851,
			"-0.006": 2.73141956822,
			"-0.005": 10.1985374809,
			"-0.004": 29.0403390666,
			"-0.003": 29.1904002215,
			"-0.002": 33.1053216964,
			"-0.001": 28.9844830584,
			"0.0": 26.6223766292,
			"0.001": 10.6827249828,
			"0.002": 4.37683063599,
			"0.003": 3.80434903318,
			"0.004": 4.0763612407,
			"0.005": 3.20167504091,
			"0.006": 3.1021921419,
			"0.007": 3.15990952957,
			"0.008": 3.33044963953,
			"0.009": 3.09464082984,
			"0.01": 2.45513905624,
			"0.011": 2.67803670215,
			"0.012": 2.84159199857,
			"0.013": 6.17838257761,
			"0.014": 3.56796974182,
			"0.015": 1.02999554297,
			"0.016": 0.766653001836,
			"0.017": 0.566556706555,
			"0.018": 0.192162197644,
			"0.019": 0.0,
			"0.02": 0.0,
			"0.021": 0.0,
			"0.022": 0.0,
			"0.023": 0.0,
			"0.024": 0.0,
			"0.025": 0.0
		}
	}
}
