{
	 "smiles": "O=CC1=CSN=N1", 
	 "Tm": 359.15, 
	 "num_atms": 9, 
	 "gaussian": { 
		 "optdone": 1, 
		 "sigma_profile": "yes", 
		 "theory": "DFT", 
		 "functional": "B3LYP", 
		 "basiset": "6-31G**", 
		 "properties": { 
			 "R2extent": 1571.5826, 
			 "electric_dipole_moment_norm": 4.83755382192, 
			 "electric_quadrupole_moment_norm": 11.5954337379, 
			 "total_energy": -698.368183455, 
			 "HOMO_LUMO_gap": 0.18115, 
			 "cosmo_polarized_energy": -13.28, 
			 "cosmo_cavitation_energy": 16.18, 
			 "cosmo_dispersion_energy": -12.52, 
			 "cosmo_repulsion_energy": 1.0, 
			 "cosmo_total_nonelectrostatic_energy": 4.66, 
			 "SMD_solvation_energy": 2.39 
		},
		"coords": [
			{
				"x": 1.6092086987,
				"y": 3.4223698767,
				"z": -0.8866544144,
				"element": "O" 
			},
			{
				"x": 0.8973899439,
				"y": 2.4617954033,
				"z": -0.6913700212,
				"element": "C" 
			},
			{
				"x": 1.0775791892,
				"y": 1.4906320833,
				"z": 0.4082300856,
				"element": "C" 
			},
			{
				"x": 0.2722155579,
				"y": 0.3946978122,
				"z": 0.6377249775,
				"element": "C" 
			},
			{
				"x": 0.8178133431,
				"y": -0.4607062255,
				"z": 1.9942367352,
				"element": "S" 
			},
			{
				"x": 2.1575082331,
				"y": 0.7242659289,
				"z": 2.2162633281,
				"element": "N" 
			},
			{
				"x": 2.1031547226,
				"y": 1.6080979961,
				"z": 1.3254383227,
				"element": "N" 
			},
			{
				"x": 0.0287731216,
				"y": 2.2337443054,
				"z": -1.3466455736,
				"element": "H" 
			},
			{
				"x": -0.5895428101,
				"y": 0.0977028197,
				"z": 0.0546765602,
				"element": "H" 
			}
		],
		 "valence_orbital": [ 
			{
				"type": "occ",
				"energy": -0.37969,
				"method": "rhf"
			},
			{
				"type": "occ",
				"energy": -0.3383,
				"method": "rhf"
			},
			{
				"type": "occ",
				"energy": -0.29267,
				"method": "rhf"
			},
			{
				"type": "occ",
				"energy": -0.28743,
				"method": "rhf"
			},
			{
				"type": "occ",
				"energy": -0.26935,
				"method": "rhf"
			},
			{
				"type": "unocc",
				"energy": -0.0882,
				"method": "rhf"
			},
			{
				"type": "unocc",
				"energy": -0.06153,
				"method": "rhf"
			},
			{
				"type": "unocc",
				"energy": -0.03872,
				"method": "rhf"
			},
			{
				"type": "unocc",
				"energy": 0.05339,
				"method": "rhf"
			},
			{
				"type": "unocc",
				"energy": 0.06587,
				"method": "rhf"
			}
		],
		"cosmo_sigma_profile": { 
			"-0.025": 0.0,
			"-0.024": 0.0,
			"-0.023": 0.0,
			"-0.022": 0.0,
			"-0.021": 0.0,
			"-0.02": 0.0,
			"-0.019": 0.0,
			"-0.018": 0.0,
			"-0.017": 0.0,
			"-0.016": 0.0,
			"-0.015": 0.0,
			"-0.014": 0.0,
			"-0.013": 0.731679993212,
			"-0.012": 3.42000955007,
			"-0.011": 2.8368059225,
			"-0.01": 2.47288420441,
			"-0.009": 3.17569696679,
			"-0.008": 4.3019992266,
			"-0.007": 4.11126043849,
			"-0.006": 4.54744552261,
			"-0.005": 6.329544974,
			"-0.004": 9.78791592937,
			"-0.003": 11.5584466091,
			"-0.002": 12.9772420021,
			"-0.001": 9.91998380693,
			"0.0": 7.24281247458,
			"0.001": 3.10592973963,
			"0.002": 3.04487335486,
			"0.003": 2.59266495152,
			"0.004": 3.33222821692,
			"0.005": 3.51770961143,
			"0.006": 3.79259654253,
			"0.007": 3.92316197084,
			"0.008": 6.04046205866,
			"0.009": 4.963883038,
			"0.01": 6.06551918153,
			"0.011": 7.0419698723,
			"0.012": 2.92275012526,
			"0.013": 0.0946668158076,
			"0.014": 0.0,
			"0.015": 0.0,
			"0.016": 0.0,
			"0.017": 0.0,
			"0.018": 0.0,
			"0.019": 0.0,
			"0.02": 0.0,
			"0.021": 0.0,
			"0.022": 0.0,
			"0.023": 0.0,
			"0.024": 0.0,
			"0.025": 0.0
		}
	}
}
