{
	 "smiles": "CN1C(=O)C(C2=NNC(=O)C2=N/NC2=CC=CC=C2Cl)=C(O)C2=CC=CC=C12", 
	 "Tm": 537.15, 
	 "num_atms": 42, 
	 "gaussian": { 
		 "optdone": 1, 
		 "sigma_profile": "yes", 
		 "theory": "DFT", 
		 "functional": "B3LYP", 
		 "basiset": "6-31G**", 
		 "properties": { 
			 "R2extent": 14423.2102, 
			 "electric_dipole_moment_norm": 6.91160963597, 
			 "electric_quadrupole_moment_norm": 15.0650780413, 
			 "total_energy": -1692.05107154, 
			 "HOMO_LUMO_gap": 0.12596, 
			 "cosmo_polarized_energy": -26.71, 
			 "cosmo_cavitation_energy": 48.96, 
			 "cosmo_dispersion_energy": -34.62, 
			 "cosmo_repulsion_energy": 2.57, 
			 "cosmo_total_nonelectrostatic_energy": 16.9, 
			 "SMD_solvation_energy": 7.55 
		},
		"coords": [
			{
				"x": -3.4756463587,
				"y": -0.2185973588,
				"z": 0.1376018865,
				"element": "C" 
			},
			{
				"x": -2.2422636422,
				"y": -0.8708813027,
				"z": 0.5757016651,
				"element": "N" 
			},
			{
				"x": -1.3279987435,
				"y": -1.2443153568,
				"z": -0.4369089997,
				"element": "C" 
			},
			{
				"x": -1.5861321652,
				"y": -1.0292784906,
				"z": -1.6186224533,
				"element": "O" 
			},
			{
				"x": -0.0835028887,
				"y": -1.8701352182,
				"z": 0.0060283511,
				"element": "C" 
			},
			{
				"x": 0.901032663,
				"y": -2.2058194174,
				"z": -1.0377258126,
				"element": "C" 
			},
			{
				"x": 1.3418635066,
				"y": -3.426197608,
				"z": -1.2045569657,
				"element": "N" 
			},
			{
				"x": 2.2628999143,
				"y": -3.387776094,
				"z": -2.2402791349,
				"element": "N" 
			},
			{
				"x": 2.4438874095,
				"y": -2.1434478774,
				"z": -2.7864301242,
				"element": "C" 
			},
			{
				"x": 3.1925940397,
				"y": -1.8071034328,
				"z": -3.711784594,
				"element": "O" 
			},
			{
				"x": 1.533487554,
				"y": -1.3005767069,
				"z": -1.9833074233,
				"element": "C" 
			},
			{
				"x": 1.3645158441,
				"y": -0.0085100248,
				"z": -2.0856889766,
				"element": "N" 
			},
			{
				"x": 2.0598530828,
				"y": 0.622409267,
				"z": -3.011327737,
				"element": "N" 
			},
			{
				"x": 1.9034083899,
				"y": 1.9981850336,
				"z": -3.1968863848,
				"element": "C" 
			},
			{
				"x": 0.9386032942,
				"y": 2.7262698632,
				"z": -2.4815381642,
				"element": "C" 
			},
			{
				"x": 0.8020406159,
				"y": 4.0947796447,
				"z": -2.6802697691,
				"element": "C" 
			},
			{
				"x": 1.6165855432,
				"y": 4.7658286265,
				"z": -3.5968719739,
				"element": "C" 
			},
			{
				"x": 2.5734590269,
				"y": 4.0541264628,
				"z": -4.3181093844,
				"element": "C" 
			},
			{
				"x": 2.7152328742,
				"y": 2.6828817795,
				"z": -4.1187093576,
				"element": "C" 
			},
			{
				"x": 3.931400423,
				"y": 1.8062203994,
				"z": -5.0370065303,
				"element": "Cl" 
			},
			{
				"x": 0.1511834348,
				"y": -2.1135846455,
				"z": 1.3316885974,
				"element": "C" 
			},
			{
				"x": 1.3321634566,
				"y": -2.6644123773,
				"z": 1.6989277458,
				"element": "O" 
			},
			{
				"x": -0.8414807813,
				"y": -1.7857901878,
				"z": 2.3367380758,
				"element": "C" 
			},
			{
				"x": -0.6711224515,
				"y": -2.0926877784,
				"z": 3.6997734992,
				"element": "C" 
			},
			{
				"x": -1.6207810625,
				"y": -1.7432245531,
				"z": 4.6468826975,
				"element": "C" 
			},
			{
				"x": -2.7801987737,
				"y": -1.0763314225,
				"z": 4.2330138397,
				"element": "C" 
			},
			{
				"x": -2.9899815045,
				"y": -0.7804050501,
				"z": 2.8933603095,
				"element": "C" 
			},
			{
				"x": -2.034209355,
				"y": -1.1360004771,
				"z": 1.918872271,
				"element": "C" 
			},
			{
				"x": -3.5666474913,
				"y": 0.7763821001,
				"z": 0.5846538428,
				"element": "H" 
			},
			{
				"x": -4.3503889441,
				"y": -0.8172027269,
				"z": 0.4109248584,
				"element": "H" 
			},
			{
				"x": -3.4191909179,
				"y": -0.1309458778,
				"z": -0.9451164752,
				"element": "H" 
			},
			{
				"x": 2.7023519869,
				"y": -4.2444618568,
				"z": -2.5382914872,
				"element": "H" 
			},
			{
				"x": 2.7019308369,
				"y": 0.0780707764,
				"z": -3.6015505365,
				"element": "H" 
			},
			{
				"x": 0.3070068097,
				"y": 2.1880768169,
				"z": -1.7854463939,
				"element": "H" 
			},
			{
				"x": 0.0494484528,
				"y": 4.6404368309,
				"z": -2.1193354256,
				"element": "H" 
			},
			{
				"x": 1.5084249481,
				"y": 5.8341307092,
				"z": -3.7541640028,
				"element": "H" 
			},
			{
				"x": 3.2161615066,
				"y": 4.5507720418,
				"z": -5.0365775039,
				"element": "H" 
			},
			{
				"x": 1.4632696351,
				"y": -2.5531879587,
				"z": 2.6489447063,
				"element": "H" 
			},
			{
				"x": 0.2066551383,
				"y": -2.6436579642,
				"z": 4.0290164029,
				"element": "H" 
			},
			{
				"x": -1.4697162849,
				"y": -1.9923942366,
				"z": 5.6918264944,
				"element": "H" 
			},
			{
				"x": -3.5335046277,
				"y": -0.7930991282,
				"z": 4.9620641657,
				"element": "H" 
			},
			{
				"x": -3.9009943943,
				"y": -0.2759452226,
				"z": 2.5994862013,
				"element": "H" 
			}
		],
		 "valence_orbital": [ 
			{
				"type": "occ",
				"energy": -0.25199,
				"method": "rhf"
			},
			{
				"type": "occ",
				"energy": -0.2433,
				"method": "rhf"
			},
			{
				"type": "occ",
				"energy": -0.23468,
				"method": "rhf"
			},
			{
				"type": "occ",
				"energy": -0.21909,
				"method": "rhf"
			},
			{
				"type": "occ",
				"energy": -0.20665,
				"method": "rhf"
			},
			{
				"type": "unocc",
				"energy": -0.08069,
				"method": "rhf"
			},
			{
				"type": "unocc",
				"energy": -0.0571,
				"method": "rhf"
			},
			{
				"type": "unocc",
				"energy": -0.01714,
				"method": "rhf"
			},
			{
				"type": "unocc",
				"energy": -0.01309,
				"method": "rhf"
			},
			{
				"type": "unocc",
				"energy": 0.00805,
				"method": "rhf"
			}
		],
		"cosmo_sigma_profile": { 
			"-0.025": 0.0,
			"-0.024": 0.0,
			"-0.023": 0.0,
			"-0.022": 0.0,
			"-0.021": 0.0,
			"-0.02": 0.0,
			"-0.019": 0.432275679273,
			"-0.018": 0.826007564561,
			"-0.017": 1.5718156738,
			"-0.016": 2.30057528989,
			"-0.015": 1.77714467828,
			"-0.014": 1.87696853699,
			"-0.013": 1.94714577828,
			"-0.012": 1.75267440353,
			"-0.011": 2.22941004863,
			"-0.01": 1.85487346317,
			"-0.009": 1.35521813573,
			"-0.008": 2.88373914551,
			"-0.007": 10.5725160963,
			"-0.006": 23.9557987753,
			"-0.005": 24.2736699347,
			"-0.004": 24.0306956009,
			"-0.003": 22.0491210864,
			"-0.002": 28.0300660314,
			"-0.001": 30.7691543621,
			"0.0": 29.7124389531,
			"0.001": 32.4127702393,
			"0.002": 32.314591228,
			"0.003": 34.0577373683,
			"0.004": 24.0505207984,
			"0.005": 7.53135012975,
			"0.006": 5.95164944898,
			"0.007": 5.68648453027,
			"0.008": 5.2479706617,
			"0.009": 6.11784287307,
			"0.01": 4.7895357424,
			"0.011": 6.84343770149,
			"0.012": 6.31691984475,
			"0.013": 7.1559355374,
			"0.014": 3.75267875362,
			"0.015": 0.161440044557,
			"0.016": 0.0,
			"0.017": 0.0,
			"0.018": 0.0,
			"0.019": 0.0,
			"0.02": 0.0,
			"0.021": 0.0,
			"0.022": 0.0,
			"0.023": 0.0,
			"0.024": 0.0,
			"0.025": 0.0
		}
	}
}
