{
	 "smiles": "ClCC1=NN=C(O1)C1=C(Cl)C=CC=C1", 
	 "Tm": 365.15, 
	 "num_atms": 20, 
	 "gaussian": { 
		 "optdone": 1, 
		 "sigma_profile": "yes", 
		 "theory": "DFT", 
		 "functional": "B3LYP", 
		 "basiset": "6-31G**", 
		 "properties": { 
			 "R2extent": 6012.3422, 
			 "electric_dipole_moment_norm": 4.33773739754, 
			 "electric_quadrupole_moment_norm": 14.2867676575, 
			 "total_energy": -1451.65168261, 
			 "HOMO_LUMO_gap": 0.18314, 
			 "cosmo_polarized_energy": -13.04, 
			 "cosmo_cavitation_energy": 28.91, 
			 "cosmo_dispersion_energy": -21.5, 
			 "cosmo_repulsion_energy": 1.7, 
			 "cosmo_total_nonelectrostatic_energy": 9.11, 
			 "SMD_solvation_energy": 2.9 
		},
		"coords": [
			{
				"x": -0.2339532,
				"y": 4.4666374981,
				"z": -2.4105046715,
				"element": "Cl" 
			},
			{
				"x": -1.8472525788,
				"y": 4.3700125581,
				"z": -1.5710225093,
				"element": "C" 
			},
			{
				"x": -1.8209814354,
				"y": 3.4522319081,
				"z": -0.411410659,
				"element": "C" 
			},
			{
				"x": -1.9321372045,
				"y": 3.760034346,
				"z": 0.8428468163,
				"element": "N" 
			},
			{
				"x": -1.8694932275,
				"y": 2.5647415653,
				"z": 1.5482565257,
				"element": "N" 
			},
			{
				"x": -1.7205764763,
				"y": 1.6151911791,
				"z": 0.6677857495,
				"element": "C" 
			},
			{
				"x": -1.6867126959,
				"y": 2.1157825854,
				"z": -0.6105799222,
				"element": "O" 
			},
			{
				"x": -1.5702889059,
				"y": 0.1684071986,
				"z": 0.8194950685,
				"element": "C" 
			},
			{
				"x": -1.7732694273,
				"y": -0.5269041755,
				"z": 2.0307008048,
				"element": "C" 
			},
			{
				"x": -2.2570879149,
				"y": 0.2741310682,
				"z": 3.5048488584,
				"element": "Cl" 
			},
			{
				"x": -1.6032114809,
				"y": -1.9118207397,
				"z": 2.0888402704,
				"element": "C" 
			},
			{
				"x": -1.2312843728,
				"y": -2.6268091215,
				"z": 0.9535058375,
				"element": "C" 
			},
			{
				"x": -1.0280055641,
				"y": -1.9576440427,
				"z": -0.254471267,
				"element": "C" 
			},
			{
				"x": -1.1965843299,
				"y": -0.5804940186,
				"z": -0.3151613465,
				"element": "C" 
			},
			{
				"x": -2.0950626358,
				"y": 5.3695686717,
				"z": -1.2186258009,
				"element": "H" 
			},
			{
				"x": -2.5640935706,
				"y": 4.0438176498,
				"z": -2.3254107581,
				"element": "H" 
			},
			{
				"x": -1.7680617383,
				"y": -2.4180805806,
				"z": 3.0331920355,
				"element": "H" 
			},
			{
				"x": -1.1021199115,
				"y": -3.7029197798,
				"z": 1.0164188788,
				"element": "H" 
			},
			{
				"x": -0.7366895218,
				"y": -2.5046224803,
				"z": -1.1452680758,
				"element": "H" 
			},
			{
				"x": -1.0343338079,
				"y": -0.0568612896,
				"z": -1.2499358351,
				"element": "H" 
			}
		],
		 "valence_orbital": [ 
			{
				"type": "occ",
				"energy": -0.31284,
				"method": "rhf"
			},
			{
				"type": "occ",
				"energy": -0.31026,
				"method": "rhf"
			},
			{
				"type": "occ",
				"energy": -0.2803,
				"method": "rhf"
			},
			{
				"type": "occ",
				"energy": -0.26541,
				"method": "rhf"
			},
			{
				"type": "occ",
				"energy": -0.25231,
				"method": "rhf"
			},
			{
				"type": "unocc",
				"energy": -0.06917,
				"method": "rhf"
			},
			{
				"type": "unocc",
				"energy": -0.02978,
				"method": "rhf"
			},
			{
				"type": "unocc",
				"energy": -0.02592,
				"method": "rhf"
			},
			{
				"type": "unocc",
				"energy": 0.02531,
				"method": "rhf"
			},
			{
				"type": "unocc",
				"energy": 0.03386,
				"method": "rhf"
			}
		],
		"cosmo_sigma_profile": { 
			"-0.025": 0.0,
			"-0.024": 0.0,
			"-0.023": 0.0,
			"-0.022": 0.0,
			"-0.021": 0.0,
			"-0.02": 0.0,
			"-0.019": 0.0,
			"-0.018": 0.0,
			"-0.017": 0.0,
			"-0.016": 0.0,
			"-0.015": 0.0,
			"-0.014": 0.0,
			"-0.013": 0.0,
			"-0.012": 0.0,
			"-0.011": 0.0572317881288,
			"-0.01": 3.72173956608,
			"-0.009": 4.07118297099,
			"-0.008": 6.46691086064,
			"-0.007": 11.2955895597,
			"-0.006": 14.460616399,
			"-0.005": 12.6596863661,
			"-0.004": 10.3784913298,
			"-0.003": 12.4147453059,
			"-0.002": 14.7201150339,
			"-0.001": 16.0359693792,
			"0.0": 19.5905947743,
			"0.001": 20.1021846478,
			"0.002": 22.3513006638,
			"0.003": 17.6835201223,
			"0.004": 12.902767159,
			"0.005": 14.0381600584,
			"0.006": 4.07842312226,
			"0.007": 2.1707158823,
			"0.008": 2.4207002942,
			"0.009": 2.95846144043,
			"0.01": 3.2023393343,
			"0.011": 3.02421462138,
			"0.012": 3.31353881193,
			"0.013": 2.19824333927,
			"0.014": 1.38374449566,
			"0.015": 0.0662798383963,
			"0.016": 0.0,
			"0.017": 0.0,
			"0.018": 0.0,
			"0.019": 0.0,
			"0.02": 0.0,
			"0.021": 0.0,
			"0.022": 0.0,
			"0.023": 0.0,
			"0.024": 0.0,
			"0.025": 0.0
		}
	}
}
