{
	 "smiles": "CN1C(=O)NC(=O)C2=C1N=CC(=C2)S(N)(=O)=O", 
	 "Tm": 585.15, 
	 "num_atms": 25, 
	 "gaussian": { 
		 "optdone": 1, 
		 "sigma_profile": "yes", 
		 "theory": "DFT", 
		 "functional": "B3LYP", 
		 "basiset": "6-31G**", 
		 "properties": { 
			 "R2extent": 6160.829, 
			 "electric_dipole_moment_norm": 4.70240606179, 
			 "electric_quadrupole_moment_norm": 27.7928971687, 
			 "total_energy": -1227.74050034, 
			 "HOMO_LUMO_gap": 0.17728, 
			 "cosmo_polarized_energy": -26.66, 
			 "cosmo_cavitation_energy": 31.59, 
			 "cosmo_dispersion_energy": -23.81, 
			 "cosmo_repulsion_energy": 1.78, 
			 "cosmo_total_nonelectrostatic_energy": 9.55, 
			 "SMD_solvation_energy": 5.66 
		},
		"coords": [
			{
				"x": -0.8015077837,
				"y": -1.8511859634,
				"z": -4.0347750284,
				"element": "C" 
			},
			{
				"x": -0.8626689593,
				"y": -1.0517323015,
				"z": -2.8038253191,
				"element": "N" 
			},
			{
				"x": -1.6752392935,
				"y": 0.0874356444,
				"z": -2.7998023991,
				"element": "C" 
			},
			{
				"x": -2.3237764357,
				"y": 0.452464312,
				"z": -3.7625543941,
				"element": "O" 
			},
			{
				"x": -1.6962054126,
				"y": 0.7960832202,
				"z": -1.5999840669,
				"element": "N" 
			},
			{
				"x": -1.0190510033,
				"y": 0.5225514028,
				"z": -0.4155306775,
				"element": "C" 
			},
			{
				"x": -1.1205631523,
				"y": 1.2377276945,
				"z": 0.5664523266,
				"element": "O" 
			},
			{
				"x": -0.1886363826,
				"y": -0.6919243076,
				"z": -0.4981173032,
				"element": "C" 
			},
			{
				"x": -0.1354486852,
				"y": -1.4456373125,
				"z": -1.692997238,
				"element": "C" 
			},
			{
				"x": 0.5976412225,
				"y": -2.56263608,
				"z": -1.8168562814,
				"element": "N" 
			},
			{
				"x": 1.3072916886,
				"y": -2.9612981742,
				"z": -0.7614889831,
				"element": "C" 
			},
			{
				"x": 1.3295596399,
				"y": -2.2725854129,
				"z": 0.4585934133,
				"element": "C" 
			},
			{
				"x": 0.5550655019,
				"y": -1.1238263774,
				"z": 0.5950129885,
				"element": "C" 
			},
			{
				"x": 2.3195881575,
				"y": -2.8844893644,
				"z": 1.8265176864,
				"element": "S" 
			},
			{
				"x": 3.7888528523,
				"y": -2.0841112693,
				"z": 1.7745226762,
				"element": "N" 
			},
			{
				"x": 2.6176553414,
				"y": -4.2835749945,
				"z": 1.5307615269,
				"element": "O" 
			},
			{
				"x": 1.6685046194,
				"y": -2.4372696377,
				"z": 3.0541197785,
				"element": "O" 
			},
			{
				"x": -1.1448667243,
				"y": -2.8679711862,
				"z": -3.8362304704,
				"element": "H" 
			},
			{
				"x": -1.4445664377,
				"y": -1.3657948987,
				"z": -4.7647008281,
				"element": "H" 
			},
			{
				"x": 0.2262105975,
				"y": -1.8967227074,
				"z": -4.3995546177,
				"element": "H" 
			},
			{
				"x": -2.2867732677,
				"y": 1.6194678566,
				"z": -1.6084854707,
				"element": "H" 
			},
			{
				"x": 1.8755916504,
				"y": -3.8811149443,
				"z": -0.8735453706,
				"element": "H" 
			},
			{
				"x": 0.5006941388,
				"y": -0.569358842,
				"z": 1.5265617973,
				"element": "H" 
			},
			{
				"x": 3.7272382882,
				"y": -1.0935105645,
				"z": 1.9833704165,
				"element": "H" 
			},
			{
				"x": 4.3533098397,
				"y": -2.3065857924,
				"z": 0.961835838,
				"element": "H" 
			}
		],
		 "valence_orbital": [ 
			{
				"type": "occ",
				"energy": -0.31386,
				"method": "rhf"
			},
			{
				"type": "occ",
				"energy": -0.30481,
				"method": "rhf"
			},
			{
				"type": "occ",
				"energy": -0.30299,
				"method": "rhf"
			},
			{
				"type": "occ",
				"energy": -0.28158,
				"method": "rhf"
			},
			{
				"type": "occ",
				"energy": -0.26306,
				"method": "rhf"
			},
			{
				"type": "unocc",
				"energy": -0.08578,
				"method": "rhf"
			},
			{
				"type": "unocc",
				"energy": -0.06501,
				"method": "rhf"
			},
			{
				"type": "unocc",
				"energy": -0.00441,
				"method": "rhf"
			},
			{
				"type": "unocc",
				"energy": 0.02952,
				"method": "rhf"
			},
			{
				"type": "unocc",
				"energy": 0.03994,
				"method": "rhf"
			}
		],
		"cosmo_sigma_profile": { 
			"-0.025": 0.0,
			"-0.024": 0.0,
			"-0.023": 0.0,
			"-0.022": 0.0,
			"-0.021": 0.0,
			"-0.02": 0.0,
			"-0.019": 0.0,
			"-0.018": 0.0,
			"-0.017": 0.221588368619,
			"-0.016": 2.28380892406,
			"-0.015": 3.5496920356,
			"-0.014": 3.4582967292,
			"-0.013": 3.75946934429,
			"-0.012": 4.60550873682,
			"-0.011": 3.68169391844,
			"-0.01": 2.52034179214,
			"-0.009": 2.40080003018,
			"-0.008": 6.82843945834,
			"-0.007": 6.61151714438,
			"-0.006": 10.6018469271,
			"-0.005": 13.361061773,
			"-0.004": 21.0673938673,
			"-0.003": 24.6840372946,
			"-0.002": 21.2391463324,
			"-0.001": 9.01246259103,
			"0.0": 7.68255599256,
			"0.001": 7.28995581388,
			"0.002": 7.3123964243,
			"0.003": 6.29564682464,
			"0.004": 6.44598452956,
			"0.005": 6.83044399723,
			"0.006": 6.82783523502,
			"0.007": 7.99395065474,
			"0.008": 7.51492702129,
			"0.009": 8.76524496928,
			"0.01": 13.5562935177,
			"0.011": 17.975566955,
			"0.012": 8.256671264,
			"0.013": 0.28098089945,
			"0.014": 0.0,
			"0.015": 0.0,
			"0.016": 0.0,
			"0.017": 0.0,
			"0.018": 0.0,
			"0.019": 0.0,
			"0.02": 0.0,
			"0.021": 0.0,
			"0.022": 0.0,
			"0.023": 0.0,
			"0.024": 0.0,
			"0.025": 0.0
		}
	}
}
