{
	 "smiles": "OC(=O)C1=C(F)C=C(C=C1)C1=CC(=CC=C1)C(F)(F)F", 
	 "Tm": 482.15, 
	 "num_atms": 28, 
	 "gaussian": { 
		 "optdone": 1, 
		 "sigma_profile": "yes", 
		 "theory": "DFT", 
		 "functional": "B3LYP", 
		 "basiset": "6-31G**", 
		 "properties": { 
			 "R2extent": 9431.9195, 
			 "electric_dipole_moment_norm": 5.1801546946, 
			 "electric_quadrupole_moment_norm": 24.5110714729, 
			 "total_energy": -1088.14230391, 
			 "HOMO_LUMO_gap": 0.18197, 
			 "cosmo_polarized_energy": -13.32, 
			 "cosmo_cavitation_energy": 35.16, 
			 "cosmo_dispersion_energy": -24.98, 
			 "cosmo_repulsion_energy": 1.8, 
			 "cosmo_total_nonelectrostatic_energy": 11.97, 
			 "SMD_solvation_energy": 8.46 
		},
		"coords": [
			{
				"x": 2.1743778742,
				"y": -4.4023246987,
				"z": -3.6808512997,
				"element": "O" 
			},
			{
				"x": 0.8591174944,
				"y": -4.3300112441,
				"z": -3.3929026747,
				"element": "C" 
			},
			{
				"x": 0.1040108947,
				"y": -5.20978622,
				"z": -3.7384463114,
				"element": "O" 
			},
			{
				"x": 0.3703993414,
				"y": -3.1252326681,
				"z": -2.6327945719,
				"element": "C" 
			},
			{
				"x": 1.1505661739,
				"y": -2.0524490347,
				"z": -2.194744562,
				"element": "C" 
			},
			{
				"x": 2.4964323632,
				"y": -2.048507639,
				"z": -2.4414143227,
				"element": "F" 
			},
			{
				"x": 0.6400378682,
				"y": -0.9703043844,
				"z": -1.4981699107,
				"element": "C" 
			},
			{
				"x": -0.7314035553,
				"y": -0.9211610745,
				"z": -1.2052502298,
				"element": "C" 
			},
			{
				"x": -1.5419348213,
				"y": -1.9882323897,
				"z": -1.6360803162,
				"element": "C" 
			},
			{
				"x": -0.9991018503,
				"y": -3.0600827548,
				"z": -2.3315683057,
				"element": "C" 
			},
			{
				"x": -1.3038107111,
				"y": 0.2289771374,
				"z": -0.4622335783,
				"element": "C" 
			},
			{
				"x": -2.3332107434,
				"y": 0.0338639019,
				"z": 0.4711621268,
				"element": "C" 
			},
			{
				"x": -2.86879915,
				"y": 1.1135015952,
				"z": 1.1728098605,
				"element": "C" 
			},
			{
				"x": -2.3889936186,
				"y": 2.4079554336,
				"z": 0.9574586342,
				"element": "C" 
			},
			{
				"x": -1.3673508037,
				"y": 2.6117693791,
				"z": 0.0313077178,
				"element": "C" 
			},
			{
				"x": -0.8302596171,
				"y": 1.5350086275,
				"z": -0.6718977869,
				"element": "C" 
			},
			{
				"x": -4.0062116141,
				"y": 0.8890068625,
				"z": 2.1349626016,
				"element": "C" 
			},
			{
				"x": -3.9813407483,
				"y": -0.3534848397,
				"z": 2.6643054096,
				"element": "F" 
			},
			{
				"x": -5.2050748078,
				"y": 1.0339910793,
				"z": 1.5248616348,
				"element": "F" 
			},
			{
				"x": -3.9771959428,
				"y": 1.7701722837,
				"z": 3.1583137683,
				"element": "F" 
			},
			{
				"x": 2.6427629404,
				"y": -3.6258510717,
				"z": -3.3364957445,
				"element": "H" 
			},
			{
				"x": 1.321007531,
				"y": -0.1941682037,
				"z": -1.167952591,
				"element": "H" 
			},
			{
				"x": -2.6096575513,
				"y": -1.9611359159,
				"z": -1.446044058,
				"element": "H" 
			},
			{
				"x": -1.6190689927,
				"y": -3.8812890659,
				"z": -2.674352581,
				"element": "H" 
			},
			{
				"x": -2.6966962884,
				"y": -0.9665308932,
				"z": 0.6775758884,
				"element": "H" 
			},
			{
				"x": -2.8058490714,
				"y": 3.2400181804,
				"z": 1.5141768367,
				"element": "H" 
			},
			{
				"x": -0.9912699924,
				"y": 3.6143645362,
				"z": -0.1471093339,
				"element": "H" 
			},
			{
				"x": -0.051982601,
				"y": 1.7108230814,
				"z": -1.4082263001,
				"element": "H" 
			}
		],
		 "valence_orbital": [ 
			{
				"type": "occ",
				"energy": -0.30225,
				"method": "rhf"
			},
			{
				"type": "occ",
				"energy": -0.28353,
				"method": "rhf"
			},
			{
				"type": "occ",
				"energy": -0.27927,
				"method": "rhf"
			},
			{
				"type": "occ",
				"energy": -0.27875,
				"method": "rhf"
			},
			{
				"type": "occ",
				"energy": -0.25828,
				"method": "rhf"
			},
			{
				"type": "unocc",
				"energy": -0.07631,
				"method": "rhf"
			},
			{
				"type": "unocc",
				"energy": -0.04149,
				"method": "rhf"
			},
			{
				"type": "unocc",
				"energy": -0.02963,
				"method": "rhf"
			},
			{
				"type": "unocc",
				"energy": -0.02115,
				"method": "rhf"
			},
			{
				"type": "unocc",
				"energy": 0.04608,
				"method": "rhf"
			}
		],
		"cosmo_sigma_profile": { 
			"-0.025": 0.0,
			"-0.024": 0.0,
			"-0.023": 0.0,
			"-0.022": 0.0,
			"-0.021": 0.0,
			"-0.02": 0.0,
			"-0.019": 0.0,
			"-0.018": 0.0,
			"-0.017": 0.0,
			"-0.016": 0.0,
			"-0.015": 0.0,
			"-0.014": 0.0,
			"-0.013": 0.114222202921,
			"-0.012": 1.02193852982,
			"-0.011": 1.02817265044,
			"-0.01": 1.48160823654,
			"-0.009": 2.49203036127,
			"-0.008": 5.46858524891,
			"-0.007": 12.2761283022,
			"-0.006": 14.627805343,
			"-0.005": 15.0108683617,
			"-0.004": 13.9309471919,
			"-0.003": 15.2605875308,
			"-0.002": 15.1775319922,
			"-0.001": 19.9988681591,
			"0.0": 26.6654591379,
			"0.001": 30.9333461208,
			"0.002": 38.3204439154,
			"0.003": 37.3821683336,
			"0.004": 4.39001419431,
			"0.005": 2.46998948934,
			"0.006": 1.60779833293,
			"0.007": 2.20313152949,
			"0.008": 3.28063922693,
			"0.009": 3.26973886747,
			"0.01": 4.19568840095,
			"0.011": 6.10779191158,
			"0.012": 3.73186270625,
			"0.013": 1.41154316923,
			"0.014": 0.0,
			"0.015": 0.0,
			"0.016": 0.0,
			"0.017": 0.0,
			"0.018": 0.0,
			"0.019": 0.0,
			"0.02": 0.0,
			"0.021": 0.0,
			"0.022": 0.0,
			"0.023": 0.0,
			"0.024": 0.0,
			"0.025": 0.0
		}
	}
}
