{
	 "smiles": "NC(=O)C1=CC(O)=CC=C1", 
	 "Tm": 437.15, 
	 "num_atms": 17, 
	 "gaussian": { 
		 "optdone": 1, 
		 "sigma_profile": "yes", 
		 "theory": "DFT", 
		 "functional": "B3LYP", 
		 "basiset": "6-31G**", 
		 "properties": { 
			 "R2extent": 1553.8221, 
			 "electric_dipole_moment_norm": 2.57180866512, 
			 "electric_quadrupole_moment_norm": 14.5709210605, 
			 "total_energy": -476.177739096, 
			 "HOMO_LUMO_gap": 0.19308, 
			 "cosmo_polarized_energy": -15.94, 
			 "cosmo_cavitation_energy": 21.44, 
			 "cosmo_dispersion_energy": -16.11, 
			 "cosmo_repulsion_energy": 1.31, 
			 "cosmo_total_nonelectrostatic_energy": 6.65, 
			 "SMD_solvation_energy": 4.87 
		},
		"coords": [
			{
				"x": -2.0116013349,
				"y": 2.2948288056,
				"z": 0.1844626292,
				"element": "N" 
			},
			{
				"x": -1.9191466425,
				"y": 0.9247567885,
				"z": 0.1419925743,
				"element": "C" 
			},
			{
				"x": -2.8992073073,
				"y": 0.2076430705,
				"z": 0.3075286495,
				"element": "O" 
			},
			{
				"x": -0.5554135538,
				"y": 0.3565759014,
				"z": -0.1391778199,
				"element": "C" 
			},
			{
				"x": -0.3735620363,
				"y": -1.0017942819,
				"z": 0.1426042365,
				"element": "C" 
			},
			{
				"x": 0.8627212525,
				"y": -1.6071148871,
				"z": -0.0831292878,
				"element": "C" 
			},
			{
				"x": 1.0960476238,
				"y": -2.925344456,
				"z": 0.1816749861,
				"element": "O" 
			},
			{
				"x": 1.9261126205,
				"y": -0.8566592207,
				"z": -0.6022357154,
				"element": "C" 
			},
			{
				"x": 1.7360954021,
				"y": 0.4905534902,
				"z": -0.8969716092,
				"element": "C" 
			},
			{
				"x": 0.502725272,
				"y": 1.1057014747,
				"z": -0.6697372146,
				"element": "C" 
			},
			{
				"x": -2.9015481594,
				"y": 2.6589769865,
				"z": 0.4925569138,
				"element": "H" 
			},
			{
				"x": -1.196232174,
				"y": 2.8568867421,
				"z": 0.3708109582,
				"element": "H" 
			},
			{
				"x": -1.2189810581,
				"y": -1.562056805,
				"z": 0.5330598571,
				"element": "H" 
			},
			{
				"x": 0.2848462958,
				"y": -3.3275075458,
				"z": 0.5191914103,
				"element": "H" 
			},
			{
				"x": 2.8794438896,
				"y": -1.3456458659,
				"z": -0.773126425,
				"element": "H" 
			},
			{
				"x": 2.556669667,
				"y": 1.0657192238,
				"z": -1.3158329761,
				"element": "H" 
			},
			{
				"x": 0.3643302429,
				"y": 2.1464805792,
				"z": -0.944171167,
				"element": "H" 
			}
		],
		 "valence_orbital": [ 
			{
				"type": "occ",
				"energy": -0.33662,
				"method": "rhf"
			},
			{
				"type": "occ",
				"energy": -0.27278,
				"method": "rhf"
			},
			{
				"type": "occ",
				"energy": -0.25989,
				"method": "rhf"
			},
			{
				"type": "occ",
				"energy": -0.24914,
				"method": "rhf"
			},
			{
				"type": "occ",
				"energy": -0.22954,
				"method": "rhf"
			},
			{
				"type": "unocc",
				"energy": -0.03646,
				"method": "rhf"
			},
			{
				"type": "unocc",
				"energy": 0.00095,
				"method": "rhf"
			},
			{
				"type": "unocc",
				"energy": 0.06296,
				"method": "rhf"
			},
			{
				"type": "unocc",
				"energy": 0.07091,
				"method": "rhf"
			},
			{
				"type": "unocc",
				"energy": 0.07901,
				"method": "rhf"
			}
		],
		"cosmo_sigma_profile": { 
			"-0.025": 0.0,
			"-0.024": 0.0,
			"-0.023": 0.0,
			"-0.022": 0.0,
			"-0.021": 0.0,
			"-0.02": 0.0,
			"-0.019": 0.0,
			"-0.018": 0.519393949498,
			"-0.017": 1.19685016829,
			"-0.016": 0.924217855141,
			"-0.015": 1.28606845235,
			"-0.014": 2.32444656786,
			"-0.013": 3.80330146747,
			"-0.012": 2.89444727053,
			"-0.011": 2.81376129417,
			"-0.01": 3.61548128881,
			"-0.009": 4.03324125009,
			"-0.008": 3.10028341551,
			"-0.007": 3.32410761367,
			"-0.006": 8.03921653702,
			"-0.005": 8.14449547823,
			"-0.004": 7.82434254067,
			"-0.003": 6.05547045216,
			"-0.002": 6.46059508889,
			"-0.001": 7.8169961058,
			"0.0": 8.35512160806,
			"0.001": 9.72102991277,
			"0.002": 10.1798418778,
			"0.003": 13.6989355337,
			"0.004": 15.0540944069,
			"0.005": 8.97930668595,
			"0.006": 3.09585023826,
			"0.007": 3.28424333795,
			"0.008": 3.3901332732,
			"0.009": 3.06254467351,
			"0.01": 3.19833431589,
			"0.011": 3.38785059157,
			"0.012": 2.58536978017,
			"0.013": 4.42291462004,
			"0.014": 3.82331754114,
			"0.015": 0.2532267799,
			"0.016": 0.0,
			"0.017": 0.0,
			"0.018": 0.0,
			"0.019": 0.0,
			"0.02": 0.0,
			"0.021": 0.0,
			"0.022": 0.0,
			"0.023": 0.0,
			"0.024": 0.0,
			"0.025": 0.0
		}
	}
}
