{
	 "smiles": "CSC1=NN2C(=N1)N=CC(C(O)=O)=C2N", 
	 "Tm": 553.15, 
	 "num_atms": 22, 
	 "gaussian": { 
		 "optdone": 1, 
		 "sigma_profile": "yes", 
		 "theory": "DFT", 
		 "functional": "B3LYP", 
		 "basiset": "6-31G**", 
		 "properties": { 
			 "R2extent": 4305.7085, 
			 "electric_dipole_moment_norm": 5.26348317942, 
			 "electric_quadrupole_moment_norm": 18.9189398257, 
			 "total_energy": -1093.37559264, 
			 "HOMO_LUMO_gap": 0.17542, 
			 "cosmo_polarized_energy": -18.82, 
			 "cosmo_cavitation_energy": 28.68, 
			 "cosmo_dispersion_energy": -22.26, 
			 "cosmo_repulsion_energy": 1.68, 
			 "cosmo_total_nonelectrostatic_energy": 8.1, 
			 "SMD_solvation_energy": 1.76 
		},
		"coords": [
			{
				"x": -2.0509679335,
				"y": -4.0380334376,
				"z": 0.4126539005,
				"element": "C" 
			},
			{
				"x": -0.8303280998,
				"y": -3.5342093258,
				"z": 1.6737452552,
				"element": "S" 
			},
			{
				"x": -0.5545205876,
				"y": -1.8681164534,
				"z": 1.1981318221,
				"element": "C" 
			},
			{
				"x": -1.164879201,
				"y": -1.2863404517,
				"z": 0.1596532933,
				"element": "N" 
			},
			{
				"x": -0.6212594351,
				"y": -0.0318184023,
				"z": 0.2164159214,
				"element": "N" 
			},
			{
				"x": 0.280705795,
				"y": 0.0668354777,
				"z": 1.2814274917,
				"element": "C" 
			},
			{
				"x": 0.3207119019,
				"y": -1.1041226178,
				"z": 1.9044585108,
				"element": "N" 
			},
			{
				"x": 0.9466096664,
				"y": 1.2087411028,
				"z": 1.5441137197,
				"element": "N" 
			},
			{
				"x": 0.6877132713,
				"y": 2.215924282,
				"z": 0.7304414046,
				"element": "C" 
			},
			{
				"x": -0.2121611794,
				"y": 2.1923419332,
				"z": -0.3692124463,
				"element": "C" 
			},
			{
				"x": -0.4507620969,
				"y": 3.3467414588,
				"z": -1.2304672516,
				"element": "C" 
			},
			{
				"x": 0.2624417978,
				"y": 4.4412383469,
				"z": -0.885034432,
				"element": "O" 
			},
			{
				"x": -1.2197650016,
				"y": 3.3629474634,
				"z": -2.1886262702,
				"element": "O" 
			},
			{
				"x": -0.9056611797,
				"y": 0.9885148991,
				"z": -0.6355036519,
				"element": "C" 
			},
			{
				"x": -1.7854849736,
				"y": 0.7692184048,
				"z": -1.6147871455,
				"element": "N" 
			},
			{
				"x": -2.28943429,
				"y": -5.0810077484,
				"z": 0.6292601126,
				"element": "H" 
			},
			{
				"x": -1.6282824875,
				"y": -3.956908899,
				"z": -0.5897362454,
				"element": "H" 
			},
			{
				"x": -2.9544044507,
				"y": -3.4307581215,
				"z": 0.4836763262,
				"element": "H" 
			},
			{
				"x": 1.21623939,
				"y": 3.1447509496,
				"z": 0.9282635671,
				"element": "H" 
			},
			{
				"x": 0.0200932506,
				"y": 5.1316951263,
				"z": -1.5236511692,
				"element": "H" 
			},
			{
				"x": -1.983455164,
				"y": 1.5436723594,
				"z": -2.2389820067,
				"element": "H" 
			},
			{
				"x": -2.2092489927,
				"y": -0.1434063467,
				"z": -1.6902407062,
				"element": "H" 
			}
		],
		 "valence_orbital": [ 
			{
				"type": "occ",
				"energy": -0.29312,
				"method": "rhf"
			},
			{
				"type": "occ",
				"energy": -0.28976,
				"method": "rhf"
			},
			{
				"type": "occ",
				"energy": -0.27637,
				"method": "rhf"
			},
			{
				"type": "occ",
				"energy": -0.2421,
				"method": "rhf"
			},
			{
				"type": "occ",
				"energy": -0.23158,
				"method": "rhf"
			},
			{
				"type": "unocc",
				"energy": -0.05616,
				"method": "rhf"
			},
			{
				"type": "unocc",
				"energy": -0.03967,
				"method": "rhf"
			},
			{
				"type": "unocc",
				"energy": 0.02458,
				"method": "rhf"
			},
			{
				"type": "unocc",
				"energy": 0.02771,
				"method": "rhf"
			},
			{
				"type": "unocc",
				"energy": 0.05771,
				"method": "rhf"
			}
		],
		"cosmo_sigma_profile": { 
			"-0.025": 0.0,
			"-0.024": 0.0,
			"-0.023": 0.0,
			"-0.022": 0.0,
			"-0.021": 0.0,
			"-0.02": 0.0,
			"-0.019": 0.205807394288,
			"-0.018": 1.00390391181,
			"-0.017": 0.786750753041,
			"-0.016": 1.11790750947,
			"-0.015": 1.43027061425,
			"-0.014": 1.26130042219,
			"-0.013": 1.61771516497,
			"-0.012": 2.21256268061,
			"-0.011": 2.97696518182,
			"-0.01": 1.75195596257,
			"-0.009": 1.94277881163,
			"-0.008": 3.36060051865,
			"-0.007": 5.02103973923,
			"-0.006": 9.62393371427,
			"-0.005": 12.1695585618,
			"-0.004": 13.4840000735,
			"-0.003": 21.4061085663,
			"-0.002": 23.0570909284,
			"-0.001": 16.8964654964,
			"0.0": 12.1311740617,
			"0.001": 11.4490181534,
			"0.002": 10.8531639012,
			"0.003": 10.3081517675,
			"0.004": 11.7871189103,
			"0.005": 10.2801643512,
			"0.006": 11.6024949313,
			"0.007": 6.1759104565,
			"0.008": 3.4774750671,
			"0.009": 3.97157713228,
			"0.01": 4.39175730599,
			"0.011": 4.83748211006,
			"0.012": 3.7671158286,
			"0.013": 1.87248500015,
			"0.014": 2.50250480076,
			"0.015": 1.5305833388,
			"0.016": 0.20466390801,
			"0.017": 0.0,
			"0.018": 0.0,
			"0.019": 0.0,
			"0.02": 0.0,
			"0.021": 0.0,
			"0.022": 0.0,
			"0.023": 0.0,
			"0.024": 0.0,
			"0.025": 0.0
		}
	}
}
