{
	 "smiles": "COC1=C(O)C(C=CC)=CC=C1", 
	 "Tm": 354.15, 
	 "num_atms": 24, 
	 "gaussian": { 
		 "optdone": 1, 
		 "sigma_profile": "yes", 
		 "theory": "DFT", 
		 "functional": "B3LYP", 
		 "basiset": "6-31G**", 
		 "properties": { 
			 "R2extent": 2748.2751, 
			 "electric_dipole_moment_norm": 2.40538850292, 
			 "electric_quadrupole_moment_norm": 9.11759908967, 
			 "total_energy": -538.711077012, 
			 "HOMO_LUMO_gap": 0.18479, 
			 "cosmo_polarized_energy": -8.05, 
			 "cosmo_cavitation_energy": 27.25, 
			 "cosmo_dispersion_energy": -19.99, 
			 "cosmo_repulsion_energy": 1.61, 
			 "cosmo_total_nonelectrostatic_energy": 8.87, 
			 "SMD_solvation_energy": 5.85 
		},
		"coords": [
			{
				"x": -3.7490679621,
				"y": 2.0960251268,
				"z": -0.2430447282,
				"element": "C" 
			},
			{
				"x": -3.446322833,
				"y": 1.0357439125,
				"z": -1.1524431497,
				"element": "O" 
			},
			{
				"x": -2.4582580577,
				"y": 0.1642575247,
				"z": -0.7643083106,
				"element": "C" 
			},
			{
				"x": -1.1220402581,
				"y": 0.5834013673,
				"z": -0.6112623156,
				"element": "C" 
			},
			{
				"x": -0.8484002182,
				"y": 1.9014320297,
				"z": -0.8497174826,
				"element": "O" 
			},
			{
				"x": -0.121173659,
				"y": -0.3486450736,
				"z": -0.2615418234,
				"element": "C" 
			},
			{
				"x": 1.2906921536,
				"y": 0.0355916368,
				"z": -0.0754388022,
				"element": "C" 
			},
			{
				"x": 1.7758829276,
				"y": 1.1758746657,
				"z": 0.4496959697,
				"element": "C" 
			},
			{
				"x": 3.2375263546,
				"y": 1.4719868869,
				"z": 0.6224898271,
				"element": "C" 
			},
			{
				"x": -0.4812864762,
				"y": -1.7031286708,
				"z": -0.1364515982,
				"element": "C" 
			},
			{
				"x": -1.797658183,
				"y": -2.1195506608,
				"z": -0.2967933645,
				"element": "C" 
			},
			{
				"x": -2.7863678418,
				"y": -1.1799349207,
				"z": -0.5966007077,
				"element": "C" 
			},
			{
				"x": -4.5906479606,
				"y": 2.6375371962,
				"z": -0.6803766988,
				"element": "H" 
			},
			{
				"x": -4.0474514082,
				"y": 1.6985827337,
				"z": 0.7361503848,
				"element": "H" 
			},
			{
				"x": -2.90229014,
				"y": 2.7766787792,
				"z": -0.1178766335,
				"element": "H" 
			},
			{
				"x": 0.113920381,
				"y": 1.9940232925,
				"z": -0.9257366529,
				"element": "H" 
			},
			{
				"x": 2.0131871113,
				"y": -0.7249938022,
				"z": -0.3760022627,
				"element": "H" 
			},
			{
				"x": 1.0877886742,
				"y": 1.930106342,
				"z": 0.831979169,
				"element": "H" 
			},
			{
				"x": 3.4849524416,
				"y": 1.6299341137,
				"z": 1.6798964503,
				"element": "H" 
			},
			{
				"x": 3.8601015479,
				"y": 0.6549255701,
				"z": 0.2457385735,
				"element": "H" 
			},
			{
				"x": 3.5275732405,
				"y": 2.3898333356,
				"z": 0.0952186511,
				"element": "H" 
			},
			{
				"x": 0.2937212528,
				"y": -2.4256933406,
				"z": 0.1046652009,
				"element": "H" 
			},
			{
				"x": -2.0581907412,
				"y": -3.1673274662,
				"z": -0.1846973147,
				"element": "H" 
			},
			{
				"x": -3.8240903461,
				"y": -1.4684605783,
				"z": -0.729642381,
				"element": "H" 
			}
		],
		 "valence_orbital": [ 
			{
				"type": "occ",
				"energy": -0.32717,
				"method": "rhf"
			},
			{
				"type": "occ",
				"energy": -0.28661,
				"method": "rhf"
			},
			{
				"type": "occ",
				"energy": -0.26883,
				"method": "rhf"
			},
			{
				"type": "occ",
				"energy": -0.2212,
				"method": "rhf"
			},
			{
				"type": "occ",
				"energy": -0.20977,
				"method": "rhf"
			},
			{
				"type": "unocc",
				"energy": -0.02498,
				"method": "rhf"
			},
			{
				"type": "unocc",
				"energy": 0.01436,
				"method": "rhf"
			},
			{
				"type": "unocc",
				"energy": 0.04612,
				"method": "rhf"
			},
			{
				"type": "unocc",
				"energy": 0.08406,
				"method": "rhf"
			},
			{
				"type": "unocc",
				"energy": 0.10598,
				"method": "rhf"
			}
		],
		"cosmo_sigma_profile": { 
			"-0.025": 0.0,
			"-0.024": 0.0,
			"-0.023": 0.0,
			"-0.022": 0.0,
			"-0.021": 0.0,
			"-0.02": 0.0,
			"-0.019": 0.0,
			"-0.018": 0.0,
			"-0.017": 0.0,
			"-0.016": 0.0,
			"-0.015": 0.0,
			"-0.014": 0.0,
			"-0.013": 0.381253077233,
			"-0.012": 0.713779736917,
			"-0.011": 0.725265061788,
			"-0.01": 0.900328873537,
			"-0.009": 0.863144535509,
			"-0.008": 1.09461439232,
			"-0.007": 0.988621520316,
			"-0.006": 4.8773215806,
			"-0.005": 15.2482200863,
			"-0.004": 19.6657205281,
			"-0.003": 24.3377613,
			"-0.002": 23.9220646042,
			"-0.001": 18.0628758336,
			"0.0": 17.9823782266,
			"0.001": 13.135243297,
			"0.002": 11.6210699982,
			"0.003": 12.5198505311,
			"0.004": 13.6652662191,
			"0.005": 12.0518852284,
			"0.006": 8.75076263442,
			"0.007": 3.08431395023,
			"0.008": 2.46196029764,
			"0.009": 1.74137862775,
			"0.01": 2.53402793873,
			"0.011": 3.05763356484,
			"0.012": 1.52097610625,
			"0.013": 0.0339828163523,
			"0.014": 0.0,
			"0.015": 0.0,
			"0.016": 0.0,
			"0.017": 0.0,
			"0.018": 0.0,
			"0.019": 0.0,
			"0.02": 0.0,
			"0.021": 0.0,
			"0.022": 0.0,
			"0.023": 0.0,
			"0.024": 0.0,
			"0.025": 0.0
		}
	}
}
