{
	 "smiles": "CCOC(=O)CN1C=C(Br)C=CC1=O", 
	 "Tm": 355.15, 
	 "num_atms": 24, 
	 "gaussian": { 
		 "optdone": 1, 
		 "sigma_profile": "yes", 
		 "theory": "DFT", 
		 "functional": "B3LYP", 
		 "basiset": "6-31G**", 
		 "properties": { 
			 "R2extent": 5602.7361, 
			 "electric_dipole_moment_norm": 2.96552340743, 
			 "electric_quadrupole_moment_norm": 15.179265615, 
			 "total_energy": -3200.82142941, 
			 "HOMO_LUMO_gap": 0.16606, 
			 "cosmo_polarized_energy": -14.04, 
			 "cosmo_cavitation_energy": 31.27, 
			 "cosmo_dispersion_energy": -22.81, 
			 "cosmo_repulsion_energy": 1.84, 
			 "cosmo_total_nonelectrostatic_energy": 10.31, 
			 "SMD_solvation_energy": 6.1 
		},
		"coords": [
			{
				"x": -2.5256771861,
				"y": -3.8728402801,
				"z": -2.5668419156,
				"element": "C" 
			},
			{
				"x": -1.7063425778,
				"y": -2.5979360866,
				"z": -2.5278880295,
				"element": "C" 
			},
			{
				"x": -1.574580455,
				"y": -2.2076064796,
				"z": -1.1360068603,
				"element": "O" 
			},
			{
				"x": -0.8654863399,
				"y": -1.0922467728,
				"z": -0.901280772,
				"element": "C" 
			},
			{
				"x": -0.3450806934,
				"y": -0.4075375801,
				"z": -1.7526208572,
				"element": "O" 
			},
			{
				"x": -0.8518932481,
				"y": -0.8034609918,
				"z": 0.5975632644,
				"element": "C" 
			},
			{
				"x": 0.0760531999,
				"y": 0.2588056801,
				"z": 0.9552142519,
				"element": "N" 
			},
			{
				"x": -0.1674242093,
				"y": 1.5401067743,
				"z": 0.5417662987,
				"element": "C" 
			},
			{
				"x": 0.6891483444,
				"y": 2.5524469616,
				"z": 0.8559850509,
				"element": "C" 
			},
			{
				"x": 0.317096638,
				"y": 4.3293966106,
				"z": 0.2857235352,
				"element": "Br" 
			},
			{
				"x": 1.861431967,
				"y": 2.2665324929,
				"z": 1.6086410474,
				"element": "C" 
			},
			{
				"x": 2.1177818921,
				"y": 0.9881843938,
				"z": 2.0084711734,
				"element": "C" 
			},
			{
				"x": 1.2355190189,
				"y": -0.1184683057,
				"z": 1.6961684237,
				"element": "C" 
			},
			{
				"x": 1.4135655641,
				"y": -1.2905412633,
				"z": 2.0207485656,
				"element": "O" 
			},
			{
				"x": -3.5193912236,
				"y": -3.714212967,
				"z": -2.1383752471,
				"element": "H" 
			},
			{
				"x": -2.0316841081,
				"y": -4.672279602,
				"z": -2.0076566802,
				"element": "H" 
			},
			{
				"x": -2.6465132442,
				"y": -4.2015136039,
				"z": -3.6036191129,
				"element": "H" 
			},
			{
				"x": -0.7048739805,
				"y": -2.7363458719,
				"z": -2.945791692,
				"element": "H" 
			},
			{
				"x": -2.184788445,
				"y": -1.7802729956,
				"z": -3.0758806776,
				"element": "H" 
			},
			{
				"x": -1.86953853,
				"y": -0.5471836763,
				"z": 0.9127734875,
				"element": "H" 
			},
			{
				"x": -0.5377813391,
				"y": -1.6955684319,
				"z": 1.1422520011,
				"element": "H" 
			},
			{
				"x": -1.0638581909,
				"y": 1.6971576376,
				"z": -0.0434425791,
				"element": "H" 
			},
			{
				"x": 2.5442436734,
				"y": 3.0723851602,
				"z": 1.8574182868,
				"element": "H" 
			},
			{
				"x": 3.0031734731,
				"y": 0.7369991975,
				"z": 2.5803790368,
				"element": "H" 
			}
		],
		 "valence_orbital": [ 
			{
				"type": "occ",
				"energy": -0.29639,
				"method": "rhf"
			},
			{
				"type": "occ",
				"energy": -0.292,
				"method": "rhf"
			},
			{
				"type": "occ",
				"energy": -0.28794,
				"method": "rhf"
			},
			{
				"type": "occ",
				"energy": -0.259,
				"method": "rhf"
			},
			{
				"type": "occ",
				"energy": -0.2172,
				"method": "rhf"
			},
			{
				"type": "unocc",
				"energy": -0.05114,
				"method": "rhf"
			},
			{
				"type": "unocc",
				"energy": -0.00357,
				"method": "rhf"
			},
			{
				"type": "unocc",
				"energy": -0.00121,
				"method": "rhf"
			},
			{
				"type": "unocc",
				"energy": 0.00641,
				"method": "rhf"
			},
			{
				"type": "unocc",
				"energy": 0.08982,
				"method": "rhf"
			}
		],
		"cosmo_sigma_profile": { 
			"-0.025": 0.0,
			"-0.024": 0.0,
			"-0.023": 0.0,
			"-0.022": 0.0,
			"-0.021": 0.0,
			"-0.02": 0.0,
			"-0.019": 0.0,
			"-0.018": 0.0,
			"-0.017": 0.0,
			"-0.016": 0.0,
			"-0.015": 0.0,
			"-0.014": 0.0,
			"-0.013": 0.0,
			"-0.012": 0.219821294297,
			"-0.011": 1.67071499839,
			"-0.01": 2.43380646882,
			"-0.009": 4.25827268973,
			"-0.008": 5.05662370789,
			"-0.007": 6.3157778402,
			"-0.006": 10.0829809883,
			"-0.005": 15.2648131003,
			"-0.004": 22.5715339546,
			"-0.003": 21.1214411929,
			"-0.002": 19.9206164997,
			"-0.001": 20.9571391414,
			"0.0": 21.3681628215,
			"0.001": 19.246956657,
			"0.002": 13.9191771024,
			"0.003": 13.2461418393,
			"0.004": 13.7596827185,
			"0.005": 7.24451121882,
			"0.006": 3.73123934012,
			"0.007": 2.65968843425,
			"0.008": 3.83824250872,
			"0.009": 3.44167188759,
			"0.01": 3.80814922256,
			"0.011": 4.95709528825,
			"0.012": 3.17542427117,
			"0.013": 3.99993092962,
			"0.014": 3.15071618407,
			"0.015": 0.706119951582,
			"0.016": 0.0,
			"0.017": 0.0,
			"0.018": 0.0,
			"0.019": 0.0,
			"0.02": 0.0,
			"0.021": 0.0,
			"0.022": 0.0,
			"0.023": 0.0,
			"0.024": 0.0,
			"0.025": 0.0
		}
	}
}
