{
	 "smiles": "COC1=CC(=CC=C1O)C#N", 
	 "Tm": 359.65, 
	 "num_atms": 18, 
	 "gaussian": { 
		 "optdone": 1, 
		 "sigma_profile": "yes", 
		 "theory": "DFT", 
		 "functional": "B3LYP", 
		 "basiset": "6-31G**", 
		 "properties": { 
			 "R2extent": 2634.4016, 
			 "electric_dipole_moment_norm": 5.03964426622, 
			 "electric_quadrupole_moment_norm": 21.6420459428, 
			 "total_energy": -514.238918256, 
			 "HOMO_LUMO_gap": 0.18958, 
			 "cosmo_polarized_energy": -12.16, 
			 "cosmo_cavitation_energy": 23.37, 
			 "cosmo_dispersion_energy": -16.85, 
			 "cosmo_repulsion_energy": 1.36, 
			 "cosmo_total_nonelectrostatic_energy": 7.88, 
			 "SMD_solvation_energy": 6.62 
		},
		"coords": [
			{
				"x": -0.3263098718,
				"y": -0.7848364959,
				"z": 1.7145242879,
				"element": "C" 
			},
			{
				"x": 0.6348612296,
				"y": -0.6539117728,
				"z": 0.6737473528,
				"element": "O" 
			},
			{
				"x": 0.2065877814,
				"y": -0.7624116171,
				"z": -0.6230144938,
				"element": "C" 
			},
			{
				"x": -1.0964588076,
				"y": -0.9919303387,
				"z": -1.0380713942,
				"element": "C" 
			},
			{
				"x": -1.3791079087,
				"y": -1.0784948221,
				"z": -2.4184181284,
				"element": "C" 
			},
			{
				"x": -0.3499227858,
				"y": -0.9333521816,
				"z": -3.3587031819,
				"element": "C" 
			},
			{
				"x": 0.9567062058,
				"y": -0.7029296288,
				"z": -2.9329320047,
				"element": "C" 
			},
			{
				"x": 1.2440605165,
				"y": -0.6161706971,
				"z": -1.5732044586,
				"element": "C" 
			},
			{
				"x": 2.513512141,
				"y": -0.3922884231,
				"z": -1.1589855455,
				"element": "O" 
			},
			{
				"x": -2.724052983,
				"y": -1.3154004372,
				"z": -2.8472911816,
				"element": "C" 
			},
			{
				"x": -3.8194894078,
				"y": -1.5081894192,
				"z": -3.1908092146,
				"element": "N" 
			},
			{
				"x": -1.0968434019,
				"y": -0.0079456962,
				"z": 1.642205829,
				"element": "H" 
			},
			{
				"x": 0.2217203666,
				"y": -0.6665502308,
				"z": 2.6497266978,
				"element": "H" 
			},
			{
				"x": -0.801922756,
				"y": -1.772675317,
				"z": 1.6925996197,
				"element": "H" 
			},
			{
				"x": -1.9014213232,
				"y": -1.1060042888,
				"z": -0.3228618951,
				"element": "H" 
			},
			{
				"x": -0.5757164246,
				"y": -1.001214669,
				"z": -4.4169667689,
				"element": "H" 
			},
			{
				"x": 1.7686177719,
				"y": -0.5875078968,
				"z": -3.6426304997,
				"element": "H" 
			},
			{
				"x": 2.5015796574,
				"y": -0.3666860677,
				"z": -0.1889150203,
				"element": "H" 
			}
		],
		 "valence_orbital": [ 
			{
				"type": "occ",
				"energy": -0.34968,
				"method": "rhf"
			},
			{
				"type": "occ",
				"energy": -0.3239,
				"method": "rhf"
			},
			{
				"type": "occ",
				"energy": -0.31685,
				"method": "rhf"
			},
			{
				"type": "occ",
				"energy": -0.26089,
				"method": "rhf"
			},
			{
				"type": "occ",
				"energy": -0.22711,
				"method": "rhf"
			},
			{
				"type": "unocc",
				"energy": -0.03753,
				"method": "rhf"
			},
			{
				"type": "unocc",
				"energy": -0.01263,
				"method": "rhf"
			},
			{
				"type": "unocc",
				"energy": 0.04181,
				"method": "rhf"
			},
			{
				"type": "unocc",
				"energy": 0.06061,
				"method": "rhf"
			},
			{
				"type": "unocc",
				"energy": 0.08039,
				"method": "rhf"
			}
		],
		"cosmo_sigma_profile": { 
			"-0.025": 0.0,
			"-0.024": 0.0,
			"-0.023": 0.0,
			"-0.022": 0.0,
			"-0.021": 0.0,
			"-0.02": 0.0,
			"-0.019": 0.0,
			"-0.018": 0.0,
			"-0.017": 0.0,
			"-0.016": 0.00602614603816,
			"-0.015": 0.383240529864,
			"-0.014": 0.841113819742,
			"-0.013": 0.384277633404,
			"-0.012": 0.438633220222,
			"-0.011": 0.719150406753,
			"-0.01": 1.02670787331,
			"-0.009": 0.674446379394,
			"-0.008": 3.56667050161,
			"-0.007": 8.78120025732,
			"-0.006": 15.5719341096,
			"-0.005": 13.8240833205,
			"-0.004": 13.8574949851,
			"-0.003": 9.82603704909,
			"-0.002": 9.80693770916,
			"-0.001": 10.3326071424,
			"0.0": 13.6595376628,
			"0.001": 15.7998130702,
			"0.002": 16.4581942065,
			"0.003": 10.816508018,
			"0.004": 5.90342464797,
			"0.005": 3.2029135353,
			"0.006": 3.87260434198,
			"0.007": 4.16922010045,
			"0.008": 4.99854555585,
			"0.009": 4.42057024043,
			"0.01": 5.88178958931,
			"0.011": 3.33201815344,
			"0.012": 2.69441752821,
			"0.013": 2.27852646511,
			"0.014": 0.421810952984,
			"0.015": 0.0,
			"0.016": 0.0,
			"0.017": 0.0,
			"0.018": 0.0,
			"0.019": 0.0,
			"0.02": 0.0,
			"0.021": 0.0,
			"0.022": 0.0,
			"0.023": 0.0,
			"0.024": 0.0,
			"0.025": 0.0
		}
	}
}
