{
	 "smiles": "OC(=O)CNS(=O)(=O)C1=CC2=C(OCCCO2)C=C1", 
	 "Tm": 349.15, 
	 "num_atms": 32, 
	 "gaussian": { 
		 "optdone": 1, 
		 "sigma_profile": "yes", 
		 "theory": "DFT", 
		 "functional": "B3LYP", 
		 "basiset": "6-31G**", 
		 "properties": { 
			 "R2extent": 7605.9865, 
			 "electric_dipole_moment_norm": 6.03772318014, 
			 "electric_quadrupole_moment_norm": 31.8711660328, 
			 "total_energy": -1331.2007604, 
			 "HOMO_LUMO_gap": 0.20276, 
			 "cosmo_polarized_energy": -24.42, 
			 "cosmo_cavitation_energy": 37.28, 
			 "cosmo_dispersion_energy": -26.86, 
			 "cosmo_repulsion_energy": 2.05, 
			 "cosmo_total_nonelectrostatic_energy": 12.47, 
			 "SMD_solvation_energy": 6.96 
		},
		"coords": [
			{
				"x": -4.212388359,
				"y": -0.8771931444,
				"z": -1.9317773474,
				"element": "O" 
			},
			{
				"x": -4.4224444024,
				"y": -2.2038859837,
				"z": -1.9237817447,
				"element": "C" 
			},
			{
				"x": -4.9267317392,
				"y": -2.7978617577,
				"z": -2.8441567995,
				"element": "O" 
			},
			{
				"x": -3.9552716425,
				"y": -2.9300106864,
				"z": -0.6532130656,
				"element": "C" 
			},
			{
				"x": -3.5561519017,
				"y": -1.9969628541,
				"z": 0.4108188602,
				"element": "N" 
			},
			{
				"x": -2.0212687165,
				"y": -2.1911816075,
				"z": 1.1644817404,
				"element": "S" 
			},
			{
				"x": -2.2531669902,
				"y": -1.7567363613,
				"z": 2.5439944944,
				"element": "O" 
			},
			{
				"x": -1.4963440236,
				"y": -3.5198862923,
				"z": 0.8379843473,
				"element": "O" 
			},
			{
				"x": -1.0029694594,
				"y": -0.9793725426,
				"z": 0.3367229594,
				"element": "C" 
			},
			{
				"x": -0.140557512,
				"y": -1.3948702005,
				"z": -0.6752686506,
				"element": "C" 
			},
			{
				"x": 0.6548148912,
				"y": -0.4603440933,
				"z": -1.3443986387,
				"element": "C" 
			},
			{
				"x": 0.5839312179,
				"y": 0.9001631285,
				"z": -0.9693802902,
				"element": "C" 
			},
			{
				"x": 1.2566310417,
				"y": 1.9008287297,
				"z": -1.6102519332,
				"element": "O" 
			},
			{
				"x": 2.6812945325,
				"y": 1.8000760566,
				"z": -1.7495972363,
				"element": "C" 
			},
			{
				"x": 3.1179094382,
				"y": 0.7916717765,
				"z": -2.803916457,
				"element": "C" 
			},
			{
				"x": 2.8015035171,
				"y": -0.6483106418,
				"z": -2.4221363136,
				"element": "C" 
			},
			{
				"x": 1.3953320689,
				"y": -0.9255993199,
				"z": -2.3959633217,
				"element": "O" 
			},
			{
				"x": -0.2797525716,
				"y": 1.2870023816,
				"z": 0.0648639259,
				"element": "C" 
			},
			{
				"x": -1.0805120454,
				"y": 0.361688277,
				"z": 0.7228929027,
				"element": "C" 
			},
			{
				"x": -3.8159229783,
				"y": -0.6485461974,
				"z": -1.0679378513,
				"element": "H" 
			},
			{
				"x": -4.7585274178,
				"y": -3.596037824,
				"z": -0.3270940498,
				"element": "H" 
			},
			{
				"x": -3.1100069085,
				"y": -3.5726279343,
				"z": -0.9171122087,
				"element": "H" 
			},
			{
				"x": -4.2300928988,
				"y": -1.9115106696,
				"z": 1.1681026015,
				"element": "H" 
			},
			{
				"x": -0.0734769489,
				"y": -2.4379404696,
				"z": -0.9614016298,
				"element": "H" 
			},
			{
				"x": 2.9985686075,
				"y": 2.8079385967,
				"z": -2.0281780518,
				"element": "H" 
			},
			{
				"x": 3.1263313352,
				"y": 1.5579014519,
				"z": -0.7735369824,
				"element": "H" 
			},
			{
				"x": 2.6398419467,
				"y": 1.0302047175,
				"z": -3.7603392906,
				"element": "H" 
			},
			{
				"x": 4.2031120367,
				"y": 0.8853667893,
				"z": -2.9436130089,
				"element": "H" 
			},
			{
				"x": 3.2034619738,
				"y": -1.3399505587,
				"z": -3.1665706014,
				"element": "H" 
			},
			{
				"x": 3.2439488847,
				"y": -0.8987838736,
				"z": -1.4468966728,
				"element": "H" 
			},
			{
				"x": -0.3072936821,
				"y": 2.338981753,
				"z": 0.3283739287,
				"element": "H" 
			},
			{
				"x": -1.7328012944,
				"y": 0.6649893544,
				"z": 1.5339863856,
				"element": "H" 
			}
		],
		 "valence_orbital": [ 
			{
				"type": "occ",
				"energy": -0.30941,
				"method": "rhf"
			},
			{
				"type": "occ",
				"energy": -0.30273,
				"method": "rhf"
			},
			{
				"type": "occ",
				"energy": -0.27057,
				"method": "rhf"
			},
			{
				"type": "occ",
				"energy": -0.26274,
				"method": "rhf"
			},
			{
				"type": "occ",
				"energy": -0.24878,
				"method": "rhf"
			},
			{
				"type": "unocc",
				"energy": -0.04602,
				"method": "rhf"
			},
			{
				"type": "unocc",
				"energy": -0.02807,
				"method": "rhf"
			},
			{
				"type": "unocc",
				"energy": 0.01183,
				"method": "rhf"
			},
			{
				"type": "unocc",
				"energy": 0.03857,
				"method": "rhf"
			},
			{
				"type": "unocc",
				"energy": 0.05902,
				"method": "rhf"
			}
		],
		"cosmo_sigma_profile": { 
			"-0.025": 0.0,
			"-0.024": 0.0,
			"-0.023": 0.0,
			"-0.022": 0.0,
			"-0.021": 0.0,
			"-0.02": 0.0,
			"-0.019": 0.0,
			"-0.018": 0.0,
			"-0.017": 0.0,
			"-0.016": 0.347840049334,
			"-0.015": 1.41224215776,
			"-0.014": 1.23256441181,
			"-0.013": 1.80894809129,
			"-0.012": 1.24939671029,
			"-0.011": 1.80166262539,
			"-0.01": 2.82450765644,
			"-0.009": 5.19440463926,
			"-0.008": 7.89900812571,
			"-0.007": 10.2003234436,
			"-0.006": 20.0595719011,
			"-0.005": 30.0847418294,
			"-0.004": 24.7642543624,
			"-0.003": 19.0895394528,
			"-0.002": 16.4275217185,
			"-0.001": 12.3534110281,
			"0.0": 12.9364570839,
			"0.001": 17.5007746741,
			"0.002": 14.5486705648,
			"0.003": 8.61922487097,
			"0.004": 9.2809113291,
			"0.005": 8.06605006509,
			"0.006": 7.27564689076,
			"0.007": 6.57217088119,
			"0.008": 8.85527613224,
			"0.009": 10.5027107211,
			"0.01": 16.0247619009,
			"0.011": 10.7344933666,
			"0.012": 5.9195168692,
			"0.013": 2.12466275271,
			"0.014": 0.0680657721827,
			"0.015": 0.0,
			"0.016": 0.0,
			"0.017": 0.0,
			"0.018": 0.0,
			"0.019": 0.0,
			"0.02": 0.0,
			"0.021": 0.0,
			"0.022": 0.0,
			"0.023": 0.0,
			"0.024": 0.0,
			"0.025": 0.0
		}
	}
}
