{
	 "smiles": "O=C(CS(=O)(=O)C1=CC=CC=C1)C1=CC=CC=C1", 
	 "Tm": 366.65, 
	 "num_atms": 30, 
	 "gaussian": { 
		 "optdone": 1, 
		 "sigma_profile": "yes", 
		 "theory": "DFT", 
		 "functional": "B3LYP", 
		 "basiset": "6-31G**", 
		 "properties": { 
			 "R2extent": 5640.1835, 
			 "electric_dipole_moment_norm": 2.80673466327, 
			 "electric_quadrupole_moment_norm": 27.3848852959, 
			 "total_energy": -1164.51190089, 
			 "HOMO_LUMO_gap": 0.18827, 
			 "cosmo_polarized_energy": -16.5, 
			 "cosmo_cavitation_energy": 35.67, 
			 "cosmo_dispersion_energy": -25.3, 
			 "cosmo_repulsion_energy": 1.9, 
			 "cosmo_total_nonelectrostatic_energy": 12.27, 
			 "SMD_solvation_energy": 5.72 
		},
		"coords": [
			{
				"x": -0.5754721595,
				"y": 0.2730765979,
				"z": 1.4195483377,
				"element": "O" 
			},
			{
				"x": -0.2793710844,
				"y": -0.3966116646,
				"z": 0.4403293906,
				"element": "C" 
			},
			{
				"x": -1.1930829551,
				"y": -0.3288253374,
				"z": -0.7839701914,
				"element": "C" 
			},
			{
				"x": -0.7552314618,
				"y": 0.964185538,
				"z": -2.0145821932,
				"element": "S" 
			},
			{
				"x": 0.6630521683,
				"y": 0.7803901887,
				"z": -2.3653894662,
				"element": "O" 
			},
			{
				"x": -1.8050988023,
				"y": 0.9013602075,
				"z": -3.0432608319,
				"element": "O" 
			},
			{
				"x": -0.920839161,
				"y": 2.5212793283,
				"z": -1.1358954596,
				"element": "C" 
			},
			{
				"x": -2.1589789974,
				"y": 3.1668424791,
				"z": -1.1359208418,
				"element": "C" 
			},
			{
				"x": -2.2835747368,
				"y": 4.380051568,
				"z": -0.459585841,
				"element": "C" 
			},
			{
				"x": -1.1812489056,
				"y": 4.9304057195,
				"z": 0.1992811438,
				"element": "C" 
			},
			{
				"x": 0.0531508805,
				"y": 4.276929981,
				"z": 0.1811457645,
				"element": "C" 
			},
			{
				"x": 0.1923016697,
				"y": 3.0626835585,
				"z": -0.490753035,
				"element": "C" 
			},
			{
				"x": 0.9134203613,
				"y": -1.2899100215,
				"z": 0.4332184747,
				"element": "C" 
			},
			{
				"x": 1.5621074741,
				"y": -1.5131216311,
				"z": 1.6606128784,
				"element": "C" 
			},
			{
				"x": 2.6746592699,
				"y": -2.3441125394,
				"z": 1.7274265819,
				"element": "C" 
			},
			{
				"x": 3.1612608643,
				"y": -2.9532208757,
				"z": 0.5658272568,
				"element": "C" 
			},
			{
				"x": 2.5328345401,
				"y": -2.7255225392,
				"z": -0.6596924559,
				"element": "C" 
			},
			{
				"x": 1.4098830118,
				"y": -1.9016845108,
				"z": -0.7290215005,
				"element": "C" 
			},
			{
				"x": -2.2027560349,
				"y": -0.0898370527,
				"z": -0.4464339901,
				"element": "H" 
			},
			{
				"x": -1.2102238976,
				"y": -1.246285592,
				"z": -1.3765805735,
				"element": "H" 
			},
			{
				"x": -2.9951389844,
				"y": 2.7327180648,
				"z": -1.6734486892,
				"element": "H" 
			},
			{
				"x": -3.2377613063,
				"y": 4.8979354579,
				"z": -0.4529662557,
				"element": "H" 
			},
			{
				"x": -1.2833711018,
				"y": 5.8757872394,
				"z": 0.724030514,
				"element": "H" 
			},
			{
				"x": 0.908874828,
				"y": 4.713084985,
				"z": 0.6871041091,
				"element": "H" 
			},
			{
				"x": 1.1456643429,
				"y": 2.5478196152,
				"z": -0.5316914861,
				"element": "H" 
			},
			{
				"x": 1.1690309276,
				"y": -1.0252240421,
				"z": 2.5461501079,
				"element": "H" 
			},
			{
				"x": 3.1654245118,
				"y": -2.5188238217,
				"z": 2.6803467701,
				"element": "H" 
			},
			{
				"x": 4.0314950999,
				"y": -3.6014987143,
				"z": 0.6166096731,
				"element": "H" 
			},
			{
				"x": 2.9184922606,
				"y": -3.1861931016,
				"z": -1.5640379161,
				"element": "H" 
			},
			{
				"x": 0.954197378,
				"y": -1.7048790845,
				"z": -1.6923002754,
				"element": "H" 
			}
		],
		 "valence_orbital": [ 
			{
				"type": "occ",
				"energy": -0.27534,
				"method": "rhf"
			},
			{
				"type": "occ",
				"energy": -0.27044,
				"method": "rhf"
			},
			{
				"type": "occ",
				"energy": -0.26422,
				"method": "rhf"
			},
			{
				"type": "occ",
				"energy": -0.26394,
				"method": "rhf"
			},
			{
				"type": "occ",
				"energy": -0.2609,
				"method": "rhf"
			},
			{
				"type": "unocc",
				"energy": -0.07263,
				"method": "rhf"
			},
			{
				"type": "unocc",
				"energy": -0.04059,
				"method": "rhf"
			},
			{
				"type": "unocc",
				"energy": -0.02089,
				"method": "rhf"
			},
			{
				"type": "unocc",
				"energy": -0.01286,
				"method": "rhf"
			},
			{
				"type": "unocc",
				"energy": 0.01803,
				"method": "rhf"
			}
		],
		"cosmo_sigma_profile": { 
			"-0.025": 0.0,
			"-0.024": 0.0,
			"-0.023": 0.0,
			"-0.022": 0.0,
			"-0.021": 0.0,
			"-0.02": 0.0,
			"-0.019": 0.0,
			"-0.018": 0.0,
			"-0.017": 0.0,
			"-0.016": 0.0,
			"-0.015": 0.0,
			"-0.014": 0.0,
			"-0.013": 0.0,
			"-0.012": 0.0,
			"-0.011": 0.494708003768,
			"-0.01": 2.00154928177,
			"-0.009": 3.7428469096,
			"-0.008": 4.92683821183,
			"-0.007": 14.6146253112,
			"-0.006": 25.7463889641,
			"-0.005": 24.456726331,
			"-0.004": 19.0615102103,
			"-0.003": 14.65229114,
			"-0.002": 13.5415273113,
			"-0.001": 15.7157846906,
			"0.0": 15.1615645956,
			"0.001": 19.473026455,
			"0.002": 22.1243795219,
			"0.003": 25.750910816,
			"0.004": 14.382979926,
			"0.005": 5.61825959918,
			"0.006": 5.31965240575,
			"0.007": 4.56713881547,
			"0.008": 5.52001715243,
			"0.009": 5.83305289375,
			"0.01": 8.31243299398,
			"0.011": 11.3055118947,
			"0.012": 3.91136581969,
			"0.013": 0.0,
			"0.014": 0.0,
			"0.015": 0.0,
			"0.016": 0.0,
			"0.017": 0.0,
			"0.018": 0.0,
			"0.019": 0.0,
			"0.02": 0.0,
			"0.021": 0.0,
			"0.022": 0.0,
			"0.023": 0.0,
			"0.024": 0.0,
			"0.025": 0.0
		}
	}
}
