{
	 "smiles": "O=C(C=CC1=CC=C(O1)C1=CC=CC=C1)C1=CC=CO1", 
	 "Tm": 373.15, 
	 "num_atms": 32, 
	 "gaussian": { 
		 "optdone": 1, 
		 "sigma_profile": "yes", 
		 "theory": "DFT", 
		 "functional": "B3LYP", 
		 "basiset": "6-31G**", 
		 "properties": { 
			 "R2extent": 8905.2353, 
			 "electric_dipole_moment_norm": 3.4171100553, 
			 "electric_quadrupole_moment_norm": 28.6193711865, 
			 "total_energy": -880.665781682, 
			 "HOMO_LUMO_gap": 0.12397, 
			 "cosmo_polarized_energy": -12.91, 
			 "cosmo_cavitation_energy": 38.77, 
			 "cosmo_dispersion_energy": -27.64, 
			 "cosmo_repulsion_energy": 2.08, 
			 "cosmo_total_nonelectrostatic_energy": 13.21, 
			 "SMD_solvation_energy": 8.41 
		},
		"coords": [
			{
				"x": 2.2100516224,
				"y": -2.1670191035,
				"z": 3.8708470726,
				"element": "O" 
			},
			{
				"x": 2.4119191687,
				"y": -1.5057225227,
				"z": 2.8494063772,
				"element": "C" 
			},
			{
				"x": 1.3294080647,
				"y": -0.9019408951,
				"z": 2.0507049835,
				"element": "C" 
			},
			{
				"x": 0.0423748659,
				"y": -1.0655224165,
				"z": 2.4343930136,
				"element": "C" 
			},
			{
				"x": -1.1140858616,
				"y": -0.5484143654,
				"z": 1.7749335241,
				"element": "C" 
			},
			{
				"x": -2.4580729185,
				"y": -0.6478634104,
				"z": 2.0683914147,
				"element": "C" 
			},
			{
				"x": -3.1550944716,
				"y": 0.0655654129,
				"z": 1.0630740757,
				"element": "C" 
			},
			{
				"x": -2.2037880066,
				"y": 0.5690875249,
				"z": 0.2008051784,
				"element": "C" 
			},
			{
				"x": -0.9626563818,
				"y": 0.1969879673,
				"z": 0.6316869516,
				"element": "O" 
			},
			{
				"x": -2.2810423272,
				"y": 1.3746847544,
				"z": -1.0094298109,
				"element": "C" 
			},
			{
				"x": -1.1153434537,
				"y": 1.7489352043,
				"z": -1.7026928556,
				"element": "C" 
			},
			{
				"x": -1.1997687303,
				"y": 2.5197190182,
				"z": -2.859507804,
				"element": "C" 
			},
			{
				"x": -2.442364805,
				"y": 2.9310434711,
				"z": -3.3462937936,
				"element": "C" 
			},
			{
				"x": -3.6057771676,
				"y": 2.5640133809,
				"z": -2.6641974007,
				"element": "C" 
			},
			{
				"x": -3.5288100401,
				"y": 1.7941187953,
				"z": -1.5078658349,
				"element": "C" 
			},
			{
				"x": 3.7941290206,
				"y": -1.298938226,
				"z": 2.3907510486,
				"element": "C" 
			},
			{
				"x": 4.9854336473,
				"y": -1.7297558405,
				"z": 2.9162338199,
				"element": "C" 
			},
			{
				"x": 6.0118396844,
				"y": -1.2358661477,
				"z": 2.0609754585,
				"element": "C" 
			},
			{
				"x": 5.3760458436,
				"y": -0.5376700952,
				"z": 1.072660519,
				"element": "C" 
			},
			{
				"x": 4.0330246326,
				"y": -0.5634334848,
				"z": 1.2534226734,
				"element": "O" 
			},
			{
				"x": 1.5873227533,
				"y": -0.3338087023,
				"z": 1.1641171883,
				"element": "H" 
			},
			{
				"x": -0.1431229595,
				"y": -1.6476687342,
				"z": 3.3345583345,
				"element": "H" 
			},
			{
				"x": -2.8803998262,
				"y": -1.1757178761,
				"z": 2.9116852722,
				"element": "H" 
			},
			{
				"x": -4.224317291,
				"y": 0.1937389312,
				"z": 0.9823583206,
				"element": "H" 
			},
			{
				"x": -0.1492367433,
				"y": 1.4309610094,
				"z": -1.3270496045,
				"element": "H" 
			},
			{
				"x": -0.2904582751,
				"y": 2.800317483,
				"z": -3.3831556012,
				"element": "H" 
			},
			{
				"x": -2.5049639937,
				"y": 3.5320053389,
				"z": -4.2485917647,
				"element": "H" 
			},
			{
				"x": -4.5767915423,
				"y": 2.8791488086,
				"z": -3.0349977127,
				"element": "H" 
			},
			{
				"x": -4.440090596,
				"y": 1.5159509511,
				"z": -0.9874131235,
				"element": "H" 
			},
			{
				"x": 5.0875716411,
				"y": -2.3276503896,
				"z": 3.8093361078,
				"element": "H" 
			},
			{
				"x": 7.078257982,
				"y": -1.3770302281,
				"z": 2.1616799606,
				"element": "H" 
			},
			{
				"x": 5.7261064644,
				"y": 0.0085443867,
				"z": 0.2098740114,
				"element": "H" 
			}
		],
		 "valence_orbital": [ 
			{
				"type": "occ",
				"energy": -0.26476,
				"method": "rhf"
			},
			{
				"type": "occ",
				"energy": -0.25895,
				"method": "rhf"
			},
			{
				"type": "occ",
				"energy": -0.24346,
				"method": "rhf"
			},
			{
				"type": "occ",
				"energy": -0.23406,
				"method": "rhf"
			},
			{
				"type": "occ",
				"energy": -0.20264,
				"method": "rhf"
			},
			{
				"type": "unocc",
				"energy": -0.07867,
				"method": "rhf"
			},
			{
				"type": "unocc",
				"energy": -0.03304,
				"method": "rhf"
			},
			{
				"type": "unocc",
				"energy": -0.00868,
				"method": "rhf"
			},
			{
				"type": "unocc",
				"energy": 0.00106,
				"method": "rhf"
			},
			{
				"type": "unocc",
				"energy": 0.0472,
				"method": "rhf"
			}
		],
		"cosmo_sigma_profile": { 
			"-0.025": 0.0,
			"-0.024": 0.0,
			"-0.023": 0.0,
			"-0.022": 0.0,
			"-0.021": 0.0,
			"-0.02": 0.0,
			"-0.019": 0.0,
			"-0.018": 0.0,
			"-0.017": 0.0,
			"-0.016": 0.0,
			"-0.015": 0.0,
			"-0.014": 0.0,
			"-0.013": 0.0,
			"-0.012": 0.0,
			"-0.011": 0.0,
			"-0.01": 0.875291236468,
			"-0.009": 2.67928972822,
			"-0.008": 8.67437486426,
			"-0.007": 11.1199977305,
			"-0.006": 16.0348400865,
			"-0.005": 18.9614568595,
			"-0.004": 19.7237051243,
			"-0.003": 17.8584035413,
			"-0.002": 16.2974217807,
			"-0.001": 17.3984975903,
			"0.0": 24.2633990211,
			"0.001": 37.2323453179,
			"0.002": 36.6506184218,
			"0.003": 31.9407965961,
			"0.004": 21.8263868218,
			"0.005": 12.6399722867,
			"0.006": 2.22450165624,
			"0.007": 1.97451188314,
			"0.008": 0.93346650276,
			"0.009": 1.5748818588,
			"0.01": 2.16512211238,
			"0.011": 1.6888743366,
			"0.012": 2.94758163157,
			"0.013": 4.77623505894,
			"0.014": 0.761777068028,
			"0.015": 0.0,
			"0.016": 0.0,
			"0.017": 0.0,
			"0.018": 0.0,
			"0.019": 0.0,
			"0.02": 0.0,
			"0.021": 0.0,
			"0.022": 0.0,
			"0.023": 0.0,
			"0.024": 0.0,
			"0.025": 0.0
		}
	}
}
