{
	 "smiles": "[O-][N+](=O)C1=CC(C#N)=C(C=C1)C#N", 
	 "Tm": 415.15, 
	 "num_atms": 16, 
	 "gaussian": { 
		 "optdone": 1, 
		 "sigma_profile": "yes", 
		 "theory": "DFT", 
		 "functional": "B3LYP", 
		 "basiset": "6-31G**", 
		 "properties": { 
			 "R2extent": 3075.9799, 
			 "electric_dipole_moment_norm": 3.68685313377, 
			 "electric_quadrupole_moment_norm": 25.4560316165, 
			 "total_energy": -621.211785071, 
			 "HOMO_LUMO_gap": 0.17542, 
			 "cosmo_polarized_energy": -16.29, 
			 "cosmo_cavitation_energy": 24.51, 
			 "cosmo_dispersion_energy": -16.59, 
			 "cosmo_repulsion_energy": 1.31, 
			 "cosmo_total_nonelectrostatic_energy": 9.23, 
			 "SMD_solvation_energy": 9.22 
		},
		"coords": [
			{
				"x": 1.7077545678,
				"y": 1.8715506766,
				"z": 1.6629304628,
				"element": "O" 
			},
			{
				"x": 2.0783843163,
				"y": 0.7053821415,
				"z": 1.5640639961,
				"element": "N" 
			},
			{
				"x": 3.2321240448,
				"y": 0.3076144412,
				"z": 1.6998636459,
				"element": "O" 
			},
			{
				"x": 1.0479937894,
				"y": -0.3084907244,
				"z": 1.255637409,
				"element": "C" 
			},
			{
				"x": -0.267453857,
				"y": 0.1090927964,
				"z": 1.09599428,
				"element": "C" 
			},
			{
				"x": -1.2475057233,
				"y": -0.8463992374,
				"z": 0.8036663072,
				"element": "C" 
			},
			{
				"x": -2.6084406047,
				"y": -0.4303373091,
				"z": 0.6362508264,
				"element": "C" 
			},
			{
				"x": -3.7064680027,
				"y": -0.0725654709,
				"z": 0.5041637407,
				"element": "N" 
			},
			{
				"x": -0.8816809532,
				"y": -2.2103589664,
				"z": 0.6772408416,
				"element": "C" 
			},
			{
				"x": 0.4581791512,
				"y": -2.5926422771,
				"z": 0.845717013,
				"element": "C" 
			},
			{
				"x": 1.4309646017,
				"y": -1.6422400276,
				"z": 1.1361274482,
				"element": "C" 
			},
			{
				"x": -1.8653797647,
				"y": -3.2077041711,
				"z": 0.3785537038,
				"element": "C" 
			},
			{
				"x": -2.6417903302,
				"y": -4.0385318058,
				"z": 0.1368198146,
				"element": "N" 
			},
			{
				"x": -0.5186270149,
				"y": 1.1570154996,
				"z": 1.1980248979,
				"element": "H" 
			},
			{
				"x": 0.7259234126,
				"y": -3.6383423521,
				"z": 0.7466908385,
				"element": "H" 
			},
			{
				"x": 2.4707223671,
				"y": -1.9125432134,
				"z": 1.2704547744,
				"element": "H" 
			}
		],
		 "valence_orbital": [ 
			{
				"type": "occ",
				"energy": -0.34244,
				"method": "rhf"
			},
			{
				"type": "occ",
				"energy": -0.33964,
				"method": "rhf"
			},
			{
				"type": "occ",
				"energy": -0.32501,
				"method": "rhf"
			},
			{
				"type": "occ",
				"energy": -0.31984,
				"method": "rhf"
			},
			{
				"type": "occ",
				"energy": -0.31043,
				"method": "rhf"
			},
			{
				"type": "unocc",
				"energy": -0.13501,
				"method": "rhf"
			},
			{
				"type": "unocc",
				"energy": -0.09566,
				"method": "rhf"
			},
			{
				"type": "unocc",
				"energy": -0.06484,
				"method": "rhf"
			},
			{
				"type": "unocc",
				"energy": -0.00868,
				"method": "rhf"
			},
			{
				"type": "unocc",
				"energy": 0.00949,
				"method": "rhf"
			}
		],
		"cosmo_sigma_profile": { 
			"-0.025": 0.0,
			"-0.024": 0.0,
			"-0.023": 0.0,
			"-0.022": 0.0,
			"-0.021": 0.0,
			"-0.02": 0.0,
			"-0.019": 0.0,
			"-0.018": 0.0,
			"-0.017": 0.0,
			"-0.016": 0.0,
			"-0.015": 0.0,
			"-0.014": 0.0,
			"-0.013": 0.0,
			"-0.012": 0.0,
			"-0.011": 1.42761302069,
			"-0.01": 5.95655637727,
			"-0.009": 6.85898375361,
			"-0.008": 7.40212512773,
			"-0.007": 7.62070617115,
			"-0.006": 10.7162073346,
			"-0.005": 18.7716077452,
			"-0.004": 20.5693571732,
			"-0.003": 12.3557396388,
			"-0.002": 8.13473659335,
			"-0.001": 3.99283604491,
			"0.0": 6.18068997993,
			"0.001": 7.41640210638,
			"0.002": 5.25323180169,
			"0.003": 7.30006923526,
			"0.004": 7.6193839823,
			"0.005": 9.32343688549,
			"0.006": 13.3075318299,
			"0.007": 13.016273943,
			"0.008": 10.2161441608,
			"0.009": 7.49044704987,
			"0.01": 4.79715357564,
			"0.011": 4.29590706726,
			"0.012": 0.943730134916,
			"0.013": 0.0,
			"0.014": 0.0,
			"0.015": 0.0,
			"0.016": 0.0,
			"0.017": 0.0,
			"0.018": 0.0,
			"0.019": 0.0,
			"0.02": 0.0,
			"0.021": 0.0,
			"0.022": 0.0,
			"0.023": 0.0,
			"0.024": 0.0,
			"0.025": 0.0
		}
	}
}
