{
	 "smiles": "OC(=O)CCC1=CC(Cl)=CS1", 
	 "Tm": 343.15, 
	 "num_atms": 18, 
	 "gaussian": { 
		 "optdone": 1, 
		 "sigma_profile": "yes", 
		 "theory": "DFT", 
		 "functional": "B3LYP", 
		 "basiset": "6-31G**", 
		 "properties": { 
			 "R2extent": 3980.9059, 
			 "electric_dipole_moment_norm": 3.14160081965, 
			 "electric_quadrupole_moment_norm": 19.5432103327, 
			 "total_energy": -1279.78548585, 
			 "HOMO_LUMO_gap": 0.2105, 
			 "cosmo_polarized_energy": -15.78, 
			 "cosmo_cavitation_energy": 26.35, 
			 "cosmo_dispersion_energy": -19.65, 
			 "cosmo_repulsion_energy": 1.57, 
			 "cosmo_total_nonelectrostatic_energy": 8.26, 
			 "SMD_solvation_energy": 5.18 
		},
		"coords": [
			{
				"x": 2.0578500246,
				"y": 3.933315467,
				"z": -2.2367589072,
				"element": "O" 
			},
			{
				"x": 1.3118837375,
				"y": 2.9002616137,
				"z": -2.7122832143,
				"element": "C" 
			},
			{
				"x": 0.9726116658,
				"y": 2.8799792704,
				"z": -3.8684445389,
				"element": "O" 
			},
			{
				"x": 0.9650504401,
				"y": 1.8221396087,
				"z": -1.6926000006,
				"element": "C" 
			},
			{
				"x": 0.1145597441,
				"y": 0.696230798,
				"z": -2.3041263332,
				"element": "C" 
			},
			{
				"x": -0.2111019261,
				"y": -0.3985954451,
				"z": -1.3278663403,
				"element": "C" 
			},
			{
				"x": 0.3409427354,
				"y": -1.6481408778,
				"z": -1.2470257487,
				"element": "C" 
			},
			{
				"x": -0.1943867885,
				"y": -2.4172712148,
				"z": -0.1680746215,
				"element": "C" 
			},
			{
				"x": 0.3269720203,
				"y": -4.0509121793,
				"z": 0.1642098234,
				"element": "Cl" 
			},
			{
				"x": -1.1413859486,
				"y": -1.7658609954,
				"z": 0.5668987246,
				"element": "C" 
			},
			{
				"x": -1.4022031988,
				"y": -0.1705393532,
				"z": -0.0637526313,
				"element": "S" 
			},
			{
				"x": 2.2498572193,
				"y": 3.8068947509,
				"z": -1.2965233566,
				"element": "H" 
			},
			{
				"x": 1.8961892582,
				"y": 1.4121965801,
				"z": -1.279145679,
				"element": "H" 
			},
			{
				"x": 0.4386362136,
				"y": 2.2904352235,
				"z": -0.8501010167,
				"element": "H" 
			},
			{
				"x": -0.7980746254,
				"y": 1.1317202458,
				"z": -2.7240929369,
				"element": "H" 
			},
			{
				"x": 0.6560969542,
				"y": 0.2629069434,
				"z": -3.1499321776,
				"element": "H" 
			},
			{
				"x": 1.0971430859,
				"y": -2.019790285,
				"z": -1.9282048455,
				"element": "H" 
			},
			{
				"x": -1.6958406116,
				"y": -2.1288701509,
				"z": 1.4194238002,
				"element": "H" 
			}
		],
		 "valence_orbital": [ 
			{
				"type": "occ",
				"energy": -0.32412,
				"method": "rhf"
			},
			{
				"type": "occ",
				"energy": -0.31632,
				"method": "rhf"
			},
			{
				"type": "occ",
				"energy": -0.28196,
				"method": "rhf"
			},
			{
				"type": "occ",
				"energy": -0.26017,
				"method": "rhf"
			},
			{
				"type": "occ",
				"energy": -0.23873,
				"method": "rhf"
			},
			{
				"type": "unocc",
				"energy": -0.02823,
				"method": "rhf"
			},
			{
				"type": "unocc",
				"energy": -0.00092,
				"method": "rhf"
			},
			{
				"type": "unocc",
				"energy": 0.00739,
				"method": "rhf"
			},
			{
				"type": "unocc",
				"energy": 0.03477,
				"method": "rhf"
			},
			{
				"type": "unocc",
				"energy": 0.04605,
				"method": "rhf"
			}
		],
		"cosmo_sigma_profile": { 
			"-0.025": 0.0,
			"-0.024": 0.0,
			"-0.023": 0.0,
			"-0.022": 0.0,
			"-0.021": 0.0,
			"-0.02": 0.0,
			"-0.019": 0.557538996001,
			"-0.018": 1.17351681229,
			"-0.017": 1.19111680098,
			"-0.016": 1.2611580269,
			"-0.015": 1.22488528313,
			"-0.014": 0.992289951746,
			"-0.013": 0.805617512929,
			"-0.012": 0.871365337384,
			"-0.011": 1.89318562748,
			"-0.01": 1.69521022807,
			"-0.009": 3.10660117118,
			"-0.008": 4.19342777859,
			"-0.007": 7.98402921693,
			"-0.006": 12.368109011,
			"-0.005": 12.5090369264,
			"-0.004": 10.2876760426,
			"-0.003": 9.3246658249,
			"-0.002": 10.3744856203,
			"-0.001": 10.2420424647,
			"0.0": 11.3376919685,
			"0.001": 13.3257823398,
			"0.002": 17.646394695,
			"0.003": 23.5421233034,
			"0.004": 19.4052773719,
			"0.005": 9.3181421417,
			"0.006": 2.05330556655,
			"0.007": 2.55410870424,
			"0.008": 2.8333786844,
			"0.009": 2.8716102017,
			"0.01": 5.0795693568,
			"0.011": 5.29826516509,
			"0.012": 5.21919170232,
			"0.013": 1.50774496344,
			"0.014": 0.0264832936791,
			"0.015": 0.0,
			"0.016": 0.0,
			"0.017": 0.0,
			"0.018": 0.0,
			"0.019": 0.0,
			"0.02": 0.0,
			"0.021": 0.0,
			"0.022": 0.0,
			"0.023": 0.0,
			"0.024": 0.0,
			"0.025": 0.0
		}
	}
}
