{
	 "smiles": "O=C1CCOC2=CC=CC=C12", 
	 "Tm": 310.35, 
	 "num_atms": 19, 
	 "gaussian": { 
		 "optdone": 1, 
		 "sigma_profile": "yes", 
		 "theory": "DFT", 
		 "functional": "B3LYP", 
		 "basiset": "6-31G**", 
		 "properties": { 
			 "R2extent": 1836.0757, 
			 "electric_dipole_moment_norm": 2.27294601124, 
			 "electric_quadrupole_moment_norm": 14.52639734, 
			 "total_energy": -498.224330551, 
			 "HOMO_LUMO_gap": 0.17642, 
			 "cosmo_polarized_energy": -8.75, 
			 "cosmo_cavitation_energy": 22.34, 
			 "cosmo_dispersion_energy": -17.03, 
			 "cosmo_repulsion_energy": 1.36, 
			 "cosmo_total_nonelectrostatic_energy": 6.67, 
			 "SMD_solvation_energy": 4.41 
		},
		"coords": [
			{
				"x": -0.8401352024,
				"y": -2.7863518533,
				"z": -1.9343264813,
				"element": "O" 
			},
			{
				"x": -0.7784002674,
				"y": -1.8179304508,
				"z": -1.1925853561,
				"element": "C" 
			},
			{
				"x": -1.8735203603,
				"y": -1.4941964217,
				"z": -0.1827788127,
				"element": "C" 
			},
			{
				"x": -1.9533202512,
				"y": 0.0086024821,
				"z": 0.0562581753,
				"element": "C" 
			},
			{
				"x": -0.6930873561,
				"y": 0.5473842548,
				"z": 0.4839052713,
				"element": "O" 
			},
			{
				"x": 0.3783969627,
				"y": 0.2185397343,
				"z": -0.2901292019,
				"element": "C" 
			},
			{
				"x": 1.5143061006,
				"y": 1.0319704058,
				"z": -0.1877130172,
				"element": "C" 
			},
			{
				"x": 2.6346049721,
				"y": 0.7457874823,
				"z": -0.9594528626,
				"element": "C" 
			},
			{
				"x": 2.6430039807,
				"y": -0.3447222824,
				"z": -1.8435786807,
				"element": "C" 
			},
			{
				"x": 1.5212251707,
				"y": -1.1550260251,
				"z": -1.9343843465,
				"element": "C" 
			},
			{
				"x": 0.3789699841,
				"y": -0.8937645917,
				"z": -1.1577190698,
				"element": "C" 
			},
			{
				"x": -1.6288802191,
				"y": -2.0075547373,
				"z": 0.7572374584,
				"element": "H" 
			},
			{
				"x": -2.8262193629,
				"y": -1.893836236,
				"z": -0.5410526955,
				"element": "H" 
			},
			{
				"x": -2.6623647812,
				"y": 0.2614217285,
				"z": 0.8471222444,
				"element": "H" 
			},
			{
				"x": -2.2597673294,
				"y": 0.5260304558,
				"z": -0.8643956929,
				"element": "H" 
			},
			{
				"x": 1.4889790952,
				"y": 1.8798696437,
				"z": 0.4885370611,
				"element": "H" 
			},
			{
				"x": 3.5106551517,
				"y": 1.383389336,
				"z": -0.8795106092,
				"element": "H" 
			},
			{
				"x": 3.5227476933,
				"y": -0.5535427878,
				"z": -2.4438850858,
				"element": "H" 
			},
			{
				"x": 1.4921060187,
				"y": -2.0188701372,
				"z": -2.5910482982,
				"element": "H" 
			}
		],
		 "valence_orbital": [ 
			{
				"type": "occ",
				"energy": -0.33712,
				"method": "rhf"
			},
			{
				"type": "occ",
				"energy": -0.32046,
				"method": "rhf"
			},
			{
				"type": "occ",
				"energy": -0.26033,
				"method": "rhf"
			},
			{
				"type": "occ",
				"energy": -0.24686,
				"method": "rhf"
			},
			{
				"type": "occ",
				"energy": -0.23254,
				"method": "rhf"
			},
			{
				"type": "unocc",
				"energy": -0.05612,
				"method": "rhf"
			},
			{
				"type": "unocc",
				"energy": -0.00132,
				"method": "rhf"
			},
			{
				"type": "unocc",
				"energy": 0.03949,
				"method": "rhf"
			},
			{
				"type": "unocc",
				"energy": 0.09177,
				"method": "rhf"
			},
			{
				"type": "unocc",
				"energy": 0.10056,
				"method": "rhf"
			}
		],
		"cosmo_sigma_profile": { 
			"-0.025": 0.0,
			"-0.024": 0.0,
			"-0.023": 0.0,
			"-0.022": 0.0,
			"-0.021": 0.0,
			"-0.02": 0.0,
			"-0.019": 0.0,
			"-0.018": 0.0,
			"-0.017": 0.0,
			"-0.016": 0.0,
			"-0.015": 0.0,
			"-0.014": 0.0,
			"-0.013": 0.0,
			"-0.012": 0.0,
			"-0.011": 0.0,
			"-0.01": 0.0,
			"-0.009": 0.0,
			"-0.008": 0.0,
			"-0.007": 4.5124064022,
			"-0.006": 18.4178858773,
			"-0.005": 20.2823477869,
			"-0.004": 17.7064650627,
			"-0.003": 12.5051014352,
			"-0.002": 10.5439134468,
			"-0.001": 7.46534633637,
			"0.0": 8.0958574312,
			"0.001": 10.9119876334,
			"0.002": 13.1260721486,
			"0.003": 14.0349890182,
			"0.004": 12.7561245742,
			"0.005": 4.176634536,
			"0.006": 2.09273053735,
			"0.007": 3.01760338513,
			"0.008": 3.01493724686,
			"0.009": 2.9957092646,
			"0.01": 2.89970470252,
			"0.011": 3.03294473702,
			"0.012": 4.57564115068,
			"0.013": 1.77418729731,
			"0.014": 0.276502240444,
			"0.015": 0.0,
			"0.016": 0.0,
			"0.017": 0.0,
			"0.018": 0.0,
			"0.019": 0.0,
			"0.02": 0.0,
			"0.021": 0.0,
			"0.022": 0.0,
			"0.023": 0.0,
			"0.024": 0.0,
			"0.025": 0.0
		}
	}
}
