{
	 "smiles": "CCOC(=O)C=CC1=CC=CC=C1", 
	 "Tm": 280.15, 
	 "num_atms": 25, 
	 "gaussian": { 
		 "optdone": 1, 
		 "sigma_profile": "yes", 
		 "theory": "DFT", 
		 "functional": "B3LYP", 
		 "basiset": "6-31G**", 
		 "properties": { 
			 "R2extent": 3102.6554, 
			 "electric_dipole_moment_norm": 2.67319895631, 
			 "electric_quadrupole_moment_norm": 8.37187790642, 
			 "total_energy": -576.84459134, 
			 "HOMO_LUMO_gap": 0.1752, 
			 "cosmo_polarized_energy": -8.69, 
			 "cosmo_cavitation_energy": 29.16, 
			 "cosmo_dispersion_energy": -20.54, 
			 "cosmo_repulsion_energy": 1.65, 
			 "cosmo_total_nonelectrostatic_energy": 10.27, 
			 "SMD_solvation_energy": 6.2 
		},
		"coords": [
			{
				"x": 0.3498759631,
				"y": -0.3936313593,
				"z": 4.0791118954,
				"element": "C" 
			},
			{
				"x": 0.456078239,
				"y": 0.5423846251,
				"z": 2.8842435272,
				"element": "C" 
			},
			{
				"x": -0.2367135793,
				"y": 0.0068581992,
				"z": 1.7321104794,
				"element": "O" 
			},
			{
				"x": -1.5645304899,
				"y": 0.2542518357,
				"z": 1.658564133,
				"element": "C" 
			},
			{
				"x": -2.1743022228,
				"y": 0.8948491776,
				"z": 2.4967103286,
				"element": "O" 
			},
			{
				"x": -2.2480890332,
				"y": -0.3610875071,
				"z": 0.4978966579,
				"element": "C" 
			},
			{
				"x": -1.7879294331,
				"y": -0.9716522086,
				"z": -0.6147068051,
				"element": "C" 
			},
			{
				"x": -0.4448776922,
				"y": -1.1775988711,
				"z": -1.180489164,
				"element": "C" 
			},
			{
				"x": 0.6174621922,
				"y": -0.2654347919,
				"z": -1.0487960219,
				"element": "C" 
			},
			{
				"x": 1.8432396597,
				"y": -0.5117423237,
				"z": -1.6623961171,
				"element": "C" 
			},
			{
				"x": 2.0391758045,
				"y": -1.6722640751,
				"z": -2.4153780207,
				"element": "C" 
			},
			{
				"x": 0.9897938893,
				"y": -2.5801352969,
				"z": -2.5690461093,
				"element": "C" 
			},
			{
				"x": -0.2422555652,
				"y": -2.3245258638,
				"z": -1.9718729192,
				"element": "C" 
			},
			{
				"x": 0.9486264322,
				"y": -0.004897917,
				"z": 4.9097496257,
				"element": "H" 
			},
			{
				"x": 0.719779064,
				"y": -1.3913953878,
				"z": 3.8254913711,
				"element": "H" 
			},
			{
				"x": -0.6876594704,
				"y": -0.4731969988,
				"z": 4.4119476103,
				"element": "H" 
			},
			{
				"x": 1.4916551512,
				"y": 0.6477321551,
				"z": 2.5512312401,
				"element": "H" 
			},
			{
				"x": 0.0456148336,
				"y": 1.5274398049,
				"z": 3.1183504573,
				"element": "H" 
			},
			{
				"x": -3.3252136903,
				"y": -0.3136877913,
				"z": 0.6281825967,
				"element": "H" 
			},
			{
				"x": -2.5721772986,
				"y": -1.4087640339,
				"z": -1.2341521408,
				"element": "H" 
			},
			{
				"x": 0.4739787326,
				"y": 0.6407811122,
				"z": -0.4751490958,
				"element": "H" 
			},
			{
				"x": 2.6489972686,
				"y": 0.2092642739,
				"z": -1.557376792,
				"element": "H" 
			},
			{
				"x": 2.998266351,
				"y": -1.8603618549,
				"z": -2.8893234387,
				"element": "H" 
			},
			{
				"x": 1.126847694,
				"y": -3.4794162881,
				"z": -3.1625233579,
				"element": "H" 
			},
			{
				"x": -1.0620428,
				"y": -3.0256686145,
				"z": -2.1071799401,
				"element": "H" 
			}
		],
		 "valence_orbital": [ 
			{
				"type": "occ",
				"energy": -0.29795,
				"method": "rhf"
			},
			{
				"type": "occ",
				"energy": -0.29242,
				"method": "rhf"
			},
			{
				"type": "occ",
				"energy": -0.26814,
				"method": "rhf"
			},
			{
				"type": "occ",
				"energy": -0.25419,
				"method": "rhf"
			},
			{
				"type": "occ",
				"energy": -0.23545,
				"method": "rhf"
			},
			{
				"type": "unocc",
				"energy": -0.06025,
				"method": "rhf"
			},
			{
				"type": "unocc",
				"energy": -0.0045,
				"method": "rhf"
			},
			{
				"type": "unocc",
				"energy": 0.01485,
				"method": "rhf"
			},
			{
				"type": "unocc",
				"energy": 0.08723,
				"method": "rhf"
			},
			{
				"type": "unocc",
				"energy": 0.0909,
				"method": "rhf"
			}
		],
		"cosmo_sigma_profile": { 
			"-0.025": 0.0,
			"-0.024": 0.0,
			"-0.023": 0.0,
			"-0.022": 0.0,
			"-0.021": 0.0,
			"-0.02": 0.0,
			"-0.019": 0.0,
			"-0.018": 0.0,
			"-0.017": 0.0,
			"-0.016": 0.0,
			"-0.015": 0.0,
			"-0.014": 0.0,
			"-0.013": 0.0,
			"-0.012": 0.0,
			"-0.011": 0.0,
			"-0.01": 0.0,
			"-0.009": 0.0,
			"-0.008": 0.0,
			"-0.007": 2.58490392078,
			"-0.006": 12.6459560664,
			"-0.005": 16.8667854182,
			"-0.004": 23.7203161982,
			"-0.003": 24.5684009547,
			"-0.002": 21.0494235746,
			"-0.001": 18.8753501865,
			"0.0": 19.5673026521,
			"0.001": 16.571137932,
			"0.002": 13.7202090441,
			"0.003": 14.4320697333,
			"0.004": 12.5329606365,
			"0.005": 12.3512443644,
			"0.006": 4.33087580971,
			"0.007": 2.9967039876,
			"0.008": 2.52912295907,
			"0.009": 1.69166390532,
			"0.01": 1.86545398619,
			"0.011": 2.16549959248,
			"0.012": 4.1666935855,
			"0.013": 2.43065716468,
			"0.014": 0.188736573871,
			"0.015": 0.0,
			"0.016": 0.0,
			"0.017": 0.0,
			"0.018": 0.0,
			"0.019": 0.0,
			"0.02": 0.0,
			"0.021": 0.0,
			"0.022": 0.0,
			"0.023": 0.0,
			"0.024": 0.0,
			"0.025": 0.0
		}
	}
}
