{
	 "smiles": "OC[C@H]1O[C@@H](O[C@H]2[C@H](O)[C@@H](O)[C@@H](O)O[C@@H]2CO)[C@H](O)[C@@H](O)[C@@H]1O", 
	 "Tm": 530.15, 
	 "num_atms": 45, 
	 "gaussian": { 
		 "optdone": 1, 
		 "sigma_profile": "yes", 
		 "theory": "DFT", 
		 "functional": "B3LYP", 
		 "basiset": "6-31G**", 
		 "properties": { 
			 "R2extent": 7952.3, 
			 "electric_dipole_moment_norm": 4.60211815581, 
			 "electric_quadrupole_moment_norm": 14.0881751235, 
			 "total_energy": -1297.90157589, 
			 "HOMO_LUMO_gap": 0.29062, 
			 "cosmo_polarized_energy": -30.98, 
			 "cosmo_cavitation_energy": 43.84, 
			 "cosmo_dispersion_energy": -30.28, 
			 "cosmo_repulsion_energy": 2.33, 
			 "cosmo_total_nonelectrostatic_energy": 15.9, 
			 "SMD_solvation_energy": 6.54 
		},
		"coords": [
			{
				"x": -3.2867570274,
				"y": 0.3457669233,
				"z": -3.4983474841,
				"element": "O" 
			},
			{
				"x": -2.6415587291,
				"y": 0.5412857735,
				"z": -2.2358708253,
				"element": "C" 
			},
			{
				"x": -1.3132122149,
				"y": 1.2550469861,
				"z": -2.4867543272,
				"element": "C" 
			},
			{
				"x": -0.7984424517,
				"y": 1.6021631619,
				"z": -1.1821326851,
				"element": "O" 
			},
			{
				"x": 0.5778400277,
				"y": 1.3383395232,
				"z": -0.9141779813,
				"element": "C" 
			},
			{
				"x": 0.8173883521,
				"y": -0.034649819,
				"z": -0.6609237075,
				"element": "O" 
			},
			{
				"x": 0.9818933979,
				"y": -0.4623807898,
				"z": 0.6942236026,
				"element": "C" 
			},
			{
				"x": 2.2541704714,
				"y": 0.1181423911,
				"z": 1.3900801093,
				"element": "C" 
			},
			{
				"x": 3.0949192499,
				"y": -0.9143944199,
				"z": 1.8926657551,
				"element": "O" 
			},
			{
				"x": 1.9209601359,
				"y": 0.9965833693,
				"z": 2.5997571368,
				"element": "C" 
			},
			{
				"x": 1.3391833184,
				"y": 2.1941625795,
				"z": 2.1148321058,
				"element": "O" 
			},
			{
				"x": 0.9675876892,
				"y": 0.2580967708,
				"z": 3.5636392605,
				"element": "C" 
			},
			{
				"x": 0.2948462931,
				"y": 1.2752673829,
				"z": 4.283792354,
				"element": "O" 
			},
			{
				"x": 0.0599950217,
				"y": -0.6064073186,
				"z": 2.9160006713,
				"element": "O" 
			},
			{
				"x": -0.2818534451,
				"y": -0.2771106474,
				"z": 1.554321774,
				"element": "C" 
			},
			{
				"x": -1.4026342388,
				"y": -1.2391881131,
				"z": 1.1850675111,
				"element": "C" 
			},
			{
				"x": -2.5435046439,
				"y": -1.0569524932,
				"z": 2.0024143405,
				"element": "O" 
			},
			{
				"x": 1.4399501806,
				"y": 1.8021249293,
				"z": -2.093721188,
				"element": "C" 
			},
			{
				"x": 1.3592103085,
				"y": 3.2219237905,
				"z": -2.1732563792,
				"element": "O" 
			},
			{
				"x": 1.0232254016,
				"y": 1.1330809186,
				"z": -3.4237732285,
				"element": "C" 
			},
			{
				"x": 2.0405056249,
				"y": 0.2307465312,
				"z": -3.8341501411,
				"element": "O" 
			},
			{
				"x": -0.3267396654,
				"y": 0.4203933025,
				"z": -3.3189428432,
				"element": "C" 
			},
			{
				"x": -0.7869651952,
				"y": 0.2213517781,
				"z": -4.6479244651,
				"element": "O" 
			},
			{
				"x": -4.0896496857,
				"y": -0.1702611709,
				"z": -3.3569044117,
				"element": "H" 
			},
			{
				"x": -2.4453835819,
				"y": -0.4202572505,
				"z": -1.7416306145,
				"element": "H" 
			},
			{
				"x": -3.2555930668,
				"y": 1.15365893,
				"z": -1.5625411588,
				"element": "H" 
			},
			{
				"x": -1.5233284854,
				"y": 2.1824681231,
				"z": -3.0406858162,
				"element": "H" 
			},
			{
				"x": 0.8025247735,
				"y": 1.943339243,
				"z": -0.0329907765,
				"element": "H" 
			},
			{
				"x": 1.1572523125,
				"y": -1.5407349126,
				"z": 0.6068191107,
				"element": "H" 
			},
			{
				"x": 2.7897786739,
				"y": 0.7419005316,
				"z": 0.6614425592,
				"element": "H" 
			},
			{
				"x": 3.4272086727,
				"y": -1.4247726266,
				"z": 1.1433273407,
				"element": "H" 
			},
			{
				"x": 2.8542639334,
				"y": 1.2090002579,
				"z": 3.1390288424,
				"element": "H" 
			},
			{
				"x": 0.776534419,
				"y": 2.5304272492,
				"z": 2.8304707408,
				"element": "H" 
			},
			{
				"x": 1.5379557957,
				"y": -0.387135625,
				"z": 4.2408833416,
				"element": "H" 
			},
			{
				"x": -0.3900702404,
				"y": 0.8573556889,
				"z": 4.8217285576,
				"element": "H" 
			},
			{
				"x": -0.6520277235,
				"y": 0.7511880667,
				"z": 1.495682479,
				"element": "H" 
			},
			{
				"x": -1.0186674331,
				"y": -2.2707074856,
				"z": 1.2494607336,
				"element": "H" 
			},
			{
				"x": -1.7063346615,
				"y": -1.0534787059,
				"z": 0.153438988,
				"element": "H" 
			},
			{
				"x": -2.2250689417,
				"y": -1.1294368389,
				"z": 2.9129091548,
				"element": "H" 
			},
			{
				"x": 2.4875083581,
				"y": 1.5538101424,
				"z": -1.9041832219,
				"element": "H" 
			},
			{
				"x": 0.4369071439,
				"y": 3.465275136,
				"z": -2.0102555564,
				"element": "H" 
			},
			{
				"x": 0.9057951331,
				"y": 1.9459997656,
				"z": -4.1556539673,
				"element": "H" 
			},
			{
				"x": 1.720003729,
				"y": -0.1828602166,
				"z": -4.6481685259,
				"element": "H" 
			},
			{
				"x": -0.1629234072,
				"y": -0.5391303546,
				"z": -2.8075551966,
				"element": "H" 
			},
			{
				"x": -1.7291935787,
				"y": -0.0099404578,
				"z": -4.5968419679,
				"element": "H" 
			}
		],
		 "valence_orbital": [ 
			{
				"type": "occ",
				"energy": -0.27332,
				"method": "rhf"
			},
			{
				"type": "occ",
				"energy": -0.27042,
				"method": "rhf"
			},
			{
				"type": "occ",
				"energy": -0.26205,
				"method": "rhf"
			},
			{
				"type": "occ",
				"energy": -0.2518,
				"method": "rhf"
			},
			{
				"type": "occ",
				"energy": -0.24691,
				"method": "rhf"
			},
			{
				"type": "unocc",
				"energy": 0.04371,
				"method": "rhf"
			},
			{
				"type": "unocc",
				"energy": 0.04834,
				"method": "rhf"
			},
			{
				"type": "unocc",
				"energy": 0.0624,
				"method": "rhf"
			},
			{
				"type": "unocc",
				"energy": 0.07792,
				"method": "rhf"
			},
			{
				"type": "unocc",
				"energy": 0.08123,
				"method": "rhf"
			}
		],
		"cosmo_sigma_profile": { 
			"-0.025": 0.0,
			"-0.024": 0.0,
			"-0.023": 0.0,
			"-0.022": 0.0,
			"-0.021": 0.0,
			"-0.02": 0.0,
			"-0.019": 0.0,
			"-0.018": 0.030798046346,
			"-0.017": 1.77175687883,
			"-0.016": 3.38090172868,
			"-0.015": 2.98373213382,
			"-0.014": 2.70309013647,
			"-0.013": 4.88506763765,
			"-0.012": 4.61879537306,
			"-0.011": 5.05881121794,
			"-0.01": 4.76467418718,
			"-0.009": 5.39278402161,
			"-0.008": 7.48119393783,
			"-0.007": 7.22880793681,
			"-0.006": 15.3752167907,
			"-0.005": 22.3471333435,
			"-0.004": 22.9094944446,
			"-0.003": 22.6557467898,
			"-0.002": 21.7847437624,
			"-0.001": 16.7035218215,
			"0.0": 15.362240176,
			"0.001": 17.8584410471,
			"0.002": 15.7239316865,
			"0.003": 13.2428456105,
			"0.004": 11.9951775053,
			"0.005": 11.2531564769,
			"0.006": 9.62948604887,
			"0.007": 8.7766252426,
			"0.008": 11.2338406694,
			"0.009": 11.5044106689,
			"0.01": 7.95426473699,
			"0.011": 10.3403719001,
			"0.012": 8.40009006464,
			"0.013": 7.83379760323,
			"0.014": 4.355463157,
			"0.015": 0.204104577201,
			"0.016": 0.0,
			"0.017": 0.0,
			"0.018": 0.0,
			"0.019": 0.0,
			"0.02": 0.0,
			"0.021": 0.0,
			"0.022": 0.0,
			"0.023": 0.0,
			"0.024": 0.0,
			"0.025": 0.0
		}
	}
}
