{
	 "smiles": "COC(=O)C1=CC=C(C)N=C1", 
	 "Tm": 308.65, 
	 "num_atms": 20, 
	 "gaussian": { 
		 "optdone": 1, 
		 "sigma_profile": "yes", 
		 "theory": "DFT", 
		 "functional": "B3LYP", 
		 "basiset": "6-31G**", 
		 "properties": { 
			 "R2extent": 2417.1727, 
			 "electric_dipole_moment_norm": 0.276772000029, 
			 "electric_quadrupole_moment_norm": 14.5668698738, 
			 "total_energy": -515.48794555, 
			 "HOMO_LUMO_gap": 0.20419, 
			 "cosmo_polarized_energy": -8.58, 
			 "cosmo_cavitation_energy": 24.5, 
			 "cosmo_dispersion_energy": -18.06, 
			 "cosmo_repulsion_energy": 1.46, 
			 "cosmo_total_nonelectrostatic_energy": 7.89, 
			 "SMD_solvation_energy": 4.66 
		},
		"coords": [
			{
				"x": 0.9715916628,
				"y": -0.4112284617,
				"z": 3.6150436357,
				"element": "C" 
			},
			{
				"x": 1.1473759499,
				"y": -0.2520556626,
				"z": 2.1985837275,
				"element": "O" 
			},
			{
				"x": 0.2714949836,
				"y": 0.5854354744,
				"z": 1.5997249508,
				"element": "C" 
			},
			{
				"x": -0.6091008157,
				"y": 1.1713012679,
				"z": 2.1997655251,
				"element": "O" 
			},
			{
				"x": 0.5092775002,
				"y": 0.7039023283,
				"z": 0.1367358371,
				"element": "C" 
			},
			{
				"x": -0.3245077456,
				"y": 1.5402161589,
				"z": -0.6170450125,
				"element": "C" 
			},
			{
				"x": -0.1041739542,
				"y": 1.6517139951,
				"z": -1.9812572864,
				"element": "C" 
			},
			{
				"x": 0.9458321427,
				"y": 0.9255614655,
				"z": -2.5696744359,
				"element": "C" 
			},
			{
				"x": 1.2208263678,
				"y": 1.017326862,
				"z": -4.0492609298,
				"element": "C" 
			},
			{
				"x": 1.7477849988,
				"y": 0.1224149967,
				"z": -1.850555185,
				"element": "N" 
			},
			{
				"x": 1.5288423114,
				"y": 0.0201548051,
				"z": -0.5351886699,
				"element": "C" 
			},
			{
				"x": 1.0837040079,
				"y": 0.5478876318,
				"z": 4.126896389,
				"element": "H" 
			},
			{
				"x": -0.0198454764,
				"y": -0.8140975637,
				"z": 3.836897997,
				"element": "H" 
			},
			{
				"x": 1.7480161311,
				"y": -1.1076066451,
				"z": 3.9309960702,
				"element": "H" 
			},
			{
				"x": -1.1217268584,
				"y": 2.08009017,
				"z": -0.1163578152,
				"element": "H" 
			},
			{
				"x": -0.732085881,
				"y": 2.2912811886,
				"z": -2.5946686086,
				"element": "H" 
			},
			{
				"x": 1.4457122266,
				"y": 2.0483190319,
				"z": -4.3456343514,
				"element": "H" 
			},
			{
				"x": 0.3502511216,
				"y": 0.6969376296,
				"z": -4.6330427948,
				"element": "H" 
			},
			{
				"x": 2.0704352955,
				"y": 0.3831308028,
				"z": -4.3055873268,
				"element": "H" 
			},
			{
				"x": 2.1954960315,
				"y": -0.6375854756,
				"z": 0.0157282838,
				"element": "H" 
			}
		],
		 "valence_orbital": [ 
			{
				"type": "occ",
				"energy": -0.3055,
				"method": "rhf"
			},
			{
				"type": "occ",
				"energy": -0.28961,
				"method": "rhf"
			},
			{
				"type": "occ",
				"energy": -0.28173,
				"method": "rhf"
			},
			{
				"type": "occ",
				"energy": -0.26034,
				"method": "rhf"
			},
			{
				"type": "occ",
				"energy": -0.25515,
				"method": "rhf"
			},
			{
				"type": "unocc",
				"energy": -0.05096,
				"method": "rhf"
			},
			{
				"type": "unocc",
				"energy": -0.02463,
				"method": "rhf"
			},
			{
				"type": "unocc",
				"energy": 0.04771,
				"method": "rhf"
			},
			{
				"type": "unocc",
				"energy": 0.10145,
				"method": "rhf"
			},
			{
				"type": "unocc",
				"energy": 0.11345,
				"method": "rhf"
			}
		],
		"cosmo_sigma_profile": { 
			"-0.025": 0.0,
			"-0.024": 0.0,
			"-0.023": 0.0,
			"-0.022": 0.0,
			"-0.021": 0.0,
			"-0.02": 0.0,
			"-0.019": 0.0,
			"-0.018": 0.0,
			"-0.017": 0.0,
			"-0.016": 0.0,
			"-0.015": 0.0,
			"-0.014": 0.0,
			"-0.013": 0.0,
			"-0.012": 0.0,
			"-0.011": 0.0,
			"-0.01": 0.0,
			"-0.009": 0.0,
			"-0.008": 0.0279982407083,
			"-0.007": 3.51255699699,
			"-0.006": 10.5792527216,
			"-0.005": 15.6557719021,
			"-0.004": 19.9469444114,
			"-0.003": 19.9697144928,
			"-0.002": 16.5389876219,
			"-0.001": 18.0733475855,
			"0.0": 19.1317497204,
			"0.001": 17.7440090354,
			"0.002": 11.4094578992,
			"0.003": 5.84002221095,
			"0.004": 5.80323792645,
			"0.005": 5.1737016076,
			"0.006": 3.28354446656,
			"0.007": 2.42640216549,
			"0.008": 3.72413216537,
			"0.009": 2.50661950623,
			"0.01": 3.17974498902,
			"0.011": 3.42311121513,
			"0.012": 4.50020591673,
			"0.013": 0.735338408976,
			"0.014": 0.909341556593,
			"0.015": 0.851582445118,
			"0.016": 0.259401386737,
			"0.017": 0.0,
			"0.018": 0.0,
			"0.019": 0.0,
			"0.02": 0.0,
			"0.021": 0.0,
			"0.022": 0.0,
			"0.023": 0.0,
			"0.024": 0.0,
			"0.025": 0.0
		}
	}
}
