{
	 "smiles": "COC1=C(NS(=O)(=O)C2=C(C=CC(N)=C2)N2CCCC2)C=CC=C1", 
	 "Tm": 433.15, 
	 "num_atms": 45, 
	 "gaussian": { 
		 "optdone": 1, 
		 "sigma_profile": "yes", 
		 "theory": "DFT", 
		 "functional": "B3LYP", 
		 "basiset": "6-31G**", 
		 "properties": { 
			 "R2extent": 7791.164, 
			 "electric_dipole_moment_norm": 7.18411573473, 
			 "electric_quadrupole_moment_norm": 19.7063756929, 
			 "total_energy": -1448.49532052, 
			 "HOMO_LUMO_gap": 0.17648, 
			 "cosmo_polarized_energy": -20.23, 
			 "cosmo_cavitation_energy": 46.68, 
			 "cosmo_dispersion_energy": -31.97, 
			 "cosmo_repulsion_energy": 2.37, 
			 "cosmo_total_nonelectrostatic_energy": 17.08, 
			 "SMD_solvation_energy": 7.22 
		},
		"coords": [
			{
				"x": -0.9245644374,
				"y": 1.5202182084,
				"z": -3.3914290121,
				"element": "C" 
			},
			{
				"x": -1.0146796093,
				"y": 0.748026396,
				"z": -2.2033226078,
				"element": "O" 
			},
			{
				"x": -2.1288538662,
				"y": 0.9021754449,
				"z": -1.4135296405,
				"element": "C" 
			},
			{
				"x": -2.2467691489,
				"y": -0.0189467492,
				"z": -0.345635384,
				"element": "C" 
			},
			{
				"x": -1.2513451344,
				"y": -1.0242468817,
				"z": -0.2369524295,
				"element": "N" 
			},
			{
				"x": -0.6188068508,
				"y": -1.6058126222,
				"z": 1.2181482836,
				"element": "S" 
			},
			{
				"x": -1.7307895305,
				"y": -1.7901671449,
				"z": 2.1545628579,
				"element": "O" 
			},
			{
				"x": 0.2199675216,
				"y": -2.7432645935,
				"z": 0.8405195134,
				"element": "O" 
			},
			{
				"x": 0.4170908609,
				"y": -0.2809076461,
				"z": 1.8742792454,
				"element": "C" 
			},
			{
				"x": 1.4889963208,
				"y": 0.2445255161,
				"z": 1.1253792901,
				"element": "C" 
			},
			{
				"x": 2.1944998432,
				"y": 1.3069533707,
				"z": 1.7073255073,
				"element": "C" 
			},
			{
				"x": 1.8644669047,
				"y": 1.8118330187,
				"z": 2.9617960401,
				"element": "C" 
			},
			{
				"x": 0.8058934653,
				"y": 1.2638384406,
				"z": 3.7037546227,
				"element": "C" 
			},
			{
				"x": 0.5087657582,
				"y": 1.7212535364,
				"z": 4.9854892453,
				"element": "N" 
			},
			{
				"x": 0.0806872815,
				"y": 0.2048700612,
				"z": 3.1344448767,
				"element": "C" 
			},
			{
				"x": 1.8021563905,
				"y": -0.289651429,
				"z": -0.1622332195,
				"element": "N" 
			},
			{
				"x": 2.8077527014,
				"y": -1.3774090658,
				"z": -0.1886166729,
				"element": "C" 
			},
			{
				"x": 3.0271522322,
				"y": -1.6173186867,
				"z": -1.6944772839,
				"element": "C" 
			},
			{
				"x": 2.5819953913,
				"y": -0.2898565266,
				"z": -2.376167559,
				"element": "C" 
			},
			{
				"x": 2.2450440525,
				"y": 0.646904669,
				"z": -1.2039479733,
				"element": "C" 
			},
			{
				"x": -3.3691619352,
				"y": 0.0507326378,
				"z": 0.4842357105,
				"element": "C" 
			},
			{
				"x": -4.3372441686,
				"y": 1.0378093055,
				"z": 0.2841962761,
				"element": "C" 
			},
			{
				"x": -4.2115110082,
				"y": 1.9455783508,
				"z": -0.7622900108,
				"element": "C" 
			},
			{
				"x": -3.1087944345,
				"y": 1.8725355421,
				"z": -1.6189411278,
				"element": "C" 
			},
			{
				"x": -1.7862573013,
				"y": 1.3448181234,
				"z": -4.0470534069,
				"element": "H" 
			},
			{
				"x": -0.8516520819,
				"y": 2.5929374484,
				"z": -3.1722869409,
				"element": "H" 
			},
			{
				"x": -0.0130637252,
				"y": 1.1954455406,
				"z": -3.8951503306,
				"element": "H" 
			},
			{
				"x": -0.4820654223,
				"y": -0.9111853039,
				"z": -0.8960447542,
				"element": "H" 
			},
			{
				"x": 3.0235642617,
				"y": 1.7527989684,
				"z": 1.1677065075,
				"element": "H" 
			},
			{
				"x": 2.4394285299,
				"y": 2.6360891179,
				"z": 3.3768187648,
				"element": "H" 
			},
			{
				"x": 0.7908377674,
				"y": 2.6703094979,
				"z": 5.1864603036,
				"element": "H" 
			},
			{
				"x": -0.4267727596,
				"y": 1.5227501931,
				"z": 5.3115801452,
				"element": "H" 
			},
			{
				"x": -0.7574281311,
				"y": -0.2401603346,
				"z": 3.6600580811,
				"element": "H" 
			},
			{
				"x": 3.7441187465,
				"y": -1.044225386,
				"z": 0.2924015426,
				"element": "H" 
			},
			{
				"x": 2.4300495247,
				"y": -2.249728458,
				"z": 0.3436487817,
				"element": "H" 
			},
			{
				"x": 4.0710680836,
				"y": -1.8640276662,
				"z": -1.9069653105,
				"element": "H" 
			},
			{
				"x": 2.415004464,
				"y": -2.4535974576,
				"z": -2.0419071941,
				"element": "H" 
			},
			{
				"x": 1.6907918409,
				"y": -0.4590686839,
				"z": -2.9876610904,
				"element": "H" 
			},
			{
				"x": 3.3536929107,
				"y": 0.1351498734,
				"z": -3.0244088597,
				"element": "H" 
			},
			{
				"x": 1.452761255,
				"y": 1.3659198766,
				"z": -1.425877915,
				"element": "H" 
			},
			{
				"x": 3.150079519,
				"y": 1.2073297867,
				"z": -0.9092161466,
				"element": "H" 
			},
			{
				"x": -3.4740779092,
				"y": -0.6730551905,
				"z": 1.281264724,
				"element": "H" 
			},
			{
				"x": -5.1980856006,
				"y": 1.0781776657,
				"z": 0.9445127338,
				"element": "H" 
			},
			{
				"x": -4.967400911,
				"y": 2.7070692267,
				"z": -0.9283798716,
				"element": "H" 
			},
			{
				"x": -3.0177416612,
				"y": 2.5754800095,
				"z": -2.4384883114,
				"element": "H" 
			}
		],
		 "valence_orbital": [ 
			{
				"type": "occ",
				"energy": -0.26151,
				"method": "rhf"
			},
			{
				"type": "occ",
				"energy": -0.23917,
				"method": "rhf"
			},
			{
				"type": "occ",
				"energy": -0.23349,
				"method": "rhf"
			},
			{
				"type": "occ",
				"energy": -0.20692,
				"method": "rhf"
			},
			{
				"type": "occ",
				"energy": -0.2033,
				"method": "rhf"
			},
			{
				"type": "unocc",
				"energy": -0.02682,
				"method": "rhf"
			},
			{
				"type": "unocc",
				"energy": -0.00124,
				"method": "rhf"
			},
			{
				"type": "unocc",
				"energy": 0.00443,
				"method": "rhf"
			},
			{
				"type": "unocc",
				"energy": 0.01282,
				"method": "rhf"
			},
			{
				"type": "unocc",
				"energy": 0.06168,
				"method": "rhf"
			}
		],
		"cosmo_sigma_profile": { 
			"-0.025": 0.0,
			"-0.024": 0.0,
			"-0.023": 0.0,
			"-0.022": 0.0,
			"-0.021": 0.0,
			"-0.02": 0.0,
			"-0.019": 0.0,
			"-0.018": 0.0,
			"-0.017": 0.0,
			"-0.016": 0.0,
			"-0.015": 0.0,
			"-0.014": 0.0,
			"-0.013": 1.44318574911,
			"-0.012": 2.91250855861,
			"-0.011": 3.67698143577,
			"-0.01": 3.34383209221,
			"-0.009": 2.3367698181,
			"-0.008": 3.4589263751,
			"-0.007": 4.85751489858,
			"-0.006": 13.4915326275,
			"-0.005": 21.3394389351,
			"-0.004": 23.3395763364,
			"-0.003": 32.3148864862,
			"-0.002": 35.4877620353,
			"-0.001": 35.2158070324,
			"0.0": 30.3889912755,
			"0.001": 25.6633106851,
			"0.002": 25.7218624978,
			"0.003": 23.2000384177,
			"0.004": 23.2869442869,
			"0.005": 15.6269716191,
			"0.006": 10.145986594,
			"0.007": 4.67204223003,
			"0.008": 5.41426209405,
			"0.009": 5.19762614551,
			"0.01": 5.6520865332,
			"0.011": 6.97606660503,
			"0.012": 3.50929567631,
			"0.013": 0.522813916869,
			"0.014": 0.373640738539,
			"0.015": 0.0,
			"0.016": 0.0,
			"0.017": 0.0,
			"0.018": 0.0,
			"0.019": 0.0,
			"0.02": 0.0,
			"0.021": 0.0,
			"0.022": 0.0,
			"0.023": 0.0,
			"0.024": 0.0,
			"0.025": 0.0
		}
	}
}
