{
	 "smiles": "NC1=C(O)C(Cl)=CC(Br)=C1", 
	 "Tm": 353.15, 
	 "num_atms": 15, 
	 "gaussian": { 
		 "optdone": 1, 
		 "sigma_profile": "yes", 
		 "theory": "DFT", 
		 "functional": "B3LYP", 
		 "basiset": "6-31G**", 
		 "properties": { 
			 "R2extent": 3226.9178, 
			 "electric_dipole_moment_norm": 2.61774674291, 
			 "electric_quadrupole_moment_norm": 6.62160740002, 
			 "total_energy": -3393.22358352, 
			 "HOMO_LUMO_gap": 0.19732, 
			 "cosmo_polarized_energy": -8.94, 
			 "cosmo_cavitation_energy": 23.17, 
			 "cosmo_dispersion_energy": -18.17, 
			 "cosmo_repulsion_energy": 1.48, 
			 "cosmo_total_nonelectrostatic_energy": 6.49, 
			 "SMD_solvation_energy": 2.78 
		},
		"coords": [
			{
				"x": -0.0492822097,
				"y": -0.4734834403,
				"z": 2.5773205192,
				"element": "N" 
			},
			{
				"x": 0.2719035027,
				"y": -0.5389958347,
				"z": 1.2296328717,
				"element": "C" 
			},
			{
				"x": 0.6005725071,
				"y": -1.7967889997,
				"z": 0.6729284386,
				"element": "C" 
			},
			{
				"x": 0.5109612567,
				"y": -2.8728888496,
				"z": 1.5060626972,
				"element": "O" 
			},
			{
				"x": 0.9779496965,
				"y": -1.8685974553,
				"z": -0.6659375152,
				"element": "C" 
			},
			{
				"x": 1.372554506,
				"y": -3.456100174,
				"z": -1.3258868939,
				"element": "Cl" 
			},
			{
				"x": 1.0442493229,
				"y": -0.7419590849,
				"z": -1.4886905233,
				"element": "C" 
			},
			{
				"x": 0.7124539696,
				"y": 0.4818577542,
				"z": -0.9209174669,
				"element": "C" 
			},
			{
				"x": 0.7815724,
				"y": 2.0559866675,
				"z": -2.0038089028,
				"element": "Br" 
			},
			{
				"x": 0.3304851443,
				"y": 0.5976933223,
				"z": 0.4147044504,
				"element": "C" 
			},
			{
				"x": -0.3328400488,
				"y": -1.351239176,
				"z": 2.9893304355,
				"element": "H" 
			},
			{
				"x": -0.6172794563,
				"y": 0.3121100297,
				"z": 2.8586628461,
				"element": "H" 
			},
			{
				"x": 0.7440219806,
				"y": -3.6726059864,
				"z": 1.0108720352,
				"element": "H" 
			},
			{
				"x": 1.3413632627,
				"y": -0.829623078,
				"z": -2.5249274626,
				"element": "H" 
			},
			{
				"x": 0.0835141656,
				"y": 1.5689343052,
				"z": 0.8286544708,
				"element": "H" 
			}
		],
		 "valence_orbital": [ 
			{
				"type": "occ",
				"energy": -0.33122,
				"method": "rhf"
			},
			{
				"type": "occ",
				"energy": -0.28633,
				"method": "rhf"
			},
			{
				"type": "occ",
				"energy": -0.28368,
				"method": "rhf"
			},
			{
				"type": "occ",
				"energy": -0.23682,
				"method": "rhf"
			},
			{
				"type": "occ",
				"energy": -0.20852,
				"method": "rhf"
			},
			{
				"type": "unocc",
				"energy": -0.0112,
				"method": "rhf"
			},
			{
				"type": "unocc",
				"energy": -0.00712,
				"method": "rhf"
			},
			{
				"type": "unocc",
				"energy": 0.00063,
				"method": "rhf"
			},
			{
				"type": "unocc",
				"energy": 0.03621,
				"method": "rhf"
			},
			{
				"type": "unocc",
				"energy": 0.06854,
				"method": "rhf"
			}
		],
		"cosmo_sigma_profile": { 
			"-0.025": 0.0,
			"-0.024": 0.0,
			"-0.023": 0.0,
			"-0.022": 0.0,
			"-0.021": 0.0,
			"-0.02": 0.0,
			"-0.019": 0.0,
			"-0.018": 0.0,
			"-0.017": 0.0,
			"-0.016": 0.0977164314731,
			"-0.015": 0.535193167635,
			"-0.014": 1.32349889495,
			"-0.013": 1.56827009892,
			"-0.012": 2.29047987313,
			"-0.011": 3.37259515582,
			"-0.01": 3.50897518213,
			"-0.009": 3.35077997924,
			"-0.008": 4.02893334684,
			"-0.007": 4.79336581777,
			"-0.006": 5.6799191703,
			"-0.005": 4.80858920046,
			"-0.004": 5.87679689019,
			"-0.003": 8.72292843386,
			"-0.002": 8.42835531935,
			"-0.001": 10.466246926,
			"0.0": 12.5166229574,
			"0.001": 17.0516264807,
			"0.002": 21.4214901804,
			"0.003": 25.9674434346,
			"0.004": 22.6877017722,
			"0.005": 11.190730632,
			"0.006": 3.11617349652,
			"0.007": 3.27684183981,
			"0.008": 1.02692880446,
			"0.009": 0.949041798638,
			"0.01": 1.06194484389,
			"0.011": 0.537953531115,
			"0.012": 0.664636407983,
			"0.013": 0.417542393926,
			"0.014": 0.0486634364413,
			"0.015": 0.0,
			"0.016": 0.0,
			"0.017": 0.0,
			"0.018": 0.0,
			"0.019": 0.0,
			"0.02": 0.0,
			"0.021": 0.0,
			"0.022": 0.0,
			"0.023": 0.0,
			"0.024": 0.0,
			"0.025": 0.0
		}
	}
}
