{
	 "smiles": "CCCCN(CCN(CCCC)C(=O)N1CCOCC1)C(=O)N1CCOCC1", 
	 "Tm": 314.65, 
	 "num_atms": 66, 
	 "gaussian": { 
		 "optdone": 1, 
		 "sigma_profile": "yes", 
		 "theory": "DFT", 
		 "functional": "B3LYP", 
		 "basiset": "6-31G**", 
		 "properties": { 
			 "R2extent": 11674.3174, 
			 "electric_dipole_moment_norm": 3.43579227835, 
			 "electric_quadrupole_moment_norm": 8.20900070837, 
			 "total_energy": -1304.93717453, 
			 "HOMO_LUMO_gap": 0.25652, 
			 "cosmo_polarized_energy": -20.65, 
			 "cosmo_cavitation_energy": 61.54, 
			 "cosmo_dispersion_energy": -37.46, 
			 "cosmo_repulsion_energy": 2.82, 
			 "cosmo_total_nonelectrostatic_energy": 26.9, 
			 "SMD_solvation_energy": 8.38 
		},
		"coords": [
			{
				"x": -2.0921754103,
				"y": -4.513495716,
				"z": 1.6837401091,
				"element": "C" 
			},
			{
				"x": -1.7549279154,
				"y": -3.2468030428,
				"z": 2.4761122805,
				"element": "C" 
			},
			{
				"x": -1.4095397326,
				"y": -2.0451614164,
				"z": 1.584746939,
				"element": "C" 
			},
			{
				"x": -1.0620385244,
				"y": -0.8049058598,
				"z": 2.4123922205,
				"element": "C" 
			},
			{
				"x": -0.7173603383,
				"y": 0.3979772112,
				"z": 1.6204327997,
				"element": "N" 
			},
			{
				"x": -1.9020092766,
				"y": 1.1743001472,
				"z": 1.2189312027,
				"element": "C" 
			},
			{
				"x": -1.6879885464,
				"y": 2.1282586802,
				"z": 0.0297842478,
				"element": "C" 
			},
			{
				"x": -1.5033105294,
				"y": 1.5216884868,
				"z": -1.286935531,
				"element": "N" 
			},
			{
				"x": -2.6919028696,
				"y": 1.094105529,
				"z": -2.0410073267,
				"element": "C" 
			},
			{
				"x": -3.2492912551,
				"y": -0.3208832451,
				"z": -1.8060992636,
				"element": "C" 
			},
			{
				"x": -2.3398107649,
				"y": -1.4753933617,
				"z": -2.2419133194,
				"element": "C" 
			},
			{
				"x": -3.0363787371,
				"y": -2.8364269128,
				"z": -2.1437800926,
				"element": "C" 
			},
			{
				"x": -0.2835699357,
				"y": 1.4145644304,
				"z": -1.933869786,
				"element": "C" 
			},
			{
				"x": -0.1042102484,
				"y": 0.6125940075,
				"z": -2.8481174946,
				"element": "O" 
			},
			{
				"x": 0.7505336777,
				"y": 2.264284344,
				"z": -1.4884509815,
				"element": "N" 
			},
			{
				"x": 2.0784605846,
				"y": 1.9130732589,
				"z": -2.0100695198,
				"element": "C" 
			},
			{
				"x": 3.1393728742,
				"y": 2.6803617616,
				"z": -1.2237750245,
				"element": "C" 
			},
			{
				"x": 2.9296734209,
				"y": 4.084602755,
				"z": -1.2774644304,
				"element": "O" 
			},
			{
				"x": 1.6421580436,
				"y": 4.4257743257,
				"z": -0.7777437839,
				"element": "C" 
			},
			{
				"x": 0.5467650351,
				"y": 3.7235027099,
				"z": -1.5764313698,
				"element": "C" 
			},
			{
				"x": 0.3555820901,
				"y": 1.1814990402,
				"z": 2.0846745205,
				"element": "C" 
			},
			{
				"x": 0.2618419331,
				"y": 2.3965579608,
				"z": 2.2700821068,
				"element": "O" 
			},
			{
				"x": 1.538772617,
				"y": 0.511248191,
				"z": 2.322699124,
				"element": "N" 
			},
			{
				"x": 2.6296930317,
				"y": 1.2871755455,
				"z": 2.9210335378,
				"element": "C" 
			},
			{
				"x": 3.6909413596,
				"y": 0.3325950429,
				"z": 3.4546426011,
				"element": "C" 
			},
			{
				"x": 4.2399421298,
				"y": -0.5223920989,
				"z": 2.4489547572,
				"element": "O" 
			},
			{
				"x": 3.4155492807,
				"y": -0.68924551,
				"z": 1.303192741,
				"element": "C" 
			},
			{
				"x": 1.9285382072,
				"y": -0.7348363876,
				"z": 1.6493756179,
				"element": "C" 
			},
			{
				"x": -1.2547093689,
				"y": -4.8173907204,
				"z": 1.0459483396,
				"element": "H" 
			},
			{
				"x": -2.9602749776,
				"y": -4.3568921322,
				"z": 1.0341540332,
				"element": "H" 
			},
			{
				"x": -2.3231130885,
				"y": -5.3499282792,
				"z": 2.3512110837,
				"element": "H" 
			},
			{
				"x": -2.6011801507,
				"y": -2.9859941906,
				"z": 3.1263163914,
				"element": "H" 
			},
			{
				"x": -0.9104896098,
				"y": -3.4522764969,
				"z": 3.1486532375,
				"element": "H" 
			},
			{
				"x": -2.2547991535,
				"y": -1.8275978586,
				"z": 0.9206130013,
				"element": "H" 
			},
			{
				"x": -0.5656155722,
				"y": -2.2965799153,
				"z": 0.9309903044,
				"element": "H" 
			},
			{
				"x": -1.9098769468,
				"y": -0.5583357814,
				"z": 3.0713278641,
				"element": "H" 
			},
			{
				"x": -0.2259757216,
				"y": -1.03065731,
				"z": 3.0773085027,
				"element": "H" 
			},
			{
				"x": -2.2481314859,
				"y": 1.7917644151,
				"z": 2.0612690152,
				"element": "H" 
			},
			{
				"x": -2.6905032542,
				"y": 0.4558999882,
				"z": 0.9880653169,
				"element": "H" 
			},
			{
				"x": -2.5676762143,
				"y": 2.7854866129,
				"z": -0.0119559152,
				"element": "H" 
			},
			{
				"x": -0.8330495718,
				"y": 2.7461557036,
				"z": 0.2800329414,
				"element": "H" 
			},
			{
				"x": -3.4841945787,
				"y": 1.8209145012,
				"z": -1.8158646529,
				"element": "H" 
			},
			{
				"x": -2.4465268573,
				"y": 1.1919022403,
				"z": -3.1020832707,
				"element": "H" 
			},
			{
				"x": -4.1901292206,
				"y": -0.374323567,
				"z": -2.374074166,
				"element": "H" 
			},
			{
				"x": -3.5371019193,
				"y": -0.4485114624,
				"z": -0.7541133134,
				"element": "H" 
			},
			{
				"x": -1.4278425438,
				"y": -1.4712036901,
				"z": -1.635669889,
				"element": "H" 
			},
			{
				"x": -2.0031708332,
				"y": -1.3004355587,
				"z": -3.2692584651,
				"element": "H" 
			},
			{
				"x": -3.9201834478,
				"y": -2.878821774,
				"z": -2.7914966517,
				"element": "H" 
			},
			{
				"x": -3.3725344053,
				"y": -3.0459782771,
				"z": -1.1211304711,
				"element": "H" 
			},
			{
				"x": -2.3672231963,
				"y": -3.6495443032,
				"z": -2.4438843846,
				"element": "H" 
			},
			{
				"x": 2.227277059,
				"y": 0.8356252908,
				"z": -1.9080907204,
				"element": "H" 
			},
			{
				"x": 2.1578371164,
				"y": 2.1538416866,
				"z": -3.0807521901,
				"element": "H" 
			},
			{
				"x": 3.1337671658,
				"y": 2.3402326644,
				"z": -0.1749576212,
				"element": "H" 
			},
			{
				"x": 4.1322751585,
				"y": 2.4973274783,
				"z": -1.6454765801,
				"element": "H" 
			},
			{
				"x": 1.5498571868,
				"y": 5.5118170866,
				"z": -0.8728450845,
				"element": "H" 
			},
			{
				"x": 1.5525302415,
				"y": 4.1481257981,
				"z": 0.2843445574,
				"element": "H" 
			},
			{
				"x": -0.4362550725,
				"y": 4.002139793,
				"z": -1.1958276026,
				"element": "H" 
			},
			{
				"x": 0.603521683,
				"y": 4.0482566927,
				"z": -2.6284512367,
				"element": "H" 
			},
			{
				"x": 2.2251914214,
				"y": 1.8962032509,
				"z": 3.7328165683,
				"element": "H" 
			},
			{
				"x": 3.0695631269,
				"y": 1.9833470194,
				"z": 2.1935824665,
				"element": "H" 
			},
			{
				"x": 4.5212588313,
				"y": 0.9046815164,
				"z": 3.8826146088,
				"element": "H" 
			},
			{
				"x": 3.2560593586,
				"y": -0.2807257297,
				"z": 4.2587570984,
				"element": "H" 
			},
			{
				"x": 3.598649869,
				"y": 0.1145531796,
				"z": 0.5734262195,
				"element": "H" 
			},
			{
				"x": 3.7137038621,
				"y": -1.634011814,
				"z": 0.8377059287,
				"element": "H" 
			},
			{
				"x": 1.3348114303,
				"y": -0.8527640471,
				"z": 0.7384372576,
				"element": "H" 
			},
			{
				"x": 1.7422434793,
				"y": -1.6111218869,
				"z": 2.2861205971,
				"element": "H" 
			}
		],
		 "valence_orbital": [ 
			{
				"type": "occ",
				"energy": -0.25403,
				"method": "rhf"
			},
			{
				"type": "occ",
				"energy": -0.23941,
				"method": "rhf"
			},
			{
				"type": "occ",
				"energy": -0.23667,
				"method": "rhf"
			},
			{
				"type": "occ",
				"energy": -0.22922,
				"method": "rhf"
			},
			{
				"type": "occ",
				"energy": -0.22398,
				"method": "rhf"
			},
			{
				"type": "unocc",
				"energy": 0.03254,
				"method": "rhf"
			},
			{
				"type": "unocc",
				"energy": 0.0371,
				"method": "rhf"
			},
			{
				"type": "unocc",
				"energy": 0.05639,
				"method": "rhf"
			},
			{
				"type": "unocc",
				"energy": 0.06445,
				"method": "rhf"
			},
			{
				"type": "unocc",
				"energy": 0.07672,
				"method": "rhf"
			}
		],
		"cosmo_sigma_profile": { 
			"-0.025": 0.0,
			"-0.024": 0.0,
			"-0.023": 0.0,
			"-0.022": 0.0,
			"-0.021": 0.0,
			"-0.02": 0.0,
			"-0.019": 0.0,
			"-0.018": 0.0,
			"-0.017": 0.0,
			"-0.016": 0.0,
			"-0.015": 0.0,
			"-0.014": 0.0,
			"-0.013": 0.0,
			"-0.012": 0.0,
			"-0.011": 0.0,
			"-0.01": 0.0,
			"-0.009": 0.0,
			"-0.008": 0.0,
			"-0.007": 0.0,
			"-0.006": 5.71960831606,
			"-0.005": 33.8482328004,
			"-0.004": 54.0267785418,
			"-0.003": 63.0681273019,
			"-0.002": 66.5728303515,
			"-0.001": 54.0601063454,
			"0.0": 45.2158084603,
			"0.001": 40.791205785,
			"0.002": 22.6962720917,
			"0.003": 10.1313228298,
			"0.004": 11.7698164055,
			"0.005": 10.2900787552,
			"0.006": 7.86239992404,
			"0.007": 7.10051728423,
			"0.008": 5.98568706538,
			"0.009": 5.00279063488,
			"0.01": 4.78724195901,
			"0.011": 5.30215488012,
			"0.012": 5.65398135864,
			"0.013": 7.75216850493,
			"0.014": 6.28386912516,
			"0.015": 1.65000756405,
			"0.016": 0.0,
			"0.017": 0.0,
			"0.018": 0.0,
			"0.019": 0.0,
			"0.02": 0.0,
			"0.021": 0.0,
			"0.022": 0.0,
			"0.023": 0.0,
			"0.024": 0.0,
			"0.025": 0.0
		}
	}
}
