{
	 "smiles": "N#CCC1=CC2=C(OCO2)C=C1", 
	 "Tm": 317.15, 
	 "num_atms": 19, 
	 "gaussian": { 
		 "optdone": 1, 
		 "sigma_profile": "yes", 
		 "theory": "DFT", 
		 "functional": "B3LYP", 
		 "basiset": "6-31G**", 
		 "properties": { 
			 "R2extent": 3249.0928, 
			 "electric_dipole_moment_norm": 4.00401548199, 
			 "electric_quadrupole_moment_norm": 31.7698448223, 
			 "total_energy": -552.328995064, 
			 "HOMO_LUMO_gap": 0.20263, 
			 "cosmo_polarized_energy": -12.21, 
			 "cosmo_cavitation_energy": 24.28, 
			 "cosmo_dispersion_energy": -17.71, 
			 "cosmo_repulsion_energy": 1.42, 
			 "cosmo_total_nonelectrostatic_energy": 7.98, 
			 "SMD_solvation_energy": 6.21 
		},
		"coords": [
			{
				"x": -5.2519946874,
				"y": -2.1816497024,
				"z": 1.0502334735,
				"element": "N" 
			},
			{
				"x": -4.147108669,
				"y": -2.5013566322,
				"z": 0.8949400277,
				"element": "C" 
			},
			{
				"x": -2.7469116898,
				"y": -2.8938765153,
				"z": 0.686184141,
				"element": "C" 
			},
			{
				"x": -1.7513893152,
				"y": -1.7946420147,
				"z": 1.0324874961,
				"element": "C" 
			},
			{
				"x": -1.8201615526,
				"y": -0.5549800804,
				"z": 0.358676374,
				"element": "C" 
			},
			{
				"x": -0.8824161578,
				"y": 0.3965800171,
				"z": 0.6975158427,
				"element": "C" 
			},
			{
				"x": 0.1007583419,
				"y": 0.1606137933,
				"z": 1.6592386684,
				"element": "C" 
			},
			{
				"x": 0.9049052993,
				"y": 1.2660928717,
				"z": 1.7786137524,
				"element": "O" 
			},
			{
				"x": 0.310712317,
				"y": 2.2740303859,
				"z": 0.9508210833,
				"element": "C" 
			},
			{
				"x": -0.7281464517,
				"y": 1.6577400235,
				"z": 0.1799210769,
				"element": "O" 
			},
			{
				"x": 0.1869274284,
				"y": -1.0426337419,
				"z": 2.3273470807,
				"element": "C" 
			},
			{
				"x": -0.7678801572,
				"y": -2.0232272575,
				"z": 1.9951132052,
				"element": "C" 
			},
			{
				"x": -2.6402821616,
				"y": -3.1972193191,
				"z": -0.3638013985,
				"element": "H" 
			},
			{
				"x": -2.5485926581,
				"y": -3.7860716467,
				"z": 1.2892433664,
				"element": "H" 
			},
			{
				"x": -2.5822127424,
				"y": -0.3523368288,
				"z": -0.3861680036,
				"element": "H" 
			},
			{
				"x": -0.1203417363,
				"y": 3.0617742287,
				"z": 1.584008516,
				"element": "H" 
			},
			{
				"x": 1.0686925115,
				"y": 2.6861218286,
				"z": 0.2773461915,
				"element": "H" 
			},
			{
				"x": 0.9518305118,
				"y": -1.2220492501,
				"z": 3.0740013379,
				"element": "H" 
			},
			{
				"x": -0.7342884307,
				"y": -2.9805101599,
				"z": 2.5067777684,
				"element": "H" 
			}
		],
		 "valence_orbital": [ 
			{
				"type": "occ",
				"energy": -0.3283,
				"method": "rhf"
			},
			{
				"type": "occ",
				"energy": -0.32163,
				"method": "rhf"
			},
			{
				"type": "occ",
				"energy": -0.31771,
				"method": "rhf"
			},
			{
				"type": "occ",
				"energy": -0.25655,
				"method": "rhf"
			},
			{
				"type": "occ",
				"energy": -0.21741,
				"method": "rhf"
			},
			{
				"type": "unocc",
				"energy": -0.01478,
				"method": "rhf"
			},
			{
				"type": "unocc",
				"energy": -0.00365,
				"method": "rhf"
			},
			{
				"type": "unocc",
				"energy": 0.03533,
				"method": "rhf"
			},
			{
				"type": "unocc",
				"energy": 0.04355,
				"method": "rhf"
			},
			{
				"type": "unocc",
				"energy": 0.08749,
				"method": "rhf"
			}
		],
		"cosmo_sigma_profile": { 
			"-0.025": 0.0,
			"-0.024": 0.0,
			"-0.023": 0.0,
			"-0.022": 0.0,
			"-0.021": 0.0,
			"-0.02": 0.0,
			"-0.019": 0.0,
			"-0.018": 0.0,
			"-0.017": 0.0,
			"-0.016": 0.0,
			"-0.015": 0.0,
			"-0.014": 0.0,
			"-0.013": 0.0,
			"-0.012": 0.0,
			"-0.011": 0.0,
			"-0.01": 0.0,
			"-0.009": 2.70669128823,
			"-0.008": 10.7226722454,
			"-0.007": 16.9196572265,
			"-0.006": 16.1108263245,
			"-0.005": 13.4378748967,
			"-0.004": 8.88644294158,
			"-0.003": 7.6421733854,
			"-0.002": 7.93948908369,
			"-0.001": 9.75268123262,
			"0.0": 9.98002593432,
			"0.001": 8.98071596647,
			"0.002": 15.270607302,
			"0.003": 14.7983143793,
			"0.004": 10.4842992551,
			"0.005": 6.0610631306,
			"0.006": 5.72241801267,
			"0.007": 5.12457646234,
			"0.008": 5.87042489923,
			"0.009": 6.91414152395,
			"0.01": 4.39296445506,
			"0.011": 3.0002550554,
			"0.012": 2.41999221468,
			"0.013": 2.15790639044,
			"0.014": 0.258176681909,
			"0.015": 0.0,
			"0.016": 0.0,
			"0.017": 0.0,
			"0.018": 0.0,
			"0.019": 0.0,
			"0.02": 0.0,
			"0.021": 0.0,
			"0.022": 0.0,
			"0.023": 0.0,
			"0.024": 0.0,
			"0.025": 0.0
		}
	}
}
