{
	 "smiles": "COC1=CC=C(C=C1)C(=O)OC1CC2=CC=CC=C12", 
	 "Tm": 397.15, 
	 "num_atms": 33, 
	 "gaussian": { 
		 "optdone": 1, 
		 "sigma_profile": "yes", 
		 "theory": "DFT", 
		 "functional": "B3LYP", 
		 "basiset": "6-31G**", 
		 "properties": { 
			 "R2extent": 8438.4274, 
			 "electric_dipole_moment_norm": 3.32165747482, 
			 "electric_quadrupole_moment_norm": 18.9067328918, 
			 "total_energy": -843.774723374, 
			 "HOMO_LUMO_gap": 0.19295, 
			 "cosmo_polarized_energy": -11.6, 
			 "cosmo_cavitation_energy": 37.38, 
			 "cosmo_dispersion_energy": -27.04, 
			 "cosmo_repulsion_energy": 2.09, 
			 "cosmo_total_nonelectrostatic_energy": 12.43, 
			 "SMD_solvation_energy": 7.5 
		},
		"coords": [
			{
				"x": 3.6944587714,
				"y": 5.1490201099,
				"z": 4.28901099,
				"element": "C" 
			},
			{
				"x": 3.3386212017,
				"y": 5.2947797359,
				"z": 2.921382128,
				"element": "O" 
			},
			{
				"x": 2.7826594544,
				"y": 4.2341145058,
				"z": 2.2775973386,
				"element": "C" 
			},
			{
				"x": 2.5297883738,
				"y": 2.9880804631,
				"z": 2.8690997087,
				"element": "C" 
			},
			{
				"x": 1.9539406928,
				"y": 1.970031106,
				"z": 2.1102644911,
				"element": "C" 
			},
			{
				"x": 1.6250743964,
				"y": 2.1746846721,
				"z": 0.7655361985,
				"element": "C" 
			},
			{
				"x": 1.8836830099,
				"y": 3.4285754237,
				"z": 0.1840786615,
				"element": "C" 
			},
			{
				"x": 2.4546464506,
				"y": 4.4473877635,
				"z": 0.9271286181,
				"element": "C" 
			},
			{
				"x": 1.0107121761,
				"y": 1.1243718817,
				"z": -0.0856970115,
				"element": "C" 
			},
			{
				"x": 0.7112670932,
				"y": 1.2787134521,
				"z": -1.2539020447,
				"element": "O" 
			},
			{
				"x": 0.8270469626,
				"y": -0.0379070764,
				"z": 0.5945391279,
				"element": "O" 
			},
			{
				"x": 0.1858879087,
				"y": -1.1461677668,
				"z": -0.0534382777,
				"element": "C" 
			},
			{
				"x": 0.7351249668,
				"y": -1.7120504758,
				"z": -1.4242595935,
				"element": "C" 
			},
			{
				"x": -0.7078344708,
				"y": -1.6336878259,
				"z": -1.8988842047,
				"element": "C" 
			},
			{
				"x": -1.5616231936,
				"y": -1.9496361799,
				"z": -2.9459656982,
				"element": "C" 
			},
			{
				"x": -2.9020772783,
				"y": -1.5643749817,
				"z": -2.784537887,
				"element": "C" 
			},
			{
				"x": -3.3512167395,
				"y": -0.9118462545,
				"z": -1.6264120715,
				"element": "C" 
			},
			{
				"x": -2.4841853306,
				"y": -0.6216680432,
				"z": -0.5618761118,
				"element": "C" 
			},
			{
				"x": -1.162775962,
				"y": -1.0034056985,
				"z": -0.7414778892,
				"element": "C" 
			},
			{
				"x": 4.1148604929,
				"y": 6.1084724381,
				"z": 4.59331208,
				"element": "H" 
			},
			{
				"x": 2.8197199294,
				"y": 4.9238055828,
				"z": 4.9118428436,
				"element": "H" 
			},
			{
				"x": 4.4478346268,
				"y": 4.3636896477,
				"z": 4.4286232961,
				"element": "H" 
			},
			{
				"x": 2.7749112032,
				"y": 2.803779413,
				"z": 3.9080993807,
				"element": "H" 
			},
			{
				"x": 1.7576558289,
				"y": 1.0064348881,
				"z": 2.5661571419,
				"element": "H" 
			},
			{
				"x": 1.6248458747,
				"y": 3.5785923467,
				"z": -0.8585830151,
				"element": "H" 
			},
			{
				"x": 2.6598596224,
				"y": 5.4201885723,
				"z": 0.4928929477,
				"element": "H" 
			},
			{
				"x": 0.1815879809,
				"y": -1.9102669779,
				"z": 0.7290589929,
				"element": "H" 
			},
			{
				"x": 1.199376169,
				"y": -2.7025550194,
				"z": -1.365915984,
				"element": "H" 
			},
			{
				"x": 1.4060983701,
				"y": -1.0180036333,
				"z": -1.9329614843,
				"element": "H" 
			},
			{
				"x": -1.2305022141,
				"y": -2.4506727468,
				"z": -3.8512831961,
				"element": "H" 
			},
			{
				"x": -3.6146063867,
				"y": -1.7724343566,
				"z": -3.5782830938,
				"element": "H" 
			},
			{
				"x": -4.3984764395,
				"y": -0.6314719364,
				"z": -1.5537564904,
				"element": "H" 
			},
			{
				"x": -2.8435635416,
				"y": -0.1252730296,
				"z": 0.3350101082,
				"element": "H" 
			}
		],
		 "valence_orbital": [ 
			{
				"type": "occ",
				"energy": -0.26703,
				"method": "rhf"
			},
			{
				"type": "occ",
				"energy": -0.25765,
				"method": "rhf"
			},
			{
				"type": "occ",
				"energy": -0.24371,
				"method": "rhf"
			},
			{
				"type": "occ",
				"energy": -0.23371,
				"method": "rhf"
			},
			{
				"type": "occ",
				"energy": -0.22698,
				"method": "rhf"
			},
			{
				"type": "unocc",
				"energy": -0.03403,
				"method": "rhf"
			},
			{
				"type": "unocc",
				"energy": -0.0056,
				"method": "rhf"
			},
			{
				"type": "unocc",
				"energy": -0.00466,
				"method": "rhf"
			},
			{
				"type": "unocc",
				"energy": 0.00853,
				"method": "rhf"
			},
			{
				"type": "unocc",
				"energy": 0.06766,
				"method": "rhf"
			}
		],
		"cosmo_sigma_profile": { 
			"-0.025": 0.0,
			"-0.024": 0.0,
			"-0.023": 0.0,
			"-0.022": 0.0,
			"-0.021": 0.0,
			"-0.02": 0.0,
			"-0.019": 0.0,
			"-0.018": 0.0,
			"-0.017": 0.0,
			"-0.016": 0.0,
			"-0.015": 0.0,
			"-0.014": 0.0,
			"-0.013": 0.0,
			"-0.012": 0.0,
			"-0.011": 0.0,
			"-0.01": 0.0,
			"-0.009": 0.0,
			"-0.008": 0.00239559081597,
			"-0.007": 3.3473668733,
			"-0.006": 19.3235025519,
			"-0.005": 25.686068791,
			"-0.004": 29.6262281853,
			"-0.003": 25.7019013851,
			"-0.002": 23.5555907853,
			"-0.001": 23.1300215178,
			"0.0": 19.8368719446,
			"0.001": 18.4093855533,
			"0.002": 22.3667810316,
			"0.003": 24.4705550198,
			"0.004": 21.6039886367,
			"0.005": 11.9347003607,
			"0.006": 9.59819031278,
			"0.007": 3.30027343722,
			"0.008": 3.45109464425,
			"0.009": 3.84001941839,
			"0.01": 2.7278822762,
			"0.011": 2.99451951616,
			"0.012": 3.66096741314,
			"0.013": 0.369120605688,
			"0.014": 0.0,
			"0.015": 0.0,
			"0.016": 0.0,
			"0.017": 0.0,
			"0.018": 0.0,
			"0.019": 0.0,
			"0.02": 0.0,
			"0.021": 0.0,
			"0.022": 0.0,
			"0.023": 0.0,
			"0.024": 0.0,
			"0.025": 0.0
		}
	}
}
