{
	 "smiles": "CC1=C(C)C=C(C=C1)C1=NNC=C1Br", 
	 "Tm": 390.15, 
	 "num_atms": 25, 
	 "gaussian": { 
		 "optdone": 1, 
		 "sigma_profile": "yes", 
		 "theory": "DFT", 
		 "functional": "B3LYP", 
		 "basiset": "6-31G**", 
		 "properties": { 
			 "R2extent": 6390.0492, 
			 "electric_dipole_moment_norm": 1.96070504921, 
			 "electric_quadrupole_moment_norm": 19.6509210957, 
			 "total_energy": -3106.6990106, 
			 "HOMO_LUMO_gap": 0.19837, 
			 "cosmo_polarized_energy": -11.32, 
			 "cosmo_cavitation_energy": 30.69, 
			 "cosmo_dispersion_energy": -22.92, 
			 "cosmo_repulsion_energy": 1.8, 
			 "cosmo_total_nonelectrostatic_energy": 9.57, 
			 "SMD_solvation_energy": 3.59 
		},
		"coords": [
			{
				"x": 1.2844944722,
				"y": -1.1148725057,
				"z": -2.8109716109,
				"element": "C" 
			},
			{
				"x": 0.8264836918,
				"y": -0.2795533656,
				"z": -1.6400457593,
				"element": "C" 
			},
			{
				"x": 0.1359657075,
				"y": -0.8641187967,
				"z": -0.5546997738,
				"element": "C" 
			},
			{
				"x": -0.1643180719,
				"y": -2.3445944757,
				"z": -0.5368257605,
				"element": "C" 
			},
			{
				"x": -0.2647089659,
				"y": -0.0583468841,
				"z": 0.5109949452,
				"element": "C" 
			},
			{
				"x": -0.0065668717,
				"y": 1.3226533781,
				"z": 0.5418259675,
				"element": "C" 
			},
			{
				"x": 0.6718862933,
				"y": 1.8941124754,
				"z": -0.5415115543,
				"element": "C" 
			},
			{
				"x": 1.0786291247,
				"y": 1.0950171518,
				"z": -1.6089336183,
				"element": "C" 
			},
			{
				"x": -0.4792714237,
				"y": 2.1177438909,
				"z": 1.690073875,
				"element": "C" 
			},
			{
				"x": -1.5297495217,
				"y": 1.6877367763,
				"z": 2.4048083712,
				"element": "N" 
			},
			{
				"x": -1.7027173473,
				"y": 2.5976315471,
				"z": 3.3812362743,
				"element": "N" 
			},
			{
				"x": -0.8093868786,
				"y": 3.6144754388,
				"z": 3.3316581721,
				"element": "C" 
			},
			{
				"x": 0.001149579,
				"y": 3.3388212208,
				"z": 2.2499498084,
				"element": "C" 
			},
			{
				"x": 1.4752641325,
				"y": 4.4102065375,
				"z": 1.7550510778,
				"element": "Br" 
			},
			{
				"x": 1.7967851062,
				"y": -0.5010558665,
				"z": -3.5565817269,
				"element": "H" 
			},
			{
				"x": 0.4430369516,
				"y": -1.6126276472,
				"z": -3.3086914159,
				"element": "H" 
			},
			{
				"x": 1.9760792617,
				"y": -1.9071292008,
				"z": -2.4984680856,
				"element": "H" 
			},
			{
				"x": -0.7026966033,
				"y": -2.6257224506,
				"z": 0.3718787644,
				"element": "H" 
			},
			{
				"x": -0.7783443823,
				"y": -2.6438143467,
				"z": -1.3951878602,
				"element": "H" 
			},
			{
				"x": 0.7524460562,
				"y": -2.9453948538,
				"z": -0.582177486,
				"element": "H" 
			},
			{
				"x": -0.794113807,
				"y": -0.5034101304,
				"z": 1.3476220544,
				"element": "H" 
			},
			{
				"x": 0.8741602773,
				"y": 2.9581890175,
				"z": -0.5622524768,
				"element": "H" 
			},
			{
				"x": 1.6024092779,
				"y": 1.5544929276,
				"z": -2.4437242246,
				"element": "H" 
			},
			{
				"x": -2.4621576539,
				"y": 2.4746020649,
				"z": 4.0326044901,
				"element": "H" 
			},
			{
				"x": -0.7979584048,
				"y": 4.4300580972,
				"z": 4.0380675528,
				"element": "H" 
			}
		],
		 "valence_orbital": [ 
			{
				"type": "occ",
				"energy": -0.27893,
				"method": "rhf"
			},
			{
				"type": "occ",
				"energy": -0.27674,
				"method": "rhf"
			},
			{
				"type": "occ",
				"energy": -0.23917,
				"method": "rhf"
			},
			{
				"type": "occ",
				"energy": -0.23384,
				"method": "rhf"
			},
			{
				"type": "occ",
				"energy": -0.21367,
				"method": "rhf"
			},
			{
				"type": "unocc",
				"energy": -0.0153,
				"method": "rhf"
			},
			{
				"type": "unocc",
				"energy": 0.00973,
				"method": "rhf"
			},
			{
				"type": "unocc",
				"energy": 0.01499,
				"method": "rhf"
			},
			{
				"type": "unocc",
				"energy": 0.01981,
				"method": "rhf"
			},
			{
				"type": "unocc",
				"energy": 0.07934,
				"method": "rhf"
			}
		],
		"cosmo_sigma_profile": { 
			"-0.025": 0.0,
			"-0.024": 0.0,
			"-0.023": 0.0,
			"-0.022": 0.0,
			"-0.021": 0.0,
			"-0.02": 0.0,
			"-0.019": 0.0,
			"-0.018": 0.0836563155426,
			"-0.017": 1.72752425264,
			"-0.016": 1.6578160293,
			"-0.015": 1.26984027523,
			"-0.014": 0.997079162171,
			"-0.013": 0.634513598442,
			"-0.012": 1.25866793521,
			"-0.011": 1.30723576286,
			"-0.01": 2.84502848717,
			"-0.009": 2.6629170765,
			"-0.008": 2.11313026504,
			"-0.007": 2.2610451507,
			"-0.006": 1.6776855475,
			"-0.005": 5.84640463642,
			"-0.004": 19.1270123241,
			"-0.003": 19.9100864157,
			"-0.002": 19.6035020854,
			"-0.001": 19.4251129938,
			"0.0": 23.7192873049,
			"0.001": 20.462888988,
			"0.002": 20.4152519348,
			"0.003": 23.9128485075,
			"0.004": 19.9587329265,
			"0.005": 14.4656012783,
			"0.006": 10.4296729131,
			"0.007": 2.16255189389,
			"0.008": 1.44947456822,
			"0.009": 1.11537659966,
			"0.01": 1.56006204679,
			"0.011": 1.08017055873,
			"0.012": 0.851293807121,
			"0.013": 1.019248139,
			"0.014": 0.48561928275,
			"0.015": 0.162626577878,
			"0.016": 0.0,
			"0.017": 0.0,
			"0.018": 0.0,
			"0.019": 0.0,
			"0.02": 0.0,
			"0.021": 0.0,
			"0.022": 0.0,
			"0.023": 0.0,
			"0.024": 0.0,
			"0.025": 0.0
		}
	}
}
