{
	 "smiles": "CCOC(=O)C1=CC(=CC(=C1)[N+]([O-])=O)[N+]([O-])=O", 
	 "Tm": 366.15, 
	 "num_atms": 25, 
	 "gaussian": { 
		 "optdone": 1, 
		 "sigma_profile": "yes", 
		 "theory": "DFT", 
		 "functional": "B3LYP", 
		 "basiset": "6-31G**", 
		 "properties": { 
			 "R2extent": 6037.0265, 
			 "electric_dipole_moment_norm": 4.7326970334, 
			 "electric_quadrupole_moment_norm": 18.9648888499, 
			 "total_energy": -908.436123892, 
			 "HOMO_LUMO_gap": 0.18574, 
			 "cosmo_polarized_energy": -13.1, 
			 "cosmo_cavitation_energy": 32.16, 
			 "cosmo_dispersion_energy": -22.88, 
			 "cosmo_repulsion_energy": 1.79, 
			 "cosmo_total_nonelectrostatic_energy": 11.07, 
			 "SMD_solvation_energy": 11.29 
		},
		"coords": [
			{
				"x": 1.5352254905,
				"y": 4.6205509718,
				"z": 0.1662368198,
				"element": "C" 
			},
			{
				"x": 1.8638305137,
				"y": 3.216712794,
				"z": 0.6479849077,
				"element": "C" 
			},
			{
				"x": 1.0976662156,
				"y": 2.2186014868,
				"z": -0.0806325261,
				"element": "O" 
			},
			{
				"x": -0.1338526382,
				"y": 1.9463688715,
				"z": 0.3825704144,
				"element": "C" 
			},
			{
				"x": -0.6403695519,
				"y": 2.4632072289,
				"z": 1.3574952237,
				"element": "O" 
			},
			{
				"x": -0.8272499201,
				"y": 0.9089220473,
				"z": -0.4487194807,
				"element": "C" 
			},
			{
				"x": -0.2277145016,
				"y": 0.329901517,
				"z": -1.5718918438,
				"element": "C" 
			},
			{
				"x": -0.9371880398,
				"y": -0.6271851229,
				"z": -2.2922846522,
				"element": "C" 
			},
			{
				"x": -2.2197717227,
				"y": -1.0310542466,
				"z": -1.9388805318,
				"element": "C" 
			},
			{
				"x": -2.7854422152,
				"y": -0.4343799722,
				"z": -0.8168262534,
				"element": "C" 
			},
			{
				"x": -2.1172177389,
				"y": 0.5262306301,
				"z": -0.065566327,
				"element": "C" 
			},
			{
				"x": -4.1481389146,
				"y": -0.8402862426,
				"z": -0.4133199701,
				"element": "N" 
			},
			{
				"x": -4.7076375583,
				"y": -1.6912297293,
				"z": -1.0998143839,
				"element": "O" 
			},
			{
				"x": -4.6254683465,
				"y": -0.2985841182,
				"z": 0.5796183857,
				"element": "O" 
			},
			{
				"x": -0.3056129695,
				"y": -1.2395536704,
				"z": -3.4795102613,
				"element": "N" 
			},
			{
				"x": -0.9561743446,
				"y": -2.0812283906,
				"z": -4.0926770276,
				"element": "O" 
			},
			{
				"x": 0.8270764991,
				"y": -0.8639015984,
				"z": -3.7711545345,
				"element": "O" 
			},
			{
				"x": 0.4957874316,
				"y": 4.8730971224,
				"z": 0.3892903367,
				"element": "H" 
			},
			{
				"x": 2.1797106223,
				"y": 5.3432836126,
				"z": 0.6770207037,
				"element": "H" 
			},
			{
				"x": 1.7020938517,
				"y": 4.7135633249,
				"z": -0.9106937211,
				"element": "H" 
			},
			{
				"x": 1.6569063402,
				"y": 3.1014156221,
				"z": 1.7140711592,
				"element": "H" 
			},
			{
				"x": 2.9036689029,
				"y": 2.9520642054,
				"z": 0.445851879,
				"element": "H" 
			},
			{
				"x": 0.7683047565,
				"y": 0.6124544575,
				"z": -1.8850034088,
				"element": "H" 
			},
			{
				"x": -2.7547170313,
				"y": -1.7764534752,
				"z": -2.5114755857,
				"element": "H" 
			},
			{
				"x": -2.5833151309,
				"y": 0.9736826738,
				"z": 0.8034106779,
				"element": "H" 
			}
		],
		 "valence_orbital": [ 
			{
				"type": "occ",
				"energy": -0.3162,
				"method": "rhf"
			},
			{
				"type": "occ",
				"energy": -0.31401,
				"method": "rhf"
			},
			{
				"type": "occ",
				"energy": -0.31183,
				"method": "rhf"
			},
			{
				"type": "occ",
				"energy": -0.31086,
				"method": "rhf"
			},
			{
				"type": "occ",
				"energy": -0.30268,
				"method": "rhf"
			},
			{
				"type": "unocc",
				"energy": -0.11694,
				"method": "rhf"
			},
			{
				"type": "unocc",
				"energy": -0.11022,
				"method": "rhf"
			},
			{
				"type": "unocc",
				"energy": -0.07385,
				"method": "rhf"
			},
			{
				"type": "unocc",
				"energy": -0.01378,
				"method": "rhf"
			},
			{
				"type": "unocc",
				"energy": 0.03093,
				"method": "rhf"
			}
		],
		"cosmo_sigma_profile": { 
			"-0.025": 0.0,
			"-0.024": 0.0,
			"-0.023": 0.0,
			"-0.022": 0.0,
			"-0.021": 0.0,
			"-0.02": 0.0,
			"-0.019": 0.0,
			"-0.018": 0.0,
			"-0.017": 0.0,
			"-0.016": 0.0,
			"-0.015": 0.0,
			"-0.014": 0.0,
			"-0.013": 0.0,
			"-0.012": 0.0,
			"-0.011": 0.0,
			"-0.01": 0.0,
			"-0.009": 0.824511191383,
			"-0.008": 3.40591404297,
			"-0.007": 5.09808736321,
			"-0.006": 12.8389569708,
			"-0.005": 20.398414497,
			"-0.004": 38.0709610268,
			"-0.003": 31.3769958771,
			"-0.002": 17.8522012103,
			"-0.001": 15.4902509128,
			"0.0": 14.2374390327,
			"0.001": 10.4822275753,
			"0.002": 6.82192418554,
			"0.003": 7.93351724501,
			"0.004": 8.39064049095,
			"0.005": 9.04465115667,
			"0.006": 15.3706490752,
			"0.007": 16.4327256291,
			"0.008": 10.6487503548,
			"0.009": 6.62544901747,
			"0.01": 2.88228006684,
			"0.011": 3.39871217284,
			"0.012": 0.110087254284,
			"0.013": 0.0,
			"0.014": 0.0,
			"0.015": 0.0,
			"0.016": 0.0,
			"0.017": 0.0,
			"0.018": 0.0,
			"0.019": 0.0,
			"0.02": 0.0,
			"0.021": 0.0,
			"0.022": 0.0,
			"0.023": 0.0,
			"0.024": 0.0,
			"0.025": 0.0
		}
	}
}
