{
	 "smiles": "OC(=O)C1=CC(=C(C=C1)N1C=NC=N1)[N+]([O-])=O", 
	 "Tm": 548.15, 
	 "num_atms": 23, 
	 "gaussian": { 
		 "optdone": 1, 
		 "sigma_profile": "yes", 
		 "theory": "DFT", 
		 "functional": "B3LYP", 
		 "basiset": "6-31G**", 
		 "properties": { 
			 "R2extent": 4345.5837, 
			 "electric_dipole_moment_norm": 1.95848996168, 
			 "electric_quadrupole_moment_norm": 17.2373567866, 
			 "total_energy": -866.343132382, 
			 "HOMO_LUMO_gap": 0.1704, 
			 "cosmo_polarized_energy": -23.95, 
			 "cosmo_cavitation_energy": 29.95, 
			 "cosmo_dispersion_energy": -21.26, 
			 "cosmo_repulsion_energy": 1.61, 
			 "cosmo_total_nonelectrostatic_energy": 10.3, 
			 "SMD_solvation_energy": 7.11 
		},
		"coords": [
			{
				"x": 2.2340206467,
				"y": 1.0478516675,
				"z": 4.0168662897,
				"element": "O" 
			},
			{
				"x": 2.1334353483,
				"y": 1.8807818529,
				"z": 2.9531819844,
				"element": "C" 
			},
			{
				"x": 2.638072887,
				"y": 2.977202197,
				"z": 2.9827180764,
				"element": "O" 
			},
			{
				"x": 1.3713694174,
				"y": 1.3792343275,
				"z": 1.7581928591,
				"element": "C" 
			},
			{
				"x": 0.4381771296,
				"y": 0.3418777213,
				"z": 1.8269032697,
				"element": "C" 
			},
			{
				"x": -0.2620268441,
				"y": -0.0469275981,
				"z": 0.6893502058,
				"element": "C" 
			},
			{
				"x": -0.0058518008,
				"y": 0.5501357412,
				"z": -0.5545585104,
				"element": "C" 
			},
			{
				"x": 0.929210259,
				"y": 1.59064205,
				"z": -0.6143793983,
				"element": "C" 
			},
			{
				"x": 1.5862897203,
				"y": 2.0215701983,
				"z": 0.5317004856,
				"element": "C" 
			},
			{
				"x": -0.6165767358,
				"y": 0.1060950872,
				"z": -1.7455517619,
				"element": "N" 
			},
			{
				"x": -1.199488535,
				"y": 0.8378733629,
				"z": -2.738605685,
				"element": "C" 
			},
			{
				"x": -1.6408170923,
				"y": 0.0433500809,
				"z": -3.6883679446,
				"element": "N" 
			},
			{
				"x": -1.298648556,
				"y": -1.1978958853,
				"z": -3.2275565553,
				"element": "C" 
			},
			{
				"x": -0.6813894814,
				"y": -1.2210392495,
				"z": -2.0601168278,
				"element": "N" 
			},
			{
				"x": -1.3364275218,
				"y": -1.0397394962,
				"z": 0.88390206,
				"element": "N" 
			},
			{
				"x": -1.138031138,
				"y": -1.9064076849,
				"z": 1.7330125763,
				"element": "O" 
			},
			{
				"x": -2.3639340651,
				"y": -0.8933074972,
				"z": 0.2343836226,
				"element": "O" 
			},
			{
				"x": 1.9392418065,
				"y": 0.1542124012,
				"z": 3.7926952239,
				"element": "H" 
			},
			{
				"x": 0.1892418358,
				"y": -0.158183798,
				"z": 2.7566483308,
				"element": "H" 
			},
			{
				"x": 1.156265952,
				"y": 2.0341222503,
				"z": -1.5779863917,
				"element": "H" 
			},
			{
				"x": 2.2982067585,
				"y": 2.8384656518,
				"z": 0.4924776687,
				"element": "H" 
			},
			{
				"x": -1.2898116899,
				"y": 1.9144191615,
				"z": -2.6993012073,
				"element": "H" 
			},
			{
				"x": -1.506028301,
				"y": -2.1077325422,
				"z": -3.7733083709,
				"element": "H" 
			}
		],
		 "valence_orbital": [ 
			{
				"type": "occ",
				"energy": -0.30455,
				"method": "rhf"
			},
			{
				"type": "occ",
				"energy": -0.30013,
				"method": "rhf"
			},
			{
				"type": "occ",
				"energy": -0.29701,
				"method": "rhf"
			},
			{
				"type": "occ",
				"energy": -0.29445,
				"method": "rhf"
			},
			{
				"type": "occ",
				"energy": -0.28029,
				"method": "rhf"
			},
			{
				"type": "unocc",
				"energy": -0.10989,
				"method": "rhf"
			},
			{
				"type": "unocc",
				"energy": -0.08602,
				"method": "rhf"
			},
			{
				"type": "unocc",
				"energy": -0.04519,
				"method": "rhf"
			},
			{
				"type": "unocc",
				"energy": -0.0182,
				"method": "rhf"
			},
			{
				"type": "unocc",
				"energy": 0.02143,
				"method": "rhf"
			}
		],
		"cosmo_sigma_profile": { 
			"-0.025": 0.0,
			"-0.024": 0.0,
			"-0.023": 0.0,
			"-0.022": 0.0,
			"-0.021": 0.00433296596127,
			"-0.02": 0.665368897232,
			"-0.019": 1.08210297002,
			"-0.018": 1.05168465206,
			"-0.017": 1.31811866745,
			"-0.016": 1.07004500932,
			"-0.015": 0.553629976199,
			"-0.014": 1.37489507212,
			"-0.013": 1.10077303807,
			"-0.012": 2.07147367828,
			"-0.011": 3.12981123317,
			"-0.01": 4.57887123006,
			"-0.009": 9.94370991857,
			"-0.008": 10.3423458281,
			"-0.007": 9.20613028944,
			"-0.006": 8.39479206096,
			"-0.005": 9.16436956551,
			"-0.004": 10.0120207599,
			"-0.003": 15.3503800304,
			"-0.002": 17.3303200388,
			"-0.001": 13.5642507558,
			"0.0": 10.759774755,
			"0.001": 9.00022781144,
			"0.002": 9.42059669461,
			"0.003": 8.03980196974,
			"0.004": 8.75626847642,
			"0.005": 9.1110175629,
			"0.006": 12.1764219065,
			"0.007": 14.669020337,
			"0.008": 8.5152499487,
			"0.009": 9.33526252148,
			"0.01": 6.64870727551,
			"0.011": 7.03707120481,
			"0.012": 3.61927218164,
			"0.013": 1.65228445342,
			"0.014": 0.979897015536,
			"0.015": 0.884483408643,
			"0.016": 0.324787833132,
			"0.017": 0.0,
			"0.018": 0.0,
			"0.019": 0.0,
			"0.02": 0.0,
			"0.021": 0.0,
			"0.022": 0.0,
			"0.023": 0.0,
			"0.024": 0.0,
			"0.025": 0.0
		}
	}
}
