{
	 "smiles": "NC1=CC(Br)=C(C=C1)[N+]([O-])=O", 
	 "Tm": 443.15, 
	 "num_atms": 16, 
	 "gaussian": { 
		 "optdone": 1, 
		 "sigma_profile": "yes", 
		 "theory": "DFT", 
		 "functional": "B3LYP", 
		 "basiset": "6-31G**", 
		 "properties": { 
			 "R2extent": 3596.2569, 
			 "electric_dipole_moment_norm": 7.43138927927, 
			 "electric_quadrupole_moment_norm": 16.6802752801, 
			 "total_energy": -3062.89980487, 
			 "HOMO_LUMO_gap": 0.16072, 
			 "cosmo_polarized_energy": -16.26, 
			 "cosmo_cavitation_energy": 23.22, 
			 "cosmo_dispersion_energy": -17.79, 
			 "cosmo_repulsion_energy": 1.43, 
			 "cosmo_total_nonelectrostatic_energy": 6.86, 
			 "SMD_solvation_energy": 5.16 
		},
		"coords": [
			{
				"x": 0.4356707143,
				"y": 2.6264508101,
				"z": 1.3956032452,
				"element": "N" 
			},
			{
				"x": 0.4016475145,
				"y": 1.7242051622,
				"z": 0.3573438276,
				"element": "C" 
			},
			{
				"x": 1.5617132467,
				"y": 1.0196094516,
				"z": -0.0143934942,
				"element": "C" 
			},
			{
				"x": 1.5446143446,
				"y": 0.080365431,
				"z": -1.0396113577,
				"element": "C" 
			},
			{
				"x": 3.194654101,
				"y": -0.8071661575,
				"z": -1.3674113427,
				"element": "Br" 
			},
			{
				"x": 0.3400079123,
				"y": -0.1847895884,
				"z": -1.7164118216,
				"element": "C" 
			},
			{
				"x": -0.8198759325,
				"y": 0.5030686454,
				"z": -1.3324623726,
				"element": "C" 
			},
			{
				"x": -0.8010068786,
				"y": 1.4458678535,
				"z": -0.3237493223,
				"element": "C" 
			},
			{
				"x": 0.1967236734,
				"y": -1.131125808,
				"z": -2.8224806717,
				"element": "N" 
			},
			{
				"x": 1.2020461495,
				"y": -1.4826637295,
				"z": -3.4358199386,
				"element": "O" 
			},
			{
				"x": -0.9481063292,
				"y": -1.5099549919,
				"z": -3.0900963466,
				"element": "O" 
			},
			{
				"x": 1.3334604057,
				"y": 2.9827857706,
				"z": 1.6854914823,
				"element": "H" 
			},
			{
				"x": -0.3237978988,
				"y": 3.2853856208,
				"z": 1.4724355051,
				"element": "H" 
			},
			{
				"x": 2.4924529337,
				"y": 1.2003312466,
				"z": 0.5117677141,
				"element": "H" 
			},
			{
				"x": -1.7362896872,
				"y": 0.2731829234,
				"z": -1.8611834301,
				"element": "H" 
			},
			{
				"x": -1.7125142696,
				"y": 1.9703473601,
				"z": -0.0530216761,
				"element": "H" 
			}
		],
		 "valence_orbital": [ 
			{
				"type": "occ",
				"energy": -0.29562,
				"method": "rhf"
			},
			{
				"type": "occ",
				"energy": -0.28965,
				"method": "rhf"
			},
			{
				"type": "occ",
				"energy": -0.26657,
				"method": "rhf"
			},
			{
				"type": "occ",
				"energy": -0.25935,
				"method": "rhf"
			},
			{
				"type": "occ",
				"energy": -0.23662,
				"method": "rhf"
			},
			{
				"type": "unocc",
				"energy": -0.0759,
				"method": "rhf"
			},
			{
				"type": "unocc",
				"energy": -0.03047,
				"method": "rhf"
			},
			{
				"type": "unocc",
				"energy": -0.00488,
				"method": "rhf"
			},
			{
				"type": "unocc",
				"energy": 0.00874,
				"method": "rhf"
			},
			{
				"type": "unocc",
				"energy": 0.05463,
				"method": "rhf"
			}
		],
		"cosmo_sigma_profile": { 
			"-0.025": 0.0,
			"-0.024": 0.0,
			"-0.023": 0.0,
			"-0.022": 0.0,
			"-0.021": 0.0,
			"-0.02": 0.0,
			"-0.019": 0.0,
			"-0.018": 0.0,
			"-0.017": 0.0,
			"-0.016": 0.0,
			"-0.015": 0.202513049238,
			"-0.014": 2.99954884121,
			"-0.013": 3.50970735898,
			"-0.012": 3.15752233884,
			"-0.011": 3.19457725351,
			"-0.01": 3.31076240504,
			"-0.009": 3.32694860772,
			"-0.008": 4.01455337428,
			"-0.007": 5.22387597766,
			"-0.006": 5.88266177931,
			"-0.005": 7.07296196296,
			"-0.004": 7.44532338809,
			"-0.003": 8.99242421187,
			"-0.002": 8.8794880525,
			"-0.001": 8.93911741203,
			"0.0": 12.6279629827,
			"0.001": 21.0746519066,
			"0.002": 18.2359514547,
			"0.003": 10.6052361619,
			"0.004": 10.1347894937,
			"0.005": 4.6935518616,
			"0.006": 5.15444372461,
			"0.007": 4.692324563,
			"0.008": 9.71602777559,
			"0.009": 8.93477632985,
			"0.01": 5.08825446722,
			"0.011": 1.95910856709,
			"0.012": 0.0100547980901,
			"0.013": 0.0,
			"0.014": 0.0,
			"0.015": 0.0,
			"0.016": 0.0,
			"0.017": 0.0,
			"0.018": 0.0,
			"0.019": 0.0,
			"0.02": 0.0,
			"0.021": 0.0,
			"0.022": 0.0,
			"0.023": 0.0,
			"0.024": 0.0,
			"0.025": 0.0
		}
	}
}
