{
	 "smiles": "CC1=C(Cl)N=CN=C1Cl", 
	 "Tm": 331.15, 
	 "num_atms": 13, 
	 "gaussian": { 
		 "optdone": 1, 
		 "sigma_profile": "yes", 
		 "theory": "DFT", 
		 "functional": "B3LYP", 
		 "basiset": "6-31G**", 
		 "properties": { 
			 "R2extent": 2298.163, 
			 "electric_dipole_moment_norm": 1.49101677053, 
			 "electric_quadrupole_moment_norm": 6.84040018274, 
			 "total_energy": -1222.82850455, 
			 "HOMO_LUMO_gap": 0.22315, 
			 "cosmo_polarized_energy": -5.8, 
			 "cosmo_cavitation_energy": 20.7, 
			 "cosmo_dispersion_energy": -15.93, 
			 "cosmo_repulsion_energy": 1.3, 
			 "cosmo_total_nonelectrostatic_energy": 6.07, 
			 "SMD_solvation_energy": 0.54 
		},
		"coords": [
			{
				"x": 1.2136073215,
				"y": 0.3201980935,
				"z": -1.2862848652,
				"element": "C" 
			},
			{
				"x": 0.8095380094,
				"y": 1.0081414682,
				"z": -0.0139513919,
				"element": "C" 
			},
			{
				"x": 1.7127097512,
				"y": 1.6436866876,
				"z": 0.8570924847,
				"element": "C" 
			},
			{
				"x": 3.4280655276,
				"y": 1.6378091206,
				"z": 0.4795056132,
				"element": "Cl" 
			},
			{
				"x": 1.3775873514,
				"y": 2.2609146515,
				"z": 1.9785901672,
				"element": "N" 
			},
			{
				"x": 0.0787611034,
				"y": 2.2558888999,
				"z": 2.2815067315,
				"element": "C" 
			},
			{
				"x": -0.8928699759,
				"y": 1.6827162,
				"z": 1.5700747317,
				"element": "N" 
			},
			{
				"x": -0.5142609817,
				"y": 1.0765512684,
				"z": 0.4564089537,
				"element": "C" 
			},
			{
				"x": -1.7990232838,
				"y": 0.3065708168,
				"z": -0.4609524433,
				"element": "Cl" 
			},
			{
				"x": 0.4062324329,
				"y": 0.3533251799,
				"z": -2.018821531,
				"element": "H" 
			},
			{
				"x": 1.4482832867,
				"y": -0.7344494743,
				"z": -1.0988320824,
				"element": "H" 
			},
			{
				"x": 2.1029128888,
				"y": 0.7851368766,
				"z": -1.7135203716,
				"element": "H" 
			},
			{
				"x": -0.2149434314,
				"y": 2.7623102112,
				"z": 3.1970840032,
				"element": "H" 
			}
		],
		 "valence_orbital": [ 
			{
				"type": "occ",
				"energy": -0.32994,
				"method": "rhf"
			},
			{
				"type": "occ",
				"energy": -0.32869,
				"method": "rhf"
			},
			{
				"type": "occ",
				"energy": -0.30671,
				"method": "rhf"
			},
			{
				"type": "occ",
				"energy": -0.28423,
				"method": "rhf"
			},
			{
				"type": "occ",
				"energy": -0.28279,
				"method": "rhf"
			},
			{
				"type": "unocc",
				"energy": -0.05964,
				"method": "rhf"
			},
			{
				"type": "unocc",
				"energy": -0.05246,
				"method": "rhf"
			},
			{
				"type": "unocc",
				"energy": -0.00063,
				"method": "rhf"
			},
			{
				"type": "unocc",
				"energy": 0.04271,
				"method": "rhf"
			},
			{
				"type": "unocc",
				"energy": 0.09523,
				"method": "rhf"
			}
		],
		"cosmo_sigma_profile": { 
			"-0.025": 0.0,
			"-0.024": 0.0,
			"-0.023": 0.0,
			"-0.022": 0.0,
			"-0.021": 0.0,
			"-0.02": 0.0,
			"-0.019": 0.0,
			"-0.018": 0.0,
			"-0.017": 0.0,
			"-0.016": 0.0,
			"-0.015": 0.0,
			"-0.014": 0.0,
			"-0.013": 0.0,
			"-0.012": 0.0,
			"-0.011": 0.0,
			"-0.01": 0.0458050296746,
			"-0.009": 1.84558603744,
			"-0.008": 1.36427437721,
			"-0.007": 2.34288597091,
			"-0.006": 4.34780370014,
			"-0.005": 9.13826092596,
			"-0.004": 16.904008036,
			"-0.003": 19.267785401,
			"-0.002": 19.1465059479,
			"-0.001": 13.7084849333,
			"0.0": 10.759409982,
			"0.001": 14.6827482576,
			"0.002": 11.8789856657,
			"0.003": 15.3985752225,
			"0.004": 8.58428731134,
			"0.005": 5.3249502048,
			"0.006": 2.90494381593,
			"0.007": 2.45446714956,
			"0.008": 2.18096546413,
			"0.009": 2.73549425892,
			"0.01": 1.929841276,
			"0.011": 1.35960438482,
			"0.012": 2.04819785159,
			"0.013": 0.903342275415,
			"0.014": 0.0,
			"0.015": 0.0,
			"0.016": 0.0,
			"0.017": 0.0,
			"0.018": 0.0,
			"0.019": 0.0,
			"0.02": 0.0,
			"0.021": 0.0,
			"0.022": 0.0,
			"0.023": 0.0,
			"0.024": 0.0,
			"0.025": 0.0
		}
	}
}
