{
	 "smiles": "COC1=C(CS(Cl)(=O)=O)C=C(Cl)C=C1", 
	 "Tm": 343.15, 
	 "num_atms": 22, 
	 "gaussian": { 
		 "optdone": 1, 
		 "sigma_profile": "yes", 
		 "theory": "DFT", 
		 "functional": "B3LYP", 
		 "basiset": "6-31G**", 
		 "properties": { 
			 "R2extent": 5593.5349, 
			 "electric_dipole_moment_norm": 5.79858060908, 
			 "electric_quadrupole_moment_norm": 11.5822950411, 
			 "total_energy": -1853.84331194, 
			 "HOMO_LUMO_gap": 0.15232, 
			 "cosmo_polarized_energy": -13.19, 
			 "cosmo_cavitation_energy": 31.7, 
			 "cosmo_dispersion_energy": -22.91, 
			 "cosmo_repulsion_energy": 1.79, 
			 "cosmo_total_nonelectrostatic_energy": 10.58, 
			 "SMD_solvation_energy": 4.45 
		},
		"coords": [
			{
				"x": -1.2919821671,
				"y": -1.277534459,
				"z": -1.7846294305,
				"element": "C" 
			},
			{
				"x": -0.6512083017,
				"y": -0.065475379,
				"z": -1.4028188493,
				"element": "O" 
			},
			{
				"x": 0.2608870807,
				"y": -0.0935049601,
				"z": -0.3980824536,
				"element": "C" 
			},
			{
				"x": 0.8052512788,
				"y": 1.1555839817,
				"z": -0.0233207654,
				"element": "C" 
			},
			{
				"x": 0.3481429937,
				"y": 2.4037748246,
				"z": -0.7120613261,
				"element": "C" 
			},
			{
				"x": -1.005471003,
				"y": 3.2115743627,
				"z": 0.2459664016,
				"element": "S" 
			},
			{
				"x": -1.4185297439,
				"y": 4.8391924741,
				"z": -1.091883059,
				"element": "Cl" 
			},
			{
				"x": -2.1933282316,
				"y": 2.3683160724,
				"z": 0.2715630118,
				"element": "O" 
			},
			{
				"x": -0.4521662625,
				"y": 3.7934918434,
				"z": 1.4636584438,
				"element": "O" 
			},
			{
				"x": 1.7500328538,
				"y": 1.2158509423,
				"z": 1.0046142597,
				"element": "C" 
			},
			{
				"x": 2.1648868708,
				"y": 0.0496663495,
				"z": 1.6429505262,
				"element": "C" 
			},
			{
				"x": 3.3612295746,
				"y": 0.1382638525,
				"z": 2.9238277747,
				"element": "Cl" 
			},
			{
				"x": 1.637263827,
				"y": -1.1846020967,
				"z": 1.2711730746,
				"element": "C" 
			},
			{
				"x": 0.6879602175,
				"y": -1.2572018892,
				"z": 0.251469017,
				"element": "C" 
			},
			{
				"x": -0.5720251044,
				"y": -2.0039802779,
				"z": -2.180868637,
				"element": "H" 
			},
			{
				"x": -1.8355502838,
				"y": -1.7208519839,
				"z": -0.9424498114,
				"element": "H" 
			},
			{
				"x": -1.9995518742,
				"y": -1.0050985472,
				"z": -2.5678692676,
				"element": "H" 
			},
			{
				"x": 1.1225052413,
				"y": 3.1706278787,
				"z": -0.7713621752,
				"element": "H" 
			},
			{
				"x": -0.0761959165,
				"y": 2.2097864445,
				"z": -1.696810291,
				"element": "H" 
			},
			{
				"x": 2.1549472548,
				"y": 2.1750054987,
				"z": 1.3086573536,
				"element": "H" 
			},
			{
				"x": 1.9646928498,
				"y": -2.0880773708,
				"z": 1.7736103329,
				"element": "H" 
			},
			{
				"x": 0.2861088458,
				"y": -2.2239075612,
				"z": -0.0253341299,
				"element": "H" 
			}
		],
		 "valence_orbital": [ 
			{
				"type": "occ",
				"energy": -0.32146,
				"method": "rhf"
			},
			{
				"type": "occ",
				"energy": -0.31846,
				"method": "rhf"
			},
			{
				"type": "occ",
				"energy": -0.31144,
				"method": "rhf"
			},
			{
				"type": "occ",
				"energy": -0.28037,
				"method": "rhf"
			},
			{
				"type": "occ",
				"energy": -0.23973,
				"method": "rhf"
			},
			{
				"type": "unocc",
				"energy": -0.08741,
				"method": "rhf"
			},
			{
				"type": "unocc",
				"energy": -0.0333,
				"method": "rhf"
			},
			{
				"type": "unocc",
				"energy": -0.01862,
				"method": "rhf"
			},
			{
				"type": "unocc",
				"energy": 0.01926,
				"method": "rhf"
			},
			{
				"type": "unocc",
				"energy": 0.03901,
				"method": "rhf"
			}
		],
		"cosmo_sigma_profile": { 
			"-0.025": 0.0,
			"-0.024": 0.0,
			"-0.023": 0.0,
			"-0.022": 0.0,
			"-0.021": 0.0,
			"-0.02": 0.0,
			"-0.019": 0.0,
			"-0.018": 0.0,
			"-0.017": 0.0,
			"-0.016": 0.0,
			"-0.015": 0.0,
			"-0.014": 0.0,
			"-0.013": 0.0,
			"-0.012": 0.0,
			"-0.011": 0.807724507938,
			"-0.01": 2.87118752212,
			"-0.009": 3.67235685718,
			"-0.008": 6.77307607327,
			"-0.007": 11.4694699278,
			"-0.006": 16.4069358515,
			"-0.005": 14.2884320294,
			"-0.004": 14.2780058872,
			"-0.003": 13.1888075171,
			"-0.002": 10.2960196814,
			"-0.001": 14.3861676194,
			"0.0": 17.3891689697,
			"0.001": 22.6635354889,
			"0.002": 24.901663098,
			"0.003": 22.2051187755,
			"0.004": 23.8647716925,
			"0.005": 10.3856123287,
			"0.006": 4.0029294273,
			"0.007": 5.5102053366,
			"0.008": 11.4688412727,
			"0.009": 7.03432720812,
			"0.01": 0.274436356608,
			"0.011": 0.0,
			"0.012": 0.0,
			"0.013": 0.0,
			"0.014": 0.0,
			"0.015": 0.0,
			"0.016": 0.0,
			"0.017": 0.0,
			"0.018": 0.0,
			"0.019": 0.0,
			"0.02": 0.0,
			"0.021": 0.0,
			"0.022": 0.0,
			"0.023": 0.0,
			"0.024": 0.0,
			"0.025": 0.0
		}
	}
}
