{
	 "smiles": "C1=CC2=C(N=C1)C1=C(C=CC=N1)C=C2", 
	 "Tm": 391.15, 
	 "num_atms": 22, 
	 "gaussian": { 
		 "optdone": 1, 
		 "sigma_profile": "yes", 
		 "theory": "DFT", 
		 "functional": "B3LYP", 
		 "basiset": "6-31G**", 
		 "properties": { 
			 "R2extent": 2537.299, 
			 "electric_dipole_moment_norm": 3.21109043473, 
			 "electric_quadrupole_moment_norm": 14.6927349554, 
			 "total_energy": -571.610168278, 
			 "HOMO_LUMO_gap": 0.17749, 
			 "cosmo_polarized_energy": -13.68, 
			 "cosmo_cavitation_energy": 25.99, 
			 "cosmo_dispersion_energy": -19.71, 
			 "cosmo_repulsion_energy": 1.5, 
			 "cosmo_total_nonelectrostatic_energy": 7.77, 
			 "SMD_solvation_energy": 1.55 
		},
		"coords": [
			{
				"x": 2.4019721392,
				"y": -2.6666908678,
				"z": -0.4739688741,
				"element": "C" 
			},
			{
				"x": 1.0340285255,
				"y": -2.7417926498,
				"z": -0.6312244304,
				"element": "C" 
			},
			{
				"x": 0.2548791591,
				"y": -1.5703450119,
				"z": -0.5041250535,
				"element": "C" 
			},
			{
				"x": 0.9352098236,
				"y": -0.3514230664,
				"z": -0.2150960405,
				"element": "C" 
			},
			{
				"x": 2.2779590232,
				"y": -0.2901686244,
				"z": -0.0630133104,
				"element": "N" 
			},
			{
				"x": 2.9729375905,
				"y": -1.4088240664,
				"z": -0.1895177589,
				"element": "C" 
			},
			{
				"x": 0.1553617771,
				"y": 0.874460841,
				"z": -0.0782552669,
				"element": "C" 
			},
			{
				"x": -1.2597149951,
				"y": 0.8105109205,
				"z": -0.2383275102,
				"element": "C" 
			},
			{
				"x": -1.9900102732,
				"y": 2.0118506919,
				"z": -0.1005916674,
				"element": "C" 
			},
			{
				"x": -1.3201468013,
				"y": 3.1843342597,
				"z": 0.17906826,
				"element": "C" 
			},
			{
				"x": 0.0825350117,
				"y": 3.1347938994,
				"z": 0.317559616,
				"element": "C" 
			},
			{
				"x": 0.8014657597,
				"y": 2.0308224791,
				"z": 0.1960285658,
				"element": "N" 
			},
			{
				"x": -1.8989494917,
				"y": -0.4407263449,
				"z": -0.5288567721,
				"element": "C" 
			},
			{
				"x": -1.1717325785,
				"y": -1.5838642932,
				"z": -0.6564959233,
				"element": "C" 
			},
			{
				"x": 3.0321738831,
				"y": -3.5458620825,
				"z": -0.5645623241,
				"element": "H" 
			},
			{
				"x": 0.5444345891,
				"y": -3.6872492302,
				"z": -0.8513985625,
				"element": "H" 
			},
			{
				"x": 4.0513628087,
				"y": -1.3216379441,
				"z": -0.0605714681,
				"element": "H" 
			},
			{
				"x": -3.0708709253,
				"y": 1.9958319391,
				"z": -0.2169956897,
				"element": "H" 
			},
			{
				"x": -1.8482570948,
				"y": 4.1259903557,
				"z": 0.2916979969,
				"element": "H" 
			},
			{
				"x": 0.6362452616,
				"y": 4.0468297265,
				"z": 0.5385242513,
				"element": "H" 
			},
			{
				"x": -2.9796406596,
				"y": -0.4557385308,
				"z": -0.645113004,
				"element": "H" 
			},
			{
				"x": -1.6603425328,
				"y": -2.5296024005,
				"z": -0.8766650337,
				"element": "H" 
			}
		],
		 "valence_orbital": [ 
			{
				"type": "occ",
				"energy": -0.29163,
				"method": "rhf"
			},
			{
				"type": "occ",
				"energy": -0.25469,
				"method": "rhf"
			},
			{
				"type": "occ",
				"energy": -0.24332,
				"method": "rhf"
			},
			{
				"type": "occ",
				"energy": -0.23901,
				"method": "rhf"
			},
			{
				"type": "occ",
				"energy": -0.22986,
				"method": "rhf"
			},
			{
				"type": "unocc",
				"energy": -0.05237,
				"method": "rhf"
			},
			{
				"type": "unocc",
				"energy": -0.04929,
				"method": "rhf"
			},
			{
				"type": "unocc",
				"energy": -0.00547,
				"method": "rhf"
			},
			{
				"type": "unocc",
				"energy": 0.02168,
				"method": "rhf"
			},
			{
				"type": "unocc",
				"energy": 0.06602,
				"method": "rhf"
			}
		],
		"cosmo_sigma_profile": { 
			"-0.025": 0.0,
			"-0.024": 0.0,
			"-0.023": 0.0,
			"-0.022": 0.0,
			"-0.021": 0.0,
			"-0.02": 0.0,
			"-0.019": 0.0,
			"-0.018": 0.0,
			"-0.017": 0.0,
			"-0.016": 0.0,
			"-0.015": 0.0,
			"-0.014": 0.0,
			"-0.013": 0.0,
			"-0.012": 0.0,
			"-0.011": 0.0,
			"-0.01": 0.0,
			"-0.009": 0.0,
			"-0.008": 1.44323954624,
			"-0.007": 13.7152846723,
			"-0.006": 18.1575087242,
			"-0.005": 17.9763326561,
			"-0.004": 12.7258512917,
			"-0.003": 11.1721681174,
			"-0.002": 9.81432443368,
			"-0.001": 10.058908457,
			"0.0": 15.3753938261,
			"0.001": 28.4288214828,
			"0.002": 28.861517319,
			"0.003": 13.001942115,
			"0.004": 5.28138005705,
			"0.005": 3.00740947485,
			"0.006": 2.06748999155,
			"0.007": 1.80202997592,
			"0.008": 2.32231222549,
			"0.009": 1.2124680255,
			"0.01": 1.75769290546,
			"0.011": 1.70765073265,
			"0.012": 0.93848639726,
			"0.013": 1.13725140289,
			"0.014": 1.34333476827,
			"0.015": 1.14034414712,
			"0.016": 0.896171623004,
			"0.017": 1.01160709789,
			"0.018": 0.892374515119,
			"0.019": 1.13179117827,
			"0.02": 0.778920566644,
			"0.021": 0.744926811574,
			"0.022": 0.311497986037,
			"0.023": 0.0,
			"0.024": 0.0,
			"0.025": 0.0
		}
	}
}
