{
	 "smiles": "NC(=O)C1=CC(=CN=C1)C(O)=O", 
	 "Tm": 543.15, 
	 "num_atms": 18, 
	 "gaussian": { 
		 "optdone": 1, 
		 "sigma_profile": "yes", 
		 "theory": "DFT", 
		 "functional": "B3LYP", 
		 "basiset": "6-31G**", 
		 "properties": { 
			 "R2extent": 2639.4951, 
			 "electric_dipole_moment_norm": 4.44311826649, 
			 "electric_quadrupole_moment_norm": 19.6556948432, 
			 "total_energy": -605.548220743, 
			 "HOMO_LUMO_gap": 0.19502, 
			 "cosmo_polarized_energy": -24.97, 
			 "cosmo_cavitation_energy": 23.74, 
			 "cosmo_dispersion_energy": -17.42, 
			 "cosmo_repulsion_energy": 1.39, 
			 "cosmo_total_nonelectrostatic_energy": 7.72, 
			 "SMD_solvation_energy": 4.72 
		},
		"coords": [
			{
				"x": 0.5132983121,
				"y": 0.1266528484,
				"z": 3.6928563702,
				"element": "N" 
			},
			{
				"x": 1.6792749449,
				"y": -0.1191960565,
				"z": 3.0064152672,
				"element": "C" 
			},
			{
				"x": 2.780809103,
				"y": -0.0317518488,
				"z": 3.5293286503,
				"element": "O" 
			},
			{
				"x": 1.5257118325,
				"y": -0.4673987577,
				"z": 1.55274811,
				"element": "C" 
			},
			{
				"x": 0.4205291524,
				"y": -0.1128767944,
				"z": 0.7758971172,
				"element": "C" 
			},
			{
				"x": 0.3879628228,
				"y": -0.4829215845,
				"z": -0.5718582781,
				"element": "C" 
			},
			{
				"x": 1.4704388759,
				"y": -1.2189057823,
				"z": -1.0775041903,
				"element": "C" 
			},
			{
				"x": 2.5464041185,
				"y": -1.5447557253,
				"z": -0.3561044314,
				"element": "N" 
			},
			{
				"x": 2.5689424549,
				"y": -1.163895883,
				"z": 0.9254578792,
				"element": "C" 
			},
			{
				"x": -0.7532016221,
				"y": -0.1722020983,
				"z": -1.4921715717,
				"element": "C" 
			},
			{
				"x": -1.5171083082,
				"y": 0.9069044478,
				"z": -1.1726203055,
				"element": "O" 
			},
			{
				"x": -1.0098494346,
				"y": -0.8338482595,
				"z": -2.4683398928,
				"element": "O" 
			},
			{
				"x": -0.3533943392,
				"y": -0.290156953,
				"z": 3.3879010621,
				"element": "H" 
			},
			{
				"x": 0.6230364872,
				"y": 0.2533810776,
				"z": 4.6896753546,
				"element": "H" 
			},
			{
				"x": -0.4019657324,
				"y": 0.441034223,
				"z": 1.2223634411,
				"element": "H" 
			},
			{
				"x": 1.4510117665,
				"y": -1.5383956315,
				"z": -2.1162605067,
				"element": "H" 
			},
			{
				"x": 3.4498596225,
				"y": -1.4225830266,
				"z": 1.5069432342,
				"element": "H" 
			},
			{
				"x": -1.0813600566,
				"y": 1.4436158044,
				"z": -0.4960273095,
				"element": "H" 
			}
		],
		 "valence_orbital": [ 
			{
				"type": "occ",
				"energy": -0.30379,
				"method": "rhf"
			},
			{
				"type": "occ",
				"energy": -0.29694,
				"method": "rhf"
			},
			{
				"type": "occ",
				"energy": -0.28425,
				"method": "rhf"
			},
			{
				"type": "occ",
				"energy": -0.27898,
				"method": "rhf"
			},
			{
				"type": "occ",
				"energy": -0.26842,
				"method": "rhf"
			},
			{
				"type": "unocc",
				"energy": -0.0734,
				"method": "rhf"
			},
			{
				"type": "unocc",
				"energy": -0.07043,
				"method": "rhf"
			},
			{
				"type": "unocc",
				"energy": 0.00593,
				"method": "rhf"
			},
			{
				"type": "unocc",
				"energy": 0.03453,
				"method": "rhf"
			},
			{
				"type": "unocc",
				"energy": 0.05401,
				"method": "rhf"
			}
		],
		"cosmo_sigma_profile": { 
			"-0.025": 0.0,
			"-0.024": 0.0,
			"-0.023": 0.0,
			"-0.022": 0.0,
			"-0.021": 0.0,
			"-0.02": 0.22689423402,
			"-0.019": 1.18233092895,
			"-0.018": 1.26618751098,
			"-0.017": 1.19624260967,
			"-0.016": 1.02344117099,
			"-0.015": 1.86526651427,
			"-0.014": 3.85419125519,
			"-0.013": 3.61884307206,
			"-0.012": 4.50367575498,
			"-0.011": 4.37490414082,
			"-0.01": 3.5013400854,
			"-0.009": 2.69775433712,
			"-0.008": 4.05287062509,
			"-0.007": 5.37872585858,
			"-0.006": 5.44130420012,
			"-0.005": 7.58456881873,
			"-0.004": 8.21432981036,
			"-0.003": 9.08156467295,
			"-0.002": 13.977358578,
			"-0.001": 15.4043886305,
			"0.0": 8.38225524107,
			"0.001": 5.88992310059,
			"0.002": 6.36542104888,
			"0.003": 7.66179929928,
			"0.004": 4.604733221,
			"0.005": 5.14783448544,
			"0.006": 5.20089716758,
			"0.007": 5.98178163779,
			"0.008": 5.50115558126,
			"0.009": 6.4337890439,
			"0.01": 7.60228651134,
			"0.011": 8.25975121026,
			"0.012": 6.52705140443,
			"0.013": 5.74706699356,
			"0.014": 1.82769564977,
			"0.015": 0.603346724859,
			"0.016": 0.0830752591908,
			"0.017": 0.0,
			"0.018": 0.0,
			"0.019": 0.0,
			"0.02": 0.0,
			"0.021": 0.0,
			"0.022": 0.0,
			"0.023": 0.0,
			"0.024": 0.0,
			"0.025": 0.0
		}
	}
}
