{
	 "smiles": "OC1=C(C=C(Cl)C=C1)C1=NNC(=C1)C1=CC=CO1", 
	 "Tm": 440.15, 
	 "num_atms": 27, 
	 "gaussian": { 
		 "optdone": 1, 
		 "sigma_profile": "yes", 
		 "theory": "DFT", 
		 "functional": "B3LYP", 
		 "basiset": "6-31G**", 
		 "properties": { 
			 "R2extent": 8458.8526, 
			 "electric_dipole_moment_norm": 4.15141077948, 
			 "electric_quadrupole_moment_norm": 23.2920827487, 
			 "total_energy": -1220.90877409, 
			 "HOMO_LUMO_gap": 0.17267, 
			 "cosmo_polarized_energy": -17.33, 
			 "cosmo_cavitation_energy": 34.35, 
			 "cosmo_dispersion_energy": -25.62, 
			 "cosmo_repulsion_energy": 1.95, 
			 "cosmo_total_nonelectrostatic_energy": 10.68, 
			 "SMD_solvation_energy": 5.75 
		},
		"coords": [
			{
				"x": -0.7309545877,
				"y": -3.4037314076,
				"z": -2.0280867629,
				"element": "O" 
			},
			{
				"x": -0.2368134373,
				"y": -3.9093050478,
				"z": -0.8563994705,
				"element": "C" 
			},
			{
				"x": 0.2285385724,
				"y": -3.0113778482,
				"z": 0.1270493021,
				"element": "C" 
			},
			{
				"x": 0.7316103403,
				"y": -3.5528808737,
				"z": 1.3223760979,
				"element": "C" 
			},
			{
				"x": 0.7691995506,
				"y": -4.925421528,
				"z": 1.5282307702,
				"element": "C" 
			},
			{
				"x": 1.4084278008,
				"y": -5.5595309752,
				"z": 3.0422997647,
				"element": "Cl" 
			},
			{
				"x": 0.3088647844,
				"y": -5.8107316664,
				"z": 0.5551481771,
				"element": "C" 
			},
			{
				"x": -0.192185116,
				"y": -5.2895264979,
				"z": -0.6338398878,
				"element": "C" 
			},
			{
				"x": 0.2111548796,
				"y": -1.5467944176,
				"z": -0.0401862109,
				"element": "C" 
			},
			{
				"x": 0.6737410089,
				"y": -0.7742603346,
				"z": 0.9570174656,
				"element": "N" 
			},
			{
				"x": 0.529258228,
				"y": 0.4853658714,
				"z": 0.5143734799,
				"element": "N" 
			},
			{
				"x": -0.0118085341,
				"y": 0.5610089945,
				"z": -0.7376096303,
				"element": "C" 
			},
			{
				"x": -0.2318150118,
				"y": -0.7513278562,
				"z": -1.1291790915,
				"element": "C" 
			},
			{
				"x": -0.2589774352,
				"y": 1.811559398,
				"z": -1.4152306185,
				"element": "C" 
			},
			{
				"x": -0.0704099121,
				"y": 3.1288945487,
				"z": -1.0814393943,
				"element": "C" 
			},
			{
				"x": -0.5225704711,
				"y": 3.8994422401,
				"z": -2.1984836046,
				"element": "C" 
			},
			{
				"x": -0.9523863486,
				"y": 3.0027590686,
				"z": -3.1285467323,
				"element": "C" 
			},
			{
				"x": -0.7994383333,
				"y": 1.7285076965,
				"z": -2.6691584978,
				"element": "O" 
			},
			{
				"x": -1.007363626,
				"y": -4.136110014,
				"z": -2.5935086945,
				"element": "H" 
			},
			{
				"x": 1.0915601423,
				"y": -2.8727051736,
				"z": 2.0842794407,
				"element": "H" 
			},
			{
				"x": 0.3407067504,
				"y": -6.881415488,
				"z": 0.7213835899,
				"element": "H" 
			},
			{
				"x": -0.5561437589,
				"y": -5.9652209521,
				"z": -1.4052430766,
				"element": "H" 
			},
			{
				"x": 0.8174857225,
				"y": 1.2454503156,
				"z": 1.1100095376,
				"element": "H" 
			},
			{
				"x": -0.6499990236,
				"y": -1.0832720957,
				"z": -2.0623577485,
				"element": "H" 
			},
			{
				"x": 0.338638072,
				"y": 3.5106392283,
				"z": -0.1565864889,
				"element": "H" 
			},
			{
				"x": -0.5251539138,
				"y": 4.9757380955,
				"z": -2.2911728223,
				"element": "H" 
			},
			{
				"x": -1.3730663425,
				"y": 3.0971467194,
				"z": -4.1172388936,
				"element": "H" 
			}
		],
		 "valence_orbital": [ 
			{
				"type": "occ",
				"energy": -0.28645,
				"method": "rhf"
			},
			{
				"type": "occ",
				"energy": -0.2766,
				"method": "rhf"
			},
			{
				"type": "occ",
				"energy": -0.23673,
				"method": "rhf"
			},
			{
				"type": "occ",
				"energy": -0.21645,
				"method": "rhf"
			},
			{
				"type": "occ",
				"energy": -0.20434,
				"method": "rhf"
			},
			{
				"type": "unocc",
				"energy": -0.03167,
				"method": "rhf"
			},
			{
				"type": "unocc",
				"energy": -0.02058,
				"method": "rhf"
			},
			{
				"type": "unocc",
				"energy": 0.00584,
				"method": "rhf"
			},
			{
				"type": "unocc",
				"energy": 0.03764,
				"method": "rhf"
			},
			{
				"type": "unocc",
				"energy": 0.04404,
				"method": "rhf"
			}
		],
		"cosmo_sigma_profile": { 
			"-0.025": 0.0,
			"-0.024": 0.0,
			"-0.023": 0.0,
			"-0.022": 0.0,
			"-0.021": 0.0,
			"-0.02": 0.0,
			"-0.019": 0.0525764070889,
			"-0.018": 0.959671660474,
			"-0.017": 1.68035299319,
			"-0.016": 1.86074360309,
			"-0.015": 2.89685543288,
			"-0.014": 1.94000251798,
			"-0.013": 3.03327428128,
			"-0.012": 2.12676377974,
			"-0.011": 1.9751997898,
			"-0.01": 2.17980470076,
			"-0.009": 4.79730002492,
			"-0.008": 5.55278827933,
			"-0.007": 8.80398126945,
			"-0.006": 8.17818523101,
			"-0.005": 10.766302853,
			"-0.004": 9.66298892698,
			"-0.003": 9.65356343869,
			"-0.002": 11.1176156828,
			"-0.001": 11.8271487017,
			"0.0": 12.9989355146,
			"0.001": 18.792178583,
			"0.002": 32.2194938176,
			"0.003": 39.5995024703,
			"0.004": 33.9308250647,
			"0.005": 23.3940265169,
			"0.006": 7.01731717272,
			"0.007": 4.31875384973,
			"0.008": 2.22562566196,
			"0.009": 1.00897517105,
			"0.01": 1.38010611434,
			"0.011": 1.5832206703,
			"0.012": 1.33112583545,
			"0.013": 0.282178674099,
			"0.014": 0.0,
			"0.015": 0.0,
			"0.016": 0.0,
			"0.017": 0.0,
			"0.018": 0.0,
			"0.019": 0.0,
			"0.02": 0.0,
			"0.021": 0.0,
			"0.022": 0.0,
			"0.023": 0.0,
			"0.024": 0.0,
			"0.025": 0.0
		}
	}
}
