{
	 "smiles": "CNC1=CC=C2C=C(NC2=C1)OC", 
	 "Tm": 438.15, 
	 "num_atms": 25, 
	 "gaussian": { 
		 "optdone": 1, 
		 "sigma_profile": "yes", 
		 "theory": "DFT", 
		 "functional": "B3LYP", 
		 "basiset": "6-31G**", 
		 "properties": { 
			 "R2extent": 3466.5914, 
			 "electric_dipole_moment_norm": 1.40008955785, 
			 "electric_quadrupole_moment_norm": 15.8656958401, 
			 "total_energy": -573.009267074, 
			 "HOMO_LUMO_gap": 0.17862, 
			 "cosmo_polarized_energy": -11.83, 
			 "cosmo_cavitation_energy": 28.25, 
			 "cosmo_dispersion_energy": -21.19, 
			 "cosmo_repulsion_energy": 1.67, 
			 "cosmo_total_nonelectrostatic_energy": 8.73, 
			 "SMD_solvation_energy": 4.49 
		},
		"coords": [
			{
				"x": 4.5548090444,
				"y": -0.6964203689,
				"z": -1.415894203,
				"element": "C" 
			},
			{
				"x": 3.4388695582,
				"y": -0.4878642114,
				"z": -2.3163481519,
				"element": "N" 
			},
			{
				"x": 2.2309398351,
				"y": 0.0452095039,
				"z": -1.8472529706,
				"element": "C" 
			},
			{
				"x": 1.2891048385,
				"y": 0.5246126588,
				"z": -2.7937176611,
				"element": "C" 
			},
			{
				"x": 0.0553283959,
				"y": 1.0288789311,
				"z": -2.4092659974,
				"element": "C" 
			},
			{
				"x": -0.2874945726,
				"y": 1.0675267256,
				"z": -1.0485535867,
				"element": "C" 
			},
			{
				"x": -1.4431829546,
				"y": 1.5084111868,
				"z": -0.3038592827,
				"element": "C" 
			},
			{
				"x": -1.1528028183,
				"y": 1.2797986478,
				"z": 1.0172715441,
				"element": "C" 
			},
			{
				"x": 0.1076274716,
				"y": 0.7271315778,
				"z": 1.1450788587,
				"element": "N" 
			},
			{
				"x": 0.6652925417,
				"y": 0.5832618419,
				"z": -0.1149314281,
				"element": "C" 
			},
			{
				"x": 1.9163766858,
				"y": 0.0808391382,
				"z": -0.4821588635,
				"element": "C" 
			},
			{
				"x": -1.8321954741,
				"y": 1.4823528488,
				"z": 2.1681875784,
				"element": "O" 
			},
			{
				"x": -3.1264631717,
				"y": 2.0501823099,
				"z": 2.0090403215,
				"element": "C" 
			},
			{
				"x": 4.3258946671,
				"y": -1.494152411,
				"z": -0.6997508433,
				"element": "H" 
			},
			{
				"x": 5.422240549,
				"y": -1.0199188199,
				"z": -1.9966220739,
				"element": "H" 
			},
			{
				"x": 4.8358573551,
				"y": 0.2012458275,
				"z": -0.839374127,
				"element": "H" 
			},
			{
				"x": 3.7077802539,
				"y": -0.1168034249,
				"z": -3.2167888691,
				"element": "H" 
			},
			{
				"x": 1.5479484541,
				"y": 0.4839129233,
				"z": -3.8493480381,
				"element": "H" 
			},
			{
				"x": -0.6390113617,
				"y": 1.3902645347,
				"z": -3.1631650597,
				"element": "H" 
			},
			{
				"x": -2.3523763593,
				"y": 1.9318246625,
				"z": -0.7019617958,
				"element": "H" 
			},
			{
				"x": 0.5230562203,
				"y": 0.4728870044,
				"z": 2.0261857876,
				"element": "H" 
			},
			{
				"x": 2.6153316361,
				"y": -0.2705811258,
				"z": 0.2686921879,
				"element": "H" 
			},
			{
				"x": -3.7689431003,
				"y": 1.3984393163,
				"z": 1.4042030701,
				"element": "H" 
			},
			{
				"x": -3.5440521501,
				"y": 2.1510700082,
				"z": 3.0115290678,
				"element": "H" 
			},
			{
				"x": -3.066135544,
				"y": 3.0362907142,
				"z": 1.5322045359,
				"element": "H" 
			}
		],
		 "valence_orbital": [ 
			{
				"type": "occ",
				"energy": -0.30936,
				"method": "rhf"
			},
			{
				"type": "occ",
				"energy": -0.2733,
				"method": "rhf"
			},
			{
				"type": "occ",
				"energy": -0.23046,
				"method": "rhf"
			},
			{
				"type": "occ",
				"energy": -0.20083,
				"method": "rhf"
			},
			{
				"type": "occ",
				"energy": -0.15992,
				"method": "rhf"
			},
			{
				"type": "unocc",
				"energy": 0.0187,
				"method": "rhf"
			},
			{
				"type": "unocc",
				"energy": 0.0469,
				"method": "rhf"
			},
			{
				"type": "unocc",
				"energy": 0.09339,
				"method": "rhf"
			},
			{
				"type": "unocc",
				"energy": 0.09673,
				"method": "rhf"
			},
			{
				"type": "unocc",
				"energy": 0.09913,
				"method": "rhf"
			}
		],
		"cosmo_sigma_profile": { 
			"-0.025": 0.0,
			"-0.024": 0.0,
			"-0.023": 0.0,
			"-0.022": 0.0,
			"-0.021": 0.0,
			"-0.02": 0.0,
			"-0.019": 0.0,
			"-0.018": 0.0,
			"-0.017": 0.0,
			"-0.016": 0.0347094627121,
			"-0.015": 1.00193279144,
			"-0.014": 1.40630387501,
			"-0.013": 0.868445677261,
			"-0.012": 1.3090363525,
			"-0.011": 2.49463376073,
			"-0.01": 2.29582333006,
			"-0.009": 2.0641593628,
			"-0.008": 2.50707561657,
			"-0.007": 3.04326714746,
			"-0.006": 5.71507023888,
			"-0.005": 16.1647831669,
			"-0.004": 21.8396749647,
			"-0.003": 21.4463511892,
			"-0.002": 19.1409470415,
			"-0.001": 17.3406396162,
			"0.0": 12.0380950951,
			"0.001": 8.77067684535,
			"0.002": 7.3814306317,
			"0.003": 10.2800321821,
			"0.004": 10.5239265988,
			"0.005": 10.8046498159,
			"0.006": 10.8303083824,
			"0.007": 13.6165226276,
			"0.008": 13.5569175666,
			"0.009": 3.97638469893,
			"0.01": 1.11072121709,
			"0.011": 0.499985408999,
			"0.012": 0.647525094728,
			"0.013": 0.670981158465,
			"0.014": 0.18620995944,
			"0.015": 0.0,
			"0.016": 0.0,
			"0.017": 0.0,
			"0.018": 0.0,
			"0.019": 0.0,
			"0.02": 0.0,
			"0.021": 0.0,
			"0.022": 0.0,
			"0.023": 0.0,
			"0.024": 0.0,
			"0.025": 0.0
		}
	}
}
