{
	 "smiles": "CC1=C(C)N(C2CC2)C(S)=N1", 
	 "Tm": 452.15, 
	 "num_atms": 23, 
	 "gaussian": { 
		 "optdone": 1, 
		 "sigma_profile": "yes", 
		 "theory": "DFT", 
		 "functional": "B3LYP", 
		 "basiset": "6-31G**", 
		 "properties": { 
			 "R2extent": 2250.448, 
			 "electric_dipole_moment_norm": 3.05087573329, 
			 "electric_quadrupole_moment_norm": 3.66205949023, 
			 "total_energy": -819.745044609, 
			 "HOMO_LUMO_gap": 0.21665, 
			 "cosmo_polarized_energy": -9.04, 
			 "cosmo_cavitation_energy": 26.89, 
			 "cosmo_dispersion_energy": -19.97, 
			 "cosmo_repulsion_energy": 1.58, 
			 "cosmo_total_nonelectrostatic_energy": 8.49, 
			 "SMD_solvation_energy": 2.22 
		},
		"coords": [
			{
				"x": -0.6281096888,
				"y": 2.7039160257,
				"z": 1.7384815863,
				"element": "C" 
			},
			{
				"x": -0.5425413258,
				"y": 1.3499254022,
				"z": 1.1056385244,
				"element": "C" 
			},
			{
				"x": -0.5054726204,
				"y": 1.0147184066,
				"z": -0.2263932839,
				"element": "C" 
			},
			{
				"x": -0.4961139188,
				"y": 1.8504968032,
				"z": -1.4639751549,
				"element": "C" 
			},
			{
				"x": -0.4547492411,
				"y": -0.3890058417,
				"z": -0.2559500744,
				"element": "N" 
			},
			{
				"x": -0.2728659144,
				"y": -1.2176495073,
				"z": -1.415483709,
				"element": "C" 
			},
			{
				"x": -1.1905529244,
				"y": -2.3979341739,
				"z": -1.6385238994,
				"element": "C" 
			},
			{
				"x": -1.297854099,
				"y": -1.1865990226,
				"z": -2.5234235233,
				"element": "C" 
			},
			{
				"x": -0.4319033546,
				"y": -0.7917337542,
				"z": 1.0571288874,
				"element": "C" 
			},
			{
				"x": -0.2915105481,
				"y": -2.5013198551,
				"z": 1.5225117919,
				"element": "S" 
			},
			{
				"x": -0.4968655543,
				"y": 0.2116798589,
				"z": 1.8967273431,
				"element": "N" 
			},
			{
				"x": -0.57357672,
				"y": 3.5033297789,
				"z": 0.9944367365,
				"element": "H" 
			},
			{
				"x": 0.1871673515,
				"y": 2.8486819217,
				"z": 2.4555532583,
				"element": "H" 
			},
			{
				"x": -1.5670378634,
				"y": 2.8229554813,
				"z": 2.2916304644,
				"element": "H" 
			},
			{
				"x": -1.4120181786,
				"y": 1.7449347672,
				"z": -2.0581496175,
				"element": "H" 
			},
			{
				"x": 0.345830855,
				"y": 1.6054946382,
				"z": -2.1223516603,
				"element": "H" 
			},
			{
				"x": -0.4035052457,
				"y": 2.9042658066,
				"z": -1.1912296048,
				"element": "H" 
			},
			{
				"x": 0.7671086911,
				"y": -1.3441543359,
				"z": -1.711905048,
				"element": "H" 
			},
			{
				"x": -1.9823722528,
				"y": -2.5604580258,
				"z": -0.9157575834,
				"element": "H" 
			},
			{
				"x": -0.7450238053,
				"y": -3.3051431776,
				"z": -2.0331884814,
				"element": "H" 
			},
			{
				"x": -0.9339851122,
				"y": -1.2419740003,
				"z": -3.5444350608,
				"element": "H" 
			},
			{
				"x": -2.1635081453,
				"y": -0.5484038401,
				"z": -2.383498522,
				"element": "H" 
			},
			{
				"x": -0.2573403846,
				"y": -2.198823356,
				"z": 2.8333566306,
				"element": "H" 
			}
		],
		 "valence_orbital": [ 
			{
				"type": "occ",
				"energy": -0.31562,
				"method": "rhf"
			},
			{
				"type": "occ",
				"energy": -0.2794,
				"method": "rhf"
			},
			{
				"type": "occ",
				"energy": -0.25873,
				"method": "rhf"
			},
			{
				"type": "occ",
				"energy": -0.25225,
				"method": "rhf"
			},
			{
				"type": "occ",
				"energy": -0.19168,
				"method": "rhf"
			},
			{
				"type": "unocc",
				"energy": 0.02497,
				"method": "rhf"
			},
			{
				"type": "unocc",
				"energy": 0.03301,
				"method": "rhf"
			},
			{
				"type": "unocc",
				"energy": 0.07371,
				"method": "rhf"
			},
			{
				"type": "unocc",
				"energy": 0.08047,
				"method": "rhf"
			},
			{
				"type": "unocc",
				"energy": 0.0872,
				"method": "rhf"
			}
		],
		"cosmo_sigma_profile": { 
			"-0.025": 0.0,
			"-0.024": 0.0,
			"-0.023": 0.0,
			"-0.022": 0.0,
			"-0.021": 0.0,
			"-0.02": 0.0,
			"-0.019": 0.0,
			"-0.018": 0.0,
			"-0.017": 0.0,
			"-0.016": 0.0,
			"-0.015": 0.0,
			"-0.014": 0.0,
			"-0.013": 0.0,
			"-0.012": 0.0,
			"-0.011": 0.720840219845,
			"-0.01": 1.31838902016,
			"-0.009": 1.08861329035,
			"-0.008": 1.38135352195,
			"-0.007": 1.84611816092,
			"-0.006": 6.92160583382,
			"-0.005": 15.0695659156,
			"-0.004": 20.1223899063,
			"-0.003": 19.5432296451,
			"-0.002": 20.6021031126,
			"-0.001": 21.6857142861,
			"0.0": 22.616664267,
			"0.001": 16.5150493114,
			"0.002": 11.3469516511,
			"0.003": 11.7658270003,
			"0.004": 10.3738816813,
			"0.005": 7.57677969626,
			"0.006": 6.14587650862,
			"0.007": 4.97583731243,
			"0.008": 2.9382120776,
			"0.009": 1.85154072558,
			"0.01": 1.03143168361,
			"0.011": 1.03688332566,
			"0.012": 1.21446608,
			"0.013": 0.558940613904,
			"0.014": 1.17516994707,
			"0.015": 1.05757966754,
			"0.016": 0.782351199226,
			"0.017": 0.843777648979,
			"0.018": 0.156036115695,
			"0.019": 0.0,
			"0.02": 0.0,
			"0.021": 0.0,
			"0.022": 0.0,
			"0.023": 0.0,
			"0.024": 0.0,
			"0.025": 0.0
		}
	}
}
