{
	 "smiles": "CC1=C[C@@H]2O[C@H]1C(Cl)(Cl)C(=O)C2(Cl)Cl", 
	 "Tm": 363.35, 
	 "num_atms": 20, 
	 "gaussian": { 
		 "optdone": 1, 
		 "sigma_profile": "yes", 
		 "theory": "DFT", 
		 "functional": "B3LYP", 
		 "basiset": "6-31G**", 
		 "properties": { 
			 "R2extent": 3515.1005, 
			 "electric_dipole_moment_norm": 4.53738404039, 
			 "electric_quadrupole_moment_norm": 9.08442642053, 
			 "total_energy": -2299.61950905, 
			 "HOMO_LUMO_gap": 0.19535, 
			 "cosmo_polarized_energy": -9.52, 
			 "cosmo_cavitation_energy": 29.1, 
			 "cosmo_dispersion_energy": -21.33, 
			 "cosmo_repulsion_energy": 1.65, 
			 "cosmo_total_nonelectrostatic_energy": 9.42, 
			 "SMD_solvation_energy": 4.13 
		},
		"coords": [
			{
				"x": 0.4472124594,
				"y": 2.6974899228,
				"z": -1.8539789188,
				"element": "C" 
			},
			{
				"x": 0.1099688062,
				"y": 1.3115496527,
				"z": -1.4061022164,
				"element": "C" 
			},
			{
				"x": 0.3968909204,
				"y": 0.1470940471,
				"z": -1.9984904846,
				"element": "C" 
			},
			{
				"x": -0.2102856037,
				"y": -0.9743465286,
				"z": -1.1807518322,
				"element": "C" 
			},
			{
				"x": -1.2322463895,
				"y": -0.3216856873,
				"z": -0.4299126555,
				"element": "O" 
			},
			{
				"x": -0.6932836189,
				"y": 0.9656171606,
				"z": -0.1472964504,
				"element": "C" 
			},
			{
				"x": 0.231384476,
				"y": 0.7659346961,
				"z": 1.0872908772,
				"element": "C" 
			},
			{
				"x": -0.766530681,
				"y": 0.2630817767,
				"z": 2.5131607136,
				"element": "Cl" 
			},
			{
				"x": 1.0983969926,
				"y": 2.2847473305,
				"z": 1.5034119665,
				"element": "Cl" 
			},
			{
				"x": 1.2780239658,
				"y": -0.3745690917,
				"z": 0.8190618541,
				"element": "C" 
			},
			{
				"x": 2.3613192873,
				"y": -0.3745827539,
				"z": 1.3313970962,
				"element": "O" 
			},
			{
				"x": 0.8166473842,
				"y": -1.5169604335,
				"z": -0.1529967316,
				"element": "C" 
			},
			{
				"x": 2.2478818441,
				"y": -2.1817471633,
				"z": -1.0170216215,
				"element": "Cl" 
			},
			{
				"x": 0.068882473,
				"y": -2.8234012945,
				"z": 0.8490616802,
				"element": "Cl" 
			},
			{
				"x": 0.9439301552,
				"y": 2.6785622016,
				"z": -2.8271025388,
				"element": "H" 
			},
			{
				"x": -0.4617055513,
				"y": 3.3048858555,
				"z": -1.9425009824,
				"element": "H" 
			},
			{
				"x": 1.1018909695,
				"y": 3.205096055,
				"z": -1.139998767,
				"element": "H" 
			},
			{
				"x": 0.9797308831,
				"y": -0.0045952799,
				"z": -2.8974811128,
				"element": "H" 
			},
			{
				"x": -0.6434460073,
				"y": -1.8002994987,
				"z": -1.7482826393,
				"element": "H" 
			},
			{
				"x": -1.5019627651,
				"y": 1.6565290327,
				"z": 0.1013327636,
				"element": "H" 
			}
		],
		 "valence_orbital": [ 
			{
				"type": "occ",
				"energy": -0.32113,
				"method": "rhf"
			},
			{
				"type": "occ",
				"energy": -0.30957,
				"method": "rhf"
			},
			{
				"type": "occ",
				"energy": -0.29705,
				"method": "rhf"
			},
			{
				"type": "occ",
				"energy": -0.28719,
				"method": "rhf"
			},
			{
				"type": "occ",
				"energy": -0.28004,
				"method": "rhf"
			},
			{
				"type": "unocc",
				"energy": -0.08469,
				"method": "rhf"
			},
			{
				"type": "unocc",
				"energy": -0.04199,
				"method": "rhf"
			},
			{
				"type": "unocc",
				"energy": -0.03104,
				"method": "rhf"
			},
			{
				"type": "unocc",
				"energy": -0.00141,
				"method": "rhf"
			},
			{
				"type": "unocc",
				"energy": 0.01948,
				"method": "rhf"
			}
		],
		"cosmo_sigma_profile": { 
			"-0.025": 0.0,
			"-0.024": 0.0,
			"-0.023": 0.0,
			"-0.022": 0.0,
			"-0.021": 0.0,
			"-0.02": 0.0,
			"-0.019": 0.0,
			"-0.018": 0.0,
			"-0.017": 0.0,
			"-0.016": 0.0,
			"-0.015": 0.0,
			"-0.014": 0.0,
			"-0.013": 0.0,
			"-0.012": 0.0,
			"-0.011": 0.0,
			"-0.01": 0.22340344232,
			"-0.009": 4.43394535777,
			"-0.008": 6.42637932036,
			"-0.007": 6.84093630991,
			"-0.006": 7.5853937486,
			"-0.005": 10.291287004,
			"-0.004": 12.8035231145,
			"-0.003": 16.6233251212,
			"-0.002": 20.4771756545,
			"-0.001": 22.786981285,
			"0.0": 17.7913989777,
			"0.001": 19.7816899084,
			"0.002": 21.3366843605,
			"0.003": 31.4588166352,
			"0.004": 12.6311836257,
			"0.005": 6.18595268029,
			"0.006": 4.85671272182,
			"0.007": 6.43983569237,
			"0.008": 6.10524336069,
			"0.009": 3.59893621868,
			"0.01": 1.10490112263,
			"0.011": 0.0,
			"0.012": 0.0,
			"0.013": 0.0,
			"0.014": 0.0,
			"0.015": 0.0,
			"0.016": 0.0,
			"0.017": 0.0,
			"0.018": 0.0,
			"0.019": 0.0,
			"0.02": 0.0,
			"0.021": 0.0,
			"0.022": 0.0,
			"0.023": 0.0,
			"0.024": 0.0,
			"0.025": 0.0
		}
	}
}
