{
	 "smiles": "[O-][N+](=O)C1=C(C=CC(C=O)=C1)N1CCCCC1", 
	 "Tm": 325.15, 
	 "num_atms": 31, 
	 "gaussian": { 
		 "optdone": 1, 
		 "sigma_profile": "yes", 
		 "theory": "DFT", 
		 "functional": "B3LYP", 
		 "basiset": "6-31G**", 
		 "properties": { 
			 "R2extent": 4908.827, 
			 "electric_dipole_moment_norm": 5.81600325825, 
			 "electric_quadrupole_moment_norm": 15.6843558895, 
			 "total_energy": -800.775426819, 
			 "HOMO_LUMO_gap": 0.14148, 
			 "cosmo_polarized_energy": -14.08, 
			 "cosmo_cavitation_energy": 33.44, 
			 "cosmo_dispersion_energy": -24.12, 
			 "cosmo_repulsion_energy": 1.85, 
			 "cosmo_total_nonelectrostatic_energy": 11.17, 
			 "SMD_solvation_energy": 7.66 
		},
		"coords": [
			{
				"x": -0.8899524728,
				"y": 0.9450114055,
				"z": 2.355928059,
				"element": "O" 
			},
			{
				"x": -0.0218713614,
				"y": 0.1082410555,
				"z": 2.6214524622,
				"element": "N" 
			},
			{
				"x": 0.1092937439,
				"y": -0.4267718679,
				"z": 3.72535419,
				"element": "O" 
			},
			{
				"x": 0.9654425424,
				"y": -0.2054352885,
				"z": 1.5876903887,
				"element": "C" 
			},
			{
				"x": 0.6722593501,
				"y": -0.1398866968,
				"z": 0.1897355753,
				"element": "C" 
			},
			{
				"x": 1.8072186779,
				"y": -0.1442388906,
				"z": -0.6758370901,
				"element": "C" 
			},
			{
				"x": 3.0901388268,
				"y": -0.3035629891,
				"z": -0.1988255134,
				"element": "C" 
			},
			{
				"x": 3.3406665009,
				"y": -0.4688793888,
				"z": 1.1783138535,
				"element": "C" 
			},
			{
				"x": 4.7095823742,
				"y": -0.6669112412,
				"z": 1.6814210866,
				"element": "C" 
			},
			{
				"x": 5.7035250452,
				"y": -0.7092944045,
				"z": 0.9777147078,
				"element": "O" 
			},
			{
				"x": 2.2627568782,
				"y": -0.4121813615,
				"z": 2.0559973466,
				"element": "C" 
			},
			{
				"x": -0.5915137109,
				"y": -0.1310417338,
				"z": -0.3332255077,
				"element": "N" 
			},
			{
				"x": -0.802165443,
				"y": 0.2630490398,
				"z": -1.7360526773,
				"element": "C" 
			},
			{
				"x": -2.2723259281,
				"y": 0.6158205333,
				"z": -1.9733207918,
				"element": "C" 
			},
			{
				"x": -3.1969451573,
				"y": -0.5953299858,
				"z": -1.7272311729,
				"element": "C" 
			},
			{
				"x": -2.5975216373,
				"y": -1.5314620892,
				"z": -0.6554404501,
				"element": "C" 
			},
			{
				"x": -1.7355831181,
				"y": -0.7608548595,
				"z": 0.3499382013,
				"element": "C" 
			},
			{
				"x": 1.6529519789,
				"y": -0.078832668,
				"z": -1.7448925082,
				"element": "H" 
			},
			{
				"x": 3.9337723207,
				"y": -0.3326411482,
				"z": -0.8815571592,
				"element": "H" 
			},
			{
				"x": 4.7844630022,
				"y": -0.7822810703,
				"z": 2.7856858622,
				"element": "H" 
			},
			{
				"x": 2.4110225598,
				"y": -0.4818757723,
				"z": 3.1286311432,
				"element": "H" 
			},
			{
				"x": -0.1738629592,
				"y": 1.132994897,
				"z": -1.948409569,
				"element": "H" 
			},
			{
				"x": -0.4938916789,
				"y": -0.5396879623,
				"z": -2.4250866576,
				"element": "H" 
			},
			{
				"x": -2.3842735324,
				"y": 0.993630471,
				"z": -2.9946239603,
				"element": "H" 
			},
			{
				"x": -2.5382466193,
				"y": 1.4403481654,
				"z": -1.3026104434,
				"element": "H" 
			},
			{
				"x": -3.3481604397,
				"y": -1.1541749156,
				"z": -2.6571948583,
				"element": "H" 
			},
			{
				"x": -4.1842472149,
				"y": -0.239946705,
				"z": -1.413867526,
				"element": "H" 
			},
			{
				"x": -1.9799548255,
				"y": -2.3044640845,
				"z": -1.1278676427,
				"element": "H" 
			},
			{
				"x": -3.3880839032,
				"y": -2.055498826,
				"z": -0.1086398759,
				"element": "H" 
			},
			{
				"x": -2.3319878763,
				"y": -0.0121909357,
				"z": 0.8830763093,
				"element": "H" 
			},
			{
				"x": -1.343905923,
				"y": -1.4503506823,
				"z": 1.103244218,
				"element": "H" 
			}
		],
		 "valence_orbital": [ 
			{
				"type": "occ",
				"energy": -0.29718,
				"method": "rhf"
			},
			{
				"type": "occ",
				"energy": -0.29455,
				"method": "rhf"
			},
			{
				"type": "occ",
				"energy": -0.27291,
				"method": "rhf"
			},
			{
				"type": "occ",
				"energy": -0.25285,
				"method": "rhf"
			},
			{
				"type": "occ",
				"energy": -0.22219,
				"method": "rhf"
			},
			{
				"type": "unocc",
				"energy": -0.08071,
				"method": "rhf"
			},
			{
				"type": "unocc",
				"energy": -0.05855,
				"method": "rhf"
			},
			{
				"type": "unocc",
				"energy": -0.01456,
				"method": "rhf"
			},
			{
				"type": "unocc",
				"energy": 0.03706,
				"method": "rhf"
			},
			{
				"type": "unocc",
				"energy": 0.05892,
				"method": "rhf"
			}
		],
		"cosmo_sigma_profile": { 
			"-0.025": 0.0,
			"-0.024": 0.0,
			"-0.023": 0.0,
			"-0.022": 0.0,
			"-0.021": 0.0,
			"-0.02": 0.0,
			"-0.019": 0.0,
			"-0.018": 0.0,
			"-0.017": 0.0,
			"-0.016": 0.0,
			"-0.015": 0.0,
			"-0.014": 0.0,
			"-0.013": 0.0,
			"-0.012": 0.0,
			"-0.011": 0.0,
			"-0.01": 0.0,
			"-0.009": 0.47162328438,
			"-0.008": 2.61080707419,
			"-0.007": 6.63102901698,
			"-0.006": 12.6513961374,
			"-0.005": 15.6201726842,
			"-0.004": 25.3730464705,
			"-0.003": 36.1918291703,
			"-0.002": 30.0887431483,
			"-0.001": 21.9143320662,
			"0.0": 22.1716673496,
			"0.001": 17.0867434694,
			"0.002": 10.7992966909,
			"0.003": 7.09708464084,
			"0.004": 4.76088048458,
			"0.005": 3.79594460022,
			"0.006": 5.07480554129,
			"0.007": 5.7394013161,
			"0.008": 11.6411461913,
			"0.009": 7.66507113426,
			"0.01": 5.88567606963,
			"0.011": 5.15656605823,
			"0.012": 4.02545914202,
			"0.013": 1.46271568082,
			"0.014": 0.117509674317,
			"0.015": 0.0,
			"0.016": 0.0,
			"0.017": 0.0,
			"0.018": 0.0,
			"0.019": 0.0,
			"0.02": 0.0,
			"0.021": 0.0,
			"0.022": 0.0,
			"0.023": 0.0,
			"0.024": 0.0,
			"0.025": 0.0
		}
	}
}
