{
	 "smiles": "CC(C)(C)OC(=O)N1CCC1C(O)=O", 
	 "Tm": 381.15, 
	 "num_atms": 29, 
	 "gaussian": { 
		 "optdone": 1, 
		 "sigma_profile": "yes", 
		 "theory": "DFT", 
		 "functional": "B3LYP", 
		 "basiset": "6-31G**", 
		 "properties": { 
			 "R2extent": 3521.0827, 
			 "electric_dipole_moment_norm": 3.6879903335, 
			 "electric_quadrupole_moment_norm": 24.0555406246, 
			 "total_energy": -707.664267049, 
			 "HOMO_LUMO_gap": 0.25631, 
			 "cosmo_polarized_energy": -14.38, 
			 "cosmo_cavitation_energy": 31.21, 
			 "cosmo_dispersion_energy": -21.55, 
			 "cosmo_repulsion_energy": 1.7, 
			 "cosmo_total_nonelectrostatic_energy": 11.36, 
			 "SMD_solvation_energy": 6.47 
		},
		"coords": [
			{
				"x": -0.2521335672,
				"y": -1.2245594556,
				"z": -1.9829085292,
				"element": "C" 
			},
			{
				"x": 1.0359970657,
				"y": -1.1975439961,
				"z": -1.1564804858,
				"element": "C" 
			},
			{
				"x": 1.5888977605,
				"y": -2.598747794,
				"z": -0.8833408828,
				"element": "C" 
			},
			{
				"x": 2.094964226,
				"y": -0.3099115678,
				"z": -1.813499278,
				"element": "C" 
			},
			{
				"x": 0.7847718814,
				"y": -0.5055048601,
				"z": 0.1325306691,
				"element": "O" 
			},
			{
				"x": -0.1146041816,
				"y": -1.0015294739,
				"z": 1.0422704169,
				"element": "C" 
			},
			{
				"x": -0.7899205902,
				"y": -2.0047201435,
				"z": 0.9100595445,
				"element": "O" 
			},
			{
				"x": -0.1682013666,
				"y": -0.1706510839,
				"z": 2.1217567051,
				"element": "N" 
			},
			{
				"x": -0.7570702564,
				"y": -0.4957072085,
				"z": 3.4313243486,
				"element": "C" 
			},
			{
				"x": 0.1850470405,
				"y": 0.5616382192,
				"z": 4.0745445628,
				"element": "C" 
			},
			{
				"x": 0.8577176057,
				"y": 0.732588308,
				"z": 2.6902699823,
				"element": "C" 
			},
			{
				"x": 0.8910238345,
				"y": 2.1513168642,
				"z": 2.1145790107,
				"element": "C" 
			},
			{
				"x": 0.9348625518,
				"y": 2.2236694016,
				"z": 0.7736644819,
				"element": "O" 
			},
			{
				"x": 0.9120560614,
				"y": 3.1354119051,
				"z": 2.8144551028,
				"element": "O" 
			},
			{
				"x": -0.640753508,
				"y": -0.2104990755,
				"z": -2.119401094,
				"element": "H" 
			},
			{
				"x": -0.0403741696,
				"y": -1.6416913894,
				"z": -2.9725687396,
				"element": "H" 
			},
			{
				"x": -1.0148387856,
				"y": -1.8350377306,
				"z": -1.4991368954,
				"element": "H" 
			},
			{
				"x": 1.8752668199,
				"y": -3.0665207354,
				"z": -1.8305724999,
				"element": "H" 
			},
			{
				"x": 2.4807071869,
				"y": -2.54090503,
				"z": -0.2513585244,
				"element": "H" 
			},
			{
				"x": 0.8446306281,
				"y": -3.2261045576,
				"z": -0.3926434495,
				"element": "H" 
			},
			{
				"x": 2.9911976896,
				"y": -0.2449125698,
				"z": -1.1896662492,
				"element": "H" 
			},
			{
				"x": 1.7132144837,
				"y": 0.7019174907,
				"z": -1.9815361509,
				"element": "H" 
			},
			{
				"x": 2.3803121099,
				"y": -0.729687089,
				"z": -2.7822805425,
				"element": "H" 
			},
			{
				"x": -1.8304238376,
				"y": -0.2949152916,
				"z": 3.4915780472,
				"element": "H" 
			},
			{
				"x": -0.5700140889,
				"y": -1.532075886,
				"z": 3.7308167049,
				"element": "H" 
			},
			{
				"x": -0.3066222514,
				"y": 1.4751739782,
				"z": 4.4089904621,
				"element": "H" 
			},
			{
				"x": 0.8379187549,
				"y": 0.1892420202,
				"z": 4.8641914245,
				"element": "H" 
			},
			{
				"x": 1.8713451694,
				"y": 0.3126606398,
				"z": 2.6219740869,
				"element": "H" 
			},
			{
				"x": 0.8963257334,
				"y": 1.3241061113,
				"z": 0.3883877709,
				"element": "H" 
			}
		],
		 "valence_orbital": [ 
			{
				"type": "occ",
				"energy": -0.31251,
				"method": "rhf"
			},
			{
				"type": "occ",
				"energy": -0.30781,
				"method": "rhf"
			},
			{
				"type": "occ",
				"energy": -0.28446,
				"method": "rhf"
			},
			{
				"type": "occ",
				"energy": -0.28281,
				"method": "rhf"
			},
			{
				"type": "occ",
				"energy": -0.24959,
				"method": "rhf"
			},
			{
				"type": "unocc",
				"energy": 0.00672,
				"method": "rhf"
			},
			{
				"type": "unocc",
				"energy": 0.02553,
				"method": "rhf"
			},
			{
				"type": "unocc",
				"energy": 0.06322,
				"method": "rhf"
			},
			{
				"type": "unocc",
				"energy": 0.07838,
				"method": "rhf"
			},
			{
				"type": "unocc",
				"energy": 0.09184,
				"method": "rhf"
			}
		],
		"cosmo_sigma_profile": { 
			"-0.025": 0.0,
			"-0.024": 0.0,
			"-0.023": 0.0,
			"-0.022": 0.0,
			"-0.021": 0.0,
			"-0.02": 0.0,
			"-0.019": 0.0,
			"-0.018": 0.0,
			"-0.017": 0.0,
			"-0.016": 0.0,
			"-0.015": 0.0,
			"-0.014": 0.0,
			"-0.013": 0.0,
			"-0.012": 0.0,
			"-0.011": 0.0,
			"-0.01": 0.0,
			"-0.009": 0.775578785354,
			"-0.008": 3.40967393521,
			"-0.007": 4.50076749194,
			"-0.006": 9.15579454811,
			"-0.005": 20.1695918869,
			"-0.004": 29.4691543126,
			"-0.003": 26.3683138493,
			"-0.002": 25.4371553161,
			"-0.001": 23.3828862322,
			"0.0": 26.8789567387,
			"0.001": 13.6474965442,
			"0.002": 5.94905075318,
			"0.003": 4.25943285002,
			"0.004": 4.27751353558,
			"0.005": 4.27101716578,
			"0.006": 4.12360018569,
			"0.007": 4.85213971207,
			"0.008": 3.35669665474,
			"0.009": 4.37901212156,
			"0.01": 7.07618370518,
			"0.011": 7.18916580981,
			"0.012": 8.01193382381,
			"0.013": 3.37122490788,
			"0.014": 0.0336447090751,
			"0.015": 0.0,
			"0.016": 0.0,
			"0.017": 0.0,
			"0.018": 0.0,
			"0.019": 0.0,
			"0.02": 0.0,
			"0.021": 0.0,
			"0.022": 0.0,
			"0.023": 0.0,
			"0.024": 0.0,
			"0.025": 0.0
		}
	}
}
