{
	 "smiles": "CCC1COC(CN2C=NC=N2)(O1)C1=CC=C(Cl)C=C1Cl", 
	 "Tm": 357.15, 
	 "num_atms": 36, 
	 "gaussian": { 
		 "optdone": 1, 
		 "sigma_profile": "yes", 
		 "theory": "DFT", 
		 "functional": "B3LYP", 
		 "basiset": "6-31G**", 
		 "properties": { 
			 "R2extent": 9518.9728, 
			 "electric_dipole_moment_norm": 2.84602526166, 
			 "electric_quadrupole_moment_norm": 14.2691566107, 
			 "total_energy": -1777.58994027, 
			 "HOMO_LUMO_gap": 0.21874, 
			 "cosmo_polarized_energy": -14.27, 
			 "cosmo_cavitation_energy": 42.47, 
			 "cosmo_dispersion_energy": -28.67, 
			 "cosmo_repulsion_energy": 2.2, 
			 "cosmo_total_nonelectrostatic_energy": 16.0, 
			 "SMD_solvation_energy": 4.11 
		},
		"coords": [
			{
				"x": -2.5917165204,
				"y": -0.1484508254,
				"z": -1.7482255785,
				"element": "C" 
			},
			{
				"x": -1.4352642666,
				"y": 0.8325542844,
				"z": -1.5336889294,
				"element": "C" 
			},
			{
				"x": -0.2437787307,
				"y": 0.2134324242,
				"z": -0.817756096,
				"element": "C" 
			},
			{
				"x": 0.9270858449,
				"y": 1.1565334559,
				"z": -0.5428483155,
				"element": "C" 
			},
			{
				"x": 1.4925103584,
				"y": 0.6548085926,
				"z": 0.6723335925,
				"element": "O" 
			},
			{
				"x": 0.5168707812,
				"y": -0.1420334251,
				"z": 1.3366432192,
				"element": "C" 
			},
			{
				"x": 0.1146031895,
				"y": 0.5025844227,
				"z": 2.6858864263,
				"element": "C" 
			},
			{
				"x": -0.2828036532,
				"y": 1.8878029586,
				"z": 2.5388981968,
				"element": "N" 
			},
			{
				"x": 0.4995442839,
				"y": 2.9891866922,
				"z": 2.4348473967,
				"element": "C" 
			},
			{
				"x": -0.240466321,
				"y": 4.0662096762,
				"z": 2.2335130444,
				"element": "N" 
			},
			{
				"x": -1.5044762637,
				"y": 3.5529076941,
				"z": 2.2190607255,
				"element": "C" 
			},
			{
				"x": -1.5889364953,
				"y": 2.2421937278,
				"z": 2.3939764391,
				"element": "N" 
			},
			{
				"x": -0.630554629,
				"y": -0.1600328972,
				"z": 0.5171028441,
				"element": "O" 
			},
			{
				"x": 1.0624888597,
				"y": -1.5635290669,
				"z": 1.5609997908,
				"element": "C" 
			},
			{
				"x": 0.25411361,
				"y": -2.6525235482,
				"z": 1.2086745405,
				"element": "C" 
			},
			{
				"x": 0.6631607304,
				"y": -3.9722165056,
				"z": 1.3828596772,
				"element": "C" 
			},
			{
				"x": 1.9184292088,
				"y": -4.2165805303,
				"z": 1.9334288679,
				"element": "C" 
			},
			{
				"x": 2.4663048046,
				"y": -5.8663546028,
				"z": 2.1635511168,
				"element": "Cl" 
			},
			{
				"x": 2.7508788683,
				"y": -3.166264105,
				"z": 2.3116237494,
				"element": "C" 
			},
			{
				"x": 2.315016125,
				"y": -1.8531670653,
				"z": 2.1271687353,
				"element": "C" 
			},
			{
				"x": 3.4236099617,
				"y": -0.5912154387,
				"z": 2.6545069053,
				"element": "Cl" 
			},
			{
				"x": -2.9674456054,
				"y": -0.5177888375,
				"z": -0.79005735,
				"element": "H" 
			},
			{
				"x": -2.2773530772,
				"y": -1.0112030909,
				"z": -2.3467200398,
				"element": "H" 
			},
			{
				"x": -3.4210245369,
				"y": 0.3358607734,
				"z": -2.2722465255,
				"element": "H" 
			},
			{
				"x": -1.0848686261,
				"y": 1.2185307204,
				"z": -2.5000644102,
				"element": "H" 
			},
			{
				"x": -1.7744014102,
				"y": 1.692083594,
				"z": -0.9442482624,
				"element": "H" 
			},
			{
				"x": 0.107873676,
				"y": -0.6819708702,
				"z": -1.3540080156,
				"element": "H" 
			},
			{
				"x": 0.5838294107,
				"y": 2.1900947287,
				"z": -0.4039087123,
				"element": "H" 
			},
			{
				"x": 1.6968239621,
				"y": 1.1303834384,
				"z": -1.3189319618,
				"element": "H" 
			},
			{
				"x": 0.9564988838,
				"y": 0.4485147508,
				"z": 3.3778423192,
				"element": "H" 
			},
			{
				"x": -0.7316481937,
				"y": -0.0432017438,
				"z": 3.1052494787,
				"element": "H" 
			},
			{
				"x": 1.5769124426,
				"y": 2.9484839977,
				"z": 2.507532304,
				"element": "H" 
			},
			{
				"x": -2.3876066969,
				"y": 4.1624003823,
				"z": 2.0837145336,
				"element": "H" 
			},
			{
				"x": -0.7201666234,
				"y": -2.4423981164,
				"z": 0.7831904362,
				"element": "H" 
			},
			{
				"x": 0.0189373205,
				"y": -4.7958317604,
				"z": 1.0973264656,
				"element": "H" 
			},
			{
				"x": 3.7244193273,
				"y": -3.3602038847,
				"z": 2.7443733921,
				"element": "H" 
			}
		],
		 "valence_orbital": [ 
			{
				"type": "occ",
				"energy": -0.27478,
				"method": "rhf"
			},
			{
				"type": "occ",
				"energy": -0.27126,
				"method": "rhf"
			},
			{
				"type": "occ",
				"energy": -0.26953,
				"method": "rhf"
			},
			{
				"type": "occ",
				"energy": -0.26198,
				"method": "rhf"
			},
			{
				"type": "occ",
				"energy": -0.25528,
				"method": "rhf"
			},
			{
				"type": "unocc",
				"energy": -0.03654,
				"method": "rhf"
			},
			{
				"type": "unocc",
				"energy": -0.03235,
				"method": "rhf"
			},
			{
				"type": "unocc",
				"energy": 0.0001,
				"method": "rhf"
			},
			{
				"type": "unocc",
				"energy": 0.0088,
				"method": "rhf"
			},
			{
				"type": "unocc",
				"energy": 0.04174,
				"method": "rhf"
			}
		],
		"cosmo_sigma_profile": { 
			"-0.025": 0.0,
			"-0.024": 0.0,
			"-0.023": 0.0,
			"-0.022": 0.0,
			"-0.021": 0.0,
			"-0.02": 0.0,
			"-0.019": 0.0,
			"-0.018": 0.0,
			"-0.017": 0.0,
			"-0.016": 0.0,
			"-0.015": 0.0,
			"-0.014": 0.0,
			"-0.013": 0.0,
			"-0.012": 0.0,
			"-0.011": 0.0288260511136,
			"-0.01": 0.810525698135,
			"-0.009": 1.42250077336,
			"-0.008": 7.29126587666,
			"-0.007": 9.99658503779,
			"-0.006": 15.654286978,
			"-0.005": 18.8546446395,
			"-0.004": 22.9849181076,
			"-0.003": 27.8493041692,
			"-0.002": 29.3309959211,
			"-0.001": 30.1630298875,
			"0.0": 32.765442972,
			"0.001": 38.0796904964,
			"0.002": 24.9983920143,
			"0.003": 20.4973487209,
			"0.004": 18.4378042633,
			"0.005": 8.76658208407,
			"0.006": 4.68544387522,
			"0.007": 4.54769085054,
			"0.008": 3.76788035782,
			"0.009": 4.18710497733,
			"0.01": 3.47151408319,
			"0.011": 3.6882644797,
			"0.012": 1.89636854667,
			"0.013": 2.48914686766,
			"0.014": 2.1870733964,
			"0.015": 1.39354827336,
			"0.016": 1.27742463301,
			"0.017": 0.291401051233,
			"0.018": 0.0,
			"0.019": 0.0,
			"0.02": 0.0,
			"0.021": 0.0,
			"0.022": 0.0,
			"0.023": 0.0,
			"0.024": 0.0,
			"0.025": 0.0
		}
	}
}
