{
	 "smiles": "[O-][N+](=O)NC1=NCCN1CC1=CN=C(Cl)C=C1", 
	 "Tm": 415.15, 
	 "num_atms": 27, 
	 "gaussian": { 
		 "optdone": 1, 
		 "sigma_profile": "yes", 
		 "theory": "DFT", 
		 "functional": "B3LYP", 
		 "basiset": "6-31G**", 
		 "properties": { 
			 "R2extent": 5720.0296, 
			 "electric_dipole_moment_norm": 4.5179981795, 
			 "electric_quadrupole_moment_norm": 13.6755148587, 
			 "total_energy": -1233.23949383, 
			 "HOMO_LUMO_gap": 0.15786, 
			 "cosmo_polarized_energy": -16.8, 
			 "cosmo_cavitation_energy": 33.61, 
			 "cosmo_dispersion_energy": -23.91, 
			 "cosmo_repulsion_energy": 1.89, 
			 "cosmo_total_nonelectrostatic_energy": 11.59, 
			 "SMD_solvation_energy": 1.97 
		},
		"coords": [
			{
				"x": -1.9595267808,
				"y": -2.9530892922,
				"z": 0.9301788834,
				"element": "O" 
			},
			{
				"x": -0.8497536191,
				"y": -3.3381652148,
				"z": 1.2678166823,
				"element": "N" 
			},
			{
				"x": -0.4932189591,
				"y": -4.486290802,
				"z": 1.4852252034,
				"element": "O" 
			},
			{
				"x": 0.179776913,
				"y": -2.3698502141,
				"z": 1.3618993319,
				"element": "N" 
			},
			{
				"x": -0.1398585403,
				"y": -1.0394775874,
				"z": 1.7487915394,
				"element": "C" 
			},
			{
				"x": 0.298654137,
				"y": -0.5834454852,
				"z": 2.8620836728,
				"element": "N" 
			},
			{
				"x": -0.1095804565,
				"y": 0.8314594894,
				"z": 2.8997647154,
				"element": "C" 
			},
			{
				"x": -0.7643232277,
				"y": 1.1379286343,
				"z": 1.5187790506,
				"element": "C" 
			},
			{
				"x": -0.8489188428,
				"y": -0.2021170415,
				"z": 0.9169119725,
				"element": "N" 
			},
			{
				"x": -1.023340551,
				"y": -0.3761610402,
				"z": -0.5224026719,
				"element": "C" 
			},
			{
				"x": 0.1017690798,
				"y": 0.1955000575,
				"z": -1.3688549393,
				"element": "C" 
			},
			{
				"x": 1.3167375477,
				"y": -0.4844053722,
				"z": -1.51378802,
				"element": "C" 
			},
			{
				"x": 2.3508593941,
				"y": -0.0267783104,
				"z": -2.2308115594,
				"element": "N" 
			},
			{
				"x": 2.2022466954,
				"y": 1.1387697691,
				"z": -2.8350634596,
				"element": "C" 
			},
			{
				"x": 3.5728121655,
				"y": 1.7271766715,
				"z": -3.7715575848,
				"element": "Cl" 
			},
			{
				"x": 1.0440216121,
				"y": 1.9176665057,
				"z": -2.7820713649,
				"element": "C" 
			},
			{
				"x": -0.0187047875,
				"y": 1.4234195907,
				"z": -2.0311108507,
				"element": "C" 
			},
			{
				"x": 0.9075231373,
				"y": -2.7615916037,
				"z": 1.9530574914,
				"element": "H" 
			},
			{
				"x": -0.8207586944,
				"y": 0.9706956791,
				"z": 3.7221414882,
				"element": "H" 
			},
			{
				"x": 0.7535643205,
				"y": 1.4722084754,
				"z": 3.1056631508,
				"element": "H" 
			},
			{
				"x": -1.7578623743,
				"y": 1.5915727981,
				"z": 1.6024812148,
				"element": "H" 
			},
			{
				"x": -0.138935013,
				"y": 1.7958797509,
				"z": 0.900693013,
				"element": "H" 
			},
			{
				"x": -1.9693796765,
				"y": 0.100558909,
				"z": -0.8030528089,
				"element": "H" 
			},
			{
				"x": -1.1479157929,
				"y": -1.4426175152,
				"z": -0.7129232957,
				"element": "H" 
			},
			{
				"x": 1.4645214904,
				"y": -1.4492122793,
				"z": -1.0320416987,
				"element": "H" 
			},
			{
				"x": 0.9842174824,
				"y": 2.8624593104,
				"z": -3.3088758929,
				"element": "H" 
			},
			{
				"x": -0.945226659,
				"y": 1.989206117,
				"z": -1.9680332632,
				"element": "H" 
			}
		],
		 "valence_orbital": [ 
			{
				"type": "occ",
				"energy": -0.30723,
				"method": "rhf"
			},
			{
				"type": "occ",
				"energy": -0.28886,
				"method": "rhf"
			},
			{
				"type": "occ",
				"energy": -0.28297,
				"method": "rhf"
			},
			{
				"type": "occ",
				"energy": -0.2672,
				"method": "rhf"
			},
			{
				"type": "occ",
				"energy": -0.23018,
				"method": "rhf"
			},
			{
				"type": "unocc",
				"energy": -0.07232,
				"method": "rhf"
			},
			{
				"type": "unocc",
				"energy": -0.04703,
				"method": "rhf"
			},
			{
				"type": "unocc",
				"energy": -0.03969,
				"method": "rhf"
			},
			{
				"type": "unocc",
				"energy": 1e-05,
				"method": "rhf"
			},
			{
				"type": "unocc",
				"energy": 0.02699,
				"method": "rhf"
			}
		],
		"cosmo_sigma_profile": { 
			"-0.025": 0.0,
			"-0.024": 0.0,
			"-0.023": 0.0,
			"-0.022": 0.0,
			"-0.021": 0.0,
			"-0.02": 0.0,
			"-0.019": 0.0,
			"-0.018": 0.0,
			"-0.017": 0.0472696531091,
			"-0.016": 0.579983038125,
			"-0.015": 1.1618294652,
			"-0.014": 0.604859460537,
			"-0.013": 0.482125869242,
			"-0.012": 0.617805282111,
			"-0.011": 0.986607939381,
			"-0.01": 1.5789313957,
			"-0.009": 1.3047671415,
			"-0.008": 6.4123909918,
			"-0.007": 10.3850016307,
			"-0.006": 10.7808996148,
			"-0.005": 19.6401414385,
			"-0.004": 25.7253894844,
			"-0.003": 23.170104539,
			"-0.002": 18.3307171498,
			"-0.001": 16.0037422433,
			"0.0": 20.5313740807,
			"0.001": 16.5430518708,
			"0.002": 10.1170136095,
			"0.003": 10.161416376,
			"0.004": 15.7813678952,
			"0.005": 10.4535784996,
			"0.006": 11.2874139511,
			"0.007": 12.7477050852,
			"0.008": 8.59786262668,
			"0.009": 5.14365959688,
			"0.01": 2.11600536065,
			"0.011": 1.29894985969,
			"0.012": 2.19702311469,
			"0.013": 1.65087209486,
			"0.014": 1.80076291522,
			"0.015": 1.07723770267,
			"0.016": 0.893948296841,
			"0.017": 0.275928548416,
			"0.018": 0.0,
			"0.019": 0.0,
			"0.02": 0.0,
			"0.021": 0.0,
			"0.022": 0.0,
			"0.023": 0.0,
			"0.024": 0.0,
			"0.025": 0.0
		}
	}
}
