{
	 "smiles": "CC1=NN(C=C1)C1=CC(=CC=C1)C(O)=O", 
	 "Tm": 472.15, 
	 "num_atms": 25, 
	 "gaussian": { 
		 "optdone": 1, 
		 "sigma_profile": "yes", 
		 "theory": "DFT", 
		 "functional": "B3LYP", 
		 "basiset": "6-31G**", 
		 "properties": { 
			 "R2extent": 4733.3515, 
			 "electric_dipole_moment_norm": 4.33101279264, 
			 "electric_quadrupole_moment_norm": 20.6479777235, 
			 "total_energy": -685.140505675, 
			 "HOMO_LUMO_gap": 0.17911, 
			 "cosmo_polarized_energy": -16.94, 
			 "cosmo_cavitation_energy": 29.92, 
			 "cosmo_dispersion_energy": -21.91, 
			 "cosmo_repulsion_energy": 1.7, 
			 "cosmo_total_nonelectrostatic_energy": 9.71, 
			 "SMD_solvation_energy": 5.98 
		},
		"coords": [
			{
				"x": -2.2935863502,
				"y": -0.9946895198,
				"z": 3.8133560441,
				"element": "C" 
			},
			{
				"x": -1.4925609469,
				"y": -0.7331076183,
				"z": 2.5722387472,
				"element": "C" 
			},
			{
				"x": -1.9857359968,
				"y": 0.014728462,
				"z": 1.5878860016,
				"element": "N" 
			},
			{
				"x": -1.0167243907,
				"y": 0.0391306588,
				"z": 0.6321198999,
				"element": "N" 
			},
			{
				"x": 0.0840513244,
				"y": -0.6808423267,
				"z": 1.0097497703,
				"element": "C" 
			},
			{
				"x": -0.1881105695,
				"y": -1.1967847899,
				"z": 2.2555855297,
				"element": "C" 
			},
			{
				"x": -1.2239077363,
				"y": 0.7695616948,
				"z": -0.5619312726,
				"element": "C" 
			},
			{
				"x": -0.4585208362,
				"y": 0.5039860794,
				"z": -1.70192285,
				"element": "C" 
			},
			{
				"x": -0.6505951094,
				"y": 1.2587015708,
				"z": -2.8663841062,
				"element": "C" 
			},
			{
				"x": -1.6084343951,
				"y": 2.2788873121,
				"z": -2.8893600174,
				"element": "C" 
			},
			{
				"x": -2.3900395604,
				"y": 2.5133400033,
				"z": -1.7599246221,
				"element": "C" 
			},
			{
				"x": -2.2050164655,
				"y": 1.7685683942,
				"z": -0.5968796616,
				"element": "C" 
			},
			{
				"x": 0.1581529833,
				"y": 1.027880328,
				"z": -4.1087344227,
				"element": "C" 
			},
			{
				"x": 0.6933975207,
				"y": -0.214433396,
				"z": -4.2656801584,
				"element": "O" 
			},
			{
				"x": 0.3462107475,
				"y": 1.8776599591,
				"z": -4.9458943018,
				"element": "O" 
			},
			{
				"x": -2.5453770042,
				"y": -0.0599985212,
				"z": 4.3245759828,
				"element": "H" 
			},
			{
				"x": -1.7331319518,
				"y": -1.6237277359,
				"z": 4.5091788109,
				"element": "H" 
			},
			{
				"x": -3.234404793,
				"y": -1.5016098267,
				"z": 3.5761252721,
				"element": "H" 
			},
			{
				"x": 0.9680224489,
				"y": -0.7432443303,
				"z": 0.3942733454,
				"element": "H" 
			},
			{
				"x": 0.460197926,
				"y": -1.8117281189,
				"z": 2.8622371118,
				"element": "H" 
			},
			{
				"x": 0.3013672037,
				"y": -0.2702352098,
				"z": -1.6688078542,
				"element": "H" 
			},
			{
				"x": -1.7269016662,
				"y": 2.8629438313,
				"z": -3.7949377223,
				"element": "H" 
			},
			{
				"x": -3.1467569191,
				"y": 3.2916519641,
				"z": -1.7773716019,
				"element": "H" 
			},
			{
				"x": -2.7989438435,
				"y": 1.9444734565,
				"z": 0.2911497449,
				"element": "H" 
			},
			{
				"x": 0.2985483803,
				"y": -0.8280123208,
				"z": -3.6306476693,
				"element": "H" 
			}
		],
		 "valence_orbital": [ 
			{
				"type": "occ",
				"energy": -0.29604,
				"method": "rhf"
			},
			{
				"type": "occ",
				"energy": -0.28102,
				"method": "rhf"
			},
			{
				"type": "occ",
				"energy": -0.2731,
				"method": "rhf"
			},
			{
				"type": "occ",
				"energy": -0.25691,
				"method": "rhf"
			},
			{
				"type": "occ",
				"energy": -0.23362,
				"method": "rhf"
			},
			{
				"type": "unocc",
				"energy": -0.05451,
				"method": "rhf"
			},
			{
				"type": "unocc",
				"energy": -0.0392,
				"method": "rhf"
			},
			{
				"type": "unocc",
				"energy": 0.01679,
				"method": "rhf"
			},
			{
				"type": "unocc",
				"energy": 0.04787,
				"method": "rhf"
			},
			{
				"type": "unocc",
				"energy": 0.0577,
				"method": "rhf"
			}
		],
		"cosmo_sigma_profile": { 
			"-0.025": 0.0,
			"-0.024": 0.0,
			"-0.023": 0.0,
			"-0.022": 0.0,
			"-0.021": 0.0,
			"-0.02": 0.0,
			"-0.019": 0.176001931774,
			"-0.018": 1.22594708511,
			"-0.017": 0.93564956903,
			"-0.016": 0.959104331841,
			"-0.015": 1.11810428665,
			"-0.014": 0.703234490001,
			"-0.013": 1.75121938522,
			"-0.012": 0.981235814997,
			"-0.011": 2.3845319093,
			"-0.01": 2.49244104919,
			"-0.009": 3.45164642759,
			"-0.008": 2.76341115653,
			"-0.007": 5.64873772372,
			"-0.006": 9.42937140741,
			"-0.005": 13.7878854146,
			"-0.004": 15.976770124,
			"-0.003": 14.9210184045,
			"-0.002": 15.9020889256,
			"-0.001": 16.4771076004,
			"0.0": 20.5919208222,
			"0.001": 17.0479471656,
			"0.002": 19.6469247184,
			"0.003": 15.405406897,
			"0.004": 10.4956841029,
			"0.005": 7.50353505044,
			"0.006": 4.71834768424,
			"0.007": 4.80444375281,
			"0.008": 3.73353132261,
			"0.009": 5.3141935882,
			"0.01": 5.65780301594,
			"0.011": 6.76864842856,
			"0.012": 5.03170146717,
			"0.013": 2.03065451141,
			"0.014": 0.13034781004,
			"0.015": 0.0,
			"0.016": 0.0,
			"0.017": 0.0,
			"0.018": 0.0,
			"0.019": 0.0,
			"0.02": 0.0,
			"0.021": 0.0,
			"0.022": 0.0,
			"0.023": 0.0,
			"0.024": 0.0,
			"0.025": 0.0
		}
	}
}
