{
	 "smiles": "O=C1NC2=CC=CC=C2CCC2=C1C=CC=C2", 
	 "Tm": 520.15, 
	 "num_atms": 30, 
	 "gaussian": { 
		 "optdone": 1, 
		 "sigma_profile": "yes", 
		 "theory": "DFT", 
		 "functional": "B3LYP", 
		 "basiset": "6-31G**", 
		 "properties": { 
			 "R2extent": 3763.6847, 
			 "electric_dipole_moment_norm": 3.4254279864, 
			 "electric_quadrupole_moment_norm": 12.2104048659, 
			 "total_energy": -709.42510237, 
			 "HOMO_LUMO_gap": 0.20158, 
			 "cosmo_polarized_energy": -11.76, 
			 "cosmo_cavitation_energy": 32.36, 
			 "cosmo_dispersion_energy": -23.15, 
			 "cosmo_repulsion_energy": 1.78, 
			 "cosmo_total_nonelectrostatic_energy": 10.99, 
			 "SMD_solvation_energy": 5.55 
		},
		"coords": [
			{
				"x": -1.2371766069,
				"y": 3.2469901222,
				"z": -0.6434905679,
				"element": "O" 
			},
			{
				"x": -0.5564412852,
				"y": 2.2443038,
				"z": -0.4723846118,
				"element": "C" 
			},
			{
				"x": 0.8276355355,
				"y": 2.3000520969,
				"z": -0.6223599761,
				"element": "N" 
			},
			{
				"x": 1.6455914255,
				"y": 1.2268034538,
				"z": -1.1174517793,
				"element": "C" 
			},
			{
				"x": 1.9958941117,
				"y": 1.2621179264,
				"z": -2.4754194625,
				"element": "C" 
			},
			{
				"x": 2.8107896615,
				"y": 0.2833969894,
				"z": -3.0354947104,
				"element": "C" 
			},
			{
				"x": 3.2668811744,
				"y": -0.7632912285,
				"z": -2.2339878659,
				"element": "C" 
			},
			{
				"x": 2.9144159324,
				"y": -0.7998007167,
				"z": -0.8876282377,
				"element": "C" 
			},
			{
				"x": 2.1209993225,
				"y": 0.1932512152,
				"z": -0.2902498087,
				"element": "C" 
			},
			{
				"x": 1.8975472693,
				"y": 0.1068257162,
				"z": 1.2099930079,
				"element": "C" 
			},
			{
				"x": 0.5505411086,
				"y": 0.6031717454,
				"z": 1.782689883,
				"element": "C" 
			},
			{
				"x": -0.6602060579,
				"y": 0.1598193046,
				"z": 0.9904952134,
				"element": "C" 
			},
			{
				"x": -1.162498757,
				"y": 0.9309884737,
				"z": -0.0754096798,
				"element": "C" 
			},
			{
				"x": -2.327250583,
				"y": 0.536470463,
				"z": -0.7465739333,
				"element": "C" 
			},
			{
				"x": -2.9707739094,
				"y": -0.6510135703,
				"z": -0.4097789751,
				"element": "C" 
			},
			{
				"x": -2.4679401153,
				"y": -1.4343324553,
				"z": 0.6312310291,
				"element": "C" 
			},
			{
				"x": -1.3331521258,
				"y": -1.0213048286,
				"z": 1.328382482,
				"element": "C" 
			},
			{
				"x": 1.0914063289,
				"y": 3.2182389785,
				"z": -0.9650230067,
				"element": "H" 
			},
			{
				"x": 1.6100149141,
				"y": 2.070669543,
				"z": -3.0907110408,
				"element": "H" 
			},
			{
				"x": 3.0721876449,
				"y": 0.3307154142,
				"z": -4.0883620258,
				"element": "H" 
			},
			{
				"x": 3.8913976005,
				"y": -1.5466112657,
				"z": -2.6532025709,
				"element": "H" 
			},
			{
				"x": 3.2771669942,
				"y": -1.6140828265,
				"z": -0.2651466699,
				"element": "H" 
			},
			{
				"x": 2.0306851174,
				"y": -0.9428474135,
				"z": 1.495234499,
				"element": "H" 
			},
			{
				"x": 2.7024130445,
				"y": 0.657515092,
				"z": 1.7171048331,
				"element": "H" 
			},
			{
				"x": 0.4658365112,
				"y": 0.2226352933,
				"z": 2.8068503357,
				"element": "H" 
			},
			{
				"x": 0.5662254145,
				"y": 1.6923469728,
				"z": 1.8568873335,
				"element": "H" 
			},
			{
				"x": -2.7166856975,
				"y": 1.17607644,
				"z": -1.532120271,
				"element": "H" 
			},
			{
				"x": -3.8642555485,
				"y": -0.9574070888,
				"z": -0.9455095763,
				"element": "H" 
			},
			{
				"x": -2.9682254179,
				"y": -2.3571546586,
				"z": 0.9112089309,
				"element": "H" 
			},
			{
				"x": -0.9665230073,
				"y": -1.6170429881,
				"z": 2.1610272224,
				"element": "H" 
			}
		],
		 "valence_orbital": [ 
			{
				"type": "occ",
				"energy": -0.26486,
				"method": "rhf"
			},
			{
				"type": "occ",
				"energy": -0.25073,
				"method": "rhf"
			},
			{
				"type": "occ",
				"energy": -0.24814,
				"method": "rhf"
			},
			{
				"type": "occ",
				"energy": -0.24613,
				"method": "rhf"
			},
			{
				"type": "occ",
				"energy": -0.2291,
				"method": "rhf"
			},
			{
				"type": "unocc",
				"energy": -0.02752,
				"method": "rhf"
			},
			{
				"type": "unocc",
				"energy": -0.01345,
				"method": "rhf"
			},
			{
				"type": "unocc",
				"energy": -0.00768,
				"method": "rhf"
			},
			{
				"type": "unocc",
				"energy": 2e-05,
				"method": "rhf"
			},
			{
				"type": "unocc",
				"energy": 0.04568,
				"method": "rhf"
			}
		],
		"cosmo_sigma_profile": { 
			"-0.025": 0.0,
			"-0.024": 0.0,
			"-0.023": 0.0,
			"-0.022": 0.0,
			"-0.021": 0.0,
			"-0.02": 0.0,
			"-0.019": 0.0,
			"-0.018": 0.0,
			"-0.017": 0.0,
			"-0.016": 0.0,
			"-0.015": 0.0,
			"-0.014": 0.145834377123,
			"-0.013": 1.05128158588,
			"-0.012": 0.752053414393,
			"-0.011": 1.29004663952,
			"-0.01": 0.98933685745,
			"-0.009": 1.14885891819,
			"-0.008": 0.828790172196,
			"-0.007": 2.36366137265,
			"-0.006": 11.1328947338,
			"-0.005": 19.9489370064,
			"-0.004": 28.2373416997,
			"-0.003": 24.9413548257,
			"-0.002": 22.5352232049,
			"-0.001": 19.0602943519,
			"0.0": 15.6394446879,
			"0.001": 14.9252250291,
			"0.002": 15.4585188632,
			"0.003": 15.0066184743,
			"0.004": 19.6192049384,
			"0.005": 19.787579163,
			"0.006": 4.65468300892,
			"0.007": 1.59563247439,
			"0.008": 1.36751234979,
			"0.009": 1.50315232579,
			"0.01": 1.32336939086,
			"0.011": 1.69761550268,
			"0.012": 3.40349535821,
			"0.013": 5.25254855857,
			"0.014": 1.83875888989,
			"0.015": 0.0585008943896,
			"0.016": 0.0,
			"0.017": 0.0,
			"0.018": 0.0,
			"0.019": 0.0,
			"0.02": 0.0,
			"0.021": 0.0,
			"0.022": 0.0,
			"0.023": 0.0,
			"0.024": 0.0,
			"0.025": 0.0
		}
	}
}
