{
	 "smiles": "OC(=O)C1=CN(CCOC2=C(Cl)C=C(C=O)C=C2)N=N1", 
	 "Tm": 463.15, 
	 "num_atms": 30, 
	 "gaussian": { 
		 "optdone": 1, 
		 "sigma_profile": "yes", 
		 "theory": "DFT", 
		 "functional": "B3LYP", 
		 "basiset": "6-31G**", 
		 "properties": { 
			 "R2extent": 7960.2012, 
			 "electric_dipole_moment_norm": 6.89252878848, 
			 "electric_quadrupole_moment_norm": 25.9811148818, 
			 "total_energy": -1388.59267092, 
			 "HOMO_LUMO_gap": 0.18135, 
			 "cosmo_polarized_energy": -28.05, 
			 "cosmo_cavitation_energy": 38.28, 
			 "cosmo_dispersion_energy": -26.09, 
			 "cosmo_repulsion_energy": 2.03, 
			 "cosmo_total_nonelectrostatic_energy": 14.21, 
			 "SMD_solvation_energy": 7.75 
		},
		"coords": [
			{
				"x": 1.8143463886,
				"y": -0.7838632392,
				"z": -4.7152815602,
				"element": "O" 
			},
			{
				"x": 2.3628717106,
				"y": -0.8623464336,
				"z": -3.4871734648,
				"element": "C" 
			},
			{
				"x": 3.4953970109,
				"y": -0.5096527978,
				"z": -3.2512626367,
				"element": "O" 
			},
			{
				"x": 1.4525379339,
				"y": -1.4125327325,
				"z": -2.4553586608,
				"element": "C" 
			},
			{
				"x": 1.6804586409,
				"y": -1.6439305568,
				"z": -1.1151917977,
				"element": "C" 
			},
			{
				"x": 0.5082848156,
				"y": -2.1542189927,
				"z": -0.6670752443,
				"element": "N" 
			},
			{
				"x": 0.1294401508,
				"y": -2.5409413088,
				"z": 0.6868592496,
				"element": "C" 
			},
			{
				"x": -0.3472520002,
				"y": -1.3806350895,
				"z": 1.5662386446,
				"element": "C" 
			},
			{
				"x": -1.6528532141,
				"y": -0.9460212686,
				"z": 1.2120994226,
				"element": "O" 
			},
			{
				"x": -1.8708235131,
				"y": 0.1932826101,
				"z": 0.5058734254,
				"element": "C" 
			},
			{
				"x": -3.2118895092,
				"y": 0.6417630607,
				"z": 0.458255154,
				"element": "C" 
			},
			{
				"x": -4.4512036971,
				"y": -0.2713838286,
				"z": 1.2881409767,
				"element": "Cl" 
			},
			{
				"x": -3.5483607567,
				"y": 1.7929541386,
				"z": -0.230871442,
				"element": "C" 
			},
			{
				"x": -2.5552706162,
				"y": 2.533939224,
				"z": -0.8911989186,
				"element": "C" 
			},
			{
				"x": -2.9163216799,
				"y": 3.7652419733,
				"z": -1.6234947917,
				"element": "C" 
			},
			{
				"x": -4.0434959025,
				"y": 4.2160114754,
				"z": -1.7024015818,
				"element": "O" 
			},
			{
				"x": -1.2299618358,
				"y": 2.0936052039,
				"z": -0.8504174046,
				"element": "C" 
			},
			{
				"x": -0.8866625811,
				"y": 0.9327846976,
				"z": -0.1619543962,
				"element": "C" 
			},
			{
				"x": -0.4022377238,
				"y": -2.237524888,
				"z": -1.6727738933,
				"element": "N" 
			},
			{
				"x": 0.1742775278,
				"y": -1.79012611,
				"z": -2.7475226145,
				"element": "N" 
			},
			{
				"x": 0.9010205305,
				"y": -1.1217212842,
				"z": -4.6707734699,
				"element": "H" 
			},
			{
				"x": 2.5521997619,
				"y": -1.4999285985,
				"z": -0.4965688233,
				"element": "H" 
			},
			{
				"x": -0.6714402651,
				"y": -3.2763229227,
				"z": 0.5903652817,
				"element": "H" 
			},
			{
				"x": 0.9922023516,
				"y": -3.0204006676,
				"z": 1.1590547902,
				"element": "H" 
			},
			{
				"x": -0.4306167498,
				"y": -1.7573277485,
				"z": 2.5909980763,
				"element": "H" 
			},
			{
				"x": 0.370873385,
				"y": -0.5542713363,
				"z": 1.5696992303,
				"element": "H" 
			},
			{
				"x": -4.575550073,
				"y": 2.1389216755,
				"z": -0.2660035569,
				"element": "H" 
			},
			{
				"x": -2.0593892331,
				"y": 4.2755292641,
				"z": -2.1169659731,
				"element": "H" 
			},
			{
				"x": -0.4577551885,
				"y": 2.6565853215,
				"z": -1.3684478914,
				"element": "H" 
			},
			{
				"x": 0.143174331,
				"y": 0.597731159,
				"z": -0.1687461297,
				"element": "H" 
			}
		],
		 "valence_orbital": [ 
			{
				"type": "occ",
				"energy": -0.29434,
				"method": "rhf"
			},
			{
				"type": "occ",
				"energy": -0.28322,
				"method": "rhf"
			},
			{
				"type": "occ",
				"energy": -0.27011,
				"method": "rhf"
			},
			{
				"type": "occ",
				"energy": -0.25966,
				"method": "rhf"
			},
			{
				"type": "occ",
				"energy": -0.24808,
				"method": "rhf"
			},
			{
				"type": "unocc",
				"energy": -0.06673,
				"method": "rhf"
			},
			{
				"type": "unocc",
				"energy": -0.04998,
				"method": "rhf"
			},
			{
				"type": "unocc",
				"energy": -0.0379,
				"method": "rhf"
			},
			{
				"type": "unocc",
				"energy": -0.03104,
				"method": "rhf"
			},
			{
				"type": "unocc",
				"energy": 0.0205,
				"method": "rhf"
			}
		],
		"cosmo_sigma_profile": { 
			"-0.025": 0.0,
			"-0.024": 0.0,
			"-0.023": 0.0,
			"-0.022": 0.0,
			"-0.021": 0.0,
			"-0.02": 0.0,
			"-0.019": 0.0,
			"-0.018": 0.0,
			"-0.017": 0.0,
			"-0.016": 0.00506455318949,
			"-0.015": 0.374686812897,
			"-0.014": 0.715401577135,
			"-0.013": 0.991718175973,
			"-0.012": 3.93383363682,
			"-0.011": 5.28444456123,
			"-0.01": 5.04829934263,
			"-0.009": 8.23636348277,
			"-0.008": 14.8323127906,
			"-0.007": 17.5902630158,
			"-0.006": 15.9555179138,
			"-0.005": 13.5542503365,
			"-0.004": 13.9269825112,
			"-0.003": 14.1009643902,
			"-0.002": 15.9958873337,
			"-0.001": 14.9825404488,
			"0.0": 18.1080172474,
			"0.001": 21.9354178881,
			"0.002": 19.4085264428,
			"0.003": 14.6239740632,
			"0.004": 15.1652816738,
			"0.005": 10.5306356858,
			"0.006": 7.16453475576,
			"0.007": 8.08723536801,
			"0.008": 8.95630112369,
			"0.009": 10.1538218206,
			"0.01": 10.2449306735,
			"0.011": 9.96873554512,
			"0.012": 7.85932511999,
			"0.013": 1.83231328395,
			"0.014": 0.0,
			"0.015": 0.0,
			"0.016": 0.0,
			"0.017": 0.0,
			"0.018": 0.0,
			"0.019": 0.0,
			"0.02": 0.0,
			"0.021": 0.0,
			"0.022": 0.0,
			"0.023": 0.0,
			"0.024": 0.0,
			"0.025": 0.0
		}
	}
}
