{
	 "smiles": "CCCC(C)(C)O", 
	 "Tm": 171.15, 
	 "num_atms": 21, 
	 "gaussian": { 
		 "optdone": 1, 
		 "sigma_profile": "yes", 
		 "theory": "DFT", 
		 "functional": "B3LYP", 
		 "basiset": "6-31G**", 
		 "properties": { 
			 "R2extent": 1168.5019, 
			 "electric_dipole_moment_norm": 1.39509031966, 
			 "electric_quadrupole_moment_norm": 6.07511267632, 
			 "total_energy": -312.310015333, 
			 "HOMO_LUMO_gap": 0.32697, 
			 "cosmo_polarized_energy": -5.73, 
			 "cosmo_cavitation_energy": 21.7, 
			 "cosmo_dispersion_energy": -15.67, 
			 "cosmo_repulsion_energy": 1.31, 
			 "cosmo_total_nonelectrostatic_energy": 7.35, 
			 "SMD_solvation_energy": 3.77 
		},
		"coords": [
			{
				"x": -0.2333544354,
				"y": 1.3146282873,
				"z": 1.7281749383,
				"element": "C" 
			},
			{
				"x": -0.2401420741,
				"y": 1.9711703779,
				"z": 0.3415371907,
				"element": "C" 
			},
			{
				"x": -1.2088255475,
				"y": 1.3869573515,
				"z": -0.7021425357,
				"element": "C" 
			},
			{
				"x": -0.9507222149,
				"y": -0.0274308877,
				"z": -1.2709131266,
				"element": "C" 
			},
			{
				"x": 0.5101778862,
				"y": -0.2185041745,
				"z": -1.7049809898,
				"element": "C" 
			},
			{
				"x": -1.3947904562,
				"y": -1.1530748704,
				"z": -0.3235930574,
				"element": "C" 
			},
			{
				"x": -1.7954498571,
				"y": -0.0606772464,
				"z": -2.4383584669,
				"element": "O" 
			},
			{
				"x": 0.3522560279,
				"y": 1.9131122106,
				"z": 2.4342412026,
				"element": "H" 
			},
			{
				"x": -1.2485360261,
				"y": 1.2257726467,
				"z": 2.131685843,
				"element": "H" 
			},
			{
				"x": 0.2064806469,
				"y": 0.3129107812,
				"z": 1.7147697573,
				"element": "H" 
			},
			{
				"x": 0.7800797982,
				"y": 1.9817327584,
				"z": -0.061971371,
				"element": "H" 
			},
			{
				"x": -0.5141008133,
				"y": 3.026579119,
				"z": 0.4662841798,
				"element": "H" 
			},
			{
				"x": -1.2082836308,
				"y": 2.0533391528,
				"z": -1.5726918946,
				"element": "H" 
			},
			{
				"x": -2.23263643,
				"y": 1.4087348764,
				"z": -0.3066448516,
				"element": "H" 
			},
			{
				"x": 1.1976015093,
				"y": -0.2132332243,
				"z": -0.8530955327,
				"element": "H" 
			},
			{
				"x": 0.6303114136,
				"y": -1.180844096,
				"z": -2.2172353193,
				"element": "H" 
			},
			{
				"x": 0.8091946384,
				"y": 0.5726353878,
				"z": -2.3993440793,
				"element": "H" 
			},
			{
				"x": -2.4461455035,
				"y": -1.0235939699,
				"z": -0.0501779657,
				"element": "H" 
			},
			{
				"x": -1.2909270482,
				"y": -2.127085925,
				"z": -0.8191793276,
				"element": "H" 
			},
			{
				"x": -0.7999348471,
				"y": -1.1904502963,
				"z": 0.5920470455,
				"element": "H" 
			},
			{
				"x": -1.7349530363,
				"y": -0.9490782592,
				"z": -2.815011639,
				"element": "H" 
			}
		],
		 "valence_orbital": [ 
			{
				"type": "occ",
				"energy": -0.32978,
				"method": "rhf"
			},
			{
				"type": "occ",
				"energy": -0.32889,
				"method": "rhf"
			},
			{
				"type": "occ",
				"energy": -0.32164,
				"method": "rhf"
			},
			{
				"type": "occ",
				"energy": -0.30131,
				"method": "rhf"
			},
			{
				"type": "occ",
				"energy": -0.25863,
				"method": "rhf"
			},
			{
				"type": "unocc",
				"energy": 0.06834,
				"method": "rhf"
			},
			{
				"type": "unocc",
				"energy": 0.10002,
				"method": "rhf"
			},
			{
				"type": "unocc",
				"energy": 0.11307,
				"method": "rhf"
			},
			{
				"type": "unocc",
				"energy": 0.13199,
				"method": "rhf"
			},
			{
				"type": "unocc",
				"energy": 0.13848,
				"method": "rhf"
			}
		],
		"cosmo_sigma_profile": { 
			"-0.025": 0.0,
			"-0.024": 0.0,
			"-0.023": 0.0,
			"-0.022": 0.0,
			"-0.021": 0.0,
			"-0.02": 0.0,
			"-0.019": 0.0,
			"-0.018": 0.0,
			"-0.017": 0.0,
			"-0.016": 0.0,
			"-0.015": 0.0608022120968,
			"-0.014": 0.620915465104,
			"-0.013": 0.690237643002,
			"-0.012": 1.11612690615,
			"-0.011": 1.2704939839,
			"-0.01": 0.573828723176,
			"-0.009": 1.10781074248,
			"-0.008": 0.893087058815,
			"-0.007": 1.29472729974,
			"-0.006": 1.39721501874,
			"-0.005": 0.938552032632,
			"-0.004": 4.69588623595,
			"-0.003": 11.6511584362,
			"-0.002": 23.9067127274,
			"-0.001": 27.8174305192,
			"0.0": 28.4576997756,
			"0.001": 30.0697580975,
			"0.002": 11.1146504399,
			"0.003": 1.53856630263,
			"0.004": 1.27982790923,
			"0.005": 1.6387342194,
			"0.006": 1.30548972198,
			"0.007": 1.55572259808,
			"0.008": 1.57713953425,
			"0.009": 1.51144882841,
			"0.01": 0.878224865909,
			"0.011": 0.777497940235,
			"0.012": 1.24512921168,
			"0.013": 1.87556981528,
			"0.014": 1.46931547255,
			"0.015": 1.67591874611,
			"0.016": 0.122805359679,
			"0.017": 0.0,
			"0.018": 0.0,
			"0.019": 0.0,
			"0.02": 0.0,
			"0.021": 0.0,
			"0.022": 0.0,
			"0.023": 0.0,
			"0.024": 0.0,
			"0.025": 0.0
		}
	}
}
