{
	 "smiles": "CC1=C(CNC2=C(N)C=CC=C2)C=CC=C1", 
	 "Tm": 345.15, 
	 "num_atms": 32, 
	 "gaussian": { 
		 "optdone": 1, 
		 "sigma_profile": "yes", 
		 "theory": "DFT", 
		 "functional": "B3LYP", 
		 "basiset": "6-31G**", 
		 "properties": { 
			 "R2extent": 3881.3258, 
			 "electric_dipole_moment_norm": 2.49809662944, 
			 "electric_quadrupole_moment_norm": 13.8193010992, 
			 "total_energy": -652.636688636, 
			 "HOMO_LUMO_gap": 0.1999, 
			 "cosmo_polarized_energy": -12.95, 
			 "cosmo_cavitation_energy": 34.4, 
			 "cosmo_dispersion_energy": -23.78, 
			 "cosmo_repulsion_energy": 1.86, 
			 "cosmo_total_nonelectrostatic_energy": 12.49, 
			 "SMD_solvation_energy": 5.26 
		},
		"coords": [
			{
				"x": -0.9460253054,
				"y": 2.9616724507,
				"z": 1.2618874574,
				"element": "C" 
			},
			{
				"x": -1.5364096753,
				"y": 1.5725809244,
				"z": 1.3314252025,
				"element": "C" 
			},
			{
				"x": -0.7136507817,
				"y": 0.4242342693,
				"z": 1.3099961067,
				"element": "C" 
			},
			{
				"x": 0.7938698879,
				"y": 0.5377363837,
				"z": 1.2026693872,
				"element": "C" 
			},
			{
				"x": 1.2345947426,
				"y": 0.992393552,
				"z": -0.1377702696,
				"element": "N" 
			},
			{
				"x": 1.179294812,
				"y": 0.0082721969,
				"z": -1.1821248028,
				"element": "C" 
			},
			{
				"x": 2.1725722075,
				"y": -0.9915109857,
				"z": -1.3225493757,
				"element": "C" 
			},
			{
				"x": 3.2227142815,
				"y": -1.0972188574,
				"z": -0.4024294384,
				"element": "N" 
			},
			{
				"x": 2.0618082507,
				"y": -1.9166694259,
				"z": -2.3733892669,
				"element": "C" 
			},
			{
				"x": 0.9848190808,
				"y": -1.870852324,
				"z": -3.2548516003,
				"element": "C" 
			},
			{
				"x": -0.0025427432,
				"y": -0.8945434381,
				"z": -3.112266239,
				"element": "C" 
			},
			{
				"x": 0.1101812116,
				"y": 0.0377511722,
				"z": -2.081077291,
				"element": "C" 
			},
			{
				"x": -1.3017253957,
				"y": -0.8420258104,
				"z": 1.3906861788,
				"element": "C" 
			},
			{
				"x": -2.6854835694,
				"y": -0.9966814288,
				"z": 1.4909487039,
				"element": "C" 
			},
			{
				"x": -3.499189833,
				"y": 0.1336980571,
				"z": 1.509521699,
				"element": "C" 
			},
			{
				"x": -2.9219658335,
				"y": 1.4028497542,
				"z": 1.430111991,
				"element": "C" 
			},
			{
				"x": -1.7316923806,
				"y": 3.7194811833,
				"z": 1.1975743508,
				"element": "H" 
			},
			{
				"x": -0.3446597448,
				"y": 3.1871855166,
				"z": 2.1526642214,
				"element": "H" 
			},
			{
				"x": -0.2853876751,
				"y": 3.0617970144,
				"z": 0.3958723103,
				"element": "H" 
			},
			{
				"x": 1.1613835494,
				"y": 1.2823966685,
				"z": 1.9194762495,
				"element": "H" 
			},
			{
				"x": 1.2442024546,
				"y": -0.4269936839,
				"z": 1.4802361245,
				"element": "H" 
			},
			{
				"x": 2.1568110722,
				"y": 1.4152459857,
				"z": -0.0738159617,
				"element": "H" 
			},
			{
				"x": 3.4463714368,
				"y": -0.2482803748,
				"z": 0.0972933421,
				"element": "H" 
			},
			{
				"x": 4.0521810583,
				"y": -1.5518738333,
				"z": -0.7589885573,
				"element": "H" 
			},
			{
				"x": 2.8248434433,
				"y": -2.6841069643,
				"z": -2.4842114852,
				"element": "H" 
			},
			{
				"x": 0.9214436162,
				"y": -2.601230829,
				"z": -4.0568335475,
				"element": "H" 
			},
			{
				"x": -0.8433607677,
				"y": -0.8539208262,
				"z": -3.7975349477,
				"element": "H" 
			},
			{
				"x": -0.6319306949,
				"y": 0.8186752964,
				"z": -1.9504837481,
				"element": "H" 
			},
			{
				"x": -0.6612615477,
				"y": -1.7203022811,
				"z": 1.3694103603,
				"element": "H" 
			},
			{
				"x": -3.1199682362,
				"y": -1.9904863421,
				"z": 1.5501610514,
				"element": "H" 
			},
			{
				"x": -4.5784175635,
				"y": 0.0331120283,
				"z": 1.5856216492,
				"element": "H" 
			},
			{
				"x": -3.5594193578,
				"y": 2.2838149511,
				"z": 1.4474701452,
				"element": "H" 
			}
		],
		 "valence_orbital": [ 
			{
				"type": "occ",
				"energy": -0.24399,
				"method": "rhf"
			},
			{
				"type": "occ",
				"energy": -0.23667,
				"method": "rhf"
			},
			{
				"type": "occ",
				"energy": -0.22811,
				"method": "rhf"
			},
			{
				"type": "occ",
				"energy": -0.22387,
				"method": "rhf"
			},
			{
				"type": "occ",
				"energy": -0.19676,
				"method": "rhf"
			},
			{
				"type": "unocc",
				"energy": 0.00314,
				"method": "rhf"
			},
			{
				"type": "unocc",
				"energy": 0.01027,
				"method": "rhf"
			},
			{
				"type": "unocc",
				"energy": 0.01389,
				"method": "rhf"
			},
			{
				"type": "unocc",
				"energy": 0.02333,
				"method": "rhf"
			},
			{
				"type": "unocc",
				"energy": 0.06289,
				"method": "rhf"
			}
		],
		"cosmo_sigma_profile": { 
			"-0.025": 0.0,
			"-0.024": 0.0,
			"-0.023": 0.0,
			"-0.022": 0.0,
			"-0.021": 0.0,
			"-0.02": 0.0,
			"-0.019": 0.0,
			"-0.018": 0.0,
			"-0.017": 0.0,
			"-0.016": 0.0,
			"-0.015": 0.0415029584987,
			"-0.014": 0.944158554364,
			"-0.013": 1.35745740803,
			"-0.012": 3.45729645039,
			"-0.011": 2.25389898608,
			"-0.01": 4.06485503045,
			"-0.009": 3.43348876533,
			"-0.008": 3.34658222916,
			"-0.007": 2.64602970134,
			"-0.006": 4.01233448934,
			"-0.005": 13.4284036042,
			"-0.004": 23.990222883,
			"-0.003": 24.5973087541,
			"-0.002": 21.5865779553,
			"-0.001": 20.3035367419,
			"0.0": 19.6108749299,
			"0.001": 19.0738684301,
			"0.002": 14.5714084044,
			"0.003": 15.8334265943,
			"0.004": 14.6912633436,
			"0.005": 16.4765185418,
			"0.006": 19.3623267804,
			"0.007": 14.61528752,
			"0.008": 2.86029680211,
			"0.009": 1.56946595162,
			"0.01": 1.15368022049,
			"0.011": 0.995997443559,
			"0.012": 0.685234010869,
			"0.013": 0.387023964605,
			"0.014": 0.50450980739,
			"0.015": 0.0328462723037,
			"0.016": 0.0,
			"0.017": 0.0,
			"0.018": 0.0,
			"0.019": 0.0,
			"0.02": 0.0,
			"0.021": 0.0,
			"0.022": 0.0,
			"0.023": 0.0,
			"0.024": 0.0,
			"0.025": 0.0
		}
	}
}
