{
	 "smiles": "O=C1NC2=C(C=CC=C2)C2=CN(N=C12)C1=CC=CC=C1", 
	 "Tm": 290.15, 
	 "num_atms": 31, 
	 "gaussian": { 
		 "optdone": 1, 
		 "sigma_profile": "yes", 
		 "theory": "DFT", 
		 "functional": "B3LYP", 
		 "basiset": "6-31G**", 
		 "properties": { 
			 "R2extent": 6852.8589, 
			 "electric_dipole_moment_norm": 4.74356596138, 
			 "electric_quadrupole_moment_norm": 24.4042314626, 
			 "total_energy": -855.825030711, 
			 "HOMO_LUMO_gap": 0.1617, 
			 "cosmo_polarized_energy": -18.77, 
			 "cosmo_cavitation_energy": 35.63, 
			 "cosmo_dispersion_energy": -26.51, 
			 "cosmo_repulsion_energy": 1.96, 
			 "cosmo_total_nonelectrostatic_energy": 11.07, 
			 "SMD_solvation_energy": 5.7 
		},
		"coords": [
			{
				"x": -0.922841631,
				"y": 1.6046972038,
				"z": 3.0840097856,
				"element": "O" 
			},
			{
				"x": -1.3444466259,
				"y": 1.3436545592,
				"z": 1.9676001832,
				"element": "C" 
			},
			{
				"x": -2.6873114681,
				"y": 1.532696678,
				"z": 1.6349741329,
				"element": "N" 
			},
			{
				"x": -3.3167402774,
				"y": 1.2845170895,
				"z": 0.414044969,
				"element": "C" 
			},
			{
				"x": -2.5707112752,
				"y": 0.7757575352,
				"z": -0.6781807137,
				"element": "C" 
			},
			{
				"x": -3.2301163726,
				"y": 0.5359539945,
				"z": -1.893712157,
				"element": "C" 
			},
			{
				"x": -4.5893613051,
				"y": 0.7889914426,
				"z": -2.0352406779,
				"element": "C" 
			},
			{
				"x": -5.3172929279,
				"y": 1.2916979385,
				"z": -0.9493781305,
				"element": "C" 
			},
			{
				"x": -4.6887018247,
				"y": 1.5381133392,
				"z": 0.2656398994,
				"element": "C" 
			},
			{
				"x": -1.1619680354,
				"y": 0.5441802782,
				"z": -0.4344992568,
				"element": "C" 
			},
			{
				"x": -0.1062743595,
				"y": 0.0721210302,
				"z": -1.1954374334,
				"element": "C" 
			},
			{
				"x": 0.9989004386,
				"y": 0.0866306171,
				"z": -0.3841723316,
				"element": "N" 
			},
			{
				"x": 0.7263724045,
				"y": 0.5392805819,
				"z": 0.8580259079,
				"element": "N" 
			},
			{
				"x": -0.5752968389,
				"y": 0.8162555166,
				"z": 0.8321797453,
				"element": "C" 
			},
			{
				"x": 2.3305547754,
				"y": -0.3078150083,
				"z": -0.7083852711,
				"element": "C" 
			},
			{
				"x": 2.6443657294,
				"y": -0.783757458,
				"z": -1.9862911988,
				"element": "C" 
			},
			{
				"x": 3.9543035162,
				"y": -1.1629446343,
				"z": -2.2774735499,
				"element": "C" 
			},
			{
				"x": 4.9517750289,
				"y": -1.0715552366,
				"z": -1.3064548638,
				"element": "C" 
			},
			{
				"x": 4.6282114434,
				"y": -0.5953324844,
				"z": -0.0341252835,
				"element": "C" 
			},
			{
				"x": 3.3247141733,
				"y": -0.2125820411,
				"z": 0.2725117906,
				"element": "C" 
			},
			{
				"x": -3.2444681641,
				"y": 1.8960557651,
				"z": 2.3980564741,
				"element": "H" 
			},
			{
				"x": -2.6614366492,
				"y": 0.1459609316,
				"z": -2.7332669927,
				"element": "H" 
			},
			{
				"x": -5.0828151182,
				"y": 0.5975836484,
				"z": -2.9827556253,
				"element": "H" 
			},
			{
				"x": -6.3795664434,
				"y": 1.4921383368,
				"z": -1.051420533,
				"element": "H" 
			},
			{
				"x": -5.2540128064,
				"y": 1.9282638928,
				"z": 1.1080261436,
				"element": "H" 
			},
			{
				"x": -0.0622869841,
				"y": -0.2610648785,
				"z": -2.2188930071,
				"element": "H" 
			},
			{
				"x": 1.8857533004,
				"y": -0.863555491,
				"z": -2.7562407913,
				"element": "H" 
			},
			{
				"x": 4.1905405857,
				"y": -1.5313764495,
				"z": -3.2712106896,
				"element": "H" 
			},
			{
				"x": 5.9698525165,
				"y": -1.3682323656,
				"z": -1.5388127707,
				"element": "H" 
			},
			{
				"x": 5.3952548648,
				"y": -0.5193161761,
				"z": 0.7307219207,
				"element": "H" 
			},
			{
				"x": 3.0595503298,
				"y": 0.158281844,
				"z": 1.2542603255,
				"element": "H" 
			}
		],
		 "valence_orbital": [ 
			{
				"type": "occ",
				"energy": -0.26369,
				"method": "rhf"
			},
			{
				"type": "occ",
				"energy": -0.25329,
				"method": "rhf"
			},
			{
				"type": "occ",
				"energy": -0.24872,
				"method": "rhf"
			},
			{
				"type": "occ",
				"energy": -0.23296,
				"method": "rhf"
			},
			{
				"type": "occ",
				"energy": -0.21226,
				"method": "rhf"
			},
			{
				"type": "unocc",
				"energy": -0.05056,
				"method": "rhf"
			},
			{
				"type": "unocc",
				"energy": -0.03015,
				"method": "rhf"
			},
			{
				"type": "unocc",
				"energy": -0.01285,
				"method": "rhf"
			},
			{
				"type": "unocc",
				"energy": -0.00157,
				"method": "rhf"
			},
			{
				"type": "unocc",
				"energy": 0.01497,
				"method": "rhf"
			}
		],
		"cosmo_sigma_profile": { 
			"-0.025": 0.0,
			"-0.024": 0.0,
			"-0.023": 0.0,
			"-0.022": 0.0,
			"-0.021": 0.0,
			"-0.02": 0.0,
			"-0.019": 0.0,
			"-0.018": 0.0,
			"-0.017": 0.0,
			"-0.016": 0.0707981249683,
			"-0.015": 0.857558210607,
			"-0.014": 1.51463704203,
			"-0.013": 0.955209683002,
			"-0.012": 0.908152566925,
			"-0.011": 3.18480398663,
			"-0.01": 3.25336730838,
			"-0.009": 4.41204835139,
			"-0.008": 3.80514967896,
			"-0.007": 7.11783834308,
			"-0.006": 16.3422685306,
			"-0.005": 18.2051017592,
			"-0.004": 19.636845674,
			"-0.003": 16.0121630179,
			"-0.002": 16.4607429722,
			"-0.001": 19.3685736225,
			"0.0": 20.4099385903,
			"0.001": 25.0652149796,
			"0.002": 23.384222879,
			"0.003": 21.3258336856,
			"0.004": 22.6653372322,
			"0.005": 13.9091937846,
			"0.006": 2.55900306712,
			"0.007": 2.0916512681,
			"0.008": 2.31563313263,
			"0.009": 1.77149872595,
			"0.01": 2.6598565182,
			"0.011": 2.71099510273,
			"0.012": 3.30753616167,
			"0.013": 6.8061111635,
			"0.014": 3.94832900525,
			"0.015": 0.678130693172,
			"0.016": 0.0,
			"0.017": 0.0,
			"0.018": 0.0,
			"0.019": 0.0,
			"0.02": 0.0,
			"0.021": 0.0,
			"0.022": 0.0,
			"0.023": 0.0,
			"0.024": 0.0,
			"0.025": 0.0
		}
	}
}
