{
	 "smiles": "CN(N(O)O)C1=C(F)C(F)=C(C(F)=C1F)C1=C(F)C(F)=C(F)C(F)=C1F", 
	 "Tm": 413.15, 
	 "num_atms": 31, 
	 "gaussian": { 
		 "optdone": 1, 
		 "sigma_profile": "yes", 
		 "theory": "DFT", 
		 "functional": "B3LYP", 
		 "basiset": "6-31G**", 
		 "properties": { 
			 "R2extent": 12474.6233, 
			 "electric_dipole_moment_norm": 3.16485834754, 
			 "electric_quadrupole_moment_norm": 13.9975992452, 
			 "total_energy": -1656.65101886, 
			 "HOMO_LUMO_gap": 0.17859, 
			 "cosmo_polarized_energy": -12.57, 
			 "cosmo_cavitation_energy": 41.18, 
			 "cosmo_dispersion_energy": -27.57, 
			 "cosmo_repulsion_energy": 1.91, 
			 "cosmo_total_nonelectrostatic_energy": 15.52, 
			 "SMD_solvation_energy": 12.38 
		},
		"coords": [
			{
				"x": -3.140091688,
				"y": 0.9486182804,
				"z": -1.4350415673,
				"element": "C" 
			},
			{
				"x": -2.8236555644,
				"y": 0.6428694023,
				"z": -0.0383320368,
				"element": "N" 
			},
			{
				"x": -3.863552186,
				"y": 0.2033919399,
				"z": 0.8001411599,
				"element": "N" 
			},
			{
				"x": -4.8697003534,
				"y": 1.1899971005,
				"z": 0.8415281666,
				"element": "O" 
			},
			{
				"x": -4.483991121,
				"y": -0.9303391709,
				"z": 0.1333170686,
				"element": "O" 
			},
			{
				"x": -1.5971373928,
				"y": 0.0583899213,
				"z": 0.3256133863,
				"element": "C" 
			},
			{
				"x": -1.0708870158,
				"y": 0.3109580927,
				"z": 1.6059189807,
				"element": "C" 
			},
			{
				"x": -1.7354262152,
				"y": 1.0969248632,
				"z": 2.4571186053,
				"element": "F" 
			},
			{
				"x": 0.1487760546,
				"y": -0.2196463608,
				"z": 2.0034095661,
				"element": "C" 
			},
			{
				"x": 0.6029381846,
				"y": 0.0775975185,
				"z": 3.2294861407,
				"element": "F" 
			},
			{
				"x": 0.9280670973,
				"y": -1.0096383534,
				"z": 1.1487440076,
				"element": "C" 
			},
			{
				"x": 0.4093376688,
				"y": -1.2504489481,
				"z": -0.1252211027,
				"element": "C" 
			},
			{
				"x": 1.0848299886,
				"y": -2.0238213006,
				"z": -0.9880043201,
				"element": "F" 
			},
			{
				"x": -0.82675592,
				"y": -0.7490041711,
				"z": -0.5226951899,
				"element": "C" 
			},
			{
				"x": -1.2696905557,
				"y": -1.0690939688,
				"z": -1.7520711479,
				"element": "F" 
			},
			{
				"x": 2.2335206115,
				"y": -1.5582791768,
				"z": 1.5736212699,
				"element": "C" 
			},
			{
				"x": 2.3609603479,
				"y": -2.3119730862,
				"z": 2.7466274486,
				"element": "C" 
			},
			{
				"x": 1.2837780834,
				"y": -2.5670000909,
				"z": 3.4988937196,
				"element": "F" 
			},
			{
				"x": 3.5862235038,
				"y": -2.8272048479,
				"z": 3.1592295299,
				"element": "C" 
			},
			{
				"x": 3.6751512981,
				"y": -3.5457816263,
				"z": 4.2829970938,
				"element": "F" 
			},
			{
				"x": 4.7229437355,
				"y": -2.6025071906,
				"z": 2.3857659024,
				"element": "C" 
			},
			{
				"x": 5.9010322415,
				"y": -3.0968984033,
				"z": 2.7700346715,
				"element": "F" 
			},
			{
				"x": 4.6273809007,
				"y": -1.8610408723,
				"z": 1.2102317556,
				"element": "C" 
			},
			{
				"x": 5.7188585029,
				"y": -1.6381360785,
				"z": 0.4711469799,
				"element": "F" 
			},
			{
				"x": 3.3946821672,
				"y": -1.3453475203,
				"z": 0.8209781538,
				"element": "C" 
			},
			{
				"x": 3.3415849587,
				"y": -0.6167375687,
				"z": -0.300681281,
				"element": "F" 
			},
			{
				"x": -2.2438320816,
				"y": 1.3508755901,
				"z": -1.9072426744,
				"element": "H" 
			},
			{
				"x": -3.9000845255,
				"y": 1.733964404,
				"z": -1.4430189546,
				"element": "H" 
			},
			{
				"x": -3.4883178676,
				"y": 0.0818033315,
				"z": -2.0028814103,
				"element": "H" 
			},
			{
				"x": -5.4062288627,
				"y": 1.0361094261,
				"z": 0.0417659446,
				"element": "H" 
			},
			{
				"x": -4.7756139957,
				"y": -1.4687011353,
				"z": 0.8842201337,
				"element": "H" 
			}
		],
		 "valence_orbital": [ 
			{
				"type": "occ",
				"energy": -0.28077,
				"method": "rhf"
			},
			{
				"type": "occ",
				"energy": -0.26695,
				"method": "rhf"
			},
			{
				"type": "occ",
				"energy": -0.26095,
				"method": "rhf"
			},
			{
				"type": "occ",
				"energy": -0.25269,
				"method": "rhf"
			},
			{
				"type": "occ",
				"energy": -0.23488,
				"method": "rhf"
			},
			{
				"type": "unocc",
				"energy": -0.05629,
				"method": "rhf"
			},
			{
				"type": "unocc",
				"energy": -0.02071,
				"method": "rhf"
			},
			{
				"type": "unocc",
				"energy": -0.01432,
				"method": "rhf"
			},
			{
				"type": "unocc",
				"energy": -0.01181,
				"method": "rhf"
			},
			{
				"type": "unocc",
				"energy": 0.00722,
				"method": "rhf"
			}
		],
		"cosmo_sigma_profile": { 
			"-0.025": 0.0,
			"-0.024": 0.0,
			"-0.023": 0.0,
			"-0.022": 0.0,
			"-0.021": 0.0,
			"-0.02": 0.0,
			"-0.019": 0.0,
			"-0.018": 0.267831175854,
			"-0.017": 1.02063154772,
			"-0.016": 1.86961975869,
			"-0.015": 1.32236859567,
			"-0.014": 1.58860197992,
			"-0.013": 1.38531590783,
			"-0.012": 1.73801105251,
			"-0.011": 1.05150947635,
			"-0.01": 1.96306084897,
			"-0.009": 2.03185562534,
			"-0.008": 1.53644807464,
			"-0.007": 3.54779604991,
			"-0.006": 4.63771226987,
			"-0.005": 8.12357503189,
			"-0.004": 23.6292668649,
			"-0.003": 32.7989462084,
			"-0.002": 27.3259745647,
			"-0.001": 20.8727126624,
			"0.0": 19.9375999204,
			"0.001": 23.6775344651,
			"0.002": 62.1484392652,
			"0.003": 53.4924551623,
			"0.004": 8.64794616352,
			"0.005": 3.87604897066,
			"0.006": 4.47636394894,
			"0.007": 4.48445945804,
			"0.008": 4.39750664458,
			"0.009": 3.92987799038,
			"0.01": 3.31503941441,
			"0.011": 2.57736596922,
			"0.012": 0.541138895735,
			"0.013": 0.0,
			"0.014": 0.0,
			"0.015": 0.0,
			"0.016": 0.0,
			"0.017": 0.0,
			"0.018": 0.0,
			"0.019": 0.0,
			"0.02": 0.0,
			"0.021": 0.0,
			"0.022": 0.0,
			"0.023": 0.0,
			"0.024": 0.0,
			"0.025": 0.0
		}
	}
}
