{
	 "smiles": "CC(Br)C(Br)C(O)=O", 
	 "Tm": 359.15, 
	 "num_atms": 14, 
	 "gaussian": { 
		 "optdone": 1, 
		 "sigma_profile": "yes", 
		 "theory": "DFT", 
		 "functional": "B3LYP", 
		 "basiset": "6-31G**", 
		 "properties": { 
			 "R2extent": 3104.2383, 
			 "electric_dipole_moment_norm": 3.6738116201, 
			 "electric_quadrupole_moment_norm": 6.68049321009, 
			 "total_energy": -5449.31175484, 
			 "HOMO_LUMO_gap": 0.24898, 
			 "cosmo_polarized_energy": -13.4, 
			 "cosmo_cavitation_energy": 22.06, 
			 "cosmo_dispersion_energy": -16.59, 
			 "cosmo_repulsion_energy": 1.38, 
			 "cosmo_total_nonelectrostatic_energy": 6.86, 
			 "SMD_solvation_energy": 2.91 
		},
		"coords": [
			{
				"x": -1.6098476239,
				"y": -2.5048057269,
				"z": 1.5344094999,
				"element": "C" 
			},
			{
				"x": -1.1665293757,
				"y": -1.2775508886,
				"z": 0.7550805725,
				"element": "C" 
			},
			{
				"x": -2.6817837262,
				"y": 0.0031669043,
				"z": 0.5824560252,
				"element": "Br" 
			},
			{
				"x": 0.0775231926,
				"y": -0.5769534096,
				"z": 1.3124008108,
				"element": "C" 
			},
			{
				"x": -0.0983049017,
				"y": -0.0242990221,
				"z": 3.1840246817,
				"element": "Br" 
			},
			{
				"x": 0.5373628912,
				"y": 0.6006348929,
				"z": 0.4478501002,
				"element": "C" 
			},
			{
				"x": 0.7417188242,
				"y": 0.1600766747,
				"z": -0.8187503421,
				"element": "O" 
			},
			{
				"x": 0.7299529328,
				"y": 1.7348687002,
				"z": 0.7975651032,
				"element": "O" 
			},
			{
				"x": -0.7843286484,
				"y": -3.2256271102,
				"z": 1.5843710958,
				"element": "H" 
			},
			{
				"x": -2.4557398704,
				"y": -2.9831432412,
				"z": 1.0366259269,
				"element": "H" 
			},
			{
				"x": -1.9011914801,
				"y": -2.2423643652,
				"z": 2.5527662338,
				"element": "H" 
			},
			{
				"x": -0.9407059856,
				"y": -1.5338126572,
				"z": -0.2811327874,
				"element": "H" 
			},
			{
				"x": 0.8854518862,
				"y": -1.3157507842,
				"z": 1.3110466443,
				"element": "H" 
			},
			{
				"x": 1.0179218849,
				"y": 0.9348600331,
				"z": -1.3367135647,
				"element": "H" 
			}
		],
		 "valence_orbital": [ 
			{
				"type": "occ",
				"energy": -0.29623,
				"method": "rhf"
			},
			{
				"type": "occ",
				"energy": -0.28876,
				"method": "rhf"
			},
			{
				"type": "occ",
				"energy": -0.28545,
				"method": "rhf"
			},
			{
				"type": "occ",
				"energy": -0.28054,
				"method": "rhf"
			},
			{
				"type": "occ",
				"energy": -0.27393,
				"method": "rhf"
			},
			{
				"type": "unocc",
				"energy": -0.02495,
				"method": "rhf"
			},
			{
				"type": "unocc",
				"energy": -0.01137,
				"method": "rhf"
			},
			{
				"type": "unocc",
				"energy": 0.00343,
				"method": "rhf"
			},
			{
				"type": "unocc",
				"energy": 0.06405,
				"method": "rhf"
			},
			{
				"type": "unocc",
				"energy": 0.08508,
				"method": "rhf"
			}
		],
		"cosmo_sigma_profile": { 
			"-0.025": 0.0,
			"-0.024": 0.0,
			"-0.023": 0.0,
			"-0.022": 0.0,
			"-0.021": 0.0,
			"-0.02": 0.0,
			"-0.019": 0.5157413926,
			"-0.018": 1.50267781915,
			"-0.017": 0.546672411604,
			"-0.016": 0.953794400948,
			"-0.015": 0.417288953678,
			"-0.014": 1.07428431976,
			"-0.013": 0.981248160274,
			"-0.012": 0.513134684655,
			"-0.011": 2.40673448423,
			"-0.01": 3.94522097627,
			"-0.009": 3.15724472738,
			"-0.008": 4.27861647048,
			"-0.007": 4.88210246331,
			"-0.006": 5.19180415129,
			"-0.005": 6.52622861926,
			"-0.004": 9.14777887068,
			"-0.003": 10.0467006651,
			"-0.002": 12.2038292416,
			"-0.001": 13.0181628804,
			"0.0": 9.52281762898,
			"0.001": 8.78856300472,
			"0.002": 10.8875663789,
			"0.003": 11.729094154,
			"0.004": 12.8725988275,
			"0.005": 16.4605030955,
			"0.006": 9.57931150524,
			"0.007": 3.72040609235,
			"0.008": 2.98556919408,
			"0.009": 2.79608286583,
			"0.01": 4.28077209575,
			"0.011": 4.21784181777,
			"0.012": 0.920883002781,
			"0.013": 0.0,
			"0.014": 0.0,
			"0.015": 0.0,
			"0.016": 0.0,
			"0.017": 0.0,
			"0.018": 0.0,
			"0.019": 0.0,
			"0.02": 0.0,
			"0.021": 0.0,
			"0.022": 0.0,
			"0.023": 0.0,
			"0.024": 0.0,
			"0.025": 0.0
		}
	}
}
