{
	 "smiles": "ClCC=C", 
	 "Tm": 139.15, 
	 "num_atms": 9, 
	 "gaussian": { 
		 "optdone": 1, 
		 "sigma_profile": "yes", 
		 "theory": "DFT", 
		 "functional": "B3LYP", 
		 "basiset": "6-31G**", 
		 "properties": { 
			 "R2extent": 1359.689, 
			 "electric_dipole_moment_norm": 2.27499279999, 
			 "electric_quadrupole_moment_norm": 8.48096491857, 
			 "total_energy": -577.502868296, 
			 "HOMO_LUMO_gap": 0.25664, 
			 "cosmo_polarized_energy": -4.43, 
			 "cosmo_cavitation_energy": 14.35, 
			 "cosmo_dispersion_energy": -10.63, 
			 "cosmo_repulsion_energy": 0.98, 
			 "cosmo_total_nonelectrostatic_energy": 4.7, 
			 "SMD_solvation_energy": 3.07 
		},
		"coords": [
			{
				"x": -1.1097155074,
				"y": 0.9218026973,
				"z": 3.5786973244,
				"element": "Cl" 
			},
			{
				"x": -1.5220162339,
				"y": -0.4789801616,
				"z": 2.4688471736,
				"element": "C" 
			},
			{
				"x": -1.0154150633,
				"y": -0.2450621858,
				"z": 1.0849807492,
				"element": "C" 
			},
			{
				"x": -0.124369289,
				"y": -1.0349517924,
				"z": 0.4850864898,
				"element": "C" 
			},
			{
				"x": -1.0837318608,
				"y": -1.3695407422,
				"z": 2.9208104406,
				"element": "H" 
			},
			{
				"x": -2.6110361259,
				"y": -0.551781659,
				"z": 2.502690167,
				"element": "H" 
			},
			{
				"x": -1.4262136057,
				"y": 0.6175237878,
				"z": 0.5640037601,
				"element": "H" 
			},
			{
				"x": 0.2028781391,
				"y": -0.8510917256,
				"z": -0.5335308609,
				"element": "H" 
			},
			{
				"x": 0.3073195469,
				"y": -1.8959182185,
				"z": 0.9897147561,
				"element": "H" 
			}
		],
		 "valence_orbital": [ 
			{
				"type": "occ",
				"energy": -0.39901,
				"method": "rhf"
			},
			{
				"type": "occ",
				"energy": -0.37346,
				"method": "rhf"
			},
			{
				"type": "occ",
				"energy": -0.29947,
				"method": "rhf"
			},
			{
				"type": "occ",
				"energy": -0.29298,
				"method": "rhf"
			},
			{
				"type": "occ",
				"energy": -0.2741,
				"method": "rhf"
			},
			{
				"type": "unocc",
				"energy": -0.01746,
				"method": "rhf"
			},
			{
				"type": "unocc",
				"energy": 0.04652,
				"method": "rhf"
			},
			{
				"type": "unocc",
				"energy": 0.10848,
				"method": "rhf"
			},
			{
				"type": "unocc",
				"energy": 0.11621,
				"method": "rhf"
			},
			{
				"type": "unocc",
				"energy": 0.1369,
				"method": "rhf"
			}
		],
		"cosmo_sigma_profile": { 
			"-0.025": 0.0,
			"-0.024": 0.0,
			"-0.023": 0.0,
			"-0.022": 0.0,
			"-0.021": 0.0,
			"-0.02": 0.0,
			"-0.019": 0.0,
			"-0.018": 0.0,
			"-0.017": 0.0,
			"-0.016": 0.0,
			"-0.015": 0.0,
			"-0.014": 0.0,
			"-0.013": 0.0,
			"-0.012": 0.0,
			"-0.011": 0.0,
			"-0.01": 0.0,
			"-0.009": 0.0,
			"-0.008": 0.831133324119,
			"-0.007": 4.57873733413,
			"-0.006": 9.39224483476,
			"-0.005": 9.98745953583,
			"-0.004": 9.89994925278,
			"-0.003": 8.42152673598,
			"-0.002": 7.43473156729,
			"-0.001": 5.35174339715,
			"0.0": 6.4856763679,
			"0.001": 6.7217697974,
			"0.002": 6.98647116285,
			"0.003": 6.44978251444,
			"0.004": 6.48841441899,
			"0.005": 8.89365613909,
			"0.006": 8.85766349919,
			"0.007": 9.03592092178,
			"0.008": 0.226329667319,
			"0.009": 0.0,
			"0.01": 0.0,
			"0.011": 0.0,
			"0.012": 0.0,
			"0.013": 0.0,
			"0.014": 0.0,
			"0.015": 0.0,
			"0.016": 0.0,
			"0.017": 0.0,
			"0.018": 0.0,
			"0.019": 0.0,
			"0.02": 0.0,
			"0.021": 0.0,
			"0.022": 0.0,
			"0.023": 0.0,
			"0.024": 0.0,
			"0.025": 0.0
		}
	}
}
