{
	 "smiles": "OC(=O)C1=C2C=CC=CC2=C(O)C=C1", 
	 "Tm": 458.15, 
	 "num_atms": 22, 
	 "gaussian": { 
		 "optdone": 1, 
		 "sigma_profile": "yes", 
		 "theory": "DFT", 
		 "functional": "B3LYP", 
		 "basiset": "6-31G**", 
		 "properties": { 
			 "R2extent": 3487.1757, 
			 "electric_dipole_moment_norm": 6.03134325586, 
			 "electric_quadrupole_moment_norm": 16.399744241, 
			 "total_energy": -649.674156602, 
			 "HOMO_LUMO_gap": 0.1587, 
			 "cosmo_polarized_energy": -17.43, 
			 "cosmo_cavitation_energy": 25.94, 
			 "cosmo_dispersion_energy": -19.6, 
			 "cosmo_repulsion_energy": 1.5, 
			 "cosmo_total_nonelectrostatic_energy": 7.84, 
			 "SMD_solvation_energy": 5.53 
		},
		"coords": [
			{
				"x": 0.4077518291,
				"y": -0.503124238,
				"z": -2.5373183977,
				"element": "O" 
			},
			{
				"x": 1.3020945641,
				"y": 0.1239934378,
				"z": -1.717142183,
				"element": "C" 
			},
			{
				"x": 2.0607586025,
				"y": 0.9412679698,
				"z": -2.1832999763,
				"element": "O" 
			},
			{
				"x": 1.2377461263,
				"y": -0.2099522608,
				"z": -0.2583094067,
				"element": "C" 
			},
			{
				"x": 0.934906691,
				"y": -1.5065772211,
				"z": 0.27852297,
				"element": "C" 
			},
			{
				"x": 0.796538662,
				"y": -2.6785301475,
				"z": -0.5224121455,
				"element": "C" 
			},
			{
				"x": 0.5207149715,
				"y": -3.9076191893,
				"z": 0.0353651131,
				"element": "C" 
			},
			{
				"x": 0.3811132699,
				"y": -4.0451172765,
				"z": 1.4328597293,
				"element": "C" 
			},
			{
				"x": 0.5414632038,
				"y": -2.9442489323,
				"z": 2.243201326,
				"element": "C" 
			},
			{
				"x": 0.8217796389,
				"y": -1.6601395904,
				"z": 1.7054358755,
				"element": "C" 
			},
			{
				"x": 1.0265124148,
				"y": -0.5168400039,
				"z": 2.5443073362,
				"element": "C" 
			},
			{
				"x": 0.9025583082,
				"y": -0.5745586444,
				"z": 3.8965859644,
				"element": "O" 
			},
			{
				"x": 1.3829262596,
				"y": 0.7013392767,
				"z": 1.9986147436,
				"element": "C" 
			},
			{
				"x": 1.494864243,
				"y": 0.8405657798,
				"z": 0.6083500741,
				"element": "C" 
			},
			{
				"x": -0.2332299959,
				"y": -0.9958208772,
				"z": -2.0049389837,
				"element": "H" 
			},
			{
				"x": 0.9515368862,
				"y": -2.611387039,
				"z": -1.5933789784,
				"element": "H" 
			},
			{
				"x": 0.429605475,
				"y": -4.7799928701,
				"z": -0.6047687028,
				"element": "H" 
			},
			{
				"x": 0.1722594905,
				"y": -5.0176234358,
				"z": 1.8673206534,
				"element": "H" 
			},
			{
				"x": 0.4751516187,
				"y": -3.0887368359,
				"z": 3.3194208993,
				"element": "H" 
			},
			{
				"x": 0.5567424497,
				"y": -1.4331057936,
				"z": 4.1683955054,
				"element": "H" 
			},
			{
				"x": 1.5526604309,
				"y": 1.5422015193,
				"z": 2.6618567852,
				"element": "H" 
			},
			{
				"x": 1.7645448601,
				"y": 1.8008063725,
				"z": 0.1817317987,
				"element": "H" 
			}
		],
		 "valence_orbital": [ 
			{
				"type": "occ",
				"energy": -0.30872,
				"method": "rhf"
			},
			{
				"type": "occ",
				"energy": -0.28806,
				"method": "rhf"
			},
			{
				"type": "occ",
				"energy": -0.26905,
				"method": "rhf"
			},
			{
				"type": "occ",
				"energy": -0.26395,
				"method": "rhf"
			},
			{
				"type": "occ",
				"energy": -0.22125,
				"method": "rhf"
			},
			{
				"type": "unocc",
				"energy": -0.06255,
				"method": "rhf"
			},
			{
				"type": "unocc",
				"energy": -0.02991,
				"method": "rhf"
			},
			{
				"type": "unocc",
				"energy": -0.01132,
				"method": "rhf"
			},
			{
				"type": "unocc",
				"energy": 0.0437,
				"method": "rhf"
			},
			{
				"type": "unocc",
				"energy": 0.05144,
				"method": "rhf"
			}
		],
		"cosmo_sigma_profile": { 
			"-0.025": 0.0,
			"-0.024": 0.0,
			"-0.023": 0.0,
			"-0.022": 0.0,
			"-0.021": 0.0,
			"-0.02": 0.0,
			"-0.019": 0.343536804336,
			"-0.018": 0.830626314726,
			"-0.017": 1.64148757895,
			"-0.016": 1.21229875741,
			"-0.015": 1.21154043586,
			"-0.014": 1.98549026274,
			"-0.013": 1.98684418011,
			"-0.012": 1.59766267539,
			"-0.011": 2.31175246456,
			"-0.01": 2.30788421282,
			"-0.009": 1.36001867483,
			"-0.008": 2.25075995681,
			"-0.007": 6.31431918402,
			"-0.006": 11.9480433658,
			"-0.005": 13.2009277671,
			"-0.004": 11.7263036962,
			"-0.003": 9.75817790529,
			"-0.002": 10.9840355447,
			"-0.001": 9.70071429097,
			"0.0": 10.4880763825,
			"0.001": 15.7540199753,
			"0.002": 18.3435005145,
			"0.003": 19.540813245,
			"0.004": 12.1609269792,
			"0.005": 3.17308381777,
			"0.006": 4.30361708848,
			"0.007": 3.59251966093,
			"0.008": 4.2647234512,
			"0.009": 4.59088292146,
			"0.01": 5.86061947851,
			"0.011": 5.65988851087,
			"0.012": 5.60862755621,
			"0.013": 2.37351131004,
			"0.014": 0.147720416174,
			"0.015": 0.0,
			"0.016": 0.0,
			"0.017": 0.0,
			"0.018": 0.0,
			"0.019": 0.0,
			"0.02": 0.0,
			"0.021": 0.0,
			"0.022": 0.0,
			"0.023": 0.0,
			"0.024": 0.0,
			"0.025": 0.0
		}
	}
}
