{
	 "smiles": "OC(=O)C1=CC2=C(OC=C2)C(Br)=C1", 
	 "Tm": 513.15, 
	 "num_atms": 18, 
	 "gaussian": { 
		 "optdone": 1, 
		 "sigma_profile": "yes", 
		 "theory": "DFT", 
		 "functional": "B3LYP", 
		 "basiset": "6-31G**", 
		 "properties": { 
			 "R2extent": 3836.5558, 
			 "electric_dipole_moment_norm": 3.90186705822, 
			 "electric_quadrupole_moment_norm": 20.5032139098, 
			 "total_energy": -3143.03673323, 
			 "HOMO_LUMO_gap": 0.19285, 
			 "cosmo_polarized_energy": -14.33, 
			 "cosmo_cavitation_energy": 25.66, 
			 "cosmo_dispersion_energy": -19.46, 
			 "cosmo_repulsion_energy": 1.52, 
			 "cosmo_total_nonelectrostatic_energy": 7.72, 
			 "SMD_solvation_energy": 5.17 
		},
		"coords": [
			{
				"x": 0.4129618959,
				"y": -4.4154128319,
				"z": -0.960277454,
				"element": "O" 
			},
			{
				"x": 0.5283072412,
				"y": -3.3876542295,
				"z": -1.8436450948,
				"element": "C" 
			},
			{
				"x": 0.5977258389,
				"y": -3.6148985723,
				"z": -3.0283877425,
				"element": "O" 
			},
			{
				"x": 0.557613191,
				"y": -2.0009614683,
				"z": -1.2708941021,
				"element": "C" 
			},
			{
				"x": 0.2364605625,
				"y": -0.9491669342,
				"z": -2.1323307963,
				"element": "C" 
			},
			{
				"x": 0.2514068849,
				"y": 0.355218758,
				"z": -1.6306050373,
				"element": "C" 
			},
			{
				"x": 0.6058682637,
				"y": 0.57624415,
				"z": -0.2826850659,
				"element": "C" 
			},
			{
				"x": 0.564919747,
				"y": 1.9013166493,
				"z": 0.0121381321,
				"element": "O" 
			},
			{
				"x": 0.1830831438,
				"y": 2.5372234725,
				"z": -1.1475552559,
				"element": "C" 
			},
			{
				"x": -0.0196343647,
				"y": 1.6685420172,
				"z": -2.1666813332,
				"element": "C" 
			},
			{
				"x": 0.9507003386,
				"y": -0.4601368482,
				"z": 0.5787601471,
				"element": "C" 
			},
			{
				"x": 1.4556435186,
				"y": -0.1122808409,
				"z": 2.3739826113,
				"element": "Br" 
			},
			{
				"x": 0.9229233201,
				"y": -1.7543721057,
				"z": 0.0719216796,
				"element": "C" 
			},
			{
				"x": 0.1843070108,
				"y": -4.0808889316,
				"z": -0.0821647487,
				"element": "H" 
			},
			{
				"x": -0.0154482859,
				"y": -1.1712911684,
				"z": -3.163034736,
				"element": "H" 
			},
			{
				"x": 0.1053645358,
				"y": 3.6109451399,
				"z": -1.0718218425,
				"element": "H" 
			},
			{
				"x": -0.3219242216,
				"y": 1.9169410914,
				"z": -3.1734298968,
				"element": "H" 
			},
			{
				"x": 1.2343213793,
				"y": -2.5646673474,
				"z": 0.7228105359,
				"element": "H" 
			}
		],
		 "valence_orbital": [ 
			{
				"type": "occ",
				"energy": -0.3041,
				"method": "rhf"
			},
			{
				"type": "occ",
				"energy": -0.29873,
				"method": "rhf"
			},
			{
				"type": "occ",
				"energy": -0.27823,
				"method": "rhf"
			},
			{
				"type": "occ",
				"energy": -0.2614,
				"method": "rhf"
			},
			{
				"type": "occ",
				"energy": -0.24511,
				"method": "rhf"
			},
			{
				"type": "unocc",
				"energy": -0.05226,
				"method": "rhf"
			},
			{
				"type": "unocc",
				"energy": -0.04641,
				"method": "rhf"
			},
			{
				"type": "unocc",
				"energy": -0.00919,
				"method": "rhf"
			},
			{
				"type": "unocc",
				"energy": 0.02245,
				"method": "rhf"
			},
			{
				"type": "unocc",
				"energy": 0.05589,
				"method": "rhf"
			}
		],
		"cosmo_sigma_profile": { 
			"-0.025": 0.0,
			"-0.024": 0.0,
			"-0.023": 0.0,
			"-0.022": 0.0,
			"-0.021": 0.0,
			"-0.02": 0.0,
			"-0.019": 0.476378997345,
			"-0.018": 0.766188484575,
			"-0.017": 1.4122637829,
			"-0.016": 0.698124787112,
			"-0.015": 0.815892645988,
			"-0.014": 1.02900869148,
			"-0.013": 1.55214955919,
			"-0.012": 0.948041122249,
			"-0.011": 1.33705996139,
			"-0.01": 3.22970730197,
			"-0.009": 3.66724555779,
			"-0.008": 5.23469585662,
			"-0.007": 5.9494179074,
			"-0.006": 7.17242155558,
			"-0.005": 8.3170183038,
			"-0.004": 8.46108509607,
			"-0.003": 9.36111362828,
			"-0.002": 10.512973395,
			"-0.001": 15.5997510483,
			"0.0": 21.9034448859,
			"0.001": 22.4936139992,
			"0.002": 17.4005689706,
			"0.003": 14.8420415823,
			"0.004": 11.811058669,
			"0.005": 5.20463108181,
			"0.006": 4.28372956228,
			"0.007": 4.30585842853,
			"0.008": 2.24551995795,
			"0.009": 4.14854930328,
			"0.01": 4.71631700761,
			"0.011": 5.13119382833,
			"0.012": 4.64694645294,
			"0.013": 1.09324249905,
			"0.014": 0.0,
			"0.015": 0.0,
			"0.016": 0.0,
			"0.017": 0.0,
			"0.018": 0.0,
			"0.019": 0.0,
			"0.02": 0.0,
			"0.021": 0.0,
			"0.022": 0.0,
			"0.023": 0.0,
			"0.024": 0.0,
			"0.025": 0.0
		}
	}
}
