{
	 "smiles": "CC1=C(F)C=C(F)C(=C1)C(=O)CCl", 
	 "Tm": 354.15, 
	 "num_atms": 20, 
	 "gaussian": { 
		 "optdone": 1, 
		 "sigma_profile": "yes", 
		 "theory": "DFT", 
		 "functional": "B3LYP", 
		 "basiset": "6-31G**", 
		 "properties": { 
			 "R2extent": 3843.929, 
			 "electric_dipole_moment_norm": 2.42454966953, 
			 "electric_quadrupole_moment_norm": 8.76428024826, 
			 "total_energy": -1082.26508582, 
			 "HOMO_LUMO_gap": 0.18355, 
			 "cosmo_polarized_energy": -7.38, 
			 "cosmo_cavitation_energy": 26.91, 
			 "cosmo_dispersion_energy": -19.38, 
			 "cosmo_repulsion_energy": 1.5, 
			 "cosmo_total_nonelectrostatic_energy": 9.03, 
			 "SMD_solvation_energy": 5.81 
		},
		"coords": [
			{
				"x": -1.7367474274,
				"y": 0.0781173043,
				"z": -1.6455321782,
				"element": "C" 
			},
			{
				"x": -0.3740426436,
				"y": 0.0107122182,
				"z": -1.0058403447,
				"element": "C" 
			},
			{
				"x": 0.7834112476,
				"y": 0.0425388439,
				"z": -1.7947977549,
				"element": "C" 
			},
			{
				"x": 0.6432932663,
				"y": 0.1358095804,
				"z": -3.1298926087,
				"element": "F" 
			},
			{
				"x": 2.0663187612,
				"y": -0.0134793439,
				"z": -1.2703941571,
				"element": "C" 
			},
			{
				"x": 2.2002141647,
				"y": -0.1142578167,
				"z": 0.1084315655,
				"element": "C" 
			},
			{
				"x": 3.4556224423,
				"y": -0.1479566518,
				"z": 0.6000340702,
				"element": "F" 
			},
			{
				"x": 1.0933843916,
				"y": -0.1592125159,
				"z": 0.9652894611,
				"element": "C" 
			},
			{
				"x": -0.1807199482,
				"y": -0.0849971582,
				"z": 0.368023083,
				"element": "C" 
			},
			{
				"x": 1.1415211659,
				"y": -0.2473429584,
				"z": 2.4556179542,
				"element": "C" 
			},
			{
				"x": 0.1356957032,
				"y": -0.0619372859,
				"z": 3.1219518143,
				"element": "O" 
			},
			{
				"x": 2.4421491019,
				"y": -0.5834592581,
				"z": 3.1837900097,
				"element": "C" 
			},
			{
				"x": 2.9236990528,
				"y": -2.3047959696,
				"z": 2.8700132947,
				"element": "Cl" 
			},
			{
				"x": -1.8561110203,
				"y": 0.9957873419,
				"z": -2.2311180915,
				"element": "H" 
			},
			{
				"x": -1.895402186,
				"y": -0.7607263223,
				"z": -2.3315568499,
				"element": "H" 
			},
			{
				"x": -2.5212950191,
				"y": 0.0518520403,
				"z": -0.8862549434,
				"element": "H" 
			},
			{
				"x": 2.9377323665,
				"y": 0.0226696794,
				"z": -1.9123918687,
				"element": "H" 
			},
			{
				"x": -1.0353328109,
				"y": -0.1076930426,
				"z": 1.0364825095,
				"element": "H" 
			},
			{
				"x": 3.274970774,
				"y": 0.0406011605,
				"z": 2.8637189552,
				"element": "H" 
			},
			{
				"x": 2.2601386176,
				"y": -0.4876298455,
				"z": 4.2524260798,
				"element": "H" 
			}
		],
		 "valence_orbital": [ 
			{
				"type": "occ",
				"energy": -0.31592,
				"method": "rhf"
			},
			{
				"type": "occ",
				"energy": -0.3033,
				"method": "rhf"
			},
			{
				"type": "occ",
				"energy": -0.27449,
				"method": "rhf"
			},
			{
				"type": "occ",
				"energy": -0.2666,
				"method": "rhf"
			},
			{
				"type": "occ",
				"energy": -0.25853,
				"method": "rhf"
			},
			{
				"type": "unocc",
				"energy": -0.07498,
				"method": "rhf"
			},
			{
				"type": "unocc",
				"energy": -0.02175,
				"method": "rhf"
			},
			{
				"type": "unocc",
				"energy": -0.00179,
				"method": "rhf"
			},
			{
				"type": "unocc",
				"energy": 0.05085,
				"method": "rhf"
			},
			{
				"type": "unocc",
				"energy": 0.07569,
				"method": "rhf"
			}
		],
		"cosmo_sigma_profile": { 
			"-0.025": 0.0,
			"-0.024": 0.0,
			"-0.023": 0.0,
			"-0.022": 0.0,
			"-0.021": 0.0,
			"-0.02": 0.0,
			"-0.019": 0.0,
			"-0.018": 0.0,
			"-0.017": 0.0,
			"-0.016": 0.0,
			"-0.015": 0.0,
			"-0.014": 0.0,
			"-0.013": 0.0,
			"-0.012": 0.0,
			"-0.011": 0.0,
			"-0.01": 0.0567548189288,
			"-0.009": 2.21610520283,
			"-0.008": 5.60159876527,
			"-0.007": 5.94984316795,
			"-0.006": 8.24011892936,
			"-0.005": 11.6783223603,
			"-0.004": 12.805184401,
			"-0.003": 11.2476429658,
			"-0.002": 14.8609959279,
			"-0.001": 26.7883544562,
			"0.0": 26.1696969021,
			"0.001": 18.146153031,
			"0.002": 14.5921880114,
			"0.003": 17.7262003847,
			"0.004": 14.1513985651,
			"0.005": 10.2037687506,
			"0.006": 5.0453642433,
			"0.007": 1.4552609092,
			"0.008": 1.54638205875,
			"0.009": 2.23911464577,
			"0.01": 3.30634977643,
			"0.011": 3.00968416607,
			"0.012": 0.648855096026,
			"0.013": 0.0,
			"0.014": 0.0,
			"0.015": 0.0,
			"0.016": 0.0,
			"0.017": 0.0,
			"0.018": 0.0,
			"0.019": 0.0,
			"0.02": 0.0,
			"0.021": 0.0,
			"0.022": 0.0,
			"0.023": 0.0,
			"0.024": 0.0,
			"0.025": 0.0
		}
	}
}
