{
	 "smiles": "CC1=C(C)N(CCC(O)=O)C(=O)S1", 
	 "Tm": 424.15, 
	 "num_atms": 24, 
	 "gaussian": { 
		 "optdone": 1, 
		 "sigma_profile": "yes", 
		 "theory": "DFT", 
		 "functional": "B3LYP", 
		 "basiset": "6-31G**", 
		 "properties": { 
			 "R2extent": 3181.1469, 
			 "electric_dipole_moment_norm": 5.48494887761, 
			 "electric_quadrupole_moment_norm": 13.3527539175, 
			 "total_energy": -990.124510564, 
			 "HOMO_LUMO_gap": 0.20192, 
			 "cosmo_polarized_energy": -16.04, 
			 "cosmo_cavitation_energy": 28.79, 
			 "cosmo_dispersion_energy": -20.85, 
			 "cosmo_repulsion_energy": 1.62, 
			 "cosmo_total_nonelectrostatic_energy": 9.55, 
			 "SMD_solvation_energy": 6.63 
		},
		"coords": [
			{
				"x": -1.4940299649,
				"y": -0.9775449863,
				"z": 3.1797525186,
				"element": "C" 
			},
			{
				"x": -1.5786927784,
				"y": -0.7792435913,
				"z": 1.6972828178,
				"element": "C" 
			},
			{
				"x": -0.7977884477,
				"y": -0.0328717356,
				"z": 0.8812421864,
				"element": "C" 
			},
			{
				"x": 0.3608594266,
				"y": 0.8315474071,
				"z": 1.2790190948,
				"element": "C" 
			},
			{
				"x": -1.1895301284,
				"y": -0.0887212306,
				"z": -0.4738630846,
				"element": "N" 
			},
			{
				"x": -0.5612095111,
				"y": 0.6175452097,
				"z": -1.5935556211,
				"element": "C" 
			},
			{
				"x": 0.1512298018,
				"y": -0.3195971318,
				"z": -2.5846884981,
				"element": "C" 
			},
			{
				"x": 1.3688091387,
				"y": -1.0370933958,
				"z": -2.0453017753,
				"element": "C" 
			},
			{
				"x": 2.2420924525,
				"y": -0.1823866121,
				"z": -1.4388086316,
				"element": "O" 
			},
			{
				"x": 1.5985963554,
				"y": -2.2189752871,
				"z": -2.148466551,
				"element": "O" 
			},
			{
				"x": -2.3100057796,
				"y": -0.8540758378,
				"z": -0.7504638555,
				"element": "C" 
			},
			{
				"x": -2.8199996572,
				"y": -0.9985024062,
				"z": -1.8466217592,
				"element": "O" 
			},
			{
				"x": -2.8697978639,
				"y": -1.5878592639,
				"z": 0.7928590813,
				"element": "S" 
			},
			{
				"x": -2.3990682419,
				"y": -0.6190684481,
				"z": 3.6844083151,
				"element": "H" 
			},
			{
				"x": -0.6432857891,
				"y": -0.4403473989,
				"z": 3.6049364359,
				"element": "H" 
			},
			{
				"x": -1.3775762604,
				"y": -2.0375950368,
				"z": 3.4339146219,
				"element": "H" 
			},
			{
				"x": 1.2646177994,
				"y": 0.5816351701,
				"z": 0.7149835001,
				"element": "H" 
			},
			{
				"x": 0.577944689,
				"y": 0.7106199957,
				"z": 2.3406155421,
				"element": "H" 
			},
			{
				"x": 0.1464859049,
				"y": 1.8938600346,
				"z": 1.1067498887,
				"element": "H" 
			},
			{
				"x": -1.3505496821,
				"y": 1.1446840853,
				"z": -2.1369675328,
				"element": "H" 
			},
			{
				"x": 0.1330937003,
				"y": 1.3560386738,
				"z": -1.1946234475,
				"element": "H" 
			},
			{
				"x": 0.4830741323,
				"y": 0.2871029291,
				"z": -3.4371851174,
				"element": "H" 
			},
			{
				"x": -0.546885283,
				"y": -1.0696220477,
				"z": -2.9561943812,
				"element": "H" 
			},
			{
				"x": 2.9948159867,
				"y": -0.7299290955,
				"z": -1.1577237473,
				"element": "H" 
			}
		],
		 "valence_orbital": [ 
			{
				"type": "occ",
				"energy": -0.32243,
				"method": "rhf"
			},
			{
				"type": "occ",
				"energy": -0.28457,
				"method": "rhf"
			},
			{
				"type": "occ",
				"energy": -0.27493,
				"method": "rhf"
			},
			{
				"type": "occ",
				"energy": -0.2637,
				"method": "rhf"
			},
			{
				"type": "occ",
				"energy": -0.20534,
				"method": "rhf"
			},
			{
				"type": "unocc",
				"energy": -0.00342,
				"method": "rhf"
			},
			{
				"type": "unocc",
				"energy": 0.00994,
				"method": "rhf"
			},
			{
				"type": "unocc",
				"energy": 0.01779,
				"method": "rhf"
			},
			{
				"type": "unocc",
				"energy": 0.0368,
				"method": "rhf"
			},
			{
				"type": "unocc",
				"energy": 0.0615,
				"method": "rhf"
			}
		],
		"cosmo_sigma_profile": { 
			"-0.025": 0.0,
			"-0.024": 0.0,
			"-0.023": 0.0,
			"-0.022": 0.0,
			"-0.021": 0.0,
			"-0.02": 0.0,
			"-0.019": 0.0,
			"-0.018": 0.573118890698,
			"-0.017": 1.26147075099,
			"-0.016": 0.470953123033,
			"-0.015": 0.933066276513,
			"-0.014": 0.651506322318,
			"-0.013": 0.69352514911,
			"-0.012": 0.732038576843,
			"-0.011": 0.765835900631,
			"-0.01": 0.879079653518,
			"-0.009": 0.503772006489,
			"-0.008": 1.81919206288,
			"-0.007": 7.45953236553,
			"-0.006": 11.8181277931,
			"-0.005": 14.6356895026,
			"-0.004": 15.7075913016,
			"-0.003": 20.8459979192,
			"-0.002": 22.7355538046,
			"-0.001": 23.3246956359,
			"0.0": 13.9004183299,
			"0.001": 13.2577613793,
			"0.002": 13.2864567979,
			"0.003": 11.4077786322,
			"0.004": 8.80844318676,
			"0.005": 6.93796238766,
			"0.006": 4.20868860086,
			"0.007": 4.09514766732,
			"0.008": 2.59276384875,
			"0.009": 3.64668409355,
			"0.01": 3.56619958595,
			"0.011": 6.69121667023,
			"0.012": 7.5160193506,
			"0.013": 3.66980178173,
			"0.014": 0.366512145762,
			"0.015": 0.0,
			"0.016": 0.0,
			"0.017": 0.0,
			"0.018": 0.0,
			"0.019": 0.0,
			"0.02": 0.0,
			"0.021": 0.0,
			"0.022": 0.0,
			"0.023": 0.0,
			"0.024": 0.0,
			"0.025": 0.0
		}
	}
}
