{
	 "smiles": "CCCCCCCOC1=CC=C(C=C1)N=[N+]([O-])C1=CC=C(OCCCCCCC)C=C1", 
	 "Tm": 370.65, 
	 "num_atms": 69, 
	 "gaussian": { 
		 "optdone": 1, 
		 "sigma_profile": "yes", 
		 "theory": "DFT", 
		 "functional": "B3LYP", 
		 "basiset": "6-31G**", 
		 "properties": { 
			 "R2extent": 38735.7587, 
			 "electric_dipole_moment_norm": 1.55484087289, 
			 "electric_quadrupole_moment_norm": 32.5596840616, 
			 "total_energy": -1348.7867956, 
			 "HOMO_LUMO_gap": 0.13248, 
			 "cosmo_polarized_energy": -12.08, 
			 "cosmo_cavitation_energy": 69.91, 
			 "cosmo_dispersion_energy": -48.31, 
			 "cosmo_repulsion_energy": 3.72, 
			 "cosmo_total_nonelectrostatic_energy": 25.32, 
			 "SMD_solvation_energy": 11.02 
		},
		"coords": [
			{
				"x": 3.7330399622,
				"y": 5.755706079,
				"z": 7.6491150669,
				"element": "C" 
			},
			{
				"x": 3.2370547188,
				"y": 4.6861905839,
				"z": 6.6684489312,
				"element": "C" 
			},
			{
				"x": 3.8266770733,
				"y": 3.2838723179,
				"z": 6.89840743,
				"element": "C" 
			},
			{
				"x": 3.4032299654,
				"y": 2.6254846548,
				"z": 8.2200114691,
				"element": "C" 
			},
			{
				"x": 4.0081991432,
				"y": 1.2285994333,
				"z": 8.4584302809,
				"element": "C" 
			},
			{
				"x": 3.5717301837,
				"y": 0.1209032732,
				"z": 7.4826791324,
				"element": "C" 
			},
			{
				"x": 2.0930858196,
				"y": -0.25129571,
				"z": 7.6098564244,
				"element": "C" 
			},
			{
				"x": 1.7515613635,
				"y": -1.3954600136,
				"z": 6.8197750485,
				"element": "O" 
			},
			{
				"x": 1.4785667874,
				"y": -1.2567845641,
				"z": 5.4933740787,
				"element": "C" 
			},
			{
				"x": 1.1794416821,
				"y": -2.4509392388,
				"z": 4.8125300422,
				"element": "C" 
			},
			{
				"x": 0.872184439,
				"y": -2.4220179623,
				"z": 3.4665033746,
				"element": "C" 
			},
			{
				"x": 0.8475472329,
				"y": -1.2095873519,
				"z": 2.7359280964,
				"element": "C" 
			},
			{
				"x": 1.1501564445,
				"y": -0.0171802483,
				"z": 3.428045603,
				"element": "C" 
			},
			{
				"x": 1.4624234768,
				"y": -0.0468098679,
				"z": 4.7871186303,
				"element": "C" 
			},
			{
				"x": 0.517199125,
				"y": -1.3912422575,
				"z": 1.3927721612,
				"element": "N" 
			},
			{
				"x": 0.4471405313,
				"y": -0.4012507308,
				"z": 0.5817752923,
				"element": "N" 
			},
			{
				"x": 0.6488268753,
				"y": 0.8201992863,
				"z": 0.8361870474,
				"element": "O" 
			},
			{
				"x": 0.0927921673,
				"y": -0.741501394,
				"z": -0.7897999027,
				"element": "C" 
			},
			{
				"x": -0.0030039468,
				"y": 0.2942137726,
				"z": -1.7149427729,
				"element": "C" 
			},
			{
				"x": -0.3413759863,
				"y": 0.0200114271,
				"z": -3.0393408189,
				"element": "C" 
			},
			{
				"x": -0.5813945065,
				"y": -1.302246234,
				"z": -3.4394485992,
				"element": "C" 
			},
			{
				"x": -0.8968951085,
				"y": -1.6989962421,
				"z": -4.7019048665,
				"element": "O" 
			},
			{
				"x": -1.0532868751,
				"y": -0.7306780002,
				"z": -5.7475899232,
				"element": "C" 
			},
			{
				"x": -2.4320780556,
				"y": -0.0660439448,
				"z": -5.7420261261,
				"element": "C" 
			},
			{
				"x": -3.6131106338,
				"y": -1.0427849524,
				"z": -5.8679904029,
				"element": "C" 
			},
			{
				"x": -3.7077443792,
				"y": -1.7695302416,
				"z": -7.2171023742,
				"element": "C" 
			},
			{
				"x": -4.9466708514,
				"y": -2.6710279385,
				"z": -7.3188646233,
				"element": "C" 
			},
			{
				"x": -5.1210807877,
				"y": -3.3742182378,
				"z": -8.6751582683,
				"element": "C" 
			},
			{
				"x": -4.0340398239,
				"y": -4.4052238602,
				"z": -9.0023383646,
				"element": "C" 
			},
			{
				"x": -0.4825760994,
				"y": -2.3385658394,
				"z": -2.4928917365,
				"element": "C" 
			},
			{
				"x": -0.1479901322,
				"y": -2.0655705138,
				"z": -1.1766668335,
				"element": "C" 
			},
			{
				"x": 3.4427101634,
				"y": 5.5341444679,
				"z": 8.6812299139,
				"element": "H" 
			},
			{
				"x": 3.3212443367,
				"y": 6.7388547057,
				"z": 7.3986255918,
				"element": "H" 
			},
			{
				"x": 4.826039919,
				"y": 5.8376471831,
				"z": 7.6228202069,
				"element": "H" 
			},
			{
				"x": 3.4796616125,
				"y": 5.0027581376,
				"z": 5.6462340021,
				"element": "H" 
			},
			{
				"x": 2.1406601949,
				"y": 4.6284978701,
				"z": 6.7137897976,
				"element": "H" 
			},
			{
				"x": 3.5323292816,
				"y": 2.6434965051,
				"z": 6.0570012511,
				"element": "H" 
			},
			{
				"x": 4.9243768229,
				"y": 3.3425280436,
				"z": 6.8619128396,
				"element": "H" 
			},
			{
				"x": 2.3060667258,
				"y": 2.5769557063,
				"z": 8.2645102477,
				"element": "H" 
			},
			{
				"x": 3.7039563881,
				"y": 3.2669632405,
				"z": 9.0571638345,
				"element": "H" 
			},
			{
				"x": 5.1021548092,
				"y": 1.3097732204,
				"z": 8.4189196988,
				"element": "H" 
			},
			{
				"x": 3.7688518619,
				"y": 0.9093610508,
				"z": 9.4821974118,
				"element": "H" 
			},
			{
				"x": 4.1556429442,
				"y": -0.7850352251,
				"z": 7.6831094259,
				"element": "H" 
			},
			{
				"x": 3.7946434409,
				"y": 0.4060199387,
				"z": 6.4488145867,
				"element": "H" 
			},
			{
				"x": 1.4296431642,
				"y": 0.5866943108,
				"z": 7.3663170133,
				"element": "H" 
			},
			{
				"x": 1.872530712,
				"y": -0.5540473715,
				"z": 8.6385925566,
				"element": "H" 
			},
			{
				"x": 1.1943022094,
				"y": -3.3822529341,
				"z": 5.3688908392,
				"element": "H" 
			},
			{
				"x": 0.639461242,
				"y": -3.3391677316,
				"z": 2.9352262114,
				"element": "H" 
			},
			{
				"x": 1.1426034113,
				"y": 0.9227455697,
				"z": 2.8999007052,
				"element": "H" 
			},
			{
				"x": 1.6942848521,
				"y": 0.8888302916,
				"z": 5.2819609256,
				"element": "H" 
			},
			{
				"x": 0.1866018056,
				"y": 1.3072379505,
				"z": -1.3843599536,
				"element": "H" 
			},
			{
				"x": -0.4162984179,
				"y": 0.8416146676,
				"z": -3.7406781965,
				"element": "H" 
			},
			{
				"x": -0.2525188013,
				"y": 0.0168876504,
				"z": -5.6947232504,
				"element": "H" 
			},
			{
				"x": -0.9026847347,
				"y": -1.3033548926,
				"z": -6.6664075222,
				"element": "H" 
			},
			{
				"x": -2.5453387901,
				"y": 0.5188103236,
				"z": -4.82198974,
				"element": "H" 
			},
			{
				"x": -2.4518262907,
				"y": 0.6545957213,
				"z": -6.5715683324,
				"element": "H" 
			},
			{
				"x": -3.5526362574,
				"y": -1.7806425143,
				"z": -5.0585478321,
				"element": "H" 
			},
			{
				"x": -4.5415713401,
				"y": -0.4812802979,
				"z": -5.7014546569,
				"element": "H" 
			},
			{
				"x": -2.8046233645,
				"y": -2.3707043671,
				"z": -7.3785232445,
				"element": "H" 
			},
			{
				"x": -3.7334896371,
				"y": -1.0280238699,
				"z": -8.0295535493,
				"element": "H" 
			},
			{
				"x": -5.8402001948,
				"y": -2.0642496901,
				"z": -7.1179502931,
				"element": "H" 
			},
			{
				"x": -4.9089893033,
				"y": -3.4274086949,
				"z": -6.5217830466,
				"element": "H" 
			},
			{
				"x": -6.098299999,
				"y": -3.8736082064,
				"z": -8.6860797187,
				"element": "H" 
			},
			{
				"x": -5.159721172,
				"y": -2.6179697936,
				"z": -9.4714557677,
				"element": "H" 
			},
			{
				"x": -3.0443422783,
				"y": -3.9448720165,
				"z": -9.0880993389,
				"element": "H" 
			},
			{
				"x": -3.9740610261,
				"y": -5.1750201645,
				"z": -8.2240355219,
				"element": "H" 
			},
			{
				"x": -4.2427271317,
				"y": -4.9093669272,
				"z": -9.951714116,
				"element": "H" 
			},
			{
				"x": -0.6706400267,
				"y": -3.3552133423,
				"z": -2.8212736316,
				"element": "H" 
			},
			{
				"x": -0.0686069376,
				"y": -2.8576239998,
				"z": -0.4439118438,
				"element": "H" 
			}
		],
		 "valence_orbital": [ 
			{
				"type": "occ",
				"energy": -0.2586,
				"method": "rhf"
			},
			{
				"type": "occ",
				"energy": -0.25136,
				"method": "rhf"
			},
			{
				"type": "occ",
				"energy": -0.24765,
				"method": "rhf"
			},
			{
				"type": "occ",
				"energy": -0.23107,
				"method": "rhf"
			},
			{
				"type": "occ",
				"energy": -0.19483,
				"method": "rhf"
			},
			{
				"type": "unocc",
				"energy": -0.06235,
				"method": "rhf"
			},
			{
				"type": "unocc",
				"energy": -0.00843,
				"method": "rhf"
			},
			{
				"type": "unocc",
				"energy": 0.00337,
				"method": "rhf"
			},
			{
				"type": "unocc",
				"energy": 0.01873,
				"method": "rhf"
			},
			{
				"type": "unocc",
				"energy": 0.05489,
				"method": "rhf"
			}
		],
		"cosmo_sigma_profile": { 
			"-0.025": 0.0,
			"-0.024": 0.0,
			"-0.023": 0.0,
			"-0.022": 0.0,
			"-0.021": 0.0,
			"-0.02": 0.0,
			"-0.019": 0.0,
			"-0.018": 0.0,
			"-0.017": 0.0,
			"-0.016": 0.0,
			"-0.015": 0.0,
			"-0.014": 0.0,
			"-0.013": 0.0,
			"-0.012": 0.0,
			"-0.011": 0.0,
			"-0.01": 0.0,
			"-0.009": 0.0,
			"-0.008": 0.510151288407,
			"-0.007": 3.33922497333,
			"-0.006": 11.7790443744,
			"-0.005": 22.7437302551,
			"-0.004": 27.6980808764,
			"-0.003": 37.716166472,
			"-0.002": 64.5081540632,
			"-0.001": 78.3235337549,
			"0.0": 82.7108929001,
			"0.001": 73.5207093772,
			"0.002": 45.2971363937,
			"0.003": 35.0009794661,
			"0.004": 26.6138319472,
			"0.005": 10.6519066582,
			"0.006": 5.58106158195,
			"0.007": 4.06777286844,
			"0.008": 4.59959275147,
			"0.009": 4.61373932647,
			"0.01": 4.72283038877,
			"0.011": 2.36284519334,
			"0.012": 0.0735189483999,
			"0.013": 0.0,
			"0.014": 0.0,
			"0.015": 0.0,
			"0.016": 0.0,
			"0.017": 0.0,
			"0.018": 0.0,
			"0.019": 0.0,
			"0.02": 0.0,
			"0.021": 0.0,
			"0.022": 0.0,
			"0.023": 0.0,
			"0.024": 0.0,
			"0.025": 0.0
		}
	}
}
