{
	 "smiles": "NC1=CC(CCC2=CC=CO2)=NO1", 
	 "Tm": 341.15, 
	 "num_atms": 23, 
	 "gaussian": { 
		 "optdone": 1, 
		 "sigma_profile": "yes", 
		 "theory": "DFT", 
		 "functional": "B3LYP", 
		 "basiset": "6-31G**", 
		 "properties": { 
			 "R2extent": 2899.8727, 
			 "electric_dipole_moment_norm": 3.78370621085, 
			 "electric_quadrupole_moment_norm": 13.3510290251, 
			 "total_energy": -608.862940805, 
			 "HOMO_LUMO_gap": 0.22427, 
			 "cosmo_polarized_energy": -14.5, 
			 "cosmo_cavitation_energy": 27.77, 
			 "cosmo_dispersion_energy": -19.68, 
			 "cosmo_repulsion_energy": 1.6, 
			 "cosmo_total_nonelectrostatic_energy": 9.69, 
			 "SMD_solvation_energy": 5.3 
		},
		"coords": [
			{
				"x": -2.1698404683,
				"y": 3.2620897177,
				"z": -1.1834219962,
				"element": "N" 
			},
			{
				"x": -1.6633802073,
				"y": 2.5465953145,
				"z": -0.1229834058,
				"element": "C" 
			},
			{
				"x": -1.6226758808,
				"y": 1.2106907873,
				"z": 0.1786274623,
				"element": "C" 
			},
			{
				"x": -1.0230100248,
				"y": 1.1846972956,
				"z": 1.4699974583,
				"element": "C" 
			},
			{
				"x": -0.7010216277,
				"y": -0.0054167006,
				"z": 2.3272871441,
				"element": "C" 
			},
			{
				"x": 0.4915455281,
				"y": -0.8500434119,
				"z": 1.8118405794,
				"element": "C" 
			},
			{
				"x": 0.2582253328,
				"y": -1.5213611748,
				"z": 0.4997844872,
				"element": "C" 
			},
			{
				"x": 0.9105017888,
				"y": -1.5057996737,
				"z": -0.6983624919,
				"element": "C" 
			},
			{
				"x": 0.1851876914,
				"y": -2.3789582908,
				"z": -1.5769479899,
				"element": "C" 
			},
			{
				"x": -0.8590314046,
				"y": -2.8607647208,
				"z": -0.8510469634,
				"element": "C" 
			},
			{
				"x": -0.8311208361,
				"y": -2.3508177607,
				"z": 0.4166209551,
				"element": "O" 
			},
			{
				"x": -0.7257064319,
				"y": 2.3876585872,
				"z": 1.9146903621,
				"element": "N" 
			},
			{
				"x": -1.1384365037,
				"y": 3.2705650385,
				"z": 0.8799353722,
				"element": "O" 
			},
			{
				"x": -2.204815372,
				"y": 2.7586308967,
				"z": -2.0580887749,
				"element": "H" 
			},
			{
				"x": -1.789656415,
				"y": 4.1949017639,
				"z": -1.2745220283,
				"element": "H" 
			},
			{
				"x": -1.9659634593,
				"y": 0.3788416746,
				"z": -0.4152728366,
				"element": "H" 
			},
			{
				"x": -0.4668830953,
				"y": 0.3546569702,
				"z": 3.3333065632,
				"element": "H" 
			},
			{
				"x": -1.5840461604,
				"y": -0.648928642,
				"z": 2.4044148486,
				"element": "H" 
			},
			{
				"x": 1.3776512114,
				"y": -0.214926263,
				"z": 1.716784131,
				"element": "H" 
			},
			{
				"x": 0.7212753804,
				"y": -1.6058862661,
				"z": 2.5749549346,
				"element": "H" 
			},
			{
				"x": 1.800697901,
				"y": -0.9379186747,
				"z": -0.9284783208,
				"element": "H" 
			},
			{
				"x": 0.4151740693,
				"y": -2.6128926065,
				"z": -2.6066464775,
				"element": "H" 
			},
			{
				"x": -1.6680710159,
				"y": -3.5414138608,
				"z": -1.0663730129,
				"element": "H" 
			}
		],
		 "valence_orbital": [ 
			{
				"type": "occ",
				"energy": -0.28939,
				"method": "rhf"
			},
			{
				"type": "occ",
				"energy": -0.27524,
				"method": "rhf"
			},
			{
				"type": "occ",
				"energy": -0.27339,
				"method": "rhf"
			},
			{
				"type": "occ",
				"energy": -0.22165,
				"method": "rhf"
			},
			{
				"type": "occ",
				"energy": -0.2096,
				"method": "rhf"
			},
			{
				"type": "unocc",
				"energy": 0.01467,
				"method": "rhf"
			},
			{
				"type": "unocc",
				"energy": 0.01763,
				"method": "rhf"
			},
			{
				"type": "unocc",
				"energy": 0.06153,
				"method": "rhf"
			},
			{
				"type": "unocc",
				"energy": 0.07424,
				"method": "rhf"
			},
			{
				"type": "unocc",
				"energy": 0.08412,
				"method": "rhf"
			}
		],
		"cosmo_sigma_profile": { 
			"-0.025": 0.0,
			"-0.024": 0.0,
			"-0.023": 0.0,
			"-0.022": 0.0,
			"-0.021": 0.0,
			"-0.02": 0.0,
			"-0.019": 0.0,
			"-0.018": 0.0,
			"-0.017": 0.0,
			"-0.016": 0.0,
			"-0.015": 0.25952546766,
			"-0.014": 2.47158700554,
			"-0.013": 2.6615520651,
			"-0.012": 2.90201911653,
			"-0.011": 2.65175362334,
			"-0.01": 1.832454706,
			"-0.009": 3.21131549874,
			"-0.008": 3.04401267513,
			"-0.007": 5.03385843145,
			"-0.006": 7.93676176123,
			"-0.005": 13.2286116331,
			"-0.004": 15.7213678122,
			"-0.003": 16.9570024124,
			"-0.002": 17.4216433235,
			"-0.001": 14.292272389,
			"0.0": 12.0831251356,
			"0.001": 11.0733507146,
			"0.002": 11.4672044082,
			"0.003": 13.5615709525,
			"0.004": 13.6533448315,
			"0.005": 12.3292206993,
			"0.006": 9.59952174536,
			"0.007": 4.83929512844,
			"0.008": 4.27037049688,
			"0.009": 6.21806392981,
			"0.01": 3.21494401022,
			"0.011": 1.97959050808,
			"0.012": 1.92539313769,
			"0.013": 1.55592656168,
			"0.014": 1.549638098,
			"0.015": 1.32266809988,
			"0.016": 0.404752805271,
			"0.017": 0.0,
			"0.018": 0.0,
			"0.019": 0.0,
			"0.02": 0.0,
			"0.021": 0.0,
			"0.022": 0.0,
			"0.023": 0.0,
			"0.024": 0.0,
			"0.025": 0.0
		}
	}
}
