{
	 "smiles": "CC(C)(C)OC(=O)NC1=NC=C(N=C1)C(O)=O", 
	 "Tm": 535.15, 
	 "num_atms": 30, 
	 "gaussian": { 
		 "optdone": 1, 
		 "sigma_profile": "yes", 
		 "theory": "DFT", 
		 "functional": "B3LYP", 
		 "basiset": "6-31G**", 
		 "properties": { 
			 "R2extent": 6480.3474, 
			 "electric_dipole_moment_norm": 6.00863625626, 
			 "electric_quadrupole_moment_norm": 35.0500956069, 
			 "total_energy": -854.096693846, 
			 "HOMO_LUMO_gap": 0.18028, 
			 "cosmo_polarized_energy": -15.51, 
			 "cosmo_cavitation_energy": 34.49, 
			 "cosmo_dispersion_energy": -24.52, 
			 "cosmo_repulsion_energy": 1.89, 
			 "cosmo_total_nonelectrostatic_energy": 11.86, 
			 "SMD_solvation_energy": 6.27 
		},
		"coords": [
			{
				"x": 1.2144937363,
				"y": -3.0723221908,
				"z": 2.5565578781,
				"element": "C" 
			},
			{
				"x": 1.5376209083,
				"y": -1.7181667745,
				"z": 1.9204096039,
				"element": "C" 
			},
			{
				"x": 1.7697303546,
				"y": -0.6183555293,
				"z": 2.9593582666,
				"element": "C" 
			},
			{
				"x": 2.7273874825,
				"y": -1.83065121,
				"z": 0.9655545762,
				"element": "C" 
			},
			{
				"x": 0.4332910923,
				"y": -1.318621575,
				"z": 1.0086111617,
				"element": "O" 
			},
			{
				"x": -0.8040282216,
				"y": -1.1168428063,
				"z": 1.4816823178,
				"element": "C" 
			},
			{
				"x": -1.1789578146,
				"y": -1.2210182418,
				"z": 2.6330080172,
				"element": "O" 
			},
			{
				"x": -1.6992433182,
				"y": -0.7504389387,
				"z": 0.4801507636,
				"element": "N" 
			},
			{
				"x": -1.5882864412,
				"y": -0.5510374499,
				"z": -0.8885273039,
				"element": "C" 
			},
			{
				"x": -2.7492349146,
				"y": -0.1949413379,
				"z": -1.4642330333,
				"element": "N" 
			},
			{
				"x": -2.7439938612,
				"y": 0.0195395028,
				"z": -2.7784977247,
				"element": "C" 
			},
			{
				"x": -1.5805852144,
				"y": -0.1181087218,
				"z": -3.5369080942,
				"element": "C" 
			},
			{
				"x": -0.4215316629,
				"y": -0.4738924732,
				"z": -2.9610349677,
				"element": "N" 
			},
			{
				"x": -0.4043850908,
				"y": -0.6928245944,
				"z": -1.6509964113,
				"element": "C" 
			},
			{
				"x": -1.5678250372,
				"y": 0.1220606502,
				"z": -5.0169200104,
				"element": "C" 
			},
			{
				"x": -0.3633049016,
				"y": -0.0556513054,
				"z": -5.586808341,
				"element": "O" 
			},
			{
				"x": -2.5529085708,
				"y": 0.4464622946,
				"z": -5.6410858469,
				"element": "O" 
			},
			{
				"x": 2.0794255731,
				"y": -3.4161571783,
				"z": 3.1324560993,
				"element": "H" 
			},
			{
				"x": 0.3555549402,
				"y": -3.0004069037,
				"z": 3.2238671167,
				"element": "H" 
			},
			{
				"x": 1.0049625594,
				"y": -3.8178080482,
				"z": 1.7831866826,
				"element": "H" 
			},
			{
				"x": 2.6574049078,
				"y": -0.8625389723,
				"z": 3.5513001708,
				"element": "H" 
			},
			{
				"x": 1.9458976318,
				"y": 0.3425711937,
				"z": 2.4660647608,
				"element": "H" 
			},
			{
				"x": 0.9163973581,
				"y": -0.5227476862,
				"z": 3.6308822062,
				"element": "H" 
			},
			{
				"x": 2.9271218262,
				"y": -0.8725354783,
				"z": 0.4767226559,
				"element": "H" 
			},
			{
				"x": 3.6221127858,
				"y": -2.1244009515,
				"z": 1.5216770279,
				"element": "H" 
			},
			{
				"x": 2.539623608,
				"y": -2.5848670019,
				"z": 0.1956687143,
				"element": "H" 
			},
			{
				"x": -2.6368571166,
				"y": -0.596552256,
				"z": 0.8314303634,
				"element": "H" 
			},
			{
				"x": -3.677947817,
				"y": 0.3076195889,
				"z": -3.2517749177,
				"element": "H" 
			},
			{
				"x": 0.531524817,
				"y": -0.9790814128,
				"z": -1.1929706026,
				"element": "H" 
			},
			{
				"x": 0.252740401,
				"y": -0.3118841921,
				"z": -4.8717311291,
				"element": "H" 
			}
		],
		 "valence_orbital": [ 
			{
				"type": "occ",
				"energy": -0.31132,
				"method": "rhf"
			},
			{
				"type": "occ",
				"energy": -0.29985,
				"method": "rhf"
			},
			{
				"type": "occ",
				"energy": -0.2897,
				"method": "rhf"
			},
			{
				"type": "occ",
				"energy": -0.26702,
				"method": "rhf"
			},
			{
				"type": "occ",
				"energy": -0.25871,
				"method": "rhf"
			},
			{
				"type": "unocc",
				"energy": -0.07843,
				"method": "rhf"
			},
			{
				"type": "unocc",
				"energy": -0.05758,
				"method": "rhf"
			},
			{
				"type": "unocc",
				"energy": 0.0171,
				"method": "rhf"
			},
			{
				"type": "unocc",
				"energy": 0.05978,
				"method": "rhf"
			},
			{
				"type": "unocc",
				"energy": 0.0647,
				"method": "rhf"
			}
		],
		"cosmo_sigma_profile": { 
			"-0.025": 0.0,
			"-0.024": 0.0,
			"-0.023": 0.0,
			"-0.022": 0.0,
			"-0.021": 0.0,
			"-0.02": 0.0,
			"-0.019": 0.0,
			"-0.018": 0.0,
			"-0.017": 0.0,
			"-0.016": 0.0,
			"-0.015": 0.383423718278,
			"-0.014": 0.909967722107,
			"-0.013": 1.27581415286,
			"-0.012": 1.07050314073,
			"-0.011": 1.39503963331,
			"-0.01": 1.62812655602,
			"-0.009": 1.76727360777,
			"-0.008": 2.32926208336,
			"-0.007": 2.35980202017,
			"-0.006": 4.34277415759,
			"-0.005": 12.4716711174,
			"-0.004": 27.6236851872,
			"-0.003": 33.2302286229,
			"-0.002": 37.0270156421,
			"-0.001": 28.9367151503,
			"0.0": 30.9391644808,
			"0.001": 14.328590372,
			"0.002": 7.62455304238,
			"0.003": 6.52388818246,
			"0.004": 7.16451248728,
			"0.005": 5.70650554731,
			"0.006": 3.94459767551,
			"0.007": 5.13528153973,
			"0.008": 5.48253173919,
			"0.009": 5.40243516872,
			"0.01": 7.96318852135,
			"0.011": 8.25497578787,
			"0.012": 6.96071270129,
			"0.013": 1.41302878541,
			"0.014": 0.00573782160959,
			"0.015": 0.0,
			"0.016": 0.0,
			"0.017": 0.0,
			"0.018": 0.0,
			"0.019": 0.0,
			"0.02": 0.0,
			"0.021": 0.0,
			"0.022": 0.0,
			"0.023": 0.0,
			"0.024": 0.0,
			"0.025": 0.0
		}
	}
}
