{
	 "smiles": "O=N(=O)C1=CC=C(SC2=CC=CC=C2)C=C1", 
	 "Tm": 329.15, 
	 "num_atms": 25, 
	 "gaussian": { 
		 "optdone": 1, 
		 "sigma_profile": "yes", 
		 "theory": "DFT", 
		 "functional": "B3LYP", 
		 "basiset": "6-31G**", 
		 "properties": { 
			 "R2extent": 5577.4424, 
			 "electric_dipole_moment_norm": 5.93662210099, 
			 "electric_quadrupole_moment_norm": 21.1629085725, 
			 "total_energy": -1065.98612416, 
			 "HOMO_LUMO_gap": 0.1517, 
			 "cosmo_polarized_energy": -9.91, 
			 "cosmo_cavitation_energy": 32.05, 
			 "cosmo_dispersion_energy": -23.39, 
			 "cosmo_repulsion_energy": 1.77, 
			 "cosmo_total_nonelectrostatic_energy": 10.43, 
			 "SMD_solvation_energy": 7.28 
		},
		"coords": [
			{
				"x": -2.3234975745,
				"y": 0.6974778443,
				"z": -3.8516734714,
				"element": "O" 
			},
			{
				"x": -2.5170133998,
				"y": 0.0709069432,
				"z": -2.8083527891,
				"element": "N" 
			},
			{
				"x": -3.4699006746,
				"y": -0.6860844909,
				"z": -2.6143449239,
				"element": "O" 
			},
			{
				"x": -1.5474316215,
				"y": 0.237679804,
				"z": -1.724363988,
				"element": "C" 
			},
			{
				"x": -0.4558904086,
				"y": 1.0876632249,
				"z": -1.9104074629,
				"element": "C" 
			},
			{
				"x": 0.4600255377,
				"y": 1.2419757134,
				"z": -0.8795028415,
				"element": "C" 
			},
			{
				"x": 0.2902137054,
				"y": 0.5514724455,
				"z": 0.3351722511,
				"element": "C" 
			},
			{
				"x": 1.5339976427,
				"y": 0.8339525868,
				"z": 1.5812575981,
				"element": "S" 
			},
			{
				"x": 1.0115602408,
				"y": -0.1839086229,
				"z": 2.9636354527,
				"element": "C" 
			},
			{
				"x": 1.4843322175,
				"y": -1.4975515908,
				"z": 3.0829628258,
				"element": "C" 
			},
			{
				"x": 1.122750752,
				"y": -2.2676836036,
				"z": 4.1892835002,
				"element": "C" 
			},
			{
				"x": 0.2960863741,
				"y": -1.7296472554,
				"z": 5.1779748545,
				"element": "C" 
			},
			{
				"x": -0.1701478892,
				"y": -0.4183005393,
				"z": 5.0625274374,
				"element": "C" 
			},
			{
				"x": 0.1872720809,
				"y": 0.3576803753,
				"z": 3.9589154909,
				"element": "C" 
			},
			{
				"x": -0.8142004309,
				"y": -0.297856062,
				"z": 0.5008501864,
				"element": "C" 
			},
			{
				"x": -1.7347123874,
				"y": -0.455441868,
				"z": -0.5300309806,
				"element": "C" 
			},
			{
				"x": -0.3424866549,
				"y": 1.610145672,
				"z": -2.8520337704,
				"element": "H" 
			},
			{
				"x": 1.3128940807,
				"y": 1.9006254466,
				"z": -1.0135630788,
				"element": "H" 
			},
			{
				"x": 2.1312656449,
				"y": -1.9070336733,
				"z": 2.3138761883,
				"element": "H" 
			},
			{
				"x": 1.489956157,
				"y": -3.285695463,
				"z": 4.2795788271,
				"element": "H" 
			},
			{
				"x": 0.0187744093,
				"y": -2.3302192949,
				"z": 6.0392811467,
				"element": "H" 
			},
			{
				"x": -0.8094622467,
				"y": 0.0033060967,
				"z": 5.8325032907,
				"element": "H" 
			},
			{
				"x": -0.1664027214,
				"y": 1.3793949159,
				"z": 3.8656093626,
				"element": "H" 
			},
			{
				"x": -0.9555251441,
				"y": -0.8345342714,
				"z": 1.4313834876,
				"element": "H" 
			},
			{
				"x": -2.5940576894,
				"y": -1.105824333,
				"z": -0.4232385937,
				"element": "H" 
			}
		],
		 "valence_orbital": [ 
			{
				"type": "occ",
				"energy": -0.28366,
				"method": "rhf"
			},
			{
				"type": "occ",
				"energy": -0.2783,
				"method": "rhf"
			},
			{
				"type": "occ",
				"energy": -0.27358,
				"method": "rhf"
			},
			{
				"type": "occ",
				"energy": -0.27277,
				"method": "rhf"
			},
			{
				"type": "occ",
				"energy": -0.2348,
				"method": "rhf"
			},
			{
				"type": "unocc",
				"energy": -0.0831,
				"method": "rhf"
			},
			{
				"type": "unocc",
				"energy": -0.03982,
				"method": "rhf"
			},
			{
				"type": "unocc",
				"energy": -0.03013,
				"method": "rhf"
			},
			{
				"type": "unocc",
				"energy": -0.0201,
				"method": "rhf"
			},
			{
				"type": "unocc",
				"energy": 0.00445,
				"method": "rhf"
			}
		],
		"cosmo_sigma_profile": { 
			"-0.025": 0.0,
			"-0.024": 0.0,
			"-0.023": 0.0,
			"-0.022": 0.0,
			"-0.021": 0.0,
			"-0.02": 0.0,
			"-0.019": 0.0,
			"-0.018": 0.0,
			"-0.017": 0.0,
			"-0.016": 0.0,
			"-0.015": 0.0,
			"-0.014": 0.0,
			"-0.013": 0.0,
			"-0.012": 0.0,
			"-0.011": 0.0,
			"-0.01": 0.0,
			"-0.009": 0.0,
			"-0.008": 2.37266080177,
			"-0.007": 8.97411687505,
			"-0.006": 17.8165118318,
			"-0.005": 18.6852015267,
			"-0.004": 17.9851944203,
			"-0.003": 14.2530303447,
			"-0.002": 17.2931245475,
			"-0.001": 23.1729746253,
			"0.0": 22.1779017718,
			"0.001": 25.2392380835,
			"0.002": 26.3080974293,
			"0.003": 14.7763836324,
			"0.004": 14.3086659238,
			"0.005": 6.02327023745,
			"0.006": 5.68264790174,
			"0.007": 5.8204116439,
			"0.008": 9.92617705186,
			"0.009": 4.91896412003,
			"0.01": 3.60900568093,
			"0.011": 0.771176879153,
			"0.012": 0.0,
			"0.013": 0.0,
			"0.014": 0.0,
			"0.015": 0.0,
			"0.016": 0.0,
			"0.017": 0.0,
			"0.018": 0.0,
			"0.019": 0.0,
			"0.02": 0.0,
			"0.021": 0.0,
			"0.022": 0.0,
			"0.023": 0.0,
			"0.024": 0.0,
			"0.025": 0.0
		}
	}
}
