{
	 "smiles": "COC1=CC=C(C=C(CC(O)=O)C2=NC3=C(S2)C=CC=C3)C=C1", 
	 "Tm": 428.15, 
	 "num_atms": 38, 
	 "gaussian": { 
		 "optdone": 1, 
		 "sigma_profile": "yes", 
		 "theory": "DFT", 
		 "functional": "B3LYP", 
		 "basiset": "6-31G**", 
		 "properties": { 
			 "R2extent": 10233.3535, 
			 "electric_dipole_moment_norm": 7.82716717146, 
			 "electric_quadrupole_moment_norm": 41.9853648965, 
			 "total_energy": -1373.56954589, 
			 "HOMO_LUMO_gap": 0.13839, 
			 "cosmo_polarized_energy": -17.36, 
			 "cosmo_cavitation_energy": 43.95, 
			 "cosmo_dispersion_energy": -31.07, 
			 "cosmo_repulsion_energy": 2.32, 
			 "cosmo_total_nonelectrostatic_energy": 15.2, 
			 "SMD_solvation_energy": 7.99 
		},
		"coords": [
			{
				"x": 4.7848970954,
				"y": -2.6758320509,
				"z": -0.7972739204,
				"element": "C" 
			},
			{
				"x": 4.1037759388,
				"y": -1.8121455566,
				"z": 0.101810584,
				"element": "O" 
			},
			{
				"x": 3.0255628092,
				"y": -1.1206710002,
				"z": -0.3549948068,
				"element": "C" 
			},
			{
				"x": 2.5223541614,
				"y": -1.1967975054,
				"z": -1.660502882,
				"element": "C" 
			},
			{
				"x": 1.4128715703,
				"y": -0.4302162211,
				"z": -2.0132051666,
				"element": "C" 
			},
			{
				"x": 0.76074385,
				"y": 0.401088278,
				"z": -1.0881426957,
				"element": "C" 
			},
			{
				"x": -0.3822932459,
				"y": 1.207843347,
				"z": -1.5303662071,
				"element": "C" 
			},
			{
				"x": -1.4966988391,
				"y": 1.5972292771,
				"z": -0.8635807336,
				"element": "C" 
			},
			{
				"x": -2.4376845842,
				"y": 2.6066825275,
				"z": -1.5118042237,
				"element": "C" 
			},
			{
				"x": -2.1987412401,
				"y": 4.0745882826,
				"z": -1.0969620769,
				"element": "C" 
			},
			{
				"x": -2.3346769969,
				"y": 4.3531006861,
				"z": 0.205098018,
				"element": "O" 
			},
			{
				"x": -1.9249721952,
				"y": 4.9273899475,
				"z": -1.9102556512,
				"element": "O" 
			},
			{
				"x": -1.9289067653,
				"y": 1.0968426887,
				"z": 0.4501728551,
				"element": "C" 
			},
			{
				"x": -2.6053778,
				"y": 1.840015793,
				"z": 1.2876828205,
				"element": "N" 
			},
			{
				"x": -3.0304058919,
				"y": 1.1378717588,
				"z": 2.4013560364,
				"element": "C" 
			},
			{
				"x": -2.6770064836,
				"y": -0.2318900413,
				"z": 2.4023523607,
				"element": "C" 
			},
			{
				"x": -1.7803224263,
				"y": -0.6032573544,
				"z": 0.9448961556,
				"element": "S" 
			},
			{
				"x": -3.0351447943,
				"y": -1.0723689119,
				"z": 3.4597738183,
				"element": "C" 
			},
			{
				"x": -3.7563604166,
				"y": -0.5234296006,
				"z": 4.5167634772,
				"element": "C" 
			},
			{
				"x": -4.1123010837,
				"y": 0.8372698069,
				"z": 4.5246510693,
				"element": "C" 
			},
			{
				"x": -3.7552080978,
				"y": 1.6749037375,
				"z": 3.4757507524,
				"element": "C" 
			},
			{
				"x": 1.3019609116,
				"y": 0.4806285409,
				"z": 0.2128233181,
				"element": "C" 
			},
			{
				"x": 2.4108990892,
				"y": -0.2652009954,
				"z": 0.5752810352,
				"element": "C" 
			},
			{
				"x": 5.1970946064,
				"y": -2.1246349434,
				"z": -1.6517607245,
				"element": "H" 
			},
			{
				"x": 4.1281311171,
				"y": -3.4737662273,
				"z": -1.16605503,
				"element": "H" 
			},
			{
				"x": 5.6025474819,
				"y": -3.1183964153,
				"z": -0.2269015877,
				"element": "H" 
			},
			{
				"x": 2.9868476586,
				"y": -1.8342990027,
				"z": -2.40307598,
				"element": "H" 
			},
			{
				"x": 1.0365402258,
				"y": -0.4883307087,
				"z": -3.0312813836,
				"element": "H" 
			},
			{
				"x": -0.3011515843,
				"y": 1.5740576675,
				"z": -2.5536750007,
				"element": "H" 
			},
			{
				"x": -3.4784461622,
				"y": 2.3522790315,
				"z": -1.2788391325,
				"element": "H" 
			},
			{
				"x": -2.3126281206,
				"y": 2.5815439009,
				"z": -2.5951348663,
				"element": "H" 
			},
			{
				"x": -2.5396921991,
				"y": 3.5293980774,
				"z": 0.7178850145,
				"element": "H" 
			},
			{
				"x": -2.7614387727,
				"y": -2.1224157559,
				"z": 3.4593001935,
				"element": "H" 
			},
			{
				"x": -4.0471904558,
				"y": -1.1580117949,
				"z": 5.348361296,
				"element": "H" 
			},
			{
				"x": -4.6733657882,
				"y": 1.2374357534,
				"z": 5.3634059628,
				"element": "H" 
			},
			{
				"x": -4.022545365,
				"y": 2.7265194223,
				"z": 3.4703892518,
				"element": "H" 
			},
			{
				"x": 0.8612717069,
				"y": 1.1597930752,
				"z": 0.9350294394,
				"element": "H" 
			},
			{
				"x": 2.835361086,
				"y": -0.1947175135,
				"z": 1.5712286105,
				"element": "H" 
			}
		],
		 "valence_orbital": [ 
			{
				"type": "occ",
				"energy": -0.26607,
				"method": "rhf"
			},
			{
				"type": "occ",
				"energy": -0.25194,
				"method": "rhf"
			},
			{
				"type": "occ",
				"energy": -0.24678,
				"method": "rhf"
			},
			{
				"type": "occ",
				"energy": -0.24378,
				"method": "rhf"
			},
			{
				"type": "occ",
				"energy": -0.21445,
				"method": "rhf"
			},
			{
				"type": "unocc",
				"energy": -0.07606,
				"method": "rhf"
			},
			{
				"type": "unocc",
				"energy": -0.02267,
				"method": "rhf"
			},
			{
				"type": "unocc",
				"energy": -0.01959,
				"method": "rhf"
			},
			{
				"type": "unocc",
				"energy": -0.01114,
				"method": "rhf"
			},
			{
				"type": "unocc",
				"energy": 0.0048,
				"method": "rhf"
			}
		],
		"cosmo_sigma_profile": { 
			"-0.025": 0.0,
			"-0.024": 0.0,
			"-0.023": 0.0,
			"-0.022": 0.0,
			"-0.021": 0.0,
			"-0.02": 0.0,
			"-0.019": 0.0,
			"-0.018": 0.0,
			"-0.017": 0.0,
			"-0.016": 0.0,
			"-0.015": 0.0,
			"-0.014": 0.0,
			"-0.013": 0.0,
			"-0.012": 0.0,
			"-0.011": 0.0,
			"-0.01": 0.0,
			"-0.009": 0.0,
			"-0.008": 1.0247466431,
			"-0.007": 11.3580525443,
			"-0.006": 29.1290163491,
			"-0.005": 31.0313891174,
			"-0.004": 30.4995588906,
			"-0.003": 27.5092401258,
			"-0.002": 23.9228771569,
			"-0.001": 21.6890022491,
			"0.0": 25.1835459263,
			"0.001": 25.4839824822,
			"0.002": 28.5239959048,
			"0.003": 26.1342196175,
			"0.004": 25.0893275638,
			"0.005": 10.0109559848,
			"0.006": 3.77680517892,
			"0.007": 3.23592142294,
			"0.008": 3.92604008234,
			"0.009": 3.19013895464,
			"0.01": 5.3787323431,
			"0.011": 4.55993625835,
			"0.012": 7.06066844543,
			"0.013": 4.8056036298,
			"0.014": 1.37959631179,
			"0.015": 0.0,
			"0.016": 0.0,
			"0.017": 0.0,
			"0.018": 0.0,
			"0.019": 0.0,
			"0.02": 0.0,
			"0.021": 0.0,
			"0.022": 0.0,
			"0.023": 0.0,
			"0.024": 0.0,
			"0.0": 0.0
		}
	}
}
