{
	 "smiles": "CC(C)(C)OC(=O)NC1=CC=NC=C1I", 
	 "Tm": 354.15, 
	 "num_atms": 28, 
	 "gaussian": { 
		 "optdone": 1, 
		 "sigma_profile": "no", 
		 "theory": "DFT", 
		 "functional": "B3LYP", 
		 "basiset": "6-31G**", 
		 "properties": { 
			 "R2extent": 4043.7236, 
			 "electric_dipole_moment_norm": 3.00485878038, 
			 "electric_quadrupole_moment_norm": 13.1955486718, 
			 "total_energy": -660.268172956, 
			 "HOMO_LUMO_gap": 0.19414, 
			 "cosmo_polarized_energy": -94362.53, 
			 "cosmo_cavitation_energy": 34.11, 
			 "cosmo_dispersion_energy": -25.36, 
			 "cosmo_repulsion_energy": 1.94, 
			 "cosmo_total_nonelectrostatic_energy": 10.7, 
			 "SMD_solvation_energy": 4.61 
		},
		"coords": [
			{
				"x": 1.931050601,
				"y": 1.4794926815,
				"z": -3.0390427683,
				"element": "C" 
			},
			{
				"x": 0.5665559508,
				"y": 0.815348074,
				"z": -2.8376260121,
				"element": "C" 
			},
			{
				"x": 0.5778954737,
				"y": -0.6246860388,
				"z": -3.3545066536,
				"element": "C" 
			},
			{
				"x": -0.5764223522,
				"y": 1.6141604326,
				"z": -3.4692600581,
				"element": "C" 
			},
			{
				"x": 0.307995127,
				"y": 0.6316419752,
				"z": -1.3875591231,
				"element": "O" 
			},
			{
				"x": 0.2243242155,
				"y": 1.6897304676,
				"z": -0.5700114403,
				"element": "C" 
			},
			{
				"x": 0.3394345793,
				"y": 2.8616322325,
				"z": -0.8781167038,
				"element": "O" 
			},
			{
				"x": -0.0214990674,
				"y": 1.3418574055,
				"z": 0.7551068274,
				"element": "N" 
			},
			{
				"x": -0.1992532247,
				"y": 0.1342906219,
				"z": 1.4217197052,
				"element": "C" 
			},
			{
				"x": -0.157967847,
				"y": -1.1317996251,
				"z": 0.8083546903,
				"element": "C" 
			},
			{
				"x": -0.3503784855,
				"y": -2.2699161902,
				"z": 1.5815836311,
				"element": "C" 
			},
			{
				"x": -0.5787401463,
				"y": -2.2671037306,
				"z": 2.9007112926,
				"element": "N" 
			},
			{
				"x": -0.6200138013,
				"y": -1.0712478169,
				"z": 3.4936257328,
				"element": "C" 
			},
			{
				"x": -0.4405501442,
				"y": 0.1334845295,
				"z": 2.8145252498,
				"element": "C" 
			},
			{
				"x": -0.5441918558,
				"y": 1.9303932833,
				"z": 3.9444730075,
				"element": "I" 
			},
			{
				"x": 2.1674889136,
				"y": 1.5037431626,
				"z": -4.1075606788,
				"element": "H" 
			},
			{
				"x": 2.7132497076,
				"y": 0.906195311,
				"z": -2.531773393,
				"element": "H" 
			},
			{
				"x": 1.933173232,
				"y": 2.5001025806,
				"z": -2.6561935683,
				"element": "H" 
			},
			{
				"x": 0.7622525241,
				"y": -0.6309593221,
				"z": -4.4326256087,
				"element": "H" 
			},
			{
				"x": -0.3831952813,
				"y": -1.1127791678,
				"z": -3.1677178797,
				"element": "H" 
			},
			{
				"x": 1.3662697023,
				"y": -1.2066154837,
				"z": -2.8680431581,
				"element": "H" 
			},
			{
				"x": -1.5379630989,
				"y": 1.1347775261,
				"z": -3.260805819,
				"element": "H" 
			},
			{
				"x": -0.5991168167,
				"y": 2.6362054038,
				"z": -3.0909659509,
				"element": "H" 
			},
			{
				"x": -0.4405754032,
				"y": 1.6434357674,
				"z": -4.5550373796,
				"element": "H" 
			},
			{
				"x": -0.0764508977,
				"y": 2.1748214119,
				"z": 1.3293558294,
				"element": "H" 
			},
			{
				"x": 0.0218025563,
				"y": -1.212878034,
				"z": -0.2524585535,
				"element": "H" 
			},
			{
				"x": -0.3178347542,
				"y": -3.2474253132,
				"z": 1.1041133062,
				"element": "H" 
			},
			{
				"x": -0.8051394067,
				"y": -1.0632021447,
				"z": 4.5648354765,
				"element": "H" 
			}
		],
		 "valence_orbital": [ 
			{
				"type": "occ",
				"energy": -0.28777,
				"method": "rhf"
			},
			{
				"type": "occ",
				"energy": -0.28573,
				"method": "rhf"
			},
			{
				"type": "occ",
				"energy": -0.26249,
				"method": "rhf"
			},
			{
				"type": "occ",
				"energy": -0.25916,
				"method": "rhf"
			},
			{
				"type": "occ",
				"energy": -0.24341,
				"method": "rhf"
			},
			{
				"type": "unocc",
				"energy": -0.04927,
				"method": "rhf"
			},
			{
				"type": "unocc",
				"energy": -0.03318,
				"method": "rhf"
			},
			{
				"type": "unocc",
				"energy": -0.02401,
				"method": "rhf"
			},
			{
				"type": "unocc",
				"energy": 0.03983,
				"method": "rhf"
			},
			{
				"type": "unocc",
				"energy": 0.04166,
				"method": "rhf"
			}
		],
		"cosmo_sigma_profile": { 
			"0.0": 0.0,
			"0.0": 0.0,
			"0.0": 0.0,
			"0.0": 0.0,
			"0.0": 0.0,
			"0.0": 0.0,
			"0.0": 0.0,
			"0.0": 0.0,
			"0.0": 0.0,
			"0.0": 0.0,
			"0.0": 0.0,
			"0.0": 0.0,
			"0.0": 0.0,
			"0.0": 0.0,
			"0.0": 0.0,
			"0.0": 0.0,
			"0.0": 0.0,
			"0.0": 0.0,
			"0.0": 0.0,
			"0.0": 0.0,
			"0.0": 0.0,
			"0.0": 0.0,
			"0.0": 0.0,
			"0.0": 0.0,
			"0.0": 0.0,
			"0.0": 0.0,
			"0.0": 0.0,
			"0.0": 0.0,
			"0.0": 0.0,
			"0.0": 0.0,
			"0.0": 0.0,
			"0.0": 0.0,
			"0.0": 0.0,
			"0.0": 0.0,
			"0.0": 0.0,
			"0.0": 0.0,
			"0.0": 0.0,
			"0.0": 0.0,
			"0.0": 0.0,
			"0.0": 0.0,
			"0.0": 0.0,
			"0.0": 0.0,
			"0.0": 0.0,
			"0.0": 0.0,
			"0.0": 0.0,
			"0.0": 0.0,
			"0.0": 0.0,
			"0.0": 0.0,
			"0.0": 0.0,
			"0.0": 0.0,
			"0.0": 0.0
		}
	}
}
