{
	 "smiles": "CN1C(C2=CC=C(Cl)C=C2)S(=O)(=O)CCC1=O", 
	 "Tm": 389.15, 
	 "num_atms": 29, 
	 "gaussian": { 
		 "optdone": 1, 
		 "sigma_profile": "yes", 
		 "theory": "DFT", 
		 "functional": "B3LYP", 
		 "basiset": "6-31G**", 
		 "properties": { 
			 "R2extent": 6945.8025, 
			 "electric_dipole_moment_norm": 1.92794221127, 
			 "electric_quadrupole_moment_norm": 21.4956952328, 
			 "total_energy": -1565.14836804, 
			 "HOMO_LUMO_gap": 0.21411, 
			 "cosmo_polarized_energy": -19.55, 
			 "cosmo_cavitation_energy": 34.31, 
			 "cosmo_dispersion_energy": -24.94, 
			 "cosmo_repulsion_energy": 1.88, 
			 "cosmo_total_nonelectrostatic_energy": 11.25, 
			 "SMD_solvation_energy": 5.12 
		},
		"coords": [
			{
				"x": 0.1214233199,
				"y": -1.8333427517,
				"z": -1.279801574,
				"element": "C" 
			},
			{
				"x": 0.0359161181,
				"y": -0.648361303,
				"z": -0.4214251076,
				"element": "N" 
			},
			{
				"x": -0.731243921,
				"y": -0.840090749,
				"z": 0.7980902367,
				"element": "C" 
			},
			{
				"x": -2.2383037488,
				"y": -0.7517432538,
				"z": 0.6317329476,
				"element": "C" 
			},
			{
				"x": -2.817595729,
				"y": -0.1132361944,
				"z": -0.4717011542,
				"element": "C" 
			},
			{
				"x": -4.2040684187,
				"y": -0.0374221404,
				"z": -0.6088089918,
				"element": "C" 
			},
			{
				"x": -5.016127385,
				"y": -0.6059506337,
				"z": 0.3704831462,
				"element": "C" 
			},
			{
				"x": -6.7604673799,
				"y": -0.5185655552,
				"z": 0.204787425,
				"element": "Cl" 
			},
			{
				"x": -4.4621717692,
				"y": -1.2505862509,
				"z": 1.4776363933,
				"element": "C" 
			},
			{
				"x": -3.0774175858,
				"y": -1.3223745726,
				"z": 1.600062469,
				"element": "C" 
			},
			{
				"x": -0.1034315069,
				"y": 0.2931622638,
				"z": 2.1390417887,
				"element": "S" 
			},
			{
				"x": -1.0440734614,
				"y": 0.2475408149,
				"z": 3.2670999379,
				"element": "O" 
			},
			{
				"x": 1.3230388473,
				"y": -0.0058960306,
				"z": 2.3369557527,
				"element": "O" 
			},
			{
				"x": -0.2564257696,
				"y": 1.8521739443,
				"z": 1.2496216816,
				"element": "C" 
			},
			{
				"x": 0.6161279241,
				"y": 1.7809889306,
				"z": -0.0037499225,
				"element": "C" 
			},
			{
				"x": 0.5281759475,
				"y": 0.5502296259,
				"z": -0.9138385372,
				"element": "C" 
			},
			{
				"x": 0.9861141362,
				"y": 0.6358091137,
				"z": -2.0450952743,
				"element": "O" 
			},
			{
				"x": -0.8738772424,
				"y": -2.1548419729,
				"z": -1.606020612,
				"element": "H" 
			},
			{
				"x": 0.5977097558,
				"y": -2.6514331671,
				"z": -0.729311505,
				"element": "H" 
			},
			{
				"x": 0.7198247886,
				"y": -1.574476058,
				"z": -2.1508647353,
				"element": "H" 
			},
			{
				"x": -0.464342722,
				"y": -1.818751835,
				"z": 1.2155765253,
				"element": "H" 
			},
			{
				"x": -2.1885448319,
				"y": 0.3134269351,
				"z": -1.2465203908,
				"element": "H" 
			},
			{
				"x": -4.64800149,
				"y": 0.4519067015,
				"z": -1.4684758938,
				"element": "H" 
			},
			{
				"x": -5.1068437346,
				"y": -1.690183114,
				"z": 2.2303038557,
				"element": "H" 
			},
			{
				"x": -2.6460394342,
				"y": -1.8117443325,
				"z": 2.4671165748,
				"element": "H" 
			},
			{
				"x": 0.0614092393,
				"y": 2.6454786571,
				"z": 1.9315135638,
				"element": "H" 
			},
			{
				"x": -1.3207856535,
				"y": 1.9772413707,
				"z": 1.0341061793,
				"element": "H" 
			},
			{
				"x": 0.4254868076,
				"y": 2.6454821458,
				"z": -0.6444648971,
				"element": "H" 
			},
			{
				"x": 1.6688348994,
				"y": 1.8337594114,
				"z": 0.2939501181,
				"element": "H" 
			}
		],
		 "valence_orbital": [ 
			{
				"type": "occ",
				"energy": -0.3041,
				"method": "rhf"
			},
			{
				"type": "occ",
				"energy": -0.2803,
				"method": "rhf"
			},
			{
				"type": "occ",
				"energy": -0.26861,
				"method": "rhf"
			},
			{
				"type": "occ",
				"energy": -0.26419,
				"method": "rhf"
			},
			{
				"type": "occ",
				"energy": -0.25744,
				"method": "rhf"
			},
			{
				"type": "unocc",
				"energy": -0.04333,
				"method": "rhf"
			},
			{
				"type": "unocc",
				"energy": -0.03299,
				"method": "rhf"
			},
			{
				"type": "unocc",
				"energy": 0.00089,
				"method": "rhf"
			},
			{
				"type": "unocc",
				"energy": 0.01837,
				"method": "rhf"
			},
			{
				"type": "unocc",
				"energy": 0.04804,
				"method": "rhf"
			}
		],
		"cosmo_sigma_profile": { 
			"-0.025": 0.0,
			"-0.024": 0.0,
			"-0.023": 0.0,
			"-0.022": 0.0,
			"-0.021": 0.0,
			"-0.02": 0.0,
			"-0.019": 0.0,
			"-0.018": 0.0,
			"-0.017": 0.0,
			"-0.016": 0.0,
			"-0.015": 0.0,
			"-0.014": 0.0,
			"-0.013": 0.0,
			"-0.012": 0.0248609162987,
			"-0.011": 0.989226965863,
			"-0.01": 4.2688467166,
			"-0.009": 5.67458300107,
			"-0.008": 9.21574644769,
			"-0.007": 18.712516027,
			"-0.006": 19.8912412009,
			"-0.005": 18.4787458788,
			"-0.004": 17.8549819102,
			"-0.003": 15.8235975902,
			"-0.002": 15.6607601753,
			"-0.001": 11.9207243161,
			"0.0": 13.4882752009,
			"0.001": 18.5926608717,
			"0.002": 18.0781274874,
			"0.003": 15.3129199745,
			"0.004": 14.0145228708,
			"0.005": 8.10515428402,
			"0.006": 3.87215864898,
			"0.007": 4.60979202436,
			"0.008": 4.1978434979,
			"0.009": 4.74719762736,
			"0.01": 9.43047695957,
			"0.011": 10.9299538125,
			"0.012": 5.7125624374,
			"0.013": 4.13517953658,
			"0.014": 1.15538898015,
			"0.015": 0.00752467788184,
			"0.016": 0.0,
			"0.017": 0.0,
			"0.018": 0.0,
			"0.019": 0.0,
			"0.02": 0.0,
			"0.021": 0.0,
			"0.022": 0.0,
			"0.023": 0.0,
			"0.024": 0.0,
			"0.025": 0.0
		}
	}
}
