{
	 "smiles": "CC(C)(C)NC(=O)C1=C(C=CC=C1)C(O)=O", 
	 "Tm": 420.15, 
	 "num_atms": 31, 
	 "gaussian": { 
		 "optdone": 1, 
		 "sigma_profile": "yes", 
		 "theory": "DFT", 
		 "functional": "B3LYP", 
		 "basiset": "6-31G**", 
		 "properties": { 
			 "R2extent": 4498.7729, 
			 "electric_dipole_moment_norm": 7.11057023663, 
			 "electric_quadrupole_moment_norm": 23.0051497993, 
			 "total_energy": -746.777192247, 
			 "HOMO_LUMO_gap": 0.20011, 
			 "cosmo_polarized_energy": -16.71, 
			 "cosmo_cavitation_energy": 33.07, 
			 "cosmo_dispersion_energy": -22.87, 
			 "cosmo_repulsion_energy": 1.77, 
			 "cosmo_total_nonelectrostatic_energy": 11.96, 
			 "SMD_solvation_energy": 7.06 
		},
		"coords": [
			{
				"x": -0.5130045338,
				"y": -1.2303352731,
				"z": 0.1397462421,
				"element": "C" 
			},
			{
				"x": -0.9584738124,
				"y": -0.3321071148,
				"z": 1.3054726151,
				"element": "C" 
			},
			{
				"x": 0.2477614593,
				"y": 0.0816683573,
				"z": 2.1687036362,
				"element": "C" 
			},
			{
				"x": -1.9634474524,
				"y": -1.1074386591,
				"z": 2.179966951,
				"element": "C" 
			},
			{
				"x": -1.7124238828,
				"y": 0.8681513954,
				"z": 0.829026535,
				"element": "N" 
			},
			{
				"x": -1.7031536813,
				"y": 1.593367859,
				"z": -0.3194118296,
				"element": "C" 
			},
			{
				"x": -2.6940809593,
				"y": 2.2858228669,
				"z": -0.6120206709,
				"element": "O" 
			},
			{
				"x": -0.4815218111,
				"y": 1.6435922434,
				"z": -1.1951930831,
				"element": "C" 
			},
			{
				"x": -0.5081573677,
				"y": 1.3257681805,
				"z": -2.5722339499,
				"element": "C" 
			},
			{
				"x": 0.6761666763,
				"y": 1.4467190488,
				"z": -3.3125079179,
				"element": "C" 
			},
			{
				"x": 1.8459685474,
				"y": 1.9370606812,
				"z": -2.7386293294,
				"element": "C" 
			},
			{
				"x": 1.8552624813,
				"y": 2.3008355247,
				"z": -1.392136657,
				"element": "C" 
			},
			{
				"x": 0.701061686,
				"y": 2.1407712603,
				"z": -0.6276313268,
				"element": "C" 
			},
			{
				"x": -1.6969236623,
				"y": 0.7988932417,
				"z": -3.3575488797,
				"element": "C" 
			},
			{
				"x": -2.9236957951,
				"y": 1.1773795387,
				"z": -2.9886773684,
				"element": "O" 
			},
			{
				"x": -1.5257131014,
				"y": 0.0788851967,
				"z": -4.3198317473,
				"element": "O" 
			},
			{
				"x": -0.0876136722,
				"y": -2.1542317912,
				"z": 0.5435730765,
				"element": "H" 
			},
			{
				"x": -1.3620303916,
				"y": -1.4976005618,
				"z": -0.4966979108,
				"element": "H" 
			},
			{
				"x": 0.2495206551,
				"y": -0.7575688466,
				"z": -0.4805977878,
				"element": "H" 
			},
			{
				"x": -0.0613258237,
				"y": 0.7609023016,
				"z": 2.9693357594,
				"element": "H" 
			},
			{
				"x": 1.0158852621,
				"y": 0.5762357519,
				"z": 1.5709661507,
				"element": "H" 
			},
			{
				"x": 0.7006434931,
				"y": -0.8030869788,
				"z": 2.6276244857,
				"element": "H" 
			},
			{
				"x": -1.490116777,
				"y": -2.0011767663,
				"z": 2.5948376925,
				"element": "H" 
			},
			{
				"x": -2.8326917733,
				"y": -1.4220283031,
				"z": 1.5938577037,
				"element": "H" 
			},
			{
				"x": -2.3113821721,
				"y": -0.4949341046,
				"z": 3.0199028226,
				"element": "H" 
			},
			{
				"x": -2.5857895431,
				"y": 1.0303538782,
				"z": 1.319282172,
				"element": "H" 
			},
			{
				"x": 0.6478383492,
				"y": 1.1473510945,
				"z": -4.3541815667,
				"element": "H" 
			},
			{
				"x": 2.7432335462,
				"y": 2.0401400995,
				"z": -3.3413578226,
				"element": "H" 
			},
			{
				"x": 2.7542978102,
				"y": 2.7039972194,
				"z": -0.9355712471,
				"element": "H" 
			},
			{
				"x": 0.7029721045,
				"y": 2.426803508,
				"z": 0.4185311454,
				"element": "H" 
			},
			{
				"x": -2.908365858,
				"y": 1.7913091519,
				"z": -2.2137978934,
				"element": "H" 
			}
		],
		 "valence_orbital": [ 
			{
				"type": "occ",
				"energy": -0.28549,
				"method": "rhf"
			},
			{
				"type": "occ",
				"energy": -0.27629,
				"method": "rhf"
			},
			{
				"type": "occ",
				"energy": -0.27236,
				"method": "rhf"
			},
			{
				"type": "occ",
				"energy": -0.26274,
				"method": "rhf"
			},
			{
				"type": "occ",
				"energy": -0.25264,
				"method": "rhf"
			},
			{
				"type": "unocc",
				"energy": -0.05253,
				"method": "rhf"
			},
			{
				"type": "unocc",
				"energy": -0.03217,
				"method": "rhf"
			},
			{
				"type": "unocc",
				"energy": 0.00813,
				"method": "rhf"
			},
			{
				"type": "unocc",
				"energy": 0.04965,
				"method": "rhf"
			},
			{
				"type": "unocc",
				"energy": 0.05966,
				"method": "rhf"
			}
		],
		"cosmo_sigma_profile": { 
			"-0.025": 0.0,
			"-0.024": 0.0,
			"-0.023": 0.0,
			"-0.022": 0.0,
			"-0.021": 0.0,
			"-0.02": 0.0,
			"-0.019": 0.0,
			"-0.018": 0.0,
			"-0.017": 0.0,
			"-0.016": 0.0,
			"-0.015": 0.0,
			"-0.014": 0.0,
			"-0.013": 0.423896577273,
			"-0.012": 0.697311230103,
			"-0.011": 1.1090281195,
			"-0.01": 0.857281321973,
			"-0.009": 1.18492290897,
			"-0.008": 1.37116417337,
			"-0.007": 6.55156520527,
			"-0.006": 10.8417850436,
			"-0.005": 16.5717687445,
			"-0.004": 27.0517657586,
			"-0.003": 26.2475979634,
			"-0.002": 25.7898540117,
			"-0.001": 25.6711375664,
			"0.0": 28.5014171855,
			"0.001": 17.5286488706,
			"0.002": 13.0901047889,
			"0.003": 10.4966896618,
			"0.004": 3.2628317548,
			"0.005": 3.16654081448,
			"0.006": 4.03398404597,
			"0.007": 3.56437271977,
			"0.008": 3.1968514484,
			"0.009": 4.89607686957,
			"0.01": 4.17391667535,
			"0.011": 7.13565410849,
			"0.012": 9.15066549937,
			"0.013": 3.48893618721,
			"0.014": 0.841680743263,
			"0.015": 0.0,
			"0.016": 0.0,
			"0.017": 0.0,
			"0.018": 0.0,
			"0.019": 0.0,
			"0.02": 0.0,
			"0.021": 0.0,
			"0.022": 0.0,
			"0.023": 0.0,
			"0.024": 0.0,
			"0.025": 0.0
		}
	}
}
