{
	 "smiles": "NC1=CC=NN1CCC1=CC=CC=C1", 
	 "Tm": 341.15, 
	 "num_atms": 27, 
	 "gaussian": { 
		 "optdone": 1, 
		 "sigma_profile": "yes", 
		 "theory": "DFT", 
		 "functional": "B3LYP", 
		 "basiset": "6-31G**", 
		 "properties": { 
			 "R2extent": 3449.1343, 
			 "electric_dipole_moment_norm": 3.33762569951, 
			 "electric_quadrupole_moment_norm": 13.8423971519, 
			 "total_energy": -591.238559565, 
			 "HOMO_LUMO_gap": 0.20966, 
			 "cosmo_polarized_energy": -15.66, 
			 "cosmo_cavitation_energy": 30.53, 
			 "cosmo_dispersion_energy": -21.13, 
			 "cosmo_repulsion_energy": 1.68, 
			 "cosmo_total_nonelectrostatic_energy": 11.07, 
			 "SMD_solvation_energy": 4.34 
		},
		"coords": [
			{
				"x": 1.5131315523,
				"y": -3.3370563542,
				"z": -1.112075197,
				"element": "N" 
			},
			{
				"x": 0.4889445589,
				"y": -2.4346981355,
				"z": -1.435285179,
				"element": "C" 
			},
			{
				"x": -0.7032265493,
				"y": -2.601268311,
				"z": -2.123339103,
				"element": "C" 
			},
			{
				"x": -1.3304588298,
				"y": -1.3375301365,
				"z": -2.041045788,
				"element": "C" 
			},
			{
				"x": -0.6029355586,
				"y": -0.452169386,
				"z": -1.3702034267,
				"element": "N" 
			},
			{
				"x": 0.5125700575,
				"y": -1.1440054085,
				"z": -0.991824146,
				"element": "N" 
			},
			{
				"x": 1.5212862461,
				"y": -0.4987158908,
				"z": -0.1685217875,
				"element": "C" 
			},
			{
				"x": 1.5471402161,
				"y": -0.9910875396,
				"z": 1.2961391983,
				"element": "C" 
			},
			{
				"x": 0.3051358949,
				"y": -0.6448076228,
				"z": 2.087715609,
				"element": "C" 
			},
			{
				"x": -0.8061606003,
				"y": -1.4982433951,
				"z": 2.0936390043,
				"element": "C" 
			},
			{
				"x": -1.9571344391,
				"y": -1.1668151158,
				"z": 2.8092546353,
				"element": "C" 
			},
			{
				"x": -2.0149078129,
				"y": 0.0248531362,
				"z": 3.5340395091,
				"element": "C" 
			},
			{
				"x": -0.913847476,
				"y": 0.882896318,
				"z": 3.5376360555,
				"element": "C" 
			},
			{
				"x": 0.2348637881,
				"y": 0.5480211718,
				"z": 2.8199315297,
				"element": "C" 
			},
			{
				"x": 1.3779242698,
				"y": -4.2278759468,
				"z": -1.5742593402,
				"element": "H" 
			},
			{
				"x": 2.4410276409,
				"y": -2.9868864812,
				"z": -1.3306457239,
				"element": "H" 
			},
			{
				"x": -1.0506364268,
				"y": -3.4958977835,
				"z": -2.6191087535,
				"element": "H" 
			},
			{
				"x": -2.2828287629,
				"y": -1.037128598,
				"z": -2.4584606792,
				"element": "H" 
			},
			{
				"x": 2.5102865936,
				"y": -0.653026175,
				"z": -0.6204975518,
				"element": "H" 
			},
			{
				"x": 1.29841966,
				"y": 0.56880088,
				"z": -0.2160715708,
				"element": "H" 
			},
			{
				"x": 2.4267134204,
				"y": -0.5387482958,
				"z": 1.7704997455,
				"element": "H" 
			},
			{
				"x": 1.706882176,
				"y": -2.0743679305,
				"z": 1.2928250974,
				"element": "H" 
			},
			{
				"x": -0.7685816269,
				"y": -2.4271961569,
				"z": 1.5311013299,
				"element": "H" 
			},
			{
				"x": -2.8090735005,
				"y": -1.841066977,
				"z": 2.8014456474,
				"element": "H" 
			},
			{
				"x": -2.9097448241,
				"y": 0.2816910643,
				"z": 4.0938910459,
				"element": "H" 
			},
			{
				"x": -0.9470969135,
				"y": 1.8107286947,
				"z": 4.1021231944,
				"element": "H" 
			},
			{
				"x": 1.0910072463,
				"y": 1.2193003757,
				"z": 2.8317966449,
				"element": "H" 
			}
		],
		 "valence_orbital": [ 
			{
				"type": "occ",
				"energy": -0.27008,
				"method": "rhf"
			},
			{
				"type": "occ",
				"energy": -0.24082,
				"method": "rhf"
			},
			{
				"type": "occ",
				"energy": -0.23841,
				"method": "rhf"
			},
			{
				"type": "occ",
				"energy": -0.2286,
				"method": "rhf"
			},
			{
				"type": "occ",
				"energy": -0.20312,
				"method": "rhf"
			},
			{
				"type": "unocc",
				"energy": 0.00654,
				"method": "rhf"
			},
			{
				"type": "unocc",
				"energy": 0.00886,
				"method": "rhf"
			},
			{
				"type": "unocc",
				"energy": 0.04098,
				"method": "rhf"
			},
			{
				"type": "unocc",
				"energy": 0.06042,
				"method": "rhf"
			},
			{
				"type": "unocc",
				"energy": 0.08968,
				"method": "rhf"
			}
		],
		"cosmo_sigma_profile": { 
			"-0.025": 0.0,
			"-0.024": 0.0,
			"-0.023": 0.0,
			"-0.022": 0.0,
			"-0.021": 0.0,
			"-0.02": 0.0,
			"-0.019": 0.0,
			"-0.018": 0.0,
			"-0.017": 0.0,
			"-0.016": 0.0,
			"-0.015": 0.0,
			"-0.014": 0.0,
			"-0.013": 1.24589050999,
			"-0.012": 3.63341289577,
			"-0.011": 3.22337976194,
			"-0.01": 3.51710243696,
			"-0.009": 3.02764734646,
			"-0.008": 2.75732024689,
			"-0.007": 2.90555117575,
			"-0.006": 7.4784135915,
			"-0.005": 18.6403152335,
			"-0.004": 22.1995654657,
			"-0.003": 21.6904772551,
			"-0.002": 17.5643780932,
			"-0.001": 16.346421797,
			"0.0": 14.2850382337,
			"0.001": 11.0767975199,
			"0.002": 12.0800785123,
			"0.003": 12.4756489633,
			"0.004": 12.5720688149,
			"0.005": 13.2406060798,
			"0.006": 14.7571169436,
			"0.007": 8.40771158059,
			"0.008": 4.05217243012,
			"0.009": 2.84252854632,
			"0.01": 2.73966722688,
			"0.011": 2.23357312324,
			"0.012": 1.96082372768,
			"0.013": 1.43203366956,
			"0.014": 0.671545479694,
			"0.015": 1.28491590743,
			"0.016": 1.10441918612,
			"0.017": 0.403142888098,
			"0.018": 0.0,
			"0.019": 0.0,
			"0.02": 0.0,
			"0.021": 0.0,
			"0.022": 0.0,
			"0.023": 0.0,
			"0.024": 0.0,
			"0.025": 0.0
		}
	}
}
