{
	 "smiles": "FC1=CC=CC(F)=C1C(=O)NC(=O)NC1=CC(=CC(=C1Cl)C(F)(F)F)C(F)(F)F", 
	 "Tm": 446.15, 
	 "num_atms": 36, 
	 "gaussian": { 
		 "optdone": 1, 
		 "sigma_profile": "yes", 
		 "theory": "DFT", 
		 "functional": "B3LYP", 
		 "basiset": "6-31G**", 
		 "properties": { 
			 "R2extent": 12472.369, 
			 "electric_dipole_moment_norm": 5.07149400769, 
			 "electric_quadrupole_moment_norm": 19.3004282284, 
			 "total_energy": -2132.80557004, 
			 "HOMO_LUMO_gap": 0.18329, 
			 "cosmo_polarized_energy": -16.98, 
			 "cosmo_cavitation_energy": 47.0, 
			 "cosmo_dispersion_energy": -30.84, 
			 "cosmo_repulsion_energy": 2.16, 
			 "cosmo_total_nonelectrostatic_energy": 18.31, 
			 "SMD_solvation_energy": 12.2 
		},
		"coords": [
			{
				"x": -0.8751427185,
				"y": -2.226479935,
				"z": 1.8864305293,
				"element": "F" 
			},
			{
				"x": 0.4105268907,
				"y": -2.4775281344,
				"z": 2.2178811773,
				"element": "C" 
			},
			{
				"x": 0.785997882,
				"y": -3.794974594,
				"z": 2.4422178898,
				"element": "C" 
			},
			{
				"x": 2.1136092145,
				"y": -4.0592989856,
				"z": 2.7793847326,
				"element": "C" 
			},
			{
				"x": 3.0440388027,
				"y": -3.0249703039,
				"z": 2.8841015528,
				"element": "C" 
			},
			{
				"x": 2.6287485684,
				"y": -1.7224386587,
				"z": 2.6376892141,
				"element": "C" 
			},
			{
				"x": 3.5219577985,
				"y": -0.7316447789,
				"z": 2.7518790476,
				"element": "F" 
			},
			{
				"x": 1.3037148195,
				"y": -1.4022963714,
				"z": 2.3072144405,
				"element": "C" 
			},
			{
				"x": 0.923331465,
				"y": 0.0098294749,
				"z": 1.9598167539,
				"element": "C" 
			},
			{
				"x": 1.5919558051,
				"y": 0.7053126027,
				"z": 1.2225879764,
				"element": "O" 
			},
			{
				"x": -0.2735116689,
				"y": 0.4314591125,
				"z": 2.5442555099,
				"element": "N" 
			},
			{
				"x": -0.8391633035,
				"y": 1.7253828275,
				"z": 2.5064524073,
				"element": "C" 
			},
			{
				"x": -1.3312209005,
				"y": 2.2064776393,
				"z": 3.5115660248,
				"element": "O" 
			},
			{
				"x": -0.8352282177,
				"y": 2.4064129167,
				"z": 1.307265589,
				"element": "N" 
			},
			{
				"x": -0.7419706888,
				"y": 1.9656671336,
				"z": -0.0184119129,
				"element": "C" 
			},
			{
				"x": -1.0539372639,
				"y": 0.6534308776,
				"z": -0.3954268823,
				"element": "C" 
			},
			{
				"x": -0.9583516029,
				"y": 0.2592395431,
				"z": -1.72369506,
				"element": "C" 
			},
			{
				"x": -0.5932178118,
				"y": 1.1692490602,
				"z": -2.7134070681,
				"element": "C" 
			},
			{
				"x": -0.3164061632,
				"y": 2.4911490477,
				"z": -2.3691182593,
				"element": "C" 
			},
			{
				"x": -0.3860685398,
				"y": 2.8857776317,
				"z": -1.0249638846,
				"element": "C" 
			},
			{
				"x": -0.039873229,
				"y": 4.5358330458,
				"z": -0.5539479625,
				"element": "Cl" 
			},
			{
				"x": 0.0642404947,
				"y": 3.4645538979,
				"z": -3.4664017076,
				"element": "C" 
			},
			{
				"x": -0.8089544892,
				"y": 4.488781874,
				"z": -3.5471826884,
				"element": "F" 
			},
			{
				"x": 0.0765917401,
				"y": 2.8570741188,
				"z": -4.672263411,
				"element": "F" 
			},
			{
				"x": 1.2899981115,
				"y": 3.9873648665,
				"z": -3.2722691778,
				"element": "F" 
			},
			{
				"x": -1.3226261582,
				"y": -1.1553941039,
				"z": -2.0947796924,
				"element": "C" 
			},
			{
				"x": -0.7077365905,
				"y": -1.5489673407,
				"z": -3.2289323598,
				"element": "F" 
			},
			{
				"x": -0.9845543931,
				"y": -2.0274722385,
				"z": -1.118721754,
				"element": "F" 
			},
			{
				"x": -2.652842515,
				"y": -1.2872720942,
				"z": -2.2959698023,
				"element": "F" 
			},
			{
				"x": 0.0474146918,
				"y": -4.5819031469,
				"z": 2.344562545,
				"element": "H" 
			},
			{
				"x": 2.4264277982,
				"y": -5.0822613255,
				"z": 2.9617217812,
				"element": "H" 
			},
			{
				"x": 4.0787086065,
				"y": -3.2071251922,
				"z": 3.1500594793,
				"element": "H" 
			},
			{
				"x": -0.5884259321,
				"y": -0.0795226361,
				"z": 3.3594616011,
				"element": "H" 
			},
			{
				"x": -1.0624012104,
				"y": 3.3840022604,
				"z": 1.4398037275,
				"element": "H" 
			},
			{
				"x": -1.3534180261,
				"y": -0.0649277531,
				"z": 0.3561278963,
				"element": "H" 
			},
			{
				"x": -0.5196112661,
				"y": 0.8582796622,
				"z": -3.7464882526,
				"element": "H" 
			}
		],
		 "valence_orbital": [ 
			{
				"type": "occ",
				"energy": -0.28704,
				"method": "rhf"
			},
			{
				"type": "occ",
				"energy": -0.28229,
				"method": "rhf"
			},
			{
				"type": "occ",
				"energy": -0.27842,
				"method": "rhf"
			},
			{
				"type": "occ",
				"energy": -0.27132,
				"method": "rhf"
			},
			{
				"type": "occ",
				"energy": -0.2513,
				"method": "rhf"
			},
			{
				"type": "unocc",
				"energy": -0.06801,
				"method": "rhf"
			},
			{
				"type": "unocc",
				"energy": -0.0566,
				"method": "rhf"
			},
			{
				"type": "unocc",
				"energy": -0.04392,
				"method": "rhf"
			},
			{
				"type": "unocc",
				"energy": -0.02571,
				"method": "rhf"
			},
			{
				"type": "unocc",
				"energy": -0.00352,
				"method": "rhf"
			}
		],
		"cosmo_sigma_profile": { 
			"-0.025": 0.0,
			"-0.024": 0.0,
			"-0.023": 0.0,
			"-0.022": 0.0,
			"-0.021": 0.0,
			"-0.02": 0.0,
			"-0.019": 0.0,
			"-0.018": 0.0,
			"-0.017": 0.107163813836,
			"-0.016": 0.459054295641,
			"-0.015": 1.05673753778,
			"-0.014": 0.764403109016,
			"-0.013": 1.90810245315,
			"-0.012": 1.99926976103,
			"-0.011": 2.23997067791,
			"-0.01": 2.04487059378,
			"-0.009": 2.41438478245,
			"-0.008": 7.79045370511,
			"-0.007": 11.1793135719,
			"-0.006": 15.2505469949,
			"-0.005": 12.7978632669,
			"-0.004": 16.8373376238,
			"-0.003": 19.8107084015,
			"-0.002": 27.1709186982,
			"-0.001": 34.3652858944,
			"0.0": 33.9156195521,
			"0.001": 34.1780485955,
			"0.002": 61.6804480098,
			"0.003": 49.3851527345,
			"0.004": 8.76993922396,
			"0.005": 4.00186966735,
			"0.006": 2.37796267289,
			"0.007": 4.36744795118,
			"0.008": 3.44758694526,
			"0.009": 3.95809448284,
			"0.01": 4.42941371953,
			"0.011": 7.41414278448,
			"0.012": 5.13935224457,
			"0.013": 0.298253281637,
			"0.014": 0.0,
			"0.015": 0.0,
			"0.016": 0.0,
			"0.017": 0.0,
			"0.018": 0.0,
			"0.019": 0.0,
			"0.02": 0.0,
			"0.021": 0.0,
			"0.022": 0.0,
			"0.023": 0.0,
			"0.024": 0.0,
			"0.025": 0.0
		}
	}
}
