{
	 "smiles": "OC(=O)C1=CC=C(C=C1)C1=CC=CO1", 
	 "Tm": 505.15, 
	 "num_atms": 22, 
	 "gaussian": { 
		 "optdone": 1, 
		 "sigma_profile": "yes", 
		 "theory": "DFT", 
		 "functional": "B3LYP", 
		 "basiset": "6-31G**", 
		 "properties": { 
			 "R2extent": 4128.3093, 
			 "electric_dipole_moment_norm": 2.617486063, 
			 "electric_quadrupole_moment_norm": 10.4753913717, 
			 "total_energy": -649.663846726, 
			 "HOMO_LUMO_gap": 0.15444, 
			 "cosmo_polarized_energy": -10.73, 
			 "cosmo_cavitation_energy": 27.34, 
			 "cosmo_dispersion_energy": -20.24, 
			 "cosmo_repulsion_energy": 1.56, 
			 "cosmo_total_nonelectrostatic_energy": 8.66, 
			 "SMD_solvation_energy": 6.76 
		},
		"coords": [
			{
				"x": 3.7690090956,
				"y": -3.1082042331,
				"z": 1.7784399161,
				"element": "O" 
			},
			{
				"x": 3.637033491,
				"y": -2.431720275,
				"z": 0.6077011648,
				"element": "C" 
			},
			{
				"x": 4.3852193186,
				"y": -2.6236224704,
				"z": -0.3320757702,
				"element": "O" 
			},
			{
				"x": 2.512435797,
				"y": -1.4656606617,
				"z": 0.6161092833,
				"element": "C" 
			},
			{
				"x": 1.6809827959,
				"y": -1.2851036581,
				"z": 1.7306023965,
				"element": "C" 
			},
			{
				"x": 0.6395902942,
				"y": -0.3660287127,
				"z": 1.6873551268,
				"element": "C" 
			},
			{
				"x": 0.4027858455,
				"y": 0.3965346092,
				"z": 0.5278136501,
				"element": "C" 
			},
			{
				"x": 1.2433882306,
				"y": 0.2085878457,
				"z": -0.5876575579,
				"element": "C" 
			},
			{
				"x": 2.2819573962,
				"y": -0.7088259603,
				"z": -0.5427834866,
				"element": "C" 
			},
			{
				"x": -0.686277958,
				"y": 1.3601651593,
				"z": 0.4774180468,
				"element": "C" 
			},
			{
				"x": -1.1463168695,
				"y": 2.2217462911,
				"z": -0.4882882032,
				"element": "C" 
			},
			{
				"x": -2.2620935636,
				"y": 2.9144323312,
				"z": 0.0718621948,
				"element": "C" 
			},
			{
				"x": -2.4089390426,
				"y": 2.4318945182,
				"z": 1.3380094669,
				"element": "C" 
			},
			{
				"x": -1.4637938649,
				"y": 1.4902147396,
				"z": 1.6010264016,
				"element": "O" 
			},
			{
				"x": 4.5278063442,
				"y": -3.7011829299,
				"z": 1.6519758163,
				"element": "H" 
			},
			{
				"x": 1.8551000208,
				"y": -1.8675307061,
				"z": 2.6282457078,
				"element": "H" 
			},
			{
				"x": -0.0007065309,
				"y": -0.2298498756,
				"z": 2.5515358696,
				"element": "H" 
			},
			{
				"x": 1.0787804578,
				"y": 0.785978122,
				"z": -1.4919057182,
				"element": "H" 
			},
			{
				"x": 2.9326916854,
				"y": -0.8584653029,
				"z": -1.3977296222,
				"element": "H" 
			},
			{
				"x": -0.740013261,
				"y": 2.3489868236,
				"z": -1.4809300349,
				"element": "H" 
			},
			{
				"x": -2.8709688281,
				"y": 3.6688888834,
				"z": -0.4047497047,
				"element": "H" 
			},
			{
				"x": -3.0997708542,
				"y": 2.6419654624,
				"z": 2.1397250564,
				"element": "H" 
			}
		],
		 "valence_orbital": [ 
			{
				"type": "occ",
				"energy": -0.2919,
				"method": "rhf"
			},
			{
				"type": "occ",
				"energy": -0.28199,
				"method": "rhf"
			},
			{
				"type": "occ",
				"energy": -0.27337,
				"method": "rhf"
			},
			{
				"type": "occ",
				"energy": -0.26105,
				"method": "rhf"
			},
			{
				"type": "occ",
				"energy": -0.2146,
				"method": "rhf"
			},
			{
				"type": "unocc",
				"energy": -0.06016,
				"method": "rhf"
			},
			{
				"type": "unocc",
				"energy": -0.00884,
				"method": "rhf"
			},
			{
				"type": "unocc",
				"energy": 0.01147,
				"method": "rhf"
			},
			{
				"type": "unocc",
				"energy": 0.05179,
				"method": "rhf"
			},
			{
				"type": "unocc",
				"energy": 0.08004,
				"method": "rhf"
			}
		],
		"cosmo_sigma_profile": { 
			"-0.025": 0.0,
			"-0.024": 0.0,
			"-0.023": 0.0,
			"-0.022": 0.0,
			"-0.021": 0.0,
			"-0.02": 0.0,
			"-0.019": 0.0,
			"-0.018": 0.664636036541,
			"-0.017": 0.955654139251,
			"-0.016": 0.71000286844,
			"-0.015": 1.07365158737,
			"-0.014": 0.337041272599,
			"-0.013": 0.745103774116,
			"-0.012": 0.433559652345,
			"-0.011": 0.955977462519,
			"-0.01": 1.03962641796,
			"-0.009": 2.67747306994,
			"-0.008": 4.69611350474,
			"-0.007": 8.1104331762,
			"-0.006": 9.42656718849,
			"-0.005": 12.2089114137,
			"-0.004": 10.7586141112,
			"-0.003": 11.2667664751,
			"-0.002": 11.8450468076,
			"-0.001": 12.4875075627,
			"0.0": 12.6659386303,
			"0.001": 22.7337755052,
			"0.002": 23.9432099713,
			"0.003": 26.3785170621,
			"0.004": 14.4880832418,
			"0.005": 8.16231598613,
			"0.006": 4.65085910518,
			"0.007": 2.65137196367,
			"0.008": 1.91988001284,
			"0.009": 2.2035217297,
			"0.01": 1.57150832288,
			"0.011": 3.23109175844,
			"0.012": 4.84447412204,
			"0.013": 0.336916983434,
			"0.014": 0.0,
			"0.015": 0.0,
			"0.016": 0.0,
			"0.017": 0.0,
			"0.018": 0.0,
			"0.019": 0.0,
			"0.02": 0.0,
			"0.021": 0.0,
			"0.022": 0.0,
			"0.023": 0.0,
			"0.024": 0.0,
			"0.025": 0.0
		}
	}
}
