{
	 "smiles": "OCCOC1=NC=C(Br)C=C1", 
	 "Tm": 325.15, 
	 "num_atms": 19, 
	 "gaussian": { 
		 "optdone": 1, 
		 "sigma_profile": "yes", 
		 "theory": "DFT", 
		 "functional": "B3LYP", 
		 "basiset": "6-31G**", 
		 "properties": { 
			 "R2extent": 5186.6936, 
			 "electric_dipole_moment_norm": 2.77780186658, 
			 "electric_quadrupole_moment_norm": 2.60262906885, 
			 "total_energy": -3048.15391296, 
			 "HOMO_LUMO_gap": 0.19305, 
			 "cosmo_polarized_energy": -8.36, 
			 "cosmo_cavitation_energy": 25.05, 
			 "cosmo_dispersion_energy": -19.22, 
			 "cosmo_repulsion_energy": 1.56, 
			 "cosmo_total_nonelectrostatic_energy": 7.39, 
			 "SMD_solvation_energy": 3.24 
		},
		"coords": [
			{
				"x": -1.8435347627,
				"y": -0.4430403209,
				"z": -0.5354650115,
				"element": "O" 
			},
			{
				"x": -1.7938169445,
				"y": -0.1906402867,
				"z": 0.8479297482,
				"element": "C" 
			},
			{
				"x": -0.8834984227,
				"y": 0.973428379,
				"z": 1.2482333509,
				"element": "C" 
			},
			{
				"x": 0.4890918767,
				"y": 0.6088424921,
				"z": 1.5335696704,
				"element": "O" 
			},
			{
				"x": 1.3551563021,
				"y": 0.3602368175,
				"z": 0.5355063933,
				"element": "C" 
			},
			{
				"x": 0.9222770436,
				"y": 0.1515422904,
				"z": -0.7074583269,
				"element": "N" 
			},
			{
				"x": 1.825722158,
				"y": -0.0903729297,
				"z": -1.6732381385,
				"element": "C" 
			},
			{
				"x": 3.1878864419,
				"y": -0.1434146246,
				"z": -1.4201146561,
				"element": "C" 
			},
			{
				"x": 4.4120081229,
				"y": -0.4971581782,
				"z": -2.8347779925,
				"element": "Br" 
			},
			{
				"x": 3.6455689566,
				"y": 0.0615909061,
				"z": -0.1118068786,
				"element": "C" 
			},
			{
				"x": 2.7201395389,
				"y": 0.3205143572,
				"z": 0.8831021669,
				"element": "C" 
			},
			{
				"x": -0.9254482075,
				"y": -0.3614952727,
				"z": -0.8558021866,
				"element": "H" 
			},
			{
				"x": -1.492319286,
				"y": -1.0758745555,
				"z": 1.4351228626,
				"element": "H" 
			},
			{
				"x": -2.8140161427,
				"y": 0.0661395904,
				"z": 1.1606485682,
				"element": "H" 
			},
			{
				"x": -0.9064571088,
				"y": 1.746531209,
				"z": 0.4722208141,
				"element": "H" 
			},
			{
				"x": -1.2183531066,
				"y": 1.4040046455,
				"z": 2.1952784576,
				"element": "H" 
			},
			{
				"x": 1.4374616394,
				"y": -0.2529912042,
				"z": -2.6742166139,
				"element": "H" 
			},
			{
				"x": 4.7061021445,
				"y": 0.0239709335,
				"z": 0.1112878982,
				"element": "H" 
			},
			{
				"x": 3.015229757,
				"y": 0.4980857518,
				"z": 1.9105798744,
				"element": "H" 
			}
		],
		 "valence_orbital": [ 
			{
				"type": "occ",
				"energy": -0.30334,
				"method": "rhf"
			},
			{
				"type": "occ",
				"energy": -0.29867,
				"method": "rhf"
			},
			{
				"type": "occ",
				"energy": -0.28571,
				"method": "rhf"
			},
			{
				"type": "occ",
				"energy": -0.25164,
				"method": "rhf"
			},
			{
				"type": "occ",
				"energy": -0.23996,
				"method": "rhf"
			},
			{
				"type": "unocc",
				"energy": -0.04691,
				"method": "rhf"
			},
			{
				"type": "unocc",
				"energy": -0.02164,
				"method": "rhf"
			},
			{
				"type": "unocc",
				"energy": -0.0036,
				"method": "rhf"
			},
			{
				"type": "unocc",
				"energy": 0.10042,
				"method": "rhf"
			},
			{
				"type": "unocc",
				"energy": 0.10736,
				"method": "rhf"
			}
		],
		"cosmo_sigma_profile": { 
			"-0.025": 0.0,
			"-0.024": 0.0,
			"-0.023": 0.0,
			"-0.022": 0.0,
			"-0.021": 0.0,
			"-0.02": 0.0,
			"-0.019": 0.0,
			"-0.018": 0.0,
			"-0.017": 0.0,
			"-0.016": 0.0,
			"-0.015": 0.0,
			"-0.014": 0.0,
			"-0.013": 0.0,
			"-0.012": 0.0,
			"-0.011": 0.0,
			"-0.01": 0.0,
			"-0.009": 0.529819376336,
			"-0.008": 4.48694505364,
			"-0.007": 6.39050945257,
			"-0.006": 9.77165897426,
			"-0.005": 13.3365059429,
			"-0.004": 15.5266234091,
			"-0.003": 14.8139115824,
			"-0.002": 15.6012070827,
			"-0.001": 18.5323538041,
			"0.0": 21.0763022244,
			"0.001": 20.152404933,
			"0.002": 12.0102389538,
			"0.003": 11.9917166804,
			"0.004": 14.7916194836,
			"0.005": 4.00595801326,
			"0.006": 3.22732468444,
			"0.007": 2.03713817566,
			"0.008": 2.32841365813,
			"0.009": 2.13495120651,
			"0.01": 1.74451127126,
			"0.011": 0.866819149258,
			"0.012": 1.00636966738,
			"0.013": 1.78876416327,
			"0.014": 1.82465730522,
			"0.015": 2.49324380659,
			"0.016": 0.479732761818,
			"0.017": 0.0,
			"0.018": 0.0,
			"0.019": 0.0,
			"0.02": 0.0,
			"0.021": 0.0,
			"0.022": 0.0,
			"0.023": 0.0,
			"0.024": 0.0,
			"0.025": 0.0
		}
	}
}
