{
	 "smiles": "CN(C)CCN1C(=O)C(=O)C2=C1C=CC(Br)=C2", 
	 "Tm": 376.15, 
	 "num_atms": 30, 
	 "gaussian": { 
		 "optdone": 1, 
		 "sigma_profile": "yes", 
		 "theory": "DFT", 
		 "functional": "B3LYP", 
		 "basiset": "6-31G**", 
		 "properties": { 
			 "R2extent": 8471.8126, 
			 "electric_dipole_moment_norm": 5.3600877782, 
			 "electric_quadrupole_moment_norm": 10.6987914121, 
			 "total_energy": -3296.45480182, 
			 "HOMO_LUMO_gap": 0.10922, 
			 "cosmo_polarized_energy": -14.91, 
			 "cosmo_cavitation_energy": 36.62, 
			 "cosmo_dispersion_energy": -25.62, 
			 "cosmo_repulsion_energy": 1.97, 
			 "cosmo_total_nonelectrostatic_energy": 12.97, 
			 "SMD_solvation_energy": 3.91 
		},
		"coords": [
			{
				"x": 2.5708087912,
				"y": -1.7598281184,
				"z": -3.1832047914,
				"element": "C" 
			},
			{
				"x": 2.7213738135,
				"y": -1.4506424486,
				"z": -1.7684181129,
				"element": "N" 
			},
			{
				"x": 3.5516662641,
				"y": -0.2816218814,
				"z": -1.5269432763,
				"element": "C" 
			},
			{
				"x": 1.4863765064,
				"y": -1.492186575,
				"z": -1.0026998554,
				"element": "C" 
			},
			{
				"x": 0.4186391277,
				"y": -0.4255682405,
				"z": -1.3604687459,
				"element": "C" 
			},
			{
				"x": -0.7794536813,
				"y": -0.5524604665,
				"z": -0.5414134486,
				"element": "N" 
			},
			{
				"x": -1.9151972103,
				"y": -1.2314940873,
				"z": -0.9662736571,
				"element": "C" 
			},
			{
				"x": -2.0710439463,
				"y": -1.7702935506,
				"z": -2.0410401029,
				"element": "O" 
			},
			{
				"x": -2.9332210989,
				"y": -1.145755593,
				"z": 0.2192002443,
				"element": "C" 
			},
			{
				"x": -4.0456001754,
				"y": -1.6235121868,
				"z": 0.2124771421,
				"element": "O" 
			},
			{
				"x": -2.2262544027,
				"y": -0.38363033,
				"z": 1.2630053348,
				"element": "C" 
			},
			{
				"x": -0.9487986007,
				"y": -0.0581488198,
				"z": 0.7630126373,
				"element": "C" 
			},
			{
				"x": -0.0547941233,
				"y": 0.6728826282,
				"z": 1.5391875519,
				"element": "C" 
			},
			{
				"x": -0.4651334133,
				"y": 1.0692193877,
				"z": 2.8188322299,
				"element": "C" 
			},
			{
				"x": -1.7335785321,
				"y": 0.7416259158,
				"z": 3.3067569606,
				"element": "C" 
			},
			{
				"x": -2.2357866124,
				"y": 1.3078579071,
				"z": 5.0597554769,
				"element": "Br" 
			},
			{
				"x": -2.633805077,
				"y": 0.0082541905,
				"z": 2.5323962326,
				"element": "C" 
			},
			{
				"x": 2.0819845398,
				"y": -0.9646428958,
				"z": -3.7759020718,
				"element": "H" 
			},
			{
				"x": 1.9838513235,
				"y": -2.6761691096,
				"z": -3.3000878474,
				"element": "H" 
			},
			{
				"x": 3.5588841056,
				"y": -1.9339130401,
				"z": -3.6229479165,
				"element": "H" 
			},
			{
				"x": 3.1532579618,
				"y": 0.6617342388,
				"z": -1.946297487,
				"element": "H" 
			},
			{
				"x": 4.5401900833,
				"y": -0.4403876608,
				"z": -1.9713875402,
				"element": "H" 
			},
			{
				"x": 3.6900794339,
				"y": -0.1422806796,
				"z": -0.4491859659,
				"element": "H" 
			},
			{
				"x": 1.028246806,
				"y": -2.4793403637,
				"z": -1.1363281206,
				"element": "H" 
			},
			{
				"x": 1.7395065809,
				"y": -1.4000499723,
				"z": 0.0610326324,
				"element": "H" 
			},
			{
				"x": 0.8143275489,
				"y": 0.5891953548,
				"z": -1.2474526313,
				"element": "H" 
			},
			{
				"x": 0.0922684439,
				"y": -0.5478297943,
				"z": -2.3959177483,
				"element": "H" 
			},
			{
				"x": 0.9344901328,
				"y": 0.9355620807,
				"z": 1.1814729067,
				"element": "H" 
			},
			{
				"x": 0.213207358,
				"y": 1.6395685556,
				"z": 3.4435760587,
				"element": "H" 
			},
			{
				"x": -3.6208919476,
				"y": -0.2514444451,
				"z": 2.8983639114,
				"element": "H" 
			}
		],
		 "valence_orbital": [ 
			{
				"type": "occ",
				"energy": -0.29751,
				"method": "rhf"
			},
			{
				"type": "occ",
				"energy": -0.28881,
				"method": "rhf"
			},
			{
				"type": "occ",
				"energy": -0.25303,
				"method": "rhf"
			},
			{
				"type": "occ",
				"energy": -0.24001,
				"method": "rhf"
			},
			{
				"type": "occ",
				"energy": -0.21397,
				"method": "rhf"
			},
			{
				"type": "unocc",
				"energy": -0.10475,
				"method": "rhf"
			},
			{
				"type": "unocc",
				"energy": -0.03313,
				"method": "rhf"
			},
			{
				"type": "unocc",
				"energy": -0.0057,
				"method": "rhf"
			},
			{
				"type": "unocc",
				"energy": -0.00426,
				"method": "rhf"
			},
			{
				"type": "unocc",
				"energy": 0.05446,
				"method": "rhf"
			}
		],
		"cosmo_sigma_profile": { 
			"-0.025": 0.0,
			"-0.024": 0.0,
			"-0.023": 0.0,
			"-0.022": 0.0,
			"-0.021": 0.0,
			"-0.02": 0.0,
			"-0.019": 0.0,
			"-0.018": 0.0,
			"-0.017": 0.0,
			"-0.016": 0.0,
			"-0.015": 0.0,
			"-0.014": 0.0,
			"-0.013": 0.0,
			"-0.012": 0.0,
			"-0.011": 0.0,
			"-0.01": 0.0,
			"-0.009": 0.366402608297,
			"-0.008": 6.661284888,
			"-0.007": 9.83019927256,
			"-0.006": 10.1719074214,
			"-0.005": 12.2860998742,
			"-0.004": 26.2118109263,
			"-0.003": 33.2467048933,
			"-0.002": 30.1183233993,
			"-0.001": 28.8182215319,
			"0.0": 31.4275829373,
			"0.001": 22.5400313605,
			"0.002": 12.286492868,
			"0.003": 11.0251615982,
			"0.004": 14.2296326606,
			"0.005": 6.06448976283,
			"0.006": 2.79532147764,
			"0.007": 4.30329177045,
			"0.008": 4.40010180456,
			"0.009": 5.55802923193,
			"0.01": 8.32562218942,
			"0.011": 8.18949395104,
			"0.012": 3.07488087153,
			"0.013": 0.918221232725,
			"0.014": 0.635166545801,
			"0.015": 0.268376285536,
			"0.016": 0.213791203649,
			"0.017": 0.0,
			"0.018": 0.0,
			"0.019": 0.0,
			"0.02": 0.0,
			"0.021": 0.0,
			"0.022": 0.0,
			"0.023": 0.0,
			"0.024": 0.0,
			"0.025": 0.0
		}
	}
}
