{
	 "smiles": "CC1=CC=C(F)C(CO)=C1Cl", 
	 "Tm": 342.15, 
	 "num_atms": 19, 
	 "gaussian": { 
		 "optdone": 1, 
		 "sigma_profile": "yes", 
		 "theory": "DFT", 
		 "functional": "B3LYP", 
		 "basiset": "6-31G**", 
		 "properties": { 
			 "R2extent": 2646.3435, 
			 "electric_dipole_moment_norm": 2.93643536622, 
			 "electric_quadrupole_moment_norm": 6.34109350112, 
			 "total_energy": -944.918865674, 
			 "HOMO_LUMO_gap": 0.22297, 
			 "cosmo_polarized_energy": -6.83, 
			 "cosmo_cavitation_energy": 24.18, 
			 "cosmo_dispersion_energy": -18.06, 
			 "cosmo_repulsion_energy": 1.43, 
			 "cosmo_total_nonelectrostatic_energy": 7.55, 
			 "SMD_solvation_energy": 4.26 
		},
		"coords": [
			{
				"x": -2.8092723267,
				"y": 0.0643591704,
				"z": -0.9879835575,
				"element": "C" 
			},
			{
				"x": -1.6969261596,
				"y": 1.0596011909,
				"z": -0.7740733371,
				"element": "C" 
			},
			{
				"x": -1.7639089464,
				"y": 2.335836707,
				"z": -1.344002617,
				"element": "C" 
			},
			{
				"x": -0.7516399519,
				"y": 3.2770746918,
				"z": -1.1625060442,
				"element": "C" 
			},
			{
				"x": 0.3395439355,
				"y": 2.91389683,
				"z": -0.3952678338,
				"element": "C" 
			},
			{
				"x": 1.3348029817,
				"y": 3.8255588461,
				"z": -0.2037989441,
				"element": "F" 
			},
			{
				"x": 0.4902573997,
				"y": 1.66204839,
				"z": 0.2051657239,
				"element": "C" 
			},
			{
				"x": 1.7485054299,
				"y": 1.3905260219,
				"z": 1.0150634336,
				"element": "C" 
			},
			{
				"x": 2.9402458349,
				"y": 1.5647806069,
				"z": 0.2653246387,
				"element": "O" 
			},
			{
				"x": -0.5577011596,
				"y": 0.7553419627,
				"z": -0.0054561054,
				"element": "C" 
			},
			{
				"x": -0.4662633769,
				"y": -0.8465534612,
				"z": 0.7310265549,
				"element": "Cl" 
			},
			{
				"x": -3.5930778405,
				"y": 0.4953032201,
				"z": -1.6156570722,
				"element": "H" 
			},
			{
				"x": -3.2608107892,
				"y": -0.2425766759,
				"z": -0.0386654537,
				"element": "H" 
			},
			{
				"x": -2.4437851877,
				"y": -0.8464704163,
				"z": -1.4736730946,
				"element": "H" 
			},
			{
				"x": -2.6312982583,
				"y": 2.5963294261,
				"z": -1.9431437712,
				"element": "H" 
			},
			{
				"x": -0.8005321268,
				"y": 4.2676684055,
				"z": -1.6002076615,
				"element": "H" 
			},
			{
				"x": 1.7378613952,
				"y": 2.0374872572,
				"z": 1.9062457087,
				"element": "H" 
			},
			{
				"x": 1.7515729826,
				"y": 0.3578066548,
				"z": 1.3616901395,
				"element": "H" 
			},
			{
				"x": 2.9883261639,
				"y": 2.4985811721,
				"z": 0.0226192931,
				"element": "H" 
			}
		],
		 "valence_orbital": [ 
			{
				"type": "occ",
				"energy": -0.33538,
				"method": "rhf"
			},
			{
				"type": "occ",
				"energy": -0.31435,
				"method": "rhf"
			},
			{
				"type": "occ",
				"energy": -0.27175,
				"method": "rhf"
			},
			{
				"type": "occ",
				"energy": -0.25706,
				"method": "rhf"
			},
			{
				"type": "occ",
				"energy": -0.24743,
				"method": "rhf"
			},
			{
				"type": "unocc",
				"energy": -0.02446,
				"method": "rhf"
			},
			{
				"type": "unocc",
				"energy": -0.01269,
				"method": "rhf"
			},
			{
				"type": "unocc",
				"energy": 0.02274,
				"method": "rhf"
			},
			{
				"type": "unocc",
				"energy": 0.08821,
				"method": "rhf"
			},
			{
				"type": "unocc",
				"energy": 0.10226,
				"method": "rhf"
			}
		],
		"cosmo_sigma_profile": { 
			"-0.025": 0.0,
			"-0.024": 0.0,
			"-0.023": 0.0,
			"-0.022": 0.0,
			"-0.021": 0.0,
			"-0.02": 0.0,
			"-0.019": 0.0,
			"-0.018": 0.0,
			"-0.017": 0.0,
			"-0.016": 0.0,
			"-0.015": 0.0,
			"-0.014": 0.0,
			"-0.013": 0.101225483348,
			"-0.012": 0.530413620815,
			"-0.011": 0.75175240111,
			"-0.01": 0.635938392943,
			"-0.009": 1.21231771044,
			"-0.008": 1.67325196366,
			"-0.007": 4.31598918659,
			"-0.006": 6.62831856418,
			"-0.005": 10.8929282982,
			"-0.004": 13.400294019,
			"-0.003": 14.1743960874,
			"-0.002": 15.0671715732,
			"-0.001": 19.1385531326,
			"0.0": 20.2149112111,
			"0.001": 18.950430726,
			"0.002": 21.4339356823,
			"0.003": 17.0808504479,
			"0.004": 11.6142183427,
			"0.005": 3.32261443767,
			"0.006": 1.59791075426,
			"0.007": 1.34246340141,
			"0.008": 1.79373857424,
			"0.009": 0.691228672911,
			"0.01": 0.59714839318,
			"0.011": 1.23911257247,
			"0.012": 2.04188372331,
			"0.013": 1.84735374074,
			"0.014": 1.92802520259,
			"0.015": 0.157181714761,
			"0.016": 0.0,
			"0.017": 0.0,
			"0.018": 0.0,
			"0.019": 0.0,
			"0.02": 0.0,
			"0.021": 0.0,
			"0.022": 0.0,
			"0.023": 0.0,
			"0.024": 0.0,
			"0.025": 0.0
		}
	}
}
