{
	 "smiles": "C1=CC=C(C=C1)C1=CC=CC=C1C1=CC=CC=C1C1=CC=CC=C1", 
	 "Tm": 391.15, 
	 "num_atms": 42, 
	 "gaussian": { 
		 "optdone": 1, 
		 "sigma_profile": "yes", 
		 "theory": "DFT", 
		 "functional": "B3LYP", 
		 "basiset": "6-31G**", 
		 "properties": { 
			 "R2extent": 6699.8691, 
			 "electric_dipole_moment_norm": 0.0521940609648, 
			 "electric_quadrupole_moment_norm": 10.6198084959, 
			 "total_energy": -925.416943553, 
			 "HOMO_LUMO_gap": 0.19052, 
			 "cosmo_polarized_energy": -8.47, 
			 "cosmo_cavitation_energy": 44.36, 
			 "cosmo_dispersion_energy": -28.91, 
			 "cosmo_repulsion_energy": 2.21, 
			 "cosmo_total_nonelectrostatic_energy": 17.66, 
			 "SMD_solvation_energy": 7.01 
		},
		"coords": [
			{
				"x": -3.4177966834,
				"y": -1.4323914058,
				"z": -1.2336447919,
				"element": "C" 
			},
			{
				"x": -3.3899610135,
				"y": -1.7194372689,
				"z": 0.1320480494,
				"element": "C" 
			},
			{
				"x": -2.7505694611,
				"y": -0.8524369176,
				"z": 1.0174057978,
				"element": "C" 
			},
			{
				"x": -2.1230204271,
				"y": 0.3174688823,
				"z": 0.5575454403,
				"element": "C" 
			},
			{
				"x": -2.1593220438,
				"y": 0.5940921483,
				"z": -0.8190791937,
				"element": "C" 
			},
			{
				"x": -2.799983575,
				"y": -0.2720607198,
				"z": -1.7046156315,
				"element": "C" 
			},
			{
				"x": -1.499312306,
				"y": 1.2601342521,
				"z": 1.5300071691,
				"element": "C" 
			},
			{
				"x": -2.2523235229,
				"y": 1.641226084,
				"z": 2.6541514745,
				"element": "C" 
			},
			{
				"x": -1.7673774385,
				"y": 2.5488326437,
				"z": 3.592831595,
				"element": "C" 
			},
			{
				"x": -0.5030811555,
				"y": 3.1094998092,
				"z": 3.4173633649,
				"element": "C" 
			},
			{
				"x": 0.2608648042,
				"y": 2.7406057138,
				"z": 2.3117183256,
				"element": "C" 
			},
			{
				"x": -0.2049112599,
				"y": 1.8116918698,
				"z": 1.3665088687,
				"element": "C" 
			},
			{
				"x": 0.7006273873,
				"y": 1.4780966273,
				"z": 0.2204776166,
				"element": "C" 
			},
			{
				"x": 1.0367943177,
				"y": 2.5167494034,
				"z": -0.6635260673,
				"element": "C" 
			},
			{
				"x": 1.864207294,
				"y": 2.3051732049,
				"z": -1.7647819234,
				"element": "C" 
			},
			{
				"x": 2.3800962298,
				"y": 1.0311526355,
				"z": -1.9978096929,
				"element": "C" 
			},
			{
				"x": 2.0728103793,
				"y": -0.0052908593,
				"z": -1.1195269803,
				"element": "C" 
			},
			{
				"x": 1.2442764336,
				"y": 0.1889304747,
				"z": -0.0006854003,
				"element": "C" 
			},
			{
				"x": 1.0112467079,
				"y": -0.9712969393,
				"z": 0.9064401316,
				"element": "C" 
			},
			{
				"x": 1.2002799292,
				"y": -0.872465012,
				"z": 2.2947675671,
				"element": "C" 
			},
			{
				"x": 1.0348582589,
				"y": -1.9853404612,
				"z": 3.1187755749,
				"element": "C" 
			},
			{
				"x": 0.6773806905,
				"y": -3.2200719524,
				"z": 2.5733314115,
				"element": "C" 
			},
			{
				"x": 0.4868178443,
				"y": -3.3328313758,
				"z": 1.195199603,
				"element": "C" 
			},
			{
				"x": 0.6536659596,
				"y": -2.2202367831,
				"z": 0.3713928063,
				"element": "C" 
			},
			{
				"x": -3.9163221572,
				"y": -2.1060698484,
				"z": -1.9249196208,
				"element": "H" 
			},
			{
				"x": -3.8609896676,
				"y": -2.6227792592,
				"z": 0.5095996974,
				"element": "H" 
			},
			{
				"x": -2.7128684798,
				"y": -1.0927827549,
				"z": 2.0757314921,
				"element": "H" 
			},
			{
				"x": -1.6931795141,
				"y": 1.4982582701,
				"z": -1.195496061,
				"element": "H" 
			},
			{
				"x": -2.8222292158,
				"y": -0.0350227301,
				"z": -2.7647336034,
				"element": "H" 
			},
			{
				"x": -3.2519621857,
				"y": 1.2328728165,
				"z": 2.7699915496,
				"element": "H" 
			},
			{
				"x": -2.3798766969,
				"y": 2.8254362725,
				"z": 4.4462316919,
				"element": "H" 
			},
			{
				"x": -0.1114353871,
				"y": 3.8254454308,
				"z": 4.1342543979,
				"element": "H" 
			},
			{
				"x": 1.2542442629,
				"y": 3.1601081696,
				"z": 2.1783175121,
				"element": "H" 
			},
			{
				"x": 0.6167603739,
				"y": 3.5029855968,
				"z": -0.4860770834,
				"element": "H" 
			},
			{
				"x": 2.0996316357,
				"y": 3.1278640281,
				"z": -2.4338502957,
				"element": "H" 
			},
			{
				"x": 3.0293563443,
				"y": 0.8460699595,
				"z": -2.8487868485,
				"element": "H" 
			},
			{
				"x": 2.5047475251,
				"y": -0.9888705578,
				"z": -1.2790351842,
				"element": "H" 
			},
			{
				"x": 1.4896673098,
				"y": 0.0784812581,
				"z": 2.7288832052,
				"element": "H" 
			},
			{
				"x": 1.1931251844,
				"y": -1.8880719254,
				"z": 4.1892993271,
				"element": "H" 
			},
			{
				"x": 0.548854604,
				"y": -4.0859402854,
				"z": 3.2167473885,
				"element": "H" 
			},
			{
				"x": 0.2015585436,
				"y": -4.2865537558,
				"z": 0.759906534,
				"element": "H" 
			},
			{
				"x": 0.4818501708,
				"y": -2.309224739,
				"z": -0.6971592138,
				"element": "H" 
			}
		],
		 "valence_orbital": [ 
			{
				"type": "occ",
				"energy": -0.24598,
				"method": "rhf"
			},
			{
				"type": "occ",
				"energy": -0.24039,
				"method": "rhf"
			},
			{
				"type": "occ",
				"energy": -0.23942,
				"method": "rhf"
			},
			{
				"type": "occ",
				"energy": -0.22457,
				"method": "rhf"
			},
			{
				"type": "occ",
				"energy": -0.215,
				"method": "rhf"
			},
			{
				"type": "unocc",
				"energy": -0.02448,
				"method": "rhf"
			},
			{
				"type": "unocc",
				"energy": -0.02339,
				"method": "rhf"
			},
			{
				"type": "unocc",
				"energy": -0.00422,
				"method": "rhf"
			},
			{
				"type": "unocc",
				"energy": 0.00227,
				"method": "rhf"
			},
			{
				"type": "unocc",
				"energy": 0.00785,
				"method": "rhf"
			}
		],
		"cosmo_sigma_profile": { 
			"-0.025": 0.0,
			"-0.024": 0.0,
			"-0.023": 0.0,
			"-0.022": 0.0,
			"-0.021": 0.0,
			"-0.02": 0.0,
			"-0.019": 0.0,
			"-0.018": 0.0,
			"-0.017": 0.0,
			"-0.016": 0.0,
			"-0.015": 0.0,
			"-0.014": 0.0,
			"-0.013": 0.0,
			"-0.012": 0.0,
			"-0.011": 0.0,
			"-0.01": 0.0,
			"-0.009": 0.0,
			"-0.008": 0.0,
			"-0.007": 0.0,
			"-0.006": 10.4620583005,
			"-0.005": 28.9111140528,
			"-0.004": 38.0127804371,
			"-0.003": 39.3976238414,
			"-0.002": 29.0328652255,
			"-0.001": 28.3933170972,
			"0.0": 21.248216673,
			"0.001": 23.5118401227,
			"0.002": 23.5947595262,
			"0.003": 27.3143218536,
			"0.004": 32.5892879953,
			"0.005": 35.617881999,
			"0.006": 17.0754081018,
			"0.007": 0.336942146888,
			"0.008": 0.0,
			"0.009": 0.0,
			"0.01": 0.0,
			"0.011": 0.0,
			"0.012": 0.0,
			"0.013": 0.0,
			"0.014": 0.0,
			"0.015": 0.0,
			"0.016": 0.0,
			"0.017": 0.0,
			"0.018": 0.0,
			"0.019": 0.0,
			"0.02": 0.0,
			"0.021": 0.0,
			"0.022": 0.0,
			"0.023": 0.0,
			"0.024": 0.0,
			"0.025": 0.0
		}
	}
}
