{
	 "smiles": "OC(=O)CSC1=CC(Br)=CC=C1", 
	 "Tm": 353.15, 
	 "num_atms": 19, 
	 "gaussian": { 
		 "optdone": 1, 
		 "sigma_profile": "yes", 
		 "theory": "DFT", 
		 "functional": "B3LYP", 
		 "basiset": "6-31G**", 
		 "properties": { 
			 "R2extent": 5004.8068, 
			 "electric_dipole_moment_norm": 2.29941017437, 
			 "electric_quadrupole_moment_norm": 19.9530686244, 
			 "total_energy": -3429.11348747, 
			 "HOMO_LUMO_gap": 0.20796, 
			 "cosmo_polarized_energy": -12.34, 
			 "cosmo_cavitation_energy": 27.47, 
			 "cosmo_dispersion_energy": -20.74, 
			 "cosmo_repulsion_energy": 1.63, 
			 "cosmo_total_nonelectrostatic_energy": 8.36, 
			 "SMD_solvation_energy": 4.38 
		},
		"coords": [
			{
				"x": 1.2575721038,
				"y": 0.4455861011,
				"z": 2.9557832915,
				"element": "O" 
			},
			{
				"x": 1.4812974768,
				"y": 1.5876651757,
				"z": 2.274034722,
				"element": "C" 
			},
			{
				"x": 1.2295384704,
				"y": 2.6700906347,
				"z": 2.7397900824,
				"element": "O" 
			},
			{
				"x": 2.1185220557,
				"y": 1.4451078247,
				"z": 0.8850099507,
				"element": "C" 
			},
			{
				"x": 1.9976962174,
				"y": -0.2080126178,
				"z": 0.0877065022,
				"element": "S" 
			},
			{
				"x": 0.3273545224,
				"y": -0.1781360667,
				"z": -0.5834931558,
				"element": "C" 
			},
			{
				"x": 0.184064668,
				"y": -0.2229684211,
				"z": -1.9756686478,
				"element": "C" 
			},
			{
				"x": -1.0971939471,
				"y": -0.2453953924,
				"z": -2.5249306467,
				"element": "C" 
			},
			{
				"x": -1.2932520589,
				"y": -0.3126605325,
				"z": -4.423342873,
				"element": "Br" 
			},
			{
				"x": -2.2330868845,
				"y": -0.2102488428,
				"z": -1.7185338971,
				"element": "C" 
			},
			{
				"x": -2.0756014689,
				"y": -0.1622759743,
				"z": -0.3322926724,
				"element": "C" 
			},
			{
				"x": -0.8047169109,
				"y": -0.1585074077,
				"z": 0.2419644384,
				"element": "C" 
			},
			{
				"x": 1.5174514776,
				"y": -0.3085453488,
				"z": 2.3909462465,
				"element": "H" 
			},
			{
				"x": 3.1917759072,
				"y": 1.6382129216,
				"z": 0.9908283992,
				"element": "H" 
			},
			{
				"x": 1.707690021,
				"y": 2.2174752396,
				"z": 0.2336825915,
				"element": "H" 
			},
			{
				"x": 1.0573544276,
				"y": -0.2368617089,
				"z": -2.6167708378,
				"element": "H" 
			},
			{
				"x": -3.2202856013,
				"y": -0.2225048456,
				"z": -2.1657117253,
				"element": "H" 
			},
			{
				"x": -2.954172459,
				"y": -0.1387373427,
				"z": 0.3051960084,
				"element": "H" 
			},
			{
				"x": -0.6964080174,
				"y": -0.1384833962,
				"z": 1.3208022229,
				"element": "H" 
			}
		],
		 "valence_orbital": [ 
			{
				"type": "occ",
				"energy": -0.30238,
				"method": "rhf"
			},
			{
				"type": "occ",
				"energy": -0.29845,
				"method": "rhf"
			},
			{
				"type": "occ",
				"energy": -0.27571,
				"method": "rhf"
			},
			{
				"type": "occ",
				"energy": -0.26217,
				"method": "rhf"
			},
			{
				"type": "occ",
				"energy": -0.25436,
				"method": "rhf"
			},
			{
				"type": "unocc",
				"energy": -0.0464,
				"method": "rhf"
			},
			{
				"type": "unocc",
				"energy": -0.03388,
				"method": "rhf"
			},
			{
				"type": "unocc",
				"energy": -0.01105,
				"method": "rhf"
			},
			{
				"type": "unocc",
				"energy": 0.00048,
				"method": "rhf"
			},
			{
				"type": "unocc",
				"energy": 0.02632,
				"method": "rhf"
			}
		],
		"cosmo_sigma_profile": { 
			"-0.025": 0.0,
			"-0.024": 0.0,
			"-0.023": 0.0,
			"-0.022": 0.0,
			"-0.021": 0.0,
			"-0.02": 0.0,
			"-0.019": 0.0,
			"-0.018": 0.0,
			"-0.017": 0.0,
			"-0.016": 0.0,
			"-0.015": 0.0,
			"-0.014": 0.0,
			"-0.013": 0.6484539667,
			"-0.012": 0.800773206396,
			"-0.011": 1.45116391412,
			"-0.01": 4.63495133247,
			"-0.009": 4.07588699914,
			"-0.008": 5.3636549728,
			"-0.007": 9.82612500798,
			"-0.006": 11.9215606958,
			"-0.005": 12.7290663622,
			"-0.004": 12.5582945146,
			"-0.003": 12.266872571,
			"-0.002": 11.1356402237,
			"-0.001": 13.4244145993,
			"0.0": 14.9723063821,
			"0.001": 18.5805305666,
			"0.002": 22.3736185119,
			"0.003": 17.8785536813,
			"0.004": 15.6173249254,
			"0.005": 6.88173348331,
			"0.006": 2.67769559598,
			"0.007": 3.29008971885,
			"0.008": 2.72166732855,
			"0.009": 4.22465171367,
			"0.01": 4.98189240452,
			"0.011": 5.13013969791,
			"0.012": 4.37528546071,
			"0.013": 0.767391312039,
			"0.014": 0.0,
			"0.015": 0.0,
			"0.016": 0.0,
			"0.017": 0.0,
			"0.018": 0.0,
			"0.019": 0.0,
			"0.02": 0.0,
			"0.021": 0.0,
			"0.022": 0.0,
			"0.023": 0.0,
			"0.024": 0.0,
			"0.025": 0.0
		}
	}
}
