{
	 "smiles": "OC(=O)C1=CC(OC2=CC=CC=C2)=NC=C1", 
	 "Tm": 515.15, 
	 "num_atms": 25, 
	 "gaussian": { 
		 "optdone": 1, 
		 "sigma_profile": "yes", 
		 "theory": "DFT", 
		 "functional": "B3LYP", 
		 "basiset": "6-31G**", 
		 "properties": { 
			 "R2extent": 4070.7175, 
			 "electric_dipole_moment_norm": 1.41013472406, 
			 "electric_quadrupole_moment_norm": 31.1874599942, 
			 "total_energy": -743.117045323, 
			 "HOMO_LUMO_gap": 0.18011, 
			 "cosmo_polarized_energy": -17.79, 
			 "cosmo_cavitation_energy": 30.69, 
			 "cosmo_dispersion_energy": -21.96, 
			 "cosmo_repulsion_energy": 1.72, 
			 "cosmo_total_nonelectrostatic_energy": 10.45, 
			 "SMD_solvation_energy": 5.22 
		},
		"coords": [
			{
				"x": 0.3204361341,
				"y": -2.3598702672,
				"z": -3.6559769035,
				"element": "O" 
			},
			{
				"x": 0.1337731038,
				"y": -1.3085862549,
				"z": -2.818603409,
				"element": "C" 
			},
			{
				"x": 0.2234547727,
				"y": -0.1766636599,
				"z": -3.2277542245,
				"element": "O" 
			},
			{
				"x": -0.1833828332,
				"y": -1.6419070631,
				"z": -1.3851239009,
				"element": "C" 
			},
			{
				"x": 0.0713140103,
				"y": -0.6652869681,
				"z": -0.424104534,
				"element": "C" 
			},
			{
				"x": -0.2212977366,
				"y": -0.9706125353,
				"z": 0.9130178319,
				"element": "C" 
			},
			{
				"x": 0.0118022623,
				"y": -0.1108674996,
				"z": 1.9448378406,
				"element": "O" 
			},
			{
				"x": 0.4432930501,
				"y": 1.1881691474,
				"z": 1.6879067932,
				"element": "C" 
			},
			{
				"x": 1.7826537863,
				"y": 1.5029458814,
				"z": 1.909977769,
				"element": "C" 
			},
			{
				"x": 2.2090615992,
				"y": 2.8205614443,
				"z": 1.7332083441,
				"element": "C" 
			},
			{
				"x": 1.303569372,
				"y": 3.8065737841,
				"z": 1.3360854128,
				"element": "C" 
			},
			{
				"x": -0.036369589,
				"y": 3.4756178791,
				"z": 1.1204537018,
				"element": "C" 
			},
			{
				"x": -0.4755174316,
				"y": 2.1630444886,
				"z": 1.2986321305,
				"element": "C" 
			},
			{
				"x": -0.7380552865,
				"y": -2.1326580333,
				"z": 1.3096579884,
				"element": "N" 
			},
			{
				"x": -0.9943138852,
				"y": -3.0486491171,
				"z": 0.3730085991,
				"element": "C" 
			},
			{
				"x": -0.7380427561,
				"y": -2.8650485312,
				"z": -0.9851086609,
				"element": "C" 
			},
			{
				"x": 0.3596991486,
				"y": -3.1860334274,
				"z": -3.1538193774,
				"element": "H" 
			},
			{
				"x": 0.4826753441,
				"y": 0.2895357032,
				"z": -0.724192866,
				"element": "H" 
			},
			{
				"x": 2.4667416729,
				"y": 0.7218374518,
				"z": 2.224931139,
				"element": "H" 
			},
			{
				"x": 3.2505601291,
				"y": 3.0744271577,
				"z": 1.9065839398,
				"element": "H" 
			},
			{
				"x": 1.6394255302,
				"y": 4.8297709302,
				"z": 1.1985178214,
				"element": "H" 
			},
			{
				"x": -0.7448785031,
				"y": 4.2404703926,
				"z": 0.8169490529,
				"element": "H" 
			},
			{
				"x": -1.5150332387,
				"y": 1.8905113851,
				"z": 1.1477621247,
				"element": "H" 
			},
			{
				"x": -1.432667674,
				"y": -3.9797960566,
				"z": 0.7268383076,
				"element": "H" 
			},
			{
				"x": -1.0113009818,
				"y": -3.6405862318,
				"z": -1.6942849205,
				"element": "H" 
			}
		],
		 "valence_orbital": [ 
			{
				"type": "occ",
				"energy": -0.28553,
				"method": "rhf"
			},
			{
				"type": "occ",
				"energy": -0.27755,
				"method": "rhf"
			},
			{
				"type": "occ",
				"energy": -0.26542,
				"method": "rhf"
			},
			{
				"type": "occ",
				"energy": -0.25802,
				"method": "rhf"
			},
			{
				"type": "occ",
				"energy": -0.24848,
				"method": "rhf"
			},
			{
				"type": "unocc",
				"energy": -0.06837,
				"method": "rhf"
			},
			{
				"type": "unocc",
				"energy": -0.02354,
				"method": "rhf"
			},
			{
				"type": "unocc",
				"energy": -0.01377,
				"method": "rhf"
			},
			{
				"type": "unocc",
				"energy": -0.00959,
				"method": "rhf"
			},
			{
				"type": "unocc",
				"energy": 0.03947,
				"method": "rhf"
			}
		],
		"cosmo_sigma_profile": { 
			"-0.025": 0.0,
			"-0.024": 0.0,
			"-0.023": 0.0,
			"-0.022": 0.0,
			"-0.021": 0.0,
			"-0.02": 0.0,
			"-0.019": 0.460634717767,
			"-0.018": 1.24021097999,
			"-0.017": 1.068283077,
			"-0.016": 0.890523572759,
			"-0.015": 1.17400733286,
			"-0.014": 1.07189718941,
			"-0.013": 1.00316845044,
			"-0.012": 1.08994349154,
			"-0.011": 1.02800160398,
			"-0.01": 1.20949117495,
			"-0.009": 2.141516743,
			"-0.008": 3.1791352949,
			"-0.007": 8.6473423511,
			"-0.006": 14.8791502523,
			"-0.005": 15.1805121652,
			"-0.004": 17.4248221213,
			"-0.003": 15.4588250602,
			"-0.002": 16.1694136635,
			"-0.001": 18.8061496162,
			"0.0": 17.6353870442,
			"0.001": 15.7190906269,
			"0.002": 15.204568961,
			"0.003": 13.7958967547,
			"0.004": 13.5030243155,
			"0.005": 7.62226294409,
			"0.006": 3.97396612257,
			"0.007": 4.74904357663,
			"0.008": 4.96148566092,
			"0.009": 6.12554189535,
			"0.01": 6.79817852755,
			"0.011": 7.45642978957,
			"0.012": 3.98449753402,
			"0.013": 1.36845154084,
			"0.014": 1.20203911007,
			"0.015": 0.853163223207,
			"0.016": 0.101378565335,
			"0.017": 0.0,
			"0.018": 0.0,
			"0.019": 0.0,
			"0.02": 0.0,
			"0.021": 0.0,
			"0.022": 0.0,
			"0.023": 0.0,
			"0.024": 0.0,
			"0.025": 0.0
		}
	}
}
