{
	 "smiles": "NC(=O)OC1(CC#C)CCCCC1", 
	 "Tm": 372.15, 
	 "num_atms": 28, 
	 "gaussian": { 
		 "optdone": 1, 
		 "sigma_profile": "yes", 
		 "theory": "DFT", 
		 "functional": "B3LYP", 
		 "basiset": "6-31G**", 
		 "properties": { 
			 "R2extent": 2883.1081, 
			 "electric_dipole_moment_norm": 2.49204838637, 
			 "electric_quadrupole_moment_norm": 16.6072266752, 
			 "total_energy": -595.266021928, 
			 "HOMO_LUMO_gap": 0.30392, 
			 "cosmo_polarized_energy": -10.75, 
			 "cosmo_cavitation_energy": 29.35, 
			 "cosmo_dispersion_energy": -20.8, 
			 "cosmo_repulsion_energy": 1.67, 
			 "cosmo_total_nonelectrostatic_energy": 10.23, 
			 "SMD_solvation_energy": 6.65 
		},
		"coords": [
			{
				"x": -0.9912900817,
				"y": -3.9794299711,
				"z": -2.0580542912,
				"element": "N" 
			},
			{
				"x": -0.4417692814,
				"y": -2.7578126672,
				"z": -1.7935716766,
				"element": "C" 
			},
			{
				"x": 0.1823684253,
				"y": -2.1077051325,
				"z": -2.6121771041,
				"element": "O" 
			},
			{
				"x": -0.7113844773,
				"y": -2.4267146522,
				"z": -0.5084485449,
				"element": "O" 
			},
			{
				"x": -0.2912265917,
				"y": -1.1853630216,
				"z": 0.1619654753,
				"element": "C" 
			},
			{
				"x": -0.9238397056,
				"y": -1.470505764,
				"z": 1.5605692393,
				"element": "C" 
			},
			{
				"x": -0.7214241545,
				"y": -0.4271898581,
				"z": 2.5619017504,
				"element": "C" 
			},
			{
				"x": -0.5609433344,
				"y": 0.4287524696,
				"z": 3.3994505271,
				"element": "C" 
			},
			{
				"x": -0.9416540883,
				"y": 0.0702839822,
				"z": -0.457356688,
				"element": "C" 
			},
			{
				"x": -0.1558095828,
				"y": 0.7723003513,
				"z": -1.5777970251,
				"element": "C" 
			},
			{
				"x": 1.311701366,
				"y": 0.9849528778,
				"z": -1.181014939,
				"element": "C" 
			},
			{
				"x": 1.9847990382,
				"y": -0.3515106,
				"z": -0.8388183973,
				"element": "C" 
			},
			{
				"x": 1.2427586818,
				"y": -1.0762124299,
				"z": 0.2968654543,
				"element": "C" 
			},
			{
				"x": -1.5004436756,
				"y": -4.4869995789,
				"z": -1.3550998802,
				"element": "H" 
			},
			{
				"x": -0.8724118651,
				"y": -4.3601784411,
				"z": -2.9806567703,
				"element": "H" 
			},
			{
				"x": -0.5102924673,
				"y": -2.4179166931,
				"z": 1.9271400635,
				"element": "H" 
			},
			{
				"x": -1.9980215155,
				"y": -1.6362898228,
				"z": 1.4134927902,
				"element": "H" 
			},
			{
				"x": -0.4189647826,
				"y": 1.1842342568,
				"z": 4.1369808354,
				"element": "H" 
			},
			{
				"x": -1.9520702724,
				"y": -0.19655592,
				"z": -0.7895462081,
				"element": "H" 
			},
			{
				"x": -1.0648507708,
				"y": 0.7834452419,
				"z": 0.367214387,
				"element": "H" 
			},
			{
				"x": -0.1983179894,
				"y": 0.1795488348,
				"z": -2.4935195833,
				"element": "H" 
			},
			{
				"x": -0.6365675396,
				"y": 1.7367391535,
				"z": -1.7841028298,
				"element": "H" 
			},
			{
				"x": 1.8528624686,
				"y": 1.4799519858,
				"z": -1.9959017598,
				"element": "H" 
			},
			{
				"x": 1.366108422,
				"y": 1.6592255162,
				"z": -0.3130699338,
				"element": "H" 
			},
			{
				"x": 2.0101436025,
				"y": -0.9802031333,
				"z": -1.730900856,
				"element": "H" 
			},
			{
				"x": 3.0215817793,
				"y": -0.1837391747,
				"z": -0.5213755066,
				"element": "H" 
			},
			{
				"x": 1.6449442139,
				"y": -2.0843983224,
				"z": 0.4527807123,
				"element": "H" 
			},
			{
				"x": 1.4246141783,
				"y": -0.5229094872,
				"z": 1.2266507591,
				"element": "H" 
			}
		],
		 "valence_orbital": [ 
			{
				"type": "occ",
				"energy": -0.27834,
				"method": "rhf"
			},
			{
				"type": "occ",
				"energy": -0.2702,
				"method": "rhf"
			},
			{
				"type": "occ",
				"energy": -0.27008,
				"method": "rhf"
			},
			{
				"type": "occ",
				"energy": -0.26397,
				"method": "rhf"
			},
			{
				"type": "occ",
				"energy": -0.25926,
				"method": "rhf"
			},
			{
				"type": "unocc",
				"energy": 0.04466,
				"method": "rhf"
			},
			{
				"type": "unocc",
				"energy": 0.05143,
				"method": "rhf"
			},
			{
				"type": "unocc",
				"energy": 0.06156,
				"method": "rhf"
			},
			{
				"type": "unocc",
				"energy": 0.07726,
				"method": "rhf"
			},
			{
				"type": "unocc",
				"energy": 0.10044,
				"method": "rhf"
			}
		],
		"cosmo_sigma_profile": { 
			"-0.025": 0.0,
			"-0.024": 0.0,
			"-0.023": 0.0,
			"-0.022": 0.0,
			"-0.021": 0.0,
			"-0.02": 0.0,
			"-0.019": 0.0,
			"-0.018": 0.0,
			"-0.017": 0.0,
			"-0.016": 0.0,
			"-0.015": 0.179073119748,
			"-0.014": 1.70400197308,
			"-0.013": 2.34518139689,
			"-0.012": 2.34989388921,
			"-0.011": 3.34812808311,
			"-0.01": 2.92281429858,
			"-0.009": 2.66505849984,
			"-0.008": 2.47021091018,
			"-0.007": 2.97651129126,
			"-0.006": 4.04804738397,
			"-0.005": 5.63834035429,
			"-0.004": 7.37286223386,
			"-0.003": 12.7021167897,
			"-0.002": 20.9430244653,
			"-0.001": 27.7537796826,
			"0.0": 28.7312665492,
			"0.001": 25.8786715452,
			"0.002": 17.8476256507,
			"0.003": 10.3372208635,
			"0.004": 12.2878736839,
			"0.005": 10.8193853807,
			"0.006": 7.14681346694,
			"0.007": 5.36434632474,
			"0.008": 1.46705821263,
			"0.009": 2.12230793721,
			"0.01": 1.56046352889,
			"0.011": 1.65580773152,
			"0.012": 1.01443853354,
			"0.013": 2.08744979451,
			"0.014": 1.8370484034,
			"0.015": 0.0316618907802,
			"0.016": 0.0,
			"0.017": 0.0,
			"0.018": 0.0,
			"0.019": 0.0,
			"0.02": 0.0,
			"0.021": 0.0,
			"0.022": 0.0,
			"0.023": 0.0,
			"0.024": 0.0,
			"0.025": 0.0
		}
	}
}
