{
	 "smiles": "OC(=O)CCCNC(=O)C1=CC=CC=C1", 
	 "Tm": 361.15, 
	 "num_atms": 28, 
	 "gaussian": { 
		 "optdone": 1, 
		 "sigma_profile": "yes", 
		 "theory": "DFT", 
		 "functional": "B3LYP", 
		 "basiset": "6-31G**", 
		 "properties": { 
			 "R2extent": 4334.5444, 
			 "electric_dipole_moment_norm": 3.33106874591, 
			 "electric_quadrupole_moment_norm": 19.9813197269, 
			 "total_energy": -707.460067142, 
			 "HOMO_LUMO_gap": 0.2075, 
			 "cosmo_polarized_energy": -17.92, 
			 "cosmo_cavitation_energy": 32.63, 
			 "cosmo_dispersion_energy": -22.07, 
			 "cosmo_repulsion_energy": 1.79, 
			 "cosmo_total_nonelectrostatic_energy": 12.35, 
			 "SMD_solvation_energy": 6.38 
		},
		"coords": [
			{
				"x": 4.9106781654,
				"y": -0.6992248438,
				"z": 0.4682457891,
				"element": "O" 
			},
			{
				"x": 3.8454722001,
				"y": -1.2594535382,
				"z": 1.0891926379,
				"element": "C" 
			},
			{
				"x": 3.2590504112,
				"y": -2.2204615236,
				"z": 0.6376970273,
				"element": "O" 
			},
			{
				"x": 3.4692318804,
				"y": -0.518331308,
				"z": 2.3536907497,
				"element": "C" 
			},
			{
				"x": 2.3378039802,
				"y": 0.503753531,
				"z": 2.1028061298,
				"element": "C" 
			},
			{
				"x": 1.0048463755,
				"y": -0.1458653472,
				"z": 1.693906494,
				"element": "C" 
			},
			{
				"x": -0.0715413881,
				"y": 0.8311551609,
				"z": 1.5473421233,
				"element": "N" 
			},
			{
				"x": -0.4172041705,
				"y": 1.537537913,
				"z": 0.411423921,
				"element": "C" 
			},
			{
				"x": -0.9029553912,
				"y": 2.6613154462,
				"z": 0.4990081271,
				"element": "O" 
			},
			{
				"x": -0.2431229607,
				"y": 0.8781721255,
				"z": -0.9277147362,
				"element": "C" 
			},
			{
				"x": 0.1164756954,
				"y": 1.6936821221,
				"z": -2.0097474919,
				"element": "C" 
			},
			{
				"x": 0.2373390344,
				"y": 1.1544834095,
				"z": -3.2884781963,
				"element": "C" 
			},
			{
				"x": -0.0279406433,
				"y": -0.2006273642,
				"z": -3.50466921,
				"element": "C" 
			},
			{
				"x": -0.4176384201,
				"y": -1.0123073342,
				"z": -2.4379590924,
				"element": "C" 
			},
			{
				"x": -0.5220104648,
				"y": -0.4772978698,
				"z": -1.1532391591,
				"element": "C" 
			},
			{
				"x": 5.0497816773,
				"y": -1.211225328,
				"z": -0.3468488872,
				"element": "H" 
			},
			{
				"x": 3.1406363818,
				"y": -1.2643586308,
				"z": 3.0840745066,
				"element": "H" 
			},
			{
				"x": 4.3482656112,
				"y": -0.0040609601,
				"z": 2.7497734903,
				"element": "H" 
			},
			{
				"x": 2.1925949056,
				"y": 1.0817614941,
				"z": 3.0238660589,
				"element": "H" 
			},
			{
				"x": 2.6469935798,
				"y": 1.2183866653,
				"z": 1.3309361263,
				"element": "H" 
			},
			{
				"x": 0.7075874527,
				"y": -0.884933455,
				"z": 2.4485670722,
				"element": "H" 
			},
			{
				"x": 1.1254953602,
				"y": -0.6895524331,
				"z": 0.7580149181,
				"element": "H" 
			},
			{
				"x": -0.261002715,
				"y": 1.3911153805,
				"z": 2.372097396,
				"element": "H" 
			},
			{
				"x": 0.2880627461,
				"y": 2.7498677483,
				"z": -1.8297152952,
				"element": "H" 
			},
			{
				"x": 0.5282705785,
				"y": 1.7914441288,
				"z": -4.1188621293,
				"element": "H" 
			},
			{
				"x": 0.0589817993,
				"y": -0.6198358671,
				"z": -4.5030811104,
				"element": "H" 
			},
			{
				"x": -0.6450302541,
				"y": -2.0610562788,
				"z": -2.6050647533,
				"element": "H" 
			},
			{
				"x": -0.848421427,
				"y": -1.1067830433,
				"z": -0.3312625064,
				"element": "H" 
			}
		],
		 "valence_orbital": [ 
			{
				"type": "occ",
				"energy": -0.28011,
				"method": "rhf"
			},
			{
				"type": "occ",
				"energy": -0.2622,
				"method": "rhf"
			},
			{
				"type": "occ",
				"energy": -0.25489,
				"method": "rhf"
			},
			{
				"type": "occ",
				"energy": -0.25197,
				"method": "rhf"
			},
			{
				"type": "occ",
				"energy": -0.23699,
				"method": "rhf"
			},
			{
				"type": "unocc",
				"energy": -0.02949,
				"method": "rhf"
			},
			{
				"type": "unocc",
				"energy": -0.00559,
				"method": "rhf"
			},
			{
				"type": "unocc",
				"energy": -0.00225,
				"method": "rhf"
			},
			{
				"type": "unocc",
				"energy": 0.0527,
				"method": "rhf"
			},
			{
				"type": "unocc",
				"energy": 0.06952,
				"method": "rhf"
			}
		],
		"cosmo_sigma_profile": { 
			"-0.025": 0.0,
			"-0.024": 0.0,
			"-0.023": 0.0,
			"-0.022": 0.0,
			"-0.021": 0.0,
			"-0.02": 0.0,
			"-0.019": 0.0,
			"-0.018": 0.722146498309,
			"-0.017": 1.02344527566,
			"-0.016": 0.508667956206,
			"-0.015": 0.750585823112,
			"-0.014": 1.15373882525,
			"-0.013": 0.886765948799,
			"-0.012": 1.44082765436,
			"-0.011": 2.12830988567,
			"-0.01": 2.36119222598,
			"-0.009": 1.25723049104,
			"-0.008": 2.11866399591,
			"-0.007": 3.00186145984,
			"-0.006": 11.7337635469,
			"-0.005": 22.93669857,
			"-0.004": 30.3559967836,
			"-0.003": 22.3237954334,
			"-0.002": 20.9164577152,
			"-0.001": 15.9335325542,
			"0.0": 12.5923057033,
			"0.001": 10.509625839,
			"0.002": 11.6817802857,
			"0.003": 13.8262886829,
			"0.004": 15.3389656377,
			"0.005": 10.7847832277,
			"0.006": 3.66725848529,
			"0.007": 4.32795597033,
			"0.008": 3.98259807328,
			"0.009": 5.05281499435,
			"0.01": 3.36561769626,
			"0.011": 4.50895629078,
			"0.012": 6.3960069202,
			"0.013": 5.05183066678,
			"0.014": 4.60223848308,
			"0.015": 0.592129035907,
			"0.016": 0.0,
			"0.017": 0.0,
			"0.018": 0.0,
			"0.019": 0.0,
			"0.02": 0.0,
			"0.021": 0.0,
			"0.022": 0.0,
			"0.023": 0.0,
			"0.024": 0.0,
			"0.025": 0.0
		}
	}
}
