{
	 "smiles": "NC(C(O)=O)C1=CC=C(Cl)C=C1", 
	 "Tm": 493.15, 
	 "num_atms": 20, 
	 "gaussian": { 
		 "optdone": 1, 
		 "sigma_profile": "yes", 
		 "theory": "DFT", 
		 "functional": "B3LYP", 
		 "basiset": "6-31G**", 
		 "properties": { 
			 "R2extent": 3503.3792, 
			 "electric_dipole_moment_norm": 3.25369487352, 
			 "electric_quadrupole_moment_norm": 5.71472241408, 
			 "total_energy": -975.073955042, 
			 "HOMO_LUMO_gap": 0.22134, 
			 "cosmo_polarized_energy": -12.2, 
			 "cosmo_cavitation_energy": 26.11, 
			 "cosmo_dispersion_energy": -19.22, 
			 "cosmo_repulsion_energy": 1.55, 
			 "cosmo_total_nonelectrostatic_energy": 8.45, 
			 "SMD_solvation_energy": 4.57 
		},
		"coords": [
			{
				"x": -0.4245254504,
				"y": 1.0969044146,
				"z": -1.3869736903,
				"element": "N" 
			},
			{
				"x": -1.0601159344,
				"y": -0.0404207811,
				"z": -0.7320097074,
				"element": "C" 
			},
			{
				"x": -1.3084771536,
				"y": -1.2522021979,
				"z": -1.6419940142,
				"element": "C" 
			},
			{
				"x": -0.3626470737,
				"y": -1.3772555492,
				"z": -2.6029944349,
				"element": "O" 
			},
			{
				"x": -2.2296112091,
				"y": -2.0312394748,
				"z": -1.5266790382,
				"element": "O" 
			},
			{
				"x": -0.2769499213,
				"y": -0.4931025543,
				"z": 0.5093647888,
				"element": "C" 
			},
			{
				"x": 0.7823592741,
				"y": 0.2769577032,
				"z": 0.9988686146,
				"element": "C" 
			},
			{
				"x": 1.4841290285,
				"y": -0.1145241973,
				"z": 2.1403394604,
				"element": "C" 
			},
			{
				"x": 1.1155382631,
				"y": -1.2851964176,
				"z": 2.7983221664,
				"element": "C" 
			},
			{
				"x": 1.9952122942,
				"y": -1.7869837779,
				"z": 4.2369625755,
				"element": "Cl" 
			},
			{
				"x": 0.0556392449,
				"y": -2.0643743823,
				"z": 2.3351536453,
				"element": "C" 
			},
			{
				"x": -0.634816431,
				"y": -1.6637107445,
				"z": 1.1928691191,
				"element": "C" 
			},
			{
				"x": -1.045332733,
				"y": 1.4790143119,
				"z": -2.0947168695,
				"element": "H" 
			},
			{
				"x": 0.4137627451,
				"y": 0.787022133,
				"z": -1.8730154703,
				"element": "H" 
			},
			{
				"x": -2.0584819912,
				"y": 0.2727897296,
				"z": -0.4047099021,
				"element": "H" 
			},
			{
				"x": -0.5847965682,
				"y": -2.1825690506,
				"z": -3.1000939244,
				"element": "H" 
			},
			{
				"x": 1.0452368838,
				"y": 1.1974999467,
				"z": 0.4905584015,
				"element": "H" 
			},
			{
				"x": 2.3057673952,
				"y": 0.4855487494,
				"z": 2.5158881382,
				"element": "H" 
			},
			{
				"x": -0.2250532434,
				"y": -2.9702269432,
				"z": 2.8610588877,
				"element": "H" 
			},
			{
				"x": -1.4609374196,
				"y": -2.2684309177,
				"z": 0.832101254,
				"element": "H" 
			}
		],
		 "valence_orbital": [ 
			{
				"type": "occ",
				"energy": -0.30973,
				"method": "rhf"
			},
			{
				"type": "occ",
				"energy": -0.30758,
				"method": "rhf"
			},
			{
				"type": "occ",
				"energy": -0.2617,
				"method": "rhf"
			},
			{
				"type": "occ",
				"energy": -0.25317,
				"method": "rhf"
			},
			{
				"type": "occ",
				"energy": -0.23956,
				"method": "rhf"
			},
			{
				"type": "unocc",
				"energy": -0.01822,
				"method": "rhf"
			},
			{
				"type": "unocc",
				"energy": -0.01451,
				"method": "rhf"
			},
			{
				"type": "unocc",
				"energy": 0.00325,
				"method": "rhf"
			},
			{
				"type": "unocc",
				"energy": 0.03321,
				"method": "rhf"
			},
			{
				"type": "unocc",
				"energy": 0.05837,
				"method": "rhf"
			}
		],
		"cosmo_sigma_profile": { 
			"-0.025": 0.0,
			"-0.024": 0.0,
			"-0.023": 0.0,
			"-0.022": 0.0,
			"-0.021": 0.0,
			"-0.02": 0.0,
			"-0.019": 0.045528410706,
			"-0.018": 1.05940654211,
			"-0.017": 0.667266511224,
			"-0.016": 0.881633798865,
			"-0.015": 0.981331365156,
			"-0.014": 0.77019809417,
			"-0.013": 0.730998185067,
			"-0.012": 0.810311303015,
			"-0.011": 2.76781921085,
			"-0.01": 3.01909851016,
			"-0.009": 2.16884365773,
			"-0.008": 3.95925892929,
			"-0.007": 8.37898184322,
			"-0.006": 9.26543867014,
			"-0.005": 9.86313976784,
			"-0.004": 10.3215259677,
			"-0.003": 9.79809347939,
			"-0.002": 11.771504699,
			"-0.001": 12.4963484749,
			"0.0": 12.0120849611,
			"0.001": 15.2586815443,
			"0.002": 18.6569654422,
			"0.003": 19.6361351951,
			"0.004": 19.0655943169,
			"0.005": 11.5404871502,
			"0.006": 4.42392777364,
			"0.007": 3.4116627203,
			"0.008": 1.32206749909,
			"0.009": 2.1426335508,
			"0.01": 2.51432572309,
			"0.011": 4.55110999887,
			"0.012": 3.72764673687,
			"0.013": 0.331776746651,
			"0.014": 0.832092339259,
			"0.015": 0.424880178314,
			"0.016": 0.131793178862,
			"0.017": 0.0,
			"0.018": 0.0,
			"0.019": 0.0,
			"0.02": 0.0,
			"0.021": 0.0,
			"0.022": 0.0,
			"0.023": 0.0,
			"0.024": 0.0,
			"0.025": 0.0
		}
	}
}
