{
	 "smiles": "CC1=CC(C)=C(CC2=CN=C(NC3=NCCN3)S2)C(C)=C1", 
	 "Tm": 466.15, 
	 "num_atms": 41, 
	 "gaussian": { 
		 "optdone": 1, 
		 "sigma_profile": "yes", 
		 "theory": "DFT", 
		 "functional": "B3LYP", 
		 "basiset": "6-31G**", 
		 "properties": { 
			 "R2extent": 8791.1936, 
			 "electric_dipole_moment_norm": 2.69438265471, 
			 "electric_quadrupole_moment_norm": 22.0165185059, 
			 "total_energy": -1238.96071242, 
			 "HOMO_LUMO_gap": 0.19358, 
			 "cosmo_polarized_energy": -17.47, 
			 "cosmo_cavitation_energy": 44.18, 
			 "cosmo_dispersion_energy": -31.88, 
			 "cosmo_repulsion_energy": 2.43, 
			 "cosmo_total_nonelectrostatic_energy": 14.74, 
			 "SMD_solvation_energy": 1.64 
		},
		"coords": [
			{
				"x": 2.3804467411,
				"y": 4.6845970454,
				"z": -1.2557916052,
				"element": "C" 
			},
			{
				"x": 1.5261014571,
				"y": 3.7482614569,
				"z": -0.4337475206,
				"element": "C" 
			},
			{
				"x": 2.0259745953,
				"y": 3.1457096111,
				"z": 0.7237141433,
				"element": "C" 
			},
			{
				"x": 1.2636987932,
				"y": 2.2510504736,
				"z": 1.4807451479,
				"element": "C" 
			},
			{
				"x": 1.8631741751,
				"y": 1.646293637,
				"z": 2.7305347075,
				"element": "C" 
			},
			{
				"x": -0.0516479269,
				"y": 1.941305169,
				"z": 1.0723359901,
				"element": "C" 
			},
			{
				"x": -0.8920048988,
				"y": 0.9641081959,
				"z": 1.8862718376,
				"element": "C" 
			},
			{
				"x": -0.5753783964,
				"y": -0.4967514568,
				"z": 1.6747725286,
				"element": "C" 
			},
			{
				"x": -0.3253064611,
				"y": -1.4525240023,
				"z": 2.6151866843,
				"element": "C" 
			},
			{
				"x": -0.1147185514,
				"y": -2.738612059,
				"z": 2.1669074412,
				"element": "N" 
			},
			{
				"x": -0.2016130415,
				"y": -2.7744901237,
				"z": 0.8661968704,
				"element": "C" 
			},
			{
				"x": -0.0281640303,
				"y": -3.9701804545,
				"z": 0.1876933926,
				"element": "N" 
			},
			{
				"x": -0.0531658055,
				"y": -4.1508778984,
				"z": -1.1754551924,
				"element": "C" 
			},
			{
				"x": -0.2556401193,
				"y": -3.2156127629,
				"z": -2.0301994637,
				"element": "N" 
			},
			{
				"x": -0.1620947603,
				"y": -3.8482134068,
				"z": -3.3519852961,
				"element": "C" 
			},
			{
				"x": -0.1848886746,
				"y": -5.3814511509,
				"z": -3.089548086,
				"element": "C" 
			},
			{
				"x": 0.2000693853,
				"y": -5.4406349566,
				"z": -1.6658145364,
				"element": "N" 
			},
			{
				"x": -0.5350921806,
				"y": -1.2403747503,
				"z": 0.0776136991,
				"element": "S" 
			},
			{
				"x": -0.5774064426,
				"y": 2.5479820723,
				"z": -0.0872880148,
				"element": "C" 
			},
			{
				"x": -1.989098338,
				"y": 2.277208391,
				"z": -0.5669510421,
				"element": "C" 
			},
			{
				"x": 0.2199673107,
				"y": 3.4381991201,
				"z": -0.816836674,
				"element": "C" 
			},
			{
				"x": 3.06262502,
				"y": 5.2631472572,
				"z": -0.6247823537,
				"element": "H" 
			},
			{
				"x": 2.9967402253,
				"y": 4.1313258856,
				"z": -1.9758663087,
				"element": "H" 
			},
			{
				"x": 1.7677634132,
				"y": 5.3889587991,
				"z": -1.826657768,
				"element": "H" 
			},
			{
				"x": 3.037913282,
				"y": 3.3779366922,
				"z": 1.0496958201,
				"element": "H" 
			},
			{
				"x": 1.3127151935,
				"y": 1.9471299744,
				"z": 3.6312938231,
				"element": "H" 
			},
			{
				"x": 1.8484356298,
				"y": 0.552158332,
				"z": 2.6996476106,
				"element": "H" 
			},
			{
				"x": 2.8998865702,
				"y": 1.9684617826,
				"z": 2.8587201369,
				"element": "H" 
			},
			{
				"x": -0.7620959787,
				"y": 1.1620575237,
				"z": 2.9566661295,
				"element": "H" 
			},
			{
				"x": -1.9538135348,
				"y": 1.1360275285,
				"z": 1.6804940642,
				"element": "H" 
			},
			{
				"x": -0.2894855899,
				"y": -1.2619830624,
				"z": 3.6828552271,
				"element": "H" 
			},
			{
				"x": 0.271847235,
				"y": -4.7306352841,
				"z": 0.7813379538,
				"element": "H" 
			},
			{
				"x": -0.9814187632,
				"y": -3.5256573226,
				"z": -4.0024465343,
				"element": "H" 
			},
			{
				"x": 0.7762918982,
				"y": -3.5463581121,
				"z": -3.8363703391,
				"element": "H" 
			},
			{
				"x": -1.1884438636,
				"y": -5.7997035491,
				"z": -3.2477550145,
				"element": "H" 
			},
			{
				"x": 0.5222762848,
				"y": -5.9349930408,
				"z": -3.7132379401,
				"element": "H" 
			},
			{
				"x": -0.2073250011,
				"y": -6.2011247518,
				"z": -1.1330026656,
				"element": "H" 
			},
			{
				"x": -2.1817557765,
				"y": 2.8030408114,
				"z": -1.505744883,
				"element": "H" 
			},
			{
				"x": -2.1716047237,
				"y": 1.2118626572,
				"z": -0.7453031172,
				"element": "H" 
			},
			{
				"x": -2.7405553309,
				"y": 2.6163792882,
				"z": 0.1566747756,
				"element": "H" 
			},
			{
				"x": -0.1950090204,
				"y": 3.9014764406,
				"z": -1.7095736279,
				"element": "H" 
			}
		],
		 "valence_orbital": [ 
			{
				"type": "occ",
				"energy": -0.26182,
				"method": "rhf"
			},
			{
				"type": "occ",
				"energy": -0.22675,
				"method": "rhf"
			},
			{
				"type": "occ",
				"energy": -0.22539,
				"method": "rhf"
			},
			{
				"type": "occ",
				"energy": -0.21934,
				"method": "rhf"
			},
			{
				"type": "occ",
				"energy": -0.19924,
				"method": "rhf"
			},
			{
				"type": "unocc",
				"energy": -0.00566,
				"method": "rhf"
			},
			{
				"type": "unocc",
				"energy": 0.0087,
				"method": "rhf"
			},
			{
				"type": "unocc",
				"energy": 0.01529,
				"method": "rhf"
			},
			{
				"type": "unocc",
				"energy": 0.0417,
				"method": "rhf"
			},
			{
				"type": "unocc",
				"energy": 0.05148,
				"method": "rhf"
			}
		],
		"cosmo_sigma_profile": { 
			"-0.025": 0.0,
			"-0.024": 0.0,
			"-0.023": 0.0,
			"-0.022": 0.0,
			"-0.021": 0.0,
			"-0.02": 0.0,
			"-0.019": 0.0,
			"-0.018": 0.0,
			"-0.017": 0.0147921870185,
			"-0.016": 1.29689054836,
			"-0.015": 1.88349578569,
			"-0.014": 2.09162989338,
			"-0.013": 2.06796544061,
			"-0.012": 2.5757403312,
			"-0.011": 1.68445152688,
			"-0.01": 1.18172722391,
			"-0.009": 1.6626255475,
			"-0.008": 1.63826075425,
			"-0.007": 1.93380715867,
			"-0.006": 3.78222999985,
			"-0.005": 12.2010442843,
			"-0.004": 34.8088728267,
			"-0.003": 38.4422436779,
			"-0.002": 34.9639491864,
			"-0.001": 32.2683661882,
			"0.0": 34.494589218,
			"0.001": 28.8366834378,
			"0.002": 20.0239042132,
			"0.003": 18.0212699747,
			"0.004": 15.7184129591,
			"0.005": 14.7115864456,
			"0.006": 11.1175943294,
			"0.007": 9.67172420285,
			"0.008": 4.60687482484,
			"0.009": 2.90698963965,
			"0.01": 3.53499709318,
			"0.011": 2.77005904179,
			"0.012": 3.26036604618,
			"0.013": 3.17779499678,
			"0.014": 2.03779557037,
			"0.015": 0.725440381836,
			"0.016": 0.0947604148056,
			"0.017": 0.0,
			"0.018": 0.0,
			"0.019": 0.0,
			"0.02": 0.0,
			"0.021": 0.0,
			"0.022": 0.0,
			"0.023": 0.0,
			"0.024": 0.0,
			"0.025": 0.0
		}
	}
}
