{
	 "smiles": "COC(=O)C1=CC(=CC=C1)C1=NNN=N1", 
	 "Tm": 463.15, 
	 "num_atms": 23, 
	 "gaussian": { 
		 "optdone": 1, 
		 "sigma_profile": "yes", 
		 "theory": "DFT", 
		 "functional": "B3LYP", 
		 "basiset": "6-31G**", 
		 "properties": { 
			 "R2extent": 4566.7135, 
			 "electric_dipole_moment_norm": 1.125402177, 
			 "electric_quadrupole_moment_norm": 21.0774522763, 
			 "total_energy": -717.196891312, 
			 "HOMO_LUMO_gap": 0.19653, 
			 "cosmo_polarized_energy": -15.13, 
			 "cosmo_cavitation_energy": 28.89, 
			 "cosmo_dispersion_energy": -21.4, 
			 "cosmo_repulsion_energy": 1.67, 
			 "cosmo_total_nonelectrostatic_energy": 9.15, 
			 "SMD_solvation_energy": 4.3 
		},
		"coords": [
			{
				"x": 2.6312979891,
				"y": 3.0402857766,
				"z": -1.0051393392,
				"element": "C" 
			},
			{
				"x": 2.1165766222,
				"y": 1.7189018841,
				"z": -1.230476077,
				"element": "O" 
			},
			{
				"x": 0.8955645373,
				"y": 1.4790732243,
				"z": -0.6999422919,
				"element": "C" 
			},
			{
				"x": 0.267908326,
				"y": 2.3116768657,
				"z": -0.0754869953,
				"element": "O" 
			},
			{
				"x": 0.420902933,
				"y": 0.0907182397,
				"z": -0.9703913954,
				"element": "C" 
			},
			{
				"x": -0.8323174382,
				"y": -0.2736363974,
				"z": -0.4692858677,
				"element": "C" 
			},
			{
				"x": -1.3312571215,
				"y": -1.5617324257,
				"z": -0.6905346774,
				"element": "C" 
			},
			{
				"x": -0.5647117552,
				"y": -2.4851792694,
				"z": -1.4189795607,
				"element": "C" 
			},
			{
				"x": 0.6842440163,
				"y": -2.1189278653,
				"z": -1.9172256049,
				"element": "C" 
			},
			{
				"x": 1.1825515358,
				"y": -0.8354432581,
				"z": -1.6973621206,
				"element": "C" 
			},
			{
				"x": -2.6448960299,
				"y": -1.9543021498,
				"z": -0.1693120741,
				"element": "C" 
			},
			{
				"x": -3.4496928385,
				"y": -1.1529489711,
				"z": 0.5333940378,
				"element": "N" 
			},
			{
				"x": -4.4791767514,
				"y": -1.9598127007,
				"z": 0.7579905253,
				"element": "N" 
			},
			{
				"x": -4.356911494,
				"y": -3.1810457718,
				"z": 0.2468389931,
				"element": "N" 
			},
			{
				"x": -3.1933918759,
				"y": -3.1927639262,
				"z": -0.347215595,
				"element": "N" 
			},
			{
				"x": 1.9672211709,
				"y": 3.7913355956,
				"z": -1.4402652709,
				"element": "H" 
			},
			{
				"x": 3.6065759516,
				"y": 3.0629116205,
				"z": -1.4911939942,
				"element": "H" 
			},
			{
				"x": 2.7304028282,
				"y": 3.2373251554,
				"z": 0.0652645212,
				"element": "H" 
			},
			{
				"x": -1.4073679586,
				"y": 0.4552761619,
				"z": 0.0904845449,
				"element": "H" 
			},
			{
				"x": -0.9584610071,
				"y": -3.4820357409,
				"z": -1.5863666575,
				"element": "H" 
			},
			{
				"x": 1.2713536614,
				"y": -2.8384638568,
				"z": -2.4796765565,
				"element": "H" 
			},
			{
				"x": 2.1530408954,
				"y": -0.5451262091,
				"z": -2.08239513,
				"element": "H" 
			},
			{
				"x": -5.2967561969,
				"y": -1.6713859816,
				"z": 1.2783765859,
				"element": "H" 
			}
		],
		 "valence_orbital": [ 
			{
				"type": "occ",
				"energy": -0.30405,
				"method": "rhf"
			},
			{
				"type": "occ",
				"energy": -0.29742,
				"method": "rhf"
			},
			{
				"type": "occ",
				"energy": -0.27596,
				"method": "rhf"
			},
			{
				"type": "occ",
				"energy": -0.26453,
				"method": "rhf"
			},
			{
				"type": "occ",
				"energy": -0.2492,
				"method": "rhf"
			},
			{
				"type": "unocc",
				"energy": -0.05267,
				"method": "rhf"
			},
			{
				"type": "unocc",
				"energy": -0.04347,
				"method": "rhf"
			},
			{
				"type": "unocc",
				"energy": -0.02251,
				"method": "rhf"
			},
			{
				"type": "unocc",
				"energy": 0.03398,
				"method": "rhf"
			},
			{
				"type": "unocc",
				"energy": 0.06214,
				"method": "rhf"
			}
		],
		"cosmo_sigma_profile": { 
			"-0.025": 0.0,
			"-0.024": 0.0,
			"-0.023": 0.0,
			"-0.022": 0.0,
			"-0.021": 0.0,
			"-0.02": 0.704835429124,
			"-0.019": 2.1477130443,
			"-0.018": 1.1168087586,
			"-0.017": 1.11447635357,
			"-0.016": 0.733620730648,
			"-0.015": 1.56735697242,
			"-0.014": 0.590518144918,
			"-0.013": 0.368943163146,
			"-0.012": 0.829267858349,
			"-0.011": 1.13110811361,
			"-0.01": 0.431670354292,
			"-0.009": 0.614070131596,
			"-0.008": 0.799181432885,
			"-0.007": 4.307482406,
			"-0.006": 11.6710998723,
			"-0.005": 12.484519756,
			"-0.004": 15.9174736852,
			"-0.003": 18.6630881897,
			"-0.002": 14.7894943017,
			"-0.001": 17.6781348125,
			"0.0": 19.8776398823,
			"0.001": 19.0006314518,
			"0.002": 20.8682890291,
			"0.003": 13.0017283653,
			"0.004": 6.65917380941,
			"0.005": 6.41609241876,
			"0.006": 5.63169542392,
			"0.007": 5.27565997545,
			"0.008": 5.46855553321,
			"0.009": 6.4740059551,
			"0.01": 4.41892625489,
			"0.011": 6.29409428106,
			"0.012": 4.94042348653,
			"0.013": 0.411161997216,
			"0.014": 0.0,
			"0.015": 0.0,
			"0.016": 0.0,
			"0.017": 0.0,
			"0.018": 0.0,
			"0.019": 0.0,
			"0.02": 0.0,
			"0.021": 0.0,
			"0.022": 0.0,
			"0.023": 0.0,
			"0.024": 0.0,
			"0.025": 0.0
		}
	}
}
