{
	 "smiles": "CC(C)C[C@H](NC(C)=O)C(O)=O", 
	 "Tm": 451.15, 
	 "num_atms": 27, 
	 "gaussian": { 
		 "optdone": 1, 
		 "sigma_profile": "yes", 
		 "theory": "DFT", 
		 "functional": "B3LYP", 
		 "basiset": "6-31G**", 
		 "properties": { 
			 "R2extent": 3123.9453, 
			 "electric_dipole_moment_norm": 3.91210911019, 
			 "electric_quadrupole_moment_norm": 16.6484921554, 
			 "total_energy": -594.348333764, 
			 "HOMO_LUMO_gap": 0.23355, 
			 "cosmo_polarized_energy": -15.49, 
			 "cosmo_cavitation_energy": 29.18, 
			 "cosmo_dispersion_energy": -20.21, 
			 "cosmo_repulsion_energy": 1.64, 
			 "cosmo_total_nonelectrostatic_energy": 10.61, 
			 "SMD_solvation_energy": 6.53 
		},
		"coords": [
			{
				"x": -1.1546167287,
				"y": 1.2263641792,
				"z": -2.6328851588,
				"element": "C" 
			},
			{
				"x": -1.7969065374,
				"y": 0.9960308562,
				"z": -1.2564303486,
				"element": "C" 
			},
			{
				"x": -2.5472398995,
				"y": -0.3452851585,
				"z": -1.2293479643,
				"element": "C" 
			},
			{
				"x": -0.7204534226,
				"y": 1.1207963044,
				"z": -0.1562028583,
				"element": "C" 
			},
			{
				"x": -1.2642099084,
				"y": 1.0820851685,
				"z": 1.2857202054,
				"element": "C" 
			},
			{
				"x": -0.4297443114,
				"y": 1.7755553729,
				"z": 2.2780008303,
				"element": "N" 
			},
			{
				"x": 0.9060143582,
				"y": 1.6623864161,
				"z": 2.6295153804,
				"element": "C" 
			},
			{
				"x": 1.8516086497,
				"y": 0.8942805263,
				"z": 1.7254945206,
				"element": "C" 
			},
			{
				"x": 1.2979328999,
				"y": 2.2189725741,
				"z": 3.6461424386,
				"element": "O" 
			},
			{
				"x": -1.6225925277,
				"y": -0.3123601698,
				"z": 1.8179615114,
				"element": "C" 
			},
			{
				"x": -0.6474771888,
				"y": -1.2297688006,
				"z": 1.6069238388,
				"element": "O" 
			},
			{
				"x": -2.6442386393,
				"y": -0.5751828068,
				"z": 2.411886728,
				"element": "O" 
			},
			{
				"x": -0.4119542001,
				"y": 0.4500786746,
				"z": -2.8534927343,
				"element": "H" 
			},
			{
				"x": -0.6486192526,
				"y": 2.1965073004,
				"z": -2.6840305932,
				"element": "H" 
			},
			{
				"x": -1.9080312638,
				"y": 1.1983714801,
				"z": -3.4268115826,
				"element": "H" 
			},
			{
				"x": -2.5323116808,
				"y": 1.7978984416,
				"z": -1.0913780998,
				"element": "H" 
			},
			{
				"x": -1.8503624304,
				"y": -1.186326884,
				"z": -1.3263723361,
				"element": "H" 
			},
			{
				"x": -3.1200031449,
				"y": -0.4846085534,
				"z": -0.307755929,
				"element": "H" 
			},
			{
				"x": -3.2560293096,
				"y": -0.404211313,
				"z": -2.0619783438,
				"element": "H" 
			},
			{
				"x": -0.2164231013,
				"y": 2.0866770602,
				"z": -0.2741530634,
				"element": "H" 
			},
			{
				"x": 0.0355677415,
				"y": 0.3433485491,
				"z": -0.3023806806,
				"element": "H" 
			},
			{
				"x": -2.2154305128,
				"y": 1.6217957557,
				"z": 1.3006398939,
				"element": "H" 
			},
			{
				"x": -0.9442227202,
				"y": 2.255730318,
				"z": 3.0063257571,
				"element": "H" 
			},
			{
				"x": 2.81827426,
				"y": 0.8560992141,
				"z": 2.2272589568,
				"element": "H" 
			},
			{
				"x": 1.4936040899,
				"y": -0.1189103153,
				"z": 1.530934444,
				"element": "H" 
			},
			{
				"x": 1.9717079246,
				"y": 1.4042147374,
				"z": 0.764976736,
				"element": "H" 
			},
			{
				"x": -0.9468431437,
				"y": -2.0491389277,
				"z": 2.0371384515,
				"element": "H" 
			}
		],
		 "valence_orbital": [ 
			{
				"type": "occ",
				"energy": -0.33431,
				"method": "rhf"
			},
			{
				"type": "occ",
				"energy": -0.32915,
				"method": "rhf"
			},
			{
				"type": "occ",
				"energy": -0.29499,
				"method": "rhf"
			},
			{
				"type": "occ",
				"energy": -0.25175,
				"method": "rhf"
			},
			{
				"type": "occ",
				"energy": -0.24541,
				"method": "rhf"
			},
			{
				"type": "unocc",
				"energy": -0.01186,
				"method": "rhf"
			},
			{
				"type": "unocc",
				"energy": 0.02859,
				"method": "rhf"
			},
			{
				"type": "unocc",
				"energy": 0.05552,
				"method": "rhf"
			},
			{
				"type": "unocc",
				"energy": 0.08004,
				"method": "rhf"
			},
			{
				"type": "unocc",
				"energy": 0.08332,
				"method": "rhf"
			}
		],
		"cosmo_sigma_profile": { 
			"-0.025": 0.0,
			"-0.024": 0.0,
			"-0.023": 0.0,
			"-0.022": 0.0,
			"-0.021": 0.0,
			"-0.02": 0.0,
			"-0.019": 0.193350681129,
			"-0.018": 0.739256168317,
			"-0.017": 0.928188378914,
			"-0.016": 0.823501868354,
			"-0.015": 1.07415829128,
			"-0.014": 0.94912185299,
			"-0.013": 1.46646892639,
			"-0.012": 1.89481140554,
			"-0.011": 2.14113719552,
			"-0.01": 1.89190279961,
			"-0.009": 1.68822437415,
			"-0.008": 1.64847889231,
			"-0.007": 3.04095276837,
			"-0.006": 4.65371433143,
			"-0.005": 7.31728090798,
			"-0.004": 9.8973364089,
			"-0.003": 23.2170787601,
			"-0.002": 30.6896616196,
			"-0.001": 28.3910857515,
			"0.0": 25.1927142234,
			"0.001": 19.7128065087,
			"0.002": 10.890967188,
			"0.003": 4.73314747305,
			"0.004": 3.99260742051,
			"0.005": 2.95153042411,
			"0.006": 3.22235074714,
			"0.007": 2.40275824756,
			"0.008": 3.48221338492,
			"0.009": 2.36489151454,
			"0.01": 3.34410607703,
			"0.011": 5.52886984563,
			"0.012": 5.35364765799,
			"0.013": 4.15880881193,
			"0.014": 5.19434563134,
			"0.015": 1.06498629216,
			"0.016": 0.00673680766979,
			"0.017": 0.0,
			"0.018": 0.0,
			"0.019": 0.0,
			"0.02": 0.0,
			"0.021": 0.0,
			"0.022": 0.0,
			"0.023": 0.0,
			"0.024": 0.0,
			"0.025": 0.0
		}
	}
}
