{
	 "smiles": "C1CCC(CC1)NC1=CC=CC=C1", 
	 "Tm": 288.65, 
	 "num_atms": 30, 
	 "gaussian": { 
		 "optdone": 1, 
		 "sigma_profile": "yes", 
		 "theory": "DFT", 
		 "functional": "B3LYP", 
		 "basiset": "6-31G**", 
		 "properties": { 
			 "R2extent": 3184.1817, 
			 "electric_dipole_moment_norm": 1.94739407928, 
			 "electric_quadrupole_moment_norm": 5.12700779012, 
			 "total_energy": -522.282254079, 
			 "HOMO_LUMO_gap": 0.19728, 
			 "cosmo_polarized_energy": -6.05, 
			 "cosmo_cavitation_energy": 30.06, 
			 "cosmo_dispersion_energy": -22.19, 
			 "cosmo_repulsion_energy": 1.75, 
			 "cosmo_total_nonelectrostatic_energy": 9.62, 
			 "SMD_solvation_energy": 3.9 
		},
		"coords": [
			{
				"x": -0.7079905263,
				"y": 2.6289926463,
				"z": -0.3895278414,
				"element": "C" 
			},
			{
				"x": 0.3800659289,
				"y": 1.9664464803,
				"z": -1.2692269899,
				"element": "C" 
			},
			{
				"x": 1.5161873992,
				"y": 1.3361026125,
				"z": -0.4334587117,
				"element": "C" 
			},
			{
				"x": 1.0044363671,
				"y": 0.7432607346,
				"z": 0.8955065833,
				"element": "C" 
			},
			{
				"x": 0.4017933175,
				"y": 1.8763083415,
				"z": 1.772177451,
				"element": "C" 
			},
			{
				"x": -0.1294465634,
				"y": 3.0777791273,
				"z": 0.9580856203,
				"element": "C" 
			},
			{
				"x": 0.0100319459,
				"y": -0.3071834473,
				"z": 0.6646945809,
				"element": "N" 
			},
			{
				"x": 0.3269702635,
				"y": -1.6394815546,
				"z": 0.4320164454,
				"element": "C" 
			},
			{
				"x": 1.6325404749,
				"y": -2.075100572,
				"z": 0.1311661492,
				"element": "C" 
			},
			{
				"x": 1.8885664509,
				"y": -3.4266530359,
				"z": -0.1064441487,
				"element": "C" 
			},
			{
				"x": 0.8692781621,
				"y": -4.3761172694,
				"z": -0.0547072939,
				"element": "C" 
			},
			{
				"x": -0.4292043588,
				"y": -3.9495055474,
				"z": 0.2427169875,
				"element": "C" 
			},
			{
				"x": -0.6995208529,
				"y": -2.6076036017,
				"z": 0.4815386751,
				"element": "C" 
			},
			{
				"x": -1.1593777193,
				"y": 3.4777609827,
				"z": -0.9152729006,
				"element": "H" 
			},
			{
				"x": -1.5199331327,
				"y": 1.913778317,
				"z": -0.2076424445,
				"element": "H" 
			},
			{
				"x": -0.0794479075,
				"y": 1.2007627701,
				"z": -1.9013649971,
				"element": "H" 
			},
			{
				"x": 0.8161959601,
				"y": 2.7095583516,
				"z": -1.9473579295,
				"element": "H" 
			},
			{
				"x": 2.0282586756,
				"y": 0.569403093,
				"z": -1.0228163155,
				"element": "H" 
			},
			{
				"x": 2.2731110055,
				"y": 2.0929929721,
				"z": -0.1885212215,
				"element": "H" 
			},
			{
				"x": 1.8540476808,
				"y": 0.3041660595,
				"z": 1.4388410079,
				"element": "H" 
			},
			{
				"x": -0.4012869393,
				"y": 1.4551868974,
				"z": 2.3912919803,
				"element": "H" 
			},
			{
				"x": 1.1657547163,
				"y": 2.2225485154,
				"z": 2.4764379192,
				"element": "H" 
			},
			{
				"x": -0.8794506852,
				"y": 3.6191783789,
				"z": 1.5456140004,
				"element": "H" 
			},
			{
				"x": 0.6857630247,
				"y": 3.7902007249,
				"z": 0.7764816349,
				"element": "H" 
			},
			{
				"x": -0.8786547368,
				"y": -0.1664002975,
				"z": 1.1215362324,
				"element": "H" 
			},
			{
				"x": 2.449312557,
				"y": -1.3646308275,
				"z": 0.080177031,
				"element": "H" 
			},
			{
				"x": 2.9056149873,
				"y": -3.7347132112,
				"z": -0.3351650785,
				"element": "H" 
			},
			{
				"x": 1.0780019441,
				"y": -5.424547664,
				"z": -0.2425665025,
				"element": "H" 
			},
			{
				"x": -1.241571433,
				"y": -4.6700065871,
				"z": 0.2908944203,
				"element": "H" 
			},
			{
				"x": -1.715046006,
				"y": -2.2903833896,
				"z": 0.7096956563,
				"element": "H" 
			}
		],
		 "valence_orbital": [ 
			{
				"type": "occ",
				"energy": -0.30936,
				"method": "rhf"
			},
			{
				"type": "occ",
				"energy": -0.3018,
				"method": "rhf"
			},
			{
				"type": "occ",
				"energy": -0.27776,
				"method": "rhf"
			},
			{
				"type": "occ",
				"energy": -0.23701,
				"method": "rhf"
			},
			{
				"type": "occ",
				"energy": -0.1858,
				"method": "rhf"
			},
			{
				"type": "unocc",
				"energy": 0.01148,
				"method": "rhf"
			},
			{
				"type": "unocc",
				"energy": 0.02814,
				"method": "rhf"
			},
			{
				"type": "unocc",
				"energy": 0.07045,
				"method": "rhf"
			},
			{
				"type": "unocc",
				"energy": 0.09043,
				"method": "rhf"
			},
			{
				"type": "unocc",
				"energy": 0.10287,
				"method": "rhf"
			}
		],
		"cosmo_sigma_profile": { 
			"-0.025": 0.0,
			"-0.024": 0.0,
			"-0.023": 0.0,
			"-0.022": 0.0,
			"-0.021": 0.0,
			"-0.02": 0.0,
			"-0.019": 0.0,
			"-0.018": 0.0,
			"-0.017": 0.0,
			"-0.016": 0.0,
			"-0.015": 0.0,
			"-0.014": 0.0,
			"-0.013": 0.0,
			"-0.012": 0.180518825098,
			"-0.011": 0.73442369465,
			"-0.01": 1.13778740314,
			"-0.009": 1.65309704743,
			"-0.008": 1.1724617288,
			"-0.007": 2.26192993145,
			"-0.006": 2.38645017282,
			"-0.005": 7.15164255636,
			"-0.004": 12.5546071154,
			"-0.003": 18.9225448629,
			"-0.002": 35.27673783,
			"-0.001": 31.4947063151,
			"0.0": 31.3284611217,
			"0.001": 26.6144094399,
			"0.002": 13.081097905,
			"0.003": 8.38552550317,
			"0.004": 6.72433086416,
			"0.005": 8.07257518783,
			"0.006": 9.27841448537,
			"0.007": 9.63852675085,
			"0.008": 6.31308138611,
			"0.009": 0.0731326076594,
			"0.01": 0.0,
			"0.011": 0.0,
			"0.012": 0.0,
			"0.013": 0.0,
			"0.014": 0.0,
			"0.015": 0.0,
			"0.016": 0.0,
			"0.017": 0.0,
			"0.018": 0.0,
			"0.019": 0.0,
			"0.02": 0.0,
			"0.021": 0.0,
			"0.022": 0.0,
			"0.023": 0.0,
			"0.024": 0.0,
			"0.025": 0.0
		}
	}
}
