{
	 "smiles": "CNC(=O)OC1=CC(=CC=C1)C(C)C", 
	 "Tm": 346.15, 
	 "num_atms": 29, 
	 "gaussian": { 
		 "optdone": 1, 
		 "sigma_profile": "yes", 
		 "theory": "DFT", 
		 "functional": "B3LYP", 
		 "basiset": "6-31G**", 
		 "properties": { 
			 "R2extent": 4045.6064, 
			 "electric_dipole_moment_norm": 2.39346064726, 
			 "electric_quadrupole_moment_norm": 18.7362403123, 
			 "total_energy": -633.440002575, 
			 "HOMO_LUMO_gap": 0.23249, 
			 "cosmo_polarized_energy": -10.81, 
			 "cosmo_cavitation_energy": 32.36, 
			 "cosmo_dispersion_energy": -22.81, 
			 "cosmo_repulsion_energy": 1.84, 
			 "cosmo_total_nonelectrostatic_energy": 11.39, 
			 "SMD_solvation_energy": 6.51 
		},
		"coords": [
			{
				"x": 4.7338781237,
				"y": 1.9155003961,
				"z": -0.7149040488,
				"element": "C" 
			},
			{
				"x": 4.31430277,
				"y": 0.5723136661,
				"z": -1.0826412264,
				"element": "N" 
			},
			{
				"x": 3.2264711359,
				"y": -0.0898515074,
				"z": -0.5968194982,
				"element": "C" 
			},
			{
				"x": 2.9653227798,
				"y": -1.2538930108,
				"z": -0.8234993712,
				"element": "O" 
			},
			{
				"x": 2.4714495271,
				"y": 0.763804562,
				"z": 0.1724806687,
				"element": "O" 
			},
			{
				"x": 1.274681733,
				"y": 0.3340215345,
				"z": 0.7433343484,
				"element": "C" 
			},
			{
				"x": 0.3216303975,
				"y": -0.4015413396,
				"z": 0.0378519317,
				"element": "C" 
			},
			{
				"x": -0.8950360532,
				"y": -0.7338735188,
				"z": 0.6448825033,
				"element": "C" 
			},
			{
				"x": -1.1340470978,
				"y": -0.3052774411,
				"z": 1.9595216798,
				"element": "C" 
			},
			{
				"x": -0.1774489273,
				"y": 0.4362840177,
				"z": 2.6510855476,
				"element": "C" 
			},
			{
				"x": 1.0379030686,
				"y": 0.760079679,
				"z": 2.0476933049,
				"element": "C" 
			},
			{
				"x": -1.9294731373,
				"y": -1.5484790696,
				"z": -0.1225093846,
				"element": "C" 
			},
			{
				"x": -2.1785431219,
				"y": -2.9177682726,
				"z": 0.5377663577,
				"element": "C" 
			},
			{
				"x": -3.2478786111,
				"y": -0.7746138922,
				"z": -0.3094951474,
				"element": "C" 
			},
			{
				"x": 5.1363210558,
				"y": 1.967987877,
				"z": 0.3045998321,
				"element": "H" 
			},
			{
				"x": 3.8928240169,
				"y": 2.6072833927,
				"z": -0.7877607749,
				"element": "H" 
			},
			{
				"x": 5.5096343658,
				"y": 2.2389495538,
				"z": -1.4125633489,
				"element": "H" 
			},
			{
				"x": 4.9589336219,
				"y": -0.0294285166,
				"z": -1.5712282844,
				"element": "H" 
			},
			{
				"x": 0.5365501875,
				"y": -0.7298407768,
				"z": -0.9713509035,
				"element": "H" 
			},
			{
				"x": -2.072779421,
				"y": -0.551764888,
				"z": 2.4474481969,
				"element": "H" 
			},
			{
				"x": -0.3750611805,
				"y": 0.7640958369,
				"z": 3.6676925961,
				"element": "H" 
			},
			{
				"x": 1.7971996661,
				"y": 1.3358604909,
				"z": 2.5662027242,
				"element": "H" 
			},
			{
				"x": -1.5131442591,
				"y": -1.73639046,
				"z": -1.120460629,
				"element": "H" 
			},
			{
				"x": -2.8789437744,
				"y": -3.5126043389,
				"z": -0.0589103721,
				"element": "H" 
			},
			{
				"x": -1.2473104429,
				"y": -3.4837188211,
				"z": 0.6364308824,
				"element": "H" 
			},
			{
				"x": -2.6083743524,
				"y": -2.8037654673,
				"z": 1.5391397309,
				"element": "H" 
			},
			{
				"x": -3.9529901829,
				"y": -1.3545793312,
				"z": -0.9150707706,
				"element": "H" 
			},
			{
				"x": -3.7294507068,
				"y": -0.5684391933,
				"z": 0.6527215289,
				"element": "H" 
			},
			{
				"x": -3.077721181,
				"y": 0.1842488385,
				"z": -0.8090380735,
				"element": "H" 
			}
		],
		 "valence_orbital": [ 
			{
				"type": "occ",
				"energy": -0.30787,
				"method": "rhf"
			},
			{
				"type": "occ",
				"energy": -0.27149,
				"method": "rhf"
			},
			{
				"type": "occ",
				"energy": -0.25593,
				"method": "rhf"
			},
			{
				"type": "occ",
				"energy": -0.24009,
				"method": "rhf"
			},
			{
				"type": "occ",
				"energy": -0.22866,
				"method": "rhf"
			},
			{
				"type": "unocc",
				"energy": 0.00383,
				"method": "rhf"
			},
			{
				"type": "unocc",
				"energy": 0.00489,
				"method": "rhf"
			},
			{
				"type": "unocc",
				"energy": 0.05591,
				"method": "rhf"
			},
			{
				"type": "unocc",
				"energy": 0.08014,
				"method": "rhf"
			},
			{
				"type": "unocc",
				"energy": 0.09148,
				"method": "rhf"
			}
		],
		"cosmo_sigma_profile": { 
			"-0.025": 0.0,
			"-0.024": 0.0,
			"-0.023": 0.0,
			"-0.022": 0.0,
			"-0.021": 0.0,
			"-0.02": 0.0,
			"-0.019": 0.0,
			"-0.018": 0.0,
			"-0.017": 0.0,
			"-0.016": 0.0,
			"-0.015": 0.0672881622479,
			"-0.014": 1.37101159069,
			"-0.013": 0.850857032642,
			"-0.012": 1.14487219784,
			"-0.011": 1.16178862844,
			"-0.01": 1.02698396865,
			"-0.009": 0.867187949083,
			"-0.008": 0.983126058673,
			"-0.007": 1.74878886829,
			"-0.006": 6.40739567503,
			"-0.005": 12.0434797725,
			"-0.004": 18.034555804,
			"-0.003": 25.4896867928,
			"-0.002": 30.3627105669,
			"-0.001": 26.7039961341,
			"0.0": 25.0078213718,
			"0.001": 25.9566279703,
			"0.002": 14.7562817233,
			"0.003": 13.1943594115,
			"0.004": 11.9512893542,
			"0.005": 13.0566758858,
			"0.006": 5.09877972878,
			"0.007": 1.37528468785,
			"0.008": 1.38673692942,
			"0.009": 1.6272398476,
			"0.01": 1.60721479455,
			"0.011": 2.05553160283,
			"0.012": 2.47940238247,
			"0.013": 5.65342833259,
			"0.014": 1.02638274503,
			"0.015": 0.0,
			"0.016": 0.0,
			"0.017": 0.0,
			"0.018": 0.0,
			"0.019": 0.0,
			"0.02": 0.0,
			"0.021": 0.0,
			"0.022": 0.0,
			"0.023": 0.0,
			"0.024": 0.0,
			"0.025": 0.0
		}
	}
}
