{
	 "smiles": "NC1=CC(=CC(=C1Br)C(F)(F)F)C(F)(F)F", 
	 "Tm": 308.15, 
	 "num_atms": 20, 
	 "gaussian": { 
		 "optdone": 1, 
		 "sigma_profile": "yes", 
		 "theory": "DFT", 
		 "functional": "B3LYP", 
		 "basiset": "6-31G**", 
		 "properties": { 
			 "R2extent": 5688.9857, 
			 "electric_dipole_moment_norm": 3.68697494703, 
			 "electric_quadrupole_moment_norm": 7.63314576502, 
			 "total_energy": -3532.47287413, 
			 "HOMO_LUMO_gap": 0.18199, 
			 "cosmo_polarized_energy": -8.08, 
			 "cosmo_cavitation_energy": 29.19, 
			 "cosmo_dispersion_energy": -20.92, 
			 "cosmo_repulsion_energy": 1.5, 
			 "cosmo_total_nonelectrostatic_energy": 9.77, 
			 "SMD_solvation_energy": 6.22 
		},
		"coords": [
			{
				"x": -0.163381691,
				"y": 1.7876887199,
				"z": -0.7126017532,
				"element": "N" 
			},
			{
				"x": -0.2562147854,
				"y": 0.4188356289,
				"z": -0.5971374878,
				"element": "C" 
			},
			{
				"x": -1.5071257157,
				"y": -0.2162174921,
				"z": -0.7137941222,
				"element": "C" 
			},
			{
				"x": -1.6301819541,
				"y": -1.5877994549,
				"z": -0.5480050589,
				"element": "C" 
			},
			{
				"x": -0.5151675231,
				"y": -2.3755617541,
				"z": -0.2600344443,
				"element": "C" 
			},
			{
				"x": 0.7375999675,
				"y": -1.7752577482,
				"z": -0.1421487687,
				"element": "C" 
			},
			{
				"x": 0.8657807723,
				"y": -0.3901870126,
				"z": -0.3132262507,
				"element": "C" 
			},
			{
				"x": 2.5633176522,
				"y": 0.4782086527,
				"z": -0.1716060635,
				"element": "Br" 
			},
			{
				"x": 1.9293368709,
				"y": -2.6571824884,
				"z": 0.1698358349,
				"element": "C" 
			},
			{
				"x": 1.5629757545,
				"y": -3.9505700681,
				"z": 0.2969066679,
				"element": "F" 
			},
			{
				"x": 2.8601676501,
				"y": -2.6046732299,
				"z": -0.804823877,
				"element": "F" 
			},
			{
				"x": 2.5291395772,
				"y": -2.3015300414,
				"z": 1.3238660302,
				"element": "F" 
			},
			{
				"x": -2.9722165086,
				"y": -2.2443182154,
				"z": -0.742322599,
				"element": "C" 
			},
			{
				"x": -3.1140037284,
				"y": -3.3334182991,
				"z": 0.0415582286,
				"element": "F" 
			},
			{
				"x": -3.9900735196,
				"y": -1.4010647166,
				"z": -0.4611941566,
				"element": "F" 
			},
			{
				"x": -3.1403411357,
				"y": -2.652605559,
				"z": -2.0207930929,
				"element": "F" 
			},
			{
				"x": -0.9130870532,
				"y": 2.2565688145,
				"z": -1.1971741387,
				"element": "H" 
			},
			{
				"x": 0.7564426152,
				"y": 2.1733788469,
				"z": -0.8682030007,
				"element": "H" 
			},
			{
				"x": -2.3866494937,
				"y": 0.3844604495,
				"z": -0.9214324742,
				"element": "H" 
			},
			{
				"x": -0.6163177515,
				"y": -3.4427550328,
				"z": -0.120469473,
				"element": "H" 
			}
		],
		 "valence_orbital": [ 
			{
				"type": "occ",
				"energy": -0.34343,
				"method": "rhf"
			},
			{
				"type": "occ",
				"energy": -0.33214,
				"method": "rhf"
			},
			{
				"type": "occ",
				"energy": -0.30668,
				"method": "rhf"
			},
			{
				"type": "occ",
				"energy": -0.27377,
				"method": "rhf"
			},
			{
				"type": "occ",
				"energy": -0.23284,
				"method": "rhf"
			},
			{
				"type": "unocc",
				"energy": -0.05085,
				"method": "rhf"
			},
			{
				"type": "unocc",
				"energy": -0.02321,
				"method": "rhf"
			},
			{
				"type": "unocc",
				"energy": -0.01017,
				"method": "rhf"
			},
			{
				"type": "unocc",
				"energy": 0.06599,
				"method": "rhf"
			},
			{
				"type": "unocc",
				"energy": 0.10087,
				"method": "rhf"
			}
		],
		"cosmo_sigma_profile": { 
			"-0.025": 0.0,
			"-0.024": 0.0,
			"-0.023": 0.0,
			"-0.022": 0.0,
			"-0.021": 0.0,
			"-0.02": 0.0,
			"-0.019": 0.0,
			"-0.018": 0.0,
			"-0.017": 0.0,
			"-0.016": 0.0,
			"-0.015": 0.0473807671387,
			"-0.014": 1.58700374127,
			"-0.013": 1.72724694688,
			"-0.012": 2.79023662098,
			"-0.011": 2.32549347474,
			"-0.01": 2.59395870885,
			"-0.009": 2.46772607376,
			"-0.008": 2.81354908221,
			"-0.007": 2.96684686435,
			"-0.006": 4.34706178885,
			"-0.005": 5.89440889727,
			"-0.004": 6.92195650518,
			"-0.003": 9.48259843406,
			"-0.002": 12.3488900635,
			"-0.001": 13.6241975536,
			"0.0": 25.2900366316,
			"0.001": 31.0431311397,
			"0.002": 47.0161069202,
			"0.003": 48.0306437786,
			"0.004": 9.76558202407,
			"0.005": 0.970729799333,
			"0.006": 0.416368785067,
			"0.007": 0.603181666426,
			"0.008": 0.799773958467,
			"0.009": 0.719357388965,
			"0.01": 0.530093796962,
			"0.011": 0.391379519564,
			"0.012": 0.00443599440299,
			"0.013": 0.0,
			"0.014": 0.0,
			"0.015": 0.0,
			"0.016": 0.0,
			"0.017": 0.0,
			"0.018": 0.0,
			"0.019": 0.0,
			"0.02": 0.0,
			"0.021": 0.0,
			"0.022": 0.0,
			"0.023": 0.0,
			"0.024": 0.0,
			"0.025": 0.0
		}
	}
}
