{
	 "smiles": "CN(C)C1=CC(C)=CC=C1", 
	 "Tm": 258.15, 
	 "num_atms": 23, 
	 "gaussian": { 
		 "optdone": 1, 
		 "sigma_profile": "yes", 
		 "theory": "DFT", 
		 "functional": "B3LYP", 
		 "basiset": "6-31G**", 
		 "properties": { 
			 "R2extent": 1716.763, 
			 "electric_dipole_moment_norm": 1.70309516469, 
			 "electric_quadrupole_moment_norm": 6.43056270166, 
			 "total_energy": -405.543364776, 
			 "HOMO_LUMO_gap": 0.19774, 
			 "cosmo_polarized_energy": -5.07, 
			 "cosmo_cavitation_energy": 24.85, 
			 "cosmo_dispersion_energy": -18.41, 
			 "cosmo_repulsion_energy": 1.48, 
			 "cosmo_total_nonelectrostatic_energy": 7.92, 
			 "SMD_solvation_energy": 3.9 
		},
		"coords": [
			{
				"x": -0.0057389101,
				"y": -2.6934611197,
				"z": -1.1474056027,
				"element": "C" 
			},
			{
				"x": 0.4641117941,
				"y": -1.3218907205,
				"z": -1.0580246838,
				"element": "N" 
			},
			{
				"x": 1.8563706402,
				"y": -1.0624697943,
				"z": -1.3806851385,
				"element": "C" 
			},
			{
				"x": -0.2242593176,
				"y": -0.4227211179,
				"z": -0.2444645749,
				"element": "C" 
			},
			{
				"x": 0.3143461143,
				"y": 0.8479291604,
				"z": 0.0601854717,
				"element": "C" 
			},
			{
				"x": -0.3765974363,
				"y": 1.7746243484,
				"z": 0.8445443075,
				"element": "C" 
			},
			{
				"x": 0.2506731765,
				"y": 3.1118625169,
				"z": 1.1687317925,
				"element": "C" 
			},
			{
				"x": -1.6391012995,
				"y": 1.4404423292,
				"z": 1.3507345782,
				"element": "C" 
			},
			{
				"x": -2.1785799007,
				"y": 0.1864591038,
				"z": 1.0713738527,
				"element": "C" 
			},
			{
				"x": -1.491145017,
				"y": -0.741052352,
				"z": 0.2926246429,
				"element": "C" 
			},
			{
				"x": 0.6360214378,
				"y": -3.2471003591,
				"z": -1.8351283372,
				"element": "H" 
			},
			{
				"x": -1.0249714537,
				"y": -2.7340521423,
				"z": -1.5476801603,
				"element": "H" 
			},
			{
				"x": -0.0030761928,
				"y": -3.2167306209,
				"z": -0.1774480315,
				"element": "H" 
			},
			{
				"x": 1.9643754694,
				"y": -0.1191689442,
				"z": -1.9277791298,
				"element": "H" 
			},
			{
				"x": 2.5053895191,
				"y": -1.0129327582,
				"z": -0.4913454806,
				"element": "H" 
			},
			{
				"x": 2.2270315172,
				"y": -1.8584495035,
				"z": -2.029028622,
				"element": "H" 
			},
			{
				"x": 1.2905870239,
				"y": 1.127430781,
				"z": -0.3186669862,
				"element": "H" 
			},
			{
				"x": 0.7168414947,
				"y": 3.1014521395,
				"z": 2.1621658581,
				"element": "H" 
			},
			{
				"x": 1.0273793779,
				"y": 3.3790624027,
				"z": 0.4459787123,
				"element": "H" 
			},
			{
				"x": -0.4967137121,
				"y": 3.9118568693,
				"z": 1.1729741732,
				"element": "H" 
			},
			{
				"x": -2.1886477092,
				"y": 2.1528627158,
				"z": 1.9598792129,
				"element": "H" 
			},
			{
				"x": -3.155157806,
				"y": -0.0814709607,
				"z": 1.466640145,
				"element": "H" 
			},
			{
				"x": -1.9447388102,
				"y": -1.7058819737,
				"z": 0.1034240005,
				"element": "H" 
			}
		],
		 "valence_orbital": [ 
			{
				"type": "occ",
				"energy": -0.33777,
				"method": "rhf"
			},
			{
				"type": "occ",
				"energy": -0.32114,
				"method": "rhf"
			},
			{
				"type": "occ",
				"energy": -0.27101,
				"method": "rhf"
			},
			{
				"type": "occ",
				"energy": -0.22824,
				"method": "rhf"
			},
			{
				"type": "occ",
				"energy": -0.18233,
				"method": "rhf"
			},
			{
				"type": "unocc",
				"energy": 0.01541,
				"method": "rhf"
			},
			{
				"type": "unocc",
				"energy": 0.0265,
				"method": "rhf"
			},
			{
				"type": "unocc",
				"energy": 0.08911,
				"method": "rhf"
			},
			{
				"type": "unocc",
				"energy": 0.10962,
				"method": "rhf"
			},
			{
				"type": "unocc",
				"energy": 0.12485,
				"method": "rhf"
			}
		],
		"cosmo_sigma_profile": { 
			"-0.025": 0.0,
			"-0.024": 0.0,
			"-0.023": 0.0,
			"-0.022": 0.0,
			"-0.021": 0.0,
			"-0.02": 0.0,
			"-0.019": 0.0,
			"-0.018": 0.0,
			"-0.017": 0.0,
			"-0.016": 0.0,
			"-0.015": 0.0,
			"-0.014": 0.0,
			"-0.013": 0.0,
			"-0.012": 0.0,
			"-0.011": 0.0,
			"-0.01": 0.0,
			"-0.009": 0.0,
			"-0.008": 0.0,
			"-0.007": 0.20838126001,
			"-0.006": 2.43218122875,
			"-0.005": 8.3750632285,
			"-0.004": 17.5052219083,
			"-0.003": 26.2295738962,
			"-0.002": 28.0567879644,
			"-0.001": 26.8514180516,
			"0.0": 18.8987126871,
			"0.001": 12.5404385196,
			"0.002": 8.26336654259,
			"0.003": 7.25059909334,
			"0.004": 7.26534752121,
			"0.005": 6.92990189542,
			"0.006": 8.27487590896,
			"0.007": 8.93631353602,
			"0.008": 6.82251849588,
			"0.009": 0.6375288852,
			"0.01": 0.0,
			"0.011": 0.0,
			"0.012": 0.0,
			"0.013": 0.0,
			"0.014": 0.0,
			"0.015": 0.0,
			"0.016": 0.0,
			"0.017": 0.0,
			"0.018": 0.0,
			"0.019": 0.0,
			"0.02": 0.0,
			"0.021": 0.0,
			"0.022": 0.0,
			"0.023": 0.0,
			"0.024": 0.0,
			"0.025": 0.0
		}
	}
}
