{
	 "smiles": "NC1=C(Br)C(=O)NC(=O)N1CC1=CC=CC=C1", 
	 "Tm": 509.15, 
	 "num_atms": 27, 
	 "gaussian": { 
		 "optdone": 1, 
		 "sigma_profile": "yes", 
		 "theory": "DFT", 
		 "functional": "B3LYP", 
		 "basiset": "6-31G**", 
		 "properties": { 
			 "R2extent": 8526.6238, 
			 "electric_dipole_moment_norm": 6.22879397075, 
			 "electric_quadrupole_moment_norm": 23.6363312185, 
			 "total_energy": -3311.34454022, 
			 "HOMO_LUMO_gap": 0.19315, 
			 "cosmo_polarized_energy": -19.42, 
			 "cosmo_cavitation_energy": 33.01, 
			 "cosmo_dispersion_energy": -24.41, 
			 "cosmo_repulsion_energy": 1.88, 
			 "cosmo_total_nonelectrostatic_energy": 10.48, 
			 "SMD_solvation_energy": 5.65 
		},
		"coords": [
			{
				"x": 0.3130269486,
				"y": 3.0116375684,
				"z": -0.4001655347,
				"element": "N" 
			},
			{
				"x": 1.5692146808,
				"y": 2.4661866027,
				"z": -0.40158084,
				"element": "C" 
			},
			{
				"x": 2.6910435822,
				"y": 3.1473179332,
				"z": 0.012565866,
				"element": "C" 
			},
			{
				"x": 2.5478569522,
				"y": 4.9003177632,
				"z": 0.7245434169,
				"element": "Br" 
			},
			{
				"x": 4.0087330073,
				"y": 2.560146543,
				"z": -0.0424643713,
				"element": "C" 
			},
			{
				"x": 5.0663751819,
				"y": 3.0656993968,
				"z": 0.2949630908,
				"element": "O" 
			},
			{
				"x": 3.9849856122,
				"y": 1.2337215586,
				"z": -0.5316945729,
				"element": "N" 
			},
			{
				"x": 2.9069072311,
				"y": 0.4941595686,
				"z": -0.9516580751,
				"element": "C" 
			},
			{
				"x": 3.000491405,
				"y": -0.660673802,
				"z": -1.3424214476,
				"element": "O" 
			},
			{
				"x": 1.6769176718,
				"y": 1.1731087319,
				"z": -0.9048005887,
				"element": "N" 
			},
			{
				"x": 0.5157250601,
				"y": 0.4851700024,
				"z": -1.5040326362,
				"element": "C" 
			},
			{
				"x": -0.470124298,
				"y": -0.071488339,
				"z": -0.4926342135,
				"element": "C" 
			},
			{
				"x": -0.0399451524,
				"y": -0.9563910351,
				"z": 0.5071024654,
				"element": "C" 
			},
			{
				"x": -0.9514067329,
				"y": -1.4810055749,
				"z": 1.4211479998,
				"element": "C" 
			},
			{
				"x": -2.3043017774,
				"y": -1.1343388743,
				"z": 1.3474229672,
				"element": "C" 
			},
			{
				"x": -2.7423751241,
				"y": -0.2633316869,
				"z": 0.3510334687,
				"element": "C" 
			},
			{
				"x": -1.82761464,
				"y": 0.2658297027,
				"z": -0.5645040544,
				"element": "C" 
			},
			{
				"x": -0.4568835093,
				"y": 2.3867524146,
				"z": -0.1977433608,
				"element": "H" 
			},
			{
				"x": 0.2606757212,
				"y": 3.9074447389,
				"z": 0.0679666683,
				"element": "H" 
			},
			{
				"x": 4.8794383908,
				"y": 0.7603362249,
				"z": -0.5641690328,
				"element": "H" 
			},
			{
				"x": 0.0187700947,
				"y": 1.1859657514,
				"z": -2.1803835064,
				"element": "H" 
			},
			{
				"x": 0.9443772351,
				"y": -0.3251179509,
				"z": -2.0957322129,
				"element": "H" 
			},
			{
				"x": 1.0074776726,
				"y": -1.2400515398,
				"z": 0.5527333963,
				"element": "H" 
			},
			{
				"x": -0.6079665202,
				"y": -2.1667088535,
				"z": 2.1902303171,
				"element": "H" 
			},
			{
				"x": -3.0114812941,
				"y": -1.5456534906,
				"z": 2.0615963394,
				"element": "H" 
			},
			{
				"x": -3.792313216,
				"y": 0.0059764819,
				"z": 0.2824712767,
				"element": "H" 
			},
			{
				"x": -2.1753041834,
				"y": 0.9351901639,
				"z": -1.3491928253,
				"element": "H" 
			}
		],
		 "valence_orbital": [ 
			{
				"type": "occ",
				"energy": -0.28226,
				"method": "rhf"
			},
			{
				"type": "occ",
				"energy": -0.27107,
				"method": "rhf"
			},
			{
				"type": "occ",
				"energy": -0.26625,
				"method": "rhf"
			},
			{
				"type": "occ",
				"energy": -0.25909,
				"method": "rhf"
			},
			{
				"type": "occ",
				"energy": -0.22042,
				"method": "rhf"
			},
			{
				"type": "unocc",
				"energy": -0.02727,
				"method": "rhf"
			},
			{
				"type": "unocc",
				"energy": -0.02531,
				"method": "rhf"
			},
			{
				"type": "unocc",
				"energy": -0.02209,
				"method": "rhf"
			},
			{
				"type": "unocc",
				"energy": 0.00315,
				"method": "rhf"
			},
			{
				"type": "unocc",
				"energy": 0.01101,
				"method": "rhf"
			}
		],
		"cosmo_sigma_profile": { 
			"-0.025": 0.0,
			"-0.024": 0.0,
			"-0.023": 0.0,
			"-0.022": 0.0,
			"-0.021": 0.0,
			"-0.02": 0.0,
			"-0.019": 0.0,
			"-0.018": 0.0,
			"-0.017": 0.0,
			"-0.016": 0.452329319955,
			"-0.015": 0.881059722438,
			"-0.014": 0.992384476331,
			"-0.013": 1.73671744535,
			"-0.012": 2.21821786851,
			"-0.011": 2.60182711925,
			"-0.01": 2.2535293122,
			"-0.009": 2.86638597263,
			"-0.008": 4.61357859014,
			"-0.007": 6.33651361663,
			"-0.006": 14.4786061455,
			"-0.005": 18.4843577792,
			"-0.004": 25.6361193029,
			"-0.003": 18.8710290141,
			"-0.002": 17.0180811027,
			"-0.001": 15.6388789525,
			"0.0": 15.2601108747,
			"0.001": 17.0597177165,
			"0.002": 15.1315218667,
			"0.003": 15.8473166176,
			"0.004": 16.6004251724,
			"0.005": 14.4822811548,
			"0.006": 4.05294300978,
			"0.007": 3.09046913858,
			"0.008": 3.03503273519,
			"0.009": 3.30175674692,
			"0.01": 3.67685441329,
			"0.011": 3.78802376064,
			"0.012": 7.55832778147,
			"0.013": 7.76544238884,
			"0.014": 1.69572881023,
			"0.015": 0.0,
			"0.016": 0.0,
			"0.017": 0.0,
			"0.018": 0.0,
			"0.019": 0.0,
			"0.02": 0.0,
			"0.021": 0.0,
			"0.022": 0.0,
			"0.023": 0.0,
			"0.024": 0.0,
			"0.0": 0.0
		}
	}
}
