{
	 "smiles": "CCC(C)N1N=C(N)C=C1C", 
	 "Tm": 328.15, 
	 "num_atms": 26, 
	 "gaussian": { 
		 "optdone": 1, 
		 "sigma_profile": "yes", 
		 "theory": "DFT", 
		 "functional": "B3LYP", 
		 "basiset": "6-31G**", 
		 "properties": { 
			 "R2extent": 2045.7742, 
			 "electric_dipole_moment_norm": 1.91850051863, 
			 "electric_quadrupole_moment_norm": 8.17437726864, 
			 "total_energy": -478.148954314, 
			 "HOMO_LUMO_gap": 0.22666, 
			 "cosmo_polarized_energy": -10.43, 
			 "cosmo_cavitation_energy": 28.18, 
			 "cosmo_dispersion_energy": -19.54, 
			 "cosmo_repulsion_energy": 1.61, 
			 "cosmo_total_nonelectrostatic_energy": 10.25, 
			 "SMD_solvation_energy": 4.49 
		},
		"coords": [
			{
				"x": 0.6347174655,
				"y": -1.4768517731,
				"z": 2.8547030097,
				"element": "C" 
			},
			{
				"x": -0.0396318026,
				"y": -0.1248922554,
				"z": 2.610402649,
				"element": "C" 
			},
			{
				"x": -0.6626442664,
				"y": 0.0184994777,
				"z": 1.2101620986,
				"element": "C" 
			},
			{
				"x": -1.3991029171,
				"y": 1.3540317053,
				"z": 1.0406886655,
				"element": "C" 
			},
			{
				"x": 0.3536640727,
				"y": -0.1383866168,
				"z": 0.1674234563,
				"element": "N" 
			},
			{
				"x": 1.4269562641,
				"y": 0.7089052873,
				"z": 0.1666150006,
				"element": "N" 
			},
			{
				"x": 2.135819937,
				"y": 0.3579768938,
				"z": -0.903829922,
				"element": "C" 
			},
			{
				"x": 3.2870209385,
				"y": 1.06725902,
				"z": -1.2624915382,
				"element": "N" 
			},
			{
				"x": 1.5352987996,
				"y": -0.7214149092,
				"z": -1.5972894783,
				"element": "C" 
			},
			{
				"x": 0.3880926011,
				"y": -1.0136910858,
				"z": -0.8765945099,
				"element": "C" 
			},
			{
				"x": -0.6569669898,
				"y": -2.0564053986,
				"z": -1.1286223814,
				"element": "C" 
			},
			{
				"x": 1.0460622947,
				"y": -1.5305041208,
				"z": 3.8677015539,
				"element": "H" 
			},
			{
				"x": -0.0741718659,
				"y": -2.3061156407,
				"z": 2.7420664053,
				"element": "H" 
			},
			{
				"x": 1.4568259078,
				"y": -1.6369312765,
				"z": 2.1509385672,
				"element": "H" 
			},
			{
				"x": -0.8362358969,
				"y": 0.0350445659,
				"z": 3.3478332037,
				"element": "H" 
			},
			{
				"x": 0.6871804963,
				"y": 0.6835004223,
				"z": 2.7424036795,
				"element": "H" 
			},
			{
				"x": -1.3716601254,
				"y": -0.8031368731,
				"z": 1.0585658423,
				"element": "H" 
			},
			{
				"x": -1.870341594,
				"y": 1.4175691939,
				"z": 0.055239502,
				"element": "H" 
			},
			{
				"x": -0.6939036132,
				"y": 2.183871321,
				"z": 1.1343597651,
				"element": "H" 
			},
			{
				"x": -2.1765468542,
				"y": 1.4633379301,
				"z": 1.803712113,
				"element": "H" 
			},
			{
				"x": 3.6125716253,
				"y": 1.6484564794,
				"z": -0.498774724,
				"element": "H" 
			},
			{
				"x": 4.0332339959,
				"y": 0.4712821079,
				"z": -1.5988291199,
				"element": "H" 
			},
			{
				"x": 1.8762262355,
				"y": -1.2090644864,
				"z": -2.4989839603,
				"element": "H" 
			},
			{
				"x": -0.3975439076,
				"y": -2.6219245114,
				"z": -2.0263917789,
				"element": "H" 
			},
			{
				"x": -0.7403729243,
				"y": -2.7691463522,
				"z": -0.2999086044,
				"element": "H" 
			},
			{
				"x": -1.6494478766,
				"y": -1.6188691046,
				"z": -1.2881994945,
				"element": "H" 
			}
		],
		 "valence_orbital": [ 
			{
				"type": "occ",
				"energy": -0.32853,
				"method": "rhf"
			},
			{
				"type": "occ",
				"energy": -0.29592,
				"method": "rhf"
			},
			{
				"type": "occ",
				"energy": -0.26908,
				"method": "rhf"
			},
			{
				"type": "occ",
				"energy": -0.22091,
				"method": "rhf"
			},
			{
				"type": "occ",
				"energy": -0.18976,
				"method": "rhf"
			},
			{
				"type": "unocc",
				"energy": 0.0369,
				"method": "rhf"
			},
			{
				"type": "unocc",
				"energy": 0.08239,
				"method": "rhf"
			},
			{
				"type": "unocc",
				"energy": 0.08843,
				"method": "rhf"
			},
			{
				"type": "unocc",
				"energy": 0.11336,
				"method": "rhf"
			},
			{
				"type": "unocc",
				"energy": 0.11746,
				"method": "rhf"
			}
		],
		"cosmo_sigma_profile": { 
			"-0.025": 0.0,
			"-0.024": 0.0,
			"-0.023": 0.0,
			"-0.022": 0.0,
			"-0.021": 0.0,
			"-0.02": 0.0,
			"-0.019": 0.0,
			"-0.018": 0.0,
			"-0.017": 0.0,
			"-0.016": 0.0,
			"-0.015": 0.0,
			"-0.014": 0.0,
			"-0.013": 0.00164100713116,
			"-0.012": 0.977362239206,
			"-0.011": 2.23738520239,
			"-0.01": 2.39651545658,
			"-0.009": 2.16156999767,
			"-0.008": 2.51151770136,
			"-0.007": 1.99836315078,
			"-0.006": 2.95863996056,
			"-0.005": 8.48322552093,
			"-0.004": 17.2010559251,
			"-0.003": 25.1538956036,
			"-0.002": 23.3023294693,
			"-0.001": 25.6485727192,
			"0.0": 25.4724664963,
			"0.001": 22.0141709512,
			"0.002": 9.92962473345,
			"0.003": 5.01682192795,
			"0.004": 5.16723678551,
			"0.005": 5.4633356606,
			"0.006": 5.60907448649,
			"0.007": 7.17547780538,
			"0.008": 4.53872070765,
			"0.009": 2.76501651193,
			"0.01": 2.10709709486,
			"0.011": 1.9319623737,
			"0.012": 2.32187634148,
			"0.013": 1.51462247297,
			"0.014": 1.45832229034,
			"0.015": 1.04519470009,
			"0.016": 0.673061021704,
			"0.017": 0.17832611967,
			"0.018": 0.0,
			"0.019": 0.0,
			"0.02": 0.0,
			"0.021": 0.0,
			"0.022": 0.0,
			"0.023": 0.0,
			"0.024": 0.0,
			"0.025": 0.0
		}
	}
}
