{
	 "smiles": "CCCCCCCCC=O", 
	 "Tm": 255.15, 
	 "num_atms": 28, 
	 "gaussian": { 
		 "optdone": 1, 
		 "sigma_profile": "yes", 
		 "theory": "DFT", 
		 "functional": "B3LYP", 
		 "basiset": "6-31G**", 
		 "properties": { 
			 "R2extent": 3366.3567, 
			 "electric_dipole_moment_norm": 3.08368607027, 
			 "electric_quadrupole_moment_norm": 17.283706634, 
			 "total_energy": -429.036469946, 
			 "HOMO_LUMO_gap": 0.22777, 
			 "cosmo_polarized_energy": -6.09, 
			 "cosmo_cavitation_energy": 29.58, 
			 "cosmo_dispersion_energy": -20.78, 
			 "cosmo_repulsion_energy": 1.75, 
			 "cosmo_total_nonelectrostatic_energy": 10.55, 
			 "SMD_solvation_energy": 5.37 
		},
		"coords": [
			{
				"x": -2.6793144426,
				"y": -2.2662406737,
				"z": 1.6016294896,
				"element": "C" 
			},
			{
				"x": -1.3640234784,
				"y": -3.047213091,
				"z": 1.702970387,
				"element": "C" 
			},
			{
				"x": -0.1961874865,
				"y": -2.5137562575,
				"z": 0.8533515448,
				"element": "C" 
			},
			{
				"x": 0.3163035041,
				"y": -1.1019013923,
				"z": 1.2152654233,
				"element": "C" 
			},
			{
				"x": -0.3386294218,
				"y": 0.0528183948,
				"z": 0.4398411831,
				"element": "C" 
			},
			{
				"x": 0.2221720978,
				"y": 1.4257247317,
				"z": 0.835534496,
				"element": "C" 
			},
			{
				"x": -0.4303628533,
				"y": 2.6220543863,
				"z": 0.1227503673,
				"element": "C" 
			},
			{
				"x": -0.1560093742,
				"y": 2.6781251211,
				"z": -1.3934242321,
				"element": "C" 
			},
			{
				"x": -0.853618634,
				"y": 3.8468211377,
				"z": -2.0493989203,
				"element": "C" 
			},
			{
				"x": -0.3063582597,
				"y": 4.7017118697,
				"z": -2.7102596187,
				"element": "O" 
			},
			{
				"x": -2.5849819274,
				"y": -1.2523625628,
				"z": 2.0034256645,
				"element": "H" 
			},
			{
				"x": -3.0147632589,
				"y": -2.1830648201,
				"z": 0.561242576,
				"element": "H" 
			},
			{
				"x": -3.473596889,
				"y": -2.7661592844,
				"z": 2.1662678506,
				"element": "H" 
			},
			{
				"x": -1.0472819702,
				"y": -3.0831111216,
				"z": 2.754519005,
				"element": "H" 
			},
			{
				"x": -1.5495987808,
				"y": -4.0889648891,
				"z": 1.4104380855,
				"element": "H" 
			},
			{
				"x": 0.6335266321,
				"y": -3.2241196071,
				"z": 0.9565279017,
				"element": "H" 
			},
			{
				"x": -0.4769693496,
				"y": -2.5377237169,
				"z": -0.2093929542,
				"element": "H" 
			},
			{
				"x": 0.1948285679,
				"y": -0.9346968869,
				"z": 2.295233575,
				"element": "H" 
			},
			{
				"x": 1.3977116178,
				"y": -1.0578595187,
				"z": 1.0297516365,
				"element": "H" 
			},
			{
				"x": -0.1861463516,
				"y": -0.1213750121,
				"z": -0.6338650502,
				"element": "H" 
			},
			{
				"x": -1.4245373641,
				"y": 0.0498149975,
				"z": 0.5960744683,
				"element": "H" 
			},
			{
				"x": 0.0941590814,
				"y": 1.5605876523,
				"z": 1.9178670654,
				"element": "H" 
			},
			{
				"x": 1.3061470212,
				"y": 1.4444249728,
				"z": 0.6552386932,
				"element": "H" 
			},
			{
				"x": -0.065683669,
				"y": 3.5505847172,
				"z": 0.5791417807,
				"element": "H" 
			},
			{
				"x": -1.5155873597,
				"y": 2.6002430913,
				"z": 0.2950523949,
				"element": "H" 
			},
			{
				"x": -0.5362001329,
				"y": 1.7635395601,
				"z": -1.8708762742,
				"element": "H" 
			},
			{
				"x": 0.9155837799,
				"y": 2.7505120938,
				"z": -1.605313543,
				"element": "H" 
			},
			{
				"x": -1.9560812984,
				"y": 3.8816861081,
				"z": -1.8776929958,
				"element": "H" 
			}
		],
		 "valence_orbital": [ 
			{
				"type": "occ",
				"energy": -0.327,
				"method": "rhf"
			},
			{
				"type": "occ",
				"energy": -0.32207,
				"method": "rhf"
			},
			{
				"type": "occ",
				"energy": -0.31165,
				"method": "rhf"
			},
			{
				"type": "occ",
				"energy": -0.30806,
				"method": "rhf"
			},
			{
				"type": "occ",
				"energy": -0.24797,
				"method": "rhf"
			},
			{
				"type": "unocc",
				"energy": -0.0202,
				"method": "rhf"
			},
			{
				"type": "unocc",
				"energy": 0.07938,
				"method": "rhf"
			},
			{
				"type": "unocc",
				"energy": 0.09276,
				"method": "rhf"
			},
			{
				"type": "unocc",
				"energy": 0.10444,
				"method": "rhf"
			},
			{
				"type": "unocc",
				"energy": 0.10627,
				"method": "rhf"
			}
		],
		"cosmo_sigma_profile": { 
			"-0.025": 0.0,
			"-0.024": 0.0,
			"-0.023": 0.0,
			"-0.022": 0.0,
			"-0.021": 0.0,
			"-0.02": 0.0,
			"-0.019": 0.0,
			"-0.018": 0.0,
			"-0.017": 0.0,
			"-0.016": 0.0,
			"-0.015": 0.0,
			"-0.014": 0.0,
			"-0.013": 0.0,
			"-0.012": 0.0,
			"-0.011": 0.0,
			"-0.01": 0.0,
			"-0.009": 0.0,
			"-0.008": 0.0,
			"-0.007": 0.0,
			"-0.006": 3.12628581822,
			"-0.005": 9.49600998496,
			"-0.004": 10.1919702069,
			"-0.003": 14.2969331532,
			"-0.002": 34.43205945,
			"-0.001": 47.436590261,
			"0.0": 40.6457057621,
			"0.001": 31.1505792347,
			"0.002": 12.6081998314,
			"0.003": 2.2356127938,
			"0.004": 1.71027168097,
			"0.005": 1.4983011848,
			"0.006": 1.54491627072,
			"0.007": 1.30572455072,
			"0.008": 1.89616519143,
			"0.009": 2.35750517227,
			"0.01": 2.58549043955,
			"0.011": 4.0352182366,
			"0.012": 3.86301531364,
			"0.013": 1.38465571507,
			"0.014": 0.0,
			"0.015": 0.0,
			"0.016": 0.0,
			"0.017": 0.0,
			"0.018": 0.0,
			"0.019": 0.0,
			"0.02": 0.0,
			"0.021": 0.0,
			"0.022": 0.0,
			"0.023": 0.0,
			"0.024": 0.0,
			"0.025": 0.0
		}
	}
}
