{
	 "smiles": "COC(=O)OC1=C(C=CC=C1)C(O)=O", 
	 "Tm": 407.15, 
	 "num_atms": 22, 
	 "gaussian": { 
		 "optdone": 1, 
		 "sigma_profile": "yes", 
		 "theory": "DFT", 
		 "functional": "B3LYP", 
		 "basiset": "6-31G**", 
		 "properties": { 
			 "R2extent": 2902.206, 
			 "electric_dipole_moment_norm": 1.92827565198, 
			 "electric_quadrupole_moment_norm": 19.3771253763, 
			 "total_energy": -723.915048817, 
			 "HOMO_LUMO_gap": 0.20545, 
			 "cosmo_polarized_energy": -14.11, 
			 "cosmo_cavitation_energy": 27.54, 
			 "cosmo_dispersion_energy": -19.74, 
			 "cosmo_repulsion_energy": 1.57, 
			 "cosmo_total_nonelectrostatic_energy": 9.37, 
			 "SMD_solvation_energy": 7.98 
		},
		"coords": [
			{
				"x": 2.8025450187,
				"y": 1.3320662973,
				"z": -3.4319994691,
				"element": "C" 
			},
			{
				"x": 1.8343378729,
				"y": 0.3557993425,
				"z": -3.0150487164,
				"element": "O" 
			},
			{
				"x": 1.0136602822,
				"y": 0.7730452795,
				"z": -2.0464894998,
				"element": "C" 
			},
			{
				"x": 1.0093672673,
				"y": 1.8582046753,
				"z": -1.5201471504,
				"element": "O" 
			},
			{
				"x": 0.1594521291,
				"y": -0.2510966149,
				"z": -1.7850982908,
				"element": "O" 
			},
			{
				"x": -0.7740842347,
				"y": -0.0693814513,
				"z": -0.7707445,
				"element": "C" 
			},
			{
				"x": -0.4325810358,
				"y": -0.056314869,
				"z": 0.5934140653,
				"element": "C" 
			},
			{
				"x": -1.4701740418,
				"y": 0.080166033,
				"z": 1.5301022234,
				"element": "C" 
			},
			{
				"x": -2.7988585495,
				"y": 0.1781047464,
				"z": 1.1332500509,
				"element": "C" 
			},
			{
				"x": -3.1169334798,
				"y": 0.1446528368,
				"z": -0.2260742233,
				"element": "C" 
			},
			{
				"x": -2.1035735009,
				"y": 0.0248232119,
				"z": -1.1748276785,
				"element": "C" 
			},
			{
				"x": 0.9408040925,
				"y": -0.1846460085,
				"z": 1.1609407141,
				"element": "C" 
			},
			{
				"x": 1.8993043258,
				"y": -0.5040779981,
				"z": 0.2607508472,
				"element": "O" 
			},
			{
				"x": 1.1966737631,
				"y": -0.0473204458,
				"z": 2.3410507177,
				"element": "O" 
			},
			{
				"x": 3.4469210984,
				"y": 1.6150494779,
				"z": -2.5961412164,
				"element": "H" 
			},
			{
				"x": 3.3833426454,
				"y": 0.8470314383,
				"z": -4.2160155353,
				"element": "H" 
			},
			{
				"x": 2.3073263225,
				"y": 2.2261360024,
				"z": -3.8185338353,
				"element": "H" 
			},
			{
				"x": -1.1941644462,
				"y": 0.1009956501,
				"z": 2.5784797573,
				"element": "H" 
			},
			{
				"x": -3.5818739122,
				"y": 0.2770797113,
				"z": 1.8782159857,
				"element": "H" 
			},
			{
				"x": -4.1506292949,
				"y": 0.2168603522,
				"z": -0.5507447006,
				"element": "H" 
			},
			{
				"x": -2.321859477,
				"y": 0.0030218393,
				"z": -2.2370648827,
				"element": "H" 
			},
			{
				"x": 2.7245971547,
				"y": -0.5528995067,
				"z": 0.7717253369,
				"element": "H" 
			}
		],
		 "valence_orbital": [ 
			{
				"type": "occ",
				"energy": -0.30964,
				"method": "rhf"
			},
			{
				"type": "occ",
				"energy": -0.29248,
				"method": "rhf"
			},
			{
				"type": "occ",
				"energy": -0.28224,
				"method": "rhf"
			},
			{
				"type": "occ",
				"energy": -0.26729,
				"method": "rhf"
			},
			{
				"type": "occ",
				"energy": -0.25876,
				"method": "rhf"
			},
			{
				"type": "unocc",
				"energy": -0.05331,
				"method": "rhf"
			},
			{
				"type": "unocc",
				"energy": -0.01442,
				"method": "rhf"
			},
			{
				"type": "unocc",
				"energy": 0.03703,
				"method": "rhf"
			},
			{
				"type": "unocc",
				"energy": 0.05201,
				"method": "rhf"
			},
			{
				"type": "unocc",
				"energy": 0.0761,
				"method": "rhf"
			}
		],
		"cosmo_sigma_profile": { 
			"-0.025": 0.0,
			"-0.024": 0.0,
			"-0.023": 0.0,
			"-0.022": 0.0,
			"-0.021": 0.0,
			"-0.02": 0.0,
			"-0.019": 0.229025820764,
			"-0.018": 0.785562614222,
			"-0.017": 0.969941920406,
			"-0.016": 0.787634842553,
			"-0.015": 0.710326380256,
			"-0.014": 0.813958327506,
			"-0.013": 0.422811092155,
			"-0.012": 0.868462537264,
			"-0.011": 1.00212336532,
			"-0.01": 0.577825216733,
			"-0.009": 0.271098823613,
			"-0.008": 1.79391913721,
			"-0.007": 10.0345371549,
			"-0.006": 16.2991862779,
			"-0.005": 17.564891524,
			"-0.004": 16.4051173432,
			"-0.003": 14.0943794041,
			"-0.002": 12.1444914078,
			"-0.001": 10.1760607299,
			"0.0": 14.5166647419,
			"0.001": 15.4960755707,
			"0.002": 15.9583708072,
			"0.003": 13.9466824446,
			"0.004": 5.9109690812,
			"0.005": 5.83867953165,
			"0.006": 4.9562109774,
			"0.007": 6.7644356062,
			"0.008": 8.6550288062,
			"0.009": 5.67329942339,
			"0.01": 4.97072452627,
			"0.011": 8.95440912738,
			"0.012": 2.508653934,
			"0.013": 0.0,
			"0.014": 0.0,
			"0.015": 0.0,
			"0.016": 0.0,
			"0.017": 0.0,
			"0.018": 0.0,
			"0.019": 0.0,
			"0.02": 0.0,
			"0.021": 0.0,
			"0.022": 0.0,
			"0.023": 0.0,
			"0.024": 0.0,
			"0.025": 0.0
		}
	}
}
