{
	 "smiles": "CCCCC(=O)OC1(C(C)CC2C3CCC4=CC(=O)C=CC4(C)C3(F)C(O)CC12C)C(=O)CO", 
	 "Tm": 457.15, 
	 "num_atms": 71, 
	 "gaussian": { 
		 "optdone": 1, 
		 "sigma_profile": "yes", 
		 "theory": "DFT", 
		 "functional": "B3LYP", 
		 "basiset": "6-31G**", 
		 "properties": { 
			 "R2extent": 16729.2134, 
			 "electric_dipole_moment_norm": 4.36664658176, 
			 "electric_quadrupole_moment_norm": 38.0742282317, 
			 "total_energy": -1602.32540635, 
			 "HOMO_LUMO_gap": 0.17674, 
			 "cosmo_polarized_energy": -26.93, 
			 "cosmo_cavitation_energy": 63.47, 
			 "cosmo_dispersion_energy": -40.35, 
			 "cosmo_repulsion_energy": 2.97, 
			 "cosmo_total_nonelectrostatic_energy": 26.09, 
			 "SMD_solvation_energy": 11.55 
		},
		"coords": [
			{
				"x": -5.0788613346,
				"y": 3.2476558922,
				"z": 1.5597129927,
				"element": "C" 
			},
			{
				"x": -4.2601407175,
				"y": 2.7453453087,
				"z": 2.7530168801,
				"element": "C" 
			},
			{
				"x": -2.8686385111,
				"y": 3.3861341294,
				"z": 2.8320042356,
				"element": "C" 
			},
			{
				"x": -2.0422837046,
				"y": 2.9440330547,
				"z": 4.0509563024,
				"element": "C" 
			},
			{
				"x": -1.6131059126,
				"y": 1.4903647579,
				"z": 4.081653245,
				"element": "C" 
			},
			{
				"x": -1.6727113197,
				"y": 0.7726680052,
				"z": 5.0579296222,
				"element": "O" 
			},
			{
				"x": -1.0914437691,
				"y": 1.0967463333,
				"z": 2.8937876023,
				"element": "O" 
			},
			{
				"x": -0.4525985896,
				"y": -0.2092729548,
				"z": 2.7936004549,
				"element": "C" 
			},
			{
				"x": -1.5107023827,
				"y": -1.2702818763,
				"z": 2.4126326686,
				"element": "C" 
			},
			{
				"x": -2.7848849922,
				"y": -1.4049399932,
				"z": 3.251113112,
				"element": "C" 
			},
			{
				"x": -1.7932953617,
				"y": -0.9104439837,
				"z": 0.9447383728,
				"element": "C" 
			},
			{
				"x": -0.4037912778,
				"y": -0.6730805218,
				"z": 0.3075464154,
				"element": "C" 
			},
			{
				"x": 0.0935669427,
				"y": -1.9887698427,
				"z": -0.3643258685,
				"element": "C" 
			},
			{
				"x": -0.7258992449,
				"y": -2.3325176378,
				"z": -1.6201284132,
				"element": "C" 
			},
			{
				"x": -0.4092423337,
				"y": -1.3872641386,
				"z": -2.7975219561,
				"element": "C" 
			},
			{
				"x": 1.0214615696,
				"y": -0.8958152764,
				"z": -2.7825713398,
				"element": "C" 
			},
			{
				"x": 1.35800038,
				"y": 0.3099120012,
				"z": -3.2794027195,
				"element": "C" 
			},
			{
				"x": 2.7475161583,
				"y": 0.8010403495,
				"z": -3.3439636712,
				"element": "C" 
			},
			{
				"x": 3.0278721089,
				"y": 1.9022739057,
				"z": -3.8127316746,
				"element": "O" 
			},
			{
				"x": 3.7769863933,
				"y": -0.1189044457,
				"z": -2.8203310875,
				"element": "C" 
			},
			{
				"x": 3.4566783509,
				"y": -1.3035120349,
				"z": -2.2792727121,
				"element": "C" 
			},
			{
				"x": 2.0464379719,
				"y": -1.841054173,
				"z": -2.183259408,
				"element": "C" 
			},
			{
				"x": 2.0745395022,
				"y": -3.1710444995,
				"z": -3.0005113128,
				"element": "C" 
			},
			{
				"x": 1.6246345806,
				"y": -2.1150637622,
				"z": -0.6592133514,
				"element": "C" 
			},
			{
				"x": 1.9264121182,
				"y": -3.4603332817,
				"z": -0.3855416086,
				"element": "F" 
			},
			{
				"x": 2.4490365672,
				"y": -1.2630905841,
				"z": 0.3301802264,
				"element": "C" 
			},
			{
				"x": 3.6991333254,
				"y": -1.9165260612,
				"z": 0.5177523624,
				"element": "O" 
			},
			{
				"x": 1.7294966246,
				"y": -1.0566008017,
				"z": 1.6638886819,
				"element": "C" 
			},
			{
				"x": 0.4910520361,
				"y": -0.140671935,
				"z": 1.5010520845,
				"element": "C" 
			},
			{
				"x": 0.9562215284,
				"y": 1.3092570861,
				"z": 1.2599214811,
				"element": "C" 
			},
			{
				"x": 0.405716346,
				"y": -0.4251018946,
				"z": 4.0576722874,
				"element": "C" 
			},
			{
				"x": 1.1748366467,
				"y": 0.4498193067,
				"z": 4.4245636962,
				"element": "O" 
			},
			{
				"x": 0.3878123235,
				"y": -1.7421079866,
				"z": 4.8239898713,
				"element": "C" 
			},
			{
				"x": 1.3925585479,
				"y": -1.7667279646,
				"z": 5.7968358313,
				"element": "O" 
			},
			{
				"x": -6.0660963041,
				"y": 2.7760937998,
				"z": 1.5260960534,
				"element": "H" 
			},
			{
				"x": -4.5733649411,
				"y": 3.0306838127,
				"z": 0.6117653703,
				"element": "H" 
			},
			{
				"x": -5.2297586993,
				"y": 4.3318217832,
				"z": 1.6117180821,
				"element": "H" 
			},
			{
				"x": -4.804891761,
				"y": 2.9463870871,
				"z": 3.6850495928,
				"element": "H" 
			},
			{
				"x": -4.1590397684,
				"y": 1.6537567597,
				"z": 2.689884115,
				"element": "H" 
			},
			{
				"x": -2.3077836645,
				"y": 3.1717894195,
				"z": 1.9152354081,
				"element": "H" 
			},
			{
				"x": -2.9789468092,
				"y": 4.4769104909,
				"z": 2.8787583837,
				"element": "H" 
			},
			{
				"x": -1.1143062681,
				"y": 3.5293580247,
				"z": 4.0933338009,
				"element": "H" 
			},
			{
				"x": -2.5825258721,
				"y": 3.1275700136,
				"z": 4.9836315022,
				"element": "H" 
			},
			{
				"x": -0.9921593275,
				"y": -2.2391689217,
				"z": 2.4272102597,
				"element": "H" 
			},
			{
				"x": -2.5839987747,
				"y": -1.6316322984,
				"z": 4.2990983858,
				"element": "H" 
			},
			{
				"x": -3.3999934467,
				"y": -2.212308683,
				"z": 2.8394080958,
				"element": "H" 
			},
			{
				"x": -3.3827515309,
				"y": -0.490327175,
				"z": 3.2215467642,
				"element": "H" 
			},
			{
				"x": -2.3908437912,
				"y": 0.0067535114,
				"z": 0.9135030973,
				"element": "H" 
			},
			{
				"x": -2.3762565094,
				"y": -1.6894922238,
				"z": 0.4465165301,
				"element": "H" 
			},
			{
				"x": -0.4627676384,
				"y": 0.109931738,
				"z": -0.4549167344,
				"element": "H" 
			},
			{
				"x": -0.0682122503,
				"y": -2.7934657442,
				"z": 0.3623487026,
				"element": "H" 
			},
			{
				"x": -0.5113422261,
				"y": -3.3694121316,
				"z": -1.8919702597,
				"element": "H" 
			},
			{
				"x": -1.7973200345,
				"y": -2.3012662401,
				"z": -1.4055939412,
				"element": "H" 
			},
			{
				"x": -1.0810489843,
				"y": -0.5228318994,
				"z": -2.7997992034,
				"element": "H" 
			},
			{
				"x": -0.5980819525,
				"y": -1.9143606828,
				"z": -3.7426744803,
				"element": "H" 
			},
			{
				"x": 0.6044092044,
				"y": 0.9794962283,
				"z": -3.6882172864,
				"element": "H" 
			},
			{
				"x": 4.8074925361,
				"y": 0.2163275295,
				"z": -2.8983062178,
				"element": "H" 
			},
			{
				"x": 4.2292673903,
				"y": -1.9572415447,
				"z": -1.8877149057,
				"element": "H" 
			},
			{
				"x": 2.8043983657,
				"y": -3.8565070877,
				"z": -2.5682444685,
				"element": "H" 
			},
			{
				"x": 1.1107441387,
				"y": -3.6795379412,
				"z": -3.0209563813,
				"element": "H" 
			},
			{
				"x": 2.3663943657,
				"y": -2.9474636307,
				"z": -4.0302240871,
				"element": "H" 
			},
			{
				"x": 2.603371195,
				"y": -0.2869970248,
				"z": -0.1453474608,
				"element": "H" 
			},
			{
				"x": 4.2843021674,
				"y": -1.2944959686,
				"z": 0.9689551001,
				"element": "H" 
			},
			{
				"x": 2.4333715039,
				"y": -0.6071315278,
				"z": 2.3717824418,
				"element": "H" 
			},
			{
				"x": 1.4684427848,
				"y": -2.0441561612,
				"z": 2.0604954861,
				"element": "H" 
			},
			{
				"x": 1.4587940517,
				"y": 1.7011794798,
				"z": 2.1480750263,
				"element": "H" 
			},
			{
				"x": 1.648709789,
				"y": 1.3639715199,
				"z": 0.4162449159,
				"element": "H" 
			},
			{
				"x": 0.1127839228,
				"y": 1.9622072373,
				"z": 1.0319425974,
				"element": "H" 
			},
			{
				"x": 0.5157599704,
				"y": -2.5836421697,
				"z": 4.1274853922,
				"element": "H" 
			},
			{
				"x": -0.6150766469,
				"y": -1.8436156879,
				"z": 5.2670509175,
				"element": "H" 
			},
			{
				"x": 1.7299552445,
				"y": -0.8542081712,
				"z": 5.8359561023,
				"element": "H" 
			}
		],
		 "valence_orbital": [ 
			{
				"type": "occ",
				"energy": -0.27102,
				"method": "rhf"
			},
			{
				"type": "occ",
				"energy": -0.26899,
				"method": "rhf"
			},
			{
				"type": "occ",
				"energy": -0.26427,
				"method": "rhf"
			},
			{
				"type": "occ",
				"energy": -0.2589,
				"method": "rhf"
			},
			{
				"type": "occ",
				"energy": -0.23616,
				"method": "rhf"
			},
			{
				"type": "unocc",
				"energy": -0.05942,
				"method": "rhf"
			},
			{
				"type": "unocc",
				"energy": -0.03913,
				"method": "rhf"
			},
			{
				"type": "unocc",
				"energy": -0.00607,
				"method": "rhf"
			},
			{
				"type": "unocc",
				"energy": -0.00242,
				"method": "rhf"
			},
			{
				"type": "unocc",
				"energy": 0.05203,
				"method": "rhf"
			}
		],
		"cosmo_sigma_profile": { 
			"-0.025": 0.0,
			"-0.024": 0.0,
			"-0.023": 0.0,
			"-0.022": 0.0,
			"-0.021": 0.0,
			"-0.02": 0.0,
			"-0.019": 0.0,
			"-0.018": 0.0,
			"-0.017": 0.0,
			"-0.016": 0.579439495777,
			"-0.015": 1.33785730984,
			"-0.014": 0.768419856922,
			"-0.013": 1.28689938228,
			"-0.012": 0.948513797913,
			"-0.011": 1.5836376196,
			"-0.01": 1.31751899646,
			"-0.009": 2.23510313184,
			"-0.008": 3.50670838667,
			"-0.007": 5.42321288432,
			"-0.006": 12.9415820305,
			"-0.005": 27.7557889118,
			"-0.004": 38.0923774814,
			"-0.003": 52.9179171189,
			"-0.002": 66.3862935061,
			"-0.001": 57.5302122945,
			"0.0": 52.3712503398,
			"0.001": 38.8389854139,
			"0.002": 24.0086736996,
			"0.003": 12.4751312271,
			"0.004": 9.83417211293,
			"0.005": 9.26207200308,
			"0.006": 10.8372484904,
			"0.007": 7.69033766048,
			"0.008": 7.73409784732,
			"0.009": 6.9401457738,
			"0.01": 6.76518664624,
			"0.011": 6.27909388982,
			"0.012": 7.16903662571,
			"0.013": 8.70969582746,
			"0.014": 6.93332655011,
			"0.015": 1.37713753059,
			"0.016": 0.0,
			"0.017": 0.0,
			"0.018": 0.0,
			"0.019": 0.0,
			"0.02": 0.0,
			"0.021": 0.0,
			"0.022": 0.0,
			"0.023": 0.0,
			"0.024": 0.0,
			"0.025": 0.0
		}
	}
}
