{
	 "smiles": "CC1=C(N)C(=CC(Cl)=C1)[N+]([O-])=O", 
	 "Tm": 402.15, 
	 "num_atms": 19, 
	 "gaussian": { 
		 "optdone": 1, 
		 "sigma_profile": "yes", 
		 "theory": "DFT", 
		 "functional": "B3LYP", 
		 "basiset": "6-31G**", 
		 "properties": { 
			 "R2extent": 3922.2768, 
			 "electric_dipole_moment_norm": 5.40001434906, 
			 "electric_quadrupole_moment_norm": 13.4132705844, 
			 "total_energy": -991.021562289, 
			 "HOMO_LUMO_gap": 0.13544, 
			 "cosmo_polarized_energy": -11.3, 
			 "cosmo_cavitation_energy": 24.91, 
			 "cosmo_dispersion_energy": -18.9, 
			 "cosmo_repulsion_energy": 1.5, 
			 "cosmo_total_nonelectrostatic_energy": 7.51, 
			 "SMD_solvation_energy": 5.9 
		},
		"coords": [
			{
				"x": 0.6379629669,
				"y": -0.4064356344,
				"z": 0.9772882857,
				"element": "C" 
			},
			{
				"x": 0.0023292581,
				"y": 0.3489197829,
				"z": -0.1630898113,
				"element": "C" 
			},
			{
				"x": -1.3913716464,
				"y": 0.1682835934,
				"z": -0.433675653,
				"element": "C" 
			},
			{
				"x": -2.1167780322,
				"y": -0.6814431731,
				"z": 0.3348677102,
				"element": "N" 
			},
			{
				"x": -1.9422143028,
				"y": 0.9026778422,
				"z": -1.5209611272,
				"element": "C" 
			},
			{
				"x": -1.1601579262,
				"y": 1.7694080209,
				"z": -2.3026196697,
				"element": "C" 
			},
			{
				"x": 0.177093933,
				"y": 1.9176072411,
				"z": -2.0128277972,
				"element": "C" 
			},
			{
				"x": 1.178364908,
				"y": 2.9940273828,
				"z": -2.9727805152,
				"element": "Cl" 
			},
			{
				"x": 0.7529671512,
				"y": 1.2086756007,
				"z": -0.9459846407,
				"element": "C" 
			},
			{
				"x": -3.3435595919,
				"y": 0.8022521547,
				"z": -1.8845166256,
				"element": "N" 
			},
			{
				"x": -3.7519962495,
				"y": 1.4662261177,
				"z": -2.8370228111,
				"element": "O" 
			},
			{
				"x": -4.0865462633,
				"y": 0.0507862426,
				"z": -1.2235937797,
				"element": "O" 
			},
			{
				"x": 0.1741603822,
				"y": -0.1558349599,
				"z": 1.9406906272,
				"element": "H" 
			},
			{
				"x": 0.551226104,
				"y": -1.4927269575,
				"z": 0.8432901948,
				"element": "H" 
			},
			{
				"x": 1.7009914912,
				"y": -0.1699177099,
				"z": 1.0559522455,
				"element": "H" 
			},
			{
				"x": -3.1030364837,
				"y": -0.7749791147,
				"z": 0.1371393313,
				"element": "H" 
			},
			{
				"x": -1.6914621739,
				"y": -1.1496752545,
				"z": 1.1150031282,
				"element": "H" 
			},
			{
				"x": -1.6340833277,
				"y": 2.300835841,
				"z": -3.1162736888,
				"element": "H" 
			},
			{
				"x": 1.809109803,
				"y": 1.338212984,
				"z": -0.7324854037,
				"element": "H" 
			}
		],
		 "valence_orbital": [ 
			{
				"type": "occ",
				"energy": -0.30782,
				"method": "rhf"
			},
			{
				"type": "occ",
				"energy": -0.30417,
				"method": "rhf"
			},
			{
				"type": "occ",
				"energy": -0.28976,
				"method": "rhf"
			},
			{
				"type": "occ",
				"energy": -0.2788,
				"method": "rhf"
			},
			{
				"type": "occ",
				"energy": -0.22292,
				"method": "rhf"
			},
			{
				"type": "unocc",
				"energy": -0.08748,
				"method": "rhf"
			},
			{
				"type": "unocc",
				"energy": -0.01439,
				"method": "rhf"
			},
			{
				"type": "unocc",
				"energy": 0.00218,
				"method": "rhf"
			},
			{
				"type": "unocc",
				"energy": 0.02299,
				"method": "rhf"
			},
			{
				"type": "unocc",
				"energy": 0.06235,
				"method": "rhf"
			}
		],
		"cosmo_sigma_profile": { 
			"-0.025": 0.0,
			"-0.024": 0.0,
			"-0.023": 0.0,
			"-0.022": 0.0,
			"-0.021": 0.0,
			"-0.02": 0.0,
			"-0.019": 0.0,
			"-0.018": 0.0,
			"-0.017": 0.0,
			"-0.016": 0.0,
			"-0.015": 0.0691383617844,
			"-0.014": 0.817977131201,
			"-0.013": 0.817908971983,
			"-0.012": 0.986167866262,
			"-0.011": 1.76073984784,
			"-0.01": 2.17867054613,
			"-0.009": 2.77035152535,
			"-0.008": 3.11787804855,
			"-0.007": 5.77484498364,
			"-0.006": 6.90785533948,
			"-0.005": 10.210658797,
			"-0.004": 10.4482678899,
			"-0.003": 12.3548375954,
			"-0.002": 14.1493606849,
			"-0.001": 18.1397308316,
			"0.0": 18.3828367331,
			"0.001": 19.41051167,
			"0.002": 18.1945577796,
			"0.003": 9.76926754384,
			"0.004": 12.1175713005,
			"0.005": 8.48135633379,
			"0.006": 3.12028893608,
			"0.007": 3.97379169651,
			"0.008": 6.24140921113,
			"0.009": 4.65369932526,
			"0.01": 4.18091536686,
			"0.011": 2.21524979382,
			"0.012": 0.030587146501,
			"0.013": 0.0,
			"0.014": 0.0,
			"0.015": 0.0,
			"0.016": 0.0,
			"0.017": 0.0,
			"0.018": 0.0,
			"0.019": 0.0,
			"0.02": 0.0,
			"0.021": 0.0,
			"0.022": 0.0,
			"0.023": 0.0,
			"0.024": 0.0,
			"0.025": 0.0
		}
	}
}
