{
	 "smiles": "CC1=C(OC2=C(C=CC=C2C(O)=O)C1=O)C1=CC=CC=C1", 
	 "Tm": 508.15, 
	 "num_atms": 33, 
	 "gaussian": { 
		 "optdone": 1, 
		 "sigma_profile": "yes", 
		 "theory": "DFT", 
		 "functional": "B3LYP", 
		 "basiset": "6-31G**", 
		 "properties": { 
			 "R2extent": 6567.5478, 
			 "electric_dipole_moment_norm": 4.13111565803, 
			 "electric_quadrupole_moment_norm": 24.7972684786, 
			 "total_energy": -955.955103855, 
			 "HOMO_LUMO_gap": 0.16577, 
			 "cosmo_polarized_energy": -16.46, 
			 "cosmo_cavitation_energy": 37.2, 
			 "cosmo_dispersion_energy": -26.64, 
			 "cosmo_repulsion_energy": 1.97, 
			 "cosmo_total_nonelectrostatic_energy": 12.53, 
			 "SMD_solvation_energy": 7.85 
		},
		"coords": [
			{
				"x": 3.0495541675,
				"y": 2.0937554867,
				"z": 1.9946688186,
				"element": "C" 
			},
			{
				"x": 2.4022561867,
				"y": 1.1595597643,
				"z": 1.007443268,
				"element": "C" 
			},
			{
				"x": 1.0626491998,
				"y": 0.9395454874,
				"z": 0.923948796,
				"element": "C" 
			},
			{
				"x": 0.5155365607,
				"y": 0.1311563457,
				"z": -0.0552811438,
				"element": "O" 
			},
			{
				"x": 1.2899710393,
				"y": -0.5037448133,
				"z": -0.9915990017,
				"element": "C" 
			},
			{
				"x": 2.6805603461,
				"y": -0.3642922143,
				"z": -0.9618506326,
				"element": "C" 
			},
			{
				"x": 3.4526050076,
				"y": -1.02861026,
				"z": -1.9272338977,
				"element": "C" 
			},
			{
				"x": 2.838940975,
				"y": -1.8093811669,
				"z": -2.8960046664,
				"element": "C" 
			},
			{
				"x": 1.445859496,
				"y": -1.9331243546,
				"z": -2.90907491,
				"element": "C" 
			},
			{
				"x": 0.6398049138,
				"y": -1.2937044608,
				"z": -1.9631768074,
				"element": "C" 
			},
			{
				"x": -0.8495808914,
				"y": -1.5060979869,
				"z": -2.0908675811,
				"element": "C" 
			},
			{
				"x": -1.6502333234,
				"y": -1.0060435514,
				"z": -1.1283594872,
				"element": "O" 
			},
			{
				"x": -1.3226491616,
				"y": -2.1137284625,
				"z": -3.0248792849,
				"element": "O" 
			},
			{
				"x": 3.316578872,
				"y": 0.4869531358,
				"z": 0.0653608085,
				"element": "C" 
			},
			{
				"x": 4.5367105515,
				"y": 0.6396943729,
				"z": 0.1194805637,
				"element": "O" 
			},
			{
				"x": -0.012747235,
				"y": 1.4935704773,
				"z": 1.773398983,
				"element": "C" 
			},
			{
				"x": 0.1297347088,
				"y": 1.5757645835,
				"z": 3.1681552235,
				"element": "C" 
			},
			{
				"x": -0.9022848159,
				"y": 2.0873310444,
				"z": 3.9534249837,
				"element": "C" 
			},
			{
				"x": -2.0894468552,
				"y": 2.5201761468,
				"z": 3.3602389636,
				"element": "C" 
			},
			{
				"x": -2.2453452443,
				"y": 2.4319091536,
				"z": 1.9750927107,
				"element": "C" 
			},
			{
				"x": -1.2183890717,
				"y": 1.9189770223,
				"z": 1.186258855,
				"element": "C" 
			},
			{
				"x": 3.8937323713,
				"y": 2.5867295181,
				"z": 1.50668643,
				"element": "H" 
			},
			{
				"x": 2.3548873362,
				"y": 2.8445490113,
				"z": 2.3735598255,
				"element": "H" 
			},
			{
				"x": 3.4666230787,
				"y": 1.5454814838,
				"z": 2.847780855,
				"element": "H" 
			},
			{
				"x": 4.5291341996,
				"y": -0.9014717396,
				"z": -1.8808211154,
				"element": "H" 
			},
			{
				"x": 3.4331526148,
				"y": -2.3229957885,
				"z": -3.644803885,
				"element": "H" 
			},
			{
				"x": 0.9407081826,
				"y": -2.5321609805,
				"z": -3.6589411926,
				"element": "H" 
			},
			{
				"x": -1.1251635466,
				"y": -0.5649706051,
				"z": -0.4397283246,
				"element": "H" 
			},
			{
				"x": 1.0370477408,
				"y": 1.2147624285,
				"z": 3.63924212,
				"element": "H" 
			},
			{
				"x": -0.7814298785,
				"y": 2.1374614841,
				"z": 5.0313353315,
				"element": "H" 
			},
			{
				"x": -2.8918086099,
				"y": 2.918009778,
				"z": 3.9742978567,
				"element": "H" 
			},
			{
				"x": -3.1673421955,
				"y": 2.7630345637,
				"z": 1.5070865966,
				"element": "H" 
			},
			{
				"x": -1.34502672,
				"y": 1.8544050964,
				"z": 0.1102609405,
				"element": "H" 
			}
		],
		 "valence_orbital": [ 
			{
				"type": "occ",
				"energy": -0.27533,
				"method": "rhf"
			},
			{
				"type": "occ",
				"energy": -0.27373,
				"method": "rhf"
			},
			{
				"type": "occ",
				"energy": -0.2667,
				"method": "rhf"
			},
			{
				"type": "occ",
				"energy": -0.25606,
				"method": "rhf"
			},
			{
				"type": "occ",
				"energy": -0.24724,
				"method": "rhf"
			},
			{
				"type": "unocc",
				"energy": -0.08147,
				"method": "rhf"
			},
			{
				"type": "unocc",
				"energy": -0.04933,
				"method": "rhf"
			},
			{
				"type": "unocc",
				"energy": -0.03852,
				"method": "rhf"
			},
			{
				"type": "unocc",
				"energy": -0.02637,
				"method": "rhf"
			},
			{
				"type": "unocc",
				"energy": -0.00363,
				"method": "rhf"
			}
		],
		"cosmo_sigma_profile": { 
			"-0.025": 0.0,
			"-0.024": 0.0,
			"-0.023": 0.0,
			"-0.022": 0.0,
			"-0.021": 0.0,
			"-0.02": 0.0,
			"-0.019": 0.0,
			"-0.018": 0.0,
			"-0.017": 0.0,
			"-0.016": 0.0,
			"-0.015": 0.0,
			"-0.014": 0.0,
			"-0.013": 0.0,
			"-0.012": 0.0,
			"-0.011": 0.158606845553,
			"-0.01": 1.14121376736,
			"-0.009": 1.3337233467,
			"-0.008": 1.74623570926,
			"-0.007": 10.0456408475,
			"-0.006": 20.1721856062,
			"-0.005": 24.4862497404,
			"-0.004": 24.9514381455,
			"-0.003": 23.1619137565,
			"-0.002": 26.1488198579,
			"-0.001": 26.8621618696,
			"0.0": 28.11522551,
			"0.001": 20.1323381528,
			"0.002": 16.6136607484,
			"0.003": 13.3960371965,
			"0.004": 13.4422847743,
			"0.005": 4.19483926774,
			"0.006": 4.47337596518,
			"0.007": 3.70585024221,
			"0.008": 3.67792312738,
			"0.009": 4.78052901824,
			"0.01": 5.90499038949,
			"0.011": 8.20435317086,
			"0.012": 7.45829731812,
			"0.013": 5.11928410179,
			"0.014": 0.142147078514,
			"0.015": 0.0,
			"0.016": 0.0,
			"0.017": 0.0,
			"0.018": 0.0,
			"0.019": 0.0,
			"0.02": 0.0,
			"0.021": 0.0,
			"0.022": 0.0,
			"0.023": 0.0,
			"0.024": 0.0,
			"0.025": 0.0
		}
	}
}
