{
	 "smiles": "OCC1=CC(=CC=C1)N1CCOCC1", 
	 "Tm": 325.65, 
	 "num_atms": 29, 
	 "gaussian": { 
		 "optdone": 1, 
		 "sigma_profile": "yes", 
		 "theory": "DFT", 
		 "functional": "B3LYP", 
		 "basiset": "6-31G**", 
		 "properties": { 
			 "R2extent": 3679.2698, 
			 "electric_dipole_moment_norm": 1.41106845688, 
			 "electric_quadrupole_moment_norm": 6.36987896902, 
			 "total_energy": -633.373390862, 
			 "HOMO_LUMO_gap": 0.19137, 
			 "cosmo_polarized_energy": -10.99, 
			 "cosmo_cavitation_energy": 30.32, 
			 "cosmo_dispersion_energy": -22.58, 
			 "cosmo_repulsion_energy": 1.79, 
			 "cosmo_total_nonelectrostatic_energy": 9.53, 
			 "SMD_solvation_energy": 4.03 
		},
		"coords": [
			{
				"x": 0.7724235116,
				"y": 1.77503125,
				"z": -3.045099559,
				"element": "O" 
			},
			{
				"x": 1.7460494596,
				"y": 1.9295478421,
				"z": -2.0206650105,
				"element": "C" 
			},
			{
				"x": 1.5146646208,
				"y": 1.043739669,
				"z": -0.8097821117,
				"element": "C" 
			},
			{
				"x": 0.2122012901,
				"y": 0.6818913669,
				"z": -0.4608377048,
				"element": "C" 
			},
			{
				"x": -0.0493148606,
				"y": -0.1100360311,
				"z": 0.6783549829,
				"element": "C" 
			},
			{
				"x": 1.0521595661,
				"y": -0.5228817908,
				"z": 1.4616699827,
				"element": "C" 
			},
			{
				"x": 2.3466382861,
				"y": -0.1505825814,
				"z": 1.1094106201,
				"element": "C" 
			},
			{
				"x": 2.593301633,
				"y": 0.6242689298,
				"z": -0.0237125584,
				"element": "C" 
			},
			{
				"x": -1.3457712151,
				"y": -0.4744265977,
				"z": 1.0160037353,
				"element": "N" 
			},
			{
				"x": -2.4623025623,
				"y": -0.2688875425,
				"z": 0.1021500291,
				"element": "C" 
			},
			{
				"x": -3.5885451296,
				"y": -1.2454433288,
				"z": 0.4346908212,
				"element": "C" 
			},
			{
				"x": -4.074079326,
				"y": -1.1198572116,
				"z": 1.7678266238,
				"element": "O" 
			},
			{
				"x": -3.1195979496,
				"y": -0.6136715922,
				"z": 2.6939433147,
				"element": "C" 
			},
			{
				"x": -1.679319462,
				"y": -0.9824000042,
				"z": 2.3423275533,
				"element": "C" 
			},
			{
				"x": 0.7598131578,
				"y": 0.8390893879,
				"z": -3.2866584601,
				"element": "H" 
			},
			{
				"x": 2.7648890544,
				"y": 1.7636108463,
				"z": -2.4053588384,
				"element": "H" 
			},
			{
				"x": 1.6876635753,
				"y": 2.9856490961,
				"z": -1.7301376888,
				"element": "H" 
			},
			{
				"x": -0.5971440725,
				"y": 1.0469338573,
				"z": -1.0817254463,
				"element": "H" 
			},
			{
				"x": 0.9026802546,
				"y": -1.160334738,
				"z": 2.3255075407,
				"element": "H" 
			},
			{
				"x": 3.1768613147,
				"y": -0.4916031477,
				"z": 1.7224481998,
				"element": "H" 
			},
			{
				"x": 3.6095274595,
				"y": 0.8958751977,
				"z": -0.2965885106,
				"element": "H" 
			},
			{
				"x": -2.1361905176,
				"y": -0.4651435455,
				"z": -0.9253839268,
				"element": "H" 
			},
			{
				"x": -2.8400307523,
				"y": 0.7666008299,
				"z": 0.128978471,
				"element": "H" 
			},
			{
				"x": -4.4385068223,
				"y": -1.0708083072,
				"z": -0.2336566242,
				"element": "H" 
			},
			{
				"x": -3.2304956601,
				"y": -2.2722962164,
				"z": 0.2620931823,
				"element": "H" 
			},
			{
				"x": -3.3787509311,
				"y": -1.0268896238,
				"z": 3.6743914898,
				"element": "H" 
			},
			{
				"x": -3.2005543513,
				"y": 0.4826043032,
				"z": 2.7600718474,
				"element": "H" 
			},
			{
				"x": -1.0202553706,
				"y": -0.5244997868,
				"z": 3.0887154693,
				"element": "H" 
			},
			{
				"x": -1.5441142005,
				"y": -2.0738805308,
				"z": 2.4140225764,
				"element": "H" 
			}
		],
		 "valence_orbital": [ 
			{
				"type": "occ",
				"energy": -0.28168,
				"method": "rhf"
			},
			{
				"type": "occ",
				"energy": -0.27163,
				"method": "rhf"
			},
			{
				"type": "occ",
				"energy": -0.25216,
				"method": "rhf"
			},
			{
				"type": "occ",
				"energy": -0.23677,
				"method": "rhf"
			},
			{
				"type": "occ",
				"energy": -0.18862,
				"method": "rhf"
			},
			{
				"type": "unocc",
				"energy": 0.00275,
				"method": "rhf"
			},
			{
				"type": "unocc",
				"energy": 0.01835,
				"method": "rhf"
			},
			{
				"type": "unocc",
				"energy": 0.07754,
				"method": "rhf"
			},
			{
				"type": "unocc",
				"energy": 0.0914,
				"method": "rhf"
			},
			{
				"type": "unocc",
				"energy": 0.10562,
				"method": "rhf"
			}
		],
		"cosmo_sigma_profile": { 
			"-0.025": 0.0,
			"-0.024": 0.0,
			"-0.023": 0.0,
			"-0.022": 0.0,
			"-0.021": 0.0,
			"-0.02": 0.0,
			"-0.019": 0.0,
			"-0.018": 0.0,
			"-0.017": 0.0,
			"-0.016": 0.0218180744768,
			"-0.015": 0.565736348146,
			"-0.014": 0.780829829759,
			"-0.013": 0.925935172964,
			"-0.012": 1.14528078186,
			"-0.011": 0.556342772017,
			"-0.01": 0.422160590867,
			"-0.009": 1.01974380606,
			"-0.008": 0.72530441276,
			"-0.007": 0.869679150767,
			"-0.006": 2.7477995102,
			"-0.005": 20.3414416726,
			"-0.004": 33.2228573293,
			"-0.003": 35.5781000839,
			"-0.002": 24.309451653,
			"-0.001": 15.4976218187,
			"0.0": 10.6586198486,
			"0.001": 10.7335411815,
			"0.002": 8.57712895047,
			"0.003": 8.93011536822,
			"0.004": 10.1799902357,
			"0.005": 9.71791683377,
			"0.006": 9.79295619523,
			"0.007": 9.11478492659,
			"0.008": 5.25651546672,
			"0.009": 1.87600493357,
			"0.01": 2.10961926483,
			"0.011": 2.62476572878,
			"0.012": 2.99531608759,
			"0.013": 3.02639463656,
			"0.014": 2.91099234864,
			"0.015": 0.319855836926,
			"0.016": 0.0,
			"0.017": 0.0,
			"0.018": 0.0,
			"0.019": 0.0,
			"0.02": 0.0,
			"0.021": 0.0,
			"0.022": 0.0,
			"0.023": 0.0,
			"0.024": 0.0,
			"0.025": 0.0
		}
	}
}
