{
	 "smiles": "COC1=CC=C(C=C1)C(=O)N=C=S", 
	 "Tm": 297.15, 
	 "num_atms": 20, 
	 "gaussian": { 
		 "optdone": 1, 
		 "sigma_profile": "yes", 
		 "theory": "DFT", 
		 "functional": "B3LYP", 
		 "basiset": "6-31G**", 
		 "properties": { 
			 "R2extent": 5806.4396, 
			 "electric_dipole_moment_norm": 5.09401973102, 
			 "electric_quadrupole_moment_norm": 9.0045837855, 
			 "total_energy": -950.551170175, 
			 "HOMO_LUMO_gap": 0.16525, 
			 "cosmo_polarized_energy": -8.13, 
			 "cosmo_cavitation_energy": 28.22, 
			 "cosmo_dispersion_energy": -20.9, 
			 "cosmo_repulsion_energy": 1.62, 
			 "cosmo_total_nonelectrostatic_energy": 8.94, 
			 "SMD_solvation_energy": 6.82 
		},
		"coords": [
			{
				"x": 1.7035732374,
				"y": -1.182963203,
				"z": 2.4013073114,
				"element": "C" 
			},
			{
				"x": 1.0370655138,
				"y": -1.7915746009,
				"z": 1.3011239143,
				"element": "O" 
			},
			{
				"x": 0.2981823839,
				"y": -1.0128365246,
				"z": 0.4737033661,
				"element": "C" 
			},
			{
				"x": 0.1357100246,
				"y": 0.3749961074,
				"z": 0.6209318244,
				"element": "C" 
			},
			{
				"x": -0.6477937767,
				"y": 1.0718073648,
				"z": -0.2915872653,
				"element": "C" 
			},
			{
				"x": -1.2777436963,
				"y": 0.410857757,
				"z": -1.3556890964,
				"element": "C" 
			},
			{
				"x": -1.1081013919,
				"y": -0.9790310734,
				"z": -1.4933283072,
				"element": "C" 
			},
			{
				"x": -0.3301887344,
				"y": -1.6839384042,
				"z": -0.5908845933,
				"element": "C" 
			},
			{
				"x": -2.0939169419,
				"y": 1.20874196,
				"z": -2.286657162,
				"element": "C" 
			},
			{
				"x": -2.2721851728,
				"y": 2.4075496901,
				"z": -2.2132680265,
				"element": "O" 
			},
			{
				"x": -2.6924538417,
				"y": 0.4423960983,
				"z": -3.3344319495,
				"element": "N" 
			},
			{
				"x": -3.4097823016,
				"y": 0.6270958958,
				"z": -4.2909801447,
				"element": "C" 
			},
			{
				"x": -4.3361216214,
				"y": 0.7405513135,
				"z": -5.5595761198,
				"element": "S" 
			},
			{
				"x": 2.2260010677,
				"y": -1.9897262198,
				"z": 2.9164223718,
				"element": "H" 
			},
			{
				"x": 0.9925542594,
				"y": -0.7127834688,
				"z": 3.091263568,
				"element": "H" 
			},
			{
				"x": 2.4322706199,
				"y": -0.4353671714,
				"z": 2.0655287484,
				"element": "H" 
			},
			{
				"x": 0.6116318799,
				"y": 0.9090245267,
				"z": 1.4342191159,
				"element": "H" 
			},
			{
				"x": -0.7844543799,
				"y": 2.1435815401,
				"z": -0.1936361883,
				"element": "H" 
			},
			{
				"x": -1.592137396,
				"y": -1.4978399658,
				"z": -2.3138683648,
				"element": "H" 
			},
			{
				"x": -0.1881097319,
				"y": -2.7554416218,
				"z": -0.6811930025,
				"element": "H" 
			}
		],
		 "valence_orbital": [ 
			{
				"type": "occ",
				"energy": -0.30036,
				"method": "rhf"
			},
			{
				"type": "occ",
				"energy": -0.27372,
				"method": "rhf"
			},
			{
				"type": "occ",
				"energy": -0.26717,
				"method": "rhf"
			},
			{
				"type": "occ",
				"energy": -0.26391,
				"method": "rhf"
			},
			{
				"type": "occ",
				"energy": -0.24044,
				"method": "rhf"
			},
			{
				"type": "unocc",
				"energy": -0.07519,
				"method": "rhf"
			},
			{
				"type": "unocc",
				"energy": -0.03843,
				"method": "rhf"
			},
			{
				"type": "unocc",
				"energy": -0.01894,
				"method": "rhf"
			},
			{
				"type": "unocc",
				"energy": -0.00317,
				"method": "rhf"
			},
			{
				"type": "unocc",
				"energy": 0.07467,
				"method": "rhf"
			}
		],
		"cosmo_sigma_profile": { 
			"-0.025": 0.0,
			"-0.024": 0.0,
			"-0.023": 0.0,
			"-0.022": 0.0,
			"-0.021": 0.0,
			"-0.02": 0.0,
			"-0.019": 0.0,
			"-0.018": 0.0,
			"-0.017": 0.0,
			"-0.016": 0.0,
			"-0.015": 0.0,
			"-0.014": 0.0,
			"-0.013": 0.0,
			"-0.012": 0.0,
			"-0.011": 0.0,
			"-0.01": 0.0,
			"-0.009": 0.0,
			"-0.008": 0.359573907769,
			"-0.007": 5.42505514465,
			"-0.006": 15.5053289719,
			"-0.005": 14.4321044507,
			"-0.004": 15.0510548563,
			"-0.003": 16.37821667,
			"-0.002": 16.7664270432,
			"-0.001": 21.8235900549,
			"0.0": 21.5533938222,
			"0.001": 21.8984129447,
			"0.002": 24.4275558651,
			"0.003": 27.9166338959,
			"0.004": 6.89193538272,
			"0.005": 2.68925755549,
			"0.006": 1.9821253686,
			"0.007": 3.31316687401,
			"0.008": 3.181719218,
			"0.009": 3.68410361311,
			"0.01": 3.53363417798,
			"0.011": 3.85894157955,
			"0.012": 0.236200817309,
			"0.013": 0.0,
			"0.014": 0.0,
			"0.015": 0.0,
			"0.016": 0.0,
			"0.017": 0.0,
			"0.018": 0.0,
			"0.019": 0.0,
			"0.02": 0.0,
			"0.021": 0.0,
			"0.022": 0.0,
			"0.023": 0.0,
			"0.024": 0.0,
			"0.025": 0.0
		}
	}
}
