{
	 "smiles": "CCCC(N1CCN(CC1)C(=O)OC(C)(C)C)C(O)=O", 
	 "Tm": 423.15, 
	 "num_atms": 46, 
	 "gaussian": { 
		 "optdone": 1, 
		 "sigma_profile": "yes", 
		 "theory": "DFT", 
		 "functional": "B3LYP", 
		 "basiset": "6-31G**", 
		 "properties": { 
			 "R2extent": 9460.9961, 
			 "electric_dipole_moment_norm": 3.88132805751, 
			 "electric_quadrupole_moment_norm": 16.7562605002, 
			 "total_energy": -959.597477033, 
			 "HOMO_LUMO_gap": 0.21619, 
			 "cosmo_polarized_energy": -17.14, 
			 "cosmo_cavitation_energy": 45.77, 
			 "cosmo_dispersion_energy": -31.18, 
			 "cosmo_repulsion_energy": 2.45, 
			 "cosmo_total_nonelectrostatic_energy": 17.04, 
			 "SMD_solvation_energy": 6.92 
		},
		"coords": [
			{
				"x": 4.5476102506,
				"y": 3.3614660873,
				"z": 2.5862713154,
				"element": "C" 
			},
			{
				"x": 3.349259821,
				"y": 2.7537419321,
				"z": 3.3228231988,
				"element": "C" 
			},
			{
				"x": 2.3931826679,
				"y": 2.0217000552,
				"z": 2.3705178957,
				"element": "C" 
			},
			{
				"x": 1.1143905192,
				"y": 1.4674315491,
				"z": 3.0443051587,
				"element": "C" 
			},
			{
				"x": 0.2498669837,
				"y": 0.7952282777,
				"z": 2.0739819931,
				"element": "N" 
			},
			{
				"x": -0.873622617,
				"y": 0.0562188291,
				"z": 2.6513073703,
				"element": "C" 
			},
			{
				"x": -1.4526660517,
				"y": -0.8921972504,
				"z": 1.5988811912,
				"element": "C" 
			},
			{
				"x": -1.6892542764,
				"y": -0.1613640181,
				"z": 0.3507175473,
				"element": "N" 
			},
			{
				"x": -1.5455617508,
				"y": 1.2847589169,
				"z": 0.4032133888,
				"element": "C" 
			},
			{
				"x": -0.1759524868,
				"y": 1.6863754095,
				"z": 0.9775897566,
				"element": "C" 
			},
			{
				"x": -2.0424980526,
				"y": -0.887866306,
				"z": -0.7515270753,
				"element": "C" 
			},
			{
				"x": -2.1690331327,
				"y": -2.104871999,
				"z": -0.7280041561,
				"element": "O" 
			},
			{
				"x": -2.2284415122,
				"y": -0.0924740818,
				"z": -1.8378740348,
				"element": "O" 
			},
			{
				"x": -2.6019392367,
				"y": -0.6719159961,
				"z": -3.1358717661,
				"element": "C" 
			},
			{
				"x": -2.6925859491,
				"y": 0.5628043166,
				"z": -4.0372089993,
				"element": "C" 
			},
			{
				"x": -1.5030610933,
				"y": -1.621143135,
				"z": -3.6264313158,
				"element": "C" 
			},
			{
				"x": -3.9643220296,
				"y": -1.3663907929,
				"z": -3.0305188078,
				"element": "C" 
			},
			{
				"x": 1.5626419311,
				"y": 0.4827831387,
				"z": 4.125174881,
				"element": "C" 
			},
			{
				"x": 1.4236983413,
				"y": 1.0110928535,
				"z": 5.3663897285,
				"element": "O" 
			},
			{
				"x": 2.0282098248,
				"y": -0.6175278241,
				"z": 3.9345540878,
				"element": "O" 
			},
			{
				"x": 5.2209814664,
				"y": 3.8747667327,
				"z": 3.2800049312,
				"element": "H" 
			},
			{
				"x": 5.1275688144,
				"y": 2.5891861935,
				"z": 2.0689037234,
				"element": "H" 
			},
			{
				"x": 4.2243012319,
				"y": 4.0911111486,
				"z": 1.8350492007,
				"element": "H" 
			},
			{
				"x": 3.7131760604,
				"y": 2.0647654123,
				"z": 4.0946364151,
				"element": "H" 
			},
			{
				"x": 2.8035626624,
				"y": 3.54441338,
				"z": 3.8543391432,
				"element": "H" 
			},
			{
				"x": 2.9025352465,
				"y": 1.1789854658,
				"z": 1.8888843097,
				"element": "H" 
			},
			{
				"x": 2.0960425874,
				"y": 2.7152297006,
				"z": 1.5770054547,
				"element": "H" 
			},
			{
				"x": 0.5923349622,
				"y": 2.3011324773,
				"z": 3.5512663847,
				"element": "H" 
			},
			{
				"x": -1.6593906384,
				"y": 0.7162573601,
				"z": 3.0652176973,
				"element": "H" 
			},
			{
				"x": -0.512398925,
				"y": -0.5606597639,
				"z": 3.4765720998,
				"element": "H" 
			},
			{
				"x": -2.3832432958,
				"y": -1.3445195071,
				"z": 1.9663182577,
				"element": "H" 
			},
			{
				"x": -0.7450396187,
				"y": -1.7029799013,
				"z": 1.4056856438,
				"element": "H" 
			},
			{
				"x": -2.3494511798,
				"y": 1.7147286053,
				"z": 1.0169846512,
				"element": "H" 
			},
			{
				"x": -1.6568759845,
				"y": 1.6881719957,
				"z": -0.6010611012,
				"element": "H" 
			},
			{
				"x": -0.2573511111,
				"y": 2.736313016,
				"z": 1.3134411804,
				"element": "H" 
			},
			{
				"x": 0.5753083787,
				"y": 1.657492562,
				"z": 0.180196036,
				"element": "H" 
			},
			{
				"x": -3.4464004249,
				"y": 1.2611839888,
				"z": -3.6615932928,
				"element": "H" 
			},
			{
				"x": -1.7305555333,
				"y": 1.0822519223,
				"z": -4.0793154256,
				"element": "H" 
			},
			{
				"x": -2.970576019,
				"y": 0.2673857926,
				"z": -5.053308231,
				"element": "H" 
			},
			{
				"x": -0.5384652522,
				"y": -1.1039686962,
				"z": -3.6512645429,
				"element": "H" 
			},
			{
				"x": -1.7340986416,
				"y": -1.9576844109,
				"z": -4.6425187064,
				"element": "H" 
			},
			{
				"x": -1.421272352,
				"y": -2.4910670412,
				"z": -2.9748181237,
				"element": "H" 
			},
			{
				"x": -4.7153626891,
				"y": -0.6709287981,
				"z": -2.6420442486,
				"element": "H" 
			},
			{
				"x": -4.2876358573,
				"y": -1.6950060077,
				"z": -4.023751177,
				"element": "H" 
			},
			{
				"x": -3.9089485368,
				"y": -2.2325263352,
				"z": -2.371151102,
				"element": "H" 
			},
			{
				"x": 1.7846324984,
				"y": 0.3492147459,
				"z": 5.9815294645,
				"element": "H" 
			}
		],
		 "valence_orbital": [ 
			{
				"type": "occ",
				"energy": -0.28026,
				"method": "rhf"
			},
			{
				"type": "occ",
				"energy": -0.27581,
				"method": "rhf"
			},
			{
				"type": "occ",
				"energy": -0.25283,
				"method": "rhf"
			},
			{
				"type": "occ",
				"energy": -0.23219,
				"method": "rhf"
			},
			{
				"type": "occ",
				"energy": -0.21559,
				"method": "rhf"
			},
			{
				"type": "unocc",
				"energy": 0.0006,
				"method": "rhf"
			},
			{
				"type": "unocc",
				"energy": 0.05955,
				"method": "rhf"
			},
			{
				"type": "unocc",
				"energy": 0.07137,
				"method": "rhf"
			},
			{
				"type": "unocc",
				"energy": 0.07978,
				"method": "rhf"
			},
			{
				"type": "unocc",
				"energy": 0.09116,
				"method": "rhf"
			}
		],
		"cosmo_sigma_profile": { 
			"-0.025": 0.0,
			"-0.024": 0.0,
			"-0.023": 0.0,
			"-0.022": 0.0,
			"-0.021": 0.0,
			"-0.02": 0.0,
			"-0.019": 0.0,
			"-0.018": 0.628720198586,
			"-0.017": 0.904918016223,
			"-0.016": 1.05921618234,
			"-0.015": 0.549051736346,
			"-0.014": 1.13626231026,
			"-0.013": 0.237070479304,
			"-0.012": 0.916944448101,
			"-0.011": 1.02640154725,
			"-0.01": 0.67543231595,
			"-0.009": 0.242584720028,
			"-0.008": 0.472271663396,
			"-0.007": 0.933088128468,
			"-0.006": 1.65892365929,
			"-0.005": 6.93103162307,
			"-0.004": 36.1501819041,
			"-0.003": 55.699031491,
			"-0.002": 44.5300564812,
			"-0.001": 36.668628632,
			"0.0": 42.0398737776,
			"0.001": 38.7095310171,
			"0.002": 14.9203105006,
			"0.003": 7.87350769359,
			"0.004": 8.70947799415,
			"0.005": 6.69442868532,
			"0.006": 6.21379513886,
			"0.007": 4.96132274897,
			"0.008": 4.51885172016,
			"0.009": 4.75514308194,
			"0.01": 4.28420007589,
			"0.011": 5.00406978771,
			"0.012": 6.63943701117,
			"0.013": 3.81212800249,
			"0.014": 3.84490704725,
			"0.015": 0.273722541312,
			"0.016": 0.0,
			"0.017": 0.0,
			"0.018": 0.0,
			"0.019": 0.0,
			"0.02": 0.0,
			"0.021": 0.0,
			"0.022": 0.0,
			"0.023": 0.0,
			"0.024": 0.0,
			"0.025": 0.0
		}
	}
}
