{
	 "smiles": "NC1=CC=C(C=C1)S(F)(=O)=O", 
	 "Tm": 341.65, 
	 "num_atms": 17, 
	 "gaussian": { 
		 "optdone": 1, 
		 "sigma_profile": "yes", 
		 "theory": "DFT", 
		 "functional": "B3LYP", 
		 "basiset": "6-31G**", 
		 "properties": { 
			 "R2extent": 2486.6713, 
			 "electric_dipole_moment_norm": 7.78250025891, 
			 "electric_quadrupole_moment_norm": 20.8235438384, 
			 "total_energy": -935.423387141, 
			 "HOMO_LUMO_gap": 0.19541, 
			 "cosmo_polarized_energy": -15.17, 
			 "cosmo_cavitation_energy": 23.31, 
			 "cosmo_dispersion_energy": -17.93, 
			 "cosmo_repulsion_energy": 1.37, 
			 "cosmo_total_nonelectrostatic_energy": 6.76, 
			 "SMD_solvation_energy": 3.54 
		},
		"coords": [
			{
				"x": 1.0112443442,
				"y": -1.3447276434,
				"z": 4.436242918,
				"element": "N" 
			},
			{
				"x": 0.5957268256,
				"y": -0.7549533705,
				"z": 3.2630307417,
				"element": "C" 
			},
			{
				"x": 1.2711679643,
				"y": -1.014249101,
				"z": 2.0510111642,
				"element": "C" 
			},
			{
				"x": 0.8279484093,
				"y": -0.4566112918,
				"z": 0.8622421025,
				"element": "C" 
			},
			{
				"x": -0.2993481664,
				"y": 0.3730796313,
				"z": 0.8671774085,
				"element": "C" 
			},
			{
				"x": -0.982206134,
				"y": 0.6467480811,
				"z": 2.057974048,
				"element": "C" 
			},
			{
				"x": -0.5365720199,
				"y": 0.0876839036,
				"z": 3.2451754868,
				"element": "C" 
			},
			{
				"x": -0.8647562405,
				"y": 1.0800757677,
				"z": -0.6411892027,
				"element": "S" 
			},
			{
				"x": -1.8983527029,
				"y": -0.0739677957,
				"z": -1.1417981025,
				"element": "F" 
			},
			{
				"x": 0.2018964028,
				"y": 1.0897187175,
				"z": -1.6273934939,
				"element": "O" 
			},
			{
				"x": -1.6927441726,
				"y": 2.2439775919,
				"z": -0.3762593422,
				"element": "O" 
			},
			{
				"x": 0.6861084409,
				"y": -0.9479490606,
				"z": 5.3045711031,
				"element": "H" 
			},
			{
				"x": 1.9479127862,
				"y": -1.7169870474,
				"z": 4.4710901446,
				"element": "H" 
			},
			{
				"x": 2.1475191367,
				"y": -1.6563351787,
				"z": 2.0530663908,
				"element": "H" 
			},
			{
				"x": 1.3551859029,
				"y": -0.6456492823,
				"z": -0.0663411666,
				"element": "H" 
			},
			{
				"x": -1.8442973465,
				"y": 1.3045082703,
				"z": 2.0471439195,
				"element": "H" 
			},
			{
				"x": -1.0611334301,
				"y": 0.2995378078,
				"z": 4.1726558803,
				"element": "H" 
			}
		],
		 "valence_orbital": [ 
			{
				"type": "occ",
				"energy": -0.3286,
				"method": "rhf"
			},
			{
				"type": "occ",
				"energy": -0.32832,
				"method": "rhf"
			},
			{
				"type": "occ",
				"energy": -0.31221,
				"method": "rhf"
			},
			{
				"type": "occ",
				"energy": -0.27976,
				"method": "rhf"
			},
			{
				"type": "occ",
				"energy": -0.23575,
				"method": "rhf"
			},
			{
				"type": "unocc",
				"energy": -0.04034,
				"method": "rhf"
			},
			{
				"type": "unocc",
				"energy": -0.02716,
				"method": "rhf"
			},
			{
				"type": "unocc",
				"energy": 0.0394,
				"method": "rhf"
			},
			{
				"type": "unocc",
				"energy": 0.05248,
				"method": "rhf"
			},
			{
				"type": "unocc",
				"energy": 0.07456,
				"method": "rhf"
			}
		],
		"cosmo_sigma_profile": { 
			"-0.025": 0.0,
			"-0.024": 0.0,
			"-0.023": 0.0,
			"-0.022": 0.0,
			"-0.021": 0.0,
			"-0.02": 0.0,
			"-0.019": 0.0,
			"-0.018": 0.0,
			"-0.017": 0.0,
			"-0.016": 0.0,
			"-0.015": 0.0,
			"-0.014": 1.5363975338,
			"-0.013": 3.49130670582,
			"-0.012": 2.74813180324,
			"-0.011": 3.78235454535,
			"-0.01": 2.97691492159,
			"-0.009": 2.93003650832,
			"-0.008": 3.78303179607,
			"-0.007": 8.1250840163,
			"-0.006": 8.38125814375,
			"-0.005": 8.35064249472,
			"-0.004": 7.26373619626,
			"-0.003": 7.53436794855,
			"-0.002": 6.60395623291,
			"-0.001": 8.77744967255,
			"0.0": 10.6688083914,
			"0.001": 11.9641161199,
			"0.002": 17.0750355957,
			"0.003": 25.0080537167,
			"0.004": 9.45120530483,
			"0.005": 4.65414303443,
			"0.006": 3.25573741665,
			"0.007": 4.66411832619,
			"0.008": 6.37288144613,
			"0.009": 11.5663547177,
			"0.01": 5.59638917587,
			"0.011": 0.184334458397,
			"0.012": 0.0,
			"0.013": 0.0,
			"0.014": 0.0,
			"0.015": 0.0,
			"0.016": 0.0,
			"0.017": 0.0,
			"0.018": 0.0,
			"0.019": 0.0,
			"0.02": 0.0,
			"0.021": 0.0,
			"0.022": 0.0,
			"0.023": 0.0,
			"0.024": 0.0,
			"0.025": 0.0
		}
	}
}
