{
	 "smiles": "ClC1=CC=C(C=C1)C1=C(C(=NO1)C(=O)C1=CC=CS1)S(=O)(=O)C1=CC=CC=C1", 
	 "Tm": 398.15, 
	 "num_atms": 40, 
	 "gaussian": { 
		 "optdone": 1, 
		 "sigma_profile": "yes", 
		 "theory": "DFT", 
		 "functional": "B3LYP", 
		 "basiset": "6-31G**", 
		 "properties": { 
			 "R2extent": 14159.7006, 
			 "electric_dipole_moment_norm": 2.03041902572, 
			 "electric_quadrupole_moment_norm": 26.9458241292, 
			 "total_energy": -2381.42914036, 
			 "HOMO_LUMO_gap": 0.17055, 
			 "cosmo_polarized_energy": -17.36, 
			 "cosmo_cavitation_energy": 50.42, 
			 "cosmo_dispersion_energy": -35.39, 
			 "cosmo_repulsion_energy": 2.59, 
			 "cosmo_total_nonelectrostatic_energy": 17.62, 
			 "SMD_solvation_energy": 7.81 
		},
		"coords": [
			{
				"x": 3.6218734666,
				"y": -5.9122002682,
				"z": 0.3445625181,
				"element": "Cl" 
			},
			{
				"x": 2.9630519012,
				"y": -4.2978687053,
				"z": 0.1624189517,
				"element": "C" 
			},
			{
				"x": 1.9248347437,
				"y": -3.8808342993,
				"z": 0.9944907213,
				"element": "C" 
			},
			{
				"x": 1.3976396839,
				"y": -2.5997388403,
				"z": 0.8486325568,
				"element": "C" 
			},
			{
				"x": 1.9057463182,
				"y": -1.7320800603,
				"z": -0.132197575,
				"element": "C" 
			},
			{
				"x": 2.9631516571,
				"y": -2.1700420981,
				"z": -0.9528808752,
				"element": "C" 
			},
			{
				"x": 3.4896591734,
				"y": -3.448877093,
				"z": -0.8125291043,
				"element": "C" 
			},
			{
				"x": 1.4088676273,
				"y": -0.3633453813,
				"z": -0.3173776758,
				"element": "C" 
			},
			{
				"x": 0.2059616213,
				"y": 0.3132256593,
				"z": -0.22757048,
				"element": "C" 
			},
			{
				"x": 0.5207948343,
				"y": 1.6494835598,
				"z": -0.6408170496,
				"element": "C" 
			},
			{
				"x": 1.7923700585,
				"y": 1.7739044861,
				"z": -0.9371051576,
				"element": "N" 
			},
			{
				"x": 2.349612624,
				"y": 0.5131010471,
				"z": -0.7393883078,
				"element": "O" 
			},
			{
				"x": -0.3811602947,
				"y": 2.8404507885,
				"z": -0.8911224856,
				"element": "C" 
			},
			{
				"x": -1.287034388,
				"y": 2.7421563763,
				"z": -1.707692313,
				"element": "O" 
			},
			{
				"x": -0.1038870879,
				"y": 4.0866624429,
				"z": -0.1806089261,
				"element": "C" 
			},
			{
				"x": -0.8543883591,
				"y": 5.2418993254,
				"z": -0.3001623471,
				"element": "C" 
			},
			{
				"x": -0.3949958948,
				"y": 6.2902283263,
				"z": 0.5300742988,
				"element": "C" 
			},
			{
				"x": 0.700146063,
				"y": 5.9232412205,
				"z": 1.2786372803,
				"element": "C" 
			},
			{
				"x": 1.1908234028,
				"y": 4.3013311906,
				"z": 0.9766485043,
				"element": "S" 
			},
			{
				"x": -1.4180446972,
				"y": -0.2294498477,
				"z": 0.2929375201,
				"element": "S" 
			},
			{
				"x": -1.2522698882,
				"y": -1.2581181829,
				"z": 1.333367172,
				"element": "O" 
			},
			{
				"x": -2.1668520367,
				"y": 0.9977629844,
				"z": 0.5814583432,
				"element": "O" 
			},
			{
				"x": -2.116297166,
				"y": -1.0325009509,
				"z": -1.1541604256,
				"element": "C" 
			},
			{
				"x": -2.269290168,
				"y": -2.4201777942,
				"z": -1.1412218191,
				"element": "C" 
			},
			{
				"x": -2.836096366,
				"y": -3.0430575798,
				"z": -2.2539375623,
				"element": "C" 
			},
			{
				"x": -3.2361038756,
				"y": -2.2814042095,
				"z": -3.3538203517,
				"element": "C" 
			},
			{
				"x": -3.0754875899,
				"y": -0.8928379208,
				"z": -3.348622042,
				"element": "C" 
			},
			{
				"x": -2.5153835479,
				"y": -0.2524383062,
				"z": -2.2437230456,
				"element": "C" 
			},
			{
				"x": 1.5366630789,
				"y": -4.5481723399,
				"z": 1.7556847217,
				"element": "H" 
			},
			{
				"x": 0.5968320312,
				"y": -2.2698846695,
				"z": 1.497526075,
				"element": "H" 
			},
			{
				"x": 3.3677144915,
				"y": -1.505729702,
				"z": -1.7081786513,
				"element": "H" 
			},
			{
				"x": 4.2976399649,
				"y": -3.7866805786,
				"z": -1.4514670656,
				"element": "H" 
			},
			{
				"x": -1.7069155948,
				"y": 5.2980070926,
				"z": -0.9657860223,
				"element": "H" 
			},
			{
				"x": -0.8494623407,
				"y": 7.2726856938,
				"z": 0.5794013571,
				"element": "H" 
			},
			{
				"x": 1.2513843973,
				"y": 6.5279370186,
				"z": 1.9864661663,
				"element": "H" 
			},
			{
				"x": -1.9610707613,
				"y": -2.9875653003,
				"z": -0.2705880059,
				"element": "H" 
			},
			{
				"x": -2.9668663506,
				"y": -4.1208795523,
				"z": -2.2587618799,
				"element": "H" 
			},
			{
				"x": -3.676380806,
				"y": -2.7708686491,
				"z": -4.2177346562,
				"element": "H" 
			},
			{
				"x": -3.3901386542,
				"y": -0.3047259466,
				"z": -4.2053169492,
				"element": "H" 
			},
			{
				"x": -2.3773412716,
				"y": 0.824101064,
				"z": -2.226235413,
				"element": "H" 
			}
		],
		 "valence_orbital": [ 
			{
				"type": "occ",
				"energy": -0.27317,
				"method": "rhf"
			},
			{
				"type": "occ",
				"energy": -0.26892,
				"method": "rhf"
			},
			{
				"type": "occ",
				"energy": -0.26849,
				"method": "rhf"
			},
			{
				"type": "occ",
				"energy": -0.25375,
				"method": "rhf"
			},
			{
				"type": "occ",
				"energy": -0.25088,
				"method": "rhf"
			},
			{
				"type": "unocc",
				"energy": -0.08033,
				"method": "rhf"
			},
			{
				"type": "unocc",
				"energy": -0.07173,
				"method": "rhf"
			},
			{
				"type": "unocc",
				"energy": -0.04097,
				"method": "rhf"
			},
			{
				"type": "unocc",
				"energy": -0.02843,
				"method": "rhf"
			},
			{
				"type": "unocc",
				"energy": -0.01915,
				"method": "rhf"
			}
		],
		"cosmo_sigma_profile": { 
			"-0.025": 0.0,
			"-0.024": 0.0,
			"-0.023": 0.0,
			"-0.022": 0.0,
			"-0.021": 0.0,
			"-0.02": 0.0,
			"-0.019": 0.0,
			"-0.018": 0.0,
			"-0.017": 0.0,
			"-0.016": 0.0,
			"-0.015": 0.0,
			"-0.014": 0.0,
			"-0.013": 0.0,
			"-0.012": 0.0,
			"-0.011": 0.0,
			"-0.01": 1.32849383856,
			"-0.009": 2.75759859046,
			"-0.008": 7.54482436612,
			"-0.007": 18.3194082326,
			"-0.006": 21.0360026172,
			"-0.005": 23.6259124434,
			"-0.004": 24.7676974299,
			"-0.003": 24.6873020739,
			"-0.002": 26.5881601614,
			"-0.001": 28.8557412672,
			"0.0": 36.3040556148,
			"0.001": 50.4023662693,
			"0.002": 45.2480405699,
			"0.003": 30.4573456818,
			"0.004": 18.0547415307,
			"0.005": 9.36208124197,
			"0.006": 6.72529492655,
			"0.007": 6.39333712461,
			"0.008": 7.24552888379,
			"0.009": 7.48409636091,
			"0.01": 8.35055587863,
			"0.011": 7.03357069762,
			"0.012": 0.458529027484,
			"0.013": 0.0,
			"0.014": 0.0,
			"0.015": 0.0,
			"0.016": 0.0,
			"0.017": 0.0,
			"0.018": 0.0,
			"0.019": 0.0,
			"0.02": 0.0,
			"0.021": 0.0,
			"0.022": 0.0,
			"0.023": 0.0,
			"0.024": 0.0,
			"0.025": 0.0
		}
	}
}
