{
	 "smiles": "OC1=C(Cl)C=C(C=C1Br)C1(OS(=O)(=O)C2=CC=CC=C12)C1=CC(Br)=C(O)C(Cl)=C1", 
	 "Tm": 503.15, 
	 "num_atms": 39, 
	 "gaussian": { 
		 "optdone": 1, 
		 "sigma_profile": "yes", 
		 "theory": "DFT", 
		 "functional": "B3LYP", 
		 "basiset": "6-31G**", 
		 "properties": { 
			 "R2extent": 19580.1135, 
			 "electric_dipole_moment_norm": 6.26655134663, 
			 "electric_quadrupole_moment_norm": 32.4056927325, 
			 "total_energy": -7567.45899392, 
			 "HOMO_LUMO_gap": 0.18724, 
			 "cosmo_polarized_energy": -22.4, 
			 "cosmo_cavitation_energy": 53.44, 
			 "cosmo_dispersion_energy": -36.87, 
			 "cosmo_repulsion_energy": 2.83, 
			 "cosmo_total_nonelectrostatic_energy": 19.4, 
			 "SMD_solvation_energy": 5.69 
		},
		"coords": [
			{
				"x": -0.2073022136,
				"y": -1.1214385511,
				"z": 4.2688366035,
				"element": "O" 
			},
			{
				"x": -0.0828783286,
				"y": -0.7461554185,
				"z": 2.981630825,
				"element": "C" 
			},
			{
				"x": 0.9334939203,
				"y": -1.2188381322,
				"z": 2.1321418014,
				"element": "C" 
			},
			{
				"x": 2.0919407258,
				"y": -2.3630065503,
				"z": 2.8026851289,
				"element": "Cl" 
			},
			{
				"x": 1.04486383,
				"y": -0.8181351597,
				"z": 0.8074612486,
				"element": "C" 
			},
			{
				"x": 0.1131497792,
				"y": 0.0812157974,
				"z": 0.2794725062,
				"element": "C" 
			},
			{
				"x": -0.9118006698,
				"y": 0.5612115808,
				"z": 1.1016206266,
				"element": "C" 
			},
			{
				"x": -1.0030008256,
				"y": 0.1582268664,
				"z": 2.4302718167,
				"element": "C" 
			},
			{
				"x": -2.4067218463,
				"y": 0.8318533186,
				"z": 3.5214871824,
				"element": "Br" 
			},
			{
				"x": 0.2705071619,
				"y": 0.5992778285,
				"z": -1.1549716317,
				"element": "C" 
			},
			{
				"x": 0.9206857999,
				"y": -0.4761224771,
				"z": -1.9113457735,
				"element": "O" 
			},
			{
				"x": 2.1827012357,
				"y": 0.0130520944,
				"z": -2.876773998,
				"element": "S" 
			},
			{
				"x": 3.3112658069,
				"y": -0.8589659296,
				"z": -2.5751279413,
				"element": "O" 
			},
			{
				"x": 1.7224661119,
				"y": 0.1685214971,
				"z": -4.2508364639,
				"element": "O" 
			},
			{
				"x": 2.3167301366,
				"y": 1.5863302843,
				"z": -2.0615854938,
				"element": "C" 
			},
			{
				"x": 3.3309355089,
				"y": 2.5234250421,
				"z": -2.2387631869,
				"element": "C" 
			},
			{
				"x": 3.255910387,
				"y": 3.7009216827,
				"z": -1.4957211564,
				"element": "C" 
			},
			{
				"x": 2.1947840493,
				"y": 3.9087870918,
				"z": -0.6050318012,
				"element": "C" 
			},
			{
				"x": 1.192472881,
				"y": 2.950495066,
				"z": -0.4413541177,
				"element": "C" 
			},
			{
				"x": 1.2528929857,
				"y": 1.7737284765,
				"z": -1.1907518156,
				"element": "C" 
			},
			{
				"x": -1.071026568,
				"y": 0.8878367024,
				"z": -1.8339536809,
				"element": "C" 
			},
			{
				"x": -1.3976065305,
				"y": 2.1292476771,
				"z": -2.3791956422,
				"element": "C" 
			},
			{
				"x": -2.6246315894,
				"y": 2.3043985312,
				"z": -3.0132050443,
				"element": "C" 
			},
			{
				"x": -3.0757827815,
				"y": 4.0125352343,
				"z": -3.753827806,
				"element": "Br" 
			},
			{
				"x": -3.559593832,
				"y": 1.2685173677,
				"z": -3.1400386646,
				"element": "C" 
			},
			{
				"x": -4.752694845,
				"y": 1.4006552713,
				"z": -3.7458468409,
				"element": "O" 
			},
			{
				"x": -3.2067251462,
				"y": 0.0197555955,
				"z": -2.5894821852,
				"element": "C" 
			},
			{
				"x": -4.3332538402,
				"y": -1.3063516782,
				"z": -2.7230593373,
				"element": "Cl" 
			},
			{
				"x": -1.9904799033,
				"y": -0.165987193,
				"z": -1.9498716539,
				"element": "C" 
			},
			{
				"x": 0.4983129115,
				"y": -1.7531151334,
				"z": 4.4803296909,
				"element": "H" 
			},
			{
				"x": 1.8418622109,
				"y": -1.2132665924,
				"z": 0.1897175018,
				"element": "H" 
			},
			{
				"x": -1.6566432387,
				"y": 1.2444980945,
				"z": 0.7121203678,
				"element": "H" 
			},
			{
				"x": 4.1523476352,
				"y": 2.3372202044,
				"z": -2.9226773007,
				"element": "H" 
			},
			{
				"x": 4.0290254218,
				"y": 4.4551827199,
				"z": -1.6016342661,
				"element": "H" 
			},
			{
				"x": 2.1548884764,
				"y": 4.8251483681,
				"z": -0.0242486427,
				"element": "H" 
			},
			{
				"x": 0.3875612279,
				"y": 3.1129342382,
				"z": 0.2682403037,
				"element": "H" 
			},
			{
				"x": -0.7111263366,
				"y": 2.9639323978,
				"z": -2.3250401645,
				"element": "H" 
			},
			{
				"x": -4.8342749848,
				"y": 2.3104390765,
				"z": -4.077098963,
				"element": "H" 
			},
			{
				"x": -1.7522547237,
				"y": -1.14376529,
				"z": -1.547872031,
				"element": "H" 
			}
		],
		 "valence_orbital": [ 
			{
				"type": "occ",
				"energy": -0.28663,
				"method": "rhf"
			},
			{
				"type": "occ",
				"energy": -0.26537,
				"method": "rhf"
			},
			{
				"type": "occ",
				"energy": -0.25953,
				"method": "rhf"
			},
			{
				"type": "occ",
				"energy": -0.247,
				"method": "rhf"
			},
			{
				"type": "occ",
				"energy": -0.24447,
				"method": "rhf"
			},
			{
				"type": "unocc",
				"energy": -0.05723,
				"method": "rhf"
			},
			{
				"type": "unocc",
				"energy": -0.05186,
				"method": "rhf"
			},
			{
				"type": "unocc",
				"energy": -0.04412,
				"method": "rhf"
			},
			{
				"type": "unocc",
				"energy": -0.03294,
				"method": "rhf"
			},
			{
				"type": "unocc",
				"energy": -0.02845,
				"method": "rhf"
			}
		],
		"cosmo_sigma_profile": { 
			"-0.025": 0.0,
			"-0.024": 0.0,
			"-0.023": 0.0,
			"-0.022": 0.0,
			"-0.021": 0.0,
			"-0.02": 0.0,
			"-0.019": 0.0,
			"-0.018": 0.0,
			"-0.017": 0.0,
			"-0.016": 0.461196861452,
			"-0.015": 1.49086364125,
			"-0.014": 1.0504018128,
			"-0.013": 1.87291423394,
			"-0.012": 1.36269674647,
			"-0.011": 1.65194019325,
			"-0.01": 2.76632441051,
			"-0.009": 5.24954366828,
			"-0.008": 8.99080541716,
			"-0.007": 17.2974191442,
			"-0.006": 16.8556883759,
			"-0.005": 20.3396740177,
			"-0.004": 19.6942145415,
			"-0.003": 23.6815579355,
			"-0.002": 27.9482714711,
			"-0.001": 35.1478299463,
			"0.0": 51.9150351163,
			"0.001": 45.8746048591,
			"0.002": 35.9714986221,
			"0.003": 31.4698974675,
			"0.004": 28.2825517174,
			"0.005": 11.0779431513,
			"0.006": 7.87188295911,
			"0.007": 7.47125008397,
			"0.008": 7.74171848325,
			"0.009": 16.0428508639,
			"0.01": 11.5840714615,
			"0.011": 0.793050845219,
			"0.012": 0.0,
			"0.013": 0.0,
			"0.014": 0.0,
			"0.015": 0.0,
			"0.016": 0.0,
			"0.017": 0.0,
			"0.018": 0.0,
			"0.019": 0.0,
			"0.02": 0.0,
			"0.021": 0.0,
			"0.022": 0.0,
			"0.023": 0.0,
			"0.024": 0.0,
			"0.025": 0.0
		}
	}
}
