{
	 "smiles": "CC(C)C(C)C=CC(C)C1CCC2C3=CC=C4CC(O)CCC4(C)C3CCC12C", 
	 "Tm": 443.15, 
	 "num_atms": 73, 
	 "gaussian": { 
		 "optdone": 1, 
		 "sigma_profile": "yes", 
		 "theory": "DFT", 
		 "functional": "B3LYP", 
		 "basiset": "6-31G**", 
		 "properties": { 
			 "R2extent": 20746.4402, 
			 "electric_dipole_moment_norm": 1.32481861023, 
			 "electric_quadrupole_moment_norm": 15.9508741996, 
			 "total_energy": -1168.7174402, 
			 "HOMO_LUMO_gap": 0.17544, 
			 "cosmo_polarized_energy": -8.74, 
			 "cosmo_cavitation_energy": 63.8, 
			 "cosmo_dispersion_energy": -42.36, 
			 "cosmo_repulsion_energy": 3.14, 
			 "cosmo_total_nonelectrostatic_energy": 24.58, 
			 "SMD_solvation_energy": 9.1 
		},
		"coords": [
			{
				"x": 2.4152952579,
				"y": 4.8597366104,
				"z": 0.5784794397,
				"element": "C" 
			},
			{
				"x": 3.9207860889,
				"y": 4.5666234337,
				"z": 0.4961103106,
				"element": "C" 
			},
			{
				"x": 4.7427804252,
				"y": 5.851172312,
				"z": 0.6817752246,
				"element": "C" 
			},
			{
				"x": 4.3238331484,
				"y": 3.78742266,
				"z": -0.7958505277,
				"element": "C" 
			},
			{
				"x": 3.985529908,
				"y": 4.5273477667,
				"z": -2.0971447747,
				"element": "C" 
			},
			{
				"x": 3.790145929,
				"y": 2.3713822347,
				"z": -0.7467190368,
				"element": "C" 
			},
			{
				"x": 3.068554546,
				"y": 1.7332368987,
				"z": -1.6729281358,
				"element": "C" 
			},
			{
				"x": 2.6170209851,
				"y": 0.2902962563,
				"z": -1.5862483993,
				"element": "C" 
			},
			{
				"x": 3.3820068158,
				"y": -0.5294210205,
				"z": -2.6462636136,
				"element": "C" 
			},
			{
				"x": 1.0710476711,
				"y": 0.2084696568,
				"z": -1.7094553786,
				"element": "C" 
			},
			{
				"x": 0.3632722403,
				"y": 1.0830458784,
				"z": -0.6353873262,
				"element": "C" 
			},
			{
				"x": -1.0020188855,
				"y": 0.4185672629,
				"z": -0.3421832529,
				"element": "C" 
			},
			{
				"x": -1.1077388328,
				"y": -0.7820061663,
				"z": -1.3255927567,
				"element": "C" 
			},
			{
				"x": -2.0111785516,
				"y": -1.8811764441,
				"z": -0.8105399015,
				"element": "C" 
			},
			{
				"x": -3.3412388972,
				"y": -1.8310634956,
				"z": -1.0212541671,
				"element": "C" 
			},
			{
				"x": -4.2606169377,
				"y": -2.7277795085,
				"z": -0.3374472615,
				"element": "C" 
			},
			{
				"x": -3.8400266684,
				"y": -3.8101319023,
				"z": 0.3436403095,
				"element": "C" 
			},
			{
				"x": -4.8187059604,
				"y": -4.7777592749,
				"z": 0.969061838,
				"element": "C" 
			},
			{
				"x": -4.3531567289,
				"y": -5.3215755418,
				"z": 2.3268200301,
				"element": "C" 
			},
			{
				"x": -5.2204191442,
				"y": -6.343215066,
				"z": 2.8107028142,
				"element": "O" 
			},
			{
				"x": -2.9626291627,
				"y": -5.9276381668,
				"z": 2.1819793462,
				"element": "C" 
			},
			{
				"x": -1.9618387665,
				"y": -4.8815492782,
				"z": 1.6746475999,
				"element": "C" 
			},
			{
				"x": -2.3530370633,
				"y": -4.1894888251,
				"z": 0.3357345724,
				"element": "C" 
			},
			{
				"x": -2.1681580501,
				"y": -5.1793955585,
				"z": -0.8471989143,
				"element": "C" 
			},
			{
				"x": -1.4544055089,
				"y": -2.9074563397,
				"z": 0.1700771209,
				"element": "C" 
			},
			{
				"x": 0.024765238,
				"y": -3.2500217979,
				"z": -0.1281285161,
				"element": "C" 
			},
			{
				"x": 0.8889318285,
				"y": -2.0157839893,
				"z": -0.418050406,
				"element": "C" 
			},
			{
				"x": 0.3667082041,
				"y": -1.1884251051,
				"z": -1.6149355239,
				"element": "C" 
			},
			{
				"x": 0.4234095462,
				"y": -1.9974651713,
				"z": -2.9250636282,
				"element": "C" 
			},
			{
				"x": 1.8226765977,
				"y": 3.9506522912,
				"z": 0.4374987968,
				"element": "H" 
			},
			{
				"x": 2.1573568849,
				"y": 5.2837336557,
				"z": 1.5550267328,
				"element": "H" 
			},
			{
				"x": 2.1052758464,
				"y": 5.5846692113,
				"z": -0.1825512642,
				"element": "H" 
			},
			{
				"x": 4.1708227041,
				"y": 3.9018411979,
				"z": 1.336378036,
				"element": "H" 
			},
			{
				"x": 5.8190162651,
				"y": 5.6485131437,
				"z": 0.6400158525,
				"element": "H" 
			},
			{
				"x": 4.5125163331,
				"y": 6.5964392289,
				"z": -0.0876001183,
				"element": "H" 
			},
			{
				"x": 4.5277391096,
				"y": 6.3113650104,
				"z": 1.6523477562,
				"element": "H" 
			},
			{
				"x": 5.4223512009,
				"y": 3.7004766687,
				"z": -0.7496167564,
				"element": "H" 
			},
			{
				"x": 4.3835301235,
				"y": 3.9888462695,
				"z": -2.9628585866,
				"element": "H" 
			},
			{
				"x": 2.9048391167,
				"y": 4.6284475125,
				"z": -2.239137642,
				"element": "H" 
			},
			{
				"x": 4.4198947251,
				"y": 5.5309318149,
				"z": -2.1069877691,
				"element": "H" 
			},
			{
				"x": 4.0514046752,
				"y": 1.8247831386,
				"z": 0.1630048496,
				"element": "H" 
			},
			{
				"x": 2.795192364,
				"y": 2.2483468617,
				"z": -2.5950683182,
				"element": "H" 
			},
			{
				"x": 2.90091031,
				"y": -0.0876573238,
				"z": -0.5944171008,
				"element": "H" 
			},
			{
				"x": 3.0778406094,
				"y": -0.2485987995,
				"z": -3.6614009956,
				"element": "H" 
			},
			{
				"x": 3.2194202612,
				"y": -1.6040121018,
				"z": -2.533470105,
				"element": "H" 
			},
			{
				"x": 4.4571933776,
				"y": -0.3443610275,
				"z": -2.559205153,
				"element": "H" 
			},
			{
				"x": 0.8081627781,
				"y": 0.6120111339,
				"z": -2.6997160009,
				"element": "H" 
			},
			{
				"x": 0.9742645549,
				"y": 1.1347715406,
				"z": 0.2726083186,
				"element": "H" 
			},
			{
				"x": 0.2547950027,
				"y": 2.1142882281,
				"z": -0.9833734774,
				"element": "H" 
			},
			{
				"x": -1.0503633037,
				"y": 0.0685102099,
				"z": 0.694113629,
				"element": "H" 
			},
			{
				"x": -1.847478682,
				"y": 1.1001003554,
				"z": -0.4747385024,
				"element": "H" 
			},
			{
				"x": -1.5376024606,
				"y": -0.4025051854,
				"z": -2.2631220966,
				"element": "H" 
			},
			{
				"x": -3.7590097094,
				"y": -1.0569222504,
				"z": -1.6625283321,
				"element": "H" 
			},
			{
				"x": -5.3259705498,
				"y": -2.5119559381,
				"z": -0.3996341283,
				"element": "H" 
			},
			{
				"x": -5.8021723579,
				"y": -4.2982656957,
				"z": 1.060857504,
				"element": "H" 
			},
			{
				"x": -4.9594331206,
				"y": -5.6552039865,
				"z": 0.3190868726,
				"element": "H" 
			},
			{
				"x": -4.3030789413,
				"y": -4.4883497776,
				"z": 3.0496636081,
				"element": "H" 
			},
			{
				"x": -6.1055956926,
				"y": -5.9654469732,
				"z": 2.89526804,
				"element": "H" 
			},
			{
				"x": -2.6348076232,
				"y": -6.3241985601,
				"z": 3.1492876834,
				"element": "H" 
			},
			{
				"x": -3.0279059427,
				"y": -6.7829728498,
				"z": 1.4979228414,
				"element": "H" 
			},
			{
				"x": -0.9748757069,
				"y": -5.3454265226,
				"z": 1.5702636718,
				"element": "H" 
			},
			{
				"x": -1.8588127026,
				"y": -4.1058198606,
				"z": 2.4457110257,
				"element": "H" 
			},
			{
				"x": -2.8941301153,
				"y": -5.9950480763,
				"z": -0.7912166025,
				"element": "H" 
			},
			{
				"x": -2.3187023291,
				"y": -4.6679630226,
				"z": -1.8028292362,
				"element": "H" 
			},
			{
				"x": -1.1728916236,
				"y": -5.6340678429,
				"z": -0.8495557209,
				"element": "H" 
			},
			{
				"x": -1.4666819929,
				"y": -2.4038322172,
				"z": 1.1544170155,
				"element": "H" 
			},
			{
				"x": 0.083272374,
				"y": -3.9236430795,
				"z": -0.9877232223,
				"element": "H" 
			},
			{
				"x": 0.4518550254,
				"y": -3.7971683425,
				"z": 0.7193811016,
				"element": "H" 
			},
			{
				"x": 1.9187820733,
				"y": -2.3401891799,
				"z": -0.6098982185,
				"element": "H" 
			},
			{
				"x": 0.9314055932,
				"y": -1.3838730266,
				"z": 0.4787746337,
				"element": "H" 
			},
			{
				"x": 0.2199227836,
				"y": -1.3494647185,
				"z": -3.7850155481,
				"element": "H" 
			},
			{
				"x": -0.3351984121,
				"y": -2.7866958088,
				"z": -2.9327214497,
				"element": "H" 
			},
			{
				"x": 1.3932519019,
				"y": -2.4739336242,
				"z": -3.0897787093,
				"element": "H" 
			}
		],
		 "valence_orbital": [ 
			{
				"type": "occ",
				"energy": -0.27993,
				"method": "rhf"
			},
			{
				"type": "occ",
				"energy": -0.27556,
				"method": "rhf"
			},
			{
				"type": "occ",
				"energy": -0.261,
				"method": "rhf"
			},
			{
				"type": "occ",
				"energy": -0.235,
				"method": "rhf"
			},
			{
				"type": "occ",
				"energy": -0.19291,
				"method": "rhf"
			},
			{
				"type": "unocc",
				"energy": -0.01747,
				"method": "rhf"
			},
			{
				"type": "unocc",
				"energy": 0.02865,
				"method": "rhf"
			},
			{
				"type": "unocc",
				"energy": 0.07091,
				"method": "rhf"
			},
			{
				"type": "unocc",
				"energy": 0.07732,
				"method": "rhf"
			},
			{
				"type": "unocc",
				"energy": 0.0807,
				"method": "rhf"
			}
		],
		"cosmo_sigma_profile": { 
			"-0.025": 0.0,
			"-0.024": 0.0,
			"-0.023": 0.0,
			"-0.022": 0.0,
			"-0.021": 0.0,
			"-0.02": 0.0,
			"-0.019": 0.0,
			"-0.018": 0.0,
			"-0.017": 0.0,
			"-0.016": 0.00394948936489,
			"-0.015": 0.660402659131,
			"-0.014": 0.904534056354,
			"-0.013": 1.11128900258,
			"-0.012": 0.728633201458,
			"-0.011": 1.17539560475,
			"-0.01": 0.706510312355,
			"-0.009": 0.671702698879,
			"-0.008": 1.24051052682,
			"-0.007": 1.12722759833,
			"-0.006": 0.936696594308,
			"-0.005": 1.46215656679,
			"-0.004": 6.80934348,
			"-0.003": 31.8594770255,
			"-0.002": 90.4538053162,
			"-0.001": 93.0832796217,
			"0.0": 82.5168322438,
			"0.001": 69.439557026,
			"0.002": 45.3086120348,
			"0.003": 16.1907596287,
			"0.004": 11.1002747699,
			"0.005": 8.23434076652,
			"0.006": 7.70511240642,
			"0.007": 3.75231302118,
			"0.008": 1.37889976847,
			"0.009": 1.22348814348,
			"0.01": 1.19533992174,
			"0.011": 1.39671800401,
			"0.012": 1.31617109362,
			"0.013": 1.70490092176,
			"0.014": 2.09957912069,
			"0.015": 0.869000982428,
			"0.016": 0.0,
			"0.017": 0.0,
			"0.018": 0.0,
			"0.019": 0.0,
			"0.02": 0.0,
			"0.021": 0.0,
			"0.022": 0.0,
			"0.023": 0.0,
			"0.024": 0.0,
			"0.025": 0.0
		}
	}
}
