{
	 "smiles": "OC(=O)C1CN(CC2=CC=C(F)C=C2)C(=O)C1", 
	 "Tm": 423.15, 
	 "num_atms": 29, 
	 "gaussian": { 
		 "optdone": 1, 
		 "sigma_profile": "yes", 
		 "theory": "DFT", 
		 "functional": "B3LYP", 
		 "basiset": "6-31G**", 
		 "properties": { 
			 "R2extent": 4742.9768, 
			 "electric_dipole_moment_norm": 4.71001319106, 
			 "electric_quadrupole_moment_norm": 15.5309081109, 
			 "total_energy": -844.792005231, 
			 "HOMO_LUMO_gap": 0.22325, 
			 "cosmo_polarized_energy": -19.71, 
			 "cosmo_cavitation_energy": 33.34, 
			 "cosmo_dispersion_energy": -22.77, 
			 "cosmo_repulsion_energy": 1.74, 
			 "cosmo_total_nonelectrostatic_energy": 12.31, 
			 "SMD_solvation_energy": 7.61 
		},
		"coords": [
			{
				"x": 2.2565644247,
				"y": -0.6996029859,
				"z": -0.5614547265,
				"element": "O" 
			},
			{
				"x": 2.9321023296,
				"y": -0.3184169844,
				"z": 0.5511004791,
				"element": "C" 
			},
			{
				"x": 3.8494507425,
				"y": -0.9794424807,
				"z": 0.9698261289,
				"element": "O" 
			},
			{
				"x": 2.4813594615,
				"y": 0.9905156247,
				"z": 1.2057701012,
				"element": "C" 
			},
			{
				"x": 0.9401295463,
				"y": 1.1189527946,
				"z": 1.2931140383,
				"element": "C" 
			},
			{
				"x": 0.5922885603,
				"y": 1.7843695233,
				"z": 0.0384874417,
				"element": "N" 
			},
			{
				"x": -0.7937747239,
				"y": 2.0138163175,
				"z": -0.3654107771,
				"element": "C" 
			},
			{
				"x": -1.4652673462,
				"y": 0.7608764844,
				"z": -0.8909580444,
				"element": "C" 
			},
			{
				"x": -2.4693812185,
				"y": 0.1140155351,
				"z": -0.1620731518,
				"element": "C" 
			},
			{
				"x": -3.074427399,
				"y": -1.0485183097,
				"z": -0.6437618552,
				"element": "C" 
			},
			{
				"x": -2.6566119477,
				"y": -1.5573591426,
				"z": -1.8670684448,
				"element": "C" 
			},
			{
				"x": -3.2333180991,
				"y": -2.6790465125,
				"z": -2.3407831501,
				"element": "F" 
			},
			{
				"x": -1.6622827819,
				"y": -0.9403073486,
				"z": -2.6211143139,
				"element": "C" 
			},
			{
				"x": -1.073408824,
				"y": 0.2211129994,
				"z": -2.1261591083,
				"element": "C" 
			},
			{
				"x": 1.6320256272,
				"y": 2.5474299143,
				"z": -0.4712437013,
				"element": "C" 
			},
			{
				"x": 1.5421541727,
				"y": 3.3246233173,
				"z": -1.4039798183,
				"element": "O" 
			},
			{
				"x": 2.8791499882,
				"y": 2.2181466623,
				"z": 0.3480134098,
				"element": "C" 
			},
			{
				"x": 1.5395352629,
				"y": -0.0741768126,
				"z": -0.7638642111,
				"element": "H" 
			},
			{
				"x": 2.9451944156,
				"y": 1.0085562664,
				"z": 2.191899487,
				"element": "H" 
			},
			{
				"x": 0.433520966,
				"y": 0.1520977539,
				"z": 1.3747715049,
				"element": "H" 
			},
			{
				"x": 0.6433730179,
				"y": 1.7280743468,
				"z": 2.159718252,
				"element": "H" 
			},
			{
				"x": -1.3580591845,
				"y": 2.4171341142,
				"z": 0.485787491,
				"element": "H" 
			},
			{
				"x": -0.7487313041,
				"y": 2.7880791127,
				"z": -1.137105179,
				"element": "H" 
			},
			{
				"x": -2.7903405276,
				"y": 0.5236146389,
				"z": 0.7924290036,
				"element": "H" 
			},
			{
				"x": -3.8544015913,
				"y": -1.5582897529,
				"z": -0.0888409452,
				"element": "H" 
			},
			{
				"x": -1.3707668687,
				"y": -1.3663567754,
				"z": -3.5748507499,
				"element": "H" 
			},
			{
				"x": -0.3072561612,
				"y": 0.7237031473,
				"z": -2.7117767078,
				"element": "H" 
			},
			{
				"x": 3.1084768969,
				"y": 3.0834817523,
				"z": 0.980263518,
				"element": "H" 
			},
			{
				"x": 3.7407025654,
				"y": 2.0557168002,
				"z": -0.3034359707,
				"element": "H" 
			}
		],
		 "valence_orbital": [ 
			{
				"type": "occ",
				"energy": -0.27845,
				"method": "rhf"
			},
			{
				"type": "occ",
				"energy": -0.27479,
				"method": "rhf"
			},
			{
				"type": "occ",
				"energy": -0.27239,
				"method": "rhf"
			},
			{
				"type": "occ",
				"energy": -0.26705,
				"method": "rhf"
			},
			{
				"type": "occ",
				"energy": -0.25243,
				"method": "rhf"
			},
			{
				"type": "unocc",
				"energy": -0.02918,
				"method": "rhf"
			},
			{
				"type": "unocc",
				"energy": -0.01869,
				"method": "rhf"
			},
			{
				"type": "unocc",
				"energy": -0.0007,
				"method": "rhf"
			},
			{
				"type": "unocc",
				"energy": 0.00955,
				"method": "rhf"
			},
			{
				"type": "unocc",
				"energy": 0.06092,
				"method": "rhf"
			}
		],
		"cosmo_sigma_profile": { 
			"-0.025": 0.0,
			"-0.024": 0.0,
			"-0.023": 0.0,
			"-0.022": 0.0,
			"-0.021": 0.0,
			"-0.02": 0.0,
			"-0.019": 0.0,
			"-0.018": 0.0,
			"-0.017": 0.0,
			"-0.016": 0.0,
			"-0.015": 0.0,
			"-0.014": 0.0,
			"-0.013": 0.0,
			"-0.012": 0.0,
			"-0.011": 0.229215289027,
			"-0.01": 1.14873205286,
			"-0.009": 1.21204796457,
			"-0.008": 4.01058369799,
			"-0.007": 20.0040984339,
			"-0.006": 29.4261450211,
			"-0.005": 23.7749453111,
			"-0.004": 20.7743782272,
			"-0.003": 19.1636574696,
			"-0.002": 11.3167758099,
			"-0.001": 8.98370817699,
			"0.0": 11.4265427217,
			"0.001": 15.0462561339,
			"0.002": 13.3894635653,
			"0.003": 14.8340177299,
			"0.004": 18.0979931947,
			"0.005": 6.75687786845,
			"0.006": 2.69170542465,
			"0.007": 4.00417499192,
			"0.008": 3.51017777254,
			"0.009": 4.91397907957,
			"0.01": 6.41737097716,
			"0.011": 7.20493012636,
			"0.012": 8.57247336593,
			"0.013": 6.73171338995,
			"0.014": 1.24740153434,
			"0.015": 0.0159183244396,
			"0.016": 0.0,
			"0.017": 0.0,
			"0.018": 0.0,
			"0.019": 0.0,
			"0.02": 0.0,
			"0.021": 0.0,
			"0.022": 0.0,
			"0.023": 0.0,
			"0.024": 0.0,
			"0.025": 0.0
		}
	}
}
