{
	 "smiles": "NCC1=CC=C(C=C1)S(=O)(=O)N1CCOCC1", 
	 "Tm": 395.15, 
	 "num_atms": 33, 
	 "gaussian": { 
		 "optdone": 1, 
		 "sigma_profile": "yes", 
		 "theory": "DFT", 
		 "functional": "B3LYP", 
		 "basiset": "6-31G**", 
		 "properties": { 
			 "R2extent": 5210.9119, 
			 "electric_dipole_moment_norm": 3.90149887864, 
			 "electric_quadrupole_moment_norm": 21.3477916275, 
			 "total_energy": -1162.08240329, 
			 "HOMO_LUMO_gap": 0.19309, 
			 "cosmo_polarized_energy": -19.39, 
			 "cosmo_cavitation_energy": 36.04, 
			 "cosmo_dispersion_energy": -25.56, 
			 "cosmo_repulsion_energy": 1.96, 
			 "cosmo_total_nonelectrostatic_energy": 12.43, 
			 "SMD_solvation_energy": 2.8 
		},
		"coords": [
			{
				"x": -3.8459223913,
				"y": 1.2054378339,
				"z": 0.3564282691,
				"element": "N" 
			},
			{
				"x": -3.5362544992,
				"y": -0.0597166434,
				"z": -0.326694168,
				"element": "C" 
			},
			{
				"x": -2.0690341975,
				"y": -0.4555204012,
				"z": -0.3226963169,
				"element": "C" 
			},
			{
				"x": -1.2079881868,
				"y": -0.0286255034,
				"z": -1.3443466192,
				"element": "C" 
			},
			{
				"x": 0.1508622565,
				"y": -0.3382104724,
				"z": -1.318928456,
				"element": "C" 
			},
			{
				"x": 0.6604965169,
				"y": -1.0848122482,
				"z": -0.253319254,
				"element": "C" 
			},
			{
				"x": -0.1797981537,
				"y": -1.542649731,
				"z": 0.7650125763,
				"element": "C" 
			},
			{
				"x": -1.5360065315,
				"y": -1.2234626197,
				"z": 0.7230418311,
				"element": "C" 
			},
			{
				"x": 2.4215132495,
				"y": -1.4548167564,
				"z": -0.1876693672,
				"element": "S" 
			},
			{
				"x": 2.5683566293,
				"y": -2.6531115437,
				"z": 0.6421864013,
				"element": "O" 
			},
			{
				"x": 2.9187786933,
				"y": -1.3787284727,
				"z": -1.5635655635,
				"element": "O" 
			},
			{
				"x": 3.1887355514,
				"y": -0.223083333,
				"z": 0.6457690491,
				"element": "N" 
			},
			{
				"x": 3.1491131737,
				"y": -0.1611788004,
				"z": 2.1129695088,
				"element": "C" 
			},
			{
				"x": 2.2840928802,
				"y": 1.0106362528,
				"z": 2.5826630147,
				"element": "C" 
			},
			{
				"x": 2.7060402652,
				"y": 2.2301620549,
				"z": 1.9826447658,
				"element": "O" 
			},
			{
				"x": 2.6090767015,
				"y": 2.1746786371,
				"z": 0.563889611,
				"element": "C" 
			},
			{
				"x": 3.4898513723,
				"y": 1.0595195979,
				"z": -0.0041004083,
				"element": "C" 
			},
			{
				"x": -3.3129172823,
				"y": 1.9617751903,
				"z": -0.0681605204,
				"element": "H" 
			},
			{
				"x": -3.5347459059,
				"y": 1.1555424426,
				"z": 1.3244663212,
				"element": "H" 
			},
			{
				"x": -3.8913736399,
				"y": 0.0241598705,
				"z": -1.3597757058,
				"element": "H" 
			},
			{
				"x": -4.1308457853,
				"y": -0.8483109624,
				"z": 0.14763332,
				"element": "H" 
			},
			{
				"x": -1.6099021602,
				"y": 0.539461082,
				"z": -2.1801526471,
				"element": "H" 
			},
			{
				"x": 0.8075460058,
				"y": -0.0373211386,
				"z": -2.1280582519,
				"element": "H" 
			},
			{
				"x": 0.2230503167,
				"y": -2.1664215475,
				"z": 1.5556259663,
				"element": "H" 
			},
			{
				"x": -2.1948188472,
				"y": -1.59113979,
				"z": 1.5063778557,
				"element": "H" 
			},
			{
				"x": 4.1784539383,
				"y": -0.0176506322,
				"z": 2.4669960101,
				"element": "H" 
			},
			{
				"x": 2.7935425567,
				"y": -1.1158969161,
				"z": 2.504346138,
				"element": "H" 
			},
			{
				"x": 2.3783220894,
				"y": 1.1478247372,
				"z": 3.6642034784,
				"element": "H" 
			},
			{
				"x": 1.2255185198,
				"y": 0.8163407396,
				"z": 2.3446290584,
				"element": "H" 
			},
			{
				"x": 2.9373239881,
				"y": 3.150016368,
				"z": 0.191867667,
				"element": "H" 
			},
			{
				"x": 1.5610284676,
				"y": 2.0181659038,
				"z": 0.2604410579,
				"element": "H" 
			},
			{
				"x": 3.3710798016,
				"y": 0.9529000906,
				"z": -1.0837366627,
				"element": "H" 
			},
			{
				"x": 4.5442246072,
				"y": 1.2926367109,
				"z": 0.1945120407,
				"element": "H" 
			}
		],
		 "valence_orbital": [ 
			{
				"type": "occ",
				"energy": -0.29166,
				"method": "rhf"
			},
			{
				"type": "occ",
				"energy": -0.27858,
				"method": "rhf"
			},
			{
				"type": "occ",
				"energy": -0.27524,
				"method": "rhf"
			},
			{
				"type": "occ",
				"energy": -0.24792,
				"method": "rhf"
			},
			{
				"type": "occ",
				"energy": -0.23527,
				"method": "rhf"
			},
			{
				"type": "unocc",
				"energy": -0.04218,
				"method": "rhf"
			},
			{
				"type": "unocc",
				"energy": -0.02792,
				"method": "rhf"
			},
			{
				"type": "unocc",
				"energy": 0.05146,
				"method": "rhf"
			},
			{
				"type": "unocc",
				"energy": 0.07248,
				"method": "rhf"
			},
			{
				"type": "unocc",
				"energy": 0.08122,
				"method": "rhf"
			}
		],
		"cosmo_sigma_profile": { 
			"-0.025": 0.0,
			"-0.024": 0.0,
			"-0.023": 0.0,
			"-0.022": 0.0,
			"-0.021": 0.0,
			"-0.02": 0.0,
			"-0.019": 0.0,
			"-0.018": 0.0,
			"-0.017": 0.0,
			"-0.016": 0.0,
			"-0.015": 0.0,
			"-0.014": 0.0,
			"-0.013": 0.0,
			"-0.012": 0.0,
			"-0.011": 0.0,
			"-0.01": 0.863013598669,
			"-0.009": 2.63711992434,
			"-0.008": 2.49765186244,
			"-0.007": 6.99572902524,
			"-0.006": 24.060618657,
			"-0.005": 34.0649341236,
			"-0.004": 28.6030002954,
			"-0.003": 26.6261783008,
			"-0.002": 20.6515149231,
			"-0.001": 16.2075126535,
			"0.0": 12.5527239949,
			"0.001": 12.3898675108,
			"0.002": 14.4683086163,
			"0.003": 15.2392737506,
			"0.004": 6.77478011425,
			"0.005": 6.25771660269,
			"0.006": 5.42380178995,
			"0.007": 4.93287263933,
			"0.008": 6.73375871837,
			"0.009": 4.69221521639,
			"0.01": 8.22383423224,
			"0.011": 9.98164254944,
			"0.012": 6.42576781815,
			"0.013": 1.75388204099,
			"0.014": 0.865173984932,
			"0.015": 1.03456427587,
			"0.016": 0.490584522766,
			"0.017": 0.645947016895,
			"0.018": 0.368308161735,
			"0.019": 0.887511556308,
			"0.02": 0.0558352251282,
			"0.021": 0.0,
			"0.022": 0.0,
			"0.023": 0.0,
			"0.024": 0.0,
			"0.025": 0.0
		}
	}
}
