{
	 "smiles": "CC(=O)C1=C(OCC=C)C=CC=C1O", 
	 "Tm": 319.15, 
	 "num_atms": 26, 
	 "gaussian": { 
		 "optdone": 1, 
		 "sigma_profile": "yes", 
		 "theory": "DFT", 
		 "functional": "B3LYP", 
		 "basiset": "6-31G**", 
		 "properties": { 
			 "R2extent": 3753.8012, 
			 "electric_dipole_moment_norm": 5.00606551096, 
			 "electric_quadrupole_moment_norm": 11.0392020649, 
			 "total_energy": -652.050537488, 
			 "HOMO_LUMO_gap": 0.16366, 
			 "cosmo_polarized_energy": -9.31, 
			 "cosmo_cavitation_energy": 29.73, 
			 "cosmo_dispersion_energy": -21.38, 
			 "cosmo_repulsion_energy": 1.66, 
			 "cosmo_total_nonelectrostatic_energy": 10.02, 
			 "SMD_solvation_energy": 6.89 
		},
		"coords": [
			{
				"x": -1.8358750544,
				"y": 0.9320698435,
				"z": -2.073459733,
				"element": "C" 
			},
			{
				"x": -2.284092168,
				"y": -0.0940483512,
				"z": -1.0574620111,
				"element": "C" 
			},
			{
				"x": -3.5061306922,
				"y": -0.1398245869,
				"z": -0.8090699722,
				"element": "O" 
			},
			{
				"x": -1.3595622842,
				"y": -1.0136324456,
				"z": -0.3707380033,
				"element": "C" 
			},
			{
				"x": 0.0555633879,
				"y": -1.0520422869,
				"z": -0.5738901394,
				"element": "C" 
			},
			{
				"x": 0.568336843,
				"y": -0.1617629274,
				"z": -1.4674795698,
				"element": "O" 
			},
			{
				"x": 1.9810384351,
				"y": -0.146447044,
				"z": -1.7102108264,
				"element": "C" 
			},
			{
				"x": 2.2689799174,
				"y": 0.9578178145,
				"z": -2.6816583498,
				"element": "C" 
			},
			{
				"x": 2.9371207969,
				"y": 0.7867777458,
				"z": -3.821066274,
				"element": "C" 
			},
			{
				"x": 0.856378907,
				"y": -1.9625232351,
				"z": 0.1124858845,
				"element": "C" 
			},
			{
				"x": 0.2682620431,
				"y": -2.8527844773,
				"z": 1.0212907818,
				"element": "C" 
			},
			{
				"x": -1.0929893446,
				"y": -2.8530820446,
				"z": 1.2555364934,
				"element": "C" 
			},
			{
				"x": -1.9151499644,
				"y": -1.9429644607,
				"z": 0.5683584195,
				"element": "C" 
			},
			{
				"x": -3.2215088626,
				"y": -1.9855230777,
				"z": 0.8284373601,
				"element": "O" 
			},
			{
				"x": -1.3110776308,
				"y": 0.4615973587,
				"z": -2.9083059409,
				"element": "H" 
			},
			{
				"x": -1.133012239,
				"y": 1.6410613221,
				"z": -1.62818616,
				"element": "H" 
			},
			{
				"x": -2.7251869191,
				"y": 1.4551186817,
				"z": -2.427582116,
				"element": "H" 
			},
			{
				"x": 2.3095836052,
				"y": -1.1147988108,
				"z": -2.1090074745,
				"element": "H" 
			},
			{
				"x": 2.5071091449,
				"y": 0.0294517244,
				"z": -0.7602950388,
				"element": "H" 
			},
			{
				"x": 1.9182021026,
				"y": 1.9463509152,
				"z": -2.3900073962,
				"element": "H" 
			},
			{
				"x": 3.2921104042,
				"y": -0.1922947858,
				"z": -4.1339655733,
				"element": "H" 
			},
			{
				"x": 3.1597695378,
				"y": 1.6192916734,
				"z": -4.4812616248,
				"element": "H" 
			},
			{
				"x": 1.9255324559,
				"y": -1.9946015134,
				"z": -0.0464936041,
				"element": "H" 
			},
			{
				"x": 0.903786993,
				"y": -3.5574169571,
				"z": 1.5505890272,
				"element": "H" 
			},
			{
				"x": -1.5598902422,
				"y": -3.5362660676,
				"z": 1.9555401682,
				"element": "H" 
			},
			{
				"x": -3.6367991725,
				"y": -1.2765240074,
				"z": 0.2524016728,
				"element": "H" 
			}
		],
		 "valence_orbital": [ 
			{
				"type": "occ",
				"energy": -0.31222,
				"method": "rhf"
			},
			{
				"type": "occ",
				"energy": -0.28277,
				"method": "rhf"
			},
			{
				"type": "occ",
				"energy": -0.25601,
				"method": "rhf"
			},
			{
				"type": "occ",
				"energy": -0.2435,
				"method": "rhf"
			},
			{
				"type": "occ",
				"energy": -0.21679,
				"method": "rhf"
			},
			{
				"type": "unocc",
				"energy": -0.05313,
				"method": "rhf"
			},
			{
				"type": "unocc",
				"energy": -0.00731,
				"method": "rhf"
			},
			{
				"type": "unocc",
				"energy": 0.01694,
				"method": "rhf"
			},
			{
				"type": "unocc",
				"energy": 0.03717,
				"method": "rhf"
			},
			{
				"type": "unocc",
				"energy": 0.08837,
				"method": "rhf"
			}
		],
		"cosmo_sigma_profile": { 
			"-0.025": 0.0,
			"-0.024": 0.0,
			"-0.023": 0.0,
			"-0.022": 0.0,
			"-0.021": 0.0,
			"-0.02": 0.0,
			"-0.019": 0.0,
			"-0.018": 0.0,
			"-0.017": 0.0,
			"-0.016": 0.0,
			"-0.015": 0.0,
			"-0.014": 0.0,
			"-0.013": 0.0,
			"-0.012": 0.0,
			"-0.011": 0.0,
			"-0.01": 0.0,
			"-0.009": 0.0,
			"-0.008": 0.0,
			"-0.007": 2.85057916653,
			"-0.006": 14.7695585321,
			"-0.005": 20.2422938054,
			"-0.004": 20.1101453805,
			"-0.003": 20.2601416657,
			"-0.002": 19.159258701,
			"-0.001": 21.4707867182,
			"0.0": 19.2570934518,
			"0.001": 16.5495871715,
			"0.002": 18.2161516734,
			"0.003": 16.9013515935,
			"0.004": 15.3479740318,
			"0.005": 9.39441744092,
			"0.006": 4.46311171335,
			"0.007": 2.76418785275,
			"0.008": 2.49766339838,
			"0.009": 3.00376635922,
			"0.01": 3.20175518718,
			"0.011": 3.31498486436,
			"0.012": 2.52742917712,
			"0.013": 0.417124854201,
			"0.014": 0.0,
			"0.015": 0.0,
			"0.016": 0.0,
			"0.017": 0.0,
			"0.018": 0.0,
			"0.019": 0.0,
			"0.02": 0.0,
			"0.021": 0.0,
			"0.022": 0.0,
			"0.023": 0.0,
			"0.024": 0.0,
			"0.025": 0.0
		}
	}
}
