{
	 "smiles": "CC(=O)O[C@H]1CCC2C3CC[C@H]4CC(CC(O)=O)CC[C@]4(C)C3CC[C@]12C", 
	 "Tm": 425.15, 
	 "num_atms": 63, 
	 "gaussian": { 
		 "optdone": 1, 
		 "sigma_profile": "yes", 
		 "theory": "DFT", 
		 "functional": "B3LYP", 
		 "basiset": "6-31G**", 
		 "properties": { 
			 "R2extent": 14472.7613, 
			 "electric_dipole_moment_norm": 2.88503497726, 
			 "electric_quadrupole_moment_norm": 13.196683109, 
			 "total_energy": -1199.08812377, 
			 "HOMO_LUMO_gap": 0.2748, 
			 "cosmo_polarized_energy": -14.24, 
			 "cosmo_cavitation_energy": 55.33, 
			 "cosmo_dispersion_energy": -37.42, 
			 "cosmo_repulsion_energy": 2.8, 
			 "cosmo_total_nonelectrostatic_energy": 20.71, 
			 "SMD_solvation_energy": 9.76 
		},
		"coords": [
			{
				"x": 3.0574300762,
				"y": -0.709835313,
				"z": -5.8480998686,
				"element": "C" 
			},
			{
				"x": 1.977480493,
				"y": -0.4473823054,
				"z": -4.8240589811,
				"element": "C" 
			},
			{
				"x": 1.3668411588,
				"y": 0.5925203567,
				"z": -4.7021361422,
				"element": "O" 
			},
			{
				"x": 1.7780657497,
				"y": -1.5406419688,
				"z": -4.0502815181,
				"element": "O" 
			},
			{
				"x": 0.7744999101,
				"y": -1.439316187,
				"z": -3.0149054097,
				"element": "C" 
			},
			{
				"x": -0.6398701547,
				"y": -1.757299684,
				"z": -3.4980108167,
				"element": "C" 
			},
			{
				"x": -1.3829733006,
				"y": -2.0037780782,
				"z": -2.1747502277,
				"element": "C" 
			},
			{
				"x": -0.3369899967,
				"y": -2.5997799588,
				"z": -1.1756884917,
				"element": "C" 
			},
			{
				"x": -0.4316545321,
				"y": -1.9404305212,
				"z": 0.2228979424,
				"element": "C" 
			},
			{
				"x": 0.0376793662,
				"y": -2.8604307145,
				"z": 1.3815361577,
				"element": "C" 
			},
			{
				"x": 0.2680284345,
				"y": -2.0770286341,
				"z": 2.701419315,
				"element": "C" 
			},
			{
				"x": -0.5685880038,
				"y": -0.7932886162,
				"z": 2.6924207435,
				"element": "C" 
			},
			{
				"x": -0.7468962056,
				"y": -0.107259247,
				"z": 4.0569384784,
				"element": "C" 
			},
			{
				"x": -1.5061998339,
				"y": 1.2497887472,
				"z": 3.9386708796,
				"element": "C" 
			},
			{
				"x": -2.4956017737,
				"y": 1.4187058497,
				"z": 5.1150619256,
				"element": "C" 
			},
			{
				"x": -3.1621240704,
				"y": 2.7750515812,
				"z": 5.1537112608,
				"element": "C" 
			},
			{
				"x": -2.2642751458,
				"y": 3.7709057398,
				"z": 5.3772372239,
				"element": "O" 
			},
			{
				"x": -4.343569087,
				"y": 2.9958091209,
				"z": 5.001072829,
				"element": "O" 
			},
			{
				"x": -2.2156564546,
				"y": 1.3723118058,
				"z": 2.5744531522,
				"element": "C" 
			},
			{
				"x": -1.281468267,
				"y": 1.1782066087,
				"z": 1.3490006232,
				"element": "C" 
			},
			{
				"x": -0.0828468307,
				"y": 0.2091384781,
				"z": 1.6009937169,
				"element": "C" 
			},
			{
				"x": 1.1228636026,
				"y": 1.0478606696,
				"z": 2.0890612246,
				"element": "C" 
			},
			{
				"x": 0.2813613344,
				"y": -0.5721183112,
				"z": 0.2667643541,
				"element": "C" 
			},
			{
				"x": 1.7994580062,
				"y": -0.7362896834,
				"z": -0.0395426377,
				"element": "C" 
			},
			{
				"x": 2.1632772723,
				"y": -1.9542474488,
				"z": -0.9256054747,
				"element": "C" 
			},
			{
				"x": 1.0642058556,
				"y": -2.4553894057,
				"z": -1.8801089072,
				"element": "C" 
			},
			{
				"x": 1.5015322077,
				"y": -3.8126812554,
				"z": -2.466977825,
				"element": "C" 
			},
			{
				"x": 3.2161219873,
				"y": 0.1868189672,
				"z": -6.4462832979,
				"element": "H" 
			},
			{
				"x": 3.9877427064,
				"y": -0.997861879,
				"z": -5.3499009485,
				"element": "H" 
			},
			{
				"x": 2.7641826616,
				"y": -1.5419358592,
				"z": -6.4952395693,
				"element": "H" 
			},
			{
				"x": 0.8026772469,
				"y": -0.4148106369,
				"z": -2.6328793854,
				"element": "H" 
			},
			{
				"x": -1.0655308764,
				"y": -0.9462250057,
				"z": -4.0942752269,
				"element": "H" 
			},
			{
				"x": -0.6198486056,
				"y": -2.6579570076,
				"z": -4.1217164761,
				"element": "H" 
			},
			{
				"x": -1.7642364448,
				"y": -1.0510374611,
				"z": -1.7885449636,
				"element": "H" 
			},
			{
				"x": -2.2509393979,
				"y": -2.6587234968,
				"z": -2.2962956937,
				"element": "H" 
			},
			{
				"x": -0.5441433049,
				"y": -3.6688372523,
				"z": -1.0458668441,
				"element": "H" 
			},
			{
				"x": -1.5014831243,
				"y": -1.7537936757,
				"z": 0.3851999319,
				"element": "H" 
			},
			{
				"x": 0.9475668486,
				"y": -3.4021850312,
				"z": 1.1051136067,
				"element": "H" 
			},
			{
				"x": -0.730978684,
				"y": -3.6284099763,
				"z": 1.535842241,
				"element": "H" 
			},
			{
				"x": 1.3302069244,
				"y": -1.8304556025,
				"z": 2.8256103444,
				"element": "H" 
			},
			{
				"x": 0.0018676428,
				"y": -2.7016371389,
				"z": 3.5629148292,
				"element": "H" 
			},
			{
				"x": -1.5784621814,
				"y": -1.105724269,
				"z": 2.394481245,
				"element": "H" 
			},
			{
				"x": 0.2222082129,
				"y": 0.0509660345,
				"z": 4.5458493311,
				"element": "H" 
			},
			{
				"x": -1.3059510044,
				"y": -0.7908691416,
				"z": 4.7094925807,
				"element": "H" 
			},
			{
				"x": -0.7844821722,
				"y": 2.0692290397,
				"z": 4.0211544887,
				"element": "H" 
			},
			{
				"x": -1.9541775209,
				"y": 1.2789204182,
				"z": 6.0586246731,
				"element": "H" 
			},
			{
				"x": -3.2896618005,
				"y": 0.6687077745,
				"z": 5.0612853389,
				"element": "H" 
			},
			{
				"x": -2.775932241,
				"y": 4.5973140538,
				"z": 5.3698375874,
				"element": "H" 
			},
			{
				"x": -3.0219790076,
				"y": 0.6282142171,
				"z": 2.5408793245,
				"element": "H" 
			},
			{
				"x": -2.7150663317,
				"y": 2.3448946039,
				"z": 2.499095404,
				"element": "H" 
			},
			{
				"x": -1.8927584519,
				"y": 0.7989481093,
				"z": 0.5206420269,
				"element": "H" 
			},
			{
				"x": -0.891999146,
				"y": 2.1479302753,
				"z": 1.0146513986,
				"element": "H" 
			},
			{
				"x": 0.8353362339,
				"y": 1.7519624234,
				"z": 2.871467085,
				"element": "H" 
			},
			{
				"x": 1.5315122626,
				"y": 1.6422335548,
				"z": 1.2657388027,
				"element": "H" 
			},
			{
				"x": 1.9356864837,
				"y": 0.435617518,
				"z": 2.4896536789,
				"element": "H" 
			},
			{
				"x": -0.1297593778,
				"y": 0.0306323062,
				"z": -0.553617026,
				"element": "H" 
			},
			{
				"x": 2.3739023299,
				"y": -0.8313615735,
				"z": 0.8850216947,
				"element": "H" 
			},
			{
				"x": 2.1602256878,
				"y": 0.1830799434,
				"z": -0.5130206755,
				"element": "H" 
			},
			{
				"x": 3.0570934144,
				"y": -1.7193806337,
				"z": -1.5172057489,
				"element": "H" 
			},
			{
				"x": 2.4549813081,
				"y": -2.7914083202,
				"z": -0.2815449192,
				"element": "H" 
			},
			{
				"x": 0.7612884118,
				"y": -4.2168437227,
				"z": -3.1649765458,
				"element": "H" 
			},
			{
				"x": 2.4515542733,
				"y": -3.7275049939,
				"z": -3.0014590874,
				"element": "H" 
			},
			{
				"x": 1.6254252262,
				"y": -4.5431081862,
				"z": -1.6603027317,
				"element": "H" 
			}
		],
		 "valence_orbital": [ 
			{
				"type": "occ",
				"energy": -0.27757,
				"method": "rhf"
			},
			{
				"type": "occ",
				"energy": -0.27331,
				"method": "rhf"
			},
			{
				"type": "occ",
				"energy": -0.27102,
				"method": "rhf"
			},
			{
				"type": "occ",
				"energy": -0.26597,
				"method": "rhf"
			},
			{
				"type": "occ",
				"energy": -0.26463,
				"method": "rhf"
			},
			{
				"type": "unocc",
				"energy": 0.01017,
				"method": "rhf"
			},
			{
				"type": "unocc",
				"energy": 0.01547,
				"method": "rhf"
			},
			{
				"type": "unocc",
				"energy": 0.06241,
				"method": "rhf"
			},
			{
				"type": "unocc",
				"energy": 0.07076,
				"method": "rhf"
			},
			{
				"type": "unocc",
				"energy": 0.07478,
				"method": "rhf"
			}
		],
		"cosmo_sigma_profile": { 
			"-0.025": 0.0,
			"-0.024": 0.0,
			"-0.023": 0.0,
			"-0.022": 0.0,
			"-0.021": 0.0,
			"-0.02": 0.0,
			"-0.019": 0.0,
			"-0.018": 0.467912854606,
			"-0.017": 0.716696834041,
			"-0.016": 1.12963023906,
			"-0.015": 0.738682878625,
			"-0.014": 0.717553432666,
			"-0.013": 0.294426142703,
			"-0.012": 0.666552361937,
			"-0.011": 0.967693527517,
			"-0.01": 1.02120984358,
			"-0.009": 0.426620397198,
			"-0.008": 0.546525328808,
			"-0.007": 1.13432343577,
			"-0.006": 5.87988906588,
			"-0.005": 9.24951762563,
			"-0.004": 15.4597071425,
			"-0.003": 35.1531663409,
			"-0.002": 75.3304106471,
			"-0.001": 79.1256290347,
			"0.0": 62.2992335979,
			"0.001": 43.4729800934,
			"0.002": 27.0149327269,
			"0.003": 8.07313489173,
			"0.004": 6.12179768831,
			"0.005": 6.1344027055,
			"0.006": 5.84444227184,
			"0.007": 5.53814857794,
			"0.008": 3.63102928332,
			"0.009": 4.55899025106,
			"0.01": 3.67733800077,
			"0.011": 5.63326847294,
			"0.012": 9.76371414505,
			"0.013": 3.80275082342,
			"0.014": 0.241279130718,
			"0.015": 0.0,
			"0.016": 0.0,
			"0.017": 0.0,
			"0.018": 0.0,
			"0.019": 0.0,
			"0.02": 0.0,
			"0.021": 0.0,
			"0.022": 0.0,
			"0.023": 0.0,
			"0.024": 0.0,
			"0.025": 0.0
		}
	}
}
