{
	 "smiles": "O[C@H]1CCN2C1=NC1=CC=CC=C1C2=O", 
	 "Tm": 483.15, 
	 "num_atms": 25, 
	 "gaussian": { 
		 "optdone": 1, 
		 "sigma_profile": "yes", 
		 "theory": "DFT", 
		 "functional": "B3LYP", 
		 "basiset": "6-31G**", 
		 "properties": { 
			 "R2extent": 3450.9201, 
			 "electric_dipole_moment_norm": 2.03175618616, 
			 "electric_quadrupole_moment_norm": 13.6648180965, 
			 "total_energy": -685.17539633, 
			 "HOMO_LUMO_gap": 0.1884, 
			 "cosmo_polarized_energy": -13.25, 
			 "cosmo_cavitation_energy": 28.33, 
			 "cosmo_dispersion_energy": -21.24, 
			 "cosmo_repulsion_energy": 1.64, 
			 "cosmo_total_nonelectrostatic_energy": 8.73, 
			 "SMD_solvation_energy": 3.07 
		},
		"coords": [
			{
				"x": -2.3478361406,
				"y": 2.8761476004,
				"z": -2.382124532,
				"element": "O" 
			},
			{
				"x": -2.2149279571,
				"y": 1.4606034175,
				"z": -2.4780510259,
				"element": "C" 
			},
			{
				"x": -1.1387488272,
				"y": 1.1401959817,
				"z": -3.5249989191,
				"element": "C" 
			},
			{
				"x": 0.1841875769,
				"y": 1.0925560944,
				"z": -2.7338678173,
				"element": "C" 
			},
			{
				"x": -0.2626471788,
				"y": 0.7375171757,
				"z": -1.3801947686,
				"element": "N" 
			},
			{
				"x": -1.6128742231,
				"y": 0.9156973512,
				"z": -1.1950877799,
				"element": "C" 
			},
			{
				"x": -2.2604567219,
				"y": 0.7296105318,
				"z": -0.0930884294,
				"element": "N" 
			},
			{
				"x": -1.4992984409,
				"y": 0.3060623337,
				"z": 0.9940811704,
				"element": "C" 
			},
			{
				"x": -2.145787341,
				"y": 0.0754747439,
				"z": 2.2240506148,
				"element": "C" 
			},
			{
				"x": -1.4202140434,
				"y": -0.3490679198,
				"z": 3.3266015243,
				"element": "C" 
			},
			{
				"x": -0.0318272153,
				"y": -0.5561266687,
				"z": 3.2361964175,
				"element": "C" 
			},
			{
				"x": 0.6224415896,
				"y": -0.3339269278,
				"z": 2.0342744015,
				"element": "C" 
			},
			{
				"x": -0.0989255861,
				"y": 0.0958439644,
				"z": 0.908950682,
				"element": "C" 
			},
			{
				"x": 0.6065889014,
				"y": 0.3360023854,
				"z": -0.359807831,
				"element": "C" 
			},
			{
				"x": 1.8087579182,
				"y": 0.2144697063,
				"z": -0.5612988895,
				"element": "O" 
			},
			{
				"x": -2.8943989795,
				"y": 3.0590269396,
				"z": -1.6044792338,
				"element": "H" 
			},
			{
				"x": -3.180159858,
				"y": 0.9846233989,
				"z": -2.6912082295,
				"element": "H" 
			},
			{
				"x": -1.3438500725,
				"y": 0.1621765143,
				"z": -3.9710264909,
				"element": "H" 
			},
			{
				"x": -1.1310736003,
				"y": 1.8890769148,
				"z": -4.318789213,
				"element": "H" 
			},
			{
				"x": 0.6917993842,
				"y": 2.0620465895,
				"z": -2.7063457955,
				"element": "H" 
			},
			{
				"x": 0.8954895157,
				"y": 0.3474969178,
				"z": -3.0943414954,
				"element": "H" 
			},
			{
				"x": -3.2172084739,
				"y": 0.2389909699,
				"z": 2.2761323439,
				"element": "H" 
			},
			{
				"x": -1.9297360026,
				"y": -0.5236355766,
				"z": 4.2700806026,
				"element": "H" 
			},
			{
				"x": 0.5246463526,
				"y": -0.8889443681,
				"z": 4.1070229954,
				"element": "H" 
			},
			{
				"x": 1.6922594236,
				"y": -0.4822180701,
				"z": 1.9296196984,
				"element": "H" 
			}
		],
		 "valence_orbital": [ 
			{
				"type": "occ",
				"energy": -0.28651,
				"method": "rhf"
			},
			{
				"type": "occ",
				"energy": -0.2754,
				"method": "rhf"
			},
			{
				"type": "occ",
				"energy": -0.25995,
				"method": "rhf"
			},
			{
				"type": "occ",
				"energy": -0.25924,
				"method": "rhf"
			},
			{
				"type": "occ",
				"energy": -0.22857,
				"method": "rhf"
			},
			{
				"type": "unocc",
				"energy": -0.04017,
				"method": "rhf"
			},
			{
				"type": "unocc",
				"energy": -0.03784,
				"method": "rhf"
			},
			{
				"type": "unocc",
				"energy": 0.02392,
				"method": "rhf"
			},
			{
				"type": "unocc",
				"energy": 0.06825,
				"method": "rhf"
			},
			{
				"type": "unocc",
				"energy": 0.08054,
				"method": "rhf"
			}
		],
		"cosmo_sigma_profile": { 
			"-0.025": 0.0,
			"-0.024": 0.0,
			"-0.023": 0.0,
			"-0.022": 0.0,
			"-0.021": 0.0,
			"-0.02": 0.0,
			"-0.019": 0.0,
			"-0.018": 0.0,
			"-0.017": 0.0,
			"-0.016": 0.121808792037,
			"-0.015": 0.75429936324,
			"-0.014": 0.929496323075,
			"-0.013": 0.560106207105,
			"-0.012": 0.38315308684,
			"-0.011": 1.35317407915,
			"-0.01": 0.585161342068,
			"-0.009": 0.363097821161,
			"-0.008": 0.73549851957,
			"-0.007": 3.75751454058,
			"-0.006": 19.1615130429,
			"-0.005": 23.3146171809,
			"-0.004": 23.0470504357,
			"-0.003": 17.9949259896,
			"-0.002": 15.315543185,
			"-0.001": 10.9559181577,
			"0.0": 11.3466609777,
			"0.001": 12.9840723194,
			"0.002": 13.1087466597,
			"0.003": 17.5084286735,
			"0.004": 12.6893344876,
			"0.005": 3.38350036078,
			"0.006": 3.88991908607,
			"0.007": 2.96254515301,
			"0.008": 4.44618346816,
			"0.009": 2.98089013227,
			"0.01": 3.83546403209,
			"0.011": 3.68853486183,
			"0.012": 5.51956844459,
			"0.013": 6.83184381125,
			"0.014": 0.893610215868,
			"0.015": 0.141096689466,
			"0.016": 0.0,
			"0.017": 0.0,
			"0.018": 0.0,
			"0.019": 0.0,
			"0.02": 0.0,
			"0.021": 0.0,
			"0.022": 0.0,
			"0.023": 0.0,
			"0.024": 0.0,
			"0.025": 0.0
		}
	}
}
