{
	 "smiles": "COC1=CC=C(CCl)C=C1F", 
	 "Tm": 310.15, 
	 "num_atms": 19, 
	 "gaussian": { 
		 "optdone": 1, 
		 "sigma_profile": "yes", 
		 "theory": "DFT", 
		 "functional": "B3LYP", 
		 "basiset": "6-31G**", 
		 "properties": { 
			 "R2extent": 3336.4676, 
			 "electric_dipole_moment_norm": 3.61220963539, 
			 "electric_quadrupole_moment_norm": 15.2877802316, 
			 "total_energy": -944.911051207, 
			 "HOMO_LUMO_gap": 0.20177, 
			 "cosmo_polarized_energy": -9.02, 
			 "cosmo_cavitation_energy": 25.31, 
			 "cosmo_dispersion_energy": -18.44, 
			 "cosmo_repulsion_energy": 1.48, 
			 "cosmo_total_nonelectrostatic_energy": 8.35, 
			 "SMD_solvation_energy": 5.29 
		},
		"coords": [
			{
				"x": 2.21055141,
				"y": 0.6826490632,
				"z": 1.3849714902,
				"element": "C" 
			},
			{
				"x": 1.5021025294,
				"y": -0.5177515592,
				"z": 1.1109685493,
				"element": "O" 
			},
			{
				"x": 0.573377481,
				"y": -0.4952821318,
				"z": 0.121747182,
				"element": "C" 
			},
			{
				"x": 0.2292599015,
				"y": 0.6122600102,
				"z": -0.6589541232,
				"element": "C" 
			},
			{
				"x": -0.7520307201,
				"y": 0.4999261502,
				"z": -1.6482670995,
				"element": "C" 
			},
			{
				"x": -1.4113232216,
				"y": -0.7082839724,
				"z": -1.88126028,
				"element": "C" 
			},
			{
				"x": -2.4613820519,
				"y": -0.8202786587,
				"z": -2.9404966112,
				"element": "C" 
			},
			{
				"x": -1.7913724869,
				"y": -1.4255113609,
				"z": -4.5481396871,
				"element": "Cl" 
			},
			{
				"x": -1.0671203182,
				"y": -1.8231056736,
				"z": -1.0982219705,
				"element": "C" 
			},
			{
				"x": -0.0971154627,
				"y": -1.7087997723,
				"z": -0.1226274513,
				"element": "C" 
			},
			{
				"x": 0.2261607433,
				"y": -2.776961407,
				"z": 0.629253956,
				"element": "F" 
			},
			{
				"x": 2.8989598972,
				"y": 0.4441769741,
				"z": 2.1965240847,
				"element": "H" 
			},
			{
				"x": 1.5347642927,
				"y": 1.4850227964,
				"z": 1.7070922456,
				"element": "H" 
			},
			{
				"x": 2.7824680836,
				"y": 1.0210107334,
				"z": 0.5118159885,
				"element": "H" 
			},
			{
				"x": 0.7201380746,
				"y": 1.5649802248,
				"z": -0.5009012503,
				"element": "H" 
			},
			{
				"x": -1.000786011,
				"y": 1.3721019621,
				"z": -2.2462165659,
				"element": "H" 
			},
			{
				"x": -3.2410126081,
				"y": -1.5345609294,
				"z": -2.6755839627,
				"element": "H" 
			},
			{
				"x": -2.915789896,
				"y": 0.1440252624,
				"z": -3.1669518334,
				"element": "H" 
			},
			{
				"x": -1.5453496368,
				"y": -2.7865177116,
				"z": -1.2442526613,
				"element": "H" 
			}
		],
		 "valence_orbital": [ 
			{
				"type": "occ",
				"energy": -0.3284,
				"method": "rhf"
			},
			{
				"type": "occ",
				"energy": -0.29252,
				"method": "rhf"
			},
			{
				"type": "occ",
				"energy": -0.29087,
				"method": "rhf"
			},
			{
				"type": "occ",
				"energy": -0.25774,
				"method": "rhf"
			},
			{
				"type": "occ",
				"energy": -0.22697,
				"method": "rhf"
			},
			{
				"type": "unocc",
				"energy": -0.0252,
				"method": "rhf"
			},
			{
				"type": "unocc",
				"energy": -0.00864,
				"method": "rhf"
			},
			{
				"type": "unocc",
				"energy": 0.04649,
				"method": "rhf"
			},
			{
				"type": "unocc",
				"energy": 0.07231,
				"method": "rhf"
			},
			{
				"type": "unocc",
				"energy": 0.0936,
				"method": "rhf"
			}
		],
		"cosmo_sigma_profile": { 
			"-0.025": 0.0,
			"-0.024": 0.0,
			"-0.023": 0.0,
			"-0.022": 0.0,
			"-0.021": 0.0,
			"-0.02": 0.0,
			"-0.019": 0.0,
			"-0.018": 0.0,
			"-0.017": 0.0,
			"-0.016": 0.0,
			"-0.015": 0.0,
			"-0.014": 0.0,
			"-0.013": 0.0,
			"-0.012": 0.0,
			"-0.011": 0.0,
			"-0.01": 0.0,
			"-0.009": 0.0,
			"-0.008": 2.8829938587,
			"-0.007": 11.5368827318,
			"-0.006": 16.0882294806,
			"-0.005": 17.2066735798,
			"-0.004": 16.6794653328,
			"-0.003": 12.1954967423,
			"-0.002": 8.41390649457,
			"-0.001": 7.11887258122,
			"0.0": 10.3544450629,
			"0.001": 15.3272239301,
			"0.002": 12.6723875023,
			"0.003": 15.4838764007,
			"0.004": 19.8751513269,
			"0.005": 11.0469234153,
			"0.006": 10.1830373948,
			"0.007": 11.6852365201,
			"0.008": 2.13432899348,
			"0.009": 1.56627915646,
			"0.01": 1.46548405129,
			"0.011": 0.0783385849326,
			"0.012": 0.0,
			"0.013": 0.0,
			"0.014": 0.0,
			"0.015": 0.0,
			"0.016": 0.0,
			"0.017": 0.0,
			"0.018": 0.0,
			"0.019": 0.0,
			"0.02": 0.0,
			"0.021": 0.0,
			"0.022": 0.0,
			"0.023": 0.0,
			"0.024": 0.0,
			"0.025": 0.0
		}
	}
}
