{
	 "smiles": "ClC1=CC=CC=C1Cl", 
	 "Tm": 255.75, 
	 "num_atms": 12, 
	 "gaussian": { 
		 "optdone": 1, 
		 "sigma_profile": "yes", 
		 "theory": "DFT", 
		 "functional": "B3LYP", 
		 "basiset": "6-31G**", 
		 "properties": { 
			 "R2extent": 1821.3897, 
			 "electric_dipole_moment_norm": 2.75290494387, 
			 "electric_quadrupole_moment_norm": 5.13899864079, 
			 "total_energy": -1151.43034937, 
			 "HOMO_LUMO_gap": 0.22676, 
			 "cosmo_polarized_energy": -4.18, 
			 "cosmo_cavitation_energy": 19.52, 
			 "cosmo_dispersion_energy": -14.98, 
			 "cosmo_repulsion_energy": 1.24, 
			 "cosmo_total_nonelectrostatic_energy": 5.78, 
			 "SMD_solvation_energy": 2.9 
		},
		"coords": [
			{
				"x": 1.8457849336,
				"y": 1.6178835569,
				"z": -1.0200333855,
				"element": "Cl" 
			},
			{
				"x": 1.0235322611,
				"y": 0.232103216,
				"z": -0.3440792975,
				"element": "C" 
			},
			{
				"x": -0.3692668798,
				"y": 0.2630272177,
				"z": -0.2367643411,
				"element": "C" 
			},
			{
				"x": -1.0558552668,
				"y": -0.8250583358,
				"z": 0.2975090332,
				"element": "C" 
			},
			{
				"x": -0.3526544685,
				"y": -1.9511349517,
				"z": 0.7277932874,
				"element": "C" 
			},
			{
				"x": 1.0360564217,
				"y": -1.9873896388,
				"z": 0.6231656894,
				"element": "C" 
			},
			{
				"x": 1.7298346696,
				"y": -0.8989209697,
				"z": 0.0881214359,
				"element": "C" 
			},
			{
				"x": 3.4714139001,
				"y": -0.985266707,
				"z": -0.0251819788,
				"element": "Cl" 
			},
			{
				"x": -0.9012491394,
				"y": 1.1451804764,
				"z": -0.5755126823,
				"element": "H" 
			},
			{
				"x": -2.1378502942,
				"y": -0.7891292353,
				"z": 0.3756701206,
				"element": "H" 
			},
			{
				"x": -0.880303887,
				"y": -2.8029037792,
				"z": 1.1451533779,
				"element": "H" 
			},
			{
				"x": 1.5967577497,
				"y": -2.8549908496,
				"z": 0.953058741,
				"element": "H" 
			}
		],
		 "valence_orbital": [ 
			{
				"type": "occ",
				"energy": -0.33912,
				"method": "rhf"
			},
			{
				"type": "occ",
				"energy": -0.32856,
				"method": "rhf"
			},
			{
				"type": "occ",
				"energy": -0.30912,
				"method": "rhf"
			},
			{
				"type": "occ",
				"energy": -0.26419,
				"method": "rhf"
			},
			{
				"type": "occ",
				"energy": -0.25149,
				"method": "rhf"
			},
			{
				"type": "unocc",
				"energy": -0.02473,
				"method": "rhf"
			},
			{
				"type": "unocc",
				"energy": -0.02405,
				"method": "rhf"
			},
			{
				"type": "unocc",
				"energy": 0.00161,
				"method": "rhf"
			},
			{
				"type": "unocc",
				"energy": 0.0619,
				"method": "rhf"
			},
			{
				"type": "unocc",
				"energy": 0.10306,
				"method": "rhf"
			}
		],
		"cosmo_sigma_profile": { 
			"-0.025": 0.0,
			"-0.024": 0.0,
			"-0.023": 0.0,
			"-0.022": 0.0,
			"-0.021": 0.0,
			"-0.02": 0.0,
			"-0.019": 0.0,
			"-0.018": 0.0,
			"-0.017": 0.0,
			"-0.016": 0.0,
			"-0.015": 0.0,
			"-0.014": 0.0,
			"-0.013": 0.0,
			"-0.012": 0.0,
			"-0.011": 0.0,
			"-0.01": 0.0,
			"-0.009": 0.0,
			"-0.008": 1.83073774936,
			"-0.007": 7.74651321319,
			"-0.006": 8.76549181044,
			"-0.005": 8.57332782848,
			"-0.004": 5.66447441632,
			"-0.003": 8.31314190919,
			"-0.002": 7.97032495659,
			"-0.001": 10.2472952546,
			"0.0": 14.317118046,
			"0.001": 20.78345845,
			"0.002": 19.9656265197,
			"0.003": 21.6256413866,
			"0.004": 18.2470807274,
			"0.005": 6.50880776977,
			"0.006": 1.12920676341,
			"0.007": 0.0,
			"0.008": 0.0,
			"0.009": 0.0,
			"0.01": 0.0,
			"0.011": 0.0,
			"0.012": 0.0,
			"0.013": 0.0,
			"0.014": 0.0,
			"0.015": 0.0,
			"0.016": 0.0,
			"0.017": 0.0,
			"0.018": 0.0,
			"0.019": 0.0,
			"0.02": 0.0,
			"0.021": 0.0,
			"0.022": 0.0,
			"0.023": 0.0,
			"0.024": 0.0,
			"0.025": 0.0
		}
	}
}
