{
	 "smiles": "OS(=O)(=O)CS(O)(=O)=O", 
	 "Tm": 371.15, 
	 "num_atms": 13, 
	 "gaussian": { 
		 "optdone": 1, 
		 "sigma_profile": "yes", 
		 "theory": "DFT", 
		 "functional": "B3LYP", 
		 "basiset": "6-31G**", 
		 "properties": { 
			 "R2extent": 2006.6346, 
			 "electric_dipole_moment_norm": 1.02374665323, 
			 "electric_quadrupole_moment_norm": 11.7380210342, 
			 "total_energy": -1288.09286157, 
			 "HOMO_LUMO_gap": 0.33393, 
			 "cosmo_polarized_energy": -17.12, 
			 "cosmo_cavitation_energy": 19.3, 
			 "cosmo_dispersion_energy": -16.65, 
			 "cosmo_repulsion_energy": 1.25, 
			 "cosmo_total_nonelectrostatic_energy": 3.89, 
			 "SMD_solvation_energy": 1.31 
		},
		"coords": [
			{
				"x": 0.4525553437,
				"y": -0.4667201682,
				"z": -2.0125552861,
				"element": "O" 
			},
			{
				"x": -0.3190077338,
				"y": -1.6099442179,
				"z": -1.1868218805,
				"element": "S" 
			},
			{
				"x": -1.6663399935,
				"y": -1.6832389887,
				"z": -1.7100274048,
				"element": "O" 
			},
			{
				"x": 0.5273448164,
				"y": -2.8077067483,
				"z": -1.0788692507,
				"element": "O" 
			},
			{
				"x": -0.355334896,
				"y": -0.8807452412,
				"z": 0.4857659364,
				"element": "C" 
			},
			{
				"x": 1.3239181396,
				"y": -0.8112106294,
				"z": 1.1970804819,
				"element": "S" 
			},
			{
				"x": 1.6394915591,
				"y": -2.3724872353,
				"z": 1.4136685795,
				"element": "O" 
			},
			{
				"x": 2.1828416434,
				"y": -0.2692875818,
				"z": 0.1335408406,
				"element": "O" 
			},
			{
				"x": 1.2676188157,
				"y": -0.1980874977,
				"z": 2.5067853413,
				"element": "O" 
			},
			{
				"x": 1.3263125967,
				"y": -0.3164158049,
				"z": -1.5785940302,
				"element": "H" 
			},
			{
				"x": -0.9880733655,
				"y": -1.5034540281,
				"z": 1.1205950305,
				"element": "H" 
			},
			{
				"x": -0.7473729434,
				"y": 0.1359959809,
				"z": 0.4251486773,
				"element": "H" 
			},
			{
				"x": 1.5493460175,
				"y": -2.8240978393,
				"z": 0.540582965,
				"element": "H" 
			}
		],
		 "valence_orbital": [ 
			{
				"type": "occ",
				"energy": -0.37099,
				"method": "rhf"
			},
			{
				"type": "occ",
				"energy": -0.36556,
				"method": "rhf"
			},
			{
				"type": "occ",
				"energy": -0.35166,
				"method": "rhf"
			},
			{
				"type": "occ",
				"energy": -0.34696,
				"method": "rhf"
			},
			{
				"type": "occ",
				"energy": -0.34346,
				"method": "rhf"
			},
			{
				"type": "unocc",
				"energy": -0.00953,
				"method": "rhf"
			},
			{
				"type": "unocc",
				"energy": 0.00503,
				"method": "rhf"
			},
			{
				"type": "unocc",
				"energy": 0.00785,
				"method": "rhf"
			},
			{
				"type": "unocc",
				"energy": 0.03593,
				"method": "rhf"
			},
			{
				"type": "unocc",
				"energy": 0.04488,
				"method": "rhf"
			}
		],
		"cosmo_sigma_profile": { 
			"-0.025": 0.0,
			"-0.024": 0.0,
			"-0.023": 0.0,
			"-0.022": 0.0,
			"-0.021": 0.0,
			"-0.02": 0.0,
			"-0.019": 0.0,
			"-0.018": 0.0,
			"-0.017": 0.0,
			"-0.016": 0.0,
			"-0.015": 1.46021802093,
			"-0.014": 4.92329688117,
			"-0.013": 5.83829426328,
			"-0.012": 5.15839477329,
			"-0.011": 4.54821723116,
			"-0.01": 5.07581210594,
			"-0.009": 5.48209072337,
			"-0.008": 3.54959838656,
			"-0.007": 3.97667817833,
			"-0.006": 3.2215891329,
			"-0.005": 4.2375445915,
			"-0.004": 2.8019674526,
			"-0.003": 3.75483671922,
			"-0.002": 3.78817500532,
			"-0.001": 5.94623623398,
			"0.0": 5.23690639314,
			"0.001": 5.12651285137,
			"0.002": 4.93752535673,
			"0.003": 7.13067699572,
			"0.004": 7.88430137026,
			"0.005": 9.53577411738,
			"0.006": 8.87596871841,
			"0.007": 11.0430931805,
			"0.008": 18.8899337229,
			"0.009": 11.5287835014,
			"0.01": 0.481574978683,
			"0.011": 0.0,
			"0.012": 0.0,
			"0.013": 0.0,
			"0.014": 0.0,
			"0.015": 0.0,
			"0.016": 0.0,
			"0.017": 0.0,
			"0.018": 0.0,
			"0.019": 0.0,
			"0.02": 0.0,
			"0.021": 0.0,
			"0.022": 0.0,
			"0.023": 0.0,
			"0.024": 0.0,
			"0.025": 0.0
		}
	}
}
