{
	 "smiles": "OC(=O)C1CN(C(=O)C1)C1=CC(Br)=CC=C1", 
	 "Tm": 416.15, 
	 "num_atms": 26, 
	 "gaussian": { 
		 "optdone": 1, 
		 "sigma_profile": "yes", 
		 "theory": "DFT", 
		 "functional": "B3LYP", 
		 "basiset": "6-31G**", 
		 "properties": { 
			 "R2extent": 7554.9891, 
			 "electric_dipole_moment_norm": 4.57454314003, 
			 "electric_quadrupole_moment_norm": 21.4718502789, 
			 "total_energy": -3277.0447618, 
			 "HOMO_LUMO_gap": 0.20353, 
			 "cosmo_polarized_energy": -23.38, 
			 "cosmo_cavitation_energy": 32.3, 
			 "cosmo_dispersion_energy": -23.82, 
			 "cosmo_repulsion_energy": 1.86, 
			 "cosmo_total_nonelectrostatic_energy": 10.35, 
			 "SMD_solvation_energy": 5.43 
		},
		"coords": [
			{
				"x": -1.1699962971,
				"y": 2.7454335007,
				"z": -0.9303247957,
				"element": "O" 
			},
			{
				"x": -1.6698248659,
				"y": 2.0485642847,
				"z": 0.1251643323,
				"element": "C" 
			},
			{
				"x": -1.4595201473,
				"y": 2.4228627875,
				"z": 1.2494439723,
				"element": "O" 
			},
			{
				"x": -2.4827668381,
				"y": 0.7992859017,
				"z": -0.2431147837,
				"element": "C" 
			},
			{
				"x": -1.5863339248,
				"y": -0.2900387748,
				"z": -0.8952506542,
				"element": "C" 
			},
			{
				"x": -1.242278235,
				"y": -1.1874905065,
				"z": 0.2059095191,
				"element": "N" 
			},
			{
				"x": -2.082683009,
				"y": -1.0262865701,
				"z": 1.3081611597,
				"element": "C" 
			},
			{
				"x": -2.0689339215,
				"y": -1.6839970925,
				"z": 2.3308424079,
				"element": "O" 
			},
			{
				"x": -3.0508443658,
				"y": 0.1097392403,
				"z": 0.9988475673,
				"element": "C" 
			},
			{
				"x": -0.2622005365,
				"y": -2.1955649075,
				"z": 0.0469127031,
				"element": "C" 
			},
			{
				"x": 0.2540247257,
				"y": -2.4507360152,
				"z": -1.2354233762,
				"element": "C" 
			},
			{
				"x": 1.2330875442,
				"y": -3.4269382909,
				"z": -1.4012114519,
				"element": "C" 
			},
			{
				"x": 1.9152597719,
				"y": -3.748696046,
				"z": -3.1604776871,
				"element": "Br" 
			},
			{
				"x": 1.7206972162,
				"y": -4.1685449087,
				"z": -0.3313856212,
				"element": "C" 
			},
			{
				"x": 1.196228078,
				"y": -3.9080610655,
				"z": 0.9364654945,
				"element": "C" 
			},
			{
				"x": 0.2195648684,
				"y": -2.9378803669,
				"z": 1.1410912358,
				"element": "C" 
			},
			{
				"x": -1.4588418479,
				"y": 2.3583937738,
				"z": -1.7689561825,
				"element": "H" 
			},
			{
				"x": -3.2653010388,
				"y": 1.1067159456,
				"z": -0.9465020444,
				"element": "H" 
			},
			{
				"x": -2.1327808262,
				"y": -0.8265159727,
				"z": -1.683045505,
				"element": "H" 
			},
			{
				"x": -0.6779055387,
				"y": 0.1267971536,
				"z": -1.3429793258,
				"element": "H" 
			},
			{
				"x": -3.1168988689,
				"y": 0.7800656263,
				"z": 1.8567934622,
				"element": "H" 
			},
			{
				"x": -4.04092947,
				"y": -0.3207702561,
				"z": 0.8150614336,
				"element": "H" 
			},
			{
				"x": -0.0978852192,
				"y": -1.9120007947,
				"z": -2.1045722638,
				"element": "H" 
			},
			{
				"x": 2.4834539578,
				"y": -4.9229486335,
				"z": -0.4820820841,
				"element": "H" 
			},
			{
				"x": 1.5617562943,
				"y": -4.4737670464,
				"z": 1.7883737931,
				"element": "H" 
			},
			{
				"x": -0.1816475057,
				"y": -2.7548209662,
				"z": 2.1265586946,
				"element": "H" 
			}
		],
		 "valence_orbital": [ 
			{
				"type": "occ",
				"energy": -0.2917,
				"method": "rhf"
			},
			{
				"type": "occ",
				"energy": -0.28929,
				"method": "rhf"
			},
			{
				"type": "occ",
				"energy": -0.26477,
				"method": "rhf"
			},
			{
				"type": "occ",
				"energy": -0.25214,
				"method": "rhf"
			},
			{
				"type": "occ",
				"energy": -0.23206,
				"method": "rhf"
			},
			{
				"type": "unocc",
				"energy": -0.02853,
				"method": "rhf"
			},
			{
				"type": "unocc",
				"energy": -0.01766,
				"method": "rhf"
			},
			{
				"type": "unocc",
				"energy": -0.01197,
				"method": "rhf"
			},
			{
				"type": "unocc",
				"energy": 0.00161,
				"method": "rhf"
			},
			{
				"type": "unocc",
				"energy": 0.02603,
				"method": "rhf"
			}
		],
		"cosmo_sigma_profile": { 
			"-0.025": 0.0,
			"-0.024": 0.0,
			"-0.023": 0.0,
			"-0.022": 0.0,
			"-0.021": 0.0,
			"-0.02": 0.137746938554,
			"-0.019": 1.2324561087,
			"-0.018": 0.940372565829,
			"-0.017": 1.5620123116,
			"-0.016": 0.964528051209,
			"-0.015": 1.33026710039,
			"-0.014": 0.504834213533,
			"-0.013": 1.26921046424,
			"-0.012": 1.68867269279,
			"-0.011": 1.68713942392,
			"-0.01": 1.40102362219,
			"-0.009": 2.43354344633,
			"-0.008": 8.13649370849,
			"-0.007": 18.1639268015,
			"-0.006": 14.7129616925,
			"-0.005": 11.3109692038,
			"-0.004": 13.1525292805,
			"-0.003": 13.5206442358,
			"-0.002": 10.9407548819,
			"-0.001": 11.1535811864,
			"0.0": 13.6229634992,
			"0.001": 14.6922580538,
			"0.002": 20.1152534758,
			"0.003": 22.7212164044,
			"0.004": 21.8985893353,
			"0.005": 10.2442562415,
			"0.006": 3.61619842244,
			"0.007": 4.63072966276,
			"0.008": 4.48537477574,
			"0.009": 4.92009277584,
			"0.01": 6.99140206461,
			"0.011": 7.89183357792,
			"0.012": 5.65558073302,
			"0.013": 2.71846788968,
			"0.014": 0.455345425748,
			"0.015": 0.0,
			"0.016": 0.0,
			"0.017": 0.0,
			"0.018": 0.0,
			"0.019": 0.0,
			"0.02": 0.0,
			"0.021": 0.0,
			"0.022": 0.0,
			"0.023": 0.0,
			"0.024": 0.0,
			"0.025": 0.0
		}
	}
}
