{
	 "smiles": "CN(C(=O)CCl)C1=C2CCCCC2=NN1C", 
	 "Tm": 358.15, 
	 "num_atms": 32, 
	 "gaussian": { 
		 "optdone": 1, 
		 "sigma_profile": "yes", 
		 "theory": "DFT", 
		 "functional": "B3LYP", 
		 "basiset": "6-31G**", 
		 "properties": { 
			 "R2extent": 4222.5687, 
			 "electric_dipole_moment_norm": 2.48989017228, 
			 "electric_quadrupole_moment_norm": 17.9829597239, 
			 "total_energy": -1128.48612877, 
			 "HOMO_LUMO_gap": 0.20741, 
			 "cosmo_polarized_energy": -13.01, 
			 "cosmo_cavitation_energy": 35.39, 
			 "cosmo_dispersion_energy": -24.13, 
			 "cosmo_repulsion_energy": 1.9, 
			 "cosmo_total_nonelectrostatic_energy": 13.17, 
			 "SMD_solvation_energy": 5.3 
		},
		"coords": [
			{
				"x": 1.6605674827,
				"y": -1.1475829065,
				"z": -1.5703966365,
				"element": "C" 
			},
			{
				"x": 0.4782151473,
				"y": -1.3910060626,
				"z": -0.7330374597,
				"element": "N" 
			},
			{
				"x": 0.2003159561,
				"y": -2.690713534,
				"z": -0.3440080485,
				"element": "C" 
			},
			{
				"x": 0.8508972951,
				"y": -3.6493921868,
				"z": -0.7289485703,
				"element": "O" 
			},
			{
				"x": -0.9874542985,
				"y": -2.8927468623,
				"z": 0.5976624416,
				"element": "C" 
			},
			{
				"x": -0.4308268841,
				"y": -2.9228070354,
				"z": 2.3238440453,
				"element": "Cl" 
			},
			{
				"x": -0.2441719625,
				"y": -0.2642854912,
				"z": -0.2853062492,
				"element": "C" 
			},
			{
				"x": -0.0167067134,
				"y": 0.6024594719,
				"z": 0.7728559483,
				"element": "C" 
			},
			{
				"x": 1.0439184444,
				"y": 0.6340466969,
				"z": 1.8366290796,
				"element": "C" 
			},
			{
				"x": 0.6136064484,
				"y": 1.5799248136,
				"z": 2.9770116441,
				"element": "C" 
			},
			{
				"x": 0.0595795701,
				"y": 2.9127483795,
				"z": 2.4409318877,
				"element": "C" 
			},
			{
				"x": -1.2273688211,
				"y": 2.7074660768,
				"z": 1.6163497692,
				"element": "C" 
			},
			{
				"x": -1.042245945,
				"y": 1.5680945894,
				"z": 0.6551257286,
				"element": "C" 
			},
			{
				"x": -1.8375530394,
				"y": 1.3323554589,
				"z": -0.391287965,
				"element": "N" 
			},
			{
				"x": -1.3388338266,
				"y": 0.2177151202,
				"z": -0.9658458685,
				"element": "N" 
			},
			{
				"x": -1.9743531789,
				"y": -0.3219372927,
				"z": -2.1521700961,
				"element": "C" 
			},
			{
				"x": 1.3794332283,
				"y": -0.5824625637,
				"z": -2.4640454155,
				"element": "H" 
			},
			{
				"x": 2.4104545906,
				"y": -0.5760301844,
				"z": -1.0142895929,
				"element": "H" 
			},
			{
				"x": 2.0745696311,
				"y": -2.1135844805,
				"z": -1.8561198052,
				"element": "H" 
			},
			{
				"x": -1.7486098101,
				"y": -2.118122364,
				"z": 0.5278496141,
				"element": "H" 
			},
			{
				"x": -1.4079496466,
				"y": -3.8748212964,
				"z": 0.389222918,
				"element": "H" 
			},
			{
				"x": 1.240551066,
				"y": -0.3706471328,
				"z": 2.2259009954,
				"element": "H" 
			},
			{
				"x": 1.992028247,
				"y": 0.9932038734,
				"z": 1.4094957939,
				"element": "H" 
			},
			{
				"x": 1.4646043003,
				"y": 1.7640265401,
				"z": 3.6419151749,
				"element": "H" 
			},
			{
				"x": -0.1588042606,
				"y": 1.0866700557,
				"z": 3.5818575309,
				"element": "H" 
			},
			{
				"x": -0.1398624662,
				"y": 3.5995610318,
				"z": 3.2707649938,
				"element": "H" 
			},
			{
				"x": 0.8226203128,
				"y": 3.3922047095,
				"z": 1.8126784375,
				"element": "H" 
			},
			{
				"x": -1.5028648572,
				"y": 3.6211958788,
				"z": 1.0784961665,
				"element": "H" 
			},
			{
				"x": -2.0637950605,
				"y": 2.4839373761,
				"z": 2.2933284175,
				"element": "H" 
			},
			{
				"x": -1.3832783634,
				"y": -1.1612346761,
				"z": -2.520741764,
				"element": "H" 
			},
			{
				"x": -2.9879563526,
				"y": -0.6649674836,
				"z": -1.9234142722,
				"element": "H" 
			},
			{
				"x": -2.0318262336,
				"y": 0.4505314807,
				"z": -2.9228088433,
				"element": "H" 
			}
		],
		 "valence_orbital": [ 
			{
				"type": "occ",
				"energy": -0.29173,
				"method": "rhf"
			},
			{
				"type": "occ",
				"energy": -0.27094,
				"method": "rhf"
			},
			{
				"type": "occ",
				"energy": -0.25868,
				"method": "rhf"
			},
			{
				"type": "occ",
				"energy": -0.23987,
				"method": "rhf"
			},
			{
				"type": "occ",
				"energy": -0.23502,
				"method": "rhf"
			},
			{
				"type": "unocc",
				"energy": -0.02761,
				"method": "rhf"
			},
			{
				"type": "unocc",
				"energy": 0.00412,
				"method": "rhf"
			},
			{
				"type": "unocc",
				"energy": 0.05204,
				"method": "rhf"
			},
			{
				"type": "unocc",
				"energy": 0.06088,
				"method": "rhf"
			},
			{
				"type": "unocc",
				"energy": 0.0813,
				"method": "rhf"
			}
		],
		"cosmo_sigma_profile": { 
			"-0.025": 0.0,
			"-0.024": 0.0,
			"-0.023": 0.0,
			"-0.022": 0.0,
			"-0.021": 0.0,
			"-0.02": 0.0,
			"-0.019": 0.0,
			"-0.018": 0.0,
			"-0.017": 0.0,
			"-0.016": 0.0,
			"-0.015": 0.0,
			"-0.014": 0.0,
			"-0.013": 0.0,
			"-0.012": 0.0,
			"-0.011": 0.0,
			"-0.01": 0.0,
			"-0.009": 0.541415251058,
			"-0.008": 2.68334412532,
			"-0.007": 6.23044379194,
			"-0.006": 13.3583937522,
			"-0.005": 18.2224457703,
			"-0.004": 18.1541122864,
			"-0.003": 31.3757401593,
			"-0.002": 34.6219713242,
			"-0.001": 32.8135704037,
			"0.0": 26.8667382077,
			"0.001": 16.2255540465,
			"0.002": 11.6214103713,
			"0.003": 10.2542719164,
			"0.004": 11.4490771998,
			"0.005": 10.7890295648,
			"0.006": 7.39845864889,
			"0.007": 3.52030140711,
			"0.008": 3.11457065521,
			"0.009": 3.1967601185,
			"0.01": 1.9644463898,
			"0.011": 3.37998078277,
			"0.012": 5.86887881771,
			"0.013": 3.39435044843,
			"0.014": 1.17105178229,
			"0.015": 0.920517655713,
			"0.016": 0.82874268668,
			"0.017": 0.13496748601,
			"0.018": 0.0,
			"0.019": 0.0,
			"0.02": 0.0,
			"0.021": 0.0,
			"0.022": 0.0,
			"0.023": 0.0,
			"0.024": 0.0,
			"0.025": 0.0
		}
	}
}
