{
	 "smiles": "CC(C)(C)[Si](C)(C)N1C(CC1=O)C(O)=O", 
	 "Tm": 412.15, 
	 "num_atms": 34, 
	 "gaussian": { 
		 "optdone": 1, 
		 "sigma_profile": "yes", 
		 "theory": "DFT", 
		 "functional": "B3LYP", 
		 "basiset": "6-31G**", 
		 "properties": { 
			 "R2extent": 4218.5907, 
			 "electric_dipole_moment_norm": 4.74320750653, 
			 "electric_quadrupole_moment_norm": 19.9879887237, 
			 "total_energy": -962.494758747, 
			 "HOMO_LUMO_gap": 0.23541, 
			 "cosmo_polarized_energy": -18.25, 
			 "cosmo_cavitation_energy": 36.13, 
			 "cosmo_dispersion_energy": -22.2, 
			 "cosmo_repulsion_energy": 1.79, 
			 "cosmo_total_nonelectrostatic_energy": 15.71, 
			 "SMD_solvation_energy": 8.66 
		},
		"coords": [
			{
				"x": 0.4039335998,
				"y": 1.4992371185,
				"z": -2.0445051776,
				"element": "C" 
			},
			{
				"x": -0.9107763365,
				"y": 0.9209335991,
				"z": -1.475688501,
				"element": "C" 
			},
			{
				"x": -1.3841500075,
				"y": -0.2179540182,
				"z": -2.4079419939,
				"element": "C" 
			},
			{
				"x": -1.9793702012,
				"y": 2.0345038105,
				"z": -1.4565714733,
				"element": "C" 
			},
			{
				"x": -0.6690178728,
				"y": 0.211735553,
				"z": 0.2974676079,
				"element": "Si" 
			},
			{
				"x": -2.2747821526,
				"y": -0.4618479153,
				"z": 1.0047930013,
				"element": "C" 
			},
			{
				"x": 0.6681294965,
				"y": -1.1204809159,
				"z": 0.3197275644,
				"element": "C" 
			},
			{
				"x": -0.1598025816,
				"y": 1.5404525486,
				"z": 1.3949861733,
				"element": "N" 
			},
			{
				"x": 1.028625523,
				"y": 2.4401981061,
				"z": 1.4865691341,
				"element": "C" 
			},
			{
				"x": 0.4555712297,
				"y": 3.0198306328,
				"z": 2.800311121,
				"element": "C" 
			},
			{
				"x": -0.7275571163,
				"y": 2.0710448121,
				"z": 2.5594235892,
				"element": "C" 
			},
			{
				"x": -1.7732507836,
				"y": 1.8416363125,
				"z": 3.1177259284,
				"element": "O" 
			},
			{
				"x": 2.3581425603,
				"y": 1.6934349503,
				"z": 1.6270719851,
				"element": "C" 
			},
			{
				"x": 3.0338089263,
				"y": 1.4795009625,
				"z": 0.4658530522,
				"element": "O" 
			},
			{
				"x": 2.7977185131,
				"y": 1.2858150701,
				"z": 2.6715002399,
				"element": "O" 
			},
			{
				"x": 0.7363521536,
				"y": 2.3818284451,
				"z": -1.4822671585,
				"element": "H" 
			},
			{
				"x": 1.2135736707,
				"y": 0.7597803499,
				"z": -2.0561553139,
				"element": "H" 
			},
			{
				"x": 0.2602266317,
				"y": 1.8328248959,
				"z": -3.0810146291,
				"element": "H" 
			},
			{
				"x": -2.3285321782,
				"y": -0.6585030905,
				"z": -2.0704864452,
				"element": "H" 
			},
			{
				"x": -1.5507144616,
				"y": 0.1664922564,
				"z": -3.4232774316,
				"element": "H" 
			},
			{
				"x": -0.6457795349,
				"y": -1.0240242992,
				"z": -2.4836791619,
				"element": "H" 
			},
			{
				"x": -2.1217593396,
				"y": 2.4479004999,
				"z": -2.4642876202,
				"element": "H" 
			},
			{
				"x": -2.9512067457,
				"y": 1.6608004833,
				"z": -1.1176973097,
				"element": "H" 
			},
			{
				"x": -1.6959269398,
				"y": 2.8619422451,
				"z": -0.7967247796,
				"element": "H" 
			},
			{
				"x": -2.6393763611,
				"y": -1.297144724,
				"z": 0.3967444548,
				"element": "H" 
			},
			{
				"x": -3.0556754687,
				"y": 0.3002066277,
				"z": 1.058450907,
				"element": "H" 
			},
			{
				"x": -2.1158120325,
				"y": -0.8259415249,
				"z": 2.0236329101,
				"element": "H" 
			},
			{
				"x": 0.3908697095,
				"y": -1.9598468718,
				"z": -0.3274949259,
				"element": "H" 
			},
			{
				"x": 1.6486906717,
				"y": -0.7586289468,
				"z": -0.0023820949,
				"element": "H" 
			},
			{
				"x": 0.7845847136,
				"y": -1.5110801783,
				"z": 1.336176345,
				"element": "H" 
			},
			{
				"x": 1.0755083801,
				"y": 3.1622417217,
				"z": 0.6612481151,
				"element": "H" 
			},
			{
				"x": 1.0488569237,
				"y": 2.7700105525,
				"z": 3.6817308305,
				"element": "H" 
			},
			{
				"x": 0.2096160613,
				"y": 4.0837232238,
				"z": 2.7887739447,
				"element": "H" 
			},
			{
				"x": 2.5515813493,
				"y": 1.8581777073,
				"z": -0.2839128876,
				"element": "H" 
			}
		],
		 "valence_orbital": [ 
			{
				"type": "occ",
				"energy": -0.31319,
				"method": "rhf"
			},
			{
				"type": "occ",
				"energy": -0.30076,
				"method": "rhf"
			},
			{
				"type": "occ",
				"energy": -0.2842,
				"method": "rhf"
			},
			{
				"type": "occ",
				"energy": -0.25663,
				"method": "rhf"
			},
			{
				"type": "occ",
				"energy": -0.25211,
				"method": "rhf"
			},
			{
				"type": "unocc",
				"energy": -0.0167,
				"method": "rhf"
			},
			{
				"type": "unocc",
				"energy": 0.01607,
				"method": "rhf"
			},
			{
				"type": "unocc",
				"energy": 0.0278,
				"method": "rhf"
			},
			{
				"type": "unocc",
				"energy": 0.06101,
				"method": "rhf"
			},
			{
				"type": "unocc",
				"energy": 0.07324,
				"method": "rhf"
			}
		],
		"cosmo_sigma_profile": { 
			"-0.025": 0.0,
			"-0.024": 0.0,
			"-0.023": 0.0,
			"-0.022": 0.0,
			"-0.021": 0.0,
			"-0.02": 0.0,
			"-0.019": 0.0,
			"-0.018": 0.0109048405237,
			"-0.017": 0.749997377759,
			"-0.016": 0.775051805979,
			"-0.015": 0.779054845311,
			"-0.014": 1.09060015444,
			"-0.013": 1.16142721513,
			"-0.012": 1.21415595444,
			"-0.011": 1.59522152501,
			"-0.01": 1.77683867559,
			"-0.009": 1.77256746511,
			"-0.008": 2.63487593311,
			"-0.007": 6.04924984944,
			"-0.006": 8.12049035976,
			"-0.005": 7.94456454338,
			"-0.004": 14.1258532953,
			"-0.003": 28.3225921022,
			"-0.002": 36.6932172358,
			"-0.001": 31.1352595691,
			"0.0": 29.9010701709,
			"0.001": 30.3874742375,
			"0.002": 14.4024773327,
			"0.003": 4.78513885524,
			"0.004": 4.60084796049,
			"0.005": 3.72850198928,
			"0.006": 4.03691870022,
			"0.007": 4.31619039968,
			"0.008": 4.136971867,
			"0.009": 5.35567264603,
			"0.01": 7.21714586597,
			"0.011": 7.3402753492,
			"0.012": 6.20662696908,
			"0.013": 3.99816946419,
			"0.014": 0.578717282207,
			"0.015": 0.0,
			"0.016": 0.0,
			"0.017": 0.0,
			"0.018": 0.0,
			"0.019": 0.0,
			"0.02": 0.0,
			"0.021": 0.0,
			"0.022": 0.0,
			"0.023": 0.0,
			"0.024": 0.0,
			"0.025": 0.0
		}
	}
}
