{
	 "smiles": "NC(=S)NC1=CC(OC2=CC=CC=C2)=CC=C1", 
	 "Tm": 393.15, 
	 "num_atms": 29, 
	 "gaussian": { 
		 "optdone": 1, 
		 "sigma_profile": "yes", 
		 "theory": "DFT", 
		 "functional": "B3LYP", 
		 "basiset": "6-31G**", 
		 "properties": { 
			 "R2extent": 7023.9282, 
			 "electric_dipole_moment_norm": 6.54520712048, 
			 "electric_quadrupole_moment_norm": 30.757276692, 
			 "total_energy": -1085.53891075, 
			 "HOMO_LUMO_gap": 0.17255, 
			 "cosmo_polarized_energy": -18.59, 
			 "cosmo_cavitation_energy": 35.37, 
			 "cosmo_dispersion_energy": -26.03, 
			 "cosmo_repulsion_energy": 2.0, 
			 "cosmo_total_nonelectrostatic_energy": 11.34, 
			 "SMD_solvation_energy": 5.28 
		},
		"coords": [
			{
				"x": 2.6364877013,
				"y": 0.1879798228,
				"z": -3.129911969,
				"element": "N" 
			},
			{
				"x": 2.0149992159,
				"y": -0.584429421,
				"z": -4.0588469527,
				"element": "C" 
			},
			{
				"x": 2.5066722282,
				"y": -0.6276716089,
				"z": -5.6658948453,
				"element": "S" 
			},
			{
				"x": 0.9503615861,
				"y": -1.338916673,
				"z": -3.6381199965,
				"element": "N" 
			},
			{
				"x": 0.3291657312,
				"y": -1.4351534235,
				"z": -2.3721153493,
				"element": "C" 
			},
			{
				"x": 0.1444234201,
				"y": -0.3208642787,
				"z": -1.5438841972,
				"element": "C" 
			},
			{
				"x": -0.5019473496,
				"y": -0.4725826201,
				"z": -0.3124280025,
				"element": "C" 
			},
			{
				"x": -0.6759211912,
				"y": 0.689705,
				"z": 0.4019237549,
				"element": "O" 
			},
			{
				"x": -0.9373117091,
				"y": 0.6565372068,
				"z": 1.7633161186,
				"element": "C" 
			},
			{
				"x": -0.0775579917,
				"y": 0.0135508034,
				"z": 2.6578815335,
				"element": "C" 
			},
			{
				"x": -0.3427019504,
				"y": 0.0846254566,
				"z": 4.0257534179,
				"element": "C" 
			},
			{
				"x": -1.4473050662,
				"y": 0.7980507596,
				"z": 4.4977417038,
				"element": "C" 
			},
			{
				"x": -2.2920237288,
				"y": 1.4436776133,
				"z": 3.5927503189,
				"element": "C" 
			},
			{
				"x": -2.0429785107,
				"y": 1.3726705391,
				"z": 2.2212747708,
				"element": "C" 
			},
			{
				"x": -0.9927560324,
				"y": -1.7158648081,
				"z": 0.0954545228,
				"element": "C" 
			},
			{
				"x": -0.8192776905,
				"y": -2.8122388543,
				"z": -0.7514335822,
				"element": "C" 
			},
			{
				"x": -0.1600469031,
				"y": -2.6892306304,
				"z": -1.9704679653,
				"element": "C" 
			},
			{
				"x": 2.5181618081,
				"y": 0.0055320849,
				"z": -2.1429436476,
				"element": "H" 
			},
			{
				"x": 3.4935330131,
				"y": 0.6237634033,
				"z": -3.4323796554,
				"element": "H" 
			},
			{
				"x": 0.6199382552,
				"y": -1.9682997388,
				"z": -4.356595266,
				"element": "H" 
			},
			{
				"x": 0.4462419002,
				"y": 0.6726532229,
				"z": -1.85224982,
				"element": "H" 
			},
			{
				"x": 0.7847315994,
				"y": -0.5285465467,
				"z": 2.2838230049,
				"element": "H" 
			},
			{
				"x": 0.3232759713,
				"y": -0.4131400795,
				"z": 4.7246122211,
				"element": "H" 
			},
			{
				"x": -1.645434718,
				"y": 0.852860917,
				"z": 5.5637335736,
				"element": "H" 
			},
			{
				"x": -3.1509924153,
				"y": 2.0028213577,
				"z": 3.9518840199,
				"element": "H" 
			},
			{
				"x": -2.6851841201,
				"y": 1.8673252956,
				"z": 1.5001989576,
				"element": "H" 
			},
			{
				"x": -1.5065700258,
				"y": -1.8213251222,
				"z": 1.0430981745,
				"element": "H" 
			},
			{
				"x": -1.2018505007,
				"y": -3.7821541598,
				"z": -0.4476816727,
				"element": "H" 
			},
			{
				"x": -0.0125325263,
				"y": -3.554235518,
				"z": -2.6097931711,
				"element": "H" 
			}
		],
		 "valence_orbital": [ 
			{
				"type": "occ",
				"energy": -0.26159,
				"method": "rhf"
			},
			{
				"type": "occ",
				"energy": -0.25169,
				"method": "rhf"
			},
			{
				"type": "occ",
				"energy": -0.23258,
				"method": "rhf"
			},
			{
				"type": "occ",
				"energy": -0.20926,
				"method": "rhf"
			},
			{
				"type": "occ",
				"energy": -0.20493,
				"method": "rhf"
			},
			{
				"type": "unocc",
				"energy": -0.03238,
				"method": "rhf"
			},
			{
				"type": "unocc",
				"energy": -0.01997,
				"method": "rhf"
			},
			{
				"type": "unocc",
				"energy": -0.01393,
				"method": "rhf"
			},
			{
				"type": "unocc",
				"energy": -0.00458,
				"method": "rhf"
			},
			{
				"type": "unocc",
				"energy": 0.02035,
				"method": "rhf"
			}
		],
		"cosmo_sigma_profile": { 
			"-0.025": 0.0,
			"-0.024": 0.0,
			"-0.023": 0.0,
			"-0.022": 0.0,
			"-0.021": 0.0,
			"-0.02": 0.0,
			"-0.019": 0.0,
			"-0.018": 0.0,
			"-0.017": 0.0,
			"-0.016": 0.0,
			"-0.015": 0.653701359289,
			"-0.014": 2.20979132359,
			"-0.013": 3.48600693381,
			"-0.012": 2.87991455946,
			"-0.011": 2.96113096092,
			"-0.01": 3.70813954397,
			"-0.009": 3.17940025725,
			"-0.008": 2.77665264995,
			"-0.007": 6.25275233598,
			"-0.006": 16.52117928,
			"-0.005": 18.6789913724,
			"-0.004": 20.3771766145,
			"-0.003": 17.5534501073,
			"-0.002": 15.0454481762,
			"-0.001": 16.565542305,
			"0.0": 16.8672256969,
			"0.001": 16.9907048834,
			"0.002": 19.6949001439,
			"0.003": 23.039420871,
			"0.004": 22.1302808558,
			"0.005": 15.068754993,
			"0.006": 5.82852344402,
			"0.007": 3.9611084593,
			"0.008": 5.58517349875,
			"0.009": 4.12027691283,
			"0.01": 5.44812720579,
			"0.011": 8.08587004981,
			"0.012": 5.61525911816,
			"0.013": 0.688423464701,
			"0.014": 0.0,
			"0.015": 0.0,
			"0.016": 0.0,
			"0.017": 0.0,
			"0.018": 0.0,
			"0.019": 0.0,
			"0.02": 0.0,
			"0.021": 0.0,
			"0.022": 0.0,
			"0.023": 0.0,
			"0.024": 0.0,
			"0.025": 0.0
		}
	}
}
