{
	 "smiles": "NC1=CC2=C(OCCO2)C=C1", 
	 "Tm": 301.15, 
	 "num_atms": 20, 
	 "gaussian": { 
		 "optdone": 1, 
		 "sigma_profile": "yes", 
		 "theory": "DFT", 
		 "functional": "B3LYP", 
		 "basiset": "6-31G**", 
		 "properties": { 
			 "R2extent": 2046.6763, 
			 "electric_dipole_moment_norm": 1.3705458657, 
			 "electric_quadrupole_moment_norm": 13.6445037656, 
			 "total_energy": -515.453848319, 
			 "HOMO_LUMO_gap": 0.19254, 
			 "cosmo_polarized_energy": -11.12, 
			 "cosmo_cavitation_energy": 22.97, 
			 "cosmo_dispersion_energy": -17.84, 
			 "cosmo_repulsion_energy": 1.43, 
			 "cosmo_total_nonelectrostatic_energy": 6.56, 
			 "SMD_solvation_energy": 4.11 
		},
		"coords": [
			{
				"x": -0.5693636699,
				"y": 1.6506316003,
				"z": -2.9149721752,
				"element": "N" 
			},
			{
				"x": -0.6033054907,
				"y": 0.5301941374,
				"z": -2.0701803765,
				"element": "C" 
			},
			{
				"x": 0.2239030594,
				"y": 0.4656303569,
				"z": -0.9410052595,
				"element": "C" 
			},
			{
				"x": 0.1481677385,
				"y": -0.6172297955,
				"z": -0.0657544718,
				"element": "C" 
			},
			{
				"x": -0.7521354356,
				"y": -1.6662238288,
				"z": -0.3097797585,
				"element": "C" 
			},
			{
				"x": -0.8446986895,
				"y": -2.7620495525,
				"z": 0.5268590259,
				"element": "O" 
			},
			{
				"x": 0.2856182733,
				"y": -2.9100413051,
				"z": 1.3795969198,
				"element": "C" 
			},
			{
				"x": 0.6335635988,
				"y": -1.5762157066,
				"z": 2.0231928922,
				"element": "C" 
			},
			{
				"x": 0.9876555587,
				"y": -0.6210318043,
				"z": 1.0233804588,
				"element": "O" 
			},
			{
				"x": -1.5794337022,
				"y": -1.599013085,
				"z": -1.4289823199,
				"element": "C" 
			},
			{
				"x": -1.5158375656,
				"y": -0.5143593787,
				"z": -2.2994906644,
				"element": "C" 
			},
			{
				"x": 0.3164414304,
				"y": 2.1389062962,
				"z": -2.9214350989,
				"element": "H" 
			},
			{
				"x": -0.8851776502,
				"y": 1.4655084038,
				"z": -3.8579101054,
				"element": "H" 
			},
			{
				"x": 0.9306406803,
				"y": 1.2589577806,
				"z": -0.7158548601,
				"element": "H" 
			},
			{
				"x": 1.1481342068,
				"y": -3.2803840698,
				"z": 0.806545726,
				"element": "H" 
			},
			{
				"x": 0.0147616855,
				"y": -3.6536772982,
				"z": 2.1340185359,
				"element": "H" 
			},
			{
				"x": -0.2243565009,
				"y": -1.209732338,
				"z": 2.603753143,
				"element": "H" 
			},
			{
				"x": 1.4988475244,
				"y": -1.6666190854,
				"z": 2.6853830383,
				"element": "H" 
			},
			{
				"x": -2.2710947803,
				"y": -2.4165037026,
				"z": -1.6068463356,
				"element": "H" 
			},
			{
				"x": -2.1733302711,
				"y": -0.4765476245,
				"z": -3.1637183142,
				"element": "H" 
			}
		],
		 "valence_orbital": [ 
			{
				"type": "occ",
				"energy": -0.32472,
				"method": "rhf"
			},
			{
				"type": "occ",
				"energy": -0.29454,
				"method": "rhf"
			},
			{
				"type": "occ",
				"energy": -0.26675,
				"method": "rhf"
			},
			{
				"type": "occ",
				"energy": -0.21948,
				"method": "rhf"
			},
			{
				"type": "occ",
				"energy": -0.18085,
				"method": "rhf"
			},
			{
				"type": "unocc",
				"energy": 0.01169,
				"method": "rhf"
			},
			{
				"type": "unocc",
				"energy": 0.03516,
				"method": "rhf"
			},
			{
				"type": "unocc",
				"energy": 0.08404,
				"method": "rhf"
			},
			{
				"type": "unocc",
				"energy": 0.09679,
				"method": "rhf"
			},
			{
				"type": "unocc",
				"energy": 0.11075,
				"method": "rhf"
			}
		],
		"cosmo_sigma_profile": { 
			"-0.025": 0.0,
			"-0.024": 0.0,
			"-0.023": 0.0,
			"-0.022": 0.0,
			"-0.021": 0.0,
			"-0.02": 0.0,
			"-0.019": 0.0,
			"-0.018": 0.0,
			"-0.017": 0.0,
			"-0.016": 0.0,
			"-0.015": 0.0,
			"-0.014": 0.0,
			"-0.013": 0.0,
			"-0.012": 1.543715141,
			"-0.011": 2.72946132251,
			"-0.01": 2.91291162589,
			"-0.009": 2.81108305494,
			"-0.008": 3.27006358064,
			"-0.007": 6.65348876157,
			"-0.006": 13.3910729193,
			"-0.005": 17.6238994102,
			"-0.004": 13.512345583,
			"-0.003": 12.3713233184,
			"-0.002": 8.3761148829,
			"-0.001": 6.60769095242,
			"0.0": 7.36225415429,
			"0.001": 6.13550394907,
			"0.002": 7.97386116419,
			"0.003": 8.32862615669,
			"0.004": 10.2023871699,
			"0.005": 13.1326141271,
			"0.006": 12.4626039198,
			"0.007": 6.79914507033,
			"0.008": 3.37444294645,
			"0.009": 3.38329036719,
			"0.01": 4.10096495161,
			"0.011": 3.59400810359,
			"0.012": 0.999275962267,
			"0.013": 0.515118809576,
			"0.014": 0.207702927754,
			"0.015": 1.17192873579,
			"0.016": 0.0977906626957,
			"0.017": 0.0,
			"0.018": 0.0,
			"0.019": 0.0,
			"0.02": 0.0,
			"0.021": 0.0,
			"0.022": 0.0,
			"0.023": 0.0,
			"0.024": 0.0,
			"0.025": 0.0
		}
	}
}
