{
	 "smiles": "BrC1=CC=C(C=C1)C1=C(C(=NO1)C(=O)C1=CC=CS1)S(=O)(=O)C1=CC=CC=C1", 
	 "Tm": 403.15, 
	 "num_atms": 40, 
	 "gaussian": { 
		 "optdone": 1, 
		 "sigma_profile": "yes", 
		 "theory": "DFT", 
		 "functional": "B3LYP", 
		 "basiset": "6-31G**", 
		 "properties": { 
			 "R2extent": 17771.1567, 
			 "electric_dipole_moment_norm": 6.84401187097, 
			 "electric_quadrupole_moment_norm": 30.8407995049, 
			 "total_energy": -4492.63419737, 
			 "HOMO_LUMO_gap": 0.175, 
			 "cosmo_polarized_energy": -21.28, 
			 "cosmo_cavitation_energy": 51.43, 
			 "cosmo_dispersion_energy": -34.83, 
			 "cosmo_repulsion_energy": 2.56, 
			 "cosmo_total_nonelectrostatic_energy": 19.15, 
			 "SMD_solvation_energy": 7.08 
		},
		"coords": [
			{
				"x": 4.7158428896,
				"y": -4.2864421121,
				"z": -2.7403183015,
				"element": "Br" 
			},
			{
				"x": 3.853487641,
				"y": -3.0310745961,
				"z": -1.593612791,
				"element": "C" 
			},
			{
				"x": 3.5792823119,
				"y": -1.7470250971,
				"z": -2.0670246037,
				"element": "C" 
			},
			{
				"x": 2.9492708938,
				"y": -0.8344541756,
				"z": -1.2279400795,
				"element": "C" 
			},
			{
				"x": 2.5826880059,
				"y": -1.1994701382,
				"z": 0.0802977973,
				"element": "C" 
			},
			{
				"x": 2.8781098943,
				"y": -2.4934133428,
				"z": 0.5416114404,
				"element": "C" 
			},
			{
				"x": 3.5120908577,
				"y": -3.4088595647,
				"z": -0.2955686913,
				"element": "C" 
			},
			{
				"x": 1.94739348,
				"y": -0.2051728592,
				"z": 0.94665988,
				"element": "C" 
			},
			{
				"x": 1.0346754238,
				"y": -0.2209271947,
				"z": 1.9825949343,
				"element": "C" 
			},
			{
				"x": 0.8895924915,
				"y": 1.1562864212,
				"z": 2.3465772221,
				"element": "C" 
			},
			{
				"x": 1.6256937703,
				"y": 1.93352205,
				"z": 1.5893687061,
				"element": "N" 
			},
			{
				"x": 2.2937895041,
				"y": 1.0778648219,
				"z": 0.7082605665,
				"element": "O" 
			},
			{
				"x": 0.1566551543,
				"y": 1.7785837627,
				"z": 3.5232231469,
				"element": "C" 
			},
			{
				"x": 0.5710833919,
				"y": 1.5667033029,
				"z": 4.6486604867,
				"element": "O" 
			},
			{
				"x": -0.992854695,
				"y": 2.6444348955,
				"z": 3.2495364831,
				"element": "C" 
			},
			{
				"x": -1.7734841953,
				"y": 3.2536013605,
				"z": 4.210937466,
				"element": "C" 
			},
			{
				"x": -2.8351295589,
				"y": 4.0151542964,
				"z": 3.6640941419,
				"element": "C" 
			},
			{
				"x": -2.8558484841,
				"y": 3.9774847502,
				"z": 2.2900687828,
				"element": "C" 
			},
			{
				"x": -1.5758276295,
				"y": 3.0203410351,
				"z": 1.6423438884,
				"element": "S" 
			},
			{
				"x": 0.0438771558,
				"y": -1.5563015791,
				"z": 2.6365458572,
				"element": "S" 
			},
			{
				"x": 0.9271470509,
				"y": -2.6665390921,
				"z": 3.0260380153,
				"element": "O" 
			},
			{
				"x": -0.8700780539,
				"y": -0.9324607758,
				"z": 3.600353725,
				"element": "O" 
			},
			{
				"x": -0.9368894806,
				"y": -2.0992245262,
				"z": 1.2281276172,
				"element": "C" 
			},
			{
				"x": -2.0208959398,
				"y": -1.3151695405,
				"z": 0.8218443559,
				"element": "C" 
			},
			{
				"x": -2.7957650112,
				"y": -1.7441328271,
				"z": -0.2539748353,
				"element": "C" 
			},
			{
				"x": -2.4920044602,
				"y": -2.9449603718,
				"z": -0.9027907407,
				"element": "C" 
			},
			{
				"x": -1.4161063697,
				"y": -3.7250107565,
				"z": -0.4759963855,
				"element": "C" 
			},
			{
				"x": -0.6285681564,
				"y": -3.3050218301,
				"z": 0.5977252409,
				"element": "C" 
			},
			{
				"x": 3.8544772108,
				"y": -1.4669104588,
				"z": -3.0771227834,
				"element": "H" 
			},
			{
				"x": 2.7344751463,
				"y": 0.1661296321,
				"z": -1.586751393,
				"element": "H" 
			},
			{
				"x": 2.6266216117,
				"y": -2.7766436815,
				"z": 1.557503265,
				"element": "H" 
			},
			{
				"x": 3.7479925732,
				"y": -4.4042513198,
				"z": 0.0626945137,
				"element": "H" 
			},
			{
				"x": -1.5685502702,
				"y": 3.1324732096,
				"z": 5.2675919711,
				"element": "H" 
			},
			{
				"x": -3.5551920656,
				"y": 4.568216425,
				"z": 4.2557602219,
				"element": "H" 
			},
			{
				"x": -3.5482415436,
				"y": 4.4725335099,
				"z": 1.6223772676,
				"element": "H" 
			},
			{
				"x": -2.2584802098,
				"y": -0.396915939,
				"z": 1.3487172447,
				"element": "H" 
			},
			{
				"x": -3.6412714629,
				"y": -1.1464889204,
				"z": -0.5805176056,
				"element": "H" 
			},
			{
				"x": -3.1014850016,
				"y": -3.2760163011,
				"z": -1.7384754128,
				"element": "H" 
			},
			{
				"x": -1.190234366,
				"y": -4.6630030484,
				"z": -0.9737845232,
				"element": "H" 
			},
			{
				"x": 0.2001604957,
				"y": -3.9036394246,
				"z": 0.9566639084,
				"element": "H" 
			}
		],
		 "valence_orbital": [ 
			{
				"type": "occ",
				"energy": -0.27657,
				"method": "rhf"
			},
			{
				"type": "occ",
				"energy": -0.27078,
				"method": "rhf"
			},
			{
				"type": "occ",
				"energy": -0.26746,
				"method": "rhf"
			},
			{
				"type": "occ",
				"energy": -0.25398,
				"method": "rhf"
			},
			{
				"type": "occ",
				"energy": -0.2509,
				"method": "rhf"
			},
			{
				"type": "unocc",
				"energy": -0.0759,
				"method": "rhf"
			},
			{
				"type": "unocc",
				"energy": -0.07492,
				"method": "rhf"
			},
			{
				"type": "unocc",
				"energy": -0.0483,
				"method": "rhf"
			},
			{
				"type": "unocc",
				"energy": -0.0345,
				"method": "rhf"
			},
			{
				"type": "unocc",
				"energy": -0.02532,
				"method": "rhf"
			}
		],
		"cosmo_sigma_profile": { 
			"-0.025": 0.0,
			"-0.024": 0.0,
			"-0.023": 0.0,
			"-0.022": 0.0,
			"-0.021": 0.0,
			"-0.02": 0.0,
			"-0.019": 0.0,
			"-0.018": 0.0,
			"-0.017": 0.0,
			"-0.016": 0.0,
			"-0.015": 0.0,
			"-0.014": 0.0,
			"-0.013": 0.0,
			"-0.012": 0.0,
			"-0.011": 0.0,
			"-0.01": 1.31423028909,
			"-0.009": 2.55985068267,
			"-0.008": 8.72559613303,
			"-0.007": 18.7687327949,
			"-0.006": 22.9621211028,
			"-0.005": 27.1153406212,
			"-0.004": 25.8778501754,
			"-0.003": 26.1665382479,
			"-0.002": 26.0030934442,
			"-0.001": 29.0777564355,
			"0.0": 36.5897838449,
			"0.001": 50.8724397867,
			"0.002": 40.853930224,
			"0.003": 28.385039485,
			"0.004": 18.8754776841,
			"0.005": 8.81139251367,
			"0.006": 5.07229289575,
			"0.007": 6.57019646499,
			"0.008": 6.20080378186,
			"0.009": 7.4476498643,
			"0.01": 11.8606389097,
			"0.011": 10.5038868523,
			"0.012": 0.827723152913,
			"0.013": 0.0,
			"0.014": 0.0,
			"0.015": 0.0,
			"0.016": 0.0,
			"0.017": 0.0,
			"0.018": 0.0,
			"0.019": 0.0,
			"0.02": 0.0,
			"0.021": 0.0,
			"0.022": 0.0,
			"0.023": 0.0,
			"0.024": 0.0,
			"0.025": 0.0
		}
	}
}
