{
	 "smiles": "CCCCCCC(=O)OCCCC", 
	 "Tm": 205.65, 
	 "num_atms": 35, 
	 "gaussian": { 
		 "optdone": 1, 
		 "sigma_profile": "yes", 
		 "theory": "DFT", 
		 "functional": "B3LYP", 
		 "basiset": "6-31G**", 
		 "properties": { 
			 "R2extent": 4996.652, 
			 "electric_dipole_moment_norm": 1.54899843125, 
			 "electric_quadrupole_moment_norm": 6.93068665285, 
			 "total_energy": -582.920533765, 
			 "HOMO_LUMO_gap": 0.28196, 
			 "cosmo_polarized_energy": -6.14, 
			 "cosmo_cavitation_energy": 36.12, 
			 "cosmo_dispersion_energy": -25.11, 
			 "cosmo_repulsion_energy": 2.07, 
			 "cosmo_total_nonelectrostatic_energy": 13.09, 
			 "SMD_solvation_energy": 6.37 
		},
		"coords": [
			{
				"x": -1.8926039146,
				"y": -4.2380331329,
				"z": -2.7143328652,
				"element": "C" 
			},
			{
				"x": -0.5857296837,
				"y": -3.6937385863,
				"z": -2.1278534908,
				"element": "C" 
			},
			{
				"x": -0.7943334597,
				"y": -2.9136340758,
				"z": -0.8221343543,
				"element": "C" 
			},
			{
				"x": 0.4987607608,
				"y": -2.4241321614,
				"z": -0.1468443043,
				"element": "C" 
			},
			{
				"x": 1.333149385,
				"y": -1.4032985908,
				"z": -0.941934459,
				"element": "C" 
			},
			{
				"x": 0.6348587037,
				"y": -0.0627373397,
				"z": -1.2017451887,
				"element": "C" 
			},
			{
				"x": 0.4279878324,
				"y": 0.7627519037,
				"z": 0.0553516207,
				"element": "C" 
			},
			{
				"x": 1.0100195946,
				"y": 0.5985044695,
				"z": 1.1076363794,
				"element": "O" 
			},
			{
				"x": -0.4864529843,
				"y": 1.7387033258,
				"z": -0.1557125127,
				"element": "O" 
			},
			{
				"x": -0.7447434962,
				"y": 2.6395224908,
				"z": 0.9494622864,
				"element": "C" 
			},
			{
				"x": 0.2372422873,
				"y": 3.8088373629,
				"z": 0.9676877913,
				"element": "C" 
			},
			{
				"x": 0.2527031431,
				"y": 4.6642123591,
				"z": -0.3095675368,
				"element": "C" 
			},
			{
				"x": -1.0492913779,
				"y": 5.428348578,
				"z": -0.5768659446,
				"element": "C" 
			},
			{
				"x": -1.716872786,
				"y": -4.791070932,
				"z": -3.6429554319,
				"element": "H" 
			},
			{
				"x": -2.5945641335,
				"y": -3.4265886124,
				"z": -2.9390257116,
				"element": "H" 
			},
			{
				"x": -2.3895534625,
				"y": -4.9167445998,
				"z": -2.011646199,
				"element": "H" 
			},
			{
				"x": 0.107535273,
				"y": -4.5258681822,
				"z": -1.9421485224,
				"element": "H" 
			},
			{
				"x": -0.0966046235,
				"y": -3.0538463808,
				"z": -2.8735551271,
				"element": "H" 
			},
			{
				"x": -1.3295627295,
				"y": -3.5575984725,
				"z": -0.1109964541,
				"element": "H" 
			},
			{
				"x": -1.4680023287,
				"y": -2.0661014859,
				"z": -1.0122061423,
				"element": "H" 
			},
			{
				"x": 1.1351335322,
				"y": -3.2943178297,
				"z": 0.0632937625,
				"element": "H" 
			},
			{
				"x": 0.2542924848,
				"y": -1.9872857831,
				"z": 0.8282140667,
				"element": "H" 
			},
			{
				"x": 2.2571466391,
				"y": -1.2051112334,
				"z": -0.388783976,
				"element": "H" 
			},
			{
				"x": 1.6306031098,
				"y": -1.8298107752,
				"z": -1.9069103712,
				"element": "H" 
			},
			{
				"x": -0.3317110914,
				"y": -0.1830040825,
				"z": -1.7011498093,
				"element": "H" 
			},
			{
				"x": 1.241183125,
				"y": 0.5525264952,
				"z": -1.8803774594,
				"element": "H" 
			},
			{
				"x": -0.6862056616,
				"y": 2.0760707336,
				"z": 1.883541861,
				"element": "H" 
			},
			{
				"x": -1.7731605756,
				"y": 2.9735846513,
				"z": 0.7926447735,
				"element": "H" 
			},
			{
				"x": -0.0187861765,
				"y": 4.4372983606,
				"z": 1.8322922391,
				"element": "H" 
			},
			{
				"x": 1.2385962306,
				"y": 3.4085796774,
				"z": 1.1611011798,
				"element": "H" 
			},
			{
				"x": 0.4829761645,
				"y": 4.0208518687,
				"z": -1.1672220031,
				"element": "H" 
			},
			{
				"x": 1.0800439473,
				"y": 5.3804083842,
				"z": -0.2330000388,
				"element": "H" 
			},
			{
				"x": -0.9582631393,
				"y": 6.058169103,
				"z": -1.4677134431,
				"element": "H" 
			},
			{
				"x": -1.3069874076,
				"y": 6.0810199744,
				"z": 0.2656187802,
				"element": "H" 
			},
			{
				"x": -1.8943031811,
				"y": 4.7520325181,
				"z": -0.743863395,
				"element": "H" 
			}
		],
		 "valence_orbital": [ 
			{
				"type": "occ",
				"energy": -0.31581,
				"method": "rhf"
			},
			{
				"type": "occ",
				"energy": -0.31286,
				"method": "rhf"
			},
			{
				"type": "occ",
				"energy": -0.30773,
				"method": "rhf"
			},
			{
				"type": "occ",
				"energy": -0.29128,
				"method": "rhf"
			},
			{
				"type": "occ",
				"energy": -0.26646,
				"method": "rhf"
			},
			{
				"type": "unocc",
				"energy": 0.0155,
				"method": "rhf"
			},
			{
				"type": "unocc",
				"energy": 0.07904,
				"method": "rhf"
			},
			{
				"type": "unocc",
				"energy": 0.09182,
				"method": "rhf"
			},
			{
				"type": "unocc",
				"energy": 0.11418,
				"method": "rhf"
			},
			{
				"type": "unocc",
				"energy": 0.11912,
				"method": "rhf"
			}
		],
		"cosmo_sigma_profile": { 
			"-0.025": 0.0,
			"-0.024": 0.0,
			"-0.023": 0.0,
			"-0.022": 0.0,
			"-0.021": 0.0,
			"-0.02": 0.0,
			"-0.019": 0.0,
			"-0.018": 0.0,
			"-0.017": 0.0,
			"-0.016": 0.0,
			"-0.015": 0.0,
			"-0.014": 0.0,
			"-0.013": 0.0,
			"-0.012": 0.0,
			"-0.011": 0.0,
			"-0.01": 0.0,
			"-0.009": 0.0,
			"-0.008": 0.0,
			"-0.007": 0.0,
			"-0.006": 1.55349958646,
			"-0.005": 5.6457357472,
			"-0.004": 12.1186064443,
			"-0.003": 24.6744664089,
			"-0.002": 46.2956665153,
			"-0.001": 49.1823835911,
			"0.0": 49.6868953994,
			"0.001": 40.7381066375,
			"0.002": 18.0345585589,
			"0.003": 3.87671193041,
			"0.004": 3.58844383987,
			"0.005": 3.47996667062,
			"0.006": 2.68386502181,
			"0.007": 2.59473088509,
			"0.008": 3.17142909174,
			"0.009": 2.25489961541,
			"0.01": 1.90489491085,
			"0.011": 2.04479012803,
			"0.012": 3.68950041713,
			"0.013": 1.26888212485,
			"0.014": 0.0,
			"0.015": 0.0,
			"0.016": 0.0,
			"0.017": 0.0,
			"0.018": 0.0,
			"0.019": 0.0,
			"0.02": 0.0,
			"0.021": 0.0,
			"0.022": 0.0,
			"0.023": 0.0,
			"0.024": 0.0,
			"0.025": 0.0
		}
	}
}
