{
	 "smiles": "COC1=CC=C(CC(O)=O)C(OC)=C1", 
	 "Tm": 383.15, 
	 "num_atms": 26, 
	 "gaussian": { 
		 "optdone": 1, 
		 "sigma_profile": "yes", 
		 "theory": "DFT", 
		 "functional": "B3LYP", 
		 "basiset": "6-31G**", 
		 "properties": { 
			 "R2extent": 3593.6525, 
			 "electric_dipole_moment_norm": 3.33260512062, 
			 "electric_quadrupole_moment_norm": 13.3951577486, 
			 "total_energy": -689.183643093, 
			 "HOMO_LUMO_gap": 0.21168, 
			 "cosmo_polarized_energy": -14.82, 
			 "cosmo_cavitation_energy": 30.17, 
			 "cosmo_dispersion_energy": -21.23, 
			 "cosmo_repulsion_energy": 1.71, 
			 "cosmo_total_nonelectrostatic_energy": 10.65, 
			 "SMD_solvation_energy": 7.82 
		},
		"coords": [
			{
				"x": -2.2816766398,
				"y": 3.7356585797,
				"z": 1.0870313753,
				"element": "C" 
			},
			{
				"x": -1.2711412777,
				"y": 3.0690947731,
				"z": 1.823488742,
				"element": "O" 
			},
			{
				"x": -0.5693673219,
				"y": 2.0683048382,
				"z": 1.2135412673,
				"element": "C" 
			},
			{
				"x": 0.4145564815,
				"y": 1.4501076201,
				"z": 1.9910201449,
				"element": "C" 
			},
			{
				"x": 1.1715010763,
				"y": 0.4209112968,
				"z": 1.4386292773,
				"element": "C" 
			},
			{
				"x": 0.9815051406,
				"y": -0.0192512878,
				"z": 0.1276483328,
				"element": "C" 
			},
			{
				"x": 1.7816132329,
				"y": -1.1519267005,
				"z": -0.4679329089,
				"element": "C" 
			},
			{
				"x": 2.6903539923,
				"y": -0.7915079639,
				"z": -1.6345481835,
				"element": "C" 
			},
			{
				"x": 3.2554225306,
				"y": 0.432075574,
				"z": -1.4990480861,
				"element": "O" 
			},
			{
				"x": 2.9403410214,
				"y": -1.521716433,
				"z": -2.5676956582,
				"element": "O" 
			},
			{
				"x": -0.0128936436,
				"y": 0.6164485103,
				"z": -0.6368798523,
				"element": "C" 
			},
			{
				"x": -0.1498013118,
				"y": 0.1439906403,
				"z": -1.9125758261,
				"element": "O" 
			},
			{
				"x": -1.1136459394,
				"y": 0.736790716,
				"z": -2.7667607154,
				"element": "C" 
			},
			{
				"x": -0.7892545637,
				"y": 1.6541963236,
				"z": -0.1080403745,
				"element": "C" 
			},
			{
				"x": -1.8742863107,
				"y": 4.2396250848,
				"z": 0.2005767667,
				"element": "H" 
			},
			{
				"x": -2.702291335,
				"y": 4.4841069516,
				"z": 1.7605912652,
				"element": "H" 
			},
			{
				"x": -3.0780713465,
				"y": 3.0477951814,
				"z": 0.7733302299,
				"element": "H" 
			},
			{
				"x": 0.5676435035,
				"y": 1.7863105441,
				"z": 3.0102906508,
				"element": "H" 
			},
			{
				"x": 1.9359693751,
				"y": -0.0575265277,
				"z": 2.0455467639,
				"element": "H" 
			},
			{
				"x": 1.1379004624,
				"y": -1.9563040959,
				"z": -0.8338587799,
				"element": "H" 
			},
			{
				"x": 2.4288389221,
				"y": -1.5825335287,
				"z": 0.3061642771,
				"element": "H" 
			},
			{
				"x": 3.8313886855,
				"y": 0.5402389586,
				"z": -2.2744119708,
				"element": "H" 
			},
			{
				"x": -0.9110969508,
				"y": 1.8037804742,
				"z": -2.9256334031,
				"element": "H" 
			},
			{
				"x": -2.1310784779,
				"y": 0.6187037093,
				"z": -2.3719967427,
				"element": "H" 
			},
			{
				"x": -1.0352811529,
				"y": 0.2105382752,
				"z": -3.7191503896,
				"element": "H" 
			},
			{
				"x": -1.5477481526,
				"y": 2.1293884862,
				"z": -0.713526202,
				"element": "H" 
			}
		],
		 "valence_orbital": [ 
			{
				"type": "occ",
				"energy": -0.30624,
				"method": "rhf"
			},
			{
				"type": "occ",
				"energy": -0.29701,
				"method": "rhf"
			},
			{
				"type": "occ",
				"energy": -0.26477,
				"method": "rhf"
			},
			{
				"type": "occ",
				"energy": -0.2365,
				"method": "rhf"
			},
			{
				"type": "occ",
				"energy": -0.20431,
				"method": "rhf"
			},
			{
				"type": "unocc",
				"energy": 0.00737,
				"method": "rhf"
			},
			{
				"type": "unocc",
				"energy": 0.01412,
				"method": "rhf"
			},
			{
				"type": "unocc",
				"energy": 0.02403,
				"method": "rhf"
			},
			{
				"type": "unocc",
				"energy": 0.08424,
				"method": "rhf"
			},
			{
				"type": "unocc",
				"energy": 0.08609,
				"method": "rhf"
			}
		],
		"cosmo_sigma_profile": { 
			"-0.025": 0.0,
			"-0.024": 0.0,
			"-0.023": 0.0,
			"-0.022": 0.0,
			"-0.021": 0.0,
			"-0.02": 0.0,
			"-0.019": 0.0,
			"-0.018": 0.454815934244,
			"-0.017": 1.0257455043,
			"-0.016": 0.890259834307,
			"-0.015": 0.689224698613,
			"-0.014": 0.796925388375,
			"-0.013": 0.797107171997,
			"-0.012": 0.245770478546,
			"-0.011": 0.832804453988,
			"-0.01": 0.586510099155,
			"-0.009": 0.411364457436,
			"-0.008": 0.993473347614,
			"-0.007": 5.99523260299,
			"-0.006": 16.1358099684,
			"-0.005": 24.7989868047,
			"-0.004": 22.6943325687,
			"-0.003": 25.0454009813,
			"-0.002": 14.1614837227,
			"-0.001": 10.6504654516,
			"0.0": 8.36397976525,
			"0.001": 9.07119311648,
			"0.002": 10.9508890542,
			"0.003": 10.635021365,
			"0.004": 13.4978204534,
			"0.005": 15.3623698875,
			"0.006": 10.5129468364,
			"0.007": 6.52837027298,
			"0.008": 5.68176417333,
			"0.009": 4.7341744968,
			"0.01": 5.43617845468,
			"0.011": 3.50324266018,
			"0.012": 5.47224817634,
			"0.013": 1.47851010387,
			"0.014": 0.0279833127971,
			"0.015": 0.0,
			"0.016": 0.0,
			"0.017": 0.0,
			"0.018": 0.0,
			"0.019": 0.0,
			"0.02": 0.0,
			"0.021": 0.0,
			"0.022": 0.0,
			"0.023": 0.0,
			"0.024": 0.0,
			"0.025": 0.0
		}
	}
}
