{
	 "smiles": "CN1N=NC2=C(N=CN2C1=O)C(N)=O", 
	 "Tm": 485.15, 
	 "num_atms": 20, 
	 "gaussian": { 
		 "optdone": 1, 
		 "sigma_profile": "yes", 
		 "theory": "DFT", 
		 "functional": "B3LYP", 
		 "basiset": "6-31G**", 
		 "properties": { 
			 "R2extent": 3220.5238, 
			 "electric_dipole_moment_norm": 5.87703277343, 
			 "electric_quadrupole_moment_norm": 16.5797212281, 
			 "total_energy": -711.173200579, 
			 "HOMO_LUMO_gap": 0.15437, 
			 "cosmo_polarized_energy": -21.22, 
			 "cosmo_cavitation_energy": 25.58, 
			 "cosmo_dispersion_energy": -19.26, 
			 "cosmo_repulsion_energy": 1.5, 
			 "cosmo_total_nonelectrostatic_energy": 7.81, 
			 "SMD_solvation_energy": 4.09 
		},
		"coords": [
			{
				"x": -2.1756415881,
				"y": -0.6160267219,
				"z": -2.1125848261,
				"element": "C" 
			},
			{
				"x": -1.3996024755,
				"y": -0.4601197192,
				"z": -0.8803152769,
				"element": "N" 
			},
			{
				"x": -2.0213147617,
				"y": -1.0008448701,
				"z": 0.2340821387,
				"element": "N" 
			},
			{
				"x": -1.4465833817,
				"y": -0.9281382527,
				"z": 1.3628200215,
				"element": "N" 
			},
			{
				"x": -0.2288500588,
				"y": -0.3218432268,
				"z": 1.468695484,
				"element": "C" 
			},
			{
				"x": 0.6264156946,
				"y": -0.0933383549,
				"z": 2.5406988675,
				"element": "C" 
			},
			{
				"x": 1.741150156,
				"y": 0.568972574,
				"z": 2.0945979412,
				"element": "N" 
			},
			{
				"x": 1.5950216322,
				"y": 0.7497690977,
				"z": 0.8001036457,
				"element": "C" 
			},
			{
				"x": 0.407452207,
				"y": 0.2261750303,
				"z": 0.354707353,
				"element": "N" 
			},
			{
				"x": -0.1642082992,
				"y": 0.1843527524,
				"z": -0.922508183,
				"element": "C" 
			},
			{
				"x": 0.3571896457,
				"y": 0.6488486488,
				"z": -1.9130362483,
				"element": "O" 
			},
			{
				"x": 0.4571615714,
				"y": -0.465755114,
				"z": 3.9835288088,
				"element": "C" 
			},
			{
				"x": -0.7067715965,
				"y": -1.1211466198,
				"z": 4.2643772316,
				"element": "N" 
			},
			{
				"x": 1.3039261452,
				"y": -0.1951757287,
				"z": 4.8200883444,
				"element": "O" 
			},
			{
				"x": -1.6091148192,
				"y": -0.1638805544,
				"z": -2.9239418141,
				"element": "H" 
			},
			{
				"x": -3.1402694103,
				"y": -0.1164272472,
				"z": -2.0028257129,
				"element": "H" 
			},
			{
				"x": -2.3364721751,
				"y": -1.6774955198,
				"z": -2.3115093952,
				"element": "H" 
			},
			{
				"x": 2.2884766658,
				"y": 1.2390007619,
				"z": 0.1321970322,
				"element": "H" 
			},
			{
				"x": -1.3951995057,
				"y": -1.3358612693,
				"z": 3.5559736642,
				"element": "H" 
			},
			{
				"x": -0.864665646,
				"y": -1.3920656662,
				"z": 5.2223509238,
				"element": "H" 
			}
		],
		 "valence_orbital": [ 
			{
				"type": "occ",
				"energy": -0.30268,
				"method": "rhf"
			},
			{
				"type": "occ",
				"energy": -0.29905,
				"method": "rhf"
			},
			{
				"type": "occ",
				"energy": -0.26494,
				"method": "rhf"
			},
			{
				"type": "occ",
				"energy": -0.25653,
				"method": "rhf"
			},
			{
				"type": "occ",
				"energy": -0.25343,
				"method": "rhf"
			},
			{
				"type": "unocc",
				"energy": -0.09906,
				"method": "rhf"
			},
			{
				"type": "unocc",
				"energy": -0.049,
				"method": "rhf"
			},
			{
				"type": "unocc",
				"energy": -0.00059,
				"method": "rhf"
			},
			{
				"type": "unocc",
				"energy": 0.06207,
				"method": "rhf"
			},
			{
				"type": "unocc",
				"energy": 0.09196,
				"method": "rhf"
			}
		],
		"cosmo_sigma_profile": { 
			"-0.025": 0.0,
			"-0.024": 0.0,
			"-0.023": 0.0,
			"-0.022": 0.0,
			"-0.021": 0.0,
			"-0.02": 0.0,
			"-0.019": 0.0,
			"-0.018": 0.0,
			"-0.017": 0.0,
			"-0.016": 0.0,
			"-0.015": 0.154900576694,
			"-0.014": 1.16634994634,
			"-0.013": 0.735062570251,
			"-0.012": 1.51716369239,
			"-0.011": 3.888077786,
			"-0.01": 4.46123291323,
			"-0.009": 5.3515628718,
			"-0.008": 5.0605974715,
			"-0.007": 10.8488700401,
			"-0.006": 14.1850581849,
			"-0.005": 16.1370760568,
			"-0.004": 17.4330197594,
			"-0.003": 14.6884306054,
			"-0.002": 11.2129337092,
			"-0.001": 8.11753629161,
			"0.0": 8.44003145781,
			"0.001": 6.40791448191,
			"0.002": 8.09151582183,
			"0.003": 7.14599700213,
			"0.004": 5.77547461386,
			"0.005": 6.46485721373,
			"0.006": 4.76254007565,
			"0.007": 5.59190126777,
			"0.008": 5.05727861322,
			"0.009": 4.76857089936,
			"0.01": 7.52557627353,
			"0.011": 3.08517440571,
			"0.012": 2.87196320334,
			"0.013": 6.1697019981,
			"0.014": 4.46124053909,
			"0.015": 2.17951971855,
			"0.016": 1.59874132615,
			"0.017": 0.756307442708,
			"0.018": 0.0,
			"0.019": 0.0,
			"0.02": 0.0,
			"0.021": 0.0,
			"0.022": 0.0,
			"0.023": 0.0,
			"0.024": 0.0,
			"0.025": 0.0
		}
	}
}
