{
	 "smiles": "CC1CN(CC(C)O1)C1=C(C=O)C=CC=C1", 
	 "Tm": 368.15, 
	 "num_atms": 33, 
	 "gaussian": { 
		 "optdone": 1, 
		 "sigma_profile": "yes", 
		 "theory": "DFT", 
		 "functional": "B3LYP", 
		 "basiset": "6-31G**", 
		 "properties": { 
			 "R2extent": 4598.104, 
			 "electric_dipole_moment_norm": 3.30747157357, 
			 "electric_quadrupole_moment_norm": 16.1069370093, 
			 "total_energy": -710.811441948, 
			 "HOMO_LUMO_gap": 0.15781, 
			 "cosmo_polarized_energy": -10.7, 
			 "cosmo_cavitation_energy": 33.82, 
			 "cosmo_dispersion_energy": -24.08, 
			 "cosmo_repulsion_energy": 1.86, 
			 "cosmo_total_nonelectrostatic_energy": 11.59, 
			 "SMD_solvation_energy": 5.79 
		},
		"coords": [
			{
				"x": 1.5479734286,
				"y": -1.2541584625,
				"z": -0.7944474729,
				"element": "C" 
			},
			{
				"x": 1.7837695541,
				"y": -0.2051961388,
				"z": 0.2962452274,
				"element": "C" 
			},
			{
				"x": 1.0295362972,
				"y": 1.1134369982,
				"z": 0.0746802038,
				"element": "C" 
			},
			{
				"x": -0.4143139489,
				"y": 0.9413628701,
				"z": 0.3266384016,
				"element": "N" 
			},
			{
				"x": -0.6251445786,
				"y": 0.4532645171,
				"z": 1.6915676038,
				"element": "C" 
			},
			{
				"x": 0.1143906177,
				"y": -0.8735655987,
				"z": 1.8906182106,
				"element": "C" 
			},
			{
				"x": 0.0170742315,
				"y": -1.3813881276,
				"z": 3.3224465101,
				"element": "C" 
			},
			{
				"x": 1.5046582084,
				"y": -0.7136518582,
				"z": 1.6054233896,
				"element": "O" 
			},
			{
				"x": -1.2457081544,
				"y": 2.0057302803,
				"z": -0.1088242993,
				"element": "C" 
			},
			{
				"x": -1.4220974663,
				"y": 2.2446390791,
				"z": -1.4968124027,
				"element": "C" 
			},
			{
				"x": -0.9176789077,
				"y": 1.3075519743,
				"z": -2.5267884523,
				"element": "C" 
			},
			{
				"x": -0.9256748377,
				"y": 1.5396241038,
				"z": -3.7246997179,
				"element": "O" 
			},
			{
				"x": -2.18819184,
				"y": 3.3374662114,
				"z": -1.9297084076,
				"element": "C" 
			},
			{
				"x": -2.8267889674,
				"y": 4.1721847582,
				"z": -1.0212936349,
				"element": "C" 
			},
			{
				"x": -2.6990926254,
				"y": 3.9071951392,
				"z": 0.344995795,
				"element": "C" 
			},
			{
				"x": -1.9165688213,
				"y": 2.8454582075,
				"z": 0.7972238126,
				"element": "C" 
			},
			{
				"x": 2.068745918,
				"y": -2.1796648306,
				"z": -0.5330319483,
				"element": "H" 
			},
			{
				"x": 1.9384190598,
				"y": -0.900261613,
				"z": -1.7543709609,
				"element": "H" 
			},
			{
				"x": 0.4868362087,
				"y": -1.4794062758,
				"z": -0.9274259394,
				"element": "H" 
			},
			{
				"x": 2.8538840833,
				"y": 0.0316011183,
				"z": 0.3230114046,
				"element": "H" 
			},
			{
				"x": 1.4422232081,
				"y": 1.8739913636,
				"z": 0.7603356363,
				"element": "H" 
			},
			{
				"x": 1.1873585095,
				"y": 1.4698001852,
				"z": -0.9454534173,
				"element": "H" 
			},
			{
				"x": -1.6968478642,
				"y": 0.3049364115,
				"z": 1.8554972236,
				"element": "H" 
			},
			{
				"x": -0.2557751103,
				"y": 1.1706256302,
				"z": 2.4473856266,
				"element": "H" 
			},
			{
				"x": -0.32629653,
				"y": -1.6157751762,
				"z": 1.2075899596,
				"element": "H" 
			},
			{
				"x": 0.4408502961,
				"y": -0.6509068382,
				"z": 4.0186804803,
				"element": "H" 
			},
			{
				"x": -1.0251950246,
				"y": -1.5688152101,
				"z": 3.5994736725,
				"element": "H" 
			},
			{
				"x": 0.5769925083,
				"y": -2.3143677886,
				"z": 3.4258587394,
				"element": "H" 
			},
			{
				"x": -0.5604914807,
				"y": 0.3336335335,
				"z": -2.1425810102,
				"element": "H" 
			},
			{
				"x": -2.2881729313,
				"y": 3.4819134217,
				"z": -3.001068184,
				"element": "H" 
			},
			{
				"x": -3.4277400857,
				"y": 5.007623439,
				"z": -1.366596541,
				"element": "H" 
			},
			{
				"x": -3.1991076643,
				"y": 4.5427099422,
				"z": 1.0709630579,
				"element": "H" 
			},
			{
				"x": -1.8090252906,
				"y": 2.6888087345,
				"z": 1.8640674335,
				"element": "H" 
			}
		],
		 "valence_orbital": [ 
			{
				"type": "occ",
				"energy": -0.28516,
				"method": "rhf"
			},
			{
				"type": "occ",
				"energy": -0.25965,
				"method": "rhf"
			},
			{
				"type": "occ",
				"energy": -0.25634,
				"method": "rhf"
			},
			{
				"type": "occ",
				"energy": -0.24684,
				"method": "rhf"
			},
			{
				"type": "occ",
				"energy": -0.21635,
				"method": "rhf"
			},
			{
				"type": "unocc",
				"energy": -0.05854,
				"method": "rhf"
			},
			{
				"type": "unocc",
				"energy": -0.00549,
				"method": "rhf"
			},
			{
				"type": "unocc",
				"energy": 0.03835,
				"method": "rhf"
			},
			{
				"type": "unocc",
				"energy": 0.08031,
				"method": "rhf"
			},
			{
				"type": "unocc",
				"energy": 0.09106,
				"method": "rhf"
			}
		],
		"cosmo_sigma_profile": { 
			"-0.025": 0.0,
			"-0.024": 0.0,
			"-0.023": 0.0,
			"-0.022": 0.0,
			"-0.021": 0.0,
			"-0.02": 0.0,
			"-0.019": 0.0,
			"-0.018": 0.0,
			"-0.017": 0.0,
			"-0.016": 0.0,
			"-0.015": 0.0,
			"-0.014": 0.0,
			"-0.013": 0.0,
			"-0.012": 0.0,
			"-0.011": 0.0,
			"-0.01": 0.0,
			"-0.009": 0.0,
			"-0.008": 0.0,
			"-0.007": 0.755271816849,
			"-0.006": 9.31006744263,
			"-0.005": 17.3330671243,
			"-0.004": 32.0721847903,
			"-0.003": 36.5036881865,
			"-0.002": 26.2617281994,
			"-0.001": 23.8551082042,
			"0.0": 23.3747677592,
			"0.001": 20.0076822112,
			"0.002": 12.7421233281,
			"0.003": 13.899124695,
			"0.004": 14.2052979809,
			"0.005": 6.77353155041,
			"0.006": 2.9868180006,
			"0.007": 2.85348455022,
			"0.008": 2.98843055668,
			"0.009": 2.27691450391,
			"0.01": 4.14402154551,
			"0.011": 4.11216921337,
			"0.012": 5.53413169808,
			"0.013": 3.15759741499,
			"0.014": 0.470618508711,
			"0.015": 0.0,
			"0.016": 0.0,
			"0.017": 0.0,
			"0.018": 0.0,
			"0.019": 0.0,
			"0.02": 0.0,
			"0.021": 0.0,
			"0.022": 0.0,
			"0.023": 0.0,
			"0.024": 0.0,
			"0.025": 0.0
		}
	}
}
