{
	 "smiles": "CC(=O)C=CC1=CC=C(C=CC(C)=O)C=C1", 
	 "Tm": 436.15, 
	 "num_atms": 30, 
	 "gaussian": { 
		 "optdone": 1, 
		 "sigma_profile": "yes", 
		 "theory": "DFT", 
		 "functional": "B3LYP", 
		 "basiset": "6-31G**", 
		 "properties": { 
			 "R2extent": 6406.4608, 
			 "electric_dipole_moment_norm": 5.16515344787, 
			 "electric_quadrupole_moment_norm": 17.514002729, 
			 "total_energy": -692.342167257, 
			 "HOMO_LUMO_gap": 0.14553, 
			 "cosmo_polarized_energy": -15.92, 
			 "cosmo_cavitation_energy": 35.0, 
			 "cosmo_dispersion_energy": -24.35, 
			 "cosmo_repulsion_energy": 1.91, 
			 "cosmo_total_nonelectrostatic_energy": 12.56, 
			 "SMD_solvation_energy": 7.57 
		},
		"coords": [
			{
				"x": 2.715714281,
				"y": -2.4152311209,
				"z": -3.9372154093,
				"element": "C" 
			},
			{
				"x": 3.1269040401,
				"y": -1.6662600169,
				"z": -2.678030333,
				"element": "C" 
			},
			{
				"x": 4.2819735239,
				"y": -1.2937859987,
				"z": -2.5180487792,
				"element": "O" 
			},
			{
				"x": 2.1189845918,
				"y": -1.3827938041,
				"z": -1.630543979,
				"element": "C" 
			},
			{
				"x": 0.8194070939,
				"y": -1.7376014094,
				"z": -1.6877725728,
				"element": "C" 
			},
			{
				"x": -0.2155611045,
				"y": -1.4817862012,
				"z": -0.6848383189,
				"element": "C" 
			},
			{
				"x": -1.530344432,
				"y": -1.9164199198,
				"z": -0.937658723,
				"element": "C" 
			},
			{
				"x": -2.5491940233,
				"y": -1.7037545889,
				"z": -0.0176154359,
				"element": "C" 
			},
			{
				"x": -2.3042747508,
				"y": -1.0248466861,
				"z": 1.1894865258,
				"element": "C" 
			},
			{
				"x": -3.4059176312,
				"y": -0.8285966728,
				"z": 2.1419904563,
				"element": "C" 
			},
			{
				"x": -3.5918647896,
				"y": 0.1541046804,
				"z": 3.0454102618,
				"element": "C" 
			},
			{
				"x": -2.7973169839,
				"y": 1.3999738994,
				"z": 3.2886114036,
				"element": "C" 
			},
			{
				"x": -2.4359854282,
				"y": 2.2958026168,
				"z": 2.115592479,
				"element": "C" 
			},
			{
				"x": -2.5613574855,
				"y": 1.7394861987,
				"z": 4.4376277568,
				"element": "O" 
			},
			{
				"x": -0.9823089992,
				"y": -0.6131667148,
				"z": 1.4562711195,
				"element": "C" 
			},
			{
				"x": 0.0362638862,
				"y": -0.8316671227,
				"z": 0.5397996926,
				"element": "C" 
			},
			{
				"x": 3.591265035,
				"y": -2.5212752644,
				"z": -4.5782803358,
				"element": "H" 
			},
			{
				"x": 1.9328383957,
				"y": -1.8749365498,
				"z": -4.4806832184,
				"element": "H" 
			},
			{
				"x": 2.3223567369,
				"y": -3.4086367897,
				"z": -3.6951366202,
				"element": "H" 
			},
			{
				"x": 2.5279191547,
				"y": -0.8437867078,
				"z": -0.7798708497,
				"element": "H" 
			},
			{
				"x": 0.4696812579,
				"y": -2.273470325,
				"z": -2.5688062214,
				"element": "H" 
			},
			{
				"x": -1.7482525572,
				"y": -2.4321275681,
				"z": -1.8693629144,
				"element": "H" 
			},
			{
				"x": -3.5541695898,
				"y": -2.0545176212,
				"z": -0.2366835508,
				"element": "H" 
			},
			{
				"x": -4.1561446376,
				"y": -1.6192810108,
				"z": 2.1258660327,
				"element": "H" 
			},
			{
				"x": -4.4109836583,
				"y": 0.0400271347,
				"z": 3.7529974469,
				"element": "H" 
			},
			{
				"x": -3.3006950677,
				"y": 2.9424356987,
				"z": 1.9180048681,
				"element": "H" 
			},
			{
				"x": -1.5934225346,
				"y": 2.9347184879,
				"z": 2.3878601354,
				"element": "H" 
			},
			{
				"x": -2.2213876015,
				"y": 1.7458993385,
				"z": 1.1987072627,
				"element": "H" 
			},
			{
				"x": -0.7503473136,
				"y": -0.1469213374,
				"z": 2.4086254213,
				"element": "H" 
			},
			{
				"x": 1.0428205912,
				"y": -0.5084846244,
				"z": 0.7844963991,
				"element": "H" 
			}
		],
		 "valence_orbital": [ 
			{
				"type": "occ",
				"energy": -0.28551,
				"method": "rhf"
			},
			{
				"type": "occ",
				"energy": -0.27376,
				"method": "rhf"
			},
			{
				"type": "occ",
				"energy": -0.25095,
				"method": "rhf"
			},
			{
				"type": "occ",
				"energy": -0.24647,
				"method": "rhf"
			},
			{
				"type": "occ",
				"energy": -0.23383,
				"method": "rhf"
			},
			{
				"type": "unocc",
				"energy": -0.0883,
				"method": "rhf"
			},
			{
				"type": "unocc",
				"energy": -0.04768,
				"method": "rhf"
			},
			{
				"type": "unocc",
				"energy": -0.02311,
				"method": "rhf"
			},
			{
				"type": "unocc",
				"energy": -0.00025,
				"method": "rhf"
			},
			{
				"type": "unocc",
				"energy": 0.04198,
				"method": "rhf"
			}
		],
		"cosmo_sigma_profile": { 
			"-0.025": 0.0,
			"-0.024": 0.0,
			"-0.023": 0.0,
			"-0.022": 0.0,
			"-0.021": 0.0,
			"-0.02": 0.0,
			"-0.019": 0.0,
			"-0.018": 0.0,
			"-0.017": 0.0,
			"-0.016": 0.0,
			"-0.015": 0.0,
			"-0.014": 0.0,
			"-0.013": 0.0,
			"-0.012": 0.0,
			"-0.011": 0.0,
			"-0.01": 0.0,
			"-0.009": 0.0895217025162,
			"-0.008": 2.19616271128,
			"-0.007": 12.2006817552,
			"-0.006": 22.8878708649,
			"-0.005": 23.3506789204,
			"-0.004": 21.8741529539,
			"-0.003": 21.0541995177,
			"-0.002": 21.6680816815,
			"-0.001": 23.7513095161,
			"0.0": 20.8955318834,
			"0.001": 19.8789379001,
			"0.002": 20.455628468,
			"0.003": 19.0121688615,
			"0.004": 7.8938074519,
			"0.005": 2.97184301994,
			"0.006": 2.97435005058,
			"0.007": 3.26013165988,
			"0.008": 2.65830235701,
			"0.009": 2.23003329847,
			"0.01": 4.74596415283,
			"0.011": 5.22962399003,
			"0.012": 9.01945751917,
			"0.013": 6.69702480048,
			"0.014": 1.7850682382,
			"0.015": 0.0,
			"0.016": 0.0,
			"0.017": 0.0,
			"0.018": 0.0,
			"0.019": 0.0,
			"0.02": 0.0,
			"0.021": 0.0,
			"0.022": 0.0,
			"0.023": 0.0,
			"0.024": 0.0,
			"0.025": 0.0
		}
	}
}
