{
	 "smiles": "NC(=O)C1=CC=CC=C1OC(F)(F)F", 
	 "Tm": 427.15, 
	 "num_atms": 20, 
	 "gaussian": { 
		 "optdone": 1, 
		 "sigma_profile": "yes", 
		 "theory": "DFT", 
		 "functional": "B3LYP", 
		 "basiset": "6-31G**", 
		 "properties": { 
			 "R2extent": 3165.8881, 
			 "electric_dipole_moment_norm": 2.59754259638, 
			 "electric_quadrupole_moment_norm": 10.9723343679, 
			 "total_energy": -813.207260196, 
			 "HOMO_LUMO_gap": 0.20909, 
			 "cosmo_polarized_energy": -10.54, 
			 "cosmo_cavitation_energy": 26.05, 
			 "cosmo_dispersion_energy": -18.47, 
			 "cosmo_repulsion_energy": 1.4, 
			 "cosmo_total_nonelectrostatic_energy": 8.97, 
			 "SMD_solvation_energy": 6.56 
		},
		"coords": [
			{
				"x": -1.6135892735,
				"y": -1.1187939043,
				"z": 2.3417087419,
				"element": "N" 
			},
			{
				"x": -1.5383280977,
				"y": 0.055224786,
				"z": 1.6587448944,
				"element": "C" 
			},
			{
				"x": -2.3039158657,
				"y": 0.9864435211,
				"z": 1.8855715909,
				"element": "O" 
			},
			{
				"x": -0.487246404,
				"y": 0.1844842374,
				"z": 0.5730455662,
				"element": "C" 
			},
			{
				"x": -0.6155881055,
				"y": 1.3073022073,
				"z": -0.2586758717,
				"element": "C" 
			},
			{
				"x": 0.2723761827,
				"y": 1.5491110433,
				"z": -1.3019769774,
				"element": "C" 
			},
			{
				"x": 1.3220729854,
				"y": 0.6605530002,
				"z": -1.5416737499,
				"element": "C" 
			},
			{
				"x": 1.4788114017,
				"y": -0.4626982447,
				"z": -0.7315772968,
				"element": "C" 
			},
			{
				"x": 0.5854469458,
				"y": -0.680948596,
				"z": 0.3144468483,
				"element": "C" 
			},
			{
				"x": 0.7368336539,
				"y": -1.8527226025,
				"z": 1.0887343816,
				"element": "O" 
			},
			{
				"x": 1.7871343618,
				"y": -1.9154709126,
				"z": 1.9559635362,
				"element": "C" 
			},
			{
				"x": 1.8810922514,
				"y": -0.8224683973,
				"z": 2.7258608729,
				"element": "F" 
			},
			{
				"x": 1.587854203,
				"y": -2.981436761,
				"z": 2.7345618014,
				"element": "F" 
			},
			{
				"x": 2.9653069563,
				"y": -2.0678086732,
				"z": 1.3223618929,
				"element": "F" 
			},
			{
				"x": -1.0170026873,
				"y": -1.9042535192,
				"z": 2.1417065142,
				"element": "H" 
			},
			{
				"x": -2.3417636085,
				"y": -1.1922950932,
				"z": 3.0352809653,
				"element": "H" 
			},
			{
				"x": -1.4383324504,
				"y": 1.9807257528,
				"z": -0.045823924,
				"element": "H" 
			},
			{
				"x": 0.1442709374,
				"y": 2.4257454839,
				"z": -1.9292563561,
				"element": "H" 
			},
			{
				"x": 2.017074366,
				"y": 0.8342928137,
				"z": -2.3574923915,
				"element": "H" 
			},
			{
				"x": 2.280992247,
				"y": -1.1709861417,
				"z": -0.8999110387,
				"element": "H" 
			}
		],
		 "valence_orbital": [ 
			{
				"type": "occ",
				"energy": -0.34548,
				"method": "rhf"
			},
			{
				"type": "occ",
				"energy": -0.27266,
				"method": "rhf"
			},
			{
				"type": "occ",
				"energy": -0.26837,
				"method": "rhf"
			},
			{
				"type": "occ",
				"energy": -0.26545,
				"method": "rhf"
			},
			{
				"type": "occ",
				"energy": -0.25615,
				"method": "rhf"
			},
			{
				"type": "unocc",
				"energy": -0.04706,
				"method": "rhf"
			},
			{
				"type": "unocc",
				"energy": -0.02084,
				"method": "rhf"
			},
			{
				"type": "unocc",
				"energy": 0.05749,
				"method": "rhf"
			},
			{
				"type": "unocc",
				"energy": 0.07742,
				"method": "rhf"
			},
			{
				"type": "unocc",
				"energy": 0.09855,
				"method": "rhf"
			}
		],
		"cosmo_sigma_profile": { 
			"-0.025": 0.0,
			"-0.024": 0.0,
			"-0.023": 0.0,
			"-0.022": 0.0,
			"-0.021": 0.0,
			"-0.02": 0.0,
			"-0.019": 0.0,
			"-0.018": 0.0,
			"-0.017": 0.0,
			"-0.016": 0.0,
			"-0.015": 0.0399767593614,
			"-0.014": 0.804422219852,
			"-0.013": 1.35841538827,
			"-0.012": 1.09744878049,
			"-0.011": 1.35866977626,
			"-0.01": 1.91168227158,
			"-0.009": 1.9482703984,
			"-0.008": 2.73202570988,
			"-0.007": 6.62796331201,
			"-0.006": 9.73118633394,
			"-0.005": 10.423877574,
			"-0.004": 8.08421978894,
			"-0.003": 9.40377421141,
			"-0.002": 11.8603021093,
			"-0.001": 15.5711036438,
			"0.0": 19.9142395708,
			"0.001": 34.1437940607,
			"0.002": 35.0092899408,
			"0.003": 12.8968471908,
			"0.004": 3.56346587006,
			"0.005": 2.17497317929,
			"0.006": 1.43112677428,
			"0.007": 1.60909465474,
			"0.008": 1.53353123866,
			"0.009": 1.25040341037,
			"0.01": 0.785664570115,
			"0.011": 1.99462182345,
			"0.012": 2.18314981327,
			"0.013": 4.22852695011,
			"0.014": 3.37269746505,
			"0.015": 0.212509174018,
			"0.016": 0.0,
			"0.017": 0.0,
			"0.018": 0.0,
			"0.019": 0.0,
			"0.02": 0.0,
			"0.021": 0.0,
			"0.022": 0.0,
			"0.023": 0.0,
			"0.024": 0.0,
			"0.025": 0.0
		}
	}
}
