{
	 "smiles": "S1C=CC2=CC=CC=C12", 
	 "Tm": 304.15, 
	 "num_atms": 15, 
	 "gaussian": { 
		 "optdone": 1, 
		 "sigma_profile": "yes", 
		 "theory": "DFT", 
		 "functional": "B3LYP", 
		 "basiset": "6-31G**", 
		 "properties": { 
			 "R2extent": 2463.7928, 
			 "electric_dipole_moment_norm": 0.726650438657, 
			 "electric_quadrupole_moment_norm": 7.13237511773, 
			 "total_energy": -706.653884059, 
			 "HOMO_LUMO_gap": 0.19212, 
			 "cosmo_polarized_energy": -4.5, 
			 "cosmo_cavitation_energy": 20.14, 
			 "cosmo_dispersion_energy": -15.89, 
			 "cosmo_repulsion_energy": 1.22, 
			 "cosmo_total_nonelectrostatic_energy": 5.47, 
			 "SMD_solvation_energy": 3.19 
		},
		"coords": [
			{
				"x": 3.8171460448,
				"y": -1.7495980439,
				"z": -0.4210937075,
				"element": "S" 
			},
			{
				"x": 3.0593788365,
				"y": -2.5246973741,
				"z": -1.7965185363,
				"element": "C" 
			},
			{
				"x": 1.7854330629,
				"y": -2.1067281678,
				"z": -2.0103632768,
				"element": "C" 
			},
			{
				"x": 1.3493219472,
				"y": -1.1197486262,
				"z": -1.0548186024,
				"element": "C" 
			},
			{
				"x": 0.1096412243,
				"y": -0.4605693483,
				"z": -0.9553864008,
				"element": "C" 
			},
			{
				"x": -0.0960064834,
				"y": 0.4659886762,
				"z": 0.0572882949,
				"element": "C" 
			},
			{
				"x": 0.9208886176,
				"y": 0.7542981201,
				"z": 0.9863290344,
				"element": "C" 
			},
			{
				"x": 2.1552203126,
				"y": 0.1180721232,
				"z": 0.9118458248,
				"element": "C" 
			},
			{
				"x": 2.3613277689,
				"y": -0.8155727852,
				"z": -0.1092186885,
				"element": "C" 
			},
			{
				"x": 3.621015517,
				"y": -3.2531869476,
				"z": -2.3657058017,
				"element": "H" 
			},
			{
				"x": 1.1615278743,
				"y": -2.4771222307,
				"z": -2.8162222526,
				"element": "H" 
			},
			{
				"x": -0.6777821563,
				"y": -0.6807483091,
				"z": -1.6710415994,
				"element": "H" 
			},
			{
				"x": -1.0517164076,
				"y": 0.9757311411,
				"z": 0.1358391078,
				"element": "H" 
			},
			{
				"x": 0.7407848565,
				"y": 1.4824453138,
				"z": 1.7716372279,
				"element": "H" 
			},
			{
				"x": 2.9388189848,
				"y": 0.3416364584,
				"z": 1.6294293761,
				"element": "H" 
			}
		],
		 "valence_orbital": [ 
			{
				"type": "occ",
				"energy": -0.3322,
				"method": "rhf"
			},
			{
				"type": "occ",
				"energy": -0.32761,
				"method": "rhf"
			},
			{
				"type": "occ",
				"energy": -0.28154,
				"method": "rhf"
			},
			{
				"type": "occ",
				"energy": -0.2345,
				"method": "rhf"
			},
			{
				"type": "occ",
				"energy": -0.21649,
				"method": "rhf"
			},
			{
				"type": "unocc",
				"energy": -0.02437,
				"method": "rhf"
			},
			{
				"type": "unocc",
				"energy": -0.00011,
				"method": "rhf"
			},
			{
				"type": "unocc",
				"energy": 0.0233,
				"method": "rhf"
			},
			{
				"type": "unocc",
				"energy": 0.05052,
				"method": "rhf"
			},
			{
				"type": "unocc",
				"energy": 0.09636,
				"method": "rhf"
			}
		],
		"cosmo_sigma_profile": { 
			"-0.025": 0.0,
			"-0.024": 0.0,
			"-0.023": 0.0,
			"-0.022": 0.0,
			"-0.021": 0.0,
			"-0.02": 0.0,
			"-0.019": 0.0,
			"-0.018": 0.0,
			"-0.017": 0.0,
			"-0.016": 0.0,
			"-0.015": 0.0,
			"-0.014": 0.0,
			"-0.013": 0.0,
			"-0.012": 0.0,
			"-0.011": 0.0,
			"-0.01": 0.0,
			"-0.009": 0.507222124277,
			"-0.008": 2.25964318182,
			"-0.007": 4.35840537019,
			"-0.006": 10.3537833138,
			"-0.005": 12.7790180794,
			"-0.004": 12.7114212444,
			"-0.003": 11.9089999135,
			"-0.002": 8.56898780228,
			"-0.001": 8.94517942503,
			"0.0": 8.39374486338,
			"0.001": 10.4909195432,
			"0.002": 11.73060553,
			"0.003": 17.2527716782,
			"0.004": 21.5894494501,
			"0.005": 17.3574184384,
			"0.006": 5.33752013209,
			"0.007": 0.0,
			"0.008": 0.0,
			"0.009": 0.0,
			"0.01": 0.0,
			"0.011": 0.0,
			"0.012": 0.0,
			"0.013": 0.0,
			"0.014": 0.0,
			"0.015": 0.0,
			"0.016": 0.0,
			"0.017": 0.0,
			"0.018": 0.0,
			"0.019": 0.0,
			"0.02": 0.0,
			"0.021": 0.0,
			"0.022": 0.0,
			"0.023": 0.0,
			"0.024": 0.0,
			"0.025": 0.0
		}
	}
}
