{
	 "smiles": "COC1=C(Cl)C=CC=C1Cl", 
	 "Tm": 283.65, 
	 "num_atms": 16, 
	 "gaussian": { 
		 "optdone": 1, 
		 "sigma_profile": "yes", 
		 "theory": "DFT", 
		 "functional": "B3LYP", 
		 "basiset": "6-31G**", 
		 "properties": { 
			 "R2extent": 2846.4735, 
			 "electric_dipole_moment_norm": 2.03229552477, 
			 "electric_quadrupole_moment_norm": 8.17402407753, 
			 "total_energy": -1265.94822502, 
			 "HOMO_LUMO_gap": 0.22744, 
			 "cosmo_polarized_energy": -5.69, 
			 "cosmo_cavitation_energy": 23.41, 
			 "cosmo_dispersion_energy": -17.4, 
			 "cosmo_repulsion_energy": 1.41, 
			 "cosmo_total_nonelectrostatic_energy": 7.42, 
			 "SMD_solvation_energy": 4.36 
		},
		"coords": [
			{
				"x": -1.1818629039,
				"y": 3.8488664878,
				"z": -0.9010828031,
				"element": "C" 
			},
			{
				"x": -0.2976146594,
				"y": 2.8811745951,
				"z": -1.485111544,
				"element": "O" 
			},
			{
				"x": -0.00198105,
				"y": 1.80939823,
				"z": -0.6997170761,
				"element": "C" 
			},
			{
				"x": -0.7676695183,
				"y": 0.6319269705,
				"z": -0.7551150327,
				"element": "C" 
			},
			{
				"x": -2.1667005441,
				"y": 0.5787927309,
				"z": -1.8079449931,
				"element": "Cl" 
			},
			{
				"x": -0.4321587971,
				"y": -0.4940262955,
				"z": -0.0050690066,
				"element": "C" 
			},
			{
				"x": 0.6867368573,
				"y": -0.4551700636,
				"z": 0.8254225194,
				"element": "C" 
			},
			{
				"x": 1.4685252284,
				"y": 0.6962516336,
				"z": 0.9039934803,
				"element": "C" 
			},
			{
				"x": 1.1196488655,
				"y": 1.8137760839,
				"z": 0.1474727056,
				"element": "C" 
			},
			{
				"x": 2.1094215819,
				"y": 3.2563215141,
				"z": 0.236915956,
				"element": "Cl" 
			},
			{
				"x": -0.7453994857,
				"y": 4.2831130019,
				"z": 0.0049415618,
				"element": "H" 
			},
			{
				"x": -1.3105477738,
				"y": 4.628901124,
				"z": -1.6526788403,
				"element": "H" 
			},
			{
				"x": -2.1545226085,
				"y": 3.4019415968,
				"z": -0.6683728073,
				"element": "H" 
			},
			{
				"x": -1.0445753182,
				"y": -1.3855389621,
				"z": -0.0781400668,
				"element": "H" 
			},
			{
				"x": 0.9540892337,
				"y": -1.3291003681,
				"z": 1.4107350142,
				"element": "H" 
			},
			{
				"x": 2.3437108921,
				"y": 0.7363717207,
				"z": 1.5424509324,
				"element": "H" 
			}
		],
		 "valence_orbital": [ 
			{
				"type": "occ",
				"energy": -0.31959,
				"method": "rhf"
			},
			{
				"type": "occ",
				"energy": -0.31488,
				"method": "rhf"
			},
			{
				"type": "occ",
				"energy": -0.28706,
				"method": "rhf"
			},
			{
				"type": "occ",
				"energy": -0.25232,
				"method": "rhf"
			},
			{
				"type": "occ",
				"energy": -0.25216,
				"method": "rhf"
			},
			{
				"type": "unocc",
				"energy": -0.02472,
				"method": "rhf"
			},
			{
				"type": "unocc",
				"energy": -0.02051,
				"method": "rhf"
			},
			{
				"type": "unocc",
				"energy": 0.00523,
				"method": "rhf"
			},
			{
				"type": "unocc",
				"energy": 0.05165,
				"method": "rhf"
			},
			{
				"type": "unocc",
				"energy": 0.1071,
				"method": "rhf"
			}
		],
		"cosmo_sigma_profile": { 
			"-0.025": 0.0,
			"-0.024": 0.0,
			"-0.023": 0.0,
			"-0.022": 0.0,
			"-0.021": 0.0,
			"-0.02": 0.0,
			"-0.019": 0.0,
			"-0.018": 0.0,
			"-0.017": 0.0,
			"-0.016": 0.0,
			"-0.015": 0.0,
			"-0.014": 0.0,
			"-0.013": 0.0,
			"-0.012": 0.0,
			"-0.011": 0.0,
			"-0.01": 0.0,
			"-0.009": 0.0,
			"-0.008": 1.88665692243,
			"-0.007": 6.53844261671,
			"-0.006": 8.94126643573,
			"-0.005": 10.3847372453,
			"-0.004": 12.4871829792,
			"-0.003": 17.3624058537,
			"-0.002": 11.8446958725,
			"-0.001": 11.4803668833,
			"0.0": 16.4731944425,
			"0.001": 22.2104008544,
			"0.002": 20.2981184328,
			"0.003": 18.7332292489,
			"0.004": 15.2719631318,
			"0.005": 7.0386061326,
			"0.006": 2.38778705556,
			"0.007": 2.35730900766,
			"0.008": 1.90757172005,
			"0.009": 1.5466481139,
			"0.01": 1.8527540717,
			"0.011": 0.86444317032,
			"0.012": 0.0,
			"0.013": 0.0,
			"0.014": 0.0,
			"0.015": 0.0,
			"0.016": 0.0,
			"0.017": 0.0,
			"0.018": 0.0,
			"0.019": 0.0,
			"0.02": 0.0,
			"0.021": 0.0,
			"0.022": 0.0,
			"0.023": 0.0,
			"0.024": 0.0,
			"0.025": 0.0
		}
	}
}
