{
	 "smiles": "OC(=O)CC1=CSC(=N1)C1=CC2=C(OCO2)C=C1", 
	 "Tm": 449.15, 
	 "num_atms": 27, 
	 "gaussian": { 
		 "optdone": 1, 
		 "sigma_profile": "yes", 
		 "theory": "DFT", 
		 "functional": "B3LYP", 
		 "basiset": "6-31G**", 
		 "properties": { 
			 "R2extent": 7396.6007, 
			 "electric_dipole_moment_norm": 6.5378858953, 
			 "electric_quadrupole_moment_norm": 34.6331521957, 
			 "total_energy": -1216.52396749, 
			 "HOMO_LUMO_gap": 0.15071, 
			 "cosmo_polarized_energy": -15.92, 
			 "cosmo_cavitation_energy": 33.58, 
			 "cosmo_dispersion_energy": -25.48, 
			 "cosmo_repulsion_energy": 1.91, 
			 "cosmo_total_nonelectrostatic_energy": 10.01, 
			 "SMD_solvation_energy": 6.9 
		},
		"coords": [
			{
				"x": 1.1201173565,
				"y": -2.8527142464,
				"z": -2.8484630761,
				"element": "O" 
			},
			{
				"x": 2.3269501139,
				"y": -3.4155612957,
				"z": -3.0160585178,
				"element": "C" 
			},
			{
				"x": 2.4589227276,
				"y": -4.5332855567,
				"z": -3.4541316785,
				"element": "O" 
			},
			{
				"x": 3.5427345216,
				"y": -2.5256119295,
				"z": -2.6925298639,
				"element": "C" 
			},
			{
				"x": 3.3872171716,
				"y": -1.5958518049,
				"z": -1.5205911511,
				"element": "C" 
			},
			{
				"x": 4.26958937,
				"y": -1.4199341184,
				"z": -0.4934504173,
				"element": "C" 
			},
			{
				"x": 3.6774306594,
				"y": -0.2190450518,
				"z": 0.6085561006,
				"element": "S" 
			},
			{
				"x": 2.2345706137,
				"y": -0.0423278254,
				"z": -0.3841959771,
				"element": "C" 
			},
			{
				"x": 2.2517064421,
				"y": -0.8148780228,
				"z": -1.4454989686,
				"element": "N" 
			},
			{
				"x": 1.1515824573,
				"y": 0.88787078,
				"z": -0.0562981896,
				"element": "C" 
			},
			{
				"x": 0.1914218721,
				"y": 1.1863045304,
				"z": -1.0573167475,
				"element": "C" 
			},
			{
				"x": -0.8170039116,
				"y": 2.0573520568,
				"z": -0.7177769151,
				"element": "C" 
			},
			{
				"x": -0.9064187091,
				"y": 2.6367452659,
				"z": 0.5497284483,
				"element": "C" 
			},
			{
				"x": -1.9893165706,
				"y": 3.4685714244,
				"z": 0.6042876745,
				"element": "O" 
			},
			{
				"x": -2.6557257526,
				"y": 3.3382994051,
				"z": -0.6614834358,
				"element": "C" 
			},
			{
				"x": -1.84348987,
				"y": 2.51391637,
				"z": -1.5044903791,
				"element": "O" 
			},
			{
				"x": 0.0171719063,
				"y": 2.363281773,
				"z": 1.5404540859,
				"element": "C" 
			},
			{
				"x": 1.0505674284,
				"y": 1.472102404,
				"z": 1.2156043979,
				"element": "C" 
			},
			{
				"x": 1.2227469404,
				"y": -1.9674242312,
				"z": -2.4264998962,
				"element": "H" 
			},
			{
				"x": 3.7303321383,
				"y": -1.9311060982,
				"z": -3.5984580436,
				"element": "H" 
			},
			{
				"x": 4.3999743109,
				"y": -3.1864430997,
				"z": -2.56065416,
				"element": "H" 
			},
			{
				"x": 5.2149972235,
				"y": -1.915319562,
				"z": -0.3262544259,
				"element": "H" 
			},
			{
				"x": 0.263361673,
				"y": 0.7498032729,
				"z": -2.0451780113,
				"element": "H" 
			},
			{
				"x": -2.7686507685,
				"y": 4.3283098477,
				"z": -1.1152157982,
				"element": "H" 
			},
			{
				"x": -3.6331243204,
				"y": 2.8622410016,
				"z": -0.5102828904,
				"element": "H" 
			},
			{
				"x": -0.0597818855,
				"y": 2.8114562622,
				"z": 2.5240545476,
				"element": "H" 
			},
			{
				"x": 1.7765168619,
				"y": 1.2208484487,
				"z": 1.9824432883,
				"element": "H" 
			}
		],
		 "valence_orbital": [ 
			{
				"type": "occ",
				"energy": -0.2936,
				"method": "rhf"
			},
			{
				"type": "occ",
				"energy": -0.28082,
				"method": "rhf"
			},
			{
				"type": "occ",
				"energy": -0.25958,
				"method": "rhf"
			},
			{
				"type": "occ",
				"energy": -0.24669,
				"method": "rhf"
			},
			{
				"type": "occ",
				"energy": -0.21769,
				"method": "rhf"
			},
			{
				"type": "unocc",
				"energy": -0.06698,
				"method": "rhf"
			},
			{
				"type": "unocc",
				"energy": -0.01847,
				"method": "rhf"
			},
			{
				"type": "unocc",
				"energy": 0.00188,
				"method": "rhf"
			},
			{
				"type": "unocc",
				"energy": 0.01044,
				"method": "rhf"
			},
			{
				"type": "unocc",
				"energy": 0.02742,
				"method": "rhf"
			}
		],
		"cosmo_sigma_profile": { 
			"-0.025": 0.0,
			"-0.024": 0.0,
			"-0.023": 0.0,
			"-0.022": 0.0,
			"-0.021": 0.0,
			"-0.02": 0.0,
			"-0.019": 0.0,
			"-0.018": 0.0,
			"-0.017": 0.0,
			"-0.016": 0.0,
			"-0.015": 0.0,
			"-0.014": 0.0,
			"-0.013": 0.0,
			"-0.012": 0.0,
			"-0.011": 0.0,
			"-0.01": 0.577262522984,
			"-0.009": 2.49558935815,
			"-0.008": 10.600416164,
			"-0.007": 18.7425568687,
			"-0.006": 17.1474922436,
			"-0.005": 16.4668995061,
			"-0.004": 15.0043460593,
			"-0.003": 16.2186060264,
			"-0.002": 14.0113853345,
			"-0.001": 16.3126365098,
			"0.0": 22.0645114673,
			"0.001": 25.469073297,
			"0.002": 26.9058118178,
			"0.003": 17.9223542268,
			"0.004": 6.14197555418,
			"0.005": 4.69542902438,
			"0.006": 5.52453926542,
			"0.007": 4.26122795382,
			"0.008": 5.81219967589,
			"0.009": 5.58198758252,
			"0.01": 3.83284018869,
			"0.011": 5.92412381648,
			"0.012": 6.44077938274,
			"0.013": 3.72774389539,
			"0.014": 0.465322901179,
			"0.015": 0.0,
			"0.016": 0.0,
			"0.017": 0.0,
			"0.018": 0.0,
			"0.019": 0.0,
			"0.02": 0.0,
			"0.021": 0.0,
			"0.022": 0.0,
			"0.023": 0.0,
			"0.024": 0.0,
			"0.025": 0.0
		}
	}
}
