{
	 "smiles": "OCC(O)C(O)C(O)C(=O)C(O)=O", 
	 "Tm": 444.15, 
	 "num_atms": 23, 
	 "gaussian": { 
		 "optdone": 1, 
		 "sigma_profile": "yes", 
		 "theory": "DFT", 
		 "functional": "B3LYP", 
		 "basiset": "6-31G**", 
		 "properties": { 
			 "R2extent": 3176.5712, 
			 "electric_dipole_moment_norm": 1.75930228784, 
			 "electric_quadrupole_moment_norm": 15.4502045168, 
			 "total_energy": -761.196877897, 
			 "HOMO_LUMO_gap": 0.17216, 
			 "cosmo_polarized_energy": -21.48, 
			 "cosmo_cavitation_energy": 26.42, 
			 "cosmo_dispersion_energy": -19.17, 
			 "cosmo_repulsion_energy": 1.55, 
			 "cosmo_total_nonelectrostatic_energy": 8.8, 
			 "SMD_solvation_energy": 6.27 
		},
		"coords": [
			{
				"x": 1.3203139528,
				"y": 0.5961513166,
				"z": -2.9092666475,
				"element": "O" 
			},
			{
				"x": 0.9169573881,
				"y": 1.5017699975,
				"z": -1.8757647827,
				"element": "C" 
			},
			{
				"x": 0.9061526227,
				"y": 0.7856851266,
				"z": -0.5196359042,
				"element": "C" 
			},
			{
				"x": 0.728656458,
				"y": 1.7785379397,
				"z": 0.481661881,
				"element": "O" 
			},
			{
				"x": -0.1920632979,
				"y": -0.283180895,
				"z": -0.3056019139,
				"element": "C" 
			},
			{
				"x": -1.4646462018,
				"y": 0.3550090968,
				"z": -0.3749926882,
				"element": "O" 
			},
			{
				"x": -0.2303940056,
				"y": -1.5102543954,
				"z": -1.2577857887,
				"element": "C" 
			},
			{
				"x": -0.7214996797,
				"y": -1.1405784926,
				"z": -2.5242587355,
				"element": "O" 
			},
			{
				"x": 1.0840763055,
				"y": -2.2807923735,
				"z": -1.3633819317,
				"element": "C" 
			},
			{
				"x": 1.7081180708,
				"y": -2.3987697482,
				"z": -2.3916708355,
				"element": "O" 
			},
			{
				"x": 1.5600345994,
				"y": -2.9647035956,
				"z": -0.0638652964,
				"element": "C" 
			},
			{
				"x": 2.7431673015,
				"y": -3.5723797743,
				"z": -0.2142602876,
				"element": "O" 
			},
			{
				"x": 0.9180322635,
				"y": -2.9540138528,
				"z": 0.9654924501,
				"element": "O" 
			},
			{
				"x": 1.5069976954,
				"y": 1.0960007756,
				"z": -3.7132002813,
				"element": "H" 
			},
			{
				"x": 1.623698775,
				"y": 2.3347341209,
				"z": -1.7920664726,
				"element": "H" 
			},
			{
				"x": -0.0806854802,
				"y": 1.9193423449,
				"z": -2.0757580258,
				"element": "H" 
			},
			{
				"x": 1.8948268001,
				"y": 0.337022728,
				"z": -0.3583008165,
				"element": "H" 
			},
			{
				"x": -0.2301083231,
				"y": 1.9257554444,
				"z": 0.5244634483,
				"element": "H" 
			},
			{
				"x": -0.0714710176,
				"y": -0.6446466858,
				"z": 0.7192017133,
				"element": "H" 
			},
			{
				"x": -1.7479499086,
				"y": 0.253849263,
				"z": -1.3000909605,
				"element": "H" 
			},
			{
				"x": -0.9652984166,
				"y": -2.1949000389,
				"z": -0.8154205283,
				"element": "H" 
			},
			{
				"x": 0.0128285887,
				"y": -0.6714706608,
				"z": -2.9742563818,
				"element": "H" 
			},
			{
				"x": 2.9567555092,
				"y": -3.981767641,
				"z": 0.641958786,
				"element": "H" 
			}
		],
		 "valence_orbital": [ 
			{
				"type": "occ",
				"energy": -0.30497,
				"method": "rhf"
			},
			{
				"type": "occ",
				"energy": -0.29516,
				"method": "rhf"
			},
			{
				"type": "occ",
				"energy": -0.29247,
				"method": "rhf"
			},
			{
				"type": "occ",
				"energy": -0.26864,
				"method": "rhf"
			},
			{
				"type": "occ",
				"energy": -0.25946,
				"method": "rhf"
			},
			{
				"type": "unocc",
				"energy": -0.0873,
				"method": "rhf"
			},
			{
				"type": "unocc",
				"energy": 0.04214,
				"method": "rhf"
			},
			{
				"type": "unocc",
				"energy": 0.04846,
				"method": "rhf"
			},
			{
				"type": "unocc",
				"energy": 0.06078,
				"method": "rhf"
			},
			{
				"type": "unocc",
				"energy": 0.07775,
				"method": "rhf"
			}
		],
		"cosmo_sigma_profile": { 
			"-0.025": 0.0,
			"-0.024": 0.0,
			"-0.023": 0.0,
			"-0.022": 0.0,
			"-0.021": 0.0,
			"-0.02": 0.523415901796,
			"-0.019": 1.11948302412,
			"-0.018": 1.08218897536,
			"-0.017": 1.9056931132,
			"-0.016": 1.97127031251,
			"-0.015": 1.08020861901,
			"-0.014": 1.1574871191,
			"-0.013": 2.75844823114,
			"-0.012": 2.32224353485,
			"-0.011": 2.21902341301,
			"-0.01": 3.25461300044,
			"-0.009": 5.64734776502,
			"-0.008": 5.72033833226,
			"-0.007": 8.18104040559,
			"-0.006": 8.82600094626,
			"-0.005": 11.890627342,
			"-0.004": 13.0621245922,
			"-0.003": 12.9944419286,
			"-0.002": 11.711216746,
			"-0.001": 8.58349467294,
			"0.0": 7.03362953415,
			"0.001": 6.83830803522,
			"0.002": 6.43139699378,
			"0.003": 6.37041719012,
			"0.004": 6.67426884127,
			"0.005": 5.79585195796,
			"0.006": 6.61887553593,
			"0.007": 8.24521212291,
			"0.008": 8.88107295343,
			"0.009": 11.0280424961,
			"0.01": 11.0561863625,
			"0.011": 6.59302985699,
			"0.012": 3.26555671926,
			"0.013": 3.81780479993,
			"0.014": 1.58546184581,
			"0.015": 0.00671941919344,
			"0.016": 0.0,
			"0.017": 0.0,
			"0.018": 0.0,
			"0.019": 0.0,
			"0.02": 0.0,
			"0.021": 0.0,
			"0.022": 0.0,
			"0.023": 0.0,
			"0.024": 0.0,
			"0.025": 0.0
		}
	}
}
