{
	 "smiles": "CCCN(C)S(N)(=O)=O", 
	 "Tm": 306.15, 
	 "num_atms": 21, 
	 "gaussian": { 
		 "optdone": 1, 
		 "sigma_profile": "yes", 
		 "theory": "DFT", 
		 "functional": "B3LYP", 
		 "basiset": "6-31G**", 
		 "properties": { 
			 "R2extent": 2057.5742, 
			 "electric_dipole_moment_norm": 3.82492261621, 
			 "electric_quadrupole_moment_norm": 12.93377251, 
			 "total_energy": -817.728442939, 
			 "HOMO_LUMO_gap": 0.30477, 
			 "cosmo_polarized_energy": -13.65, 
			 "cosmo_cavitation_energy": 24.4, 
			 "cosmo_dispersion_energy": -18.08, 
			 "cosmo_repulsion_energy": 1.45, 
			 "cosmo_total_nonelectrostatic_energy": 7.77, 
			 "SMD_solvation_energy": 3.65 
		},
		"coords": [
			{
				"x": -0.753329188,
				"y": 1.6971279434,
				"z": 0.0273463297,
				"element": "C" 
			},
			{
				"x": -1.1449730888,
				"y": 0.5400863022,
				"z": -0.8951258469,
				"element": "C" 
			},
			{
				"x": -0.0986362248,
				"y": -0.5808002665,
				"z": -0.9505838512,
				"element": "C" 
			},
			{
				"x": 0.1113896027,
				"y": -1.2140563299,
				"z": 0.3684655737,
				"element": "N" 
			},
			{
				"x": -0.9485433191,
				"y": -2.1400070285,
				"z": 0.7861790195,
				"element": "C" 
			},
			{
				"x": 1.6669271955,
				"y": -1.7564305815,
				"z": 0.6800492897,
				"element": "S" 
			},
			{
				"x": 1.8976253976,
				"y": -3.0950556831,
				"z": -0.3545538325,
				"element": "N" 
			},
			{
				"x": 1.6679665889,
				"y": -2.2855702863,
				"z": 2.0411743164,
				"element": "O" 
			},
			{
				"x": 2.5839186908,
				"y": -0.7089156357,
				"z": 0.2373936712,
				"element": "O" 
			},
			{
				"x": 0.1895157823,
				"y": 2.1535677756,
				"z": -0.2930869495,
				"element": "H" 
			},
			{
				"x": -0.6171831125,
				"y": 1.3500830827,
				"z": 1.0552276393,
				"element": "H" 
			},
			{
				"x": -1.5223187241,
				"y": 2.476065677,
				"z": 0.0269652413,
				"element": "H" 
			},
			{
				"x": -2.1197263359,
				"y": 0.1337681407,
				"z": -0.5974040146,
				"element": "H" 
			},
			{
				"x": -1.2766863402,
				"y": 0.9036275416,
				"z": -1.9223285629,
				"element": "H" 
			},
			{
				"x": 0.8559139454,
				"y": -0.1546223999,
				"z": -1.2657446336,
				"element": "H" 
			},
			{
				"x": -0.3918472064,
				"y": -1.3439995503,
				"z": -1.6880839281,
				"element": "H" 
			},
			{
				"x": -1.8969246961,
				"y": -1.5991148018,
				"z": 0.7865035468,
				"element": "H" 
			},
			{
				"x": -1.0317974993,
				"y": -3.0035087768,
				"z": 0.1098744611,
				"element": "H" 
			},
			{
				"x": -0.7493595039,
				"y": -2.4842144031,
				"z": 1.8003992701,
				"element": "H" 
			},
			{
				"x": 2.6427809376,
				"y": -2.8813690918,
				"z": -1.0120188833,
				"element": "H" 
			},
			{
				"x": 2.1396870983,
				"y": -3.9057616281,
				"z": 0.2087521439,
				"element": "H" 
			}
		],
		 "valence_orbital": [ 
			{
				"type": "occ",
				"energy": -0.33331,
				"method": "rhf"
			},
			{
				"type": "occ",
				"energy": -0.3177,
				"method": "rhf"
			},
			{
				"type": "occ",
				"energy": -0.30336,
				"method": "rhf"
			},
			{
				"type": "occ",
				"energy": -0.29476,
				"method": "rhf"
			},
			{
				"type": "occ",
				"energy": -0.25649,
				"method": "rhf"
			},
			{
				"type": "unocc",
				"energy": 0.04828,
				"method": "rhf"
			},
			{
				"type": "unocc",
				"energy": 0.07794,
				"method": "rhf"
			},
			{
				"type": "unocc",
				"energy": 0.08981,
				"method": "rhf"
			},
			{
				"type": "unocc",
				"energy": 0.09584,
				"method": "rhf"
			},
			{
				"type": "unocc",
				"energy": 0.10617,
				"method": "rhf"
			}
		],
		"cosmo_sigma_profile": { 
			"-0.025": 0.0,
			"-0.024": 0.0,
			"-0.023": 0.0,
			"-0.022": 0.0,
			"-0.021": 0.0,
			"-0.02": 0.0,
			"-0.019": 0.0,
			"-0.018": 0.0,
			"-0.017": 0.0,
			"-0.016": 0.0,
			"-0.015": 0.295981364059,
			"-0.014": 2.55126431271,
			"-0.013": 2.51172973814,
			"-0.012": 2.03699650648,
			"-0.011": 2.77078413782,
			"-0.01": 2.12043405527,
			"-0.009": 2.09321198395,
			"-0.008": 0.872622613381,
			"-0.007": 1.71727989115,
			"-0.006": 3.12206749117,
			"-0.005": 6.99663444484,
			"-0.004": 13.8670647145,
			"-0.003": 23.3397055135,
			"-0.002": 24.4107320346,
			"-0.001": 15.0514856275,
			"0.0": 14.1173712971,
			"0.001": 11.571951881,
			"0.002": 8.20586655719,
			"0.003": 5.11718129243,
			"0.004": 4.10394978836,
			"0.005": 5.76062734135,
			"0.006": 5.70554311939,
			"0.007": 4.00800766154,
			"0.008": 3.24698933532,
			"0.009": 3.65973824555,
			"0.01": 8.39149307771,
			"0.011": 9.44142561968,
			"0.012": 2.87230156838,
			"0.013": 0.0,
			"0.014": 0.0,
			"0.015": 0.0,
			"0.016": 0.0,
			"0.017": 0.0,
			"0.018": 0.0,
			"0.019": 0.0,
			"0.02": 0.0,
			"0.021": 0.0,
			"0.022": 0.0,
			"0.023": 0.0,
			"0.024": 0.0,
			"0.025": 0.0
		}
	}
}
