{
	 "smiles": "NC(=O)C1=C(Cl)C=C(NC(=O)OCC(F)(F)F)C=C1", 
	 "Tm": 452.15, 
	 "num_atms": 27, 
	 "gaussian": { 
		 "optdone": 1, 
		 "sigma_profile": "yes", 
		 "theory": "DFT", 
		 "functional": "B3LYP", 
		 "basiset": "6-31G**", 
		 "properties": { 
			 "R2extent": 8141.4501, 
			 "electric_dipole_moment_norm": 3.19175324861, 
			 "electric_quadrupole_moment_norm": 16.1710674966, 
			 "total_energy": -1480.813512, 
			 "HOMO_LUMO_gap": 0.19393, 
			 "cosmo_polarized_energy": -18.12, 
			 "cosmo_cavitation_energy": 35.7, 
			 "cosmo_dispersion_energy": -25.32, 
			 "cosmo_repulsion_energy": 1.89, 
			 "cosmo_total_nonelectrostatic_energy": 12.27, 
			 "SMD_solvation_energy": 8.74 
		},
		"coords": [
			{
				"x": 2.1869973315,
				"y": 2.8437965243,
				"z": -3.066069075,
				"element": "N" 
			},
			{
				"x": 1.726632284,
				"y": 2.6015178387,
				"z": -1.8101550593,
				"element": "C" 
			},
			{
				"x": 1.5724217084,
				"y": 3.5141975141,
				"z": -1.0035286724,
				"element": "O" 
			},
			{
				"x": 1.3613638957,
				"y": 1.1824379098,
				"z": -1.4165157051,
				"element": "C" 
			},
			{
				"x": 1.6314494074,
				"y": -0.0379264608,
				"z": -2.0578868038,
				"element": "C" 
			},
			{
				"x": 2.5451368642,
				"y": -0.1709206374,
				"z": -3.5707484375,
				"element": "Cl" 
			},
			{
				"x": 1.2061868296,
				"y": -1.2552968332,
				"z": -1.5333550553,
				"element": "C" 
			},
			{
				"x": 0.48995332,
				"y": -1.3065419627,
				"z": -0.330258866,
				"element": "C" 
			},
			{
				"x": 0.1345523144,
				"y": -2.5875930316,
				"z": 0.135069199,
				"element": "N" 
			},
			{
				"x": -0.7871101552,
				"y": -3.0180876179,
				"z": 1.058847629,
				"element": "C" 
			},
			{
				"x": -0.9154906637,
				"y": -4.183673455,
				"z": 1.370127614,
				"element": "O" 
			},
			{
				"x": -1.5460026776,
				"y": -1.9948255428,
				"z": 1.5399623973,
				"element": "O" 
			},
			{
				"x": -2.4134453862,
				"y": -2.3082347318,
				"z": 2.6251659412,
				"element": "C" 
			},
			{
				"x": -1.821356608,
				"y": -1.7367186865,
				"z": 3.9020483611,
				"element": "C" 
			},
			{
				"x": -0.6312588532,
				"y": -2.2956890239,
				"z": 4.1853623046,
				"element": "F" 
			},
			{
				"x": -2.6579473512,
				"y": -1.9665992581,
				"z": 4.9325572074,
				"element": "F" 
			},
			{
				"x": -1.6337968671,
				"y": -0.4039894076,
				"z": 3.803784001,
				"element": "F" 
			},
			{
				"x": 0.2195090686,
				"y": -0.1069937826,
				"z": 0.3453316476,
				"element": "C" 
			},
			{
				"x": 0.6528035669,
				"y": 1.0892348533,
				"z": -0.2051541562,
				"element": "C" 
			},
			{
				"x": 2.3532022161,
				"y": 2.1236030023,
				"z": -3.7484054006,
				"element": "H" 
			},
			{
				"x": 2.4214422964,
				"y": 3.8016100856,
				"z": -3.2770205028,
				"element": "H" 
			},
			{
				"x": 1.4339628207,
				"y": -2.1695411783,
				"z": -2.0713928935,
				"element": "H" 
			},
			{
				"x": 0.6133214832,
				"y": -3.3692933463,
				"z": -0.2904970717,
				"element": "H" 
			},
			{
				"x": -3.3751897794,
				"y": -1.829345627,
				"z": 2.4330605361,
				"element": "H" 
			},
			{
				"x": -2.5319242884,
				"y": -3.3879724479,
				"z": 2.726707633,
				"element": "H" 
			},
			{
				"x": -0.312939954,
				"y": -0.1082876484,
				"z": 1.2850840006,
				"element": "H" 
			},
			{
				"x": 0.4640271769,
				"y": 2.0251329517,
				"z": 0.3085792273,
				"element": "H" 
			}
		],
		 "valence_orbital": [ 
			{
				"type": "occ",
				"energy": -0.30636,
				"method": "rhf"
			},
			{
				"type": "occ",
				"energy": -0.26871,
				"method": "rhf"
			},
			{
				"type": "occ",
				"energy": -0.26594,
				"method": "rhf"
			},
			{
				"type": "occ",
				"energy": -0.25754,
				"method": "rhf"
			},
			{
				"type": "occ",
				"energy": -0.24434,
				"method": "rhf"
			},
			{
				"type": "unocc",
				"energy": -0.05041,
				"method": "rhf"
			},
			{
				"type": "unocc",
				"energy": -0.02668,
				"method": "rhf"
			},
			{
				"type": "unocc",
				"energy": 0.00496,
				"method": "rhf"
			},
			{
				"type": "unocc",
				"energy": 0.02303,
				"method": "rhf"
			},
			{
				"type": "unocc",
				"energy": 0.05949,
				"method": "rhf"
			}
		],
		"cosmo_sigma_profile": { 
			"-0.025": 0.0,
			"-0.024": 0.0,
			"-0.023": 0.0,
			"-0.022": 0.0,
			"-0.021": 0.0,
			"-0.02": 0.0,
			"-0.019": 0.0,
			"-0.018": 0.0,
			"-0.017": 0.271247922269,
			"-0.016": 0.950330439132,
			"-0.015": 1.69430062782,
			"-0.014": 2.05418053016,
			"-0.013": 2.35177073912,
			"-0.012": 2.1239441811,
			"-0.011": 2.73851565786,
			"-0.01": 4.27410467499,
			"-0.009": 6.40393942899,
			"-0.008": 7.07021698943,
			"-0.007": 7.82627339181,
			"-0.006": 6.95674478762,
			"-0.005": 9.28088003706,
			"-0.004": 10.9467560148,
			"-0.003": 14.9924972188,
			"-0.002": 16.5476566917,
			"-0.001": 20.3725525322,
			"0.0": 23.4094845057,
			"0.001": 27.7440811736,
			"0.002": 47.9657788341,
			"0.003": 28.9868890109,
			"0.004": 7.35549353105,
			"0.005": 3.96762279379,
			"0.006": 2.82655340745,
			"0.007": 2.48044772585,
			"0.008": 2.30495869176,
			"0.009": 3.13203329643,
			"0.01": 2.94341454334,
			"0.011": 5.47251752326,
			"0.012": 4.93764380319,
			"0.013": 4.37346092766,
			"0.014": 3.21556881282,
			"0.015": 0.341065883254,
			"0.016": 0.0,
			"0.017": 0.0,
			"0.018": 0.0,
			"0.019": 0.0,
			"0.02": 0.0,
			"0.021": 0.0,
			"0.022": 0.0,
			"0.023": 0.0,
			"0.024": 0.0,
			"0.025": 0.0
		}
	}
}
