{
	 "smiles": "CC(=O)NC1=C(N)C=CC=N1", 
	 "Tm": 409.15, 
	 "num_atms": 20, 
	 "gaussian": { 
		 "optdone": 1, 
		 "sigma_profile": "yes", 
		 "theory": "DFT", 
		 "functional": "B3LYP", 
		 "basiset": "6-31G**", 
		 "properties": { 
			 "R2extent": 2003.9715, 
			 "electric_dipole_moment_norm": 0.660463965709, 
			 "electric_quadrupole_moment_norm": 13.9412358624, 
			 "total_energy": -511.674140983, 
			 "HOMO_LUMO_gap": 0.17732, 
			 "cosmo_polarized_energy": -12.26, 
			 "cosmo_cavitation_energy": 23.69, 
			 "cosmo_dispersion_energy": -17.94, 
			 "cosmo_repulsion_energy": 1.44, 
			 "cosmo_total_nonelectrostatic_energy": 7.2, 
			 "SMD_solvation_energy": 3.39 
		},
		"coords": [
			{
				"x": -3.5179630709,
				"y": -1.1178695225,
				"z": -2.0654053702,
				"element": "C" 
			},
			{
				"x": -2.138554438,
				"y": -1.2326858387,
				"z": -1.4374697118,
				"element": "C" 
			},
			{
				"x": -1.5986890085,
				"y": -2.3312477543,
				"z": -1.3037572282,
				"element": "O" 
			},
			{
				"x": -1.5911822175,
				"y": -0.045329578,
				"z": -1.0329812867,
				"element": "N" 
			},
			{
				"x": -0.2881863856,
				"y": 0.2631067399,
				"z": -0.5473984295,
				"element": "C" 
			},
			{
				"x": 0.4502094948,
				"y": -0.554868569,
				"z": 0.3487650196,
				"element": "C" 
			},
			{
				"x": -0.0506021659,
				"y": -1.7273841665,
				"z": 0.8832117403,
				"element": "N" 
			},
			{
				"x": 1.702650486,
				"y": -0.0457725036,
				"z": 0.7364097443,
				"element": "C" 
			},
			{
				"x": 2.1378811657,
				"y": 1.197673468,
				"z": 0.2942439208,
				"element": "C" 
			},
			{
				"x": 1.3058672353,
				"y": 1.9298302471,
				"z": -0.5500396237,
				"element": "C" 
			},
			{
				"x": 0.1234777977,
				"y": 1.4623546967,
				"z": -0.9595076463,
				"element": "N" 
			},
			{
				"x": -4.2380674042,
				"y": -1.6315144547,
				"z": -1.4215666173,
				"element": "H" 
			},
			{
				"x": -3.5066196237,
				"y": -1.6424327916,
				"z": -3.0240201979,
				"element": "H" 
			},
			{
				"x": -3.8543874367,
				"y": -0.0896456077,
				"z": -2.2192831539,
				"element": "H" 
			},
			{
				"x": -2.0447011305,
				"y": 0.7963701348,
				"z": -1.3649920176,
				"element": "H" 
			},
			{
				"x": 0.6416329312,
				"y": -2.2881054331,
				"z": 1.3620502999,
				"element": "H" 
			},
			{
				"x": -0.6259702588,
				"y": -2.2631865972,
				"z": 0.2307550188,
				"element": "H" 
			},
			{
				"x": 2.3173104528,
				"y": -0.6359657887,
				"z": 1.4119340516,
				"element": "H" 
			},
			{
				"x": 3.1001029437,
				"y": 1.5922656666,
				"z": 0.6045985546,
				"element": "H" 
			},
			{
				"x": 1.5873906332,
				"y": 2.9164076526,
				"z": -0.909647067,
				"element": "H" 
			}
		],
		 "valence_orbital": [ 
			{
				"type": "occ",
				"energy": -0.30528,
				"method": "rhf"
			},
			{
				"type": "occ",
				"energy": -0.26883,
				"method": "rhf"
			},
			{
				"type": "occ",
				"energy": -0.25964,
				"method": "rhf"
			},
			{
				"type": "occ",
				"energy": -0.25487,
				"method": "rhf"
			},
			{
				"type": "occ",
				"energy": -0.20041,
				"method": "rhf"
			},
			{
				"type": "unocc",
				"energy": -0.02309,
				"method": "rhf"
			},
			{
				"type": "unocc",
				"energy": 0.00358,
				"method": "rhf"
			},
			{
				"type": "unocc",
				"energy": 0.03341,
				"method": "rhf"
			},
			{
				"type": "unocc",
				"energy": 0.07765,
				"method": "rhf"
			},
			{
				"type": "unocc",
				"energy": 0.09555,
				"method": "rhf"
			}
		],
		"cosmo_sigma_profile": { 
			"-0.025": 0.0,
			"-0.024": 0.0,
			"-0.023": 0.0,
			"-0.022": 0.0,
			"-0.021": 0.0,
			"-0.02": 0.0,
			"-0.019": 0.0,
			"-0.018": 0.0,
			"-0.017": 0.0,
			"-0.016": 0.0,
			"-0.015": 0.0327677179905,
			"-0.014": 0.602001039646,
			"-0.013": 1.35009217525,
			"-0.012": 2.38525164634,
			"-0.011": 2.83146753829,
			"-0.01": 2.87338978584,
			"-0.009": 2.36305136461,
			"-0.008": 3.10801225478,
			"-0.007": 4.81461786029,
			"-0.006": 10.2665987278,
			"-0.005": 14.0494348234,
			"-0.004": 13.8896643503,
			"-0.003": 12.0366509292,
			"-0.002": 14.1801048165,
			"-0.001": 10.2762870029,
			"0.0": 7.36421920334,
			"0.001": 9.52200953314,
			"0.002": 13.9864614204,
			"0.003": 14.1280525317,
			"0.004": 13.0421007555,
			"0.005": 5.04884963652,
			"0.006": 4.33641423578,
			"0.007": 4.0997926696,
			"0.008": 3.64081299204,
			"0.009": 1.90041874736,
			"0.01": 3.76825706215,
			"0.011": 3.54378374455,
			"0.012": 3.3763895418,
			"0.013": 3.63550124555,
			"0.014": 2.01261054337,
			"0.015": 0.140243524036,
			"0.016": 0.0,
			"0.017": 0.0,
			"0.018": 0.0,
			"0.019": 0.0,
			"0.02": 0.0,
			"0.021": 0.0,
			"0.022": 0.0,
			"0.023": 0.0,
			"0.024": 0.0,
			"0.025": 0.0
		}
	}
}
