{
	 "smiles": "CC(C)(O)C#N", 
	 "Tm": 254.15, 
	 "num_atms": 13, 
	 "gaussian": { 
		 "optdone": 1, 
		 "sigma_profile": "yes", 
		 "theory": "DFT", 
		 "functional": "B3LYP", 
		 "basiset": "6-31G**", 
		 "properties": { 
			 "R2extent": 651.1324, 
			 "electric_dipole_moment_norm": 3.29637649094, 
			 "electric_quadrupole_moment_norm": 11.0070778988, 
			 "total_energy": -286.597831651, 
			 "HOMO_LUMO_gap": 0.31808, 
			 "cosmo_polarized_energy": -10.7, 
			 "cosmo_cavitation_energy": 17.1, 
			 "cosmo_dispersion_energy": -11.88, 
			 "cosmo_repulsion_energy": 1.05, 
			 "cosmo_total_nonelectrostatic_energy": 6.26, 
			 "SMD_solvation_energy": 4.75 
		},
		"coords": [
			{
				"x": 0.1406079177,
				"y": -0.78829938,
				"z": -1.4798696379,
				"element": "C" 
			},
			{
				"x": 0.1419604653,
				"y": -0.4124330988,
				"z": 0.0067254743,
				"element": "C" 
			},
			{
				"x": 1.2803823254,
				"y": 0.5638346208,
				"z": 0.3491761159,
				"element": "C" 
			},
			{
				"x": -1.1308289552,
				"y": 0.174335219,
				"z": 0.2612618296,
				"element": "O" 
			},
			{
				"x": 0.2909562232,
				"y": -1.6436397945,
				"z": 0.8338782918,
				"element": "C" 
			},
			{
				"x": 0.3982887259,
				"y": -2.5834397906,
				"z": 1.5070010834,
				"element": "N" 
			},
			{
				"x": 0.0133941173,
				"y": 0.1223690302,
				"z": -2.0712138514,
				"element": "H" 
			},
			{
				"x": -0.6888336909,
				"y": -1.4651102448,
				"z": -1.6953676299,
				"element": "H" 
			},
			{
				"x": 1.079269546,
				"y": -1.2718859778,
				"z": -1.7604816824,
				"element": "H" 
			},
			{
				"x": 2.2585558836,
				"y": 0.1256457132,
				"z": 0.1322341036,
				"element": "H" 
			},
			{
				"x": 1.1554518036,
				"y": 1.4730245036,
				"z": -0.2451358082,
				"element": "H" 
			},
			{
				"x": 1.2575590119,
				"y": 0.8312271336,
				"z": 1.410622064,
				"element": "H" 
			},
			{
				"x": -1.1700633739,
				"y": 0.4281720662,
				"z": 1.1939696471,
				"element": "H" 
			}
		],
		 "valence_orbital": [ 
			{
				"type": "occ",
				"energy": -0.37416,
				"method": "rhf"
			},
			{
				"type": "occ",
				"energy": -0.35506,
				"method": "rhf"
			},
			{
				"type": "occ",
				"energy": -0.33518,
				"method": "rhf"
			},
			{
				"type": "occ",
				"energy": -0.32499,
				"method": "rhf"
			},
			{
				"type": "occ",
				"energy": -0.29997,
				"method": "rhf"
			},
			{
				"type": "unocc",
				"energy": 0.01811,
				"method": "rhf"
			},
			{
				"type": "unocc",
				"energy": 0.03493,
				"method": "rhf"
			},
			{
				"type": "unocc",
				"energy": 0.05924,
				"method": "rhf"
			},
			{
				"type": "unocc",
				"energy": 0.11394,
				"method": "rhf"
			},
			{
				"type": "unocc",
				"energy": 0.12392,
				"method": "rhf"
			}
		],
		"cosmo_sigma_profile": { 
			"-0.025": 0.0,
			"-0.024": 0.0,
			"-0.023": 0.0,
			"-0.022": 0.0,
			"-0.021": 0.0,
			"-0.02": 0.0,
			"-0.019": 0.0,
			"-0.018": 0.00507207430522,
			"-0.017": 0.634011061634,
			"-0.016": 0.964371623987,
			"-0.015": 0.950061680083,
			"-0.014": 1.06612308393,
			"-0.013": 1.23069167461,
			"-0.012": 0.693913427192,
			"-0.011": 1.16169527538,
			"-0.01": 1.3216682939,
			"-0.009": 0.626097148177,
			"-0.008": 1.01631753341,
			"-0.007": 1.76951297977,
			"-0.006": 5.13054260138,
			"-0.005": 12.3532814272,
			"-0.004": 11.3306965112,
			"-0.003": 12.4206115613,
			"-0.002": 13.9992163777,
			"-0.001": 14.2455901319,
			"0.0": 5.24122301949,
			"0.001": 3.56250594575,
			"0.002": 2.62364493993,
			"0.003": 3.08808646886,
			"0.004": 3.43064455914,
			"0.005": 3.96474850877,
			"0.006": 3.84890693584,
			"0.007": 4.11314327973,
			"0.008": 4.15540750278,
			"0.009": 4.31514249172,
			"0.01": 4.57765088769,
			"0.011": 4.59435880544,
			"0.012": 4.15176376934,
			"0.013": 1.80559347736,
			"0.014": 0.0726219421091,
			"0.015": 0.0,
			"0.016": 0.0,
			"0.017": 0.0,
			"0.018": 0.0,
			"0.019": 0.0,
			"0.02": 0.0,
			"0.021": 0.0,
			"0.022": 0.0,
			"0.023": 0.0,
			"0.024": 0.0,
			"0.025": 0.0
		}
	}
}
