{
	 "smiles": "CS(=O)(=O)C1=CC(=CC=C1)C(=O)NN", 
	 "Tm": 418.15, 
	 "num_atms": 24, 
	 "gaussian": { 
		 "optdone": 1, 
		 "sigma_profile": "yes", 
		 "theory": "DFT", 
		 "functional": "B3LYP", 
		 "basiset": "6-31G**", 
		 "properties": { 
			 "R2extent": 3765.1659, 
			 "electric_dipole_moment_norm": 2.16435501016, 
			 "electric_quadrupole_moment_norm": 25.5385446212, 
			 "total_energy": -1044.15068472, 
			 "HOMO_LUMO_gap": 0.19591, 
			 "cosmo_polarized_energy": -22.47, 
			 "cosmo_cavitation_energy": 29.96, 
			 "cosmo_dispersion_energy": -21.63, 
			 "cosmo_repulsion_energy": 1.67, 
			 "cosmo_total_nonelectrostatic_energy": 10.01, 
			 "SMD_solvation_energy": 6.02 
		},
		"coords": [
			{
				"x": 0.7085055315,
				"y": 1.2775602172,
				"z": 4.0136224437,
				"element": "C" 
			},
			{
				"x": 1.5238056816,
				"y": 0.3029035958,
				"z": 2.727204511,
				"element": "S" 
			},
			{
				"x": 2.4231200403,
				"y": 1.2059257359,
				"z": 1.9900252475,
				"element": "O" 
			},
			{
				"x": 2.024575065,
				"y": -0.9299862108,
				"z": 3.3529623454,
				"element": "O" 
			},
			{
				"x": 0.1824129831,
				"y": -0.1494962985,
				"z": 1.6124950979,
				"element": "C" 
			},
			{
				"x": -0.0854881449,
				"y": 0.6751204353,
				"z": 0.520776536,
				"element": "C" 
			},
			{
				"x": -1.1196134533,
				"y": 0.3354829886,
				"z": -0.3587552728,
				"element": "C" 
			},
			{
				"x": -1.8815827637,
				"y": -0.8148462333,
				"z": -0.107624332,
				"element": "C" 
			},
			{
				"x": -1.5855904828,
				"y": -1.6448343521,
				"z": 0.9727859408,
				"element": "C" 
			},
			{
				"x": -0.5419854322,
				"y": -1.3204229976,
				"z": 1.8415635769,
				"element": "C" 
			},
			{
				"x": -1.5294521244,
				"y": 1.1971020864,
				"z": -1.5231600234,
				"element": "C" 
			},
			{
				"x": -2.7097822381,
				"y": 1.3168780313,
				"z": -1.8301681725,
				"element": "O" 
			},
			{
				"x": -0.5489206575,
				"y": 1.8634727994,
				"z": -2.2266361979,
				"element": "N" 
			},
			{
				"x": 0.8040890489,
				"y": 1.4849031993,
				"z": -2.3565270867,
				"element": "N" 
			},
			{
				"x": 0.2465144065,
				"y": 2.1561188109,
				"z": 3.5612898981,
				"element": "H" 
			},
			{
				"x": -0.0329523283,
				"y": 0.657022864,
				"z": 4.5186116387,
				"element": "H" 
			},
			{
				"x": 1.4930197966,
				"y": 1.576880252,
				"z": 4.7118020905,
				"element": "H" 
			},
			{
				"x": 0.5072083967,
				"y": 1.5711833387,
				"z": 0.3807315115,
				"element": "H" 
			},
			{
				"x": -2.7058906734,
				"y": -1.0420289987,
				"z": -0.7754000771,
				"element": "H" 
			},
			{
				"x": -2.1667322189,
				"y": -2.5465230906,
				"z": 1.1391784278,
				"element": "H" 
			},
			{
				"x": -0.2788830774,
				"y": -1.9639978593,
				"z": 2.6745043831,
				"element": "H" 
			},
			{
				"x": -0.9153820186,
				"y": 2.3393386128,
				"z": -3.0431484329,
				"element": "H" 
			},
			{
				"x": 0.9002363549,
				"y": 0.4734771504,
				"z": -2.3244901549,
				"element": "H" 
			},
			{
				"x": 1.3581683085,
				"y": 1.8857659228,
				"z": -1.6058438988,
				"element": "H" 
			}
		],
		 "valence_orbital": [ 
			{
				"type": "occ",
				"energy": -0.29933,
				"method": "rhf"
			},
			{
				"type": "occ",
				"energy": -0.28631,
				"method": "rhf"
			},
			{
				"type": "occ",
				"energy": -0.28614,
				"method": "rhf"
			},
			{
				"type": "occ",
				"energy": -0.26289,
				"method": "rhf"
			},
			{
				"type": "occ",
				"energy": -0.25675,
				"method": "rhf"
			},
			{
				"type": "unocc",
				"energy": -0.06084,
				"method": "rhf"
			},
			{
				"type": "unocc",
				"energy": -0.04726,
				"method": "rhf"
			},
			{
				"type": "unocc",
				"energy": 0.02433,
				"method": "rhf"
			},
			{
				"type": "unocc",
				"energy": 0.05083,
				"method": "rhf"
			},
			{
				"type": "unocc",
				"energy": 0.0716,
				"method": "rhf"
			}
		],
		"cosmo_sigma_profile": { 
			"-0.025": 0.0,
			"-0.024": 0.0,
			"-0.023": 0.0,
			"-0.022": 0.0,
			"-0.021": 0.0,
			"-0.02": 0.0,
			"-0.019": 0.0,
			"-0.018": 0.0,
			"-0.017": 0.0,
			"-0.016": 0.0,
			"-0.015": 0.0,
			"-0.014": 0.238336509719,
			"-0.013": 1.00054437,
			"-0.012": 2.78960354404,
			"-0.011": 3.7159117994,
			"-0.01": 4.63261367072,
			"-0.009": 7.52304058451,
			"-0.008": 11.5547413314,
			"-0.007": 14.9850558405,
			"-0.006": 16.4771858588,
			"-0.005": 14.2866889024,
			"-0.004": 14.0156866169,
			"-0.003": 13.403499925,
			"-0.002": 9.51884956845,
			"-0.001": 10.4988508048,
			"0.0": 12.7439922172,
			"0.001": 14.1336771198,
			"0.002": 12.8463691949,
			"0.003": 6.49734144626,
			"0.004": 5.18544589964,
			"0.005": 4.38182370706,
			"0.006": 4.87121243008,
			"0.007": 5.16813935112,
			"0.008": 4.52213262764,
			"0.009": 4.41029215985,
			"0.01": 6.91717956062,
			"0.011": 11.9088230446,
			"0.012": 10.897277957,
			"0.013": 6.81586437484,
			"0.014": 1.47988900138,
			"0.015": 0.609605138683,
			"0.016": 0.199000835746,
			"0.017": 0.0,
			"0.018": 0.0,
			"0.019": 0.0,
			"0.02": 0.0,
			"0.021": 0.0,
			"0.022": 0.0,
			"0.023": 0.0,
			"0.024": 0.0,
			"0.025": 0.0
		}
	}
}
