{
	 "smiles": "CCCS(=O)(=O)N1CCC(CC1)=NO", 
	 "Tm": 420.15, 
	 "num_atms": 30, 
	 "gaussian": { 
		 "optdone": 1, 
		 "sigma_profile": "yes", 
		 "theory": "DFT", 
		 "functional": "B3LYP", 
		 "basiset": "6-31G**", 
		 "properties": { 
			 "R2extent": 4603.4817, 
			 "electric_dipole_moment_norm": 3.80992574468, 
			 "electric_quadrupole_moment_norm": 21.6849458037, 
			 "total_energy": -1047.74212243, 
			 "HOMO_LUMO_gap": 0.24646, 
			 "cosmo_polarized_energy": -16.78, 
			 "cosmo_cavitation_energy": 32.56, 
			 "cosmo_dispersion_energy": -23.57, 
			 "cosmo_repulsion_energy": 1.84, 
			 "cosmo_total_nonelectrostatic_energy": 10.83, 
			 "SMD_solvation_energy": 4.11 
		},
		"coords": [
			{
				"x": 0.9613566021,
				"y": 2.0096138544,
				"z": 3.2976043292,
				"element": "C" 
			},
			{
				"x": 1.5426131419,
				"y": 1.4834867461,
				"z": 1.9807628392,
				"element": "C" 
			},
			{
				"x": 1.6325507796,
				"y": 2.5216879871,
				"z": 0.8567614733,
				"element": "C" 
			},
			{
				"x": 0.0675647624,
				"y": 2.9129148109,
				"z": 0.0183626599,
				"element": "S" 
			},
			{
				"x": 0.3762115697,
				"y": 3.9257187587,
				"z": -1.0004686932,
				"element": "O" 
			},
			{
				"x": -0.9786474227,
				"y": 3.1607406196,
				"z": 1.0189107792,
				"element": "O" 
			},
			{
				"x": -0.3082816237,
				"y": 1.4202285204,
				"z": -0.7243620003,
				"element": "N" 
			},
			{
				"x": -1.7291105354,
				"y": 1.0180405348,
				"z": -0.670385314,
				"element": "C" 
			},
			{
				"x": -1.846454142,
				"y": -0.4863169226,
				"z": -0.9682776421,
				"element": "C" 
			},
			{
				"x": -1.1383065066,
				"y": -0.8305062988,
				"z": -2.2543164952,
				"element": "C" 
			},
			{
				"x": 0.2541287199,
				"y": -0.2724028695,
				"z": -2.4086924096,
				"element": "C" 
			},
			{
				"x": 0.2865677262,
				"y": 1.2245949589,
				"z": -2.0613833046,
				"element": "C" 
			},
			{
				"x": -1.6000601952,
				"y": -1.5246688986,
				"z": -3.2264974314,
				"element": "N" 
			},
			{
				"x": -2.8988368137,
				"y": -2.0085089014,
				"z": -2.970756849,
				"element": "O" 
			},
			{
				"x": 0.9571506492,
				"y": 1.2188841335,
				"z": 4.0544314633,
				"element": "H" 
			},
			{
				"x": 1.5628649507,
				"y": 2.8387236651,
				"z": 3.6872456263,
				"element": "H" 
			},
			{
				"x": -0.0612337769,
				"y": 2.3680754107,
				"z": 3.1649685174,
				"element": "H" 
			},
			{
				"x": 2.5627660146,
				"y": 1.1177732231,
				"z": 2.1523243672,
				"element": "H" 
			},
			{
				"x": 0.9685179281,
				"y": 0.6228495712,
				"z": 1.6193428743,
				"element": "H" 
			},
			{
				"x": 1.9860150704,
				"y": 3.4940670709,
				"z": 1.2155032438,
				"element": "H" 
			},
			{
				"x": 2.3062864746,
				"y": 2.2006109874,
				"z": 0.0571133647,
				"element": "H" 
			},
			{
				"x": -2.1160798246,
				"y": 1.2461662398,
				"z": 0.3221344692,
				"element": "H" 
			},
			{
				"x": -2.3224712432,
				"y": 1.5860025874,
				"z": -1.4031267186,
				"element": "H" 
			},
			{
				"x": -2.8970433077,
				"y": -0.7757863756,
				"z": -1.019508885,
				"element": "H" 
			},
			{
				"x": -1.3798473126,
				"y": -1.0467828521,
				"z": -0.1471899603,
				"element": "H" 
			},
			{
				"x": 0.9303214387,
				"y": -0.8018021632,
				"z": -1.7235916887,
				"element": "H" 
			},
			{
				"x": 0.608191749,
				"y": -0.4359117727,
				"z": -3.4299714422,
				"element": "H" 
			},
			{
				"x": -0.2583759031,
				"y": 1.8063471627,
				"z": -2.8184325323,
				"element": "H" 
			},
			{
				"x": 1.3174107681,
				"y": 1.5862155819,
				"z": -2.057092329,
				"element": "H" 
			},
			{
				"x": -3.103169738,
				"y": -2.4718553703,
				"z": -3.7933123116,
				"element": "H" 
			}
		],
		 "valence_orbital": [ 
			{
				"type": "occ",
				"energy": -0.2995,
				"method": "rhf"
			},
			{
				"type": "occ",
				"energy": -0.29411,
				"method": "rhf"
			},
			{
				"type": "occ",
				"energy": -0.27345,
				"method": "rhf"
			},
			{
				"type": "occ",
				"energy": -0.26253,
				"method": "rhf"
			},
			{
				"type": "occ",
				"energy": -0.24888,
				"method": "rhf"
			},
			{
				"type": "unocc",
				"energy": -0.00242,
				"method": "rhf"
			},
			{
				"type": "unocc",
				"energy": 0.05688,
				"method": "rhf"
			},
			{
				"type": "unocc",
				"energy": 0.06707,
				"method": "rhf"
			},
			{
				"type": "unocc",
				"energy": 0.07522,
				"method": "rhf"
			},
			{
				"type": "unocc",
				"energy": 0.08099,
				"method": "rhf"
			}
		],
		"cosmo_sigma_profile": { 
			"-0.025": 0.0,
			"-0.024": 0.0,
			"-0.023": 0.0,
			"-0.022": 0.0,
			"-0.021": 0.0,
			"-0.02": 0.0,
			"-0.019": 0.0,
			"-0.018": 0.0,
			"-0.017": 0.589559454139,
			"-0.016": 1.01750332901,
			"-0.015": 1.23424028919,
			"-0.014": 0.500559091912,
			"-0.013": 0.4911865507,
			"-0.012": 0.52515785138,
			"-0.011": 0.592890722683,
			"-0.01": 0.617990320371,
			"-0.009": 2.45358144203,
			"-0.008": 4.06673127986,
			"-0.007": 5.53170555584,
			"-0.006": 6.90083895362,
			"-0.005": 22.5749279789,
			"-0.004": 30.4740083929,
			"-0.003": 26.0924373682,
			"-0.002": 20.0355799024,
			"-0.001": 20.1090362869,
			"0.0": 15.7844733237,
			"0.001": 13.7375220695,
			"0.002": 9.11992416415,
			"0.003": 7.22190687248,
			"0.004": 6.20733172478,
			"0.005": 7.0589232601,
			"0.006": 6.78087684726,
			"0.007": 6.28022909084,
			"0.008": 5.31128731663,
			"0.009": 7.63859575595,
			"0.01": 6.66942462579,
			"0.011": 9.49417377915,
			"0.012": 6.9912021664,
			"0.013": 1.28369073312,
			"0.014": 0.32099316219,
			"0.015": 0.0,
			"0.016": 0.0,
			"0.017": 0.0,
			"0.018": 0.0,
			"0.019": 0.0,
			"0.02": 0.0,
			"0.021": 0.0,
			"0.022": 0.0,
			"0.023": 0.0,
			"0.024": 0.0,
			"0.025": 0.0
		}
	}
}
