{
	 "smiles": "CC1=CC(C(O)=O)=C(C)N1CC1=NC=CC=C1", 
	 "Tm": 425.15, 
	 "num_atms": 31, 
	 "gaussian": { 
		 "optdone": 1, 
		 "sigma_profile": "yes", 
		 "theory": "DFT", 
		 "functional": "B3LYP", 
		 "basiset": "6-31G**", 
		 "properties": { 
			 "R2extent": 4671.6985, 
			 "electric_dipole_moment_norm": 6.80797175229, 
			 "electric_quadrupole_moment_norm": 26.8164239749, 
			 "total_energy": -763.782591218, 
			 "HOMO_LUMO_gap": 0.17322, 
			 "cosmo_polarized_energy": -19.52, 
			 "cosmo_cavitation_energy": 34.62, 
			 "cosmo_dispersion_energy": -23.99, 
			 "cosmo_repulsion_energy": 1.86, 
			 "cosmo_total_nonelectrostatic_energy": 12.49, 
			 "SMD_solvation_energy": 5.41 
		},
		"coords": [
			{
				"x": 1.4289574696,
				"y": 0.0831993622,
				"z": -2.9515619781,
				"element": "C" 
			},
			{
				"x": 1.1325565136,
				"y": 0.614044922,
				"z": -1.5849724974,
				"element": "C" 
			},
			{
				"x": 1.0223369229,
				"y": 1.9078112945,
				"z": -1.1450306909,
				"element": "C" 
			},
			{
				"x": 0.71385912,
				"y": 1.8783914147,
				"z": 0.2495158912,
				"element": "C" 
			},
			{
				"x": 0.5558420982,
				"y": 3.1065151726,
				"z": 1.052893965,
				"element": "C" 
			},
			{
				"x": -0.2040228019,
				"y": 3.009123469,
				"z": 2.1919844978,
				"element": "O" 
			},
			{
				"x": 1.0402323976,
				"y": 4.1742221335,
				"z": 0.7555610798,
				"element": "O" 
			},
			{
				"x": 0.6671847915,
				"y": 0.5408537319,
				"z": 0.6400620361,
				"element": "C" 
			},
			{
				"x": 0.4877855259,
				"y": -0.0949249429,
				"z": 1.986055136,
				"element": "C" 
			},
			{
				"x": 0.9249468042,
				"y": -0.2186621331,
				"z": -0.4849254651,
				"element": "N" 
			},
			{
				"x": 0.8832516638,
				"y": -1.6697025696,
				"z": -0.5391948496,
				"element": "C" 
			},
			{
				"x": -0.5028476508,
				"y": -2.2636566464,
				"z": -0.7600523381,
				"element": "C" 
			},
			{
				"x": -0.5498759115,
				"y": -3.6002132464,
				"z": -0.652396047,
				"element": "N" 
			},
			{
				"x": -1.7271894291,
				"y": -4.2021927366,
				"z": -0.847585583,
				"element": "C" 
			},
			{
				"x": -2.9044929243,
				"y": -3.516159154,
				"z": -1.153634431,
				"element": "C" 
			},
			{
				"x": -2.8458314454,
				"y": -2.1286643636,
				"z": -1.262457743,
				"element": "C" 
			},
			{
				"x": -1.6235718087,
				"y": -1.4848598923,
				"z": -1.0628756363,
				"element": "C" 
			},
			{
				"x": 0.6392361973,
				"y": -0.5789264547,
				"z": -3.3271823998,
				"element": "H" 
			},
			{
				"x": 1.5190651185,
				"y": 0.9195689905,
				"z": -3.6482057754,
				"element": "H" 
			},
			{
				"x": 2.3721982282,
				"y": -0.4766686329,
				"z": -2.9883842781,
				"element": "H" 
			},
			{
				"x": 1.1425038219,
				"y": 2.8035225916,
				"z": -1.736634104,
				"element": "H" 
			},
			{
				"x": -0.7033737226,
				"y": 2.1819536033,
				"z": 2.1681821894,
				"element": "H" 
			},
			{
				"x": 1.3063416226,
				"y": -0.7871109659,
				"z": 2.2156807117,
				"element": "H" 
			},
			{
				"x": -0.4466864445,
				"y": -0.665163652,
				"z": 2.0656731902,
				"element": "H" 
			},
			{
				"x": 0.4961258978,
				"y": 0.6654526508,
				"z": 2.7689091404,
				"element": "H" 
			},
			{
				"x": 1.2941130402,
				"y": -2.085694812,
				"z": 0.3843579234,
				"element": "H" 
			},
			{
				"x": 1.5439461224,
				"y": -2.0093714307,
				"z": -1.3418515846,
				"element": "H" 
			},
			{
				"x": -1.7306083711,
				"y": -5.2867634308,
				"z": -0.7525960195,
				"element": "H" 
			},
			{
				"x": -3.8337479475,
				"y": -4.0571819751,
				"z": -1.2999173259,
				"element": "H" 
			},
			{
				"x": -3.7358489512,
				"y": -1.5526811909,
				"z": -1.4993444867,
				"element": "H" 
			},
			{
				"x": -1.5387859475,
				"y": -0.4064611068,
				"z": -1.141372527,
				"element": "H" 
			}
		],
		 "valence_orbital": [ 
			{
				"type": "occ",
				"energy": -0.27236,
				"method": "rhf"
			},
			{
				"type": "occ",
				"energy": -0.27128,
				"method": "rhf"
			},
			{
				"type": "occ",
				"energy": -0.25983,
				"method": "rhf"
			},
			{
				"type": "occ",
				"energy": -0.24232,
				"method": "rhf"
			},
			{
				"type": "occ",
				"energy": -0.21403,
				"method": "rhf"
			},
			{
				"type": "unocc",
				"energy": -0.04081,
				"method": "rhf"
			},
			{
				"type": "unocc",
				"energy": -0.02407,
				"method": "rhf"
			},
			{
				"type": "unocc",
				"energy": -0.0094,
				"method": "rhf"
			},
			{
				"type": "unocc",
				"energy": 0.0352,
				"method": "rhf"
			},
			{
				"type": "unocc",
				"energy": 0.064,
				"method": "rhf"
			}
		],
		"cosmo_sigma_profile": { 
			"-0.025": 0.0,
			"-0.024": 0.0,
			"-0.023": 0.0,
			"-0.022": 0.0,
			"-0.021": 0.0,
			"-0.02": 0.0,
			"-0.019": 0.0,
			"-0.018": 0.0,
			"-0.017": 0.238502719863,
			"-0.016": 0.524262287729,
			"-0.015": 1.00235667038,
			"-0.014": 0.898566990649,
			"-0.013": 0.643294954619,
			"-0.012": 0.593825877457,
			"-0.011": 1.23606245297,
			"-0.01": 1.11422728269,
			"-0.009": 0.864404600048,
			"-0.008": 2.283653616,
			"-0.007": 9.18137742505,
			"-0.006": 14.4039494196,
			"-0.005": 22.4868782013,
			"-0.004": 25.6498211134,
			"-0.003": 24.8096692956,
			"-0.002": 24.1006049518,
			"-0.001": 21.7838529262,
			"0.0": 16.9549077325,
			"0.001": 14.6308454952,
			"0.002": 16.5960249714,
			"0.003": 14.5364236572,
			"0.004": 8.88209055773,
			"0.005": 6.90749912241,
			"0.006": 5.38408348314,
			"0.007": 5.55381712186,
			"0.008": 3.87308032901,
			"0.009": 4.1641799972,
			"0.01": 4.53197416942,
			"0.011": 5.62348384592,
			"0.012": 6.72858329039,
			"0.013": 5.63683964561,
			"0.014": 2.43783448828,
			"0.015": 0.776091061947,
			"0.016": 0.313419350229,
			"0.017": 0.0,
			"0.018": 0.0,
			"0.019": 0.0,
			"0.02": 0.0,
			"0.021": 0.0,
			"0.022": 0.0,
			"0.023": 0.0,
			"0.024": 0.0,
			"0.025": 0.0
		}
	}
}
