{
	 "smiles": "NS(=O)(=O)CC1=C(F)C=C(F)C=C1", 
	 "Tm": 413.15, 
	 "num_atms": 20, 
	 "gaussian": { 
		 "optdone": 1, 
		 "sigma_profile": "yes", 
		 "theory": "DFT", 
		 "functional": "B3LYP", 
		 "basiset": "6-31G**", 
		 "properties": { 
			 "R2extent": 3009.8682, 
			 "electric_dipole_moment_norm": 3.90185740001, 
			 "electric_quadrupole_moment_norm": 13.4741674203, 
			 "total_energy": -1073.95607261, 
			 "HOMO_LUMO_gap": 0.22322, 
			 "cosmo_polarized_energy": -16.14, 
			 "cosmo_cavitation_energy": 26.75, 
			 "cosmo_dispersion_energy": -19.48, 
			 "cosmo_repulsion_energy": 1.46, 
			 "cosmo_total_nonelectrostatic_energy": 8.73, 
			 "SMD_solvation_energy": 5.03 
		},
		"coords": [
			{
				"x": -2.1161945305,
				"y": -0.2002106143,
				"z": 1.5797145169,
				"element": "N" 
			},
			{
				"x": -1.9924946546,
				"y": -0.0577740423,
				"z": -0.1095810954,
				"element": "S" 
			},
			{
				"x": -3.0557935386,
				"y": -0.8833851802,
				"z": -0.6902316841,
				"element": "O" 
			},
			{
				"x": -1.8408264718,
				"y": 1.3619958409,
				"z": -0.4366481195,
				"element": "O" 
			},
			{
				"x": -0.4102233836,
				"y": -0.9084366279,
				"z": -0.4527379968,
				"element": "C" 
			},
			{
				"x": 0.787135834,
				"y": -0.2151888358,
				"z": 0.120875829,
				"element": "C" 
			},
			{
				"x": 1.4910944379,
				"y": 0.7252597465,
				"z": -0.6391286833,
				"element": "C" 
			},
			{
				"x": 1.089835998,
				"y": 0.9698391023,
				"z": -1.9000114275,
				"element": "F" 
			},
			{
				"x": 2.6030474543,
				"y": 1.4048027086,
				"z": -0.1592661574,
				"element": "C" 
			},
			{
				"x": 3.011513278,
				"y": 1.1279541896,
				"z": 1.1401591748,
				"element": "C" 
			},
			{
				"x": 4.085345143,
				"y": 1.7742784572,
				"z": 1.6289016267,
				"element": "F" 
			},
			{
				"x": 2.3516422124,
				"y": 0.2048244497,
				"z": 1.9456813553,
				"element": "C" 
			},
			{
				"x": 1.2419567694,
				"y": -0.4574809417,
				"z": 1.424502957,
				"element": "C" 
			},
			{
				"x": -2.0749172188,
				"y": 0.7248395457,
				"z": 1.9998402124,
				"element": "H" 
			},
			{
				"x": -2.9952499923,
				"y": -0.6618581597,
				"z": 1.8002725059,
				"element": "H" 
			},
			{
				"x": -0.3743066945,
				"y": -0.9477704991,
				"z": -1.5437393093,
				"element": "H" 
			},
			{
				"x": -0.5398131575,
				"y": -1.9200527343,
				"z": -0.0632520463,
				"element": "H" 
			},
			{
				"x": 3.1278307313,
				"y": 2.1233922985,
				"z": -0.7764832539,
				"element": "H" 
			},
			{
				"x": 2.7084034235,
				"y": 0.0172405175,
				"z": 2.9517661695,
				"element": "H" 
			},
			{
				"x": 0.7084143604,
				"y": -1.1754692213,
				"z": 2.0389654262,
				"element": "H" 
			}
		],
		 "valence_orbital": [ 
			{
				"type": "occ",
				"energy": -0.32082,
				"method": "rhf"
			},
			{
				"type": "occ",
				"energy": -0.30615,
				"method": "rhf"
			},
			{
				"type": "occ",
				"energy": -0.29943,
				"method": "rhf"
			},
			{
				"type": "occ",
				"energy": -0.27014,
				"method": "rhf"
			},
			{
				"type": "occ",
				"energy": -0.25338,
				"method": "rhf"
			},
			{
				"type": "unocc",
				"energy": -0.03016,
				"method": "rhf"
			},
			{
				"type": "unocc",
				"energy": -0.01786,
				"method": "rhf"
			},
			{
				"type": "unocc",
				"energy": 0.05164,
				"method": "rhf"
			},
			{
				"type": "unocc",
				"energy": 0.07019,
				"method": "rhf"
			},
			{
				"type": "unocc",
				"energy": 0.0785,
				"method": "rhf"
			}
		],
		"cosmo_sigma_profile": { 
			"-0.025": 0.0,
			"-0.024": 0.0,
			"-0.023": 0.0,
			"-0.022": 0.0,
			"-0.021": 0.0,
			"-0.02": 0.0,
			"-0.019": 0.0,
			"-0.018": 0.0,
			"-0.017": 0.0,
			"-0.016": 0.0,
			"-0.015": 0.866525678756,
			"-0.014": 2.55995600098,
			"-0.013": 2.36434228634,
			"-0.012": 2.86848254573,
			"-0.011": 1.69847844539,
			"-0.01": 2.064881701,
			"-0.009": 4.77912473851,
			"-0.008": 7.53397289649,
			"-0.007": 9.2692962809,
			"-0.006": 10.4555539792,
			"-0.005": 10.7253751907,
			"-0.004": 7.98914819087,
			"-0.003": 9.48261297508,
			"-0.002": 8.46306993472,
			"-0.001": 10.4021353133,
			"0.0": 16.0984865148,
			"0.001": 19.0527548048,
			"0.002": 13.0787745774,
			"0.003": 16.9739904922,
			"0.004": 15.6724119211,
			"0.005": 4.77509701495,
			"0.006": 3.494265129,
			"0.007": 4.30637206722,
			"0.008": 4.16713818804,
			"0.009": 3.38732413414,
			"0.01": 6.88566834847,
			"0.011": 10.5784477958,
			"0.012": 3.60718684098,
			"0.013": 0.0,
			"0.014": 0.0,
			"0.015": 0.0,
			"0.016": 0.0,
			"0.017": 0.0,
			"0.018": 0.0,
			"0.019": 0.0,
			"0.02": 0.0,
			"0.021": 0.0,
			"0.022": 0.0,
			"0.023": 0.0,
			"0.024": 0.0,
			"0.025": 0.0
		}
	}
}
