{
	 "smiles": "CC(C)(C)C1=CSC(=N1)C1=CC=C(O)C=C1", 
	 "Tm": 502.15, 
	 "num_atms": 31, 
	 "gaussian": { 
		 "optdone": 1, 
		 "sigma_profile": "yes", 
		 "theory": "DFT", 
		 "functional": "B3LYP", 
		 "basiset": "6-31G**", 
		 "properties": { 
			 "R2extent": 5587.1248, 
			 "electric_dipole_moment_norm": 1.85237487837, 
			 "electric_quadrupole_moment_norm": 15.8447230263, 
			 "total_energy": -1032.59729441, 
			 "HOMO_LUMO_gap": 0.15996, 
			 "cosmo_polarized_energy": -11.02, 
			 "cosmo_cavitation_energy": 35.3, 
			 "cosmo_dispersion_energy": -25.52, 
			 "cosmo_repulsion_energy": 1.93, 
			 "cosmo_total_nonelectrostatic_energy": 11.71, 
			 "SMD_solvation_energy": 5.41 
		},
		"coords": [
			{
				"x": 2.2217180801,
				"y": -1.72986045,
				"z": 3.0054587932,
				"element": "C" 
			},
			{
				"x": 0.9206447646,
				"y": -1.8682971035,
				"z": 2.1821940447,
				"element": "C" 
			},
			{
				"x": -0.2411229943,
				"y": -1.2299811207,
				"z": 2.965335929,
				"element": "C" 
			},
			{
				"x": 0.6154681494,
				"y": -3.3668946152,
				"z": 1.9569161351,
				"element": "C" 
			},
			{
				"x": 1.0988696871,
				"y": -1.1765057866,
				"z": 0.8293860747,
				"element": "C" 
			},
			{
				"x": 2.0445779852,
				"y": -1.5060332338,
				"z": -0.1084676815,
				"element": "C" 
			},
			{
				"x": 1.9127249235,
				"y": -0.4840064489,
				"z": -1.4996073155,
				"element": "S" 
			},
			{
				"x": 0.5618229468,
				"y": 0.3460979002,
				"z": -0.7196081625,
				"element": "C" 
			},
			{
				"x": 0.2783723663,
				"y": -0.1340844545,
				"z": 0.4639100584,
				"element": "N" 
			},
			{
				"x": -0.1573036438,
				"y": 1.4578762744,
				"z": -1.3491302571,
				"element": "C" 
			},
			{
				"x": -1.22468953,
				"y": 2.0658897763,
				"z": -0.6593674527,
				"element": "C" 
			},
			{
				"x": -1.931509219,
				"y": 3.1201615001,
				"z": -1.2183050164,
				"element": "C" 
			},
			{
				"x": -1.5868698269,
				"y": 3.5969764882,
				"z": -2.4901808672,
				"element": "C" 
			},
			{
				"x": -2.3147693502,
				"y": 4.6351577292,
				"z": -2.9916645876,
				"element": "O" 
			},
			{
				"x": -0.5292260968,
				"y": 3.0049084178,
				"z": -3.189850582,
				"element": "C" 
			},
			{
				"x": 0.1746263357,
				"y": 1.9474058991,
				"z": -2.6213329903,
				"element": "C" 
			},
			{
				"x": 2.1096500446,
				"y": -2.216389489,
				"z": 3.981011237,
				"element": "H" 
			},
			{
				"x": 3.0723157748,
				"y": -2.1940307745,
				"z": 2.4957045019,
				"element": "H" 
			},
			{
				"x": 2.4676754786,
				"y": -0.6770215014,
				"z": 3.1772740178,
				"element": "H" 
			},
			{
				"x": -0.0607757215,
				"y": -0.1677022194,
				"z": 3.1501180006,
				"element": "H" 
			},
			{
				"x": -0.3562108124,
				"y": -1.7353140671,
				"z": 3.9305206334,
				"element": "H" 
			},
			{
				"x": -1.1834595493,
				"y": -1.3118589916,
				"z": 2.4172291665,
				"element": "H" 
			},
			{
				"x": -0.2998983442,
				"y": -3.4976005758,
				"z": 1.3708298555,
				"element": "H" 
			},
			{
				"x": 0.4801133099,
				"y": -3.8772936751,
				"z": 2.9171905424,
				"element": "H" 
			},
			{
				"x": 1.4296784394,
				"y": -3.8680943114,
				"z": 1.4233591048,
				"element": "H" 
			},
			{
				"x": 2.8000210448,
				"y": -2.2772650691,
				"z": -0.0657707439,
				"element": "H" 
			},
			{
				"x": -1.484051611,
				"y": 1.6901955815,
				"z": 0.3240444067,
				"element": "H" 
			},
			{
				"x": -2.7538009328,
				"y": 3.5896407719,
				"z": -0.688609395,
				"element": "H" 
			},
			{
				"x": -1.9790103516,
				"y": 4.8666716818,
				"z": -3.8674985468,
				"element": "H" 
			},
			{
				"x": -0.2565757897,
				"y": 3.370278607,
				"z": -4.177609678,
				"element": "H" 
			},
			{
				"x": 0.9919944428,
				"y": 1.5028732604,
				"z": -3.1823792251,
				"element": "H" 
			}
		],
		 "valence_orbital": [ 
			{
				"type": "occ",
				"energy": -0.27893,
				"method": "rhf"
			},
			{
				"type": "occ",
				"energy": -0.26414,
				"method": "rhf"
			},
			{
				"type": "occ",
				"energy": -0.25745,
				"method": "rhf"
			},
			{
				"type": "occ",
				"energy": -0.25422,
				"method": "rhf"
			},
			{
				"type": "occ",
				"energy": -0.20302,
				"method": "rhf"
			},
			{
				"type": "unocc",
				"energy": -0.04306,
				"method": "rhf"
			},
			{
				"type": "unocc",
				"energy": -0.0068,
				"method": "rhf"
			},
			{
				"type": "unocc",
				"energy": 0.0254,
				"method": "rhf"
			},
			{
				"type": "unocc",
				"energy": 0.03002,
				"method": "rhf"
			},
			{
				"type": "unocc",
				"energy": 0.06536,
				"method": "rhf"
			}
		],
		"cosmo_sigma_profile": { 
			"-0.025": 0.0,
			"-0.024": 0.0,
			"-0.023": 0.0,
			"-0.022": 0.0,
			"-0.021": 0.0,
			"-0.02": 0.0,
			"-0.019": 0.0,
			"-0.018": 0.730107926155,
			"-0.017": 1.22651717331,
			"-0.016": 0.870868490767,
			"-0.015": 1.57088678666,
			"-0.014": 0.898664952445,
			"-0.013": 0.775564894452,
			"-0.012": 0.614411257355,
			"-0.011": 1.32727845367,
			"-0.01": 1.15555326949,
			"-0.009": 1.22627959128,
			"-0.008": 2.89093473458,
			"-0.007": 4.41327866786,
			"-0.006": 8.31711690397,
			"-0.005": 10.3924384184,
			"-0.004": 10.011172243,
			"-0.003": 17.8236061473,
			"-0.002": 26.482883763,
			"-0.001": 22.956412164,
			"0.0": 25.3657303025,
			"0.001": 34.0237727298,
			"0.002": 30.3481878632,
			"0.003": 25.881249094,
			"0.004": 24.0309555848,
			"0.005": 9.19991450953,
			"0.006": 3.4726011139,
			"0.007": 3.54609509902,
			"0.008": 3.60164691471,
			"0.009": 3.61945823449,
			"0.01": 2.257119837,
			"0.011": 1.65125882323,
			"0.012": 0.132662589131,
			"0.013": 0.0,
			"0.014": 0.0,
			"0.015": 0.0,
			"0.016": 0.0,
			"0.017": 0.0,
			"0.018": 0.0,
			"0.019": 0.0,
			"0.02": 0.0,
			"0.021": 0.0,
			"0.022": 0.0,
			"0.023": 0.0,
			"0.024": 0.0,
			"0.025": 0.0
		}
	}
}
