{
	 "smiles": "C1CCSC1", 
	 "Tm": 177.15, 
	 "num_atms": 13, 
	 "gaussian": { 
		 "optdone": 1, 
		 "sigma_profile": "yes", 
		 "theory": "DFT", 
		 "functional": "B3LYP", 
		 "basiset": "6-31G**", 
		 "properties": { 
			 "R2extent": 707.6673, 
			 "electric_dipole_moment_norm": 2.20021372825, 
			 "electric_quadrupole_moment_norm": 4.17181841887, 
			 "total_energy": -555.44195298, 
			 "HOMO_LUMO_gap": 0.24928, 
			 "cosmo_polarized_energy": -4.15, 
			 "cosmo_cavitation_energy": 16.09, 
			 "cosmo_dispersion_energy": -13.18, 
			 "cosmo_repulsion_energy": 1.1, 
			 "cosmo_total_nonelectrostatic_energy": 4.01, 
			 "SMD_solvation_energy": 1.93 
		},
		"coords": [
			{
				"x": -0.7921061295,
				"y": 1.8467742062,
				"z": 0.4117177298,
				"element": "C" 
			},
			{
				"x": -0.0635038202,
				"y": 0.7964692298,
				"z": 1.2598385578,
				"element": "C" 
			},
			{
				"x": -0.0000525585,
				"y": -0.4842263288,
				"z": 0.4172909707,
				"element": "C" 
			},
			{
				"x": -1.6039739639,
				"y": -0.578474585,
				"z": -0.5062755585,
				"element": "S" 
			},
			{
				"x": -2.0633202389,
				"y": 1.1760601945,
				"z": -0.125285583,
				"element": "C" 
			},
			{
				"x": -1.0364840579,
				"y": 2.7458636861,
				"z": 0.9882276895,
				"element": "H" 
			},
			{
				"x": -0.1537401761,
				"y": 2.1519533346,
				"z": -0.4258167911,
				"element": "H" 
			},
			{
				"x": -0.6305192712,
				"y": 0.6062027929,
				"z": 2.1787522332,
				"element": "H" 
			},
			{
				"x": 0.9405013481,
				"y": 1.1248206996,
				"z": 1.5507305787,
				"element": "H" 
			},
			{
				"x": 0.823649949,
				"y": -0.4467193326,
				"z": -0.301626826,
				"element": "H" 
			},
			{
				"x": 0.1129800141,
				"y": -1.3835918292,
				"z": 1.0269073257,
				"element": "H" 
			},
			{
				"x": -2.4375315279,
				"y": 1.6516211772,
				"z": -1.0347230594,
				"element": "H" 
			},
			{
				"x": -2.8617995671,
				"y": 1.1811467545,
				"z": 0.6224627326,
				"element": "H" 
			}
		],
		 "valence_orbital": [ 
			{
				"type": "occ",
				"energy": -0.3519,
				"method": "rhf"
			},
			{
				"type": "occ",
				"energy": -0.34893,
				"method": "rhf"
			},
			{
				"type": "occ",
				"energy": -0.33796,
				"method": "rhf"
			},
			{
				"type": "occ",
				"energy": -0.29938,
				"method": "rhf"
			},
			{
				"type": "occ",
				"energy": -0.21139,
				"method": "rhf"
			},
			{
				"type": "unocc",
				"energy": 0.03789,
				"method": "rhf"
			},
			{
				"type": "unocc",
				"energy": 0.06952,
				"method": "rhf"
			},
			{
				"type": "unocc",
				"energy": 0.09915,
				"method": "rhf"
			},
			{
				"type": "unocc",
				"energy": 0.10672,
				"method": "rhf"
			},
			{
				"type": "unocc",
				"energy": 0.13638,
				"method": "rhf"
			}
		],
		"cosmo_sigma_profile": { 
			"-0.025": 0.0,
			"-0.024": 0.0,
			"-0.023": 0.0,
			"-0.022": 0.0,
			"-0.021": 0.0,
			"-0.02": 0.0,
			"-0.019": 0.0,
			"-0.018": 0.0,
			"-0.017": 0.0,
			"-0.016": 0.0,
			"-0.015": 0.0,
			"-0.014": 0.0,
			"-0.013": 0.0,
			"-0.012": 0.0,
			"-0.011": 0.0,
			"-0.01": 0.0,
			"-0.009": 0.0,
			"-0.008": 0.0,
			"-0.007": 0.0,
			"-0.006": 0.00342323172614,
			"-0.005": 3.51012374626,
			"-0.004": 11.903397794,
			"-0.003": 21.0674923518,
			"-0.002": 24.1740728149,
			"-0.001": 21.1041127254,
			"0.0": 12.5577752485,
			"0.001": 3.51149312599,
			"0.002": 2.94438178417,
			"0.003": 3.37454127723,
			"0.004": 2.42203690468,
			"0.005": 2.95160719229,
			"0.006": 2.8911219008,
			"0.007": 3.73740982588,
			"0.008": 2.77982854176,
			"0.009": 2.28552226331,
			"0.01": 2.65176681649,
			"0.011": 1.59953281972,
			"0.012": 1.84994352577,
			"0.013": 0.032367667264,
			"0.014": 0.0,
			"0.015": 0.0,
			"0.016": 0.0,
			"0.017": 0.0,
			"0.018": 0.0,
			"0.019": 0.0,
			"0.02": 0.0,
			"0.021": 0.0,
			"0.022": 0.0,
			"0.023": 0.0,
			"0.024": 0.0,
			"0.025": 0.0
		}
	}
}
