{
	 "smiles": "NC(=O)C1=C(N)N=CN1", 
	 "Tm": 523.15, 
	 "num_atms": 15, 
	 "gaussian": { 
		 "optdone": 1, 
		 "sigma_profile": "yes", 
		 "theory": "DFT", 
		 "functional": "B3LYP", 
		 "basiset": "6-31G**", 
		 "properties": { 
			 "R2extent": 1833.9812, 
			 "electric_dipole_moment_norm": 3.92430705603, 
			 "electric_quadrupole_moment_norm": 9.09813218798, 
			 "total_energy": -450.290934533, 
			 "HOMO_LUMO_gap": 0.17843, 
			 "cosmo_polarized_energy": -20.72, 
			 "cosmo_cavitation_energy": 19.45, 
			 "cosmo_dispersion_energy": -14.87, 
			 "cosmo_repulsion_energy": 1.24, 
			 "cosmo_total_nonelectrostatic_energy": 5.82, 
			 "SMD_solvation_energy": 2.52 
		},
		"coords": [
			{
				"x": -0.0503644736,
				"y": 0.0488333158,
				"z": 1.7504119352,
				"element": "N" 
			},
			{
				"x": -0.5879901258,
				"y": -0.8680947986,
				"z": 0.8488873027,
				"element": "C" 
			},
			{
				"x": -0.218436374,
				"y": -2.0472902786,
				"z": 0.8342888312,
				"element": "O" 
			},
			{
				"x": -1.6309314102,
				"y": -0.3917858852,
				"z": -0.0308236075,
				"element": "C" 
			},
			{
				"x": -2.2189323142,
				"y": -1.0696079454,
				"z": -1.1004142501,
				"element": "C" 
			},
			{
				"x": -1.8747767814,
				"y": -2.3032626898,
				"z": -1.5727096237,
				"element": "N" 
			},
			{
				"x": -3.1902711678,
				"y": -0.3012000761,
				"z": -1.6921379048,
				"element": "N" 
			},
			{
				"x": -3.2099525612,
				"y": 0.8233566316,
				"z": -0.9988983356,
				"element": "C" 
			},
			{
				"x": -2.2854740064,
				"y": 0.8492547244,
				"z": -0.0080748373,
				"element": "N" 
			},
			{
				"x": 0.7593814173,
				"y": -0.3185550983,
				"z": 2.2345296114,
				"element": "H" 
			},
			{
				"x": 0.0727350583,
				"y": 0.9978350453,
				"z": 1.4218342862,
				"element": "H" 
			},
			{
				"x": -2.5669968813,
				"y": -2.7660101575,
				"z": -2.1419588704,
				"element": "H" 
			},
			{
				"x": -1.3447176842,
				"y": -2.8667706239,
				"z": -0.9196829683,
				"element": "H" 
			},
			{
				"x": -3.8811497634,
				"y": 1.6516857483,
				"z": -1.1833802258,
				"element": "H" 
			},
			{
				"x": -2.2415229322,
				"y": 1.5228120881,
				"z": 0.7410286567,
				"element": "H" 
			}
		],
		 "valence_orbital": [ 
			{
				"type": "occ",
				"energy": -0.27978,
				"method": "rhf"
			},
			{
				"type": "occ",
				"energy": -0.27492,
				"method": "rhf"
			},
			{
				"type": "occ",
				"energy": -0.26671,
				"method": "rhf"
			},
			{
				"type": "occ",
				"energy": -0.25071,
				"method": "rhf"
			},
			{
				"type": "occ",
				"energy": -0.19542,
				"method": "rhf"
			},
			{
				"type": "unocc",
				"energy": -0.01699,
				"method": "rhf"
			},
			{
				"type": "unocc",
				"energy": 0.04778,
				"method": "rhf"
			},
			{
				"type": "unocc",
				"energy": 0.05658,
				"method": "rhf"
			},
			{
				"type": "unocc",
				"energy": 0.10084,
				"method": "rhf"
			},
			{
				"type": "unocc",
				"energy": 0.11256,
				"method": "rhf"
			}
		],
		"cosmo_sigma_profile": { 
			"-0.025": 0.0,
			"-0.024": 0.0,
			"-0.023": 0.0,
			"-0.022": 0.0,
			"-0.021": 0.0,
			"-0.02": 0.0,
			"-0.019": 0.0,
			"-0.018": 0.0,
			"-0.017": 0.331056343917,
			"-0.016": 1.638319757,
			"-0.015": 2.15184001778,
			"-0.014": 2.35755909462,
			"-0.013": 3.93729322597,
			"-0.012": 4.42142480607,
			"-0.011": 4.37982729016,
			"-0.01": 5.13566161905,
			"-0.009": 7.08949856612,
			"-0.008": 6.17959126012,
			"-0.007": 4.96136345322,
			"-0.006": 4.67981677191,
			"-0.005": 4.33700108416,
			"-0.004": 4.26249743759,
			"-0.003": 4.08023473715,
			"-0.002": 4.42275562676,
			"-0.001": 5.1882240023,
			"0.0": 5.38284291824,
			"0.001": 6.71734548308,
			"0.002": 7.92511619564,
			"0.003": 10.2187400133,
			"0.004": 6.71913415412,
			"0.005": 6.38163024283,
			"0.006": 5.98416041265,
			"0.007": 4.04285155563,
			"0.008": 4.16875589983,
			"0.009": 4.21205621108,
			"0.01": 3.67132470476,
			"0.011": 3.92887756894,
			"0.012": 3.78918887312,
			"0.013": 3.89136244786,
			"0.014": 4.13636217101,
			"0.015": 2.06719780048,
			"0.016": 0.707023245883,
			"0.017": 0.738485239206,
			"0.018": 0.0407847243991,
			"0.019": 0.0,
			"0.02": 0.0,
			"0.021": 0.0,
			"0.022": 0.0,
			"0.023": 0.0,
			"0.024": 0.0,
			"0.025": 0.0
		}
	}
}
