{
	 "smiles": "CC(C)C(C)(NC(=O)CCl)C#N", 
	 "Tm": 345.15, 
	 "num_atms": 25, 
	 "gaussian": { 
		 "optdone": 1, 
		 "sigma_profile": "yes", 
		 "theory": "DFT", 
		 "functional": "B3LYP", 
		 "basiset": "6-31G**", 
		 "properties": { 
			 "R2extent": 2841.6469, 
			 "electric_dipole_moment_norm": 5.38035902612, 
			 "electric_quadrupole_moment_norm": 11.6351483459, 
			 "total_energy": -957.594529249, 
			 "HOMO_LUMO_gap": 0.23791, 
			 "cosmo_polarized_energy": -16.38, 
			 "cosmo_cavitation_energy": 28.95, 
			 "cosmo_dispersion_energy": -19.84, 
			 "cosmo_repulsion_energy": 1.58, 
			 "cosmo_total_nonelectrostatic_energy": 10.68, 
			 "SMD_solvation_energy": 6.66 
		},
		"coords": [
			{
				"x": -1.3046694786,
				"y": 1.4023687368,
				"z": -1.8842184414,
				"element": "C" 
			},
			{
				"x": -0.2273103552,
				"y": 0.3931912163,
				"z": -2.3169316529,
				"element": "C" 
			},
			{
				"x": -0.7928413125,
				"y": -0.5987309908,
				"z": -3.3447293515,
				"element": "C" 
			},
			{
				"x": 0.4703314355,
				"y": -0.3319039544,
				"z": -1.1002984706,
				"element": "C" 
			},
			{
				"x": 1.6124820142,
				"y": -1.2354824286,
				"z": -1.6102501642,
				"element": "C" 
			},
			{
				"x": -0.5709423551,
				"y": -1.0577430884,
				"z": -0.357108659,
				"element": "N" 
			},
			{
				"x": -0.5940598285,
				"y": -2.0615894748,
				"z": 0.588545933,
				"element": "C" 
			},
			{
				"x": -1.6520783202,
				"y": -2.3542201393,
				"z": 1.1263587636,
				"element": "O" 
			},
			{
				"x": 0.6559675763,
				"y": -2.866073828,
				"z": 0.9342108164,
				"element": "C" 
			},
			{
				"x": 1.8684016873,
				"y": -1.9090454853,
				"z": 1.8798797941,
				"element": "Cl" 
			},
			{
				"x": 1.0675091006,
				"y": 0.7335451133,
				"z": -0.2462529618,
				"element": "C" 
			},
			{
				"x": 1.522615056,
				"y": 1.595594442,
				"z": 0.3840965792,
				"element": "N" 
			},
			{
				"x": -1.6131935848,
				"y": 1.9970202386,
				"z": -2.7489780343,
				"element": "H" 
			},
			{
				"x": -0.9394160991,
				"y": 2.0906566634,
				"z": -1.1174598031,
				"element": "H" 
			},
			{
				"x": -2.2113648577,
				"y": 0.9128364295,
				"z": -1.5078253786,
				"element": "H" 
			},
			{
				"x": 0.5798450631,
				"y": 0.9636808816,
				"z": -2.7926800057,
				"element": "H" 
			},
			{
				"x": -1.5410187301,
				"y": -1.2582083666,
				"z": -2.8938460604,
				"element": "H" 
			},
			{
				"x": -0.0173247334,
				"y": -1.2225746929,
				"z": -3.7959334178,
				"element": "H" 
			},
			{
				"x": -1.2801065328,
				"y": -0.0469149709,
				"z": -4.1542215924,
				"element": "H" 
			},
			{
				"x": 2.2145894414,
				"y": -0.6746727354,
				"z": -2.3299647349,
				"element": "H" 
			},
			{
				"x": 1.2046637444,
				"y": -2.1167436102,
				"z": -2.1094493659,
				"element": "H" 
			},
			{
				"x": 2.2746147279,
				"y": -1.5448324694,
				"z": -0.8018373026,
				"element": "H" 
			},
			{
				"x": -1.477225538,
				"y": -0.6054348492,
				"z": -0.3720118292,
				"element": "H" 
			},
			{
				"x": 0.3253286354,
				"y": -3.682324088,
				"z": 1.572064968,
				"element": "H" 
			},
			{
				"x": 1.1640032441,
				"y": -3.2585985493,
				"z": 0.0537403722,
				"element": "H" 
			}
		],
		 "valence_orbital": [ 
			{
				"type": "occ",
				"energy": -0.32892,
				"method": "rhf"
			},
			{
				"type": "occ",
				"energy": -0.31823,
				"method": "rhf"
			},
			{
				"type": "occ",
				"energy": -0.30901,
				"method": "rhf"
			},
			{
				"type": "occ",
				"energy": -0.27787,
				"method": "rhf"
			},
			{
				"type": "occ",
				"energy": -0.26899,
				"method": "rhf"
			},
			{
				"type": "unocc",
				"energy": -0.03108,
				"method": "rhf"
			},
			{
				"type": "unocc",
				"energy": 0.02187,
				"method": "rhf"
			},
			{
				"type": "unocc",
				"energy": 0.02592,
				"method": "rhf"
			},
			{
				"type": "unocc",
				"energy": 0.04489,
				"method": "rhf"
			},
			{
				"type": "unocc",
				"energy": 0.06163,
				"method": "rhf"
			}
		],
		"cosmo_sigma_profile": { 
			"-0.025": 0.0,
			"-0.024": 0.0,
			"-0.023": 0.0,
			"-0.022": 0.0,
			"-0.021": 0.0,
			"-0.02": 0.0,
			"-0.019": 0.0,
			"-0.018": 0.0,
			"-0.017": 0.0,
			"-0.016": 0.0,
			"-0.015": 0.0,
			"-0.014": 0.0,
			"-0.013": 0.0737338924599,
			"-0.012": 0.967263353885,
			"-0.011": 0.760969159378,
			"-0.01": 1.34953831124,
			"-0.009": 4.6791076961,
			"-0.008": 6.41155632387,
			"-0.007": 7.5490358046,
			"-0.006": 11.1669120356,
			"-0.005": 13.5799856398,
			"-0.004": 18.9814531649,
			"-0.003": 19.8643259067,
			"-0.002": 21.2351973915,
			"-0.001": 20.5241164009,
			"0.0": 19.6692359923,
			"0.001": 10.9407379295,
			"0.002": 7.26435288661,
			"0.003": 6.31967173118,
			"0.004": 8.6538221529,
			"0.005": 10.1502799973,
			"0.006": 4.99832363929,
			"0.007": 4.41726740005,
			"0.008": 3.95451284459,
			"0.009": 4.80957635504,
			"0.01": 4.02982394103,
			"0.011": 5.59264133625,
			"0.012": 7.1412311851,
			"0.013": 4.38956316134,
			"0.014": 0.0578684485554,
			"0.015": 0.0,
			"0.016": 0.0,
			"0.017": 0.0,
			"0.018": 0.0,
			"0.019": 0.0,
			"0.02": 0.0,
			"0.021": 0.0,
			"0.022": 0.0,
			"0.023": 0.0,
			"0.024": 0.0,
			"0.025": 0.0
		}
	}
}
