{
	 "smiles": "CN(C)C1=C(C)C=CC(=C1)S(N)(=O)=O", 
	 "Tm": 400.15, 
	 "num_atms": 28, 
	 "gaussian": { 
		 "optdone": 1, 
		 "sigma_profile": "yes", 
		 "theory": "DFT", 
		 "functional": "B3LYP", 
		 "basiset": "6-31G**", 
		 "properties": { 
			 "R2extent": 3742.5971, 
			 "electric_dipole_moment_norm": 4.01146668689, 
			 "electric_quadrupole_moment_norm": 18.9568904671, 
			 "total_energy": -1009.46203423, 
			 "HOMO_LUMO_gap": 0.18544, 
			 "cosmo_polarized_energy": -15.44, 
			 "cosmo_cavitation_energy": 31.73, 
			 "cosmo_dispersion_energy": -23.21, 
			 "cosmo_repulsion_energy": 1.8, 
			 "cosmo_total_nonelectrostatic_energy": 10.31, 
			 "SMD_solvation_energy": 4.77 
		},
		"coords": [
			{
				"x": -2.0438772221,
				"y": -2.7751211999,
				"z": 1.2793452385,
				"element": "C" 
			},
			{
				"x": -1.6500147397,
				"y": -1.9501654318,
				"z": 0.1349837915,
				"element": "N" 
			},
			{
				"x": -1.1546275774,
				"y": -2.7668093643,
				"z": -0.9658688129,
				"element": "C" 
			},
			{
				"x": -0.8964437943,
				"y": -0.7875098711,
				"z": 0.4548160377,
				"element": "C" 
			},
			{
				"x": -1.5411949337,
				"y": 0.3162862123,
				"z": 1.0728112092,
				"element": "C" 
			},
			{
				"x": -3.021828358,
				"y": 0.3032874013,
				"z": 1.3597681902,
				"element": "C" 
			},
			{
				"x": -0.7863796906,
				"y": 1.4531005782,
				"z": 1.3804863722,
				"element": "C" 
			},
			{
				"x": 0.570575235,
				"y": 1.5499079018,
				"z": 1.0757608997,
				"element": "C" 
			},
			{
				"x": 1.1747787977,
				"y": 0.4719971244,
				"z": 0.4358509659,
				"element": "C" 
			},
			{
				"x": 0.4652976605,
				"y": -0.6893626788,
				"z": 0.1348199382,
				"element": "C" 
			},
			{
				"x": 2.9083396076,
				"y": 0.5647049947,
				"z": 0.0007796734,
				"element": "S" 
			},
			{
				"x": 2.8818183593,
				"y": 1.1056395071,
				"z": -1.6105368082,
				"element": "N" 
			},
			{
				"x": 3.4465861784,
				"y": -0.7990865736,
				"z": -0.0491344142,
				"element": "O" 
			},
			{
				"x": 3.5194640052,
				"y": 1.6130887269,
				"z": 0.8253623845,
				"element": "O" 
			},
			{
				"x": -2.8165312475,
				"y": -3.4851393417,
				"z": 0.9663172504,
				"element": "H" 
			},
			{
				"x": -1.1959894662,
				"y": -3.3477310418,
				"z": 1.6924844176,
				"element": "H" 
			},
			{
				"x": -2.4548580133,
				"y": -2.1584741503,
				"z": 2.0790908749,
				"element": "H" 
			},
			{
				"x": -1.9442741145,
				"y": -3.4623926055,
				"z": -1.2681157961,
				"element": "H" 
			},
			{
				"x": -0.9113418586,
				"y": -2.1322119136,
				"z": -1.8214625563,
				"element": "H" 
			},
			{
				"x": -0.2642019029,
				"y": -3.3676089913,
				"z": -0.710438831,
				"element": "H" 
			},
			{
				"x": -3.2500977806,
				"y": -0.1243809252,
				"z": 2.3443363192,
				"element": "H" 
			},
			{
				"x": -3.4241507283,
				"y": 1.3201072682,
				"z": 1.3525973786,
				"element": "H" 
			},
			{
				"x": -3.5515023445,
				"y": -0.2955652951,
				"z": 0.6139634532,
				"element": "H" 
			},
			{
				"x": -1.2834301067,
				"y": 2.2955968649,
				"z": 1.8544305037,
				"element": "H" 
			},
			{
				"x": 1.1458756957,
				"y": 2.4339132681,
				"z": 1.3251881995,
				"element": "H" 
			},
			{
				"x": 0.9880073036,
				"y": -1.5190640578,
				"z": -0.324933382,
				"element": "H" 
			},
			{
				"x": 3.4902013465,
				"y": 0.5010590292,
				"z": -2.157243637,
				"element": "H" 
			},
			{
				"x": 3.1978996893,
				"y": 2.0714345646,
				"z": -1.6505588603,
				"element": "H" 
			}
		],
		 "valence_orbital": [ 
			{
				"type": "occ",
				"energy": -0.29967,
				"method": "rhf"
			},
			{
				"type": "occ",
				"energy": -0.29263,
				"method": "rhf"
			},
			{
				"type": "occ",
				"energy": -0.27332,
				"method": "rhf"
			},
			{
				"type": "occ",
				"energy": -0.25332,
				"method": "rhf"
			},
			{
				"type": "occ",
				"energy": -0.21443,
				"method": "rhf"
			},
			{
				"type": "unocc",
				"energy": -0.02899,
				"method": "rhf"
			},
			{
				"type": "unocc",
				"energy": -0.00796,
				"method": "rhf"
			},
			{
				"type": "unocc",
				"energy": 0.05986,
				"method": "rhf"
			},
			{
				"type": "unocc",
				"energy": 0.08284,
				"method": "rhf"
			},
			{
				"type": "unocc",
				"energy": 0.09179,
				"method": "rhf"
			}
		],
		"cosmo_sigma_profile": { 
			"-0.025": 0.0,
			"-0.024": 0.0,
			"-0.023": 0.0,
			"-0.022": 0.0,
			"-0.021": 0.0,
			"-0.02": 0.0,
			"-0.019": 0.0,
			"-0.018": 0.0,
			"-0.017": 0.0,
			"-0.016": 0.0,
			"-0.015": 0.613942666284,
			"-0.014": 2.55273456278,
			"-0.013": 2.26710718143,
			"-0.012": 2.8371403422,
			"-0.011": 2.10315086061,
			"-0.01": 1.95397953175,
			"-0.009": 1.29685807615,
			"-0.008": 1.50684796139,
			"-0.007": 1.81068864365,
			"-0.006": 7.1214166427,
			"-0.005": 14.4634018313,
			"-0.004": 20.3456312581,
			"-0.003": 24.2303121726,
			"-0.002": 25.7172380374,
			"-0.001": 28.9808835577,
			"0.0": 17.0661888306,
			"0.001": 12.3088319767,
			"0.002": 10.9684513181,
			"0.003": 14.2141062776,
			"0.004": 11.1955458341,
			"0.005": 5.12942813374,
			"0.006": 4.75620455545,
			"0.007": 4.70406964522,
			"0.008": 4.55538019983,
			"0.009": 4.18149834165,
			"0.01": 7.32172163764,
			"0.011": 9.86293410862,
			"0.012": 5.58648311035,
			"0.013": 0.309461964292,
			"0.014": 0.0,
			"0.015": 0.0,
			"0.016": 0.0,
			"0.017": 0.0,
			"0.018": 0.0,
			"0.019": 0.0,
			"0.02": 0.0,
			"0.021": 0.0,
			"0.022": 0.0,
			"0.023": 0.0,
			"0.024": 0.0,
			"0.025": 0.0
		}
	}
}
