{
	 "smiles": "ClCC(=O)N1CCN(CC1)C(=O)NC1=CC=CC=C1", 
	 "Tm": 442.15, 
	 "num_atms": 35, 
	 "gaussian": { 
		 "optdone": 1, 
		 "sigma_profile": "yes", 
		 "theory": "DFT", 
		 "functional": "B3LYP", 
		 "basiset": "6-31G**", 
		 "properties": { 
			 "R2extent": 7259.2981, 
			 "electric_dipole_moment_norm": 6.09743358307, 
			 "electric_quadrupole_moment_norm": 17.186123855, 
			 "total_energy": -1279.93871421, 
			 "HOMO_LUMO_gap": 0.21088, 
			 "cosmo_polarized_energy": -23.06, 
			 "cosmo_cavitation_energy": 38.92, 
			 "cosmo_dispersion_energy": -27.37, 
			 "cosmo_repulsion_energy": 2.12, 
			 "cosmo_total_nonelectrostatic_energy": 13.66, 
			 "SMD_solvation_energy": 6.52 
		},
		"coords": [
			{
				"x": -1.7269793228,
				"y": -4.6219869381,
				"z": 2.7743136916,
				"element": "Cl" 
			},
			{
				"x": -0.9454831875,
				"y": -3.2126575173,
				"z": 1.9994313507,
				"element": "C" 
			},
			{
				"x": -1.3871072079,
				"y": -1.8776645052,
				"z": 2.6228127026,
				"element": "C" 
			},
			{
				"x": -2.2169872677,
				"y": -1.807427388,
				"z": 3.5142948725,
				"element": "O" 
			},
			{
				"x": -0.7679652026,
				"y": -0.7741322198,
				"z": 2.0835750293,
				"element": "N" 
			},
			{
				"x": 0.2482613841,
				"y": -0.8295271902,
				"z": 1.0259828215,
				"element": "C" 
			},
			{
				"x": 0.605621667,
				"y": 0.5873420788,
				"z": 0.5651259764,
				"element": "C" 
			},
			{
				"x": -0.6101154002,
				"y": 1.3582283184,
				"z": 0.3132797098,
				"element": "N" 
			},
			{
				"x": -1.532924658,
				"y": 1.4910807297,
				"z": 1.4578624664,
				"element": "C" 
			},
			{
				"x": -1.1167294795,
				"y": 0.5531852221,
				"z": 2.5928343818,
				"element": "C" 
			},
			{
				"x": -0.7091461021,
				"y": 2.3458017971,
				"z": -0.6477034823,
				"element": "C" 
			},
			{
				"x": -1.458542423,
				"y": 3.3071794828,
				"z": -0.5211571054,
				"element": "O" 
			},
			{
				"x": 0.1192445783,
				"y": 2.2331725372,
				"z": -1.7760864214,
				"element": "N" 
			},
			{
				"x": 0.3425571589,
				"y": 1.0897910199,
				"z": -2.5866488458,
				"element": "C" 
			},
			{
				"x": -0.4588840165,
				"y": -0.0602882928,
				"z": -2.5203727451,
				"element": "C" 
			},
			{
				"x": -0.1954503876,
				"y": -1.1436832535,
				"z": -3.3597698364,
				"element": "C" 
			},
			{
				"x": 0.8467501266,
				"y": -1.0925343904,
				"z": -4.286684225,
				"element": "C" 
			},
			{
				"x": 1.6336411817,
				"y": 0.0585893318,
				"z": -4.3646218375,
				"element": "C" 
			},
			{
				"x": 1.3925608578,
				"y": 1.137786476,
				"z": -3.5167084691,
				"element": "C" 
			},
			{
				"x": 0.1350307814,
				"y": -3.3450197918,
				"z": 2.091393043,
				"element": "H" 
			},
			{
				"x": -1.1998876226,
				"y": -3.2406738586,
				"z": 0.9370040257,
				"element": "H" 
			},
			{
				"x": 1.1649392932,
				"y": -1.3265184521,
				"z": 1.3747748129,
				"element": "H" 
			},
			{
				"x": -0.12890384,
				"y": -1.3911255736,
				"z": 0.1636663554,
				"element": "H" 
			},
			{
				"x": 1.2015971143,
				"y": 0.5184533084,
				"z": -0.3423345079,
				"element": "H" 
			},
			{
				"x": 1.2278862942,
				"y": 1.0860289187,
				"z": 1.322343754,
				"element": "H" 
			},
			{
				"x": -1.547729837,
				"y": 2.527463629,
				"z": 1.8121008172,
				"element": "H" 
			},
			{
				"x": -2.5465360815,
				"y": 1.2504259987,
				"z": 1.1205694387,
				"element": "H" 
			},
			{
				"x": -1.9389832176,
				"y": 0.4230684322,
				"z": 3.2958396006,
				"element": "H" 
			},
			{
				"x": -0.2691710369,
				"y": 0.9716817741,
				"z": 3.1509657089,
				"element": "H" 
			},
			{
				"x": 0.0950904369,
				"y": 3.1070654242,
				"z": -2.2871102186,
				"element": "H" 
			},
			{
				"x": -1.2906113159,
				"y": -0.096462983,
				"z": -1.8255669878,
				"element": "H" 
			},
			{
				"x": -0.8270738604,
				"y": -2.0257145602,
				"z": -3.3003276323,
				"element": "H" 
			},
			{
				"x": 1.0402985659,
				"y": -1.935643564,
				"z": -4.9423953563,
				"element": "H" 
			},
			{
				"x": 2.4470757184,
				"y": 0.1158238628,
				"z": -5.082175478,
				"element": "H" 
			},
			{
				"x": 2.0174563084,
				"y": 2.0253921366,
				"z": -3.5649074103,
				"element": "H" 
			}
		],
		 "valence_orbital": [ 
			{
				"type": "occ",
				"energy": -0.2669,
				"method": "rhf"
			},
			{
				"type": "occ",
				"energy": -0.2634,
				"method": "rhf"
			},
			{
				"type": "occ",
				"energy": -0.25422,
				"method": "rhf"
			},
			{
				"type": "occ",
				"energy": -0.24792,
				"method": "rhf"
			},
			{
				"type": "occ",
				"energy": -0.2301,
				"method": "rhf"
			},
			{
				"type": "unocc",
				"energy": -0.01922,
				"method": "rhf"
			},
			{
				"type": "unocc",
				"energy": -0.01756,
				"method": "rhf"
			},
			{
				"type": "unocc",
				"energy": 0.01361,
				"method": "rhf"
			},
			{
				"type": "unocc",
				"energy": 0.02376,
				"method": "rhf"
			},
			{
				"type": "unocc",
				"energy": 0.0342,
				"method": "rhf"
			}
		],
		"cosmo_sigma_profile": { 
			"-0.025": 0.0,
			"-0.024": 0.0,
			"-0.023": 0.0,
			"-0.022": 0.0,
			"-0.021": 0.0,
			"-0.02": 0.0,
			"-0.019": 0.0,
			"-0.018": 0.0,
			"-0.017": 0.0,
			"-0.016": 0.0,
			"-0.015": 0.0,
			"-0.014": 0.310855241731,
			"-0.013": 1.07668503258,
			"-0.012": 0.529468116156,
			"-0.011": 1.39520421305,
			"-0.01": 1.29976715628,
			"-0.009": 6.85703659849,
			"-0.008": 5.86484085308,
			"-0.007": 8.47900873632,
			"-0.006": 20.0416963172,
			"-0.005": 29.5794994485,
			"-0.004": 31.9455613648,
			"-0.003": 23.6938185031,
			"-0.002": 18.9901092399,
			"-0.001": 17.3205079702,
			"0.0": 18.0023166408,
			"0.001": 13.5705648621,
			"0.002": 13.5835550766,
			"0.003": 12.4401374934,
			"0.004": 14.9601755099,
			"0.005": 17.1529974708,
			"0.006": 13.3907121302,
			"0.007": 5.10239968144,
			"0.008": 4.13230889664,
			"0.009": 2.50936305037,
			"0.01": 2.46976722556,
			"0.011": 3.83073004884,
			"0.012": 4.3618777726,
			"0.013": 9.21388294361,
			"0.014": 6.81956156815,
			"0.015": 0.88189566157,
			"0.016": 0.0,
			"0.017": 0.0,
			"0.018": 0.0,
			"0.019": 0.0,
			"0.02": 0.0,
			"0.021": 0.0,
			"0.022": 0.0,
			"0.023": 0.0,
			"0.024": 0.0,
			"0.025": 0.0
		}
	}
}
