{
	 "smiles": "NC1=NC2=C(O1)C=CC(Br)=C2", 
	 "Tm": 446.15, 
	 "num_atms": 16, 
	 "gaussian": { 
		 "optdone": 1, 
		 "sigma_profile": "yes", 
		 "theory": "DFT", 
		 "functional": "B3LYP", 
		 "basiset": "6-31G**", 
		 "properties": { 
			 "R2extent": 3775.2994, 
			 "electric_dipole_moment_norm": 4.30985752317, 
			 "electric_quadrupole_moment_norm": 11.0622225574, 
			 "total_energy": -3025.89335895, 
			 "HOMO_LUMO_gap": 0.20061, 
			 "cosmo_polarized_energy": -11.46, 
			 "cosmo_cavitation_energy": 23.13, 
			 "cosmo_dispersion_energy": -18.12, 
			 "cosmo_repulsion_energy": 1.46, 
			 "cosmo_total_nonelectrostatic_energy": 6.46, 
			 "SMD_solvation_energy": 1.17 
		},
		"coords": [
			{
				"x": 0.6421480338,
				"y": 0.6380664087,
				"z": -3.2230688687,
				"element": "N" 
			},
			{
				"x": 0.4611452346,
				"y": 0.2003734753,
				"z": -1.9479302048,
				"element": "C" 
			},
			{
				"x": 1.3547561464,
				"y": -0.2840376741,
				"z": -1.1381742158,
				"element": "N" 
			},
			{
				"x": 0.6396871531,
				"y": -0.4983251161,
				"z": 0.0410874239,
				"element": "C" 
			},
			{
				"x": -0.6974704024,
				"y": -0.1187546158,
				"z": -0.1505893498,
				"element": "C" 
			},
			{
				"x": -0.8112892316,
				"y": 0.3386916378,
				"z": -1.4515292806,
				"element": "O" 
			},
			{
				"x": -1.6763763616,
				"y": -0.210280285,
				"z": 0.8192945473,
				"element": "C" 
			},
			{
				"x": -1.2700250697,
				"y": -0.7174039599,
				"z": 2.0606351086,
				"element": "C" 
			},
			{
				"x": 0.0619311576,
				"y": -1.0995596824,
				"z": 2.265520924,
				"element": "C" 
			},
			{
				"x": 0.5569051908,
				"y": -1.7862921585,
				"z": 3.9845556232,
				"element": "Br" 
			},
			{
				"x": 1.0433489678,
				"y": -1.0036228702,
				"z": 1.2773435091,
				"element": "C" 
			},
			{
				"x": -0.173730044,
				"y": 0.6628321288,
				"z": -3.8161374504,
				"element": "H" 
			},
			{
				"x": 1.5012263819,
				"y": 0.3363129547,
				"z": -3.657549385,
				"element": "H" 
			},
			{
				"x": -2.7015933876,
				"y": 0.0923312156,
				"z": 0.6382848178,
				"element": "H" 
			},
			{
				"x": -1.9864594103,
				"y": -0.8148328447,
				"z": 2.8672066387,
				"element": "H" 
			},
			{
				"x": 2.0671956411,
				"y": -1.3053986145,
				"z": 1.4589501624,
				"element": "H" 
			}
		],
		 "valence_orbital": [ 
			{
				"type": "occ",
				"energy": -0.29321,
				"method": "rhf"
			},
			{
				"type": "occ",
				"energy": -0.2904,
				"method": "rhf"
			},
			{
				"type": "occ",
				"energy": -0.28115,
				"method": "rhf"
			},
			{
				"type": "occ",
				"energy": -0.23871,
				"method": "rhf"
			},
			{
				"type": "occ",
				"energy": -0.21846,
				"method": "rhf"
			},
			{
				"type": "unocc",
				"energy": -0.01785,
				"method": "rhf"
			},
			{
				"type": "unocc",
				"energy": 0.00127,
				"method": "rhf"
			},
			{
				"type": "unocc",
				"energy": 0.01107,
				"method": "rhf"
			},
			{
				"type": "unocc",
				"energy": 0.04749,
				"method": "rhf"
			},
			{
				"type": "unocc",
				"energy": 0.0679,
				"method": "rhf"
			}
		],
		"cosmo_sigma_profile": { 
			"-0.025": 0.0,
			"-0.024": 0.0,
			"-0.023": 0.0,
			"-0.022": 0.0,
			"-0.021": 0.0,
			"-0.02": 0.0,
			"-0.019": 0.0,
			"-0.018": 0.0,
			"-0.017": 0.0,
			"-0.016": 0.146173003375,
			"-0.015": 2.28282633796,
			"-0.014": 2.60110729359,
			"-0.013": 2.36386395603,
			"-0.012": 2.31851046271,
			"-0.011": 2.03708142881,
			"-0.01": 1.57880458274,
			"-0.009": 2.47799074203,
			"-0.008": 3.77488874171,
			"-0.007": 5.20846155651,
			"-0.006": 6.79402598615,
			"-0.005": 6.51645309306,
			"-0.004": 7.36211147691,
			"-0.003": 8.74047771366,
			"-0.002": 11.1076557417,
			"-0.001": 8.92557314269,
			"0.0": 11.9524474617,
			"0.001": 13.3563492747,
			"0.002": 18.2412151287,
			"0.003": 25.8692564998,
			"0.004": 16.1546636474,
			"0.005": 13.2770990385,
			"0.006": 3.63685733542,
			"0.007": 2.58811725569,
			"0.008": 1.47908925812,
			"0.009": 1.59903711854,
			"0.01": 1.08828790652,
			"0.011": 1.17236456949,
			"0.012": 1.10695303086,
			"0.013": 0.716869988172,
			"0.014": 1.45781558705,
			"0.015": 0.68449101431,
			"0.016": 0.726621181038,
			"0.017": 0.0299029715104,
			"0.018": 0.0,
			"0.019": 0.0,
			"0.02": 0.0,
			"0.021": 0.0,
			"0.022": 0.0,
			"0.023": 0.0,
			"0.024": 0.0,
			"0.025": 0.0
		}
	}
}
