{
	 "smiles": "NC1=NC(CC(=O)C2=CC=CC=C2)=CS1", 
	 "Tm": 431.15, 
	 "num_atms": 25, 
	 "gaussian": { 
		 "optdone": 1, 
		 "sigma_profile": "yes", 
		 "theory": "DFT", 
		 "functional": "B3LYP", 
		 "basiset": "6-31G**", 
		 "properties": { 
			 "R2extent": 4123.2535, 
			 "electric_dipole_moment_norm": 3.96197419729, 
			 "electric_quadrupole_moment_norm": 12.0035725878, 
			 "total_energy": -1008.10839698, 
			 "HOMO_LUMO_gap": 0.15921, 
			 "cosmo_polarized_energy": -13.94, 
			 "cosmo_cavitation_energy": 31.24, 
			 "cosmo_dispersion_energy": -22.76, 
			 "cosmo_repulsion_energy": 1.75, 
			 "cosmo_total_nonelectrostatic_energy": 10.24, 
			 "SMD_solvation_energy": 4.56 
		},
		"coords": [
			{
				"x": 2.631311418,
				"y": 2.1943628677,
				"z": 1.9240226597,
				"element": "N" 
			},
			{
				"x": 1.6527707954,
				"y": 2.23633273,
				"z": 0.9568773968,
				"element": "C" 
			},
			{
				"x": 0.4106250415,
				"y": 1.9014979339,
				"z": 1.165132177,
				"element": "N" 
			},
			{
				"x": -0.3269516006,
				"y": 1.9771656006,
				"z": -0.005962396,
				"element": "C" 
			},
			{
				"x": -1.7939089898,
				"y": 1.6141977326,
				"z": 0.0218852154,
				"element": "C" 
			},
			{
				"x": -2.0819836429,
				"y": 0.2904621246,
				"z": -0.7023485184,
				"element": "C" 
			},
			{
				"x": -2.5442700876,
				"y": 0.3186800391,
				"z": -1.8335240289,
				"element": "O" 
			},
			{
				"x": -1.7960448948,
				"y": -1.0093882469,
				"z": -0.0178296371,
				"element": "C" 
			},
			{
				"x": -1.1721942476,
				"y": -1.0905926527,
				"z": 1.2371881828,
				"element": "C" 
			},
			{
				"x": -0.9432936977,
				"y": -2.3360162932,
				"z": 1.8236933112,
				"element": "C" 
			},
			{
				"x": -1.3385736488,
				"y": -3.5044085506,
				"z": 1.1702424708,
				"element": "C" 
			},
			{
				"x": -1.9582745178,
				"y": -3.4302783432,
				"z": -0.0816083414,
				"element": "C" 
			},
			{
				"x": -2.1818870193,
				"y": -2.1912967099,
				"z": -0.6724605959,
				"element": "C" 
			},
			{
				"x": 0.3579386045,
				"y": 2.3766802563,
				"z": -1.11424052,
				"element": "C" 
			},
			{
				"x": 2.0330288966,
				"y": 2.6739778362,
				"z": -0.7121572621,
				"element": "S" 
			},
			{
				"x": 2.2569842879,
				"y": 2.1300624941,
				"z": 2.861688394,
				"element": "H" 
			},
			{
				"x": 3.3938417953,
				"y": 2.8501368504,
				"z": 1.8321477316,
				"element": "H" 
			},
			{
				"x": -2.1237102545,
				"y": 1.5752426488,
				"z": 1.0631711919,
				"element": "H" 
			},
			{
				"x": -2.3821727285,
				"y": 2.3712881187,
				"z": -0.501832709,
				"element": "H" 
			},
			{
				"x": -0.8368088909,
				"y": -0.1914546099,
				"z": 1.7438466187,
				"element": "H" 
			},
			{
				"x": -0.4539919904,
				"y": -2.3934296968,
				"z": 2.7917267129,
				"element": "H" 
			},
			{
				"x": -1.1625997968,
				"y": -4.471621444,
				"z": 1.6329805679,
				"element": "H" 
			},
			{
				"x": -2.2640801123,
				"y": -4.3389698209,
				"z": -0.5922176754,
				"element": "H" 
			},
			{
				"x": -2.6577104917,
				"y": -2.1058373143,
				"z": -1.6436757151,
				"element": "H" 
			},
			{
				"x": -0.0081442273,
				"y": 2.5118064495,
				"z": -2.1213452312,
				"element": "H" 
			}
		],
		 "valence_orbital": [ 
			{
				"type": "occ",
				"energy": -0.27869,
				"method": "rhf"
			},
			{
				"type": "occ",
				"energy": -0.25347,
				"method": "rhf"
			},
			{
				"type": "occ",
				"energy": -0.25142,
				"method": "rhf"
			},
			{
				"type": "occ",
				"energy": -0.24446,
				"method": "rhf"
			},
			{
				"type": "occ",
				"energy": -0.21025,
				"method": "rhf"
			},
			{
				"type": "unocc",
				"energy": -0.05104,
				"method": "rhf"
			},
			{
				"type": "unocc",
				"energy": -0.01008,
				"method": "rhf"
			},
			{
				"type": "unocc",
				"energy": -0.00123,
				"method": "rhf"
			},
			{
				"type": "unocc",
				"energy": 0.00932,
				"method": "rhf"
			},
			{
				"type": "unocc",
				"energy": 0.04186,
				"method": "rhf"
			}
		],
		"cosmo_sigma_profile": { 
			"-0.025": 0.0,
			"-0.024": 0.0,
			"-0.023": 0.0,
			"-0.022": 0.0,
			"-0.021": 0.0,
			"-0.02": 0.0,
			"-0.019": 0.0,
			"-0.018": 0.0,
			"-0.017": 0.0,
			"-0.016": 0.0,
			"-0.015": 0.317194425519,
			"-0.014": 2.13093654941,
			"-0.013": 2.68984671785,
			"-0.012": 2.65070440733,
			"-0.011": 2.99963295265,
			"-0.01": 1.99604406655,
			"-0.009": 2.25067214038,
			"-0.008": 3.0380972462,
			"-0.007": 5.10511065104,
			"-0.006": 10.8379759821,
			"-0.005": 15.3105209671,
			"-0.004": 18.2948013485,
			"-0.003": 16.3985908467,
			"-0.002": 14.4750584752,
			"-0.001": 14.0214180148,
			"0.0": 12.3490484512,
			"0.001": 18.6499462342,
			"0.002": 21.8165679974,
			"0.003": 25.4253569852,
			"0.004": 24.3193215574,
			"0.005": 9.97201266978,
			"0.006": 4.19144583746,
			"0.007": 3.4457637734,
			"0.008": 2.46657561575,
			"0.009": 3.16765343686,
			"0.01": 4.0253719297,
			"0.011": 3.73374395534,
			"0.012": 4.5533732245,
			"0.013": 1.38052191467,
			"0.014": 0.196566562868,
			"0.015": 0.0,
			"0.016": 0.0,
			"0.017": 0.0,
			"0.018": 0.0,
			"0.019": 0.0,
			"0.02": 0.0,
			"0.021": 0.0,
			"0.022": 0.0,
			"0.023": 0.0,
			"0.024": 0.0,
			"0.025": 0.0
		}
	}
}
