{
	 "smiles": "OC(=O)C=CC1=C(Cl)C=C(F)C=C1", 
	 "Tm": 520.15, 
	 "num_atms": 19, 
	 "gaussian": { 
		 "optdone": 1, 
		 "sigma_profile": "yes", 
		 "theory": "DFT", 
		 "functional": "B3LYP", 
		 "basiset": "6-31G**", 
		 "properties": { 
			 "R2extent": 3635.5132, 
			 "electric_dipole_moment_norm": 4.57390176217, 
			 "electric_quadrupole_moment_norm": 21.8835693665, 
			 "total_energy": -1057.03590665, 
			 "HOMO_LUMO_gap": 0.16924, 
			 "cosmo_polarized_energy": -14.96, 
			 "cosmo_cavitation_energy": 26.76, 
			 "cosmo_dispersion_energy": -19.4, 
			 "cosmo_repulsion_energy": 1.51, 
			 "cosmo_total_nonelectrostatic_energy": 8.86, 
			 "SMD_solvation_energy": 6.2 
		},
		"coords": [
			{
				"x": 3.7872333879,
				"y": -0.5437936225,
				"z": 0.1965956445,
				"element": "O" 
			},
			{
				"x": 3.2441493268,
				"y": -0.1881365224,
				"z": -1.0005078364,
				"element": "C" 
			},
			{
				"x": 3.9585266922,
				"y": 0.1541316603,
				"z": -1.9143645364,
				"element": "O" 
			},
			{
				"x": 1.7632718857,
				"y": -0.2249603831,
				"z": -1.1266203681,
				"element": "C" 
			},
			{
				"x": 0.9032500847,
				"y": -0.1711991258,
				"z": -0.0925117168,
				"element": "C" 
			},
			{
				"x": -0.5596520432,
				"y": -0.1652347291,
				"z": -0.1722719841,
				"element": "C" 
			},
			{
				"x": -1.3629486825,
				"y": 0.1515697315,
				"z": 0.9448031434,
				"element": "C" 
			},
			{
				"x": -0.637428678,
				"y": 0.5750027458,
				"z": 2.4897334838,
				"element": "Cl" 
			},
			{
				"x": -2.7546863055,
				"y": 0.1556124917,
				"z": 0.8822382563,
				"element": "C" 
			},
			{
				"x": -3.3626024361,
				"y": -0.1678431751,
				"z": -0.3233867799,
				"element": "C" 
			},
			{
				"x": -4.7037550655,
				"y": -0.1678607157,
				"z": -0.3903002663,
				"element": "F" 
			},
			{
				"x": -2.6234455339,
				"y": -0.4961786278,
				"z": -1.4563870201,
				"element": "C" 
			},
			{
				"x": -1.2390065746,
				"y": -0.4934387848,
				"z": -1.3641304732,
				"element": "C" 
			},
			{
				"x": 3.1163913982,
				"y": -0.9544925135,
				"z": 0.7593206082,
				"element": "H" 
			},
			{
				"x": 1.4279220599,
				"y": -0.2062538032,
				"z": -2.1584345138,
				"element": "H" 
			},
			{
				"x": 1.3022696973,
				"y": -0.0901003503,
				"z": 0.9157650877,
				"element": "H" 
			},
			{
				"x": -3.3563995612,
				"y": 0.4058465924,
				"z": 1.7470740029,
				"element": "H" 
			},
			{
				"x": -3.1330170289,
				"y": -0.7533674406,
				"z": -2.3778560632,
				"element": "H" 
			},
			{
				"x": -0.6582726234,
				"y": -0.7675034277,
				"z": -2.2380586687,
				"element": "H" 
			}
		],
		 "valence_orbital": [ 
			{
				"type": "occ",
				"energy": -0.32921,
				"method": "rhf"
			},
			{
				"type": "occ",
				"energy": -0.31422,
				"method": "rhf"
			},
			{
				"type": "occ",
				"energy": -0.27969,
				"method": "rhf"
			},
			{
				"type": "occ",
				"energy": -0.27438,
				"method": "rhf"
			},
			{
				"type": "occ",
				"energy": -0.25217,
				"method": "rhf"
			},
			{
				"type": "unocc",
				"energy": -0.08293,
				"method": "rhf"
			},
			{
				"type": "unocc",
				"energy": -0.04113,
				"method": "rhf"
			},
			{
				"type": "unocc",
				"energy": 0.00133,
				"method": "rhf"
			},
			{
				"type": "unocc",
				"energy": 0.00543,
				"method": "rhf"
			},
			{
				"type": "unocc",
				"energy": 0.05941,
				"method": "rhf"
			}
		],
		"cosmo_sigma_profile": { 
			"-0.025": 0.0,
			"-0.024": 0.0,
			"-0.023": 0.0,
			"-0.022": 0.0,
			"-0.021": 0.0,
			"-0.02": 0.0,
			"-0.019": 0.126019227488,
			"-0.018": 1.20390707749,
			"-0.017": 1.01301002053,
			"-0.016": 0.831794053354,
			"-0.015": 0.88634867829,
			"-0.014": 0.629187472063,
			"-0.013": 1.03173492729,
			"-0.012": 1.41848179679,
			"-0.011": 0.84946041656,
			"-0.01": 1.39503111105,
			"-0.009": 4.23319972151,
			"-0.008": 6.99399460833,
			"-0.007": 6.88308464934,
			"-0.006": 7.59509063921,
			"-0.005": 6.95911832416,
			"-0.004": 7.65266882264,
			"-0.003": 9.86702876423,
			"-0.002": 13.2261887747,
			"-0.001": 20.1264834714,
			"0.0": 25.5297609447,
			"0.001": 25.5834839313,
			"0.002": 15.104563071,
			"0.003": 15.7391081875,
			"0.004": 11.7091271259,
			"0.005": 2.49266236808,
			"0.006": 1.90674871855,
			"0.007": 2.60499879898,
			"0.008": 2.24643463873,
			"0.009": 3.30719623077,
			"0.01": 4.44486878703,
			"0.011": 5.13774777851,
			"0.012": 5.99920370353,
			"0.013": 2.96045619314,
			"0.014": 0.202015490763,
			"0.015": 0.0,
			"0.016": 0.0,
			"0.017": 0.0,
			"0.018": 0.0,
			"0.019": 0.0,
			"0.02": 0.0,
			"0.021": 0.0,
			"0.022": 0.0,
			"0.023": 0.0,
			"0.024": 0.0,
			"0.025": 0.0
		}
	}
}
