{
	 "smiles": "NC(=NO)C1=CC=C(F)C=C1", 
	 "Tm": 366.65, 
	 "num_atms": 18, 
	 "gaussian": { 
		 "optdone": 1, 
		 "sigma_profile": "yes", 
		 "theory": "DFT", 
		 "functional": "B3LYP", 
		 "basiset": "6-31G**", 
		 "properties": { 
			 "R2extent": 2364.4865, 
			 "electric_dipole_moment_norm": 1.89736000011, 
			 "electric_quadrupole_moment_norm": 6.43082789383, 
			 "total_energy": -555.475962137, 
			 "HOMO_LUMO_gap": 0.18556, 
			 "cosmo_polarized_energy": -11.01, 
			 "cosmo_cavitation_energy": 22.98, 
			 "cosmo_dispersion_energy": -17.11, 
			 "cosmo_repulsion_energy": 1.37, 
			 "cosmo_total_nonelectrostatic_energy": 7.24, 
			 "SMD_solvation_energy": 4.62 
		},
		"coords": [
			{
				"x": -1.6588300283,
				"y": 0.1726418853,
				"z": -1.521593087,
				"element": "N" 
			},
			{
				"x": -0.5281556358,
				"y": 0.5723251629,
				"z": -0.83141996,
				"element": "C" 
			},
			{
				"x": -0.2869135925,
				"y": 1.7953716145,
				"z": -0.4836254204,
				"element": "N" 
			},
			{
				"x": -1.2900316525,
				"y": 2.6508163835,
				"z": -1.0195862968,
				"element": "O" 
			},
			{
				"x": 0.4377593395,
				"y": -0.4685521847,
				"z": -0.4084381975,
				"element": "C" 
			},
			{
				"x": 0.0356417813,
				"y": -1.8055201398,
				"z": -0.2660130121,
				"element": "C" 
			},
			{
				"x": 0.9443570989,
				"y": -2.7874124051,
				"z": 0.1278037453,
				"element": "C" 
			},
			{
				"x": 2.2580938295,
				"y": -2.4158385497,
				"z": 0.3849280611,
				"element": "C" 
			},
			{
				"x": 3.1439562529,
				"y": -3.3597551374,
				"z": 0.7641401664,
				"element": "F" 
			},
			{
				"x": 2.6879235208,
				"y": -1.097320092,
				"z": 0.2616663519,
				"element": "C" 
			},
			{
				"x": 1.7738868892,
				"y": -0.1283833536,
				"z": -0.1389952384,
				"element": "C" 
			},
			{
				"x": -1.5276553075,
				"y": -0.5945957451,
				"z": -2.1653951758,
				"element": "H" 
			},
			{
				"x": -2.1864618739,
				"y": 0.9470164479,
				"z": -1.902514255,
				"element": "H" 
			},
			{
				"x": -1.015671586,
				"y": 3.5129429579,
				"z": -0.6852699856,
				"element": "H" 
			},
			{
				"x": -1.0013059713,
				"y": -2.0766297841,
				"z": -0.4361226841,
				"element": "H" 
			},
			{
				"x": 0.6461529619,
				"y": -3.8233191977,
				"z": 0.2470584904,
				"element": "H" 
			},
			{
				"x": 3.7234744795,
				"y": -0.85064318,
				"z": 0.4696240452,
				"element": "H" 
			},
			{
				"x": 2.0818794943,
				"y": 0.9049553173,
				"z": -0.2500475476,
				"element": "H" 
			}
		],
		 "valence_orbital": [ 
			{
				"type": "occ",
				"energy": -0.32076,
				"method": "rhf"
			},
			{
				"type": "occ",
				"energy": -0.27505,
				"method": "rhf"
			},
			{
				"type": "occ",
				"energy": -0.26308,
				"method": "rhf"
			},
			{
				"type": "occ",
				"energy": -0.25325,
				"method": "rhf"
			},
			{
				"type": "occ",
				"energy": -0.21015,
				"method": "rhf"
			},
			{
				"type": "unocc",
				"energy": -0.02459,
				"method": "rhf"
			},
			{
				"type": "unocc",
				"energy": -0.01355,
				"method": "rhf"
			},
			{
				"type": "unocc",
				"energy": 0.05878,
				"method": "rhf"
			},
			{
				"type": "unocc",
				"energy": 0.07626,
				"method": "rhf"
			},
			{
				"type": "unocc",
				"energy": 0.08818,
				"method": "rhf"
			}
		],
		"cosmo_sigma_profile": { 
			"-0.025": 0.0,
			"-0.024": 0.0,
			"-0.023": 0.0,
			"-0.022": 0.0,
			"-0.021": 0.0,
			"-0.02": 0.0,
			"-0.019": 0.0,
			"-0.018": 0.0,
			"-0.017": 0.477140212884,
			"-0.016": 0.814478468728,
			"-0.015": 1.03398326114,
			"-0.014": 1.14193348983,
			"-0.013": 1.77789000849,
			"-0.012": 1.63997385918,
			"-0.011": 2.72061551487,
			"-0.01": 2.81537745426,
			"-0.009": 3.68016230857,
			"-0.008": 3.26715024707,
			"-0.007": 6.64357100492,
			"-0.006": 8.10708765916,
			"-0.005": 9.1614159793,
			"-0.004": 7.48754109147,
			"-0.003": 6.75473819956,
			"-0.002": 7.34577731776,
			"-0.001": 7.71062279289,
			"0.0": 11.6934845603,
			"0.001": 15.3443427556,
			"0.002": 14.5034435647,
			"0.003": 18.3350523325,
			"0.004": 18.2978030819,
			"0.005": 6.97943589585,
			"0.006": 4.39364651575,
			"0.007": 5.23670739288,
			"0.008": 5.23856459086,
			"0.009": 3.75867375619,
			"0.01": 2.9108472069,
			"0.011": 1.77031655381,
			"0.012": 0.95405459702,
			"0.013": 1.05073594316,
			"0.014": 0.296043577431,
			"0.015": 0.0,
			"0.016": 0.0,
			"0.017": 0.0,
			"0.018": 0.0,
			"0.019": 0.0,
			"0.02": 0.0,
			"0.021": 0.0,
			"0.022": 0.0,
			"0.023": 0.0,
			"0.024": 0.0,
			"0.025": 0.0
		}
	}
}
