{
	 "smiles": "CC(C)C1CCC(C)CC1OC(=O)C(C(=O)C1=CC=CC=C1)C(=O)C1=CC=CC=C1", 
	 "Tm": 411.15, 
	 "num_atms": 60, 
	 "gaussian": { 
		 "optdone": 1, 
		 "sigma_profile": "yes", 
		 "theory": "DFT", 
		 "functional": "B3LYP", 
		 "basiset": "6-31G**", 
		 "properties": { 
			 "R2extent": 13761.5337, 
			 "electric_dipole_moment_norm": 1.34463048828, 
			 "electric_quadrupole_moment_norm": 19.3585911778, 
			 "total_energy": -1309.76669103, 
			 "HOMO_LUMO_gap": 0.17733, 
			 "cosmo_polarized_energy": -14.83, 
			 "cosmo_cavitation_energy": 60.02, 
			 "cosmo_dispersion_energy": -37.89, 
			 "cosmo_repulsion_energy": 2.86, 
			 "cosmo_total_nonelectrostatic_energy": 24.99, 
			 "SMD_solvation_energy": 10.7 
		},
		"coords": [
			{
				"x": 3.3214728517,
				"y": 3.4631270792,
				"z": -2.1255650043,
				"element": "C" 
			},
			{
				"x": 2.2945154793,
				"y": 2.5926131566,
				"z": -1.3770538151,
				"element": "C" 
			},
			{
				"x": 1.1632230763,
				"y": 3.5112688522,
				"z": -0.879317053,
				"element": "C" 
			},
			{
				"x": 2.9224183271,
				"y": 1.7715686071,
				"z": -0.2067465627,
				"element": "C" 
			},
			{
				"x": 4.3920562273,
				"y": 1.343645808,
				"z": -0.4704091276,
				"element": "C" 
			},
			{
				"x": 4.8396445567,
				"y": 0.2117315237,
				"z": 0.4616372697,
				"element": "C" 
			},
			{
				"x": 4.0910120648,
				"y": -1.1031361973,
				"z": 0.1326850998,
				"element": "C" 
			},
			{
				"x": 4.0505888683,
				"y": -2.0475300589,
				"z": 1.3411619677,
				"element": "C" 
			},
			{
				"x": 2.6717338797,
				"y": -0.7875611529,
				"z": -0.4111135807,
				"element": "C" 
			},
			{
				"x": 2.120616411,
				"y": 0.497520097,
				"z": 0.211573095,
				"element": "C" 
			},
			{
				"x": 0.7177248061,
				"y": 0.6399295133,
				"z": -0.1605582224,
				"element": "O" 
			},
			{
				"x": -0.1930702127,
				"y": -0.0046371625,
				"z": 0.5963263688,
				"element": "C" 
			},
			{
				"x": 0.063192598,
				"y": -0.6765904994,
				"z": 1.5680153123,
				"element": "O" 
			},
			{
				"x": -1.606016797,
				"y": 0.3390555295,
				"z": 0.1131846987,
				"element": "C" 
			},
			{
				"x": -1.7167546445,
				"y": 0.6653117541,
				"z": -1.4004081238,
				"element": "C" 
			},
			{
				"x": -2.2035866063,
				"y": 1.7418576497,
				"z": -1.7142663896,
				"element": "O" 
			},
			{
				"x": -1.2596257553,
				"y": -0.3082845691,
				"z": -2.4341059878,
				"element": "C" 
			},
			{
				"x": -1.2824350202,
				"y": 0.1186801499,
				"z": -3.773633666,
				"element": "C" 
			},
			{
				"x": -0.8668146636,
				"y": -0.733041817,
				"z": -4.7910704545,
				"element": "C" 
			},
			{
				"x": -0.4302092883,
				"y": -2.0258635255,
				"z": -4.4836959619,
				"element": "C" 
			},
			{
				"x": -0.41330831,
				"y": -2.46061242,
				"z": -3.1572676286,
				"element": "C" 
			},
			{
				"x": -0.8212111379,
				"y": -1.6076964947,
				"z": -2.131594449,
				"element": "C" 
			},
			{
				"x": -2.6522352076,
				"y": -0.7023352318,
				"z": 0.5717860225,
				"element": "C" 
			},
			{
				"x": -2.3902120654,
				"y": -1.8932539778,
				"z": 0.5586078045,
				"element": "O" 
			},
			{
				"x": -3.9895126445,
				"y": -0.2093814099,
				"z": 1.0194262095,
				"element": "C" 
			},
			{
				"x": -4.8242858747,
				"y": -1.1196176374,
				"z": 1.6908812364,
				"element": "C" 
			},
			{
				"x": -6.0840252299,
				"y": -0.7270579586,
				"z": 2.1293551698,
				"element": "C" 
			},
			{
				"x": -6.5338713875,
				"y": 0.57490329,
				"z": 1.8860080948,
				"element": "C" 
			},
			{
				"x": -5.7196597231,
				"y": 1.479434974,
				"z": 1.2025487521,
				"element": "C" 
			},
			{
				"x": -4.4483959418,
				"y": 1.0957459941,
				"z": 0.7749107716,
				"element": "C" 
			},
			{
				"x": 2.8149130203,
				"y": 4.0483834269,
				"z": -2.90027375,
				"element": "H" 
			},
			{
				"x": 3.8089018576,
				"y": 4.1746341083,
				"z": -1.44770373,
				"element": "H" 
			},
			{
				"x": 4.1033441531,
				"y": 2.8787741146,
				"z": -2.6171129935,
				"element": "H" 
			},
			{
				"x": 1.8697702282,
				"y": 1.8833636936,
				"z": -2.1005713668,
				"element": "H" 
			},
			{
				"x": 1.566895864,
				"y": 4.2775658255,
				"z": -0.2051382415,
				"element": "H" 
			},
			{
				"x": 0.3865093562,
				"y": 2.964218521,
				"z": -0.3456122362,
				"element": "H" 
			},
			{
				"x": 0.6874427466,
				"y": 4.0289960635,
				"z": -1.7189981785,
				"element": "H" 
			},
			{
				"x": 2.9391133106,
				"y": 2.4357454231,
				"z": 0.6693953172,
				"element": "H" 
			},
			{
				"x": 4.5032337816,
				"y": 1.0024323801,
				"z": -1.5078311207,
				"element": "H" 
			},
			{
				"x": 5.0462759149,
				"y": 2.2140508666,
				"z": -0.363486583,
				"element": "H" 
			},
			{
				"x": 4.6483023381,
				"y": 0.4999994367,
				"z": 1.50522013,
				"element": "H" 
			},
			{
				"x": 5.9214201129,
				"y": 0.053398928,
				"z": 0.3854700415,
				"element": "H" 
			},
			{
				"x": 4.6427306076,
				"y": -1.6075977147,
				"z": -0.6715104884,
				"element": "H" 
			},
			{
				"x": 3.4348257776,
				"y": -1.6330744133,
				"z": 2.1478457368,
				"element": "H" 
			},
			{
				"x": 3.6277172624,
				"y": -3.0211971161,
				"z": 1.071818983,
				"element": "H" 
			},
			{
				"x": 5.0561958697,
				"y": -2.2169958647,
				"z": 1.7425311586,
				"element": "H" 
			},
			{
				"x": 1.991008713,
				"y": -1.6140751112,
				"z": -0.1871423657,
				"element": "H" 
			},
			{
				"x": 2.6868682427,
				"y": -0.6742112743,
				"z": -1.501015395,
				"element": "H" 
			},
			{
				"x": 2.1408771123,
				"y": 0.394555036,
				"z": 1.2991226993,
				"element": "H" 
			},
			{
				"x": -1.8330989342,
				"y": 1.2950689941,
				"z": 0.5929759223,
				"element": "H" 
			},
			{
				"x": -1.6298003828,
				"y": 1.1236076635,
				"z": -3.9875040769,
				"element": "H" 
			},
			{
				"x": -0.8831053222,
				"y": -0.3942104301,
				"z": -5.8228283488,
				"element": "H" 
			},
			{
				"x": -0.1073593427,
				"y": -2.6932150602,
				"z": -5.2779430038,
				"element": "H" 
			},
			{
				"x": -0.0846645201,
				"y": -3.4675902667,
				"z": -2.918219927,
				"element": "H" 
			},
			{
				"x": -0.832856782,
				"y": -1.968662424,
				"z": -1.1091449842,
				"element": "H" 
			},
			{
				"x": -4.4578475556,
				"y": -2.1265337351,
				"z": 1.8593115492,
				"element": "H" 
			},
			{
				"x": -6.7181176926,
				"y": -1.4322106569,
				"z": 2.6586474458,
				"element": "H" 
			},
			{
				"x": -7.5191379616,
				"y": 0.8813539579,
				"z": 2.2258955206,
				"element": "H" 
			},
			{
				"x": -6.073536559,
				"y": 2.4858409477,
				"z": 1.0000255694,
				"element": "H" 
			},
			{
				"x": -3.8390898526,
				"y": 1.8012908144,
				"z": 0.2193748699,
				"element": "H" 
			}
		],
		 "valence_orbital": [ 
			{
				"type": "occ",
				"energy": -0.26218,
				"method": "rhf"
			},
			{
				"type": "occ",
				"energy": -0.26017,
				"method": "rhf"
			},
			{
				"type": "occ",
				"energy": -0.25831,
				"method": "rhf"
			},
			{
				"type": "occ",
				"energy": -0.25724,
				"method": "rhf"
			},
			{
				"type": "occ",
				"energy": -0.25247,
				"method": "rhf"
			},
			{
				"type": "unocc",
				"energy": -0.07514,
				"method": "rhf"
			},
			{
				"type": "unocc",
				"energy": -0.05167,
				"method": "rhf"
			},
			{
				"type": "unocc",
				"energy": -0.01237,
				"method": "rhf"
			},
			{
				"type": "unocc",
				"energy": -0.00914,
				"method": "rhf"
			},
			{
				"type": "unocc",
				"energy": 0.00735,
				"method": "rhf"
			}
		],
		"cosmo_sigma_profile": { 
			"-0.025": 0.0,
			"-0.024": 0.0,
			"-0.023": 0.0,
			"-0.022": 0.0,
			"-0.021": 0.0,
			"-0.02": 0.0,
			"-0.019": 0.0,
			"-0.018": 0.0,
			"-0.017": 0.0,
			"-0.016": 0.0,
			"-0.015": 0.0,
			"-0.014": 0.0,
			"-0.013": 0.0,
			"-0.012": 0.0,
			"-0.011": 0.0,
			"-0.01": 0.253572582383,
			"-0.009": 1.67235749787,
			"-0.008": 1.73061985531,
			"-0.007": 6.16563307458,
			"-0.006": 18.9542910256,
			"-0.005": 23.8871194865,
			"-0.004": 24.7282551251,
			"-0.003": 35.0478195449,
			"-0.002": 59.5016774257,
			"-0.001": 55.8318995254,
			"0.0": 53.4759645581,
			"0.001": 48.7172670905,
			"0.002": 42.7585362002,
			"0.003": 36.3257812409,
			"0.004": 21.3806549241,
			"0.005": 5.60750986675,
			"0.006": 3.86849683795,
			"0.007": 4.00527292293,
			"0.008": 4.10138897613,
			"0.009": 5.84088713941,
			"0.01": 6.49887734829,
			"0.011": 8.8306090922,
			"0.012": 2.76665080793,
			"0.013": 0.0471512683465,
			"0.014": 0.0,
			"0.015": 0.0,
			"0.016": 0.0,
			"0.017": 0.0,
			"0.018": 0.0,
			"0.019": 0.0,
			"0.02": 0.0,
			"0.021": 0.0,
			"0.022": 0.0,
			"0.023": 0.0,
			"0.024": 0.0,
			"0.025": 0.0
		}
	}
}
