{
	 "smiles": "NC1=NN2C(N=C(C=C2C(F)(F)F)C2=CC=CS2)=C1N=NC1=CC=C(F)C=C1", 
	 "Tm": 493.15, 
	 "num_atms": 38, 
	 "gaussian": { 
		 "optdone": 1, 
		 "sigma_profile": "yes", 
		 "theory": "DFT", 
		 "functional": "B3LYP", 
		 "basiset": "6-31G**", 
		 "properties": { 
			 "R2extent": 16700.5499, 
			 "electric_dipole_moment_norm": 1.82169242739, 
			 "electric_quadrupole_moment_norm": 29.6538962341, 
			 "total_energy": -1779.8222868, 
			 "HOMO_LUMO_gap": 0.11744, 
			 "cosmo_polarized_energy": -14.3, 
			 "cosmo_cavitation_energy": 48.24, 
			 "cosmo_dispersion_energy": -34.47, 
			 "cosmo_repulsion_energy": 2.44, 
			 "cosmo_total_nonelectrostatic_energy": 16.21, 
			 "SMD_solvation_energy": 6.56 
		},
		"coords": [
			{
				"x": -1.1988532085,
				"y": -4.0107066804,
				"z": -0.8462780897,
				"element": "N" 
			},
			{
				"x": -0.3900673405,
				"y": -2.9533319105,
				"z": -1.0427565739,
				"element": "C" 
			},
			{
				"x": 0.8772260858,
				"y": -3.0942403532,
				"z": -1.4657643597,
				"element": "N" 
			},
			{
				"x": 1.3457432744,
				"y": -1.8168035362,
				"z": -1.5366448756,
				"element": "N" 
			},
			{
				"x": 0.3980755133,
				"y": -0.8452818849,
				"z": -1.1646219564,
				"element": "C" 
			},
			{
				"x": 0.6730032226,
				"y": 0.4570821313,
				"z": -1.1708473031,
				"element": "N" 
			},
			{
				"x": 1.8959411115,
				"y": 0.8441576445,
				"z": -1.5456995178,
				"element": "C" 
			},
			{
				"x": 2.8920361286,
				"y": -0.0987310833,
				"z": -1.9317780295,
				"element": "C" 
			},
			{
				"x": 2.5890987376,
				"y": -1.4392557981,
				"z": -1.9187654524,
				"element": "C" 
			},
			{
				"x": 3.5808786236,
				"y": -2.5134096641,
				"z": -2.3117187645,
				"element": "C" 
			},
			{
				"x": 4.7558069317,
				"y": -1.9474250941,
				"z": -2.6592013781,
				"element": "F" 
			},
			{
				"x": 3.8176044406,
				"y": -3.3584055308,
				"z": -1.2962260897,
				"element": "F" 
			},
			{
				"x": 3.1429756086,
				"y": -3.2258233111,
				"z": -3.3614738839,
				"element": "F" 
			},
			{
				"x": 2.1557386754,
				"y": 2.2804548094,
				"z": -1.5383164353,
				"element": "C" 
			},
			{
				"x": 1.2688639394,
				"y": 3.2751664766,
				"z": -1.1839985,
				"element": "C" 
			},
			{
				"x": 1.8209164433,
				"y": 4.5797415611,
				"z": -1.2807384049,
				"element": "C" 
			},
			{
				"x": 3.123849742,
				"y": 4.5746506825,
				"z": -1.7075663528,
				"element": "C" 
			},
			{
				"x": 3.6991634293,
				"y": 2.9698046644,
				"z": -1.9991795607,
				"element": "S" 
			},
			{
				"x": -0.7597678345,
				"y": -1.5792508952,
				"z": -0.8336967875,
				"element": "C" 
			},
			{
				"x": -1.9347687685,
				"y": -1.0218737595,
				"z": -0.4145247325,
				"element": "N" 
			},
			{
				"x": -2.8738872275,
				"y": -1.8496402767,
				"z": -0.161556242,
				"element": "N" 
			},
			{
				"x": -4.079561553,
				"y": -1.2513057188,
				"z": 0.2701682672,
				"element": "C" 
			},
			{
				"x": -4.2709743353,
				"y": 0.1349941401,
				"z": 0.4222328497,
				"element": "C" 
			},
			{
				"x": -5.4956913749,
				"y": 0.628446062,
				"z": 0.8534206808,
				"element": "C" 
			},
			{
				"x": -6.5274713704,
				"y": -0.2676439988,
				"z": 1.1317976099,
				"element": "C" 
			},
			{
				"x": -7.7153457514,
				"y": 0.2158713547,
				"z": 1.5502780687,
				"element": "F" 
			},
			{
				"x": -6.3687696782,
				"y": -1.6414925578,
				"z": 0.9912045163,
				"element": "C" 
			},
			{
				"x": -5.1371675899,
				"y": -2.1269092877,
				"z": 0.5583248772,
				"element": "C" 
			},
			{
				"x": -0.8626765525,
				"y": -4.9439876229,
				"z": -1.0180298102,
				"element": "H" 
			},
			{
				"x": -2.1378207001,
				"y": -3.8083844981,
				"z": -0.5282280882,
				"element": "H" 
			},
			{
				"x": 3.8827571024,
				"y": 0.2093472824,
				"z": -2.235744323,
				"element": "H" 
			},
			{
				"x": 0.258605155,
				"y": 3.0481096628,
				"z": -0.8679158126,
				"element": "H" 
			},
			{
				"x": 1.2762145969,
				"y": 5.486331936,
				"z": -1.0440788596,
				"element": "H" 
			},
			{
				"x": 3.781616267,
				"y": 5.4175896439,
				"z": -1.8685996672,
				"element": "H" 
			},
			{
				"x": -3.4471853776,
				"y": 0.802018686,
				"z": 0.1968108771,
				"element": "H" 
			},
			{
				"x": -5.6678539719,
				"y": 1.6923486632,
				"z": 0.9783973164,
				"element": "H" 
			},
			{
				"x": -7.1966106138,
				"y": -2.3041991209,
				"z": 1.218219729,
				"element": "H" 
			},
			{
				"x": -4.9762417806,
				"y": -3.1935128176,
				"z": 0.4368950588,
				"element": "H" 
			}
		],
		 "valence_orbital": [ 
			{
				"type": "occ",
				"energy": -0.2614,
				"method": "rhf"
			},
			{
				"type": "occ",
				"energy": -0.25667,
				"method": "rhf"
			},
			{
				"type": "occ",
				"energy": -0.22906,
				"method": "rhf"
			},
			{
				"type": "occ",
				"energy": -0.22035,
				"method": "rhf"
			},
			{
				"type": "occ",
				"energy": -0.20427,
				"method": "rhf"
			},
			{
				"type": "unocc",
				"energy": -0.08683,
				"method": "rhf"
			},
			{
				"type": "unocc",
				"energy": -0.06709,
				"method": "rhf"
			},
			{
				"type": "unocc",
				"energy": -0.03578,
				"method": "rhf"
			},
			{
				"type": "unocc",
				"energy": -0.00925,
				"method": "rhf"
			},
			{
				"type": "unocc",
				"energy": 0.00955,
				"method": "rhf"
			}
		],
		"cosmo_sigma_profile": { 
			"-0.025": 0.0,
			"-0.024": 0.0,
			"-0.023": 0.0,
			"-0.022": 0.0,
			"-0.021": 0.0,
			"-0.02": 0.0,
			"-0.019": 0.0,
			"-0.018": 0.0,
			"-0.017": 0.0,
			"-0.016": 0.0,
			"-0.015": 0.398929541047,
			"-0.014": 0.978338371984,
			"-0.013": 1.54945254893,
			"-0.012": 0.545784047273,
			"-0.011": 0.92188970801,
			"-0.01": 2.25439609717,
			"-0.009": 3.96361655631,
			"-0.008": 6.0902136889,
			"-0.007": 12.0840474197,
			"-0.006": 15.7532513995,
			"-0.005": 21.3857851796,
			"-0.004": 21.3314299093,
			"-0.003": 20.9326564262,
			"-0.002": 22.7462464627,
			"-0.001": 22.2724829743,
			"0.0": 27.6802500096,
			"0.001": 41.9111297345,
			"0.002": 59.856062692,
			"0.003": 48.298321223,
			"0.004": 29.0746035874,
			"0.005": 10.0553134586,
			"0.006": 4.31568892178,
			"0.007": 4.0326973625,
			"0.008": 3.43489483337,
			"0.009": 3.48957233681,
			"0.01": 3.13497549262,
			"0.011": 2.5946946554,
			"0.012": 1.40063091915,
			"0.013": 0.21975875635,
			"0.014": 0.0,
			"0.015": 0.0,
			"0.016": 0.0,
			"0.017": 0.0,
			"0.018": 0.0,
			"0.019": 0.0,
			"0.02": 0.0,
			"0.021": 0.0,
			"0.022": 0.0,
			"0.023": 0.0,
			"0.024": 0.0,
			"0.025": 0.0
		}
	}
}
