{
	 "smiles": "OC(=O)C1=CC=CC(=O)N1", 
	 "Tm": 513.15, 
	 "num_atms": 15, 
	 "gaussian": { 
		 "optdone": 1, 
		 "sigma_profile": "yes", 
		 "theory": "DFT", 
		 "functional": "B3LYP", 
		 "basiset": "6-31G**", 
		 "properties": { 
			 "R2extent": 1509.8182, 
			 "electric_dipole_moment_norm": 5.56384770191, 
			 "electric_quadrupole_moment_norm": 9.25404217842, 
			 "total_energy": -512.083445558, 
			 "HOMO_LUMO_gap": 0.1528, 
			 "cosmo_polarized_energy": -20.1, 
			 "cosmo_cavitation_energy": 20.08, 
			 "cosmo_dispersion_energy": -15.14, 
			 "cosmo_repulsion_energy": 1.23, 
			 "cosmo_total_nonelectrostatic_energy": 6.16, 
			 "SMD_solvation_energy": 5.57 
		},
		"coords": [
			{
				"x": 2.0171277313,
				"y": -0.2150558499,
				"z": 1.7592762321,
				"element": "O" 
			},
			{
				"x": 0.6931119576,
				"y": -0.2553890729,
				"z": 1.506602597,
				"element": "C" 
			},
			{
				"x": -0.0849826717,
				"y": -0.710737982,
				"z": 2.3127659144,
				"element": "O" 
			},
			{
				"x": 0.2238048902,
				"y": 0.2882529085,
				"z": 0.1885257369,
				"element": "C" 
			},
			{
				"x": 1.0116139579,
				"y": 0.6061937559,
				"z": -0.8855833756,
				"element": "C" 
			},
			{
				"x": 0.3776931366,
				"y": 1.0975805278,
				"z": -2.0675825439,
				"element": "C" 
			},
			{
				"x": -0.9760121357,
				"y": 1.2454628313,
				"z": -2.1319769337,
				"element": "C" 
			},
			{
				"x": -1.8449750823,
				"y": 0.9011426259,
				"z": -1.0101158059,
				"element": "C" 
			},
			{
				"x": -3.0648770597,
				"y": 0.9884894601,
				"z": -0.9834440321,
				"element": "O" 
			},
			{
				"x": -1.1302748447,
				"y": 0.4306304587,
				"z": 0.1088740516,
				"element": "N" 
			},
			{
				"x": 2.4801167161,
				"y": 0.3058096721,
				"z": 1.0881752391,
				"element": "H" 
			},
			{
				"x": 2.0849747957,
				"y": 0.4558087684,
				"z": -0.8692619084,
				"element": "H" 
			},
			{
				"x": 0.9925632781,
				"y": 1.351310643,
				"z": -2.9265771683,
				"element": "H" 
			},
			{
				"x": -1.4717875728,
				"y": 1.6156523363,
				"z": -3.0218294947,
				"element": "H" 
			},
			{
				"x": -1.6733970967,
				"y": 0.1467489168,
				"z": 0.9197514915,
				"element": "H" 
			}
		],
		 "valence_orbital": [ 
			{
				"type": "occ",
				"energy": -0.34264,
				"method": "rhf"
			},
			{
				"type": "occ",
				"energy": -0.32324,
				"method": "rhf"
			},
			{
				"type": "occ",
				"energy": -0.30607,
				"method": "rhf"
			},
			{
				"type": "occ",
				"energy": -0.26048,
				"method": "rhf"
			},
			{
				"type": "occ",
				"energy": -0.23882,
				"method": "rhf"
			},
			{
				"type": "unocc",
				"energy": -0.08602,
				"method": "rhf"
			},
			{
				"type": "unocc",
				"energy": -0.022,
				"method": "rhf"
			},
			{
				"type": "unocc",
				"energy": 0.03199,
				"method": "rhf"
			},
			{
				"type": "unocc",
				"energy": 0.04331,
				"method": "rhf"
			},
			{
				"type": "unocc",
				"energy": 0.08594,
				"method": "rhf"
			}
		],
		"cosmo_sigma_profile": { 
			"-0.025": 0.0,
			"-0.024": 0.0,
			"-0.023": 0.0,
			"-0.022": 0.0,
			"-0.021": 0.0,
			"-0.02": 0.439766658976,
			"-0.019": 1.02497289639,
			"-0.018": 1.18374773332,
			"-0.017": 1.17478235505,
			"-0.016": 1.05742563556,
			"-0.015": 0.845460878089,
			"-0.014": 1.20893944351,
			"-0.013": 1.4248551622,
			"-0.012": 1.99077042528,
			"-0.011": 1.88428684132,
			"-0.01": 2.39031351401,
			"-0.009": 2.58893214963,
			"-0.008": 6.11064200682,
			"-0.007": 7.41828552608,
			"-0.006": 7.44417307793,
			"-0.005": 7.82186986694,
			"-0.004": 7.24782558608,
			"-0.003": 7.75187738556,
			"-0.002": 11.6285331372,
			"-0.001": 10.6177042785,
			"0.0": 10.2906255205,
			"0.001": 9.24699408485,
			"0.002": 7.11143407026,
			"0.003": 3.25385080334,
			"0.004": 2.63657686454,
			"0.005": 3.3519020011,
			"0.006": 3.88038077043,
			"0.007": 3.55089212087,
			"0.008": 4.54080871799,
			"0.009": 5.97745985885,
			"0.01": 5.46273693609,
			"0.011": 5.04168762924,
			"0.012": 2.46250028174,
			"0.013": 3.81931252193,
			"0.014": 6.01649673801,
			"0.015": 1.40489239976,
			"0.016": 0.0,
			"0.017": 0.0,
			"0.018": 0.0,
			"0.019": 0.0,
			"0.02": 0.0,
			"0.021": 0.0,
			"0.022": 0.0,
			"0.023": 0.0,
			"0.024": 0.0,
			"0.025": 0.0
		}
	}
}
