{
	 "smiles": "CC1=C(C2=C(S1)N=C(C)N=C2Cl)C1=CC=CC=C1", 
	 "Tm": 334.15, 
	 "num_atms": 29, 
	 "gaussian": { 
		 "optdone": 1, 
		 "sigma_profile": "yes", 
		 "theory": "DFT", 
		 "functional": "B3LYP", 
		 "basiset": "6-31G**", 
		 "properties": { 
			 "R2extent": 5694.9466, 
			 "electric_dipole_moment_norm": 2.82465874222, 
			 "electric_quadrupole_moment_norm": 10.2714998613, 
			 "total_energy": -1508.0182538, 
			 "HOMO_LUMO_gap": 0.18416, 
			 "cosmo_polarized_energy": -8.22, 
			 "cosmo_cavitation_energy": 36.4, 
			 "cosmo_dispersion_energy": -26.01, 
			 "cosmo_repulsion_energy": 1.99, 
			 "cosmo_total_nonelectrostatic_energy": 12.38, 
			 "SMD_solvation_energy": 2.56 
		},
		"coords": [
			{
				"x": 2.010109806,
				"y": -2.3326561779,
				"z": 1.9439518034,
				"element": "C" 
			},
			{
				"x": 1.352737355,
				"y": -1.3894200316,
				"z": 0.9819289671,
				"element": "C" 
			},
			{
				"x": 0.4016781882,
				"y": -0.4392984477,
				"z": 1.2485463053,
				"element": "C" 
			},
			{
				"x": 0.0089607152,
				"y": 0.2798591861,
				"z": 0.051332607,
				"element": "C" 
			},
			{
				"x": 0.6974261504,
				"y": -0.1674150225,
				"z": -1.1044762972,
				"element": "C" 
			},
			{
				"x": 1.8140341639,
				"y": -1.4575975949,
				"z": -0.7186387168,
				"element": "S" 
			},
			{
				"x": 0.5444721752,
				"y": 0.3049358142,
				"z": -2.3395516629,
				"element": "N" 
			},
			{
				"x": -0.348079582,
				"y": 1.2901488406,
				"z": -2.4621588772,
				"element": "C" 
			},
			{
				"x": -0.5790184938,
				"y": 1.8780032597,
				"z": -3.8254502812,
				"element": "C" 
			},
			{
				"x": -1.0712847222,
				"y": 1.8094015778,
				"z": -1.4449146918,
				"element": "N" 
			},
			{
				"x": -0.8962981839,
				"y": 1.320279553,
				"z": -0.2371756637,
				"element": "C" 
			},
			{
				"x": -1.8735446697,
				"y": 2.0495130245,
				"z": 1.0288065201,
				"element": "Cl" 
			},
			{
				"x": -0.1330605239,
				"y": -0.2113242978,
				"z": 2.6240128238,
				"element": "C" 
			},
			{
				"x": 0.4922942008,
				"y": 0.6972216358,
				"z": 3.4901296186,
				"element": "C" 
			},
			{
				"x": 0.0050497599,
				"y": 0.8951455718,
				"z": 4.7823756364,
				"element": "C" 
			},
			{
				"x": -1.111283483,
				"y": 0.1843322455,
				"z": 5.2270030409,
				"element": "C" 
			},
			{
				"x": -1.7362084678,
				"y": -0.7279084181,
				"z": 4.3746776005,
				"element": "C" 
			},
			{
				"x": -1.2492031319,
				"y": -0.9260284404,
				"z": 3.0823780466,
				"element": "C" 
			},
			{
				"x": 1.8260803119,
				"y": -3.3770537975,
				"z": 1.6673874939,
				"element": "H" 
			},
			{
				"x": 1.6230634163,
				"y": -2.1720435128,
				"z": 2.9516690011,
				"element": "H" 
			},
			{
				"x": 3.0962157389,
				"y": -2.1876176369,
				"z": 1.9656967454,
				"element": "H" 
			},
			{
				"x": 0.0552758172,
				"y": 1.3837625321,
				"z": -4.5617945639,
				"element": "H" 
			},
			{
				"x": -1.629549156,
				"y": 1.7667220069,
				"z": -4.1130078274,
				"element": "H" 
			},
			{
				"x": -0.3627152068,
				"y": 2.9512376977,
				"z": -3.816842022,
				"element": "H" 
			},
			{
				"x": 1.3590983541,
				"y": 1.2527671173,
				"z": 3.1440220993,
				"element": "H" 
			},
			{
				"x": 0.4975916227,
				"y": 1.6045417272,
				"z": 5.4412479808,
				"element": "H" 
			},
			{
				"x": -1.4911615527,
				"y": 0.3392377425,
				"z": 6.2327448115,
				"element": "H" 
			},
			{
				"x": -2.6036225448,
				"y": -1.2861436677,
				"z": 4.7151476678,
				"element": "H" 
			},
			{
				"x": -1.7377580575,
				"y": -1.6338024869,
				"z": 2.4189518346,
				"element": "H" 
			}
		],
		 "valence_orbital": [ 
			{
				"type": "occ",
				"energy": -0.2664,
				"method": "rhf"
			},
			{
				"type": "occ",
				"energy": -0.26161,
				"method": "rhf"
			},
			{
				"type": "occ",
				"energy": -0.25606,
				"method": "rhf"
			},
			{
				"type": "occ",
				"energy": -0.25118,
				"method": "rhf"
			},
			{
				"type": "occ",
				"energy": -0.23268,
				"method": "rhf"
			},
			{
				"type": "unocc",
				"energy": -0.04852,
				"method": "rhf"
			},
			{
				"type": "unocc",
				"energy": -0.03585,
				"method": "rhf"
			},
			{
				"type": "unocc",
				"energy": -0.01669,
				"method": "rhf"
			},
			{
				"type": "unocc",
				"energy": -0.00609,
				"method": "rhf"
			},
			{
				"type": "unocc",
				"energy": 0.01416,
				"method": "rhf"
			}
		],
		"cosmo_sigma_profile": { 
			"-0.025": 0.0,
			"-0.024": 0.0,
			"-0.023": 0.0,
			"-0.022": 0.0,
			"-0.021": 0.0,
			"-0.02": 0.0,
			"-0.019": 0.0,
			"-0.018": 0.0,
			"-0.017": 0.0,
			"-0.016": 0.0,
			"-0.015": 0.0,
			"-0.014": 0.0,
			"-0.013": 0.0,
			"-0.012": 0.0,
			"-0.011": 0.0,
			"-0.01": 0.0,
			"-0.009": 0.0,
			"-0.008": 0.0,
			"-0.007": 0.0103242051214,
			"-0.006": 8.95114896239,
			"-0.005": 20.9125090836,
			"-0.004": 24.757129572,
			"-0.003": 26.2901552139,
			"-0.002": 33.0562470022,
			"-0.001": 35.3379234169,
			"0.0": 30.3734334446,
			"0.001": 23.5021728641,
			"0.002": 20.0728111928,
			"0.003": 19.2182179715,
			"0.004": 19.6123772446,
			"0.005": 13.99765198,
			"0.006": 6.43696571272,
			"0.007": 2.77420820802,
			"0.008": 2.0802070962,
			"0.009": 1.96898283532,
			"0.01": 2.18789147058,
			"0.011": 2.05204463926,
			"0.012": 0.840193287476,
			"0.013": 1.40047540013,
			"0.014": 0.330554317439,
			"0.015": 0.0,
			"0.016": 0.0,
			"0.017": 0.0,
			"0.018": 0.0,
			"0.019": 0.0,
			"0.02": 0.0,
			"0.021": 0.0,
			"0.022": 0.0,
			"0.023": 0.0,
			"0.024": 0.0,
			"0.025": 0.0
		}
	}
}
