{
	 "smiles": "OC(=O)CC1=CC=C(CC(O)=O)C=C1", 
	 "Tm": 527.15, 
	 "num_atms": 24, 
	 "gaussian": { 
		 "optdone": 1, 
		 "sigma_profile": "yes", 
		 "theory": "DFT", 
		 "functional": "B3LYP", 
		 "basiset": "6-31G**", 
		 "properties": { 
			 "R2extent": 4380.7714, 
			 "electric_dipole_moment_norm": 7.44332039953, 
			 "electric_quadrupole_moment_norm": 14.4093511971, 
			 "total_energy": -688.005528105, 
			 "HOMO_LUMO_gap": 0.22129, 
			 "cosmo_polarized_energy": -25.23, 
			 "cosmo_cavitation_energy": 29.16, 
			 "cosmo_dispersion_energy": -20.63, 
			 "cosmo_repulsion_energy": 1.65, 
			 "cosmo_total_nonelectrostatic_energy": 10.18, 
			 "SMD_solvation_energy": 7.18 
		},
		"coords": [
			{
				"x": 2.3538270003,
				"y": 4.9313554887,
				"z": 1.2273456816,
				"element": "O" 
			},
			{
				"x": 2.2818885674,
				"y": 3.6199835659,
				"z": 0.8757567066,
				"element": "C" 
			},
			{
				"x": 2.751910162,
				"y": 3.2469571794,
				"z": -0.166930489,
				"element": "O" 
			},
			{
				"x": 1.6157632332,
				"y": 2.7160490369,
				"z": 1.9212788303,
				"element": "C" 
			},
			{
				"x": 1.2917239805,
				"y": 1.3243792221,
				"z": 1.4330295648,
				"element": "C" 
			},
			{
				"x": 2.2989876923,
				"y": 0.4716918336,
				"z": 0.9650924541,
				"element": "C" 
			},
			{
				"x": 1.991167492,
				"y": -0.8165363823,
				"z": 0.530077076,
				"element": "C" 
			},
			{
				"x": 0.6697622384,
				"y": -1.2917571642,
				"z": 0.5464176549,
				"element": "C" 
			},
			{
				"x": 0.3335352179,
				"y": -2.6723631673,
				"z": 0.0318978156,
				"element": "C" 
			},
			{
				"x": -0.0248295875,
				"y": -2.7649052391,
				"z": -1.4629836523,
				"element": "C" 
			},
			{
				"x": 0.4183115192,
				"y": -1.7653027771,
				"z": -2.2574967575,
				"element": "O" 
			},
			{
				"x": -0.6368532558,
				"y": -3.6971869058,
				"z": -1.9205228374,
				"element": "O" 
			},
			{
				"x": -0.3345721402,
				"y": -0.4342183369,
				"z": 1.0153099706,
				"element": "C" 
			},
			{
				"x": -0.0259353554,
				"y": 0.8531502597,
				"z": 1.4520587986,
				"element": "C" 
			},
			{
				"x": 1.927937949,
				"y": 5.0801170928,
				"z": 2.0834892669,
				"element": "H" 
			},
			{
				"x": 2.3052968316,
				"y": 2.6732620278,
				"z": 2.7774661013,
				"element": "H" 
			},
			{
				"x": 0.7064721852,
				"y": 3.2067298396,
				"z": 2.2893977664,
				"element": "H" 
			},
			{
				"x": 3.3262697263,
				"y": 0.8186687034,
				"z": 0.9316433919,
				"element": "H" 
			},
			{
				"x": 2.7906982626,
				"y": -1.4673068337,
				"z": 0.1834496288,
				"element": "H" 
			},
			{
				"x": -0.5100147125,
				"y": -3.1092924436,
				"z": 0.5719150641,
				"element": "H" 
			},
			{
				"x": 1.1817823196,
				"y": -3.3520740986,
				"z": 0.1795686337,
				"element": "H" 
			},
			{
				"x": 0.8498333145,
				"y": -1.0812973689,
				"z": -1.7199242562,
				"element": "H" 
			},
			{
				"x": -1.3656593531,
				"y": -0.7772002278,
				"z": 1.0386680546,
				"element": "H" 
			},
			{
				"x": -0.8227032875,
				"y": 1.4991966953,
				"z": 1.8123955316,
				"element": "H" 
			}
		],
		 "valence_orbital": [ 
			{
				"type": "occ",
				"energy": -0.30775,
				"method": "rhf"
			},
			{
				"type": "occ",
				"energy": -0.28952,
				"method": "rhf"
			},
			{
				"type": "occ",
				"energy": -0.27863,
				"method": "rhf"
			},
			{
				"type": "occ",
				"energy": -0.27023,
				"method": "rhf"
			},
			{
				"type": "occ",
				"energy": -0.25088,
				"method": "rhf"
			},
			{
				"type": "unocc",
				"energy": -0.02959,
				"method": "rhf"
			},
			{
				"type": "unocc",
				"energy": -0.02584,
				"method": "rhf"
			},
			{
				"type": "unocc",
				"energy": -0.00211,
				"method": "rhf"
			},
			{
				"type": "unocc",
				"energy": 0.01767,
				"method": "rhf"
			},
			{
				"type": "unocc",
				"energy": 0.04181,
				"method": "rhf"
			}
		],
		"cosmo_sigma_profile": { 
			"-0.025": 0.0,
			"-0.024": 0.0,
			"-0.023": 0.0,
			"-0.022": 0.0,
			"-0.021": 0.0,
			"-0.02": 0.00849286544738,
			"-0.019": 0.697777845461,
			"-0.018": 1.44442868951,
			"-0.017": 0.739790855354,
			"-0.016": 1.78972313052,
			"-0.015": 0.774495980772,
			"-0.014": 0.939345595211,
			"-0.013": 1.81003758828,
			"-0.012": 2.27458913691,
			"-0.011": 2.04909226003,
			"-0.01": 2.01422784523,
			"-0.009": 3.85138378223,
			"-0.008": 6.94297780234,
			"-0.007": 13.9483797398,
			"-0.006": 18.892004597,
			"-0.005": 16.3875845537,
			"-0.004": 13.9542120219,
			"-0.003": 12.3294191805,
			"-0.002": 11.7711701459,
			"-0.001": 8.52639518098,
			"0.0": 7.68216170421,
			"0.001": 8.78245010204,
			"0.002": 8.44909525295,
			"0.003": 9.9804999912,
			"0.004": 10.248008173,
			"0.005": 7.86075081219,
			"0.006": 3.97167265621,
			"0.007": 4.99513608474,
			"0.008": 6.28326029833,
			"0.009": 6.53449820391,
			"0.01": 10.0208346854,
			"0.011": 10.1994050032,
			"0.012": 10.6802283648,
			"0.013": 4.29689515048,
			"0.014": 0.210827000154,
			"0.015": 0.0,
			"0.016": 0.0,
			"0.017": 0.0,
			"0.018": 0.0,
			"0.019": 0.0,
			"0.02": 0.0,
			"0.021": 0.0,
			"0.022": 0.0,
			"0.023": 0.0,
			"0.024": 0.0,
			"0.025": 0.0
		}
	}
}
