{
	 "smiles": "CC(CCNC(N)=O)C1=CC=CC=C1", 
	 "Tm": 351.15, 
	 "num_atms": 30, 
	 "gaussian": { 
		 "optdone": 1, 
		 "sigma_profile": "yes", 
		 "theory": "DFT", 
		 "functional": "B3LYP", 
		 "basiset": "6-31G**", 
		 "properties": { 
			 "R2extent": 3711.8667, 
			 "electric_dipole_moment_norm": 3.33870075778, 
			 "electric_quadrupole_moment_norm": 16.9663443252, 
			 "total_energy": -613.579613953, 
			 "HOMO_LUMO_gap": 0.23704, 
			 "cosmo_polarized_energy": -16.05, 
			 "cosmo_cavitation_energy": 32.97, 
			 "cosmo_dispersion_energy": -22.54, 
			 "cosmo_repulsion_energy": 1.82, 
			 "cosmo_total_nonelectrostatic_energy": 12.25, 
			 "SMD_solvation_energy": 6.08 
		},
		"coords": [
			{
				"x": -0.9611875978,
				"y": -2.3975262409,
				"z": 0.6299584351,
				"element": "C" 
			},
			{
				"x": -0.234353194,
				"y": -1.1090123103,
				"z": 0.1998136932,
				"element": "C" 
			},
			{
				"x": 0.3419373221,
				"y": -1.2593972409,
				"z": -1.224679208,
				"element": "C" 
			},
			{
				"x": 1.1842007132,
				"y": -0.0722091157,
				"z": -1.7087982248,
				"element": "C" 
			},
			{
				"x": 2.3618119535,
				"y": 0.1749540956,
				"z": -0.8749840841,
				"element": "N" 
			},
			{
				"x": 3.5264873506,
				"y": -0.5238239171,
				"z": -1.1148992253,
				"element": "C" 
			},
			{
				"x": 4.6262908778,
				"y": -0.0666114421,
				"z": -0.3897511957,
				"element": "N" 
			},
			{
				"x": 3.6013700225,
				"y": -1.4515826988,
				"z": -1.9106688218,
				"element": "O" 
			},
			{
				"x": -1.1301603774,
				"y": 0.1145372932,
				"z": 0.3487071795,
				"element": "C" 
			},
			{
				"x": -2.2965157119,
				"y": 0.2667587508,
				"z": -0.4179835831,
				"element": "C" 
			},
			{
				"x": -3.1150225093,
				"y": 1.3864040445,
				"z": -0.2692292947,
				"element": "C" 
			},
			{
				"x": -2.7850772649,
				"y": 2.3824941318,
				"z": 0.6529861535,
				"element": "C" 
			},
			{
				"x": -1.6301987424,
				"y": 2.2465996357,
				"z": 1.4232858273,
				"element": "C" 
			},
			{
				"x": -0.8140222264,
				"y": 1.1235159837,
				"z": 1.2686454589,
				"element": "C" 
			},
			{
				"x": -1.3325745739,
				"y": -2.318177547,
				"z": 1.6564684169,
				"element": "H" 
			},
			{
				"x": -0.2861045135,
				"y": -3.2583888408,
				"z": 0.5754642494,
				"element": "H" 
			},
			{
				"x": -1.8193315217,
				"y": -2.6066757978,
				"z": -0.0183414554,
				"element": "H" 
			},
			{
				"x": 0.6186826391,
				"y": -0.9683252076,
				"z": 0.8754882375,
				"element": "H" 
			},
			{
				"x": 0.9659698539,
				"y": -2.1588554568,
				"z": -1.2654027731,
				"element": "H" 
			},
			{
				"x": -0.4745754294,
				"y": -1.4124149408,
				"z": -1.9431028001,
				"element": "H" 
			},
			{
				"x": 1.5101566262,
				"y": -0.2617030046,
				"z": -2.7368302912,
				"element": "H" 
			},
			{
				"x": 0.5836965105,
				"y": 0.8420516253,
				"z": -1.7040025786,
				"element": "H" 
			},
			{
				"x": 2.4477528345,
				"y": 1.0907662289,
				"z": -0.4600946171,
				"element": "H" 
			},
			{
				"x": 4.4510096473,
				"y": 0.3115012562,
				"z": 0.5314914227,
				"element": "H" 
			},
			{
				"x": 5.3984058691,
				"y": -0.7174632948,
				"z": -0.4230458961,
				"element": "H" 
			},
			{
				"x": -2.5709425557,
				"y": -0.4991925013,
				"z": -1.1388195441,
				"element": "H" 
			},
			{
				"x": -4.0129854051,
				"y": 1.4814138237,
				"z": -0.8737585642,
				"element": "H" 
			},
			{
				"x": -3.4228880695,
				"y": 3.2540188308,
				"z": 0.7693493818,
				"element": "H" 
			},
			{
				"x": -1.3632332417,
				"y": 3.013082148,
				"z": 2.1459288443,
				"element": "H" 
			},
			{
				"x": 0.0823007141,
				"y": 1.0230617092,
				"z": 1.8769048572,
				"element": "H" 
			}
		],
		 "valence_orbital": [ 
			{
				"type": "occ",
				"energy": -0.26957,
				"method": "rhf"
			},
			{
				"type": "occ",
				"energy": -0.24964,
				"method": "rhf"
			},
			{
				"type": "occ",
				"energy": -0.24865,
				"method": "rhf"
			},
			{
				"type": "occ",
				"energy": -0.24662,
				"method": "rhf"
			},
			{
				"type": "occ",
				"energy": -0.23937,
				"method": "rhf"
			},
			{
				"type": "unocc",
				"energy": -0.00233,
				"method": "rhf"
			},
			{
				"type": "unocc",
				"energy": 0.00103,
				"method": "rhf"
			},
			{
				"type": "unocc",
				"energy": 0.05583,
				"method": "rhf"
			},
			{
				"type": "unocc",
				"energy": 0.06584,
				"method": "rhf"
			},
			{
				"type": "unocc",
				"energy": 0.09048,
				"method": "rhf"
			}
		],
		"cosmo_sigma_profile": { 
			"-0.025": 0.0,
			"-0.024": 0.0,
			"-0.023": 0.0,
			"-0.022": 0.0,
			"-0.021": 0.0,
			"-0.02": 0.0,
			"-0.019": 0.0,
			"-0.018": 0.0,
			"-0.017": 0.0,
			"-0.016": 0.0,
			"-0.015": 0.0,
			"-0.014": 1.00360143105,
			"-0.013": 3.51562754656,
			"-0.012": 3.83374962068,
			"-0.011": 3.37098432229,
			"-0.01": 3.15496681348,
			"-0.009": 2.91989350938,
			"-0.008": 2.34085218025,
			"-0.007": 2.62949493113,
			"-0.006": 3.42971800488,
			"-0.005": 12.1871987259,
			"-0.004": 16.0645622448,
			"-0.003": 23.7191535838,
			"-0.002": 25.998329988,
			"-0.001": 25.6831586203,
			"0.0": 22.7415364193,
			"0.001": 21.9111830524,
			"0.002": 14.4468365573,
			"0.003": 11.8190839119,
			"0.004": 11.3401548342,
			"0.005": 10.1412286935,
			"0.006": 9.53553270957,
			"0.007": 5.05512085409,
			"0.008": 1.62509479623,
			"0.009": 2.18962649043,
			"0.01": 2.26306461779,
			"0.011": 2.39845120963,
			"0.012": 2.22395714677,
			"0.013": 1.73702766823,
			"0.014": 4.27259410283,
			"0.015": 4.16933821092,
			"0.016": 0.22198201628,
			"0.017": 0.0,
			"0.018": 0.0,
			"0.019": 0.0,
			"0.02": 0.0,
			"0.021": 0.0,
			"0.022": 0.0,
			"0.023": 0.0,
			"0.024": 0.0,
			"0.025": 0.0
		}
	}
}
