{
	 "smiles": "NC1=CC=C(C=C1)N=NC1=CC=C(C=C1)[N+]([O-])=O", 
	 "Tm": 488.15, 
	 "num_atms": 28, 
	 "gaussian": { 
		 "optdone": 1, 
		 "sigma_profile": "yes", 
		 "theory": "DFT", 
		 "functional": "B3LYP", 
		 "basiset": "6-31G**", 
		 "properties": { 
			 "R2extent": 8545.0519, 
			 "electric_dipole_moment_norm": 9.8247044266, 
			 "electric_quadrupole_moment_norm": 15.4020037245, 
			 "total_energy": -832.622919772, 
			 "HOMO_LUMO_gap": 0.11397, 
			 "cosmo_polarized_energy": -16.3, 
			 "cosmo_cavitation_energy": 34.53, 
			 "cosmo_dispersion_energy": -25.3, 
			 "cosmo_repulsion_energy": 1.94, 
			 "cosmo_total_nonelectrostatic_energy": 11.17, 
			 "SMD_solvation_energy": 6.91 
		},
		"coords": [
			{
				"x": -4.2283693961,
				"y": -3.4176226924,
				"z": 2.9414679098,
				"element": "N" 
			},
			{
				"x": -3.1051125328,
				"y": -2.8186203552,
				"z": 2.4134623672,
				"element": "C" 
			},
			{
				"x": -3.2164312242,
				"y": -1.6174117521,
				"z": 1.6721006014,
				"element": "C" 
			},
			{
				"x": -2.0927071024,
				"y": -0.9865872256,
				"z": 1.176246884,
				"element": "C" 
			},
			{
				"x": -0.8102498223,
				"y": -1.5309226032,
				"z": 1.401569265,
				"element": "C" 
			},
			{
				"x": -0.7000500108,
				"y": -2.7229283881,
				"z": 2.1387703551,
				"element": "C" 
			},
			{
				"x": -1.8232881455,
				"y": -3.3611067562,
				"z": 2.6385678837,
				"element": "C" 
			},
			{
				"x": 0.3906768487,
				"y": -0.9785584002,
				"z": 0.9445145931,
				"element": "N" 
			},
			{
				"x": 0.2811727994,
				"y": 0.0956461852,
				"z": 0.2804873416,
				"element": "N" 
			},
			{
				"x": 1.5130443199,
				"y": 0.6278424254,
				"z": -0.1666718769,
				"element": "C" 
			},
			{
				"x": 1.4236326531,
				"y": 1.818239897,
				"z": -0.9064736188,
				"element": "C" 
			},
			{
				"x": 2.5678923703,
				"y": 2.4341215261,
				"z": -1.3986550234,
				"element": "C" 
			},
			{
				"x": 3.8048105712,
				"y": 1.8438453861,
				"z": -1.1413736944,
				"element": "C" 
			},
			{
				"x": 3.9221433249,
				"y": 0.6590755947,
				"z": -0.4073670538,
				"element": "C" 
			},
			{
				"x": 2.7748955654,
				"y": 0.0519738952,
				"z": 0.0795869014,
				"element": "C" 
			},
			{
				"x": 5.0198597343,
				"y": 2.4851542211,
				"z": -1.6563153861,
				"element": "N" 
			},
			{
				"x": 6.0999664348,
				"y": 1.9435832437,
				"z": -1.4154937395,
				"element": "O" 
			},
			{
				"x": 4.8894629824,
				"y": 3.5277819808,
				"z": -2.2996263979,
				"element": "O" 
			},
			{
				"x": -5.1235073838,
				"y": -3.1655894924,
				"z": 2.5508007484,
				"element": "H" 
			},
			{
				"x": -4.1553833222,
				"y": -4.380636537,
				"z": 3.2325558608,
				"element": "H" 
			},
			{
				"x": -4.201797994,
				"y": -1.1918693272,
				"z": 1.4984248445,
				"element": "H" 
			},
			{
				"x": -2.1739942964,
				"y": -0.0680893023,
				"z": 0.6062571542,
				"element": "H" 
			},
			{
				"x": 0.2920409192,
				"y": -3.1314088832,
				"z": 2.3034206991,
				"element": "H" 
			},
			{
				"x": -1.7230432201,
				"y": -4.2807042997,
				"z": 3.2087972653,
				"element": "H" 
			},
			{
				"x": 0.4399060896,
				"y": 2.2406471339,
				"z": -1.0814635461,
				"element": "H" 
			},
			{
				"x": 2.5243100086,
				"y": 3.3518207282,
				"z": -1.9712907682,
				"element": "H" 
			},
			{
				"x": 4.90590891,
				"y": 0.2406141122,
				"z": -0.2346073085,
				"element": "H" 
			},
			{
				"x": 2.826110919,
				"y": -0.8661903149,
				"z": 0.6521077389,
				"element": "H" 
			}
		],
		 "valence_orbital": [ 
			{
				"type": "occ",
				"energy": -0.27166,
				"method": "rhf"
			},
			{
				"type": "occ",
				"energy": -0.26967,
				"method": "rhf"
			},
			{
				"type": "occ",
				"energy": -0.26844,
				"method": "rhf"
			},
			{
				"type": "occ",
				"energy": -0.23127,
				"method": "rhf"
			},
			{
				"type": "occ",
				"energy": -0.21309,
				"method": "rhf"
			},
			{
				"type": "unocc",
				"energy": -0.09912,
				"method": "rhf"
			},
			{
				"type": "unocc",
				"energy": -0.05745,
				"method": "rhf"
			},
			{
				"type": "unocc",
				"energy": -0.01754,
				"method": "rhf"
			},
			{
				"type": "unocc",
				"energy": -0.01402,
				"method": "rhf"
			},
			{
				"type": "unocc",
				"energy": 0.01689,
				"method": "rhf"
			}
		],
		"cosmo_sigma_profile": { 
			"-0.025": 0.0,
			"-0.024": 0.0,
			"-0.023": 0.0,
			"-0.022": 0.0,
			"-0.021": 0.0,
			"-0.02": 0.0,
			"-0.019": 0.0,
			"-0.018": 0.0,
			"-0.017": 0.0,
			"-0.016": 0.0,
			"-0.015": 0.00153214619229,
			"-0.014": 1.62362251752,
			"-0.013": 3.01458732669,
			"-0.012": 2.9473532716,
			"-0.011": 3.479450108,
			"-0.01": 3.02458315199,
			"-0.009": 3.22996824898,
			"-0.008": 3.30259241484,
			"-0.007": 8.47893944758,
			"-0.006": 13.6433510091,
			"-0.005": 14.4585427376,
			"-0.004": 14.7416477345,
			"-0.003": 12.134736227,
			"-0.002": 14.0188589178,
			"-0.001": 15.4918516014,
			"0.0": 17.5297289224,
			"0.001": 29.7584930284,
			"0.002": 27.1719822325,
			"0.003": 23.1503376083,
			"0.004": 18.2669590384,
			"0.005": 9.21983850772,
			"0.006": 7.0539251597,
			"0.007": 9.30126578388,
			"0.008": 11.8369690074,
			"0.009": 5.7219493818,
			"0.01": 4.17066783475,
			"0.011": 0.644168050858,
			"0.012": 0.0,
			"0.013": 0.0,
			"0.014": 0.0,
			"0.015": 0.0,
			"0.016": 0.0,
			"0.017": 0.0,
			"0.018": 0.0,
			"0.019": 0.0,
			"0.02": 0.0,
			"0.021": 0.0,
			"0.022": 0.0,
			"0.023": 0.0,
			"0.024": 0.0,
			"0.025": 0.0
		}
	}
}
