{
	 "smiles": "CC(C)C1=CC(=NN1C1=NC=CC=C1)C(O)=O", 
	 "Tm": 420.15, 
	 "num_atms": 30, 
	 "gaussian": { 
		 "optdone": 1, 
		 "sigma_profile": "yes", 
		 "theory": "DFT", 
		 "functional": "B3LYP", 
		 "basiset": "6-31G**", 
		 "properties": { 
			 "R2extent": 4676.4531, 
			 "electric_dipole_moment_norm": 7.17997677294, 
			 "electric_quadrupole_moment_norm": 23.2950993776, 
			 "total_energy": -779.820305241, 
			 "HOMO_LUMO_gap": 0.19434, 
			 "cosmo_polarized_energy": -13.09, 
			 "cosmo_cavitation_energy": 33.97, 
			 "cosmo_dispersion_energy": -24.1, 
			 "cosmo_repulsion_energy": 1.87, 
			 "cosmo_total_nonelectrostatic_energy": 11.74, 
			 "SMD_solvation_energy": 6.49 
		},
		"coords": [
			{
				"x": 1.2996931875,
				"y": 2.9508433144,
				"z": 1.1054360631,
				"element": "C" 
			},
			{
				"x": 0.8808964035,
				"y": 1.9035900644,
				"z": 0.0592593934,
				"element": "C" 
			},
			{
				"x": 2.0834726151,
				"y": 1.4806378192,
				"z": -0.8094083895,
				"element": "C" 
			},
			{
				"x": 0.2451931255,
				"y": 0.7059890535,
				"z": 0.7245877163,
				"element": "C" 
			},
			{
				"x": 0.5179428267,
				"y": 0.1658085656,
				"z": 1.9661700863,
				"element": "C" 
			},
			{
				"x": -0.3502643789,
				"y": -0.9357087141,
				"z": 2.1034115822,
				"element": "C" 
			},
			{
				"x": -1.125177357,
				"y": -1.0862189604,
				"z": 1.0336556556,
				"element": "N" 
			},
			{
				"x": -0.761325652,
				"y": -0.0909548466,
				"z": 0.1872458756,
				"element": "N" 
			},
			{
				"x": -1.4622340477,
				"y": 0.0129306948,
				"z": -1.0473402118,
				"element": "C" 
			},
			{
				"x": -0.863070796,
				"y": 0.6859949585,
				"z": -2.026348028,
				"element": "N" 
			},
			{
				"x": -1.5075240485,
				"y": 0.7904387994,
				"z": -3.1964076628,
				"element": "C" 
			},
			{
				"x": -2.7527927391,
				"y": 0.2196279304,
				"z": -3.4413852133,
				"element": "C" 
			},
			{
				"x": -3.3646885043,
				"y": -0.4864879191,
				"z": -2.4023051526,
				"element": "C" 
			},
			{
				"x": -2.72071968,
				"y": -0.5931440678,
				"z": -1.1757914843,
				"element": "C" 
			},
			{
				"x": -0.4715258914,
				"y": -1.87953023,
				"z": 3.2450469955,
				"element": "C" 
			},
			{
				"x": -1.3813509301,
				"y": -2.8632037001,
				"z": 3.0628926585,
				"element": "O" 
			},
			{
				"x": 0.182603495,
				"y": -1.7861372938,
				"z": 4.257459873,
				"element": "O" 
			},
			{
				"x": 2.0881172517,
				"y": 2.5711157271,
				"z": 1.7638803211,
				"element": "H" 
			},
			{
				"x": 1.6943529083,
				"y": 3.8390777713,
				"z": 0.6023305883,
				"element": "H" 
			},
			{
				"x": 0.4558460897,
				"y": 3.2586174889,
				"z": 1.7300771644,
				"element": "H" 
			},
			{
				"x": 0.1391897921,
				"y": 2.3545235541,
				"z": -0.6048900975,
				"element": "H" 
			},
			{
				"x": 2.8560376832,
				"y": 1.0034974752,
				"z": -0.1969319948,
				"element": "H" 
			},
			{
				"x": 2.5259219753,
				"y": 2.3590345364,
				"z": -1.2913989445,
				"element": "H" 
			},
			{
				"x": 1.7715904428,
				"y": 0.7828658288,
				"z": -1.5890317443,
				"element": "H" 
			},
			{
				"x": 1.2363142432,
				"y": 0.5118402023,
				"z": 2.6918012425,
				"element": "H" 
			},
			{
				"x": -0.9907516627,
				"y": 1.3520532994,
				"z": -3.9715204615,
				"element": "H" 
			},
			{
				"x": -3.2269181599,
				"y": 0.3258376831,
				"z": -4.4111096726,
				"element": "H" 
			},
			{
				"x": -4.3393968286,
				"y": -0.9440302249,
				"z": -2.5426476985,
				"element": "H" 
			},
			{
				"x": -3.1576040223,
				"y": -1.1209451156,
				"z": -0.3391988827,
				"element": "H" 
			},
			{
				"x": -1.7752273413,
				"y": -2.7463636945,
				"z": 2.1802604233,
				"element": "H" 
			}
		],
		 "valence_orbital": [ 
			{
				"type": "occ",
				"energy": -0.29937,
				"method": "rhf"
			},
			{
				"type": "occ",
				"energy": -0.28465,
				"method": "rhf"
			},
			{
				"type": "occ",
				"energy": -0.2665,
				"method": "rhf"
			},
			{
				"type": "occ",
				"energy": -0.25821,
				"method": "rhf"
			},
			{
				"type": "occ",
				"energy": -0.25094,
				"method": "rhf"
			},
			{
				"type": "unocc",
				"energy": -0.0566,
				"method": "rhf"
			},
			{
				"type": "unocc",
				"energy": -0.04282,
				"method": "rhf"
			},
			{
				"type": "unocc",
				"energy": -0.01193,
				"method": "rhf"
			},
			{
				"type": "unocc",
				"energy": 0.02692,
				"method": "rhf"
			},
			{
				"type": "unocc",
				"energy": 0.0782,
				"method": "rhf"
			}
		],
		"cosmo_sigma_profile": { 
			"-0.025": 0.0,
			"-0.024": 0.0,
			"-0.023": 0.0,
			"-0.022": 0.0,
			"-0.021": 0.0,
			"-0.02": 0.0,
			"-0.019": 0.0,
			"-0.018": 0.0,
			"-0.017": 0.0,
			"-0.016": 0.0,
			"-0.015": 0.083419585626,
			"-0.014": 0.619926590432,
			"-0.013": 0.60737148235,
			"-0.012": 0.321780619048,
			"-0.011": 0.829356518911,
			"-0.01": 0.847690244115,
			"-0.009": 0.769953698968,
			"-0.008": 2.01721090972,
			"-0.007": 9.4072108503,
			"-0.006": 12.6241573448,
			"-0.005": 10.290910347,
			"-0.004": 13.4875602675,
			"-0.003": 23.608124186,
			"-0.002": 24.4929354996,
			"-0.001": 26.0706576132,
			"0.0": 32.9100165233,
			"0.001": 36.4934478546,
			"0.002": 22.3856190202,
			"0.003": 9.87388327986,
			"0.004": 5.48432785423,
			"0.005": 5.62725636903,
			"0.006": 4.9063723806,
			"0.007": 2.92684328112,
			"0.008": 3.02986563845,
			"0.009": 3.97221632392,
			"0.01": 5.08350081701,
			"0.011": 5.09375845405,
			"0.012": 5.14492674471,
			"0.013": 1.48213823897,
			"0.014": 0.0243112682254,
			"0.015": 0.0,
			"0.016": 0.0,
			"0.017": 0.0,
			"0.018": 0.0,
			"0.019": 0.0,
			"0.02": 0.0,
			"0.021": 0.0,
			"0.022": 0.0,
			"0.023": 0.0,
			"0.024": 0.0,
			"0.025": 0.0
		}
	}
}
