{
	 "smiles": "OCC1=CC=C(C=C1)C1=NC=CC=C1", 
	 "Tm": 323.15, 
	 "num_atms": 25, 
	 "gaussian": { 
		 "optdone": 1, 
		 "sigma_profile": "yes", 
		 "theory": "DFT", 
		 "functional": "B3LYP", 
		 "basiset": "6-31G**", 
		 "properties": { 
			 "R2extent": 4580.3836, 
			 "electric_dipole_moment_norm": 1.85314333499, 
			 "electric_quadrupole_moment_norm": 9.30938093538, 
			 "total_energy": -593.875848642, 
			 "HOMO_LUMO_gap": 0.18184, 
			 "cosmo_polarized_energy": -10.91, 
			 "cosmo_cavitation_energy": 28.87, 
			 "cosmo_dispersion_energy": -21.45, 
			 "cosmo_repulsion_energy": 1.67, 
			 "cosmo_total_nonelectrostatic_energy": 9.09, 
			 "SMD_solvation_energy": 3.87 
		},
		"coords": [
			{
				"x": -3.9489580932,
				"y": 0.2616227827,
				"z": -4.4313115943,
				"element": "O" 
			},
			{
				"x": -2.7491002042,
				"y": 0.9765255635,
				"z": -4.1711460404,
				"element": "C" 
			},
			{
				"x": -1.8729109347,
				"y": 0.337505733,
				"z": -3.1114148465,
				"element": "C" 
			},
			{
				"x": -2.4402474995,
				"y": -0.4131249742,
				"z": -2.0752738994,
				"element": "C" 
			},
			{
				"x": -1.6399603949,
				"y": -0.9776192606,
				"z": -1.084719034,
				"element": "C" 
			},
			{
				"x": -0.2461274029,
				"y": -0.8052458514,
				"z": -1.0952029087,
				"element": "C" 
			},
			{
				"x": 0.3198411308,
				"y": -0.0621402281,
				"z": -2.1446879395,
				"element": "C" 
			},
			{
				"x": -0.4817672411,
				"y": 0.4973127013,
				"z": -3.1347579965,
				"element": "C" 
			},
			{
				"x": 0.6334999813,
				"y": -1.3899673686,
				"z": -0.047787565,
				"element": "C" 
			},
			{
				"x": 1.943306583,
				"y": -1.490764421,
				"z": -0.349529992,
				"element": "N" 
			},
			{
				"x": 2.7714903309,
				"y": -2.0110244424,
				"z": 0.5584545202,
				"element": "C" 
			},
			{
				"x": 2.3631714957,
				"y": -2.4647031742,
				"z": 1.8134134473,
				"element": "C" 
			},
			{
				"x": 1.0117771353,
				"y": -2.3493430981,
				"z": 2.1361930987,
				"element": "C" 
			},
			{
				"x": 0.1375165861,
				"y": -1.8028138799,
				"z": 1.2015920269,
				"element": "C" 
			},
			{
				"x": -3.6993146087,
				"y": -0.6320437688,
				"z": -4.7025040933,
				"element": "H" 
			},
			{
				"x": -2.1616011782,
				"y": 1.1305378158,
				"z": -5.0903354669,
				"element": "H" 
			},
			{
				"x": -3.0760979688,
				"y": 1.9693489197,
				"z": -3.8381199996,
				"element": "H" 
			},
			{
				"x": -3.5157574682,
				"y": -0.5604330528,
				"z": -2.0608008101,
				"element": "H" 
			},
			{
				"x": -2.1108736296,
				"y": -1.5765904523,
				"z": -0.3113360963,
				"element": "H" 
			},
			{
				"x": 1.3971294814,
				"y": 0.0558621991,
				"z": -2.1700640216,
				"element": "H" 
			},
			{
				"x": -0.0196734255,
				"y": 1.0647974011,
				"z": -3.939802675,
				"element": "H" 
			},
			{
				"x": 3.8193793542,
				"y": -2.0710089675,
				"z": 0.2674317322,
				"element": "H" 
			},
			{
				"x": 3.0812445754,
				"y": -2.883856572,
				"z": 2.5107803812,
				"element": "H" 
			},
			{
				"x": 0.6431602486,
				"y": -2.6719492224,
				"z": 3.1059063937,
				"element": "H" 
			},
			{
				"x": -0.9112268529,
				"y": -1.6795843817,
				"z": 1.4471233788,
				"element": "H" 
			}
		],
		 "valence_orbital": [ 
			{
				"type": "occ",
				"energy": -0.28064,
				"method": "rhf"
			},
			{
				"type": "occ",
				"energy": -0.27115,
				"method": "rhf"
			},
			{
				"type": "occ",
				"energy": -0.25416,
				"method": "rhf"
			},
			{
				"type": "occ",
				"energy": -0.24887,
				"method": "rhf"
			},
			{
				"type": "occ",
				"energy": -0.2242,
				"method": "rhf"
			},
			{
				"type": "unocc",
				"energy": -0.04236,
				"method": "rhf"
			},
			{
				"type": "unocc",
				"energy": -0.02134,
				"method": "rhf"
			},
			{
				"type": "unocc",
				"energy": 0.00171,
				"method": "rhf"
			},
			{
				"type": "unocc",
				"energy": 0.02839,
				"method": "rhf"
			},
			{
				"type": "unocc",
				"energy": 0.08703,
				"method": "rhf"
			}
		],
		"cosmo_sigma_profile": { 
			"-0.025": 0.0,
			"-0.024": 0.0,
			"-0.023": 0.0,
			"-0.022": 0.0,
			"-0.021": 0.0,
			"-0.02": 0.0,
			"-0.019": 0.0,
			"-0.018": 0.0,
			"-0.017": 0.0,
			"-0.016": 0.172515114639,
			"-0.015": 1.04749499343,
			"-0.014": 0.765601917641,
			"-0.013": 0.755792633987,
			"-0.012": 0.676032026711,
			"-0.011": 1.22381255406,
			"-0.01": 0.650383152614,
			"-0.009": 0.776534080355,
			"-0.008": 1.6045532052,
			"-0.007": 6.34576698277,
			"-0.006": 11.491692381,
			"-0.005": 20.1505882382,
			"-0.004": 19.1946621261,
			"-0.003": 17.8606628002,
			"-0.002": 14.5573278643,
			"-0.001": 12.1896211366,
			"0.0": 12.4291836974,
			"0.001": 15.6164425072,
			"0.002": 19.9177574051,
			"0.003": 22.288669404,
			"0.004": 13.1920845072,
			"0.005": 13.1366793692,
			"0.006": 5.83709619979,
			"0.007": 2.14166076767,
			"0.008": 2.7303931183,
			"0.009": 2.38767211712,
			"0.01": 2.41220977492,
			"0.011": 2.57118778914,
			"0.012": 1.96240947939,
			"0.013": 2.54236590128,
			"0.014": 2.01431527565,
			"0.015": 0.0449686119371,
			"0.016": 0.0,
			"0.017": 0.0,
			"0.018": 0.0,
			"0.019": 0.0,
			"0.02": 0.0,
			"0.021": 0.0,
			"0.022": 0.0,
			"0.023": 0.0,
			"0.024": 0.0,
			"0.025": 0.0
		}
	}
}
