{
	 "smiles": "COC(=O)C1=CC=C(O)C=C1", 
	 "Tm": 402.15, 
	 "num_atms": 19, 
	 "gaussian": { 
		 "optdone": 1, 
		 "sigma_profile": "yes", 
		 "theory": "DFT", 
		 "functional": "B3LYP", 
		 "basiset": "6-31G**", 
		 "properties": { 
			 "R2extent": 2447.7531, 
			 "electric_dipole_moment_norm": 1.36263119368, 
			 "electric_quadrupole_moment_norm": 14.5024544381, 
			 "total_energy": -535.353079222, 
			 "HOMO_LUMO_gap": 0.19788, 
			 "cosmo_polarized_energy": -11.92, 
			 "cosmo_cavitation_energy": 23.68, 
			 "cosmo_dispersion_energy": -17.6, 
			 "cosmo_repulsion_energy": 1.42, 
			 "cosmo_total_nonelectrostatic_energy": 7.49, 
			 "SMD_solvation_energy": 6.09 
		},
		"coords": [
			{
				"x": -1.9718783158,
				"y": 2.3771547658,
				"z": -1.5015132958,
				"element": "C" 
			},
			{
				"x": -0.6980677166,
				"y": 1.950074168,
				"z": -0.9983965814,
				"element": "O" 
			},
			{
				"x": -0.7229183097,
				"y": 0.8113352473,
				"z": -0.2624846596,
				"element": "C" 
			},
			{
				"x": -1.7474056013,
				"y": 0.1917858325,
				"z": -0.0416773545,
				"element": "O" 
			},
			{
				"x": 0.6221031835,
				"y": 0.4218674808,
				"z": 0.2275013391,
				"element": "C" 
			},
			{
				"x": 1.7802226449,
				"y": 1.1665750575,
				"z": -0.0515494612,
				"element": "C" 
			},
			{
				"x": 3.0163361894,
				"y": 0.7586326886,
				"z": 0.4311970373,
				"element": "C" 
			},
			{
				"x": 3.110950739,
				"y": -0.4069013552,
				"z": 1.2042265624,
				"element": "C" 
			},
			{
				"x": 4.3464799092,
				"y": -0.760487964,
				"z": 1.6515805545,
				"element": "O" 
			},
			{
				"x": 1.9618450266,
				"y": -1.1575028232,
				"z": 1.4886555918,
				"element": "C" 
			},
			{
				"x": 0.7287770557,
				"y": -0.7416983532,
				"z": 1.0013641305,
				"element": "C" 
			},
			{
				"x": -2.666795352,
				"y": 2.5717506705,
				"z": -0.680380056,
				"element": "H" 
			},
			{
				"x": -1.7758616376,
				"y": 3.2916421613,
				"z": -2.0614015443,
				"element": "H" 
			},
			{
				"x": -2.4061144767,
				"y": 1.6142551843,
				"z": -2.1530120273,
				"element": "H" 
			},
			{
				"x": 1.7022633624,
				"y": 2.0671454355,
				"z": -0.6497288407,
				"element": "H" 
			},
			{
				"x": 3.9196937096,
				"y": 1.3226554444,
				"z": 0.2245214643,
				"element": "H" 
			},
			{
				"x": 4.2797545821,
				"y": -1.5746276296,
				"z": 2.168055263,
				"element": "H" 
			},
			{
				"x": 2.0384316907,
				"y": -2.0616906379,
				"z": 2.0889071966,
				"element": "H" 
			},
			{
				"x": -0.1722166833,
				"y": -1.3086653733,
				"z": 1.2103346813,
				"element": "H" 
			}
		],
		 "valence_orbital": [ 
			{
				"type": "occ",
				"energy": -0.33625,
				"method": "rhf"
			},
			{
				"type": "occ",
				"energy": -0.29592,
				"method": "rhf"
			},
			{
				"type": "occ",
				"energy": -0.26763,
				"method": "rhf"
			},
			{
				"type": "occ",
				"energy": -0.26111,
				"method": "rhf"
			},
			{
				"type": "occ",
				"energy": -0.23186,
				"method": "rhf"
			},
			{
				"type": "unocc",
				"energy": -0.03398,
				"method": "rhf"
			},
			{
				"type": "unocc",
				"energy": -0.009,
				"method": "rhf"
			},
			{
				"type": "unocc",
				"energy": 0.06246,
				"method": "rhf"
			},
			{
				"type": "unocc",
				"energy": 0.06831,
				"method": "rhf"
			},
			{
				"type": "unocc",
				"energy": 0.09693,
				"method": "rhf"
			}
		],
		"cosmo_sigma_profile": { 
			"-0.025": 0.0,
			"-0.024": 0.0,
			"-0.023": 0.0,
			"-0.022": 0.0,
			"-0.021": 0.0,
			"-0.02": 0.0,
			"-0.019": 0.17198391629,
			"-0.018": 1.10417586363,
			"-0.017": 0.815081575967,
			"-0.016": 1.37555503775,
			"-0.015": 1.05157028454,
			"-0.014": 1.17247211501,
			"-0.013": 0.254337104698,
			"-0.012": 0.611639365058,
			"-0.011": 2.13160625623,
			"-0.01": 0.933240359846,
			"-0.009": 0.97990631473,
			"-0.008": 1.31356832069,
			"-0.007": 3.00473467901,
			"-0.006": 9.53770061763,
			"-0.005": 12.4965417265,
			"-0.004": 13.8542514167,
			"-0.003": 14.0394285332,
			"-0.002": 11.9442501791,
			"-0.001": 8.59697258518,
			"0.0": 11.3421815529,
			"0.001": 13.2917090401,
			"0.002": 15.6494463848,
			"0.003": 17.0719332617,
			"0.004": 14.0970173584,
			"0.005": 5.08405737143,
			"0.006": 5.43885135228,
			"0.007": 2.78875926893,
			"0.008": 3.13525692813,
			"0.009": 2.36671005482,
			"0.01": 3.68364847235,
			"0.011": 3.41441780557,
			"0.012": 4.58122989047,
			"0.013": 1.43095195234,
			"0.014": 0.0,
			"0.015": 0.0,
			"0.016": 0.0,
			"0.017": 0.0,
			"0.018": 0.0,
			"0.019": 0.0,
			"0.02": 0.0,
			"0.021": 0.0,
			"0.022": 0.0,
			"0.023": 0.0,
			"0.024": 0.0,
			"0.025": 0.0
		}
	}
}
