{
	 "smiles": "CN1C(=O)C(=NNC(=O)C2=CN=CC=C2)C2=C1C=CC=C2", 
	 "Tm": 469.15, 
	 "num_atms": 33, 
	 "gaussian": { 
		 "optdone": 1, 
		 "sigma_profile": "yes", 
		 "theory": "DFT", 
		 "functional": "B3LYP", 
		 "basiset": "6-31G**", 
		 "properties": { 
			 "R2extent": 9438.5317, 
			 "electric_dipole_moment_norm": 6.40329279199, 
			 "electric_quadrupole_moment_norm": 20.2158310126, 
			 "total_energy": -948.269958936, 
			 "HOMO_LUMO_gap": 0.1353, 
			 "cosmo_polarized_energy": -18.29, 
			 "cosmo_cavitation_energy": 38.43, 
			 "cosmo_dispersion_energy": -27.62, 
			 "cosmo_repulsion_energy": 2.05, 
			 "cosmo_total_nonelectrostatic_energy": 12.85, 
			 "SMD_solvation_energy": 5.94 
		},
		"coords": [
			{
				"x": 2.8728699388,
				"y": 0.0332678861,
				"z": -0.9430738704,
				"element": "C" 
			},
			{
				"x": 1.5416186945,
				"y": 0.1525635049,
				"z": -0.3866296626,
				"element": "N" 
			},
			{
				"x": 0.7144679529,
				"y": -0.9417196546,
				"z": -0.1473824395,
				"element": "C" 
			},
			{
				"x": 0.992256554,
				"y": -2.1065983005,
				"z": -0.3675795494,
				"element": "O" 
			},
			{
				"x": -0.559223145,
				"y": -0.3677482699,
				"z": 0.4271223795,
				"element": "C" 
			},
			{
				"x": -1.4913727298,
				"y": -1.2080877592,
				"z": 0.7310706559,
				"element": "N" 
			},
			{
				"x": -2.6507820568,
				"y": -0.7969421512,
				"z": 1.2431455506,
				"element": "N" 
			},
			{
				"x": -3.7203131395,
				"y": -1.6280989664,
				"z": 1.6028093822,
				"element": "C" 
			},
			{
				"x": -4.7045443426,
				"y": -1.0573078437,
				"z": 2.0560728317,
				"element": "O" 
			},
			{
				"x": -3.6629405845,
				"y": -3.1141348974,
				"z": 1.443393109,
				"element": "C" 
			},
			{
				"x": -4.8270041798,
				"y": -3.7956669647,
				"z": 1.8508817313,
				"element": "C" 
			},
			{
				"x": -4.983626205,
				"y": -5.1188361582,
				"z": 1.7933795764,
				"element": "N" 
			},
			{
				"x": -3.9561673065,
				"y": -5.8347653563,
				"z": 1.3137443434,
				"element": "C" 
			},
			{
				"x": -2.7583183583,
				"y": -5.2681180628,
				"z": 0.882153282,
				"element": "C" 
			},
			{
				"x": -2.5998469904,
				"y": -3.8850755104,
				"z": 0.9441739608,
				"element": "C" 
			},
			{
				"x": -0.38723096,
				"y": 1.0854607847,
				"z": 0.4903220039,
				"element": "C" 
			},
			{
				"x": 0.9126446369,
				"y": 1.3446007111,
				"z": -0.019083323,
				"element": "C" 
			},
			{
				"x": 1.4199639514,
				"y": 2.6351340533,
				"z": -0.1083749622,
				"element": "C" 
			},
			{
				"x": 0.6078105222,
				"y": 3.6916955223,
				"z": 0.322266016,
				"element": "C" 
			},
			{
				"x": -0.6733866188,
				"y": 3.4606817117,
				"z": 0.8268734212,
				"element": "C" 
			},
			{
				"x": -1.1763693829,
				"y": 2.1576983123,
				"z": 0.9131768295,
				"element": "C" 
			},
			{
				"x": 3.0548327977,
				"y": -1.0284332443,
				"z": -1.1152033702,
				"element": "H" 
			},
			{
				"x": 3.6260278278,
				"y": 0.4220778963,
				"z": -0.2487963381,
				"element": "H" 
			},
			{
				"x": 2.9522199464,
				"y": 0.5731931089,
				"z": -1.8931342046,
				"element": "H" 
			},
			{
				"x": -2.8536591552,
				"y": 0.1847616183,
				"z": 1.4152276146,
				"element": "H" 
			},
			{
				"x": -5.6599721652,
				"y": -3.2172190723,
				"z": 2.2397406754,
				"element": "H" 
			},
			{
				"x": -4.1022049611,
				"y": -6.9130929414,
				"z": 1.2744272724,
				"element": "H" 
			},
			{
				"x": -1.9589582479,
				"y": -5.8963523343,
				"z": 0.5024134524,
				"element": "H" 
			},
			{
				"x": -1.6801969953,
				"y": -3.4209059709,
				"z": 0.614941724,
				"element": "H" 
			},
			{
				"x": 2.4144498023,
				"y": 2.8219035619,
				"z": -0.4991852609,
				"element": "H" 
			},
			{
				"x": 0.9853330957,
				"y": 4.7080293256,
				"z": 0.2609976798,
				"element": "H" 
			},
			{
				"x": -1.2855419068,
				"y": 4.29416336,
				"z": 1.1550582159,
				"element": "H" 
			},
			{
				"x": -2.1760362892,
				"y": 2.0152721012,
				"z": 1.3107512731,
				"element": "H" 
			}
		],
		 "valence_orbital": [ 
			{
				"type": "occ",
				"energy": -0.26981,
				"method": "rhf"
			},
			{
				"type": "occ",
				"energy": -0.26482,
				"method": "rhf"
			},
			{
				"type": "occ",
				"energy": -0.25199,
				"method": "rhf"
			},
			{
				"type": "occ",
				"energy": -0.25152,
				"method": "rhf"
			},
			{
				"type": "occ",
				"energy": -0.2252,
				"method": "rhf"
			},
			{
				"type": "unocc",
				"energy": -0.0899,
				"method": "rhf"
			},
			{
				"type": "unocc",
				"energy": -0.04775,
				"method": "rhf"
			},
			{
				"type": "unocc",
				"energy": -0.02091,
				"method": "rhf"
			},
			{
				"type": "unocc",
				"energy": -0.02039,
				"method": "rhf"
			},
			{
				"type": "unocc",
				"energy": 0.00695,
				"method": "rhf"
			}
		],
		"cosmo_sigma_profile": { 
			"-0.025": 0.0,
			"-0.024": 0.0,
			"-0.023": 0.0,
			"-0.022": 0.0,
			"-0.021": 0.0,
			"-0.02": 0.0,
			"-0.019": 0.0,
			"-0.018": 0.0,
			"-0.017": 0.0,
			"-0.016": 0.00395212812541,
			"-0.015": 0.700055207023,
			"-0.014": 0.684274875904,
			"-0.013": 1.88244268277,
			"-0.012": 0.91065652074,
			"-0.011": 1.25793540658,
			"-0.01": 1.4308557905,
			"-0.009": 0.936633112954,
			"-0.008": 2.55903632718,
			"-0.007": 8.3116132296,
			"-0.006": 20.0428863356,
			"-0.005": 23.3072632251,
			"-0.004": 22.1497817767,
			"-0.003": 24.7367242011,
			"-0.002": 25.6670912062,
			"-0.001": 24.3126877787,
			"0.0": 28.1302364075,
			"0.001": 24.1262594605,
			"0.002": 16.1259299264,
			"0.003": 16.5537188873,
			"0.004": 14.4989884269,
			"0.005": 6.53874477416,
			"0.006": 4.711064834,
			"0.007": 5.08080537585,
			"0.008": 5.31611370421,
			"0.009": 3.91054875126,
			"0.01": 5.50127137231,
			"0.011": 6.62147343154,
			"0.012": 9.1845505561,
			"0.013": 2.44549905884,
			"0.014": 0.977820812755,
			"0.015": 0.714150435809,
			"0.016": 0.684825057679,
			"0.017": 0.00132168799518,
			"0.018": 0.0,
			"0.019": 0.0,
			"0.02": 0.0,
			"0.021": 0.0,
			"0.022": 0.0,
			"0.023": 0.0,
			"0.024": 0.0,
			"0.025": 0.0
		}
	}
}
