{
	 "smiles": "ClC1=CC=C(C=C1)C1=NN=C(Br)S1", 
	 "Tm": 409.15, 
	 "num_atms": 17, 
	 "gaussian": { 
		 "optdone": 1, 
		 "sigma_profile": "yes", 
		 "theory": "DFT", 
		 "functional": "B3LYP", 
		 "basiset": "6-31G**", 
		 "properties": { 
			 "R2extent": 7524.9295, 
			 "electric_dipole_moment_norm": 2.50213445482, 
			 "electric_quadrupole_moment_norm": 10.4000473441, 
			 "total_energy": -3846.51065994, 
			 "HOMO_LUMO_gap": 0.16731, 
			 "cosmo_polarized_energy": -8.48, 
			 "cosmo_cavitation_energy": 28.14, 
			 "cosmo_dispersion_energy": -22.07, 
			 "cosmo_repulsion_energy": 1.69, 
			 "cosmo_total_nonelectrostatic_energy": 7.76, 
			 "SMD_solvation_energy": 1.24 
		},
		"coords": [
			{
				"x": -3.5292553748,
				"y": 2.8372313058,
				"z": 2.3094740326,
				"element": "Cl" 
			},
			{
				"x": -2.358365963,
				"y": 2.0738552301,
				"z": 1.2519166159,
				"element": "C" 
			},
			{
				"x": -0.9941857582,
				"y": 2.2512390983,
				"z": 1.4939850872,
				"element": "C" 
			},
			{
				"x": -0.068086095,
				"y": 1.6446891311,
				"z": 0.6536927389,
				"element": "C" 
			},
			{
				"x": -0.4930415519,
				"y": 0.8581748284,
				"z": -0.4322290812,
				"element": "C" 
			},
			{
				"x": -1.8688744654,
				"y": 0.6949667283,
				"z": -0.6547592243,
				"element": "C" 
			},
			{
				"x": -2.8040128918,
				"y": 1.2985386704,
				"z": 0.1814240575,
				"element": "C" 
			},
			{
				"x": 0.5142204304,
				"y": 0.2344878848,
				"z": -1.2962639019,
				"element": "C" 
			},
			{
				"x": 1.8038714367,
				"y": 0.3711825303,
				"z": -1.1101582249,
				"element": "N" 
			},
			{
				"x": 2.5735573232,
				"y": -0.2880130718,
				"z": -2.0229493362,
				"element": "N" 
			},
			{
				"x": 1.8579623258,
				"y": -0.9221774444,
				"z": -2.8977445864,
				"element": "C" 
			},
			{
				"x": 2.5975039575,
				"y": -1.9332008645,
				"z": -4.2974021266,
				"element": "Br" 
			},
			{
				"x": 0.1277315096,
				"y": -0.7744584898,
				"z": -2.690470038,
				"element": "S" 
			},
			{
				"x": -0.6656674727,
				"y": 2.8573276422,
				"z": 2.3308000472,
				"element": "H" 
			},
			{
				"x": 0.9949190561,
				"y": 1.7705583823,
				"z": 0.8252243337,
				"element": "H" 
			},
			{
				"x": -2.2236620766,
				"y": 0.09265163,
				"z": -1.4863413412,
				"element": "H" 
			},
			{
				"x": -3.86611439,
				"y": 1.1703468086,
				"z": 0.0066009477,
				"element": "H" 
			}
		],
		 "valence_orbital": [ 
			{
				"type": "occ",
				"energy": -0.31382,
				"method": "rhf"
			},
			{
				"type": "occ",
				"energy": -0.29059,
				"method": "rhf"
			},
			{
				"type": "occ",
				"energy": -0.28153,
				"method": "rhf"
			},
			{
				"type": "occ",
				"energy": -0.28083,
				"method": "rhf"
			},
			{
				"type": "occ",
				"energy": -0.24653,
				"method": "rhf"
			},
			{
				"type": "unocc",
				"energy": -0.07922,
				"method": "rhf"
			},
			{
				"type": "unocc",
				"energy": -0.03191,
				"method": "rhf"
			},
			{
				"type": "unocc",
				"energy": -0.02979,
				"method": "rhf"
			},
			{
				"type": "unocc",
				"energy": -0.01751,
				"method": "rhf"
			},
			{
				"type": "unocc",
				"energy": -0.00674,
				"method": "rhf"
			}
		],
		"cosmo_sigma_profile": { 
			"-0.025": 0.0,
			"-0.024": 0.0,
			"-0.023": 0.0,
			"-0.022": 0.0,
			"-0.021": 0.0,
			"-0.02": 0.0,
			"-0.019": 0.0,
			"-0.018": 0.0,
			"-0.017": 0.0,
			"-0.016": 0.0,
			"-0.015": 0.0,
			"-0.014": 0.0,
			"-0.013": 0.0,
			"-0.012": 0.0,
			"-0.011": 0.0,
			"-0.01": 0.0,
			"-0.009": 0.892896049437,
			"-0.008": 5.49452677647,
			"-0.007": 8.44990441984,
			"-0.006": 9.01293622361,
			"-0.005": 8.44900198424,
			"-0.004": 13.4815787632,
			"-0.003": 18.9633233793,
			"-0.002": 18.7258622218,
			"-0.001": 20.4089668559,
			"0.0": 23.417974629,
			"0.001": 28.5174562678,
			"0.002": 31.4997721779,
			"0.003": 13.299745688,
			"0.004": 13.2667582384,
			"0.005": 4.20203479705,
			"0.006": 2.20904256693,
			"0.007": 2.10346646157,
			"0.008": 2.3769244327,
			"0.009": 2.27876443745,
			"0.01": 3.88717471574,
			"0.011": 2.59915800601,
			"0.012": 1.75618402668,
			"0.013": 0.783856973115,
			"0.014": 0.0335056498824,
			"0.015": 0.0,
			"0.016": 0.0,
			"0.017": 0.0,
			"0.018": 0.0,
			"0.019": 0.0,
			"0.02": 0.0,
			"0.021": 0.0,
			"0.022": 0.0,
			"0.023": 0.0,
			"0.024": 0.0,
			"0.025": 0.0
		}
	}
}
