{
	 "smiles": "FC1=CC=C(C=C1)C(=O)C1=CC=C(C=C1)C(F)(F)F", 
	 "Tm": 374.15, 
	 "num_atms": 27, 
	 "gaussian": { 
		 "optdone": 1, 
		 "sigma_profile": "yes", 
		 "theory": "DFT", 
		 "functional": "B3LYP", 
		 "basiset": "6-31G**", 
		 "properties": { 
			 "R2extent": 8115.4712, 
			 "electric_dipole_moment_norm": 2.01668317789, 
			 "electric_quadrupole_moment_norm": 8.39679934082, 
			 "total_energy": -1012.89933171, 
			 "HOMO_LUMO_gap": 0.17712, 
			 "cosmo_polarized_energy": -8.7, 
			 "cosmo_cavitation_energy": 34.23, 
			 "cosmo_dispersion_energy": -24.0, 
			 "cosmo_repulsion_energy": 1.74, 
			 "cosmo_total_nonelectrostatic_energy": 11.96, 
			 "SMD_solvation_energy": 7.88 
		},
		"coords": [
			{
				"x": -0.6727251322,
				"y": -3.543766124,
				"z": -3.4692896382,
				"element": "F" 
			},
			{
				"x": -0.7158470231,
				"y": -2.461499259,
				"z": -2.6716929275,
				"element": "C" 
			},
			{
				"x": -1.9559342595,
				"y": -1.9238822996,
				"z": -2.3328697639,
				"element": "C" 
			},
			{
				"x": -1.9912737767,
				"y": -0.8025241387,
				"z": -1.5133807259,
				"element": "C" 
			},
			{
				"x": -0.8059273807,
				"y": -0.2352405895,
				"z": -1.013357424,
				"element": "C" 
			},
			{
				"x": 0.4268585112,
				"y": -0.7982651101,
				"z": -1.3826505758,
				"element": "C" 
			},
			{
				"x": 0.4787644212,
				"y": -1.9124674684,
				"z": -2.2182568495,
				"element": "C" 
			},
			{
				"x": -0.9280399308,
				"y": 1.0014789365,
				"z": -0.1799883282,
				"element": "C" 
			},
			{
				"x": -1.9172269096,
				"y": 1.7181931381,
				"z": -0.2836282443,
				"element": "O" 
			},
			{
				"x": 0.1540357838,
				"y": 1.3815708883,
				"z": 0.7937196983,
				"element": "C" 
			},
			{
				"x": 0.3240002043,
				"y": 2.7456164249,
				"z": 1.0782056773,
				"element": "C" 
			},
			{
				"x": 1.2719971911,
				"y": 3.1619572231,
				"z": 2.0052234358,
				"element": "C" 
			},
			{
				"x": 2.0461328487,
				"y": 2.2125146596,
				"z": 2.6817501967,
				"element": "C" 
			},
			{
				"x": 1.867935497,
				"y": 0.8513073855,
				"z": 2.4283573432,
				"element": "C" 
			},
			{
				"x": 0.9301156071,
				"y": 0.4383617292,
				"z": 1.4830685989,
				"element": "C" 
			},
			{
				"x": 3.0286948624,
				"y": 2.6612059781,
				"z": 3.7318265839,
				"element": "C" 
			},
			{
				"x": 3.5782954029,
				"y": 3.8561324713,
				"z": 3.4238701049,
				"element": "F" 
			},
			{
				"x": 4.0371756939,
				"y": 1.7760807975,
				"z": 3.8883939105,
				"element": "F" 
			},
			{
				"x": 2.4336934036,
				"y": 2.8004883433,
				"z": 4.9383646407,
				"element": "F" 
			},
			{
				"x": -2.8609127378,
				"y": -2.3825465969,
				"z": -2.7160856222,
				"element": "H" 
			},
			{
				"x": -2.935910052,
				"y": -0.341964402,
				"z": -1.2451590194,
				"element": "H" 
			},
			{
				"x": 1.3538606765,
				"y": -0.3515122148,
				"z": -1.0404627124,
				"element": "H" 
			},
			{
				"x": 1.4212443496,
				"y": -2.3528110131,
				"z": -2.5244452527,
				"element": "H" 
			},
			{
				"x": -0.300541602,
				"y": 3.4649251897,
				"z": 0.5596879432,
				"element": "H" 
			},
			{
				"x": 1.4167426258,
				"y": 4.2180604029,
				"z": 2.2059301857,
				"element": "H" 
			},
			{
				"x": 2.4633118039,
				"y": 0.1200352781,
				"z": 2.9638852124,
				"element": "H" 
			},
			{
				"x": 0.7873799218,
				"y": -0.6212496299,
				"z": 1.3010835524,
				"element": "H" 
			}
		],
		 "valence_orbital": [ 
			{
				"type": "occ",
				"energy": -0.28029,
				"method": "rhf"
			},
			{
				"type": "occ",
				"energy": -0.27895,
				"method": "rhf"
			},
			{
				"type": "occ",
				"energy": -0.27674,
				"method": "rhf"
			},
			{
				"type": "occ",
				"energy": -0.26598,
				"method": "rhf"
			},
			{
				"type": "occ",
				"energy": -0.25591,
				"method": "rhf"
			},
			{
				"type": "unocc",
				"energy": -0.07879,
				"method": "rhf"
			},
			{
				"type": "unocc",
				"energy": -0.03347,
				"method": "rhf"
			},
			{
				"type": "unocc",
				"energy": -0.02789,
				"method": "rhf"
			},
			{
				"type": "unocc",
				"energy": -0.02319,
				"method": "rhf"
			},
			{
				"type": "unocc",
				"energy": 0.03948,
				"method": "rhf"
			}
		],
		"cosmo_sigma_profile": { 
			"-0.025": 0.0,
			"-0.024": 0.0,
			"-0.023": 0.0,
			"-0.022": 0.0,
			"-0.021": 0.0,
			"-0.02": 0.0,
			"-0.019": 0.0,
			"-0.018": 0.0,
			"-0.017": 0.0,
			"-0.016": 0.0,
			"-0.015": 0.0,
			"-0.014": 0.0,
			"-0.013": 0.0,
			"-0.012": 0.0,
			"-0.011": 0.0,
			"-0.01": 0.0,
			"-0.009": 0.0,
			"-0.008": 3.39646922845,
			"-0.007": 10.6515557355,
			"-0.006": 15.3370377733,
			"-0.005": 16.7104954702,
			"-0.004": 14.7672350873,
			"-0.003": 14.9318967313,
			"-0.002": 14.7223679305,
			"-0.001": 20.5758539569,
			"0.0": 26.4779347037,
			"0.001": 28.3552180607,
			"0.002": 46.0246200066,
			"0.003": 35.9851196008,
			"0.004": 10.6601682581,
			"0.005": 2.00438246215,
			"0.006": 1.83511401126,
			"0.007": 2.03065670353,
			"0.008": 1.27773092981,
			"0.009": 1.68366603424,
			"0.01": 2.71443616807,
			"0.011": 3.22789267264,
			"0.012": 2.9153518539,
			"0.013": 0.0663047831057,
			"0.014": 0.0,
			"0.015": 0.0,
			"0.016": 0.0,
			"0.017": 0.0,
			"0.018": 0.0,
			"0.019": 0.0,
			"0.02": 0.0,
			"0.021": 0.0,
			"0.022": 0.0,
			"0.023": 0.0,
			"0.024": 0.0,
			"0.025": 0.0
		}
	}
}
