{
	 "smiles": "NC1=C(Cl)C(F)=NC(OCC(O)=O)=C1Cl", 
	 "Tm": 505.15, 
	 "num_atms": 20, 
	 "gaussian": { 
		 "optdone": 1, 
		 "sigma_profile": "yes", 
		 "theory": "DFT", 
		 "functional": "B3LYP", 
		 "basiset": "6-31G**", 
		 "properties": { 
			 "R2extent": 5171.7428, 
			 "electric_dipole_moment_norm": 3.56928763061, 
			 "electric_quadrupole_moment_norm": 10.1290009206, 
			 "total_energy": -1625.1600217, 
			 "HOMO_LUMO_gap": 0.21878, 
			 "cosmo_polarized_energy": -15.36, 
			 "cosmo_cavitation_energy": 29.8, 
			 "cosmo_dispersion_energy": -22.05, 
			 "cosmo_repulsion_energy": 1.74, 
			 "cosmo_total_nonelectrostatic_energy": 9.49, 
			 "SMD_solvation_energy": 5.8 
		},
		"coords": [
			{
				"x": -0.4171300695,
				"y": -3.9909890368,
				"z": 0.0158529147,
				"element": "N" 
			},
			{
				"x": -0.1992335557,
				"y": -2.7397967635,
				"z": -0.4603906112,
				"element": "C" 
			},
			{
				"x": 0.5818085415,
				"y": -2.5150157606,
				"z": -1.6219208449,
				"element": "C" 
			},
			{
				"x": 1.2567240048,
				"y": -3.8618478142,
				"z": -2.5070811918,
				"element": "Cl" 
			},
			{
				"x": 0.7900467482,
				"y": -1.2092469217,
				"z": -2.03351604,
				"element": "C" 
			},
			{
				"x": 1.5239526562,
				"y": -0.9858825134,
				"z": -3.125722272,
				"element": "F" 
			},
			{
				"x": 0.3127050702,
				"y": -0.1392766076,
				"z": -1.4268682351,
				"element": "N" 
			},
			{
				"x": -0.4275592735,
				"y": -0.3270808908,
				"z": -0.3350724237,
				"element": "C" 
			},
			{
				"x": -0.9325091045,
				"y": 0.7415449868,
				"z": 0.3089710215,
				"element": "O" 
			},
			{
				"x": -0.6403533923,
				"y": 2.0232864336,
				"z": -0.2387903924,
				"element": "C" 
			},
			{
				"x": -1.1706698443,
				"y": 3.1248638825,
				"z": 0.6579429546,
				"element": "C" 
			},
			{
				"x": -1.5550367047,
				"y": 2.7091171008,
				"z": 1.876352377,
				"element": "O" 
			},
			{
				"x": -1.2053343543,
				"y": 4.2788044535,
				"z": 0.2935110612,
				"element": "O" 
			},
			{
				"x": -0.7125078511,
				"y": -1.5951157009,
				"z": 0.183865048,
				"element": "C" 
			},
			{
				"x": -1.6957869412,
				"y": -1.7767658491,
				"z": 1.617900933,
				"element": "Cl" 
			},
			{
				"x": -0.162884191,
				"y": -4.7820907405,
				"z": -0.5531736381,
				"element": "H" 
			},
			{
				"x": -1.0924880241,
				"y": -4.1218979105,
				"z": 0.7515583906,
				"element": "H" 
			},
			{
				"x": 0.440106237,
				"y": 2.1639530949,
				"z": -0.3550661774,
				"element": "H" 
			},
			{
				"x": -1.0864827945,
				"y": 2.1435020935,
				"z": -1.2306200269,
				"element": "H" 
			},
			{
				"x": -1.8518671571,
				"y": 3.506334464,
				"z": 2.3479671527,
				"element": "H" 
			}
		],
		 "valence_orbital": [ 
			{
				"type": "occ",
				"energy": -0.31986,
				"method": "rhf"
			},
			{
				"type": "occ",
				"energy": -0.30298,
				"method": "rhf"
			},
			{
				"type": "occ",
				"energy": -0.28709,
				"method": "rhf"
			},
			{
				"type": "occ",
				"energy": -0.24518,
				"method": "rhf"
			},
			{
				"type": "occ",
				"energy": -0.23891,
				"method": "rhf"
			},
			{
				"type": "unocc",
				"energy": -0.02013,
				"method": "rhf"
			},
			{
				"type": "unocc",
				"energy": -0.01676,
				"method": "rhf"
			},
			{
				"type": "unocc",
				"energy": 0.00086,
				"method": "rhf"
			},
			{
				"type": "unocc",
				"energy": 0.00126,
				"method": "rhf"
			},
			{
				"type": "unocc",
				"energy": 0.03734,
				"method": "rhf"
			}
		],
		"cosmo_sigma_profile": { 
			"-0.025": 0.0,
			"-0.024": 0.0,
			"-0.023": 0.0,
			"-0.022": 0.0,
			"-0.021": 0.0,
			"-0.02": 0.0,
			"-0.019": 0.316872075806,
			"-0.018": 1.26441013134,
			"-0.017": 0.994149272338,
			"-0.016": 0.47344462709,
			"-0.015": 0.843456882662,
			"-0.014": 1.86750231175,
			"-0.013": 2.48329855363,
			"-0.012": 3.26670967247,
			"-0.011": 2.73453742816,
			"-0.01": 2.36386255832,
			"-0.009": 3.38135809644,
			"-0.008": 6.45691890367,
			"-0.007": 6.42361392619,
			"-0.006": 7.07893303713,
			"-0.005": 6.7436137643,
			"-0.004": 6.98712582111,
			"-0.003": 11.6550031805,
			"-0.002": 18.2463991322,
			"-0.001": 19.6494529731,
			"0.0": 23.4965809374,
			"0.001": 14.6400803298,
			"0.002": 16.0711847847,
			"0.003": 23.9791640998,
			"0.004": 20.0408005925,
			"0.005": 7.43823821227,
			"0.006": 5.82192383637,
			"0.007": 5.18338604258,
			"0.008": 4.65487995939,
			"0.009": 4.58956917248,
			"0.01": 4.94209005114,
			"0.011": 6.6676881525,
			"0.012": 2.47436791672,
			"0.013": 0.028116293102,
			"0.014": 0.0,
			"0.015": 0.0,
			"0.016": 0.0,
			"0.017": 0.0,
			"0.018": 0.0,
			"0.019": 0.0,
			"0.02": 0.0,
			"0.021": 0.0,
			"0.022": 0.0,
			"0.023": 0.0,
			"0.024": 0.0,
			"0.025": 0.0
		}
	}
}
