{
	 "smiles": "N#CC1=C(C=NC=C1)C#N", 
	 "Tm": 353.15, 
	 "num_atms": 13, 
	 "gaussian": { 
		 "optdone": 1, 
		 "sigma_profile": "yes", 
		 "theory": "DFT", 
		 "functional": "B3LYP", 
		 "basiset": "6-31G**", 
		 "properties": { 
			 "R2extent": 1803.0925, 
			 "electric_dipole_moment_norm": 4.86362839555, 
			 "electric_quadrupole_moment_norm": 16.4638459359, 
			 "total_energy": -432.752706891, 
			 "HOMO_LUMO_gap": 0.1943, 
			 "cosmo_polarized_energy": -13.28, 
			 "cosmo_cavitation_energy": 20.38, 
			 "cosmo_dispersion_energy": -13.78, 
			 "cosmo_repulsion_energy": 1.12, 
			 "cosmo_total_nonelectrostatic_energy": 7.72, 
			 "SMD_solvation_energy": 4.95 
		},
		"coords": [
			{
				"x": 3.1713403849,
				"y": -1.2927578655,
				"z": -1.3574441546,
				"element": "N" 
			},
			{
				"x": 2.3402927234,
				"y": -0.7658962453,
				"z": -0.7389245817,
				"element": "C" 
			},
			{
				"x": 1.2973648532,
				"y": -0.1114302883,
				"z": -0.0052377381,
				"element": "C" 
			},
			{
				"x": 1.4066700071,
				"y": 0.1211177714,
				"z": 1.3842637612,
				"element": "C" 
			},
			{
				"x": 0.3393354811,
				"y": 0.7692976872,
				"z": 2.0301915217,
				"element": "C" 
			},
			{
				"x": -0.7659752479,
				"y": 1.1749655102,
				"z": 1.4059466534,
				"element": "N" 
			},
			{
				"x": -0.8568494083,
				"y": 0.9484112479,
				"z": 0.089104068,
				"element": "C" 
			},
			{
				"x": 0.135889945,
				"y": 0.3154912516,
				"z": -0.658053544,
				"element": "C" 
			},
			{
				"x": 2.5563745735,
				"y": -0.2802146573,
				"z": 2.1342625217,
				"element": "C" 
			},
			{
				"x": 3.4772759963,
				"y": -0.5943740449,
				"z": 2.7707981333,
				"element": "N" 
			},
			{
				"x": 0.4002504843,
				"y": 0.9593351546,
				"z": 3.0988176806,
				"element": "H" 
			},
			{
				"x": -1.7685910272,
				"y": 1.2892166809,
				"z": -0.3957189587,
				"element": "H" 
			},
			{
				"x": 0.0158212346,
				"y": 0.1547377976,
				"z": -1.7232053628,
				"element": "H" 
			}
		],
		 "valence_orbital": [ 
			{
				"type": "occ",
				"energy": -0.36211,
				"method": "rhf"
			},
			{
				"type": "occ",
				"energy": -0.36046,
				"method": "rhf"
			},
			{
				"type": "occ",
				"energy": -0.31944,
				"method": "rhf"
			},
			{
				"type": "occ",
				"energy": -0.30264,
				"method": "rhf"
			},
			{
				"type": "occ",
				"energy": -0.30143,
				"method": "rhf"
			},
			{
				"type": "unocc",
				"energy": -0.10713,
				"method": "rhf"
			},
			{
				"type": "unocc",
				"energy": -0.07593,
				"method": "rhf"
			},
			{
				"type": "unocc",
				"energy": -0.00291,
				"method": "rhf"
			},
			{
				"type": "unocc",
				"energy": 0.01406,
				"method": "rhf"
			},
			{
				"type": "unocc",
				"energy": 0.03415,
				"method": "rhf"
			}
		],
		"cosmo_sigma_profile": { 
			"-0.025": 0.0,
			"-0.024": 0.0,
			"-0.023": 0.0,
			"-0.022": 0.0,
			"-0.021": 0.0,
			"-0.02": 0.0,
			"-0.019": 0.0,
			"-0.018": 0.0,
			"-0.017": 0.0,
			"-0.016": 0.0,
			"-0.015": 0.0,
			"-0.014": 0.0,
			"-0.013": 0.0,
			"-0.012": 0.0,
			"-0.011": 0.456952418684,
			"-0.01": 3.81244306033,
			"-0.009": 8.12927749766,
			"-0.008": 6.12486962039,
			"-0.007": 7.75877372367,
			"-0.006": 7.66521705666,
			"-0.005": 13.4014730873,
			"-0.004": 15.3732079015,
			"-0.003": 10.7805939834,
			"-0.002": 11.5534392894,
			"-0.001": 5.74637721944,
			"0.0": 4.96781747035,
			"0.001": 7.09946072669,
			"0.002": 5.1514887952,
			"0.003": 5.5792045607,
			"0.004": 4.80072382748,
			"0.005": 8.0637751161,
			"0.006": 6.03150609977,
			"0.007": 7.93786507471,
			"0.008": 6.52296778742,
			"0.009": 6.39096225723,
			"0.01": 5.65110499823,
			"0.011": 5.3543201986,
			"0.012": 2.10429351902,
			"0.013": 0.714291455348,
			"0.014": 0.465895733749,
			"0.015": 0.0152164960055,
			"0.016": 0.0,
			"0.017": 0.0,
			"0.018": 0.0,
			"0.019": 0.0,
			"0.02": 0.0,
			"0.021": 0.0,
			"0.022": 0.0,
			"0.023": 0.0,
			"0.024": 0.0,
			"0.025": 0.0
		}
	}
}
