{
	 "smiles": "OC(=O)COC1=CC(=CC(=C1)C(F)(F)F)C(F)(F)F", 
	 "Tm": 376.15, 
	 "num_atms": 25, 
	 "gaussian": { 
		 "optdone": 1, 
		 "sigma_profile": "yes", 
		 "theory": "DFT", 
		 "functional": "B3LYP", 
		 "basiset": "6-31G**", 
		 "properties": { 
			 "R2extent": 7507.8602, 
			 "electric_dipole_moment_norm": 1.75058875239, 
			 "electric_quadrupole_moment_norm": 19.3949190939, 
			 "total_energy": -1209.40159143, 
			 "HOMO_LUMO_gap": 0.20869, 
			 "cosmo_polarized_energy": -14.47, 
			 "cosmo_cavitation_energy": 33.85, 
			 "cosmo_dispersion_energy": -23.19, 
			 "cosmo_repulsion_energy": 1.68, 
			 "cosmo_total_nonelectrostatic_energy": 12.34, 
			 "SMD_solvation_energy": 9.73 
		},
		"coords": [
			{
				"x": 3.8705218951,
				"y": 2.2882457793,
				"z": -0.7535861778,
				"element": "O" 
			},
			{
				"x": 3.5114125006,
				"y": 1.1100583256,
				"z": -1.2865265058,
				"element": "C" 
			},
			{
				"x": 4.2081786277,
				"y": 0.489247441,
				"z": -2.0475338333,
				"element": "O" 
			},
			{
				"x": 2.1381198436,
				"y": 0.5779351046,
				"z": -0.8698008124,
				"element": "C" 
			},
			{
				"x": 1.5309933194,
				"y": 1.5060065569,
				"z": 0.0264417913,
				"element": "O" 
			},
			{
				"x": 0.2931769813,
				"y": 1.2353568364,
				"z": 0.5436175447,
				"element": "C" 
			},
			{
				"x": -0.2222602426,
				"y": 2.1966513174,
				"z": 1.4217924531,
				"element": "C" 
			},
			{
				"x": -1.4751616611,
				"y": 2.0043062153,
				"z": 1.9919091296,
				"element": "C" 
			},
			{
				"x": -2.2275988956,
				"y": 0.8612521483,
				"z": 1.7032347245,
				"element": "C" 
			},
			{
				"x": -1.7020280598,
				"y": -0.0845940811,
				"z": 0.8295968806,
				"element": "C" 
			},
			{
				"x": -0.4440582644,
				"y": 0.0899116525,
				"z": 0.2413698532,
				"element": "C" 
			},
			{
				"x": -2.4628737641,
				"y": -1.3575877028,
				"z": 0.5524528463,
				"element": "C" 
			},
			{
				"x": -2.0826409637,
				"y": -2.3469189948,
				"z": 1.3904905402,
				"element": "F" 
			},
			{
				"x": -3.7913932143,
				"y": -1.1908513555,
				"z": 0.7064892176,
				"element": "F" 
			},
			{
				"x": -2.2455010747,
				"y": -1.8008614118,
				"z": -0.7053709465,
				"element": "F" 
			},
			{
				"x": -2.0605271072,
				"y": 3.0684179372,
				"z": 2.8870488853,
				"element": "C" 
			},
			{
				"x": -2.8098159243,
				"y": 2.52914761,
				"z": 3.8708663416,
				"element": "F" 
			},
			{
				"x": -1.1010917101,
				"y": 3.821282369,
				"z": 3.4648801213,
				"element": "F" 
			},
			{
				"x": -2.8608742447,
				"y": 3.9054441538,
				"z": 2.1915123161,
				"element": "F" 
			},
			{
				"x": 3.1522616236,
				"y": 2.5968919941,
				"z": -0.174511032,
				"element": "H" 
			},
			{
				"x": 2.2789076042,
				"y": -0.4002256486,
				"z": -0.3948769316,
				"element": "H" 
			},
			{
				"x": 1.5333554631,
				"y": 0.4438249535,
				"z": -1.7744007417,
				"element": "H" 
			},
			{
				"x": 0.3644512255,
				"y": 3.0787666848,
				"z": 1.6495543442,
				"element": "H" 
			},
			{
				"x": -3.201797434,
				"y": 0.7148554494,
				"z": 2.152591215,
				"element": "H" 
			},
			{
				"x": -0.0701565237,
				"y": -0.6611633345,
				"z": -0.4423412236,
				"element": "H" 
			}
		],
		 "valence_orbital": [ 
			{
				"type": "occ",
				"energy": -0.36813,
				"method": "rhf"
			},
			{
				"type": "occ",
				"energy": -0.32779,
				"method": "rhf"
			},
			{
				"type": "occ",
				"energy": -0.30108,
				"method": "rhf"
			},
			{
				"type": "occ",
				"energy": -0.28957,
				"method": "rhf"
			},
			{
				"type": "occ",
				"energy": -0.27066,
				"method": "rhf"
			},
			{
				"type": "unocc",
				"energy": -0.06197,
				"method": "rhf"
			},
			{
				"type": "unocc",
				"energy": -0.04204,
				"method": "rhf"
			},
			{
				"type": "unocc",
				"energy": -0.00511,
				"method": "rhf"
			},
			{
				"type": "unocc",
				"energy": 0.06094,
				"method": "rhf"
			},
			{
				"type": "unocc",
				"energy": 0.07118,
				"method": "rhf"
			}
		],
		"cosmo_sigma_profile": { 
			"-0.025": 0.0,
			"-0.024": 0.0,
			"-0.023": 0.0,
			"-0.022": 0.0,
			"-0.021": 0.0,
			"-0.02": 0.0,
			"-0.019": 0.0,
			"-0.018": 0.0,
			"-0.017": 0.0,
			"-0.016": 0.0678331574469,
			"-0.015": 0.531762860494,
			"-0.014": 0.894077261041,
			"-0.013": 0.52562427473,
			"-0.012": 0.438864513924,
			"-0.011": 0.61946637785,
			"-0.01": 3.00852841265,
			"-0.009": 9.48788844296,
			"-0.008": 10.0286006228,
			"-0.007": 10.0876757431,
			"-0.006": 8.42146047749,
			"-0.005": 9.08881811511,
			"-0.004": 9.21580527837,
			"-0.003": 9.42621593182,
			"-0.002": 12.3339580669,
			"-0.001": 16.6959869159,
			"0.0": 29.584753394,
			"0.001": 25.7811437063,
			"0.002": 47.0219728409,
			"0.003": 37.7061960448,
			"0.004": 2.56885398911,
			"0.005": 1.67867983418,
			"0.006": 2.02172678865,
			"0.007": 2.70303863424,
			"0.008": 2.97747478544,
			"0.009": 4.82037247564,
			"0.01": 4.43829734991,
			"0.011": 5.0532242964,
			"0.012": 4.09632666376,
			"0.013": 0.525381851169,
			"0.014": 0.0,
			"0.015": 0.0,
			"0.016": 0.0,
			"0.017": 0.0,
			"0.018": 0.0,
			"0.019": 0.0,
			"0.02": 0.0,
			"0.021": 0.0,
			"0.022": 0.0,
			"0.023": 0.0,
			"0.024": 0.0,
			"0.025": 0.0
		}
	}
}
