{
	 "smiles": "CC(=O)NC1=NC=C(N)C=C1", 
	 "Tm": 427.15, 
	 "num_atms": 20, 
	 "gaussian": { 
		 "optdone": 1, 
		 "sigma_profile": "yes", 
		 "theory": "DFT", 
		 "functional": "B3LYP", 
		 "basiset": "6-31G**", 
		 "properties": { 
			 "R2extent": 2298.8581, 
			 "electric_dipole_moment_norm": 6.02029425361, 
			 "electric_quadrupole_moment_norm": 9.52870325018, 
			 "total_energy": -511.663620181, 
			 "HOMO_LUMO_gap": 0.17486, 
			 "cosmo_polarized_energy": -16.85, 
			 "cosmo_cavitation_energy": 24.18, 
			 "cosmo_dispersion_energy": -18.02, 
			 "cosmo_repulsion_energy": 1.46, 
			 "cosmo_total_nonelectrostatic_energy": 7.61, 
			 "SMD_solvation_energy": 3.73 
		},
		"coords": [
			{
				"x": 1.57747356,
				"y": 3.1481550905,
				"z": 0.5936668794,
				"element": "C" 
			},
			{
				"x": 0.9146612301,
				"y": 2.53837732,
				"z": 1.8140305924,
				"element": "C" 
			},
			{
				"x": 1.071347625,
				"y": 3.0100604591,
				"z": 2.9314861825,
				"element": "O" 
			},
			{
				"x": 0.1163239674,
				"y": 1.4175213696,
				"z": 1.6591415249,
				"element": "N" 
			},
			{
				"x": -0.1990282319,
				"y": 0.5841085179,
				"z": 0.5694920644,
				"element": "C" 
			},
			{
				"x": -0.5003776561,
				"y": -0.6709296549,
				"z": 0.929161748,
				"element": "N" 
			},
			{
				"x": -0.8416168181,
				"y": -1.5492964381,
				"z": -0.0112228875,
				"element": "C" 
			},
			{
				"x": -0.8961826888,
				"y": -1.2531081057,
				"z": -1.3833625833,
				"element": "C" 
			},
			{
				"x": -1.2994692498,
				"y": -2.206863147,
				"z": -2.3194446714,
				"element": "N" 
			},
			{
				"x": -0.6025818044,
				"y": 0.0698609433,
				"z": -1.7436907242,
				"element": "C" 
			},
			{
				"x": -0.2656158435,
				"y": 1.0012518079,
				"z": -0.7683829941,
				"element": "C" 
			},
			{
				"x": 1.9984210031,
				"y": 2.3933728884,
				"z": -0.0759036099,
				"element": "H" 
			},
			{
				"x": 0.8610392713,
				"y": 3.7492529086,
				"z": 0.0230980436,
				"element": "H" 
			},
			{
				"x": 2.3666504723,
				"y": 3.8089477952,
				"z": 0.9522676619,
				"element": "H" 
			},
			{
				"x": -0.1551635357,
				"y": 1.0154251409,
				"z": 2.5495160552,
				"element": "H" 
			},
			{
				"x": -1.0885962258,
				"y": -2.5528034112,
				"z": 0.3362025274,
				"element": "H" 
			},
			{
				"x": -1.1797883427,
				"y": -3.1672120265,
				"z": -2.026395787,
				"element": "H" 
			},
			{
				"x": -0.9541785133,
				"y": -2.059945735,
				"z": -3.2581105733,
				"element": "H" 
			},
			{
				"x": -0.6611048904,
				"y": 0.3765092622,
				"z": -2.7850314583,
				"element": "H" 
			},
			{
				"x": -0.0839133288,
				"y": 2.0293150147,
				"z": -1.0504179909,
				"element": "H" 
			}
		],
		 "valence_orbital": [ 
			{
				"type": "occ",
				"energy": -0.28814,
				"method": "rhf"
			},
			{
				"type": "occ",
				"energy": -0.27418,
				"method": "rhf"
			},
			{
				"type": "occ",
				"energy": -0.26844,
				"method": "rhf"
			},
			{
				"type": "occ",
				"energy": -0.24666,
				"method": "rhf"
			},
			{
				"type": "occ",
				"energy": -0.20281,
				"method": "rhf"
			},
			{
				"type": "unocc",
				"energy": -0.02795,
				"method": "rhf"
			},
			{
				"type": "unocc",
				"energy": -0.00714,
				"method": "rhf"
			},
			{
				"type": "unocc",
				"energy": 0.04204,
				"method": "rhf"
			},
			{
				"type": "unocc",
				"energy": 0.06924,
				"method": "rhf"
			},
			{
				"type": "unocc",
				"energy": 0.09104,
				"method": "rhf"
			}
		],
		"cosmo_sigma_profile": { 
			"-0.025": 0.0,
			"-0.024": 0.0,
			"-0.023": 0.0,
			"-0.022": 0.0,
			"-0.021": 0.0,
			"-0.02": 0.0,
			"-0.019": 0.0,
			"-0.018": 0.0,
			"-0.017": 0.0,
			"-0.016": 0.0,
			"-0.015": 0.0,
			"-0.014": 0.0,
			"-0.013": 1.31222948913,
			"-0.012": 3.76375219172,
			"-0.011": 3.26349463054,
			"-0.01": 4.15402119916,
			"-0.009": 5.32593987858,
			"-0.008": 4.59264705548,
			"-0.007": 8.57115962414,
			"-0.006": 9.33797190486,
			"-0.005": 12.2833046847,
			"-0.004": 12.1817185074,
			"-0.003": 10.6933249925,
			"-0.002": 12.5336805586,
			"-0.001": 10.2882904073,
			"0.0": 9.32205168938,
			"0.001": 8.22810487378,
			"0.002": 12.1615186792,
			"0.003": 15.3869671813,
			"0.004": 7.9905395236,
			"0.005": 5.07775724614,
			"0.006": 2.86719381218,
			"0.007": 3.52499357631,
			"0.008": 3.3214041229,
			"0.009": 3.07207495724,
			"0.01": 2.98343924039,
			"0.011": 2.85571484353,
			"0.012": 4.03080849511,
			"0.013": 6.69789240101,
			"0.014": 4.9154976403,
			"0.015": 1.04763605157,
			"0.016": 0.0,
			"0.017": 0.0,
			"0.018": 0.0,
			"0.019": 0.0,
			"0.02": 0.0,
			"0.021": 0.0,
			"0.022": 0.0,
			"0.023": 0.0,
			"0.024": 0.0,
			"0.025": 0.0
		}
	}
}
