{
	 "smiles": "CCC1=CCCCC1", 
	 "Tm": 163.15, 
	 "num_atms": 22, 
	 "gaussian": { 
		 "optdone": 1, 
		 "sigma_profile": "yes", 
		 "theory": "DFT", 
		 "functional": "B3LYP", 
		 "basiset": "6-31G**", 
		 "properties": { 
			 "R2extent": 1327.9585, 
			 "electric_dipole_moment_norm": 0.218074138769, 
			 "electric_quadrupole_moment_norm": 0.82908201645, 
			 "total_energy": -313.293953007, 
			 "HOMO_LUMO_gap": 0.2613, 
			 "cosmo_polarized_energy": -1.22, 
			 "cosmo_cavitation_energy": 22.5, 
			 "cosmo_dispersion_energy": -17.01, 
			 "cosmo_repulsion_energy": 1.43, 
			 "cosmo_total_nonelectrostatic_energy": 6.93, 
			 "SMD_solvation_energy": 3.15 
		},
		"coords": [
			{
				"x": 0.0782456541,
				"y": 2.3872063066,
				"z": 0.17302741,
				"element": "C" 
			},
			{
				"x": -0.4428739112,
				"y": 1.0750619993,
				"z": 0.7624393367,
				"element": "C" 
			},
			{
				"x": 0.1357065682,
				"y": -0.2074358281,
				"z": 0.2016555191,
				"element": "C" 
			},
			{
				"x": 1.0996073666,
				"y": -0.247651304,
				"z": -0.7290369965,
				"element": "C" 
			},
			{
				"x": 1.665821857,
				"y": -1.5173388363,
				"z": -1.3194159113,
				"element": "C" 
			},
			{
				"x": 0.8024845663,
				"y": -2.7476483279,
				"z": -1.0057658063,
				"element": "C" 
			},
			{
				"x": 0.362313775,
				"y": -2.7336435488,
				"z": 0.4623669278,
				"element": "C" 
			},
			{
				"x": -0.4686433252,
				"y": -1.4794530313,
				"z": 0.768011395,
				"element": "C" 
			},
			{
				"x": 1.1558240492,
				"y": 2.499013382,
				"z": 0.3319332685,
				"element": "H" 
			},
			{
				"x": -0.4167850519,
				"y": 3.2420244483,
				"z": 0.644312411,
				"element": "H" 
			},
			{
				"x": -0.1085432279,
				"y": 2.4447164167,
				"z": -0.9043100019,
				"element": "H" 
			},
			{
				"x": -1.5369909325,
				"y": 1.03575228,
				"z": 0.6446638851,
				"element": "H" 
			},
			{
				"x": -0.2818600045,
				"y": 1.0785268377,
				"z": 1.8514839609,
				"element": "H" 
			},
			{
				"x": 1.5217993127,
				"y": 0.6824557771,
				"z": -1.1033883874,
				"element": "H" 
			},
			{
				"x": 1.7760992169,
				"y": -1.3998217281,
				"z": -2.4058738054,
				"element": "H" 
			},
			{
				"x": 2.6881671126,
				"y": -1.6717143265,
				"z": -0.9393520895,
				"element": "H" 
			},
			{
				"x": -0.0888507646,
				"y": -2.7388601149,
				"z": -1.647540739,
				"element": "H" 
			},
			{
				"x": 1.3510776329,
				"y": -3.667313034,
				"z": -1.2399268412,
				"element": "H" 
			},
			{
				"x": 1.2530521093,
				"y": -2.744205091,
				"z": 1.1049705995,
				"element": "H" 
			},
			{
				"x": -0.2121311099,
				"y": -3.6349264269,
				"z": 0.7061828856,
				"element": "H" 
			},
			{
				"x": -1.4878244957,
				"y": -1.5992206261,
				"z": 0.3675426208,
				"element": "H" 
			},
			{
				"x": -0.5967963974,
				"y": -1.368925224,
				"z": 1.8539203587,
				"element": "H" 
			}
		],
		 "valence_orbital": [ 
			{
				"type": "occ",
				"energy": -0.3408,
				"method": "rhf"
			},
			{
				"type": "occ",
				"energy": -0.3191,
				"method": "rhf"
			},
			{
				"type": "occ",
				"energy": -0.30679,
				"method": "rhf"
			},
			{
				"type": "occ",
				"energy": -0.2931,
				"method": "rhf"
			},
			{
				"type": "occ",
				"energy": -0.22388,
				"method": "rhf"
			},
			{
				"type": "unocc",
				"energy": 0.03742,
				"method": "rhf"
			},
			{
				"type": "unocc",
				"energy": 0.09242,
				"method": "rhf"
			},
			{
				"type": "unocc",
				"energy": 0.11101,
				"method": "rhf"
			},
			{
				"type": "unocc",
				"energy": 0.12523,
				"method": "rhf"
			},
			{
				"type": "unocc",
				"energy": 0.13202,
				"method": "rhf"
			}
		],
		"cosmo_sigma_profile": { 
			"-0.025": 0.0,
			"-0.024": 0.0,
			"-0.023": 0.0,
			"-0.022": 0.0,
			"-0.021": 0.0,
			"-0.02": 0.0,
			"-0.019": 0.0,
			"-0.018": 0.0,
			"-0.017": 0.0,
			"-0.016": 0.0,
			"-0.015": 0.0,
			"-0.014": 0.0,
			"-0.013": 0.0,
			"-0.012": 0.0,
			"-0.011": 0.0,
			"-0.01": 0.0,
			"-0.009": 0.0,
			"-0.008": 0.0,
			"-0.007": 0.0,
			"-0.006": 0.0,
			"-0.005": 0.0,
			"-0.004": 0.0,
			"-0.003": 8.46238719538,
			"-0.002": 30.4461965586,
			"-0.001": 36.8015356975,
			"0.0": 39.9687032248,
			"0.001": 32.5694810486,
			"0.002": 10.4577276231,
			"0.003": 4.59956691584,
			"0.004": 2.90013769854,
			"0.005": 2.33741327123,
			"0.006": 2.43557308412,
			"0.007": 1.86872806305,
			"0.008": 0.650040231197,
			"0.009": 0.0,
			"0.01": 0.0,
			"0.011": 0.0,
			"0.012": 0.0,
			"0.013": 0.0,
			"0.014": 0.0,
			"0.015": 0.0,
			"0.016": 0.0,
			"0.017": 0.0,
			"0.018": 0.0,
			"0.019": 0.0,
			"0.02": 0.0,
			"0.021": 0.0,
			"0.022": 0.0,
			"0.023": 0.0,
			"0.024": 0.0,
			"0.025": 0.0
		}
	}
}
