{
	 "smiles": "CC(O)C1=CC=C2C=CC=CC2=C1", 
	 "Tm": 347.15, 
	 "num_atms": 25, 
	 "gaussian": { 
		 "optdone": 1, 
		 "sigma_profile": "yes", 
		 "theory": "DFT", 
		 "functional": "B3LYP", 
		 "basiset": "6-31G**", 
		 "properties": { 
			 "R2extent": 3219.194, 
			 "electric_dipole_moment_norm": 1.31840147906, 
			 "electric_quadrupole_moment_norm": 6.34121751953, 
			 "total_energy": -539.744971306, 
			 "HOMO_LUMO_gap": 0.17608, 
			 "cosmo_polarized_energy": -8.27, 
			 "cosmo_cavitation_energy": 27.99, 
			 "cosmo_dispersion_energy": -20.44, 
			 "cosmo_repulsion_energy": 1.6, 
			 "cosmo_total_nonelectrostatic_energy": 9.16, 
			 "SMD_solvation_energy": 4.5 
		},
		"coords": [
			{
				"x": 1.7243054724,
				"y": 1.0466997417,
				"z": -1.8678908328,
				"element": "C" 
			},
			{
				"x": 0.3902871217,
				"y": 1.4189224695,
				"z": -1.2176385316,
				"element": "C" 
			},
			{
				"x": 0.5325082563,
				"y": 2.7606137326,
				"z": -0.7588977039,
				"element": "O" 
			},
			{
				"x": 0.013152401,
				"y": 0.4577877786,
				"z": -0.0985258965,
				"element": "C" 
			},
			{
				"x": -0.6562486268,
				"y": -0.7575049884,
				"z": -0.4091051891,
				"element": "C" 
			},
			{
				"x": -0.9833199884,
				"y": -1.6579639838,
				"z": 0.5771714704,
				"element": "C" 
			},
			{
				"x": -0.6663650753,
				"y": -1.3972444099,
				"z": 1.9382585258,
				"element": "C" 
			},
			{
				"x": -0.992464066,
				"y": -2.3013871332,
				"z": 2.9842360665,
				"element": "C" 
			},
			{
				"x": -0.6702546097,
				"y": -2.0125271996,
				"z": 4.2916132509,
				"element": "C" 
			},
			{
				"x": -0.0064879515,
				"y": -0.8026688847,
				"z": 4.6124219127,
				"element": "C" 
			},
			{
				"x": 0.3213114507,
				"y": 0.0949840946,
				"z": 3.6208887309,
				"element": "C" 
			},
			{
				"x": 0.0037902133,
				"y": -0.1726944935,
				"z": 2.2616226701,
				"element": "C" 
			},
			{
				"x": 0.32950105,
				"y": 0.732469192,
				"z": 1.2157932619,
				"element": "C" 
			},
			{
				"x": 1.6849358383,
				"y": 0.0358876472,
				"z": -2.2836239207,
				"element": "H" 
			},
			{
				"x": 1.9581275423,
				"y": 1.751480186,
				"z": -2.6710999524,
				"element": "H" 
			},
			{
				"x": 2.5244904405,
				"y": 1.0858834634,
				"z": -1.1230751701,
				"element": "H" 
			},
			{
				"x": -0.3967363229,
				"y": 1.3668475492,
				"z": -1.9895671118,
				"element": "H" 
			},
			{
				"x": -0.291193978,
				"y": 3.0062780358,
				"z": -0.3165442684,
				"element": "H" 
			},
			{
				"x": -0.9156823777,
				"y": -0.9699026466,
				"z": -1.4439654762,
				"element": "H" 
			},
			{
				"x": -1.4982999021,
				"y": -2.5822742686,
				"z": 0.3270976858,
				"element": "H" 
			},
			{
				"x": -1.501605253,
				"y": -3.228971081,
				"z": 2.7344573223,
				"element": "H" 
			},
			{
				"x": -0.9236831018,
				"y": -2.7122432087,
				"z": 5.0828298141,
				"element": "H" 
			},
			{
				"x": 0.2432072367,
				"y": -0.5857745446,
				"z": 5.6471140636,
				"element": "H" 
			},
			{
				"x": 0.8310646058,
				"y": 1.0235790663,
				"z": 3.865134572,
				"element": "H" 
			},
			{
				"x": 0.839759624,
				"y": 1.6610238857,
				"z": 1.4565947063,
				"element": "H" 
			}
		],
		 "valence_orbital": [ 
			{
				"type": "occ",
				"energy": -0.31516,
				"method": "rhf"
			},
			{
				"type": "occ",
				"energy": -0.28304,
				"method": "rhf"
			},
			{
				"type": "occ",
				"energy": -0.2722,
				"method": "rhf"
			},
			{
				"type": "occ",
				"energy": -0.23798,
				"method": "rhf"
			},
			{
				"type": "occ",
				"energy": -0.21334,
				"method": "rhf"
			},
			{
				"type": "unocc",
				"energy": -0.03726,
				"method": "rhf"
			},
			{
				"type": "unocc",
				"energy": -0.00926,
				"method": "rhf"
			},
			{
				"type": "unocc",
				"energy": 0.03318,
				"method": "rhf"
			},
			{
				"type": "unocc",
				"energy": 0.08366,
				"method": "rhf"
			},
			{
				"type": "unocc",
				"energy": 0.09208,
				"method": "rhf"
			}
		],
		"cosmo_sigma_profile": { 
			"-0.025": 0.0,
			"-0.024": 0.0,
			"-0.023": 0.0,
			"-0.022": 0.0,
			"-0.021": 0.0,
			"-0.02": 0.0,
			"-0.019": 0.0,
			"-0.018": 0.0,
			"-0.017": 0.0,
			"-0.016": 0.0244570566956,
			"-0.015": 0.621315884396,
			"-0.014": 1.30797199191,
			"-0.013": 0.269039832164,
			"-0.012": 0.728954718005,
			"-0.011": 1.309858363,
			"-0.01": 0.556675516921,
			"-0.009": 0.383168678359,
			"-0.008": 0.870689448868,
			"-0.007": 1.55558961993,
			"-0.006": 7.62969817575,
			"-0.005": 18.1155554846,
			"-0.004": 18.5918683412,
			"-0.003": 23.0437924182,
			"-0.002": 16.8931152676,
			"-0.001": 15.6072508816,
			"0.0": 16.4569128005,
			"0.001": 15.8866171049,
			"0.002": 11.9160974774,
			"0.003": 12.5049131449,
			"0.004": 21.0394521615,
			"0.005": 20.5280796514,
			"0.006": 5.66690373851,
			"0.007": 1.25490697978,
			"0.008": 1.00558178413,
			"0.009": 0.993802647745,
			"0.01": 1.24839435072,
			"0.011": 1.27953224825,
			"0.012": 1.21311141337,
			"0.013": 1.55081571945,
			"0.014": 1.73591186712,
			"0.015": 0.0255931900304,
			"0.016": 0.0,
			"0.017": 0.0,
			"0.018": 0.0,
			"0.019": 0.0,
			"0.02": 0.0,
			"0.021": 0.0,
			"0.022": 0.0,
			"0.023": 0.0,
			"0.024": 0.0,
			"0.025": 0.0
		}
	}
}
