{
	 "smiles": "O=C1NC(=NO1)C1=CC(OC2=CC=CC=C2)=CC=C1", 
	 "Tm": 463.15, 
	 "num_atms": 29, 
	 "gaussian": { 
		 "optdone": 1, 
		 "sigma_profile": "yes", 
		 "theory": "DFT", 
		 "functional": "B3LYP", 
		 "basiset": "6-31G**", 
		 "properties": { 
			 "R2extent": 8113.5928, 
			 "electric_dipole_moment_norm": 7.50039601688, 
			 "electric_quadrupole_moment_norm": 27.1779245734, 
			 "total_energy": -874.655165934, 
			 "HOMO_LUMO_gap": 0.17885, 
			 "cosmo_polarized_energy": -18.67, 
			 "cosmo_cavitation_energy": 35.07, 
			 "cosmo_dispersion_energy": -25.57, 
			 "cosmo_repulsion_energy": 1.95, 
			 "cosmo_total_nonelectrostatic_energy": 11.45, 
			 "SMD_solvation_energy": 7.1 
		},
		"coords": [
			{
				"x": 5.9810230058,
				"y": 3.3126579118,
				"z": -2.6628143257,
				"element": "O" 
			},
			{
				"x": 4.8845256693,
				"y": 2.8577938375,
				"z": -2.4641774695,
				"element": "C" 
			},
			{
				"x": 4.4321392783,
				"y": 2.040530258,
				"z": -1.4364787004,
				"element": "N" 
			},
			{
				"x": 3.0892404808,
				"y": 1.8032191313,
				"z": -1.6222018045,
				"element": "C" 
			},
			{
				"x": 2.6540203914,
				"y": 2.3810663959,
				"z": -2.7033191971,
				"element": "N" 
			},
			{
				"x": 3.7743869043,
				"y": 3.0557775293,
				"z": -3.2509090627,
				"element": "O" 
			},
			{
				"x": 2.2489501004,
				"y": 0.9977610457,
				"z": -0.7283359252,
				"element": "C" 
			},
			{
				"x": 0.8566773191,
				"y": 1.1157888578,
				"z": -0.8175217312,
				"element": "C" 
			},
			{
				"x": 0.0422739112,
				"y": 0.3526231464,
				"z": 0.0190556276,
				"element": "C" 
			},
			{
				"x": -1.3079277045,
				"y": 0.5739086697,
				"z": -0.0938777909,
				"element": "O" 
			},
			{
				"x": -2.2196918606,
				"y": -0.3847893096,
				"z": 0.32569151,
				"element": "C" 
			},
			{
				"x": -2.1952074236,
				"y": -1.6853100536,
				"z": -0.1844779372,
				"element": "C" 
			},
			{
				"x": -3.1841044777,
				"y": -2.5873235958,
				"z": 0.2091076817,
				"element": "C" 
			},
			{
				"x": -4.1917985682,
				"y": -2.1933779936,
				"z": 1.0930681746,
				"element": "C" 
			},
			{
				"x": -4.2087592076,
				"y": -0.8872208571,
				"z": 1.5860560299,
				"element": "C" 
			},
			{
				"x": -3.2200610377,
				"y": 0.0224819351,
				"z": 1.2075757413,
				"element": "C" 
			},
			{
				"x": 0.6066780126,
				"y": -0.5253814264,
				"z": 0.9536796284,
				"element": "C" 
			},
			{
				"x": 1.9941462894,
				"y": -0.6400336539,
				"z": 1.0288805363,
				"element": "C" 
			},
			{
				"x": 2.8215748176,
				"y": 0.1110600742,
				"z": 0.1962097125,
				"element": "C" 
			},
			{
				"x": 4.9998458497,
				"y": 1.7920570293,
				"z": -0.6428484847,
				"element": "H" 
			},
			{
				"x": 0.4053296497,
				"y": 1.8001286684,
				"z": -1.5263765162,
				"element": "H" 
			},
			{
				"x": -1.4179063517,
				"y": -1.977666327,
				"z": -0.8829282613,
				"element": "H" 
			},
			{
				"x": -3.1708891557,
				"y": -3.598911352,
				"z": -0.1859899767,
				"element": "H" 
			},
			{
				"x": -4.9610141718,
				"y": -2.8990000049,
				"z": 1.3913597741,
				"element": "H" 
			},
			{
				"x": -4.9912147659,
				"y": -0.5725031001,
				"z": 2.2702427452,
				"element": "H" 
			},
			{
				"x": -3.2143654915,
				"y": 1.0427759175,
				"z": 1.57641455,
				"element": "H" 
			},
			{
				"x": -0.0313428876,
				"y": -1.1047407953,
				"z": 1.6107870815,
				"element": "H" 
			},
			{
				"x": 2.4331609978,
				"y": -1.3242847542,
				"z": 1.7484573173,
				"element": "H" 
			},
			{
				"x": 3.8981104266,
				"y": -0.0157871845,
				"z": 0.2537710729,
				"element": "H" 
			}
		],
		 "valence_orbital": [ 
			{
				"type": "occ",
				"energy": -0.2838,
				"method": "rhf"
			},
			{
				"type": "occ",
				"energy": -0.26737,
				"method": "rhf"
			},
			{
				"type": "occ",
				"energy": -0.26398,
				"method": "rhf"
			},
			{
				"type": "occ",
				"energy": -0.24754,
				"method": "rhf"
			},
			{
				"type": "occ",
				"energy": -0.23723,
				"method": "rhf"
			},
			{
				"type": "unocc",
				"energy": -0.05838,
				"method": "rhf"
			},
			{
				"type": "unocc",
				"energy": -0.0238,
				"method": "rhf"
			},
			{
				"type": "unocc",
				"energy": -0.01567,
				"method": "rhf"
			},
			{
				"type": "unocc",
				"energy": -0.00693,
				"method": "rhf"
			},
			{
				"type": "unocc",
				"energy": 0.0305,
				"method": "rhf"
			}
		],
		"cosmo_sigma_profile": { 
			"-0.025": 0.0,
			"-0.024": 0.0,
			"-0.023": 0.0,
			"-0.022": 0.0,
			"-0.021": 0.0,
			"-0.02": 0.0,
			"-0.019": 0.0331479257046,
			"-0.018": 1.27572474913,
			"-0.017": 1.1721860177,
			"-0.016": 1.45134160861,
			"-0.015": 1.34288620438,
			"-0.014": 1.14187142121,
			"-0.013": 1.36427673859,
			"-0.012": 0.892247964044,
			"-0.011": 1.27843008908,
			"-0.01": 1.37736830634,
			"-0.009": 1.47742917997,
			"-0.008": 1.66515817219,
			"-0.007": 6.50417478901,
			"-0.006": 17.2498089931,
			"-0.005": 20.197624509,
			"-0.004": 21.7231159838,
			"-0.003": 18.8495336014,
			"-0.002": 16.2744272034,
			"-0.001": 15.8765511701,
			"0.0": 17.4866661192,
			"0.001": 18.2087000794,
			"0.002": 24.3178187032,
			"0.003": 22.6422191398,
			"0.004": 14.770699326,
			"0.005": 13.163000328,
			"0.006": 6.03750797126,
			"0.007": 8.2155301256,
			"0.008": 6.69318526034,
			"0.009": 3.62931672305,
			"0.01": 3.71585500132,
			"0.011": 7.49608723193,
			"0.012": 4.93771452751,
			"0.013": 0.380644745549,
			"0.014": 0.0,
			"0.015": 0.0,
			"0.016": 0.0,
			"0.017": 0.0,
			"0.018": 0.0,
			"0.019": 0.0,
			"0.02": 0.0,
			"0.021": 0.0,
			"0.022": 0.0,
			"0.023": 0.0,
			"0.024": 0.0,
			"0.025": 0.0
		}
	}
}
