{
	 "smiles": "C1CNC2=C(N1)C=CC=C2", 
	 "Tm": 372.15, 
	 "num_atms": 20, 
	 "gaussian": { 
		 "optdone": 1, 
		 "sigma_profile": "yes", 
		 "theory": "DFT", 
		 "functional": "B3LYP", 
		 "basiset": "6-31G**", 
		 "properties": { 
			 "R2extent": 1459.0721, 
			 "electric_dipole_moment_norm": 2.12253761804, 
			 "electric_quadrupole_moment_norm": 8.00858137625, 
			 "total_energy": -420.378690802, 
			 "HOMO_LUMO_gap": 0.18983, 
			 "cosmo_polarized_energy": -9.01, 
			 "cosmo_cavitation_energy": 22.03, 
			 "cosmo_dispersion_energy": -17.14, 
			 "cosmo_repulsion_energy": 1.38, 
			 "cosmo_total_nonelectrostatic_energy": 6.27, 
			 "SMD_solvation_energy": 1.37 
		},
		"coords": [
			{
				"x": -2.0834454181,
				"y": -0.2187748742,
				"z": 0.2136370959,
				"element": "C" 
			},
			{
				"x": -1.5787779146,
				"y": 0.8708191559,
				"z": 1.1606135797,
				"element": "C" 
			},
			{
				"x": -0.2449583417,
				"y": 1.267059912,
				"z": 0.7308576005,
				"element": "N" 
			},
			{
				"x": 0.682751558,
				"y": 0.2474275637,
				"z": 0.4583330542,
				"element": "C" 
			},
			{
				"x": 0.21626959,
				"y": -1.0586050428,
				"z": 0.1683920151,
				"element": "C" 
			},
			{
				"x": -1.1564328029,
				"y": -1.3403198368,
				"z": 0.2730936737,
				"element": "N" 
			},
			{
				"x": 1.1416360771,
				"y": -2.0528117095,
				"z": -0.1653811538,
				"element": "C" 
			},
			{
				"x": 2.5106106625,
				"y": -1.7822491113,
				"z": -0.2079760131,
				"element": "C" 
			},
			{
				"x": 2.970117392,
				"y": -0.4985200094,
				"z": 0.0830687185,
				"element": "C" 
			},
			{
				"x": 2.056949817,
				"y": 0.5040491852,
				"z": 0.4148610603,
				"element": "C" 
			},
			{
				"x": -2.1801111767,
				"y": 0.2085641803,
				"z": -0.7976561296,
				"element": "H" 
			},
			{
				"x": -3.0731325303,
				"y": -0.5608598995,
				"z": 0.5342579291,
				"element": "H" 
			},
			{
				"x": -1.6027570628,
				"y": 0.4821863922,
				"z": 2.1916671789,
				"element": "H" 
			},
			{
				"x": -2.2398308753,
				"y": 1.74247614,
				"z": 1.1103554934,
				"element": "H" 
			},
			{
				"x": 0.1461105276,
				"y": 2.0458398803,
				"z": 1.2441641578,
				"element": "H" 
			},
			{
				"x": -1.4463785212,
				"y": -2.1515692179,
				"z": -0.2567454223,
				"element": "H" 
			},
			{
				"x": 0.7759887442,
				"y": -3.0542557007,
				"z": -0.3830616504,
				"element": "H" 
			},
			{
				"x": 3.2079345521,
				"y": -2.5726158952,
				"z": -0.4687648506,
				"element": "H" 
			},
			{
				"x": 4.031722813,
				"y": -0.2723046808,
				"z": 0.0552509095,
				"element": "H" 
			},
			{
				"x": 2.4071329102,
				"y": 1.5104635685,
				"z": 0.6350327533,
				"element": "H" 
			}
		],
		 "valence_orbital": [ 
			{
				"type": "occ",
				"energy": -0.33137,
				"method": "rhf"
			},
			{
				"type": "occ",
				"energy": -0.28404,
				"method": "rhf"
			},
			{
				"type": "occ",
				"energy": -0.28191,
				"method": "rhf"
			},
			{
				"type": "occ",
				"energy": -0.2078,
				"method": "rhf"
			},
			{
				"type": "occ",
				"energy": -0.16955,
				"method": "rhf"
			},
			{
				"type": "unocc",
				"energy": 0.02028,
				"method": "rhf"
			},
			{
				"type": "unocc",
				"energy": 0.03358,
				"method": "rhf"
			},
			{
				"type": "unocc",
				"energy": 0.08124,
				"method": "rhf"
			},
			{
				"type": "unocc",
				"energy": 0.10406,
				"method": "rhf"
			},
			{
				"type": "unocc",
				"energy": 0.11242,
				"method": "rhf"
			}
		],
		"cosmo_sigma_profile": { 
			"-0.025": 0.0,
			"-0.024": 0.0,
			"-0.023": 0.0,
			"-0.022": 0.0,
			"-0.021": 0.0,
			"-0.02": 0.0,
			"-0.019": 0.0,
			"-0.018": 0.0,
			"-0.017": 0.0,
			"-0.016": 0.0,
			"-0.015": 0.0,
			"-0.014": 0.0,
			"-0.013": 0.0112340310834,
			"-0.012": 1.92404827069,
			"-0.011": 2.63826052424,
			"-0.01": 2.17984935983,
			"-0.009": 2.75431866028,
			"-0.008": 2.83169139874,
			"-0.007": 2.83923940707,
			"-0.006": 3.89543351864,
			"-0.005": 9.06392309978,
			"-0.004": 15.2844108718,
			"-0.003": 17.7094665502,
			"-0.002": 21.1693762426,
			"-0.001": 13.0409191468,
			"0.0": 9.30308130764,
			"0.001": 6.67330645488,
			"0.002": 6.34997310391,
			"0.003": 6.98196089111,
			"0.004": 6.36709934426,
			"0.005": 8.09985319916,
			"0.006": 7.6334081764,
			"0.007": 10.237604389,
			"0.008": 8.01526353963,
			"0.009": 3.89977796112,
			"0.01": 0.923994562589,
			"0.011": 1.75291350266,
			"0.012": 1.02295296551,
			"0.013": 0.825223780422,
			"0.014": 0.188913386995,
			"0.015": 0.0,
			"0.016": 0.0,
			"0.017": 0.0,
			"0.018": 0.0,
			"0.019": 0.0,
			"0.02": 0.0,
			"0.021": 0.0,
			"0.022": 0.0,
			"0.023": 0.0,
			"0.024": 0.0,
			"0.025": 0.0
		}
	}
}
