{
	 "smiles": "C=CC1=NC=CC=C1", 
	 "Tm": 223.15, 
	 "num_atms": 15, 
	 "gaussian": { 
		 "optdone": 1, 
		 "sigma_profile": "yes", 
		 "theory": "DFT", 
		 "functional": "B3LYP", 
		 "basiset": "6-31G**", 
		 "properties": { 
			 "R2extent": 1478.4857, 
			 "electric_dipole_moment_norm": 1.80065012148, 
			 "electric_quadrupole_moment_norm": 7.3114011017, 
			 "total_energy": -325.691543176, 
			 "HOMO_LUMO_gap": 0.18955, 
			 "cosmo_polarized_energy": -5.93, 
			 "cosmo_cavitation_energy": 19.11, 
			 "cosmo_dispersion_energy": -14.09, 
			 "cosmo_repulsion_energy": 1.16, 
			 "cosmo_total_nonelectrostatic_energy": 6.18, 
			 "SMD_solvation_energy": 3.03 
		},
		"coords": [
			{
				"x": -3.7760670071,
				"y": -0.832085794,
				"z": -1.3096401741,
				"element": "C" 
			},
			{
				"x": -2.4414751781,
				"y": -0.8264380787,
				"z": -1.2260212431,
				"element": "C" 
			},
			{
				"x": -1.6815708878,
				"y": -0.4486653988,
				"z": -0.0211568763,
				"element": "C" 
			},
			{
				"x": -2.3732221898,
				"y": -0.0821764615,
				"z": 1.0771117841,
				"element": "N" 
			},
			{
				"x": -1.6872515095,
				"y": 0.2596773389,
				"z": 2.1675885137,
				"element": "C" 
			},
			{
				"x": -0.2909838268,
				"y": 0.2619947592,
				"z": 2.2439422045,
				"element": "C" 
			},
			{
				"x": 0.4256254724,
				"y": -0.1163698012,
				"z": 1.1102754579,
				"element": "C" 
			},
			{
				"x": -0.2769481361,
				"y": -0.4763229148,
				"z": -0.0369193241,
				"element": "C" 
			},
			{
				"x": -4.3842210203,
				"y": -0.5465443364,
				"z": -0.4576427551,
				"element": "H" 
			},
			{
				"x": -4.2827402255,
				"y": -1.1202558785,
				"z": -2.2250344578,
				"element": "H" 
			},
			{
				"x": -1.8419762666,
				"y": -1.1150433796,
				"z": -2.0879090925,
				"element": "H" 
			},
			{
				"x": -2.2816076804,
				"y": 0.5494129321,
				"z": 3.0333547565,
				"element": "H" 
			},
			{
				"x": 0.2099311101,
				"y": 0.5511395518,
				"z": 3.1622472163,
				"element": "H" 
			},
			{
				"x": 1.5118908515,
				"y": -0.1311996767,
				"z": 1.1183368136,
				"element": "H" 
			},
			{
				"x": 0.2473164939,
				"y": -0.7768228618,
				"z": -0.9394328236,
				"element": "H" 
			}
		],
		 "valence_orbital": [ 
			{
				"type": "occ",
				"energy": -0.34885,
				"method": "rhf"
			},
			{
				"type": "occ",
				"energy": -0.30373,
				"method": "rhf"
			},
			{
				"type": "occ",
				"energy": -0.28143,
				"method": "rhf"
			},
			{
				"type": "occ",
				"energy": -0.25216,
				"method": "rhf"
			},
			{
				"type": "occ",
				"energy": -0.23117,
				"method": "rhf"
			},
			{
				"type": "unocc",
				"energy": -0.04162,
				"method": "rhf"
			},
			{
				"type": "unocc",
				"energy": -0.0149,
				"method": "rhf"
			},
			{
				"type": "unocc",
				"energy": 0.0563,
				"method": "rhf"
			},
			{
				"type": "unocc",
				"energy": 0.0937,
				"method": "rhf"
			},
			{
				"type": "unocc",
				"energy": 0.12242,
				"method": "rhf"
			}
		],
		"cosmo_sigma_profile": { 
			"-0.025": 0.0,
			"-0.024": 0.0,
			"-0.023": 0.0,
			"-0.022": 0.0,
			"-0.021": 0.0,
			"-0.02": 0.0,
			"-0.019": 0.0,
			"-0.018": 0.0,
			"-0.017": 0.0,
			"-0.016": 0.0,
			"-0.015": 0.0,
			"-0.014": 0.0,
			"-0.013": 0.0,
			"-0.012": 0.0,
			"-0.011": 0.0,
			"-0.01": 0.0,
			"-0.009": 0.0,
			"-0.008": 0.135685595998,
			"-0.007": 4.66105495615,
			"-0.006": 11.1233540298,
			"-0.005": 13.8760257988,
			"-0.004": 11.4413604509,
			"-0.003": 11.2611729548,
			"-0.002": 9.67868138755,
			"-0.001": 10.0417180539,
			"0.0": 10.4087462178,
			"0.001": 9.77324684765,
			"0.002": 15.7378684795,
			"0.003": 16.4981767718,
			"0.004": 7.9579982047,
			"0.005": 5.41540822752,
			"0.006": 5.06058069175,
			"0.007": 2.2472726881,
			"0.008": 1.61224497858,
			"0.009": 2.05773273245,
			"0.01": 0.833173752534,
			"0.011": 0.998011309946,
			"0.012": 1.57831213136,
			"0.013": 0.841262121455,
			"0.014": 0.194131259924,
			"0.015": 0.0,
			"0.016": 0.0,
			"0.017": 0.0,
			"0.018": 0.0,
			"0.019": 0.0,
			"0.02": 0.0,
			"0.021": 0.0,
			"0.022": 0.0,
			"0.023": 0.0,
			"0.024": 0.0,
			"0.025": 0.0
		}
	}
}
