{
	 "smiles": "CC1=CC(C=C(C#N)C(O)=O)=C(C)N1C1=CC(C)=CC=C1", 
	 "Tm": 349.15, 
	 "num_atms": 37, 
	 "gaussian": { 
		 "optdone": 1, 
		 "sigma_profile": "yes", 
		 "theory": "DFT", 
		 "functional": "B3LYP", 
		 "basiset": "6-31G**", 
		 "properties": { 
			 "R2extent": 8701.2992, 
			 "electric_dipole_moment_norm": 9.29836203102, 
			 "electric_quadrupole_moment_norm": 30.3569857667, 
			 "total_energy": -917.401072217, 
			 "HOMO_LUMO_gap": 0.14421, 
			 "cosmo_polarized_energy": -19.29, 
			 "cosmo_cavitation_energy": 42.47, 
			 "cosmo_dispersion_energy": -28.49, 
			 "cosmo_repulsion_energy": 2.21, 
			 "cosmo_total_nonelectrostatic_energy": 16.19, 
			 "SMD_solvation_energy": 9.94 
		},
		"coords": [
			{
				"x": -2.7289983093,
				"y": -0.2794665742,
				"z": -0.0570646456,
				"element": "C" 
			},
			{
				"x": -1.3688263141,
				"y": 0.3219300122,
				"z": 0.0850818874,
				"element": "C" 
			},
			{
				"x": -0.8747997708,
				"y": 1.1836589393,
				"z": 1.0206260507,
				"element": "C" 
			},
			{
				"x": 0.5084081973,
				"y": 1.4441783029,
				"z": 0.70975999,
				"element": "C" 
			},
			{
				"x": 1.5010737895,
				"y": 2.2554542587,
				"z": 1.3371931241,
				"element": "C" 
			},
			{
				"x": 1.5438936279,
				"y": 3.0755762054,
				"z": 2.4448112165,
				"element": "C" 
			},
			{
				"x": 2.8011441566,
				"y": 3.7157757952,
				"z": 2.7044106766,
				"element": "C" 
			},
			{
				"x": 3.8398817693,
				"y": 4.2136426429,
				"z": 2.8763183176,
				"element": "N" 
			},
			{
				"x": 0.4441802004,
				"y": 3.3641294406,
				"z": 3.3882533054,
				"element": "C" 
			},
			{
				"x": 0.8390027084,
				"y": 4.2155293666,
				"z": 4.3670188528,
				"element": "O" 
			},
			{
				"x": -0.6928195889,
				"y": 2.927744753,
				"z": 3.3501339483,
				"element": "O" 
			},
			{
				"x": 0.808242887,
				"y": 0.6972449371,
				"z": -0.4511384102,
				"element": "C" 
			},
			{
				"x": 2.0697115217,
				"y": 0.564336372,
				"z": -1.2433628455,
				"element": "C" 
			},
			{
				"x": -0.3284116829,
				"y": 0.0272139546,
				"z": -0.8139949764,
				"element": "N" 
			},
			{
				"x": -0.4472662087,
				"y": -0.8501294717,
				"z": -1.9428936258,
				"element": "C" 
			},
			{
				"x": -0.0131449419,
				"y": -2.1745052162,
				"z": -1.8369082665,
				"element": "C" 
			},
			{
				"x": -0.1226658781,
				"y": -3.0521818322,
				"z": -2.9218888796,
				"element": "C" 
			},
			{
				"x": 0.3710669996,
				"y": -4.4760840413,
				"z": -2.8196048774,
				"element": "C" 
			},
			{
				"x": -0.6876067295,
				"y": -2.5700604289,
				"z": -4.1115677512,
				"element": "C" 
			},
			{
				"x": -1.1243243966,
				"y": -1.2500343682,
				"z": -4.2172525144,
				"element": "C" 
			},
			{
				"x": -1.0056383009,
				"y": -0.3792997781,
				"z": -3.13304634,
				"element": "C" 
			},
			{
				"x": -3.3597287554,
				"y": 0.0647002698,
				"z": 0.765313362,
				"element": "H" 
			},
			{
				"x": -2.7007604764,
				"y": -1.3751890269,
				"z": -0.0273682145,
				"element": "H" 
			},
			{
				"x": -3.2152486991,
				"y": 0.0044780602,
				"z": -0.9976826466,
				"element": "H" 
			},
			{
				"x": -1.4108924955,
				"y": 1.603387742,
				"z": 1.8544469007,
				"element": "H" 
			},
			{
				"x": 2.459039003,
				"y": 2.2219012802,
				"z": 0.8238853384,
				"element": "H" 
			},
			{
				"x": 0.0597077307,
				"y": 4.3450276265,
				"z": 4.9315921861,
				"element": "H" 
			},
			{
				"x": 2.5228876631,
				"y": -0.4273701352,
				"z": -1.126200891,
				"element": "H" 
			},
			{
				"x": 1.8817583634,
				"y": 0.7070026266,
				"z": -2.3127024737,
				"element": "H" 
			},
			{
				"x": 2.810131321,
				"y": 1.3035829786,
				"z": -0.9354323246,
				"element": "H" 
			},
			{
				"x": 0.4065017883,
				"y": -2.517531333,
				"z": -0.8952996183,
				"element": "H" 
			},
			{
				"x": -0.3011652534,
				"y": -5.1691307352,
				"z": -3.3347300459,
				"element": "H" 
			},
			{
				"x": 1.3611308234,
				"y": -4.58343311,
				"z": -3.2793930495,
				"element": "H" 
			},
			{
				"x": 0.4566530029,
				"y": -4.797291575,
				"z": -1.7779783098,
				"element": "H" 
			},
			{
				"x": -0.7878610744,
				"y": -3.2385905249,
				"z": -4.9627671225,
				"element": "H" 
			},
			{
				"x": -1.5599516193,
				"y": -0.8963771531,
				"z": -5.146954588,
				"element": "H" 
			},
			{
				"x": -1.3382050588,
				"y": 0.65157974,
				"z": -3.2005127398,
				"element": "H" 
			}
		],
		 "valence_orbital": [ 
			{
				"type": "occ",
				"energy": -0.27519,
				"method": "rhf"
			},
			{
				"type": "occ",
				"energy": -0.26929,
				"method": "rhf"
			},
			{
				"type": "occ",
				"energy": -0.26613,
				"method": "rhf"
			},
			{
				"type": "occ",
				"energy": -0.2355,
				"method": "rhf"
			},
			{
				"type": "occ",
				"energy": -0.20896,
				"method": "rhf"
			},
			{
				"type": "unocc",
				"energy": -0.06475,
				"method": "rhf"
			},
			{
				"type": "unocc",
				"energy": -0.03091,
				"method": "rhf"
			},
			{
				"type": "unocc",
				"energy": -0.02607,
				"method": "rhf"
			},
			{
				"type": "unocc",
				"energy": 0.02571,
				"method": "rhf"
			},
			{
				"type": "unocc",
				"energy": 0.03758,
				"method": "rhf"
			}
		],
		"cosmo_sigma_profile": { 
			"-0.025": 0.0,
			"-0.024": 0.0,
			"-0.023": 0.0,
			"-0.022": 0.0,
			"-0.021": 0.0,
			"-0.02": 0.0,
			"-0.019": 0.033325958158,
			"-0.018": 0.663970181841,
			"-0.017": 1.08637201341,
			"-0.016": 0.710313818805,
			"-0.015": 0.621244329979,
			"-0.014": 0.96589289801,
			"-0.013": 0.959492311229,
			"-0.012": 0.2382150147,
			"-0.011": 0.889826625659,
			"-0.01": 1.15077320717,
			"-0.009": 1.94432361988,
			"-0.008": 2.27157004277,
			"-0.007": 4.0593459779,
			"-0.006": 11.8773049646,
			"-0.005": 20.85106665,
			"-0.004": 31.4395671092,
			"-0.003": 30.9581543584,
			"-0.002": 34.8938202992,
			"-0.001": 34.807679079,
			"0.0": 29.1260213975,
			"0.001": 19.9500347888,
			"0.002": 16.9928054659,
			"0.003": 16.1811890144,
			"0.004": 16.5120897673,
			"0.005": 13.4782335462,
			"0.006": 7.28588781299,
			"0.007": 5.0721608519,
			"0.008": 6.80965013889,
			"0.009": 8.34251714682,
			"0.01": 5.98844106695,
			"0.011": 5.09915566438,
			"0.012": 4.15992364814,
			"0.013": 2.47044803134,
			"0.014": 1.33101258269,
			"0.015": 0.0129239849577,
			"0.016": 0.0,
			"0.017": 0.0,
			"0.018": 0.0,
			"0.019": 0.0,
			"0.02": 0.0,
			"0.021": 0.0,
			"0.022": 0.0,
			"0.023": 0.0,
			"0.024": 0.0,
			"0.025": 0.0
		}
	}
}
