{
	 "smiles": "CC(NC(=O)OC(C)(C)C)C(O)CC1=CC=CC=C1", 
	 "Tm": 390.15, 
	 "num_atms": 42, 
	 "gaussian": { 
		 "optdone": 1, 
		 "sigma_profile": "yes", 
		 "theory": "DFT", 
		 "functional": "B3LYP", 
		 "basiset": "6-31G**", 
		 "properties": { 
			 "R2extent": 7820.4583, 
			 "electric_dipole_moment_norm": 3.20140350628, 
			 "electric_quadrupole_moment_norm": 14.9902155401, 
			 "total_energy": -865.920466188, 
			 "HOMO_LUMO_gap": 0.23518, 
			 "cosmo_polarized_energy": -14.09, 
			 "cosmo_cavitation_energy": 42.66, 
			 "cosmo_dispersion_energy": -28.31, 
			 "cosmo_repulsion_energy": 2.19, 
			 "cosmo_total_nonelectrostatic_energy": 16.54, 
			 "SMD_solvation_energy": 7.71 
		},
		"coords": [
			{
				"x": 0.580696189,
				"y": 0.7880058237,
				"z": 2.060526935,
				"element": "C" 
			},
			{
				"x": 1.5568705042,
				"y": 0.6420044758,
				"z": 0.887134045,
				"element": "C" 
			},
			{
				"x": 1.7309992163,
				"y": 1.8948620448,
				"z": 0.1382732586,
				"element": "N" 
			},
			{
				"x": 0.8108833839,
				"y": 2.5695469234,
				"z": -0.623231772,
				"element": "C" 
			},
			{
				"x": 1.1232627915,
				"y": 3.4621486116,
				"z": -1.3960689794,
				"element": "O" 
			},
			{
				"x": -0.456381986,
				"y": 2.1413705151,
				"z": -0.3838985995,
				"element": "O" 
			},
			{
				"x": -1.6028063841,
				"y": 2.8047288521,
				"z": -1.0249801028,
				"element": "C" 
			},
			{
				"x": -1.6613594744,
				"y": 4.2777647413,
				"z": -0.6055121831,
				"element": "C" 
			},
			{
				"x": -2.7985934858,
				"y": 2.0348161781,
				"z": -0.4569955568,
				"element": "C" 
			},
			{
				"x": -1.5260135916,
				"y": 2.6378182493,
				"z": -2.5467325575,
				"element": "C" 
			},
			{
				"x": 1.2241604393,
				"y": -0.5354380518,
				"z": -0.0514821085,
				"element": "C" 
			},
			{
				"x": 2.2678362872,
				"y": -0.5550688634,
				"z": -1.0322638579,
				"element": "O" 
			},
			{
				"x": 1.0819180382,
				"y": -1.9034318904,
				"z": 0.6541489323,
				"element": "C" 
			},
			{
				"x": 2.2104444965,
				"y": -2.3323191973,
				"z": 1.5745205789,
				"element": "C" 
			},
			{
				"x": 3.5441841042,
				"y": -2.3849818847,
				"z": 1.1360349758,
				"element": "C" 
			},
			{
				"x": 4.5602688392,
				"y": -2.8067436275,
				"z": 1.9939911053,
				"element": "C" 
			},
			{
				"x": 4.2665915917,
				"y": -3.191855744,
				"z": 3.3040768447,
				"element": "C" 
			},
			{
				"x": 2.9461553066,
				"y": -3.1480138803,
				"z": 3.7513364721,
				"element": "C" 
			},
			{
				"x": 1.9312238593,
				"y": -2.7207751012,
				"z": 2.8926499913,
				"element": "C" 
			},
			{
				"x": -0.4547817293,
				"y": 0.850787265,
				"z": 1.7216107333,
				"element": "H" 
			},
			{
				"x": 0.8132131828,
				"y": 1.7015632789,
				"z": 2.6142238285,
				"element": "H" 
			},
			{
				"x": 0.6819848882,
				"y": -0.0573487766,
				"z": 2.7458970912,
				"element": "H" 
			},
			{
				"x": 2.5491072591,
				"y": 0.4373177067,
				"z": 1.3032128373,
				"element": "H" 
			},
			{
				"x": 2.66403289,
				"y": 2.0665940211,
				"z": -0.2067611031,
				"element": "H" 
			},
			{
				"x": -2.5802847363,
				"y": 4.7326417974,
				"z": -0.9897744159,
				"element": "H" 
			},
			{
				"x": -0.8043253997,
				"y": 4.8276292703,
				"z": -0.9941377993,
				"element": "H" 
			},
			{
				"x": -1.672021177,
				"y": 4.3609551935,
				"z": 0.4859788766,
				"element": "H" 
			},
			{
				"x": -2.7345239963,
				"y": 0.9732616502,
				"z": -0.7145667213,
				"element": "H" 
			},
			{
				"x": -3.7309310061,
				"y": 2.4331007503,
				"z": -0.8683660661,
				"element": "H" 
			},
			{
				"x": -2.836209082,
				"y": 2.1250805359,
				"z": 0.6326586765,
				"element": "H" 
			},
			{
				"x": -1.453763985,
				"y": 1.5772609423,
				"z": -2.8095316265,
				"element": "H" 
			},
			{
				"x": -2.4349411844,
				"y": 3.0390860935,
				"z": -3.0070937451,
				"element": "H" 
			},
			{
				"x": -0.6608437904,
				"y": 3.1624887511,
				"z": -2.9514147956,
				"element": "H" 
			},
			{
				"x": 0.2635237759,
				"y": -0.3130822066,
				"z": -0.5373501602,
				"element": "H" 
			},
			{
				"x": 1.9869665332,
				"y": -1.1285069651,
				"z": -1.7563073228,
				"element": "H" 
			},
			{
				"x": 0.1400371519,
				"y": -1.90797079,
				"z": 1.2139229941,
				"element": "H" 
			},
			{
				"x": 0.9538094504,
				"y": -2.6537163511,
				"z": -0.1402187318,
				"element": "H" 
			},
			{
				"x": 3.7784479533,
				"y": -2.074220435,
				"z": 0.1238830743,
				"element": "H" 
			},
			{
				"x": 5.5858510735,
				"y": -2.8369732593,
				"z": 1.6360439679,
				"element": "H" 
			},
			{
				"x": 5.0594088882,
				"y": -3.5235025457,
				"z": 3.9684922907,
				"element": "H" 
			},
			{
				"x": 2.7031354031,
				"y": -3.4455675553,
				"z": 4.7676665325,
				"element": "H" 
			},
			{
				"x": 0.9038675116,
				"y": -2.6958165463,
				"z": 3.2491041634,
				"element": "H" 
			}
		],
		 "valence_orbital": [ 
			{
				"type": "occ",
				"energy": -0.27324,
				"method": "rhf"
			},
			{
				"type": "occ",
				"energy": -0.25496,
				"method": "rhf"
			},
			{
				"type": "occ",
				"energy": -0.24765,
				"method": "rhf"
			},
			{
				"type": "occ",
				"energy": -0.2447,
				"method": "rhf"
			},
			{
				"type": "occ",
				"energy": -0.23719,
				"method": "rhf"
			},
			{
				"type": "unocc",
				"energy": -0.00201,
				"method": "rhf"
			},
			{
				"type": "unocc",
				"energy": 0.00043,
				"method": "rhf"
			},
			{
				"type": "unocc",
				"energy": 0.05818,
				"method": "rhf"
			},
			{
				"type": "unocc",
				"energy": 0.0638,
				"method": "rhf"
			},
			{
				"type": "unocc",
				"energy": 0.08218,
				"method": "rhf"
			}
		],
		"cosmo_sigma_profile": { 
			"-0.025": 0.0,
			"-0.024": 0.0,
			"-0.023": 0.0,
			"-0.022": 0.0,
			"-0.021": 0.0,
			"-0.02": 0.0,
			"-0.019": 0.0,
			"-0.018": 0.0,
			"-0.017": 0.0,
			"-0.016": 0.174777332419,
			"-0.015": 1.04297656715,
			"-0.014": 1.07021921545,
			"-0.013": 1.36286394853,
			"-0.012": 1.65309573032,
			"-0.011": 1.87017059738,
			"-0.01": 1.72107917061,
			"-0.009": 1.40288813901,
			"-0.008": 2.23946875534,
			"-0.007": 2.18323387868,
			"-0.006": 3.94007145141,
			"-0.005": 11.8140286398,
			"-0.004": 25.9442204954,
			"-0.003": 34.2426500702,
			"-0.002": 35.1101770956,
			"-0.001": 34.9489865493,
			"0.0": 40.808060806,
			"0.001": 35.4394988624,
			"0.002": 18.4289150739,
			"0.003": 14.4774269386,
			"0.004": 13.8459228716,
			"0.005": 13.2571110749,
			"0.006": 11.0056986375,
			"0.007": 6.62706216558,
			"0.008": 2.91484888934,
			"0.009": 1.94764965989,
			"0.01": 1.82395395349,
			"0.011": 3.14746019665,
			"0.012": 2.37004699795,
			"0.013": 2.8316235217,
			"0.014": 2.7575211364,
			"0.015": 0.211033928666,
			"0.016": 0.0,
			"0.017": 0.0,
			"0.018": 0.0,
			"0.019": 0.0,
			"0.02": 0.0,
			"0.021": 0.0,
			"0.022": 0.0,
			"0.023": 0.0,
			"0.024": 0.0,
			"0.025": 0.0
		}
	}
}
