{
	 "smiles": "COC1=CC=CC=C1C1=CC=C(O1)C=NO", 
	 "Tm": 401.15, 
	 "num_atms": 27, 
	 "gaussian": { 
		 "optdone": 1, 
		 "sigma_profile": "yes", 
		 "theory": "DFT", 
		 "functional": "B3LYP", 
		 "basiset": "6-31G**", 
		 "properties": { 
			 "R2extent": 4313.3396, 
			 "electric_dipole_moment_norm": 3.02145888604, 
			 "electric_quadrupole_moment_norm": 11.7165677577, 
			 "total_energy": -744.237814332, 
			 "HOMO_LUMO_gap": 0.14521, 
			 "cosmo_polarized_energy": -12.78, 
			 "cosmo_cavitation_energy": 31.85, 
			 "cosmo_dispersion_energy": -23.03, 
			 "cosmo_repulsion_energy": 1.78, 
			 "cosmo_total_nonelectrostatic_energy": 10.59, 
			 "SMD_solvation_energy": 6.72 
		},
		"coords": [
			{
				"x": 0.3234414463,
				"y": -3.0243547199,
				"z": -3.3882412291,
				"element": "C" 
			},
			{
				"x": 0.2755291211,
				"y": -2.0620782531,
				"z": -2.3458191846,
				"element": "O" 
			},
			{
				"x": -0.9153134077,
				"y": -1.4542363577,
				"z": -2.0668764213,
				"element": "C" 
			},
			{
				"x": -2.098586691,
				"y": -1.731226744,
				"z": -2.7580314908,
				"element": "C" 
			},
			{
				"x": -3.2826197772,
				"y": -1.0722696697,
				"z": -2.4208533723,
				"element": "C" 
			},
			{
				"x": -3.2936904894,
				"y": -0.1325848244,
				"z": -1.3918452259,
				"element": "C" 
			},
			{
				"x": -2.1171660824,
				"y": 0.1454698406,
				"z": -0.7018767729,
				"element": "C" 
			},
			{
				"x": -0.9084437978,
				"y": -0.5006406853,
				"z": -1.0167865153,
				"element": "C" 
			},
			{
				"x": 0.2969960963,
				"y": -0.1756481628,
				"z": -0.2658171017,
				"element": "C" 
			},
			{
				"x": 1.6138770003,
				"y": -0.5885598064,
				"z": -0.2897364417,
				"element": "C" 
			},
			{
				"x": 2.2854129696,
				"y": 0.1363132004,
				"z": 0.7263614969,
				"element": "C" 
			},
			{
				"x": 1.3493753213,
				"y": 0.9547797029,
				"z": 1.3203306498,
				"element": "C" 
			},
			{
				"x": 0.1400940624,
				"y": 0.7640083425,
				"z": 0.7159474874,
				"element": "O" 
			},
			{
				"x": 1.5149649227,
				"y": 1.8911437823,
				"z": 2.40325955,
				"element": "C" 
			},
			{
				"x": 0.6945322358,
				"y": 2.6831411126,
				"z": 3.0042888991,
				"element": "N" 
			},
			{
				"x": -0.6090195547,
				"y": 2.6125621569,
				"z": 2.4994839804,
				"element": "O" 
			},
			{
				"x": -0.3336709553,
				"y": -3.8780235797,
				"z": -3.1805118199,
				"element": "H" 
			},
			{
				"x": 1.3575829036,
				"y": -3.3695400996,
				"z": -3.4302926231,
				"element": "H" 
			},
			{
				"x": 0.0498617335,
				"y": -2.5856836748,
				"z": -4.3559185274,
				"element": "H" 
			},
			{
				"x": -2.105068849,
				"y": -2.4589415703,
				"z": -3.5601248694,
				"element": "H" 
			},
			{
				"x": -4.1922741165,
				"y": -1.3002404056,
				"z": -2.9687152187,
				"element": "H" 
			},
			{
				"x": -4.2114782498,
				"y": 0.3823149336,
				"z": -1.1259207666,
				"element": "H" 
			},
			{
				"x": -2.1124319959,
				"y": 0.8744501746,
				"z": 0.100565138,
				"element": "H" 
			},
			{
				"x": 2.0295140542,
				"y": -1.3212472363,
				"z": -0.9597190246,
				"element": "H" 
			},
			{
				"x": 3.3305248362,
				"y": 0.0704365632,
				"z": 0.9952205874,
				"element": "H" 
			},
			{
				"x": 2.5275087988,
				"y": 1.9486536172,
				"z": 2.7982104146,
				"element": "H" 
			},
			{
				"x": -1.0696515353,
				"y": 3.2556023627,
				"z": 3.0547184018,
				"element": "H" 
			}
		],
		 "valence_orbital": [ 
			{
				"type": "occ",
				"energy": -0.27891,
				"method": "rhf"
			},
			{
				"type": "occ",
				"energy": -0.26658,
				"method": "rhf"
			},
			{
				"type": "occ",
				"energy": -0.25383,
				"method": "rhf"
			},
			{
				"type": "occ",
				"energy": -0.22973,
				"method": "rhf"
			},
			{
				"type": "occ",
				"energy": -0.19093,
				"method": "rhf"
			},
			{
				"type": "unocc",
				"energy": -0.04572,
				"method": "rhf"
			},
			{
				"type": "unocc",
				"energy": 0.00182,
				"method": "rhf"
			},
			{
				"type": "unocc",
				"energy": 0.01105,
				"method": "rhf"
			},
			{
				"type": "unocc",
				"energy": 0.0781,
				"method": "rhf"
			},
			{
				"type": "unocc",
				"energy": 0.07852,
				"method": "rhf"
			}
		],
		"cosmo_sigma_profile": { 
			"-0.025": 0.0,
			"-0.024": 0.0,
			"-0.023": 0.0,
			"-0.022": 0.0,
			"-0.021": 0.0,
			"-0.02": 0.0,
			"-0.019": 0.0,
			"-0.018": 0.0110605869513,
			"-0.017": 0.905852872258,
			"-0.016": 0.972088820843,
			"-0.015": 0.786569290762,
			"-0.014": 1.06187135084,
			"-0.013": 0.866258279254,
			"-0.012": 0.469912789042,
			"-0.011": 0.302970719453,
			"-0.01": 0.66075326032,
			"-0.009": 0.967075601703,
			"-0.008": 4.46573088872,
			"-0.007": 6.67167741387,
			"-0.006": 13.7937829756,
			"-0.005": 19.3952378627,
			"-0.004": 19.2772046589,
			"-0.003": 19.2534358866,
			"-0.002": 13.026794226,
			"-0.001": 11.7819997395,
			"0.0": 11.0376532272,
			"0.001": 17.0267420229,
			"0.002": 23.836841658,
			"0.003": 22.8676018665,
			"0.004": 21.8521937503,
			"0.005": 16.7062329854,
			"0.006": 8.02672073071,
			"0.007": 4.51044681796,
			"0.008": 3.63564300667,
			"0.009": 2.50482832916,
			"0.01": 3.2098028412,
			"0.011": 2.79670992939,
			"0.012": 1.10246305344,
			"0.013": 0.741657815308,
			"0.014": 0.568879969658,
			"0.015": 0.0,
			"0.016": 0.0,
			"0.017": 0.0,
			"0.018": 0.0,
			"0.019": 0.0,
			"0.02": 0.0,
			"0.021": 0.0,
			"0.022": 0.0,
			"0.023": 0.0,
			"0.024": 0.0,
			"0.025": 0.0
		}
	}
}
