{
	 "smiles": "CC1=CC=C(C=C1)C1=NN=C(CCC(O)=O)O1", 
	 "Tm": 443.15, 
	 "num_atms": 29, 
	 "gaussian": { 
		 "optdone": 1, 
		 "sigma_profile": "yes", 
		 "theory": "DFT", 
		 "functional": "B3LYP", 
		 "basiset": "6-31G**", 
		 "properties": { 
			 "R2extent": 7097.5205, 
			 "electric_dipole_moment_norm": 8.48830919618, 
			 "electric_quadrupole_moment_norm": 30.0335257897, 
			 "total_energy": -799.69012945, 
			 "HOMO_LUMO_gap": 0.18536, 
			 "cosmo_polarized_energy": -17.64, 
			 "cosmo_cavitation_energy": 33.83, 
			 "cosmo_dispersion_energy": -24.92, 
			 "cosmo_repulsion_energy": 1.93, 
			 "cosmo_total_nonelectrostatic_energy": 10.84, 
			 "SMD_solvation_energy": 5.75 
		},
		"coords": [
			{
				"x": -2.6676879696,
				"y": -0.0362993446,
				"z": 4.7759130374,
				"element": "C" 
			},
			{
				"x": -1.8312156384,
				"y": -0.210857933,
				"z": 3.5320073409,
				"element": "C" 
			},
			{
				"x": -2.0665065999,
				"y": -1.2634685252,
				"z": 2.6388229351,
				"element": "C" 
			},
			{
				"x": -1.292819527,
				"y": -1.4244174787,
				"z": 1.4914594376,
				"element": "C" 
			},
			{
				"x": -0.2562806482,
				"y": -0.5230481128,
				"z": 1.2139960262,
				"element": "C" 
			},
			{
				"x": -0.0089855449,
				"y": 0.5384948101,
				"z": 2.1018385868,
				"element": "C" 
			},
			{
				"x": -0.7887909243,
				"y": 0.6855623592,
				"z": 3.2408396732,
				"element": "C" 
			},
			{
				"x": 0.5701956543,
				"y": -0.6620919175,
				"z": 0.0237555192,
				"element": "C" 
			},
			{
				"x": 1.5607754682,
				"y": 0.0830524477,
				"z": -0.3718050287,
				"element": "N" 
			},
			{
				"x": 2.0112884034,
				"y": -0.4765334453,
				"z": -1.5614366623,
				"element": "N" 
			},
			{
				"x": 1.2720586124,
				"y": -1.5126300372,
				"z": -1.8103263067,
				"element": "C" 
			},
			{
				"x": 1.35168614,
				"y": -2.4505217234,
				"z": -2.9659088147,
				"element": "C" 
			},
			{
				"x": 2.6745358443,
				"y": -2.3496211498,
				"z": -3.7566465071,
				"element": "C" 
			},
			{
				"x": 2.8044389284,
				"y": -1.1330567256,
				"z": -4.6864307052,
				"element": "C" 
			},
			{
				"x": 2.9222469707,
				"y": 0.0696046106,
				"z": -4.1055912366,
				"element": "O" 
			},
			{
				"x": 2.8191714537,
				"y": -1.2574344782,
				"z": -5.8902535145,
				"element": "O" 
			},
			{
				"x": 0.3333086884,
				"y": -1.6980700119,
				"z": -0.8475279956,
				"element": "O" 
			},
			{
				"x": -2.0507890346,
				"y": -0.1000212737,
				"z": 5.679661244,
				"element": "H" 
			},
			{
				"x": -3.156214908,
				"y": 0.944569191,
				"z": 4.7901218329,
				"element": "H" 
			},
			{
				"x": -3.4460628545,
				"y": -0.8003762011,
				"z": 4.8468028397,
				"element": "H" 
			},
			{
				"x": -2.8677717579,
				"y": -1.9683029831,
				"z": 2.8432783623,
				"element": "H" 
			},
			{
				"x": -1.4920804464,
				"y": -2.2461278684,
				"z": 0.8117004516,
				"element": "H" 
			},
			{
				"x": 0.7936353562,
				"y": 1.2348286254,
				"z": 1.8834064802,
				"element": "H" 
			},
			{
				"x": -0.5887472734,
				"y": 1.5105458861,
				"z": 3.9196969817,
				"element": "H" 
			},
			{
				"x": 1.2390799844,
				"y": -3.4690701893,
				"z": -2.5776778577,
				"element": "H" 
			},
			{
				"x": 0.49403852,
				"y": -2.282686958,
				"z": -3.6305286184,
				"element": "H" 
			},
			{
				"x": 3.5168502496,
				"y": -2.3651594598,
				"z": -3.0553929197,
				"element": "H" 
			},
			{
				"x": 2.7551186192,
				"y": -3.2244186667,
				"z": -4.4030403109,
				"element": "H" 
			},
			{
				"x": 2.8190242339,
				"y": 0.0138565535,
				"z": -3.125534271,
				"element": "H" 
			}
		],
		 "valence_orbital": [ 
			{
				"type": "occ",
				"energy": -0.30233,
				"method": "rhf"
			},
			{
				"type": "occ",
				"energy": -0.2916,
				"method": "rhf"
			},
			{
				"type": "occ",
				"energy": -0.27221,
				"method": "rhf"
			},
			{
				"type": "occ",
				"energy": -0.25157,
				"method": "rhf"
			},
			{
				"type": "occ",
				"energy": -0.24797,
				"method": "rhf"
			},
			{
				"type": "unocc",
				"energy": -0.06261,
				"method": "rhf"
			},
			{
				"type": "unocc",
				"energy": -0.02228,
				"method": "rhf"
			},
			{
				"type": "unocc",
				"energy": -0.00862,
				"method": "rhf"
			},
			{
				"type": "unocc",
				"energy": 0.02091,
				"method": "rhf"
			},
			{
				"type": "unocc",
				"energy": 0.04337,
				"method": "rhf"
			}
		],
		"cosmo_sigma_profile": { 
			"-0.025": 0.0,
			"-0.024": 0.0,
			"-0.023": 0.0,
			"-0.022": 0.0,
			"-0.021": 0.0,
			"-0.02": 0.0,
			"-0.019": 0.0,
			"-0.018": 0.0,
			"-0.017": 0.0,
			"-0.016": 0.0,
			"-0.015": 0.0,
			"-0.014": 0.0,
			"-0.013": 0.0,
			"-0.012": 0.0,
			"-0.011": 0.0,
			"-0.01": 0.0,
			"-0.009": 0.373759221108,
			"-0.008": 6.16991293635,
			"-0.007": 10.7414626795,
			"-0.006": 20.2447094686,
			"-0.005": 23.9504805624,
			"-0.004": 24.4814578097,
			"-0.003": 21.7787861778,
			"-0.002": 19.4780571137,
			"-0.001": 18.7274383501,
			"0.0": 19.7644715411,
			"0.001": 15.8444054476,
			"0.002": 13.3650034687,
			"0.003": 16.2454378513,
			"0.004": 12.5469362486,
			"0.005": 3.60397364064,
			"0.006": 4.75225680274,
			"0.007": 4.06773859945,
			"0.008": 4.0632616337,
			"0.009": 4.2042421824,
			"0.01": 4.05595853548,
			"0.011": 6.53679208302,
			"0.012": 8.12000050665,
			"0.013": 5.34544820702,
			"0.014": 1.50304755239,
			"0.015": 0.0,
			"0.016": 0.0,
			"0.017": 0.0,
			"0.018": 0.0,
			"0.019": 0.0,
			"0.02": 0.0,
			"0.021": 0.0,
			"0.022": 0.0,
			"0.023": 0.0,
			"0.024": 0.0,
			"0.025": 0.0
		}
	}
}
