{
	 "smiles": "CCSC(SCC)[C@H](OC(C)=O)[C@@H](OC(C)=O)[C@@H](OC(C)=O)[C@@H](COC(C)=O)OC(C)=O", 
	 "Tm": 385.15, 
	 "num_atms": 64, 
	 "gaussian": { 
		 "optdone": 1, 
		 "sigma_profile": "yes", 
		 "theory": "DFT", 
		 "functional": "B3LYP", 
		 "basiset": "6-31G**", 
		 "properties": { 
			 "R2extent": 15947.975, 
			 "electric_dipole_moment_norm": 2.72123868854, 
			 "electric_quadrupole_moment_norm": 10.4686142077, 
			 "total_energy": -2330.0991498, 
			 "HOMO_LUMO_gap": 0.22444, 
			 "cosmo_polarized_energy": -24.83, 
			 "cosmo_cavitation_energy": 68.72, 
			 "cosmo_dispersion_energy": -40.21, 
			 "cosmo_repulsion_energy": 3.1, 
			 "cosmo_total_nonelectrostatic_energy": 31.6, 
			 "SMD_solvation_energy": 15.06 
		},
		"coords": [
			{
				"x": 3.2421462295,
				"y": -1.8571909337,
				"z": 3.4225334971,
				"element": "C" 
			},
			{
				"x": 2.0469455679,
				"y": -1.8560723067,
				"z": 2.4687646245,
				"element": "C" 
			},
			{
				"x": 2.6411022506,
				"y": -1.6223242307,
				"z": 0.7352598606,
				"element": "S" 
			},
			{
				"x": 1.1630816335,
				"y": -2.1551351463,
				"z": -0.2433531894,
				"element": "C" 
			},
			{
				"x": 1.6261853667,
				"y": -2.3307326075,
				"z": -2.0139805407,
				"element": "S" 
			},
			{
				"x": 1.9469842287,
				"y": -4.1393042006,
				"z": -2.1152039371,
				"element": "C" 
			},
			{
				"x": 3.2553114284,
				"y": -4.6171528596,
				"z": -1.4881280871,
				"element": "C" 
			},
			{
				"x": -0.0636293094,
				"y": -1.2542537731,
				"z": 0.0075846339,
				"element": "C" 
			},
			{
				"x": -1.2148028081,
				"y": -1.8147440192,
				"z": -0.6503849122,
				"element": "O" 
			},
			{
				"x": -2.0749200669,
				"y": -2.5325343935,
				"z": 0.1203677567,
				"element": "C" 
			},
			{
				"x": -3.3105781771,
				"y": -2.9003571763,
				"z": -0.6548023124,
				"element": "C" 
			},
			{
				"x": -1.8698486851,
				"y": -2.7956795792,
				"z": 1.2883770161,
				"element": "O" 
			},
			{
				"x": 0.0740547909,
				"y": 0.2327622339,
				"z": -0.3360791154,
				"element": "C" 
			},
			{
				"x": 0.5819014081,
				"y": 0.4874396056,
				"z": -1.6605873085,
				"element": "O" 
			},
			{
				"x": -0.2178687425,
				"y": 0.5154689237,
				"z": -2.7666973431,
				"element": "C" 
			},
			{
				"x": 0.6140828842,
				"y": 0.8400130834,
				"z": -3.9802250887,
				"element": "C" 
			},
			{
				"x": -1.416597666,
				"y": 0.3565527301,
				"z": -2.7519513336,
				"element": "O" 
			},
			{
				"x": -1.1990650684,
				"y": 1.0344142237,
				"z": 0.0109813368,
				"element": "C" 
			},
			{
				"x": -1.3720664696,
				"y": 0.8593465006,
				"z": 1.4436344212,
				"element": "O" 
			},
			{
				"x": -2.5907037225,
				"y": 0.4250786118,
				"z": 1.8775664261,
				"element": "C" 
			},
			{
				"x": -2.5523308225,
				"y": 0.093398491,
				"z": 3.3458861246,
				"element": "C" 
			},
			{
				"x": -3.5565668245,
				"y": 0.2974660827,
				"z": 1.1568585285,
				"element": "O" 
			},
			{
				"x": -1.080778267,
				"y": 2.5188346348,
				"z": -0.3359803641,
				"element": "C" 
			},
			{
				"x": -2.2168381009,
				"y": 3.3506970111,
				"z": 0.2597203822,
				"element": "C" 
			},
			{
				"x": -2.3891154415,
				"y": 4.5701907997,
				"z": -0.4856011155,
				"element": "O" 
			},
			{
				"x": -1.7506644594,
				"y": 5.6828135665,
				"z": -0.0429578745,
				"element": "C" 
			},
			{
				"x": -1.951076722,
				"y": 6.8207287862,
				"z": -1.0122074878,
				"element": "C" 
			},
			{
				"x": -1.0943690853,
				"y": 5.7319389918,
				"z": 0.9748917784,
				"element": "O" 
			},
			{
				"x": 0.1833492725,
				"y": 3.0207872077,
				"z": 0.1490793835,
				"element": "O" 
			},
			{
				"x": 0.9307534042,
				"y": 3.7791141709,
				"z": -0.6955186034,
				"element": "C" 
			},
			{
				"x": 2.1430513805,
				"y": 4.3163328738,
				"z": 0.0187203614,
				"element": "C" 
			},
			{
				"x": 0.6298824406,
				"y": 4.0081996308,
				"z": -1.8478024111,
				"element": "O" 
			},
			{
				"x": 2.8966109619,
				"y": -1.9722336041,
				"z": 4.4551220885,
				"element": "H" 
			},
			{
				"x": 3.9288262106,
				"y": -2.6780236755,
				"z": 3.1970935843,
				"element": "H" 
			},
			{
				"x": 3.802368924,
				"y": -0.9189346272,
				"z": 3.3604229387,
				"element": "H" 
			},
			{
				"x": 1.3519931875,
				"y": -1.0537236902,
				"z": 2.7344438465,
				"element": "H" 
			},
			{
				"x": 1.5049444845,
				"y": -2.8059890154,
				"z": 2.5249324929,
				"element": "H" 
			},
			{
				"x": 0.8773566624,
				"y": -3.1526549168,
				"z": 0.1053817674,
				"element": "H" 
			},
			{
				"x": 1.0826680006,
				"y": -4.663843191,
				"z": -1.6938863356,
				"element": "H" 
			},
			{
				"x": 1.9413945423,
				"y": -4.3363115485,
				"z": -3.1924825433,
				"element": "H" 
			},
			{
				"x": 4.112914824,
				"y": -4.1145084391,
				"z": -1.9438743589,
				"element": "H" 
			},
			{
				"x": 3.3687873473,
				"y": -5.697559989,
				"z": -1.6371929395,
				"element": "H" 
			},
			{
				"x": 3.285209563,
				"y": -4.4143167323,
				"z": -0.414529336,
				"element": "H" 
			},
			{
				"x": -0.2535140655,
				"y": -1.297520453,
				"z": 1.0818468758,
				"element": "H" 
			},
			{
				"x": -3.7634891559,
				"y": -3.7927311134,
				"z": -0.2217895565,
				"element": "H" 
			},
			{
				"x": -4.0167801021,
				"y": -2.0677111948,
				"z": -0.5632882421,
				"element": "H" 
			},
			{
				"x": -3.0875919118,
				"y": -3.0432416338,
				"z": -1.7130916327,
				"element": "H" 
			},
			{
				"x": 0.8764910437,
				"y": 0.610956895,
				"z": 0.3008263209,
				"element": "H" 
			},
			{
				"x": -0.0029619231,
				"y": 0.7553535434,
				"z": -4.8742236149,
				"element": "H" 
			},
			{
				"x": 1.4761764904,
				"y": 0.1717559772,
				"z": -4.0423082931,
				"element": "H" 
			},
			{
				"x": 0.987063538,
				"y": 1.8647499536,
				"z": -3.8819216385,
				"element": "H" 
			},
			{
				"x": -2.0704861609,
				"y": 0.6303731856,
				"z": -0.4985932532,
				"element": "H" 
			},
			{
				"x": -2.2629781448,
				"y": -0.9594159582,
				"z": 3.4380911918,
				"element": "H" 
			},
			{
				"x": -1.822649237,
				"y": 0.7058474465,
				"z": 3.8779519976,
				"element": "H" 
			},
			{
				"x": -3.5484144266,
				"y": 0.2158684374,
				"z": 3.7723431864,
				"element": "H" 
			},
			{
				"x": -1.1074156083,
				"y": 2.6276645678,
				"z": -1.4212742617,
				"element": "H" 
			},
			{
				"x": -2.0125332618,
				"y": 3.5800313156,
				"z": 1.3070975144,
				"element": "H" 
			},
			{
				"x": -3.1617026656,
				"y": 2.811530359,
				"z": 0.165251684,
				"element": "H" 
			},
			{
				"x": -1.6562295773,
				"y": 7.7581458806,
				"z": -0.5411210866,
				"element": "H" 
			},
			{
				"x": -2.9882574744,
				"y": 6.8676564264,
				"z": -1.3515439716,
				"element": "H" 
			},
			{
				"x": -1.3213305549,
				"y": 6.6410723733,
				"z": -1.89005568,
				"element": "H" 
			},
			{
				"x": 2.6411639924,
				"y": 3.5271850048,
				"z": 0.5869872368,
				"element": "H" 
			},
			{
				"x": 1.8093447652,
				"y": 5.0801783366,
				"z": 0.7287129632,
				"element": "H" 
			},
			{
				"x": 2.8281078849,
				"y": 4.7586531462,
				"z": -0.7039940517,
				"element": "H" 
			}
		],
		 "valence_orbital": [ 
			{
				"type": "occ",
				"energy": -0.27455,
				"method": "rhf"
			},
			{
				"type": "occ",
				"energy": -0.27015,
				"method": "rhf"
			},
			{
				"type": "occ",
				"energy": -0.26744,
				"method": "rhf"
			},
			{
				"type": "occ",
				"energy": -0.23358,
				"method": "rhf"
			},
			{
				"type": "occ",
				"energy": -0.22678,
				"method": "rhf"
			},
			{
				"type": "unocc",
				"energy": -0.00234,
				"method": "rhf"
			},
			{
				"type": "unocc",
				"energy": 0.00166,
				"method": "rhf"
			},
			{
				"type": "unocc",
				"energy": 0.01018,
				"method": "rhf"
			},
			{
				"type": "unocc",
				"energy": 0.01066,
				"method": "rhf"
			},
			{
				"type": "unocc",
				"energy": 0.01273,
				"method": "rhf"
			}
		],
		"cosmo_sigma_profile": { 
			"-0.025": 0.0,
			"-0.024": 0.0,
			"-0.023": 0.0,
			"-0.022": 0.0,
			"-0.021": 0.0,
			"-0.02": 0.0,
			"-0.019": 0.0,
			"-0.018": 0.0,
			"-0.017": 0.0,
			"-0.016": 0.0,
			"-0.015": 0.0,
			"-0.014": 0.0,
			"-0.013": 0.0,
			"-0.012": 0.0,
			"-0.011": 0.0,
			"-0.01": 0.0,
			"-0.009": 0.0,
			"-0.008": 1.25436717875,
			"-0.007": 6.54459767443,
			"-0.006": 26.056540057,
			"-0.005": 38.6506071513,
			"-0.004": 52.6662465884,
			"-0.003": 65.5025741655,
			"-0.002": 73.4326099945,
			"-0.001": 49.0721534795,
			"0.0": 39.5108754927,
			"0.001": 30.6591883831,
			"0.002": 21.0849483019,
			"0.003": 17.6738817221,
			"0.004": 15.7531689039,
			"0.005": 16.1751328236,
			"0.006": 17.2989288959,
			"0.007": 17.2005826515,
			"0.008": 12.0553007976,
			"0.009": 11.0462866364,
			"0.01": 11.0731521109,
			"0.011": 10.2327953449,
			"0.012": 7.26407548672,
			"0.013": 0.996607812336,
			"0.014": 0.0,
			"0.015": 0.0,
			"0.016": 0.0,
			"0.017": 0.0,
			"0.018": 0.0,
			"0.019": 0.0,
			"0.02": 0.0,
			"0.021": 0.0,
			"0.022": 0.0,
			"0.023": 0.0,
			"0.024": 0.0,
			"0.025": 0.0
		}
	}
}
