{
	 "smiles": "NC1CCN(CC(N)=O)CC1", 
	 "Tm": 348.15, 
	 "num_atms": 26, 
	 "gaussian": { 
		 "optdone": 1, 
		 "sigma_profile": "yes", 
		 "theory": "DFT", 
		 "functional": "B3LYP", 
		 "basiset": "6-31G**", 
		 "properties": { 
			 "R2extent": 2476.4396, 
			 "electric_dipole_moment_norm": 2.90664909819, 
			 "electric_quadrupole_moment_norm": 18.9508713348, 
			 "total_energy": -515.261137851, 
			 "HOMO_LUMO_gap": 0.23207, 
			 "cosmo_polarized_energy": -18.11, 
			 "cosmo_cavitation_energy": 27.1, 
			 "cosmo_dispersion_energy": -19.98, 
			 "cosmo_repulsion_energy": 1.65, 
			 "cosmo_total_nonelectrostatic_energy": 8.77, 
			 "SMD_solvation_energy": 2.32 
		},
		"coords": [
			{
				"x": 0.5469479063,
				"y": -2.2931728367,
				"z": 2.3037539645,
				"element": "N" 
			},
			{
				"x": -0.0572168158,
				"y": -1.3707515226,
				"z": 1.330724572,
				"element": "C" 
			},
			{
				"x": 0.9101283011,
				"y": -1.1296183829,
				"z": 0.1689416695,
				"element": "C" 
			},
			{
				"x": 0.2711035509,
				"y": -0.2210135822,
				"z": -0.9006332161,
				"element": "C" 
			},
			{
				"x": -0.7446886571,
				"y": 0.666220475,
				"z": -0.313395332,
				"element": "N" 
			},
			{
				"x": -1.1558543662,
				"y": 1.7131886818,
				"z": -1.2144390508,
				"element": "C" 
			},
			{
				"x": -1.9300293451,
				"y": 1.1945335527,
				"z": -2.4389304657,
				"element": "C" 
			},
			{
				"x": -2.119604512,
				"y": 2.1471705564,
				"z": -3.405271003,
				"element": "N" 
			},
			{
				"x": -2.3733571826,
				"y": 0.0630518053,
				"z": -2.5428701267,
				"element": "O" 
			},
			{
				"x": -0.3527722341,
				"y": 1.1467982153,
				"z": 1.0103455566,
				"element": "C" 
			},
			{
				"x": -0.3577702377,
				"y": -0.0228767098,
				"z": 2.0183030736,
				"element": "C" 
			},
			{
				"x": -0.0866045681,
				"y": -2.4149780248,
				"z": 3.0921996616,
				"element": "H" 
			},
			{
				"x": 0.6417556306,
				"y": -3.2154039754,
				"z": 1.8816780607,
				"element": "H" 
			},
			{
				"x": -1.0000069415,
				"y": -1.754275768,
				"z": 0.907812614,
				"element": "H" 
			},
			{
				"x": 1.8244262792,
				"y": -0.6821975059,
				"z": 0.576514427,
				"element": "H" 
			},
			{
				"x": 1.2081755671,
				"y": -2.0794786591,
				"z": -0.2906139516,
				"element": "H" 
			},
			{
				"x": -0.2252819601,
				"y": -0.8192520041,
				"z": -1.6688393067,
				"element": "H" 
			},
			{
				"x": 1.0672227381,
				"y": 0.3663550609,
				"z": -1.4015483692,
				"element": "H" 
			},
			{
				"x": -1.8312848708,
				"y": 2.395156555,
				"z": -0.6814598699,
				"element": "H" 
			},
			{
				"x": -0.3077997941,
				"y": 2.33648262,
				"z": -1.5759804848,
				"element": "H" 
			},
			{
				"x": -2.6016164602,
				"y": 1.8732660453,
				"z": -4.2476147232,
				"element": "H" 
			},
			{
				"x": -1.6602113778,
				"y": 3.0430325459,
				"z": -3.3786558483,
				"element": "H" 
			},
			{
				"x": 0.6426192265,
				"y": 1.6336220123,
				"z": 0.993109039,
				"element": "H" 
			},
			{
				"x": -1.0643059193,
				"y": 1.9172923506,
				"z": 1.3258479575,
				"element": "H" 
			},
			{
				"x": -1.3281171689,
				"y": -0.0787703672,
				"z": 2.5252977712,
				"element": "H" 
			},
			{
				"x": 0.4053432117,
				"y": 0.1484188626,
				"z": 2.7864233811,
				"element": "H" 
			}
		],
		 "valence_orbital": [ 
			{
				"type": "occ",
				"energy": -0.30418,
				"method": "rhf"
			},
			{
				"type": "occ",
				"energy": -0.26585,
				"method": "rhf"
			},
			{
				"type": "occ",
				"energy": -0.24479,
				"method": "rhf"
			},
			{
				"type": "occ",
				"energy": -0.2293,
				"method": "rhf"
			},
			{
				"type": "occ",
				"energy": -0.2022,
				"method": "rhf"
			},
			{
				"type": "unocc",
				"energy": 0.02987,
				"method": "rhf"
			},
			{
				"type": "unocc",
				"energy": 0.07333,
				"method": "rhf"
			},
			{
				"type": "unocc",
				"energy": 0.08296,
				"method": "rhf"
			},
			{
				"type": "unocc",
				"energy": 0.09187,
				"method": "rhf"
			},
			{
				"type": "unocc",
				"energy": 0.11874,
				"method": "rhf"
			}
		],
		"cosmo_sigma_profile": { 
			"-0.025": 0.0,
			"-0.024": 0.0,
			"-0.023": 0.0,
			"-0.022": 0.0,
			"-0.021": 0.0,
			"-0.02": 0.0,
			"-0.019": 0.0,
			"-0.018": 0.0,
			"-0.017": 0.0,
			"-0.016": 0.0,
			"-0.015": 0.0801082070374,
			"-0.014": 1.20037871276,
			"-0.013": 2.48947230156,
			"-0.012": 2.69516804441,
			"-0.011": 2.12975072382,
			"-0.01": 2.5918724734,
			"-0.009": 4.48215435285,
			"-0.008": 5.03326852065,
			"-0.007": 5.07554910945,
			"-0.006": 6.99733157924,
			"-0.005": 9.50426997301,
			"-0.004": 9.30176355801,
			"-0.003": 13.3211950357,
			"-0.002": 23.9018243304,
			"-0.001": 33.9590087699,
			"0.0": 21.0391361363,
			"0.001": 9.73771719502,
			"0.002": 4.73033846943,
			"0.003": 5.90584015721,
			"0.004": 5.20166331619,
			"0.005": 2.56702652839,
			"0.006": 3.29640955498,
			"0.007": 2.84964623594,
			"0.008": 2.66107037887,
			"0.009": 2.60522151676,
			"0.01": 2.56583008159,
			"0.011": 2.98452319391,
			"0.012": 2.27515733747,
			"0.013": 3.37190996967,
			"0.014": 5.41993998373,
			"0.015": 3.50887754881,
			"0.016": 1.29899280233,
			"0.017": 1.35010376766,
			"0.018": 1.22855031577,
			"0.019": 0.376435769265,
			"0.02": 0.483653727483,
			"0.021": 0.0,
			"0.022": 0.0,
			"0.023": 0.0,
			"0.024": 0.0,
			"0.025": 0.0
		}
	}
}
