{
	 "smiles": "CC1=CC=C(C=C1)C(O)=O", 
	 "Tm": 454.15, 
	 "num_atms": 18, 
	 "gaussian": { 
		 "optdone": 1, 
		 "sigma_profile": "yes", 
		 "theory": "DFT", 
		 "functional": "B3LYP", 
		 "basiset": "6-31G**", 
		 "properties": { 
			 "R2extent": 2000.0446, 
			 "electric_dipole_moment_norm": 5.2241562936, 
			 "electric_quadrupole_moment_norm": 13.5230472405, 
			 "total_energy": -460.136600684, 
			 "HOMO_LUMO_gap": 0.20903, 
			 "cosmo_polarized_energy": -13.37, 
			 "cosmo_cavitation_energy": 22.15, 
			 "cosmo_dispersion_energy": -16.43, 
			 "cosmo_repulsion_energy": 1.33, 
			 "cosmo_total_nonelectrostatic_energy": 7.05, 
			 "SMD_solvation_energy": 5.07 
		},
		"coords": [
			{
				"x": -1.1007863876,
				"y": -2.1141996249,
				"z": 2.0375018778,
				"element": "C" 
			},
			{
				"x": -0.4290924035,
				"y": -1.4539182931,
				"z": 0.858159325,
				"element": "C" 
			},
			{
				"x": -1.1629500489,
				"y": -0.6908452781,
				"z": -0.0587388027,
				"element": "C" 
			},
			{
				"x": -0.5454926033,
				"y": -0.1065520173,
				"z": -1.1636538418,
				"element": "C" 
			},
			{
				"x": 0.829672938,
				"y": -0.2693908753,
				"z": -1.377204885,
				"element": "C" 
			},
			{
				"x": 1.5747192856,
				"y": -1.0105866636,
				"z": -0.4489569704,
				"element": "C" 
			},
			{
				"x": 0.9513839689,
				"y": -1.5984774694,
				"z": 0.6451819885,
				"element": "C" 
			},
			{
				"x": 1.5621246565,
				"y": 0.3425742313,
				"z": -2.531147458,
				"element": "C" 
			},
			{
				"x": 0.8134126713,
				"y": 0.7085350762,
				"z": -3.6080828338,
				"element": "O" 
			},
			{
				"x": 2.7583327209,
				"y": 0.5169279925,
				"z": -2.5438327941,
				"element": "O" 
			},
			{
				"x": -1.2534076892,
				"y": -3.1847844893,
				"z": 1.8530808936,
				"element": "H" 
			},
			{
				"x": -0.4922921534,
				"y": -2.0272207173,
				"z": 2.9431629794,
				"element": "H" 
			},
			{
				"x": -2.0800613593,
				"y": -1.672640224,
				"z": 2.2412634084,
				"element": "H" 
			},
			{
				"x": -2.228194174,
				"y": -0.5441871631,
				"z": 0.0984533534,
				"element": "H" 
			},
			{
				"x": -1.1441195316,
				"y": 0.5122276994,
				"z": -1.828590394,
				"element": "H" 
			},
			{
				"x": 2.6432182524,
				"y": -1.1101008546,
				"z": -0.6074490817,
				"element": "H" 
			},
			{
				"x": 1.5422455891,
				"y": -2.1759802236,
				"z": 1.3516803426,
				"element": "H" 
			},
			{
				"x": -0.084713732,
				"y": 0.3607188942,
				"z": -3.5215271072,
				"element": "H" 
			}
		],
		 "valence_orbital": [ 
			{
				"type": "occ",
				"energy": -0.35411,
				"method": "rhf"
			},
			{
				"type": "occ",
				"energy": -0.31239,
				"method": "rhf"
			},
			{
				"type": "occ",
				"energy": -0.27235,
				"method": "rhf"
			},
			{
				"type": "occ",
				"energy": -0.26807,
				"method": "rhf"
			},
			{
				"type": "occ",
				"energy": -0.25658,
				"method": "rhf"
			},
			{
				"type": "unocc",
				"energy": -0.04755,
				"method": "rhf"
			},
			{
				"type": "unocc",
				"energy": -0.01963,
				"method": "rhf"
			},
			{
				"type": "unocc",
				"energy": 0.04868,
				"method": "rhf"
			},
			{
				"type": "unocc",
				"energy": 0.06428,
				"method": "rhf"
			},
			{
				"type": "unocc",
				"energy": 0.0936,
				"method": "rhf"
			}
		],
		"cosmo_sigma_profile": { 
			"-0.025": 0.0,
			"-0.024": 0.0,
			"-0.023": 0.0,
			"-0.022": 0.0,
			"-0.021": 0.0,
			"-0.02": 0.0,
			"-0.019": 0.0710496406098,
			"-0.018": 0.802857156328,
			"-0.017": 0.884495313289,
			"-0.016": 1.03339606983,
			"-0.015": 0.324164927526,
			"-0.014": 1.4181037224,
			"-0.013": 0.87869597063,
			"-0.012": 1.05401111254,
			"-0.011": 1.48127758275,
			"-0.01": 1.0016272841,
			"-0.009": 1.10200320938,
			"-0.008": 1.62635877813,
			"-0.007": 2.38531783398,
			"-0.006": 6.51583138645,
			"-0.005": 12.9302933968,
			"-0.004": 14.3515798369,
			"-0.003": 13.0995020631,
			"-0.002": 13.6504391902,
			"-0.001": 15.4052863604,
			"0.0": 13.6463767673,
			"0.001": 8.43902592413,
			"0.002": 9.81263863159,
			"0.003": 12.3641635526,
			"0.004": 11.9933043373,
			"0.005": 1.90372447158,
			"0.006": 2.68864004953,
			"0.007": 2.34574457666,
			"0.008": 3.07832760952,
			"0.009": 2.82105994972,
			"0.01": 4.14350170394,
			"0.011": 5.55453875702,
			"0.012": 5.34265274723,
			"0.013": 2.14548044993,
			"0.014": 0.186570051486,
			"0.015": 0.0,
			"0.016": 0.0,
			"0.017": 0.0,
			"0.018": 0.0,
			"0.019": 0.0,
			"0.02": 0.0,
			"0.021": 0.0,
			"0.022": 0.0,
			"0.023": 0.0,
			"0.024": 0.0,
			"0.025": 0.0
		}
	}
}
