{
	 "smiles": "OC(=O)C1CC(=O)NC(=O)C1", 
	 "Tm": 478.15, 
	 "num_atms": 18, 
	 "gaussian": { 
		 "optdone": 1, 
		 "sigma_profile": "yes", 
		 "theory": "DFT", 
		 "functional": "B3LYP", 
		 "basiset": "6-31G**", 
		 "properties": { 
			 "R2extent": 2307.0354, 
			 "electric_dipole_moment_norm": 2.56048856861, 
			 "electric_quadrupole_moment_norm": 16.8087556223, 
			 "total_energy": -588.541032255, 
			 "HOMO_LUMO_gap": 0.22992, 
			 "cosmo_polarized_energy": -24.16, 
			 "cosmo_cavitation_energy": 22.66, 
			 "cosmo_dispersion_energy": -16.55, 
			 "cosmo_repulsion_energy": 1.35, 
			 "cosmo_total_nonelectrostatic_energy": 7.46, 
			 "SMD_solvation_energy": 6.37 
		},
		"coords": [
			{
				"x": -0.9640767081,
				"y": -4.2503153578,
				"z": -0.9659965729,
				"element": "O" 
			},
			{
				"x": -1.0926045258,
				"y": -3.2202706647,
				"z": -0.092520349,
				"element": "C" 
			},
			{
				"x": -1.431265057,
				"y": -3.4248598107,
				"z": 1.0458130429,
				"element": "O" 
			},
			{
				"x": -0.7268069345,
				"y": -1.8360283143,
				"z": -0.6351099954,
				"element": "C" 
			},
			{
				"x": 0.8075961515,
				"y": -1.6641654501,
				"z": -0.6101117364,
				"element": "C" 
			},
			{
				"x": 1.2538463047,
				"y": -0.2678638555,
				"z": -1.0130527159,
				"element": "C" 
			},
			{
				"x": 2.3299978742,
				"y": -0.0331532426,
				"z": -1.5257719264,
				"element": "O" 
			},
			{
				"x": 0.3504189062,
				"y": 0.7538031122,
				"z": -0.7325979442,
				"element": "N" 
			},
			{
				"x": -0.9267084469,
				"y": 0.6609618876,
				"z": -0.1688527928,
				"element": "C" 
			},
			{
				"x": -1.5924584041,
				"y": 1.6603867699,
				"z": 0.0115494605,
				"element": "O" 
			},
			{
				"x": -1.3881950173,
				"y": -0.7357215909,
				"z": 0.2005539317,
				"element": "C" 
			},
			{
				"x": -0.7142916795,
				"y": -3.9284111387,
				"z": -1.8438764492,
				"element": "H" 
			},
			{
				"x": -1.0717428564,
				"y": -1.7579351922,
				"z": -1.6760185418,
				"element": "H" 
			},
			{
				"x": 1.3246354198,
				"y": -2.3679515158,
				"z": -1.2664953372,
				"element": "H" 
			},
			{
				"x": 1.1737717799,
				"y": -1.8482556492,
				"z": 0.4087760537,
				"element": "H" 
			},
			{
				"x": 0.6548424594,
				"y": 1.6915602375,
				"z": -0.9755380861,
				"element": "H" 
			},
			{
				"x": -1.161618111,
				"y": -0.9102021534,
				"z": 1.2594441186,
				"element": "H" 
			},
			{
				"x": -2.4764411549,
				"y": -0.751478071,
				"z": 0.1125058399,
				"element": "H" 
			}
		],
		 "valence_orbital": [ 
			{
				"type": "occ",
				"energy": -0.33714,
				"method": "rhf"
			},
			{
				"type": "occ",
				"energy": -0.30527,
				"method": "rhf"
			},
			{
				"type": "occ",
				"energy": -0.29986,
				"method": "rhf"
			},
			{
				"type": "occ",
				"energy": -0.28771,
				"method": "rhf"
			},
			{
				"type": "occ",
				"energy": -0.27304,
				"method": "rhf"
			},
			{
				"type": "unocc",
				"energy": -0.04312,
				"method": "rhf"
			},
			{
				"type": "unocc",
				"energy": -0.01262,
				"method": "rhf"
			},
			{
				"type": "unocc",
				"energy": 0.0182,
				"method": "rhf"
			},
			{
				"type": "unocc",
				"energy": 0.02685,
				"method": "rhf"
			},
			{
				"type": "unocc",
				"energy": 0.08266,
				"method": "rhf"
			}
		],
		"cosmo_sigma_profile": { 
			"-0.025": 0.0,
			"-0.024": 0.0,
			"-0.023": 0.0,
			"-0.022": 0.0,
			"-0.021": 0.0,
			"-0.02": 0.220100587962,
			"-0.019": 1.06058060421,
			"-0.018": 1.07877013373,
			"-0.017": 1.39790677447,
			"-0.016": 1.6152817564,
			"-0.015": 1.70111426194,
			"-0.014": 2.07068245702,
			"-0.013": 2.04161858438,
			"-0.012": 2.40163285756,
			"-0.011": 2.05019829438,
			"-0.01": 2.77499492782,
			"-0.009": 6.29733304777,
			"-0.008": 10.2295041799,
			"-0.007": 12.9607509189,
			"-0.006": 9.66858657915,
			"-0.005": 7.59494499023,
			"-0.004": 7.89978395065,
			"-0.003": 7.12511175476,
			"-0.002": 7.97823989435,
			"-0.001": 5.32689301001,
			"0.0": 4.30924768674,
			"0.001": 4.5932195129,
			"0.002": 4.74653339541,
			"0.003": 4.26743728605,
			"0.004": 3.40294611905,
			"0.005": 4.56244965386,
			"0.006": 4.71991800166,
			"0.007": 4.846053493,
			"0.008": 5.32985386601,
			"0.009": 7.07363681759,
			"0.01": 9.66283780456,
			"0.011": 12.9470151697,
			"0.012": 12.286175282,
			"0.013": 2.42734330878,
			"0.014": 0.0,
			"0.015": 0.0,
			"0.016": 0.0,
			"0.017": 0.0,
			"0.018": 0.0,
			"0.019": 0.0,
			"0.02": 0.0,
			"0.021": 0.0,
			"0.022": 0.0,
			"0.023": 0.0,
			"0.024": 0.0,
			"0.025": 0.0
		}
	}
}
