{
	 "smiles": "CC1=C(C(O)=O)C(=O)OC2=C1C=C(Br)C=C2", 
	 "Tm": 453.15, 
	 "num_atms": 23, 
	 "gaussian": { 
		 "optdone": 1, 
		 "sigma_profile": "yes", 
		 "theory": "DFT", 
		 "functional": "B3LYP", 
		 "basiset": "6-31G**", 
		 "properties": { 
			 "R2extent": 6153.6627, 
			 "electric_dipole_moment_norm": 5.7521317657, 
			 "electric_quadrupole_moment_norm": 15.9728488912, 
			 "total_energy": -3295.71321376, 
			 "HOMO_LUMO_gap": 0.15463, 
			 "cosmo_polarized_energy": -14.49, 
			 "cosmo_cavitation_energy": 29.67, 
			 "cosmo_dispersion_energy": -22.85, 
			 "cosmo_repulsion_energy": 1.73, 
			 "cosmo_total_nonelectrostatic_energy": 8.55, 
			 "SMD_solvation_energy": 6.15 
		},
		"coords": [
			{
				"x": -1.3657220078,
				"y": 0.4854540101,
				"z": -1.625494872,
				"element": "C" 
			},
			{
				"x": -0.2171346945,
				"y": 0.9454148717,
				"z": -0.7682619515,
				"element": "C" 
			},
			{
				"x": 0.7194312805,
				"y": 1.8841711547,
				"z": -1.1514057709,
				"element": "C" 
			},
			{
				"x": 0.6892753916,
				"y": 2.5930395255,
				"z": -2.5064461372,
				"element": "C" 
			},
			{
				"x": 1.6835387708,
				"y": 3.4429262807,
				"z": -2.7530754432,
				"element": "O" 
			},
			{
				"x": -0.1838735216,
				"y": 2.4114580422,
				"z": -3.3320354755,
				"element": "O" 
			},
			{
				"x": 1.8126107546,
				"y": 2.2406436669,
				"z": -0.2345790689,
				"element": "C" 
			},
			{
				"x": 2.7106153666,
				"y": 3.041739634,
				"z": -0.4680162225,
				"element": "O" 
			},
			{
				"x": 1.8658134488,
				"y": 1.6454256883,
				"z": 0.9943447909,
				"element": "O" 
			},
			{
				"x": 0.9474760777,
				"y": 0.7259752784,
				"z": 1.3974630205,
				"element": "C" 
			},
			{
				"x": -0.1067532967,
				"y": 0.3409549037,
				"z": 0.5558395779,
				"element": "C" 
			},
			{
				"x": -1.0164783139,
				"y": -0.6195636143,
				"z": 1.0500554696,
				"element": "C" 
			},
			{
				"x": -0.8533434987,
				"y": -1.1476485316,
				"z": 2.3198487068,
				"element": "C" 
			},
			{
				"x": -2.0938768175,
				"y": -2.4426822828,
				"z": 2.9672069649,
				"element": "Br" 
			},
			{
				"x": 0.209126065,
				"y": -0.7480030972,
				"z": 3.1429991835,
				"element": "C" 
			},
			{
				"x": 1.1141191945,
				"y": 0.1945680239,
				"z": 2.6777396628,
				"element": "C" 
			},
			{
				"x": -1.3219286068,
				"y": -0.6030181951,
				"z": -1.744791956,
				"element": "H" 
			},
			{
				"x": -1.3531730889,
				"y": 0.9623795799,
				"z": -2.598673882,
				"element": "H" 
			},
			{
				"x": -2.3131256438,
				"y": 0.7154824595,
				"z": -1.1237684158,
				"element": "H" 
			},
			{
				"x": 2.2904790906,
				"y": 3.4822994385,
				"z": -1.9689429356,
				"element": "H" 
			},
			{
				"x": -1.8471985745,
				"y": -0.9472603564,
				"z": 0.4402070118,
				"element": "H" 
			},
			{
				"x": 0.3197894373,
				"y": -1.1732906905,
				"z": 4.133597278,
				"element": "H" 
			},
			{
				"x": 1.9485331869,
				"y": 0.52953421,
				"z": 3.2835904645,
				"element": "H" 
			}
		],
		 "valence_orbital": [ 
			{
				"type": "occ",
				"energy": -0.30814,
				"method": "rhf"
			},
			{
				"type": "occ",
				"energy": -0.30542,
				"method": "rhf"
			},
			{
				"type": "occ",
				"energy": -0.28094,
				"method": "rhf"
			},
			{
				"type": "occ",
				"energy": -0.26947,
				"method": "rhf"
			},
			{
				"type": "occ",
				"energy": -0.25975,
				"method": "rhf"
			},
			{
				"type": "unocc",
				"energy": -0.10512,
				"method": "rhf"
			},
			{
				"type": "unocc",
				"energy": -0.04686,
				"method": "rhf"
			},
			{
				"type": "unocc",
				"energy": -0.03028,
				"method": "rhf"
			},
			{
				"type": "unocc",
				"energy": -0.0168,
				"method": "rhf"
			},
			{
				"type": "unocc",
				"energy": 0.003,
				"method": "rhf"
			}
		],
		"cosmo_sigma_profile": { 
			"-0.025": 0.0,
			"-0.024": 0.0,
			"-0.023": 0.0,
			"-0.022": 0.0,
			"-0.021": 0.0,
			"-0.02": 0.0,
			"-0.019": 0.0,
			"-0.018": 0.0,
			"-0.017": 0.0,
			"-0.016": 0.0,
			"-0.015": 0.0,
			"-0.014": 0.0,
			"-0.013": 0.0,
			"-0.012": 0.0,
			"-0.011": 0.0,
			"-0.01": 0.0,
			"-0.009": 2.01929761229,
			"-0.008": 8.12243601653,
			"-0.007": 12.6622128037,
			"-0.006": 14.9517594895,
			"-0.005": 14.2345636312,
			"-0.004": 16.930302712,
			"-0.003": 16.7454152892,
			"-0.002": 19.5123313653,
			"-0.001": 21.6217793187,
			"0.0": 20.5414761671,
			"0.001": 16.2507746652,
			"0.002": 10.6953257283,
			"0.003": 12.4659751286,
			"0.004": 13.0251812778,
			"0.005": 5.34126918609,
			"0.006": 4.84274261793,
			"0.007": 3.81017941314,
			"0.008": 5.04918277306,
			"0.009": 5.41989276844,
			"0.01": 5.71103376098,
			"0.011": 6.703421906,
			"0.012": 3.77705919245,
			"0.013": 2.13305283315,
			"0.014": 0.333749184145,
			"0.015": 0.0,
			"0.016": 0.0,
			"0.017": 0.0,
			"0.018": 0.0,
			"0.019": 0.0,
			"0.02": 0.0,
			"0.021": 0.0,
			"0.022": 0.0,
			"0.023": 0.0,
			"0.024": 0.0,
			"0.025": 0.0
		}
	}
}
