{
	 "smiles": "CC(C)(C)OC(=O)NC1=CC(=CC=C1)C#N", 
	 "Tm": 401.15, 
	 "num_atms": 30, 
	 "gaussian": { 
		 "optdone": 1, 
		 "sigma_profile": "yes", 
		 "theory": "DFT", 
		 "functional": "B3LYP", 
		 "basiset": "6-31G**", 
		 "properties": { 
			 "R2extent": 5984.4047, 
			 "electric_dipole_moment_norm": 4.96371827766, 
			 "electric_quadrupole_moment_norm": 29.1812900625, 
			 "total_energy": -725.693151617, 
			 "HOMO_LUMO_gap": 0.18834, 
			 "cosmo_polarized_energy": -13.35, 
			 "cosmo_cavitation_energy": 34.57, 
			 "cosmo_dispersion_energy": -24.27, 
			 "cosmo_repulsion_energy": 1.89, 
			 "cosmo_total_nonelectrostatic_energy": 12.2, 
			 "SMD_solvation_energy": 8.32 
		},
		"coords": [
			{
				"x": 0.4839259491,
				"y": 0.7880815272,
				"z": 3.2695000445,
				"element": "C" 
			},
			{
				"x": 1.3217339593,
				"y": 1.366578793,
				"z": 2.1250057251,
				"element": "C" 
			},
			{
				"x": 2.7935660702,
				"y": 0.9506234115,
				"z": 2.2093425864,
				"element": "C" 
			},
			{
				"x": 1.1873772705,
				"y": 2.8899205184,
				"z": 2.065775188,
				"element": "C" 
			},
			{
				"x": 0.7553845409,
				"y": 0.9480413256,
				"z": 0.8269813681,
				"element": "O" 
			},
			{
				"x": 0.6888079402,
				"y": -0.3567410994,
				"z": 0.4830343431,
				"element": "C" 
			},
			{
				"x": 1.0604931643,
				"y": -1.3056636711,
				"z": 1.1500515147,
				"element": "O" 
			},
			{
				"x": 0.1193558179,
				"y": -0.4319343044,
				"z": -0.772499579,
				"element": "N" 
			},
			{
				"x": -0.1511824676,
				"y": -1.5761350726,
				"z": -1.5383697327,
				"element": "C" 
			},
			{
				"x": -0.739398439,
				"y": -1.3811853833,
				"z": -2.7952389997,
				"element": "C" 
			},
			{
				"x": -1.0373452318,
				"y": -2.4781590895,
				"z": -3.6138452539,
				"element": "C" 
			},
			{
				"x": -0.7507944018,
				"y": -3.7842236592,
				"z": -3.185925319,
				"element": "C" 
			},
			{
				"x": -0.1664576561,
				"y": -3.964081627,
				"z": -1.9352273993,
				"element": "C" 
			},
			{
				"x": 0.1365610497,
				"y": -2.8830611635,
				"z": -1.1078863621,
				"element": "C" 
			},
			{
				"x": -1.6396068235,
				"y": -2.2555317794,
				"z": -4.8970942927,
				"element": "C" 
			},
			{
				"x": -2.1278660299,
				"y": -2.0752116762,
				"z": -5.9374295223,
				"element": "N" 
			},
			{
				"x": 0.8362463328,
				"y": 1.1968391444,
				"z": 4.2219031722,
				"element": "H" 
			},
			{
				"x": 0.5616738105,
				"y": -0.2988460369,
				"z": 3.3045842669,
				"element": "H" 
			},
			{
				"x": -0.5679014019,
				"y": 1.0661282049,
				"z": 3.1498941653,
				"element": "H" 
			},
			{
				"x": 3.2380152843,
				"y": 1.3654702781,
				"z": 3.1196480049,
				"element": "H" 
			},
			{
				"x": 3.3498210705,
				"y": 1.342221117,
				"z": 1.3519076196,
				"element": "H" 
			},
			{
				"x": 2.8957513432,
				"y": -0.134584988,
				"z": 2.232754908,
				"element": "H" 
			},
			{
				"x": 1.7486961764,
				"y": 3.2955835777,
				"z": 1.2191363282,
				"element": "H" 
			},
			{
				"x": 0.1388982082,
				"y": 3.1823647662,
				"z": 1.9580190615,
				"element": "H" 
			},
			{
				"x": 1.5780729043,
				"y": 3.3353193891,
				"z": 2.9852480939,
				"element": "H" 
			},
			{
				"x": -0.1280782517,
				"y": 0.4594534576,
				"z": -1.1776436729,
				"element": "H" 
			},
			{
				"x": -0.9686058234,
				"y": -0.378565333,
				"z": -3.1439808616,
				"element": "H" 
			},
			{
				"x": -0.9843757967,
				"y": -4.6279161727,
				"z": -3.8252361218,
				"element": "H" 
			},
			{
				"x": 0.0611815758,
				"y": -4.968034589,
				"z": -1.5901901581,
				"element": "H" 
			},
			{
				"x": 0.5902498551,
				"y": -3.0321498657,
				"z": -0.1383191154,
				"element": "H" 
			}
		],
		 "valence_orbital": [ 
			{
				"type": "occ",
				"energy": -0.31905,
				"method": "rhf"
			},
			{
				"type": "occ",
				"energy": -0.30529,
				"method": "rhf"
			},
			{
				"type": "occ",
				"energy": -0.28201,
				"method": "rhf"
			},
			{
				"type": "occ",
				"energy": -0.26643,
				"method": "rhf"
			},
			{
				"type": "occ",
				"energy": -0.23687,
				"method": "rhf"
			},
			{
				"type": "unocc",
				"energy": -0.04853,
				"method": "rhf"
			},
			{
				"type": "unocc",
				"energy": -0.02182,
				"method": "rhf"
			},
			{
				"type": "unocc",
				"energy": 0.03827,
				"method": "rhf"
			},
			{
				"type": "unocc",
				"energy": 0.04045,
				"method": "rhf"
			},
			{
				"type": "unocc",
				"energy": 0.06825,
				"method": "rhf"
			}
		],
		"cosmo_sigma_profile": { 
			"-0.025": 0.0,
			"-0.024": 0.0,
			"-0.023": 0.0,
			"-0.022": 0.0,
			"-0.021": 0.0,
			"-0.02": 0.0,
			"-0.019": 0.0,
			"-0.018": 0.0,
			"-0.017": 0.0,
			"-0.016": 0.322593180641,
			"-0.015": 1.2332829032,
			"-0.014": 1.33402838118,
			"-0.013": 0.992675103535,
			"-0.012": 1.01249996561,
			"-0.011": 1.59393726879,
			"-0.01": 1.06484796011,
			"-0.009": 1.66162652858,
			"-0.008": 2.74206555104,
			"-0.007": 5.76356748712,
			"-0.006": 7.2116737316,
			"-0.005": 9.38662281316,
			"-0.004": 19.3063747822,
			"-0.003": 21.2929136974,
			"-0.002": 23.3363420953,
			"-0.001": 30.4591286785,
			"0.0": 37.1806477724,
			"0.001": 28.0396862691,
			"0.002": 19.5395762333,
			"0.003": 13.8810480002,
			"0.004": 5.94397360558,
			"0.005": 6.41170593507,
			"0.006": 5.99425629917,
			"0.007": 4.75027985225,
			"0.008": 4.6383482627,
			"0.009": 5.24026370751,
			"0.01": 4.85366100239,
			"0.011": 4.7848504459,
			"0.012": 3.30214624947,
			"0.013": 1.52103930565,
			"0.014": 0.052078475316,
			"0.015": 0.0,
			"0.016": 0.0,
			"0.017": 0.0,
			"0.018": 0.0,
			"0.019": 0.0,
			"0.02": 0.0,
			"0.021": 0.0,
			"0.022": 0.0,
			"0.023": 0.0,
			"0.024": 0.0,
			"0.025": 0.0
		}
	}
}
