{
	 "smiles": "CCC(C(C)O)N1N=CN(C1=O)C1=CC=C(C=C1)N1CCN(CC1)C1=CC=C(OCC2COC(CN3C=NC=N3)(C2)C2=CC=C(F)C=C2F)C=C1", 
	 "Tm": 444.15, 
	 "num_atms": 93, 
	 "gaussian": { 
		 "optdone": 1, 
		 "sigma_profile": "yes", 
		 "theory": "DFT", 
		 "functional": "B3LYP", 
		 "basiset": "6-31G**", 
		 "properties": { 
			 "R2extent": 35817.6671, 
			 "electric_dipole_moment_norm": 4.47291534013, 
			 "electric_quadrupole_moment_norm": 29.9778091955, 
			 "total_energy": -2373.77967935, 
			 "HOMO_LUMO_gap": 0.16228, 
			 "cosmo_polarized_energy": -33.31, 
			 "cosmo_cavitation_energy": 90.02, 
			 "cosmo_dispersion_energy": -53.04, 
			 "cosmo_repulsion_energy": 3.72, 
			 "cosmo_total_nonelectrostatic_energy": 40.7, 
			 "SMD_solvation_energy": 11.79 
		},
		"coords": [
			{
				"x": 3.4899154988,
				"y": 1.4462584353,
				"z": -5.9791298858,
				"element": "C" 
			},
			{
				"x": 2.6249284528,
				"y": 0.2189645776,
				"z": -5.6757778285,
				"element": "C" 
			},
			{
				"x": 1.3798741314,
				"y": 0.5320921106,
				"z": -4.833938197,
				"element": "C" 
			},
			{
				"x": 0.4306541196,
				"y": -0.6736092657,
				"z": -4.6370946008,
				"element": "C" 
			},
			{
				"x": -0.2477150539,
				"y": -1.1025899361,
				"z": -5.9431221213,
				"element": "C" 
			},
			{
				"x": 1.1753344567,
				"y": -1.728828747,
				"z": -4.0542232644,
				"element": "O" 
			},
			{
				"x": 1.7623444566,
				"y": 1.1100167601,
				"z": -3.5418832617,
				"element": "N" 
			},
			{
				"x": 2.845791713,
				"y": 0.6666211033,
				"z": -2.8202214611,
				"element": "N" 
			},
			{
				"x": 2.8438856428,
				"y": 1.3952244173,
				"z": -1.7474831025,
				"element": "C" 
			},
			{
				"x": 1.8036954668,
				"y": 2.3041348951,
				"z": -1.716416288,
				"element": "N" 
			},
			{
				"x": 1.0631306565,
				"y": 2.1153621249,
				"z": -2.9041573709,
				"element": "C" 
			},
			{
				"x": 0.048405336,
				"y": 2.6942592614,
				"z": -3.2754337915,
				"element": "O" 
			},
			{
				"x": 1.5314805171,
				"y": 3.2421261774,
				"z": -0.6834719891,
				"element": "C" 
			},
			{
				"x": 2.573002063,
				"y": 3.7156024127,
				"z": 0.1224041621,
				"element": "C" 
			},
			{
				"x": 2.310221743,
				"y": 4.5547976808,
				"z": 1.1980028016,
				"element": "C" 
			},
			{
				"x": 0.9943222574,
				"y": 4.9511298894,
				"z": 1.5167842534,
				"element": "C" 
			},
			{
				"x": -0.0295209557,
				"y": 4.527576072,
				"z": 0.6461165205,
				"element": "C" 
			},
			{
				"x": 0.2294257276,
				"y": 3.6849327406,
				"z": -0.4315768506,
				"element": "C" 
			},
			{
				"x": 0.7565616518,
				"y": 5.7604010377,
				"z": 2.6376783933,
				"element": "N" 
			},
			{
				"x": -0.5691143172,
				"y": 6.2907378004,
				"z": 2.9142166193,
				"element": "C" 
			},
			{
				"x": -1.4633382031,
				"y": 5.2747829509,
				"z": 3.6923296809,
				"element": "C" 
			},
			{
				"x": -0.6373059655,
				"y": 4.3429150189,
				"z": 4.4716810854,
				"element": "N" 
			},
			{
				"x": 0.5388714805,
				"y": 5.0137763626,
				"z": 5.0013882146,
				"element": "C" 
			},
			{
				"x": 1.500804976,
				"y": 5.5224526537,
				"z": 3.8782799203,
				"element": "C" 
			},
			{
				"x": -0.5508566577,
				"y": 2.9996671272,
				"z": 4.0433292059,
				"element": "C" 
			},
			{
				"x": -1.7169396973,
				"y": 2.3216288985,
				"z": 3.6265289392,
				"element": "C" 
			},
			{
				"x": -1.6630339536,
				"y": 1.0337902177,
				"z": 3.1135930181,
				"element": "C" 
			},
			{
				"x": -0.442959024,
				"y": 0.3528993645,
				"z": 3.0269194855,
				"element": "C" 
			},
			{
				"x": -0.4708312271,
				"y": -0.8858836189,
				"z": 2.4309874263,
				"element": "O" 
			},
			{
				"x": 0.7420004812,
				"y": -1.3996196773,
				"z": 1.8926651792,
				"element": "C" 
			},
			{
				"x": 0.4226450538,
				"y": -2.3218062371,
				"z": 0.7162779883,
				"element": "C" 
			},
			{
				"x": -0.3741372443,
				"y": -1.6127395574,
				"z": -0.3961761209,
				"element": "C" 
			},
			{
				"x": -1.7305734565,
				"y": -2.082131067,
				"z": -0.3241774177,
				"element": "O" 
			},
			{
				"x": -1.8555106101,
				"y": -3.2612994876,
				"z": 0.4694052502,
				"element": "C" 
			},
			{
				"x": -2.346695422,
				"y": -4.4006745335,
				"z": -0.4772959543,
				"element": "C" 
			},
			{
				"x": -1.4995968369,
				"y": -4.5510674447,
				"z": -1.6476846388,
				"element": "N" 
			},
			{
				"x": -1.4606163946,
				"y": -3.7692321734,
				"z": -2.7447114954,
				"element": "C" 
			},
			{
				"x": -0.4450980973,
				"y": -4.1167349983,
				"z": -3.5233373568,
				"element": "N" 
			},
			{
				"x": 0.1235114913,
				"y": -5.1463748786,
				"z": -2.830405679,
				"element": "C" 
			},
			{
				"x": -0.4735294901,
				"y": -5.4472164906,
				"z": -1.688047891,
				"element": "N" 
			},
			{
				"x": -0.4492475428,
				"y": -3.5473959715,
				"z": 1.0717445686,
				"element": "C" 
			},
			{
				"x": -2.950070695,
				"y": -3.0472924296,
				"z": 1.516841968,
				"element": "C" 
			},
			{
				"x": -3.7487483326,
				"y": -1.8984174849,
				"z": 1.5228023299,
				"element": "C" 
			},
			{
				"x": -4.776502703,
				"y": -1.7230733152,
				"z": 2.4501100393,
				"element": "C" 
			},
			{
				"x": -5.0076242101,
				"y": -2.7234633128,
				"z": 3.3872591947,
				"element": "C" 
			},
			{
				"x": -5.9950998295,
				"y": -2.5694890669,
				"z": 4.2900937521,
				"element": "F" 
			},
			{
				"x": -4.2505408212,
				"y": -3.888755931,
				"z": 3.4200127043,
				"element": "C" 
			},
			{
				"x": -3.2422280372,
				"y": -4.0203562904,
				"z": 2.4745446838,
				"element": "C" 
			},
			{
				"x": -2.508730608,
				"y": -5.1637694144,
				"z": 2.4911711942,
				"element": "F" 
			},
			{
				"x": 0.7033142823,
				"y": 0.9627471117,
				"z": 3.5379180574,
				"element": "C" 
			},
			{
				"x": 0.6483863878,
				"y": 2.2704586384,
				"z": 4.0309741366,
				"element": "C" 
			},
			{
				"x": 2.9145935693,
				"y": 2.2278535579,
				"z": -6.4890444338,
				"element": "H" 
			},
			{
				"x": 3.9050902036,
				"y": 1.8763010374,
				"z": -5.0634142775,
				"element": "H" 
			},
			{
				"x": 4.3290440931,
				"y": 1.174524744,
				"z": -6.6277995512,
				"element": "H" 
			},
			{
				"x": 2.2853072129,
				"y": -0.2254144568,
				"z": -6.6172134488,
				"element": "H" 
			},
			{
				"x": 3.2083638029,
				"y": -0.5462641744,
				"z": -5.1582663869,
				"element": "H" 
			},
			{
				"x": 0.7928020204,
				"y": 1.3235452987,
				"z": -5.3142688752,
				"element": "H" 
			},
			{
				"x": -0.3574578724,
				"y": -0.3286498907,
				"z": -3.9448002531,
				"element": "H" 
			},
			{
				"x": -0.7982771699,
				"y": -0.2721933854,
				"z": -6.3985763868,
				"element": "H" 
			},
			{
				"x": 0.4822427976,
				"y": -1.479377107,
				"z": -6.6651635267,
				"element": "H" 
			},
			{
				"x": -0.9602259329,
				"y": -1.9102425544,
				"z": -5.7453168472,
				"element": "H" 
			},
			{
				"x": 0.6371538492,
				"y": -2.5425633864,
				"z": -4.0691201914,
				"element": "H" 
			},
			{
				"x": 3.5619507808,
				"y": 1.2928186662,
				"z": -0.9483688362,
				"element": "H" 
			},
			{
				"x": 3.6019026525,
				"y": 3.4503115933,
				"z": -0.1001438498,
				"element": "H" 
			},
			{
				"x": 3.144450502,
				"y": 4.9299517337,
				"z": 1.7806443233,
				"element": "H" 
			},
			{
				"x": -1.0580310955,
				"y": 4.8170951663,
				"z": 0.8256092325,
				"element": "H" 
			},
			{
				"x": -0.5770159144,
				"y": 3.3592197856,
				"z": -1.0762982048,
				"element": "H" 
			},
			{
				"x": -0.4346006984,
				"y": 7.200240096,
				"z": 3.5135346402,
				"element": "H" 
			},
			{
				"x": -1.0519503493,
				"y": 6.6044530215,
				"z": 1.9859984086,
				"element": "H" 
			},
			{
				"x": -2.1508876939,
				"y": 5.8248062725,
				"z": 4.3512677658,
				"element": "H" 
			},
			{
				"x": -2.0713327803,
				"y": 4.7018775862,
				"z": 2.992500753,
				"element": "H" 
			},
			{
				"x": 0.1859993527,
				"y": 5.8650509542,
				"z": 5.5968772406,
				"element": "H" 
			},
			{
				"x": 1.0690007243,
				"y": 4.3540984622,
				"z": 5.6928733099,
				"element": "H" 
			},
			{
				"x": 2.2753711628,
				"y": 4.7809344135,
				"z": 3.684556446,
				"element": "H" 
			},
			{
				"x": 2.0024949804,
				"y": 6.441840236,
				"z": 4.2148699436,
				"element": "H" 
			},
			{
				"x": -2.6809896439,
				"y": 2.8138433922,
				"z": 3.701551391,
				"element": "H" 
			},
			{
				"x": -2.5630961743,
				"y": 0.5357643244,
				"z": 2.7697438662,
				"element": "H" 
			},
			{
				"x": 1.3031276811,
				"y": -1.9444230154,
				"z": 2.6669111082,
				"element": "H" 
			},
			{
				"x": 1.3740107745,
				"y": -0.5739662654,
				"z": 1.5390035931,
				"element": "H" 
			},
			{
				"x": 1.3889380895,
				"y": -2.6551395041,
				"z": 0.3216016429,
				"element": "H" 
			},
			{
				"x": 0.0391587248,
				"y": -1.8332706873,
				"z": -1.3880901981,
				"element": "H" 
			},
			{
				"x": -0.3964492396,
				"y": -0.5264044547,
				"z": -0.2660323562,
				"element": "H" 
			},
			{
				"x": -3.3551725826,
				"y": -4.1584882683,
				"z": -0.821428003,
				"element": "H" 
			},
			{
				"x": -2.3692109044,
				"y": -5.3561343667,
				"z": 0.0469927829,
				"element": "H" 
			},
			{
				"x": -2.1626721919,
				"y": -2.96765843,
				"z": -2.9182739483,
				"element": "H" 
			},
			{
				"x": 0.9932271174,
				"y": -5.6852639178,
				"z": -3.1790423119,
				"element": "H" 
			},
			{
				"x": -0.0330778734,
				"y": -4.4532758684,
				"z": 0.625216048,
				"element": "H" 
			},
			{
				"x": -0.5072663118,
				"y": -3.7056897484,
				"z": 2.1489601797,
				"element": "H" 
			},
			{
				"x": -3.5401100899,
				"y": -1.1345385539,
				"z": 0.7835833732,
				"element": "H" 
			},
			{
				"x": -5.3935452097,
				"y": -0.8315822082,
				"z": 2.4537314039,
				"element": "H" 
			},
			{
				"x": -4.4370902352,
				"y": -4.6667518973,
				"z": 4.1500133614,
				"element": "H" 
			},
			{
				"x": 1.656419069,
				"y": 0.4453871979,
				"z": 3.5355837124,
				"element": "H" 
			},
			{
				"x": 1.5724681453,
				"y": 2.7202400903,
				"z": 4.374043154,
				"element": "H" 
			}
		],
		 "valence_orbital": [ 
			{
				"type": "occ",
				"energy": -0.24646,
				"method": "rhf"
			},
			{
				"type": "occ",
				"energy": -0.24314,
				"method": "rhf"
			},
			{
				"type": "occ",
				"energy": -0.21375,
				"method": "rhf"
			},
			{
				"type": "occ",
				"energy": -0.18981,
				"method": "rhf"
			},
			{
				"type": "occ",
				"energy": -0.18066,
				"method": "rhf"
			},
			{
				"type": "unocc",
				"energy": -0.01838,
				"method": "rhf"
			},
			{
				"type": "unocc",
				"energy": -0.01118,
				"method": "rhf"
			},
			{
				"type": "unocc",
				"energy": -0.00903,
				"method": "rhf"
			},
			{
				"type": "unocc",
				"energy": -0.00206,
				"method": "rhf"
			},
			{
				"type": "unocc",
				"energy": -0.00103,
				"method": "rhf"
			}
		],
		"cosmo_sigma_profile": { 
			"-0.025": 0.0,
			"-0.024": 0.0,
			"-0.023": 0.0,
			"-0.022": 0.0,
			"-0.021": 0.0,
			"-0.02": 0.0,
			"-0.019": 0.0,
			"-0.018": 0.0,
			"-0.017": 0.0,
			"-0.016": 0.0,
			"-0.015": 0.0,
			"-0.014": 0.0,
			"-0.013": 0.0,
			"-0.012": 0.0,
			"-0.011": 0.55539983213,
			"-0.01": 3.29645860723,
			"-0.009": 5.96986733614,
			"-0.008": 9.52832979263,
			"-0.007": 13.8346776148,
			"-0.006": 23.5252251279,
			"-0.005": 46.0160626467,
			"-0.004": 71.0283751792,
			"-0.003": 68.497076037,
			"-0.002": 64.9266869462,
			"-0.001": 59.1165252119,
			"0.0": 58.9577610827,
			"0.001": 56.3709975269,
			"0.002": 39.6360330901,
			"0.003": 34.6429185391,
			"0.004": 38.0308732091,
			"0.005": 31.4512569893,
			"0.006": 24.4553823597,
			"0.007": 13.7415433169,
			"0.008": 9.60772370399,
			"0.009": 8.62586739742,
			"0.01": 6.59067432709,
			"0.011": 5.6100824007,
			"0.012": 5.19304899001,
			"0.013": 5.99429730548,
			"0.014": 5.56777225669,
			"0.015": 1.02416951756,
			"0.016": 0.484774092376,
			"0.017": 0.0,
			"0.018": 0.0,
			"0.019": 0.0,
			"0.02": 0.0,
			"0.021": 0.0,
			"0.022": 0.0,
			"0.023": 0.0,
			"0.024": 0.0,
			"0.025": 0.0
		}
	}
}
