{
	 "smiles": "CC1=C(C(Cl)=NC(Cl)=N1)[N+]([O-])=O", 
	 "Tm": 326.15, 
	 "num_atms": 15, 
	 "gaussian": { 
		 "optdone": 1, 
		 "sigma_profile": "yes", 
		 "theory": "DFT", 
		 "functional": "B3LYP", 
		 "basiset": "6-31G**", 
		 "properties": { 
			 "R2extent": 2834.8197, 
			 "electric_dipole_moment_norm": 1.75510549256, 
			 "electric_quadrupole_moment_norm": 9.29440108183, 
			 "total_energy": -1427.30517503, 
			 "HOMO_LUMO_gap": 0.19138, 
			 "cosmo_polarized_energy": -8.11, 
			 "cosmo_cavitation_energy": 25.0, 
			 "cosmo_dispersion_energy": -18.03, 
			 "cosmo_repulsion_energy": 1.46, 
			 "cosmo_total_nonelectrostatic_energy": 8.43, 
			 "SMD_solvation_energy": 3.67 
		},
		"coords": [
			{
				"x": 0.7701342457,
				"y": 2.4005809715,
				"z": -0.7416051979,
				"element": "C" 
			},
			{
				"x": 0.3449472981,
				"y": 1.3176260228,
				"z": 0.2067134569,
				"element": "C" 
			},
			{
				"x": 0.5982242597,
				"y": -0.036055004,
				"z": -0.0496967712,
				"element": "C" 
			},
			{
				"x": 0.1696759818,
				"y": -0.9773312707,
				"z": 0.8831442086,
				"element": "C" 
			},
			{
				"x": 0.4510230785,
				"y": -2.6713397056,
				"z": 0.627986132,
				"element": "Cl" 
			},
			{
				"x": -0.4624971655,
				"y": -0.6188275898,
				"z": 1.9892122324,
				"element": "N" 
			},
			{
				"x": -0.6580755527,
				"y": 0.6865068969,
				"z": 2.146773323,
				"element": "C" 
			},
			{
				"x": -1.4892428076,
				"y": 1.161495527,
				"z": 3.600790306,
				"element": "Cl" 
			},
			{
				"x": -0.2962887722,
				"y": 1.6689785212,
				"z": 1.3305593198,
				"element": "N" 
			},
			{
				"x": 1.3005543908,
				"y": -0.4280830015,
				"z": -1.2796706471,
				"element": "N" 
			},
			{
				"x": 2.5239445996,
				"y": -0.4817248291,
				"z": -1.2215647322,
				"element": "O" 
			},
			{
				"x": 0.6048660079,
				"y": -0.643120706,
				"z": -2.2659344522,
				"element": "O" 
			},
			{
				"x": 1.8559932525,
				"y": 2.3817579892,
				"z": -0.8827468157,
				"element": "H" 
			},
			{
				"x": 0.4716683292,
				"y": 3.3692232496,
				"z": -0.3421879182,
				"element": "H" 
			},
			{
				"x": 0.3095728541,
				"y": 2.2522129286,
				"z": -1.7240724443,
				"element": "H" 
			}
		],
		 "valence_orbital": [ 
			{
				"type": "occ",
				"energy": -0.33685,
				"method": "rhf"
			},
			{
				"type": "occ",
				"energy": -0.33294,
				"method": "rhf"
			},
			{
				"type": "occ",
				"energy": -0.32895,
				"method": "rhf"
			},
			{
				"type": "occ",
				"energy": -0.30197,
				"method": "rhf"
			},
			{
				"type": "occ",
				"energy": -0.29292,
				"method": "rhf"
			},
			{
				"type": "unocc",
				"energy": -0.10154,
				"method": "rhf"
			},
			{
				"type": "unocc",
				"energy": -0.08288,
				"method": "rhf"
			},
			{
				"type": "unocc",
				"energy": -0.07524,
				"method": "rhf"
			},
			{
				"type": "unocc",
				"energy": -0.0073,
				"method": "rhf"
			},
			{
				"type": "unocc",
				"energy": 0.02341,
				"method": "rhf"
			}
		],
		"cosmo_sigma_profile": { 
			"-0.025": 0.0,
			"-0.024": 0.0,
			"-0.023": 0.0,
			"-0.022": 0.0,
			"-0.021": 0.0,
			"-0.02": 0.0,
			"-0.019": 0.0,
			"-0.018": 0.0,
			"-0.017": 0.0,
			"-0.016": 0.0,
			"-0.015": 0.0,
			"-0.014": 0.0,
			"-0.013": 0.0,
			"-0.012": 0.0,
			"-0.011": 0.0,
			"-0.01": 0.000324712243938,
			"-0.009": 0.702628322571,
			"-0.008": 1.8667651167,
			"-0.007": 8.08108246348,
			"-0.006": 13.8613556142,
			"-0.005": 15.401224915,
			"-0.004": 14.2586486143,
			"-0.003": 16.083839694,
			"-0.002": 15.9524685447,
			"-0.001": 12.2127236752,
			"0.0": 13.3428077834,
			"0.001": 15.8719240112,
			"0.002": 17.1076547133,
			"0.003": 13.4703775622,
			"0.004": 8.99176199847,
			"0.005": 9.06597270462,
			"0.006": 12.9488793733,
			"0.007": 8.18971996088,
			"0.008": 4.4873576161,
			"0.009": 1.91642928504,
			"0.01": 1.69198035889,
			"0.011": 0.650722121517,
			"0.012": 0.0538915036357,
			"0.013": 0.0,
			"0.014": 0.0,
			"0.015": 0.0,
			"0.016": 0.0,
			"0.017": 0.0,
			"0.018": 0.0,
			"0.019": 0.0,
			"0.02": 0.0,
			"0.021": 0.0,
			"0.022": 0.0,
			"0.023": 0.0,
			"0.024": 0.0,
			"0.025": 0.0
		}
	}
}
