{
	 "smiles": "CCCC(=O)C1=CC=C(N)C=C1", 
	 "Tm": 367.65, 
	 "num_atms": 25, 
	 "gaussian": { 
		 "optdone": 1, 
		 "sigma_profile": "yes", 
		 "theory": "DFT", 
		 "functional": "B3LYP", 
		 "basiset": "6-31G**", 
		 "properties": { 
			 "R2extent": 3409.9215, 
			 "electric_dipole_moment_norm": 4.70931969822, 
			 "electric_quadrupole_moment_norm": 17.7492693027, 
			 "total_energy": -518.891267565, 
			 "HOMO_LUMO_gap": 0.17407, 
			 "cosmo_polarized_energy": -13.78, 
			 "cosmo_cavitation_energy": 28.28, 
			 "cosmo_dispersion_energy": -20.4, 
			 "cosmo_repulsion_energy": 1.65, 
			 "cosmo_total_nonelectrostatic_energy": 9.53, 
			 "SMD_solvation_energy": 5.22 
		},
		"coords": [
			{
				"x": 2.2134645434,
				"y": -0.4314516002,
				"z": -3.3761358604,
				"element": "C" 
			},
			{
				"x": 1.9123285997,
				"y": -0.3665254922,
				"z": -1.875945223,
				"element": "C" 
			},
			{
				"x": 0.4007744544,
				"y": -0.2769169384,
				"z": -1.5776801066,
				"element": "C" 
			},
			{
				"x": 0.1160676416,
				"y": -0.2854699039,
				"z": -0.0783406922,
				"element": "C" 
			},
			{
				"x": -0.1284564869,
				"y": -1.3488231828,
				"z": 0.4818731873,
				"element": "O" 
			},
			{
				"x": 0.1819034834,
				"y": 0.9852388003,
				"z": 0.6954969042,
				"element": "C" 
			},
			{
				"x": 0.4483821588,
				"y": 2.2406152858,
				"z": 0.1226782227,
				"element": "C" 
			},
			{
				"x": 0.4976231732,
				"y": 3.3916896764,
				"z": 0.8984226762,
				"element": "C" 
			},
			{
				"x": 0.2790148413,
				"y": 3.3270764043,
				"z": 2.2877338533,
				"element": "C" 
			},
			{
				"x": 0.3735014877,
				"y": 4.4630854392,
				"z": 3.0741681692,
				"element": "N" 
			},
			{
				"x": 0.0114735768,
				"y": 2.0698920641,
				"z": 2.8692358472,
				"element": "C" 
			},
			{
				"x": -0.0331801319,
				"y": 0.9301456923,
				"z": 2.0854039707,
				"element": "C" 
			},
			{
				"x": 1.7358728964,
				"y": -1.3026576502,
				"z": -3.8379551774,
				"element": "H" 
			},
			{
				"x": 3.2902694384,
				"y": -0.5040534524,
				"z": -3.5608408751,
				"element": "H" 
			},
			{
				"x": 1.8457399518,
				"y": 0.4611628638,
				"z": -3.8953664869,
				"element": "H" 
			},
			{
				"x": 2.4275816502,
				"y": 0.4937025447,
				"z": -1.4309573304,
				"element": "H" 
			},
			{
				"x": 2.3117669996,
				"y": -1.2573415338,
				"z": -1.3767636724,
				"element": "H" 
			},
			{
				"x": -0.1039235189,
				"y": -1.1540326148,
				"z": -1.9939255554,
				"element": "H" 
			},
			{
				"x": -0.0215632916,
				"y": 0.6116950103,
				"z": -2.0611805592,
				"element": "H" 
			},
			{
				"x": 0.6194257631,
				"y": 2.3305177112,
				"z": -0.9452444016,
				"element": "H" 
			},
			{
				"x": 0.7082346708,
				"y": 4.3520315323,
				"z": 0.4343731686,
				"element": "H" 
			},
			{
				"x": -0.0760113301,
				"y": 4.4270238685,
				"z": 3.9773210757,
				"element": "H" 
			},
			{
				"x": 0.2631103395,
				"y": 5.3504562139,
				"z": 2.6058358036,
				"element": "H" 
			},
			{
				"x": -0.1558135791,
				"y": 2.0032593191,
				"z": 3.9416496162,
				"element": "H" 
			},
			{
				"x": -0.2396873317,
				"y": -0.0393200575,
				"z": 2.5268434454,
				"element": "H" 
			}
		],
		 "valence_orbital": [ 
			{
				"type": "occ",
				"energy": -0.32914,
				"method": "rhf"
			},
			{
				"type": "occ",
				"energy": -0.30555,
				"method": "rhf"
			},
			{
				"type": "occ",
				"energy": -0.25455,
				"method": "rhf"
			},
			{
				"type": "occ",
				"energy": -0.22978,
				"method": "rhf"
			},
			{
				"type": "occ",
				"energy": -0.21091,
				"method": "rhf"
			},
			{
				"type": "unocc",
				"energy": -0.03684,
				"method": "rhf"
			},
			{
				"type": "unocc",
				"energy": -0.00303,
				"method": "rhf"
			},
			{
				"type": "unocc",
				"energy": 0.05493,
				"method": "rhf"
			},
			{
				"type": "unocc",
				"energy": 0.07382,
				"method": "rhf"
			},
			{
				"type": "unocc",
				"energy": 0.08857,
				"method": "rhf"
			}
		],
		"cosmo_sigma_profile": { 
			"-0.025": 0.0,
			"-0.024": 0.0,
			"-0.023": 0.0,
			"-0.022": 0.0,
			"-0.021": 0.0,
			"-0.02": 0.0,
			"-0.019": 0.0,
			"-0.018": 0.0,
			"-0.017": 0.0,
			"-0.016": 0.0,
			"-0.015": 0.0,
			"-0.014": 0.155719607836,
			"-0.013": 1.90082116287,
			"-0.012": 3.41669437528,
			"-0.011": 2.67813102008,
			"-0.01": 2.9342974842,
			"-0.009": 3.94977232649,
			"-0.008": 2.47262994434,
			"-0.007": 3.5314483707,
			"-0.006": 7.08164561623,
			"-0.005": 7.73650612119,
			"-0.004": 10.5749132633,
			"-0.003": 18.3907070123,
			"-0.002": 22.4415219824,
			"-0.001": 22.6631830059,
			"0.0": 21.7702030488,
			"0.001": 18.1766999925,
			"0.002": 9.95780903918,
			"0.003": 9.60322786222,
			"0.004": 12.2265905855,
			"0.005": 14.6062906189,
			"0.006": 4.20479835808,
			"0.007": 2.41550929064,
			"0.008": 2.74003252027,
			"0.009": 1.85453561867,
			"0.01": 2.67864062692,
			"0.011": 2.11460711199,
			"0.012": 3.63929300979,
			"0.013": 4.41539193356,
			"0.014": 1.78671349836,
			"0.015": 0.31092836946,
			"0.016": 0.0,
			"0.017": 0.0,
			"0.018": 0.0,
			"0.019": 0.0,
			"0.02": 0.0,
			"0.021": 0.0,
			"0.022": 0.0,
			"0.023": 0.0,
			"0.024": 0.0,
			"0.025": 0.0
		}
	}
}
