{
	 "smiles": "OC(=O)C1(CC1)C1=CC=C(Br)C=C1", 
	 "Tm": 429.15, 
	 "num_atms": 22, 
	 "gaussian": { 
		 "optdone": 1, 
		 "sigma_profile": "yes", 
		 "theory": "DFT", 
		 "functional": "B3LYP", 
		 "basiset": "6-31G**", 
		 "properties": { 
			 "R2extent": 5504.3626, 
			 "electric_dipole_moment_norm": 3.42000755116, 
			 "electric_quadrupole_moment_norm": 14.992311128, 
			 "total_energy": -3108.32419547, 
			 "HOMO_LUMO_gap": 0.21302, 
			 "cosmo_polarized_energy": -12.51, 
			 "cosmo_cavitation_energy": 28.45, 
			 "cosmo_dispersion_energy": -20.54, 
			 "cosmo_repulsion_energy": 1.62, 
			 "cosmo_total_nonelectrostatic_energy": 9.53, 
			 "SMD_solvation_energy": 4.65 
		},
		"coords": [
			{
				"x": -0.6216869197,
				"y": 2.1304005512,
				"z": 0.6976413264,
				"element": "O" 
			},
			{
				"x": 0.6645061975,
				"y": 1.7116399667,
				"z": 0.7141640972,
				"element": "C" 
			},
			{
				"x": 1.5242294966,
				"y": 2.3928885156,
				"z": 1.2236332367,
				"element": "O" 
			},
			{
				"x": 0.9506623263,
				"y": 0.36974866,
				"z": 0.0703263061,
				"element": "C" 
			},
			{
				"x": 2.3290309051,
				"y": 0.280053001,
				"z": -0.5775392466,
				"element": "C" 
			},
			{
				"x": 2.0918180858,
				"y": -0.3980611637,
				"z": 0.7305209149,
				"element": "C" 
			},
			{
				"x": -0.2044327545,
				"y": -0.3842587764,
				"z": -0.5301855245,
				"element": "C" 
			},
			{
				"x": -0.5800362853,
				"y": -0.1810338964,
				"z": -1.8679658656,
				"element": "C" 
			},
			{
				"x": -1.669259523,
				"y": -0.8523608189,
				"z": -2.4233719717,
				"element": "C" 
			},
			{
				"x": -2.3976259289,
				"y": -1.7383310931,
				"z": -1.6302507534,
				"element": "C" 
			},
			{
				"x": -3.8869609162,
				"y": -2.6660862639,
				"z": -2.3816123508,
				"element": "Br" 
			},
			{
				"x": -2.0537868251,
				"y": -1.9572516201,
				"z": -0.2967417336,
				"element": "C" 
			},
			{
				"x": -0.9618580718,
				"y": -1.2781619378,
				"z": 0.243817729,
				"element": "C" 
			},
			{
				"x": -1.1755369756,
				"y": 1.4688513882,
				"z": 0.2539987695,
				"element": "H" 
			},
			{
				"x": 2.9169463801,
				"y": 1.1912362764,
				"z": -0.5737408325,
				"element": "H" 
			},
			{
				"x": 2.407886701,
				"y": -0.3331328223,
				"z": -1.4696428687,
				"element": "H" 
			},
			{
				"x": 2.5194646823,
				"y": 0.0551899843,
				"z": 1.6179928052,
				"element": "H" 
			},
			{
				"x": 2.0070603667,
				"y": -1.4800586865,
				"z": 0.742893783,
				"element": "H" 
			},
			{
				"x": -0.0069495068,
				"y": 0.5062647709,
				"z": -2.4840578696,
				"element": "H" 
			},
			{
				"x": -1.9473013912,
				"y": -0.6919489648,
				"z": -3.4587957356,
				"element": "H" 
			},
			{
				"x": -2.6284217013,
				"y": -2.6491567892,
				"z": 0.3084086773,
				"element": "H" 
			},
			{
				"x": -0.6877483417,
				"y": -1.4498302811,
				"z": 1.281007107,
				"element": "H" 
			}
		],
		 "valence_orbital": [ 
			{
				"type": "occ",
				"energy": -0.30032,
				"method": "rhf"
			},
			{
				"type": "occ",
				"energy": -0.29707,
				"method": "rhf"
			},
			{
				"type": "occ",
				"energy": -0.28238,
				"method": "rhf"
			},
			{
				"type": "occ",
				"energy": -0.27809,
				"method": "rhf"
			},
			{
				"type": "occ",
				"energy": -0.25126,
				"method": "rhf"
			},
			{
				"type": "unocc",
				"energy": -0.03824,
				"method": "rhf"
			},
			{
				"type": "unocc",
				"energy": -0.03467,
				"method": "rhf"
			},
			{
				"type": "unocc",
				"energy": -0.00548,
				"method": "rhf"
			},
			{
				"type": "unocc",
				"energy": 0.00944,
				"method": "rhf"
			},
			{
				"type": "unocc",
				"energy": 0.08668,
				"method": "rhf"
			}
		],
		"cosmo_sigma_profile": { 
			"-0.025": 0.0,
			"-0.024": 0.0,
			"-0.023": 0.0,
			"-0.022": 0.0,
			"-0.021": 0.0,
			"-0.02": 0.0,
			"-0.019": 0.0,
			"-0.018": 0.0,
			"-0.017": 0.0,
			"-0.016": 0.0,
			"-0.015": 0.212495542197,
			"-0.014": 0.545949794561,
			"-0.013": 0.487728898986,
			"-0.012": 0.398346489327,
			"-0.011": 0.768462797322,
			"-0.01": 1.28440575074,
			"-0.009": 0.823375074661,
			"-0.008": 1.68201582051,
			"-0.007": 7.27080564056,
			"-0.006": 13.9477345126,
			"-0.005": 16.025809223,
			"-0.004": 19.1041451952,
			"-0.003": 18.4880707625,
			"-0.002": 15.7735254961,
			"-0.001": 18.8725013608,
			"0.0": 15.138267263,
			"0.001": 16.2140227149,
			"0.002": 19.8276992463,
			"0.003": 16.512987669,
			"0.004": 14.1484758993,
			"0.005": 6.01245084009,
			"0.006": 2.13455232143,
			"0.007": 2.67915333395,
			"0.008": 2.56840297605,
			"0.009": 2.98119073978,
			"0.01": 4.04906880589,
			"0.011": 4.56513176717,
			"0.012": 4.80323175429,
			"0.013": 2.66719787156,
			"0.014": 0.281947269363,
			"0.015": 0.0,
			"0.016": 0.0,
			"0.017": 0.0,
			"0.018": 0.0,
			"0.019": 0.0,
			"0.02": 0.0,
			"0.021": 0.0,
			"0.022": 0.0,
			"0.023": 0.0,
			"0.024": 0.0,
			"0.025": 0.0
		}
	}
}
