{
	 "smiles": "NC(CC1=CC2=C(OCO2)C=C1)C(O)=O", 
	 "Tm": 523.15, 
	 "num_atms": 26, 
	 "gaussian": { 
		 "optdone": 1, 
		 "sigma_profile": "yes", 
		 "theory": "DFT", 
		 "functional": "B3LYP", 
		 "basiset": "6-31G**", 
		 "properties": { 
			 "R2extent": 3566.6297, 
			 "electric_dipole_moment_norm": 1.35842616656, 
			 "electric_quadrupole_moment_norm": 7.28320417536, 
			 "total_energy": -743.328005926, 
			 "HOMO_LUMO_gap": 0.19979, 
			 "cosmo_polarized_energy": -14.12, 
			 "cosmo_cavitation_energy": 29.73, 
			 "cosmo_dispersion_energy": -21.54, 
			 "cosmo_repulsion_energy": 1.7, 
			 "cosmo_total_nonelectrostatic_energy": 9.89, 
			 "SMD_solvation_energy": 5.43 
		},
		"coords": [
			{
				"x": -3.3590194483,
				"y": -1.5952343634,
				"z": 0.2613302448,
				"element": "N" 
			},
			{
				"x": -2.974747236,
				"y": -0.4775448058,
				"z": 1.1077366357,
				"element": "C" 
			},
			{
				"x": -1.5887399721,
				"y": -0.7277173544,
				"z": 1.7604510558,
				"element": "C" 
			},
			{
				"x": -0.4447420878,
				"y": -0.8421353559,
				"z": 0.7729808291,
				"element": "C" 
			},
			{
				"x": 0.2702692554,
				"y": 0.3157096426,
				"z": 0.3868120845,
				"element": "C" 
			},
			{
				"x": 1.2857408432,
				"y": 0.1614891449,
				"z": -0.5341167406,
				"element": "C" 
			},
			{
				"x": 1.6156549276,
				"y": -1.0802337824,
				"z": -1.0732170789,
				"element": "C" 
			},
			{
				"x": 2.6796360812,
				"y": -0.9437641445,
				"z": -1.9337071582,
				"element": "O" 
			},
			{
				"x": 2.9052534486,
				"y": 0.4656117791,
				"z": -2.0476320821,
				"element": "C" 
			},
			{
				"x": 2.1310918943,
				"y": 1.1222567572,
				"z": -1.0371379646,
				"element": "O" 
			},
			{
				"x": 0.9406373749,
				"y": -2.2280112905,
				"z": -0.7112120656,
				"element": "C" 
			},
			{
				"x": -0.1005248236,
				"y": -2.0844344267,
				"z": 0.2253174441,
				"element": "C" 
			},
			{
				"x": -3.0350961238,
				"y": 0.8720343174,
				"z": 0.3826799095,
				"element": "C" 
			},
			{
				"x": -2.6864440859,
				"y": 1.9088785792,
				"z": 1.1876320678,
				"element": "O" 
			},
			{
				"x": -3.3847319072,
				"y": 1.032318846,
				"z": -0.7655125324,
				"element": "O" 
			},
			{
				"x": -2.6930853139,
				"y": -1.6644093474,
				"z": -0.5061961773,
				"element": "H" 
			},
			{
				"x": -4.2526993481,
				"y": -1.3887289103,
				"z": -0.1789291616,
				"element": "H" 
			},
			{
				"x": -3.6990932887,
				"y": -0.40155142,
				"z": 1.9309651843,
				"element": "H" 
			},
			{
				"x": -1.3919848625,
				"y": 0.0798783995,
				"z": 2.4710075077,
				"element": "H" 
			},
			{
				"x": -1.6794763857,
				"y": -1.6569695547,
				"z": 2.3303726117,
				"element": "H" 
			},
			{
				"x": 0.0313068982,
				"y": 1.2885247474,
				"z": 0.8021062178,
				"element": "H" 
			},
			{
				"x": 3.9669765699,
				"y": 0.6788990227,
				"z": -1.8895020236,
				"element": "H" 
			},
			{
				"x": 2.5812454456,
				"y": 0.8108427887,
				"z": -3.0402273955,
				"element": "H" 
			},
			{
				"x": 1.2065636355,
				"y": -3.1942280091,
				"z": -1.1249159774,
				"element": "H" 
			},
			{
				"x": -0.6542390103,
				"y": -2.9655232709,
				"z": 0.5352455252,
				"element": "H" 
			},
			{
				"x": -2.7823524806,
				"y": 2.7125420114,
				"z": 0.6486690399,
				"element": "H" 
			}
		],
		 "valence_orbital": [ 
			{
				"type": "occ",
				"energy": -0.30825,
				"method": "rhf"
			},
			{
				"type": "occ",
				"energy": -0.27836,
				"method": "rhf"
			},
			{
				"type": "occ",
				"energy": -0.24784,
				"method": "rhf"
			},
			{
				"type": "occ",
				"energy": -0.24417,
				"method": "rhf"
			},
			{
				"type": "occ",
				"energy": -0.2059,
				"method": "rhf"
			},
			{
				"type": "unocc",
				"energy": -0.00611,
				"method": "rhf"
			},
			{
				"type": "unocc",
				"energy": 0.00722,
				"method": "rhf"
			},
			{
				"type": "unocc",
				"energy": 0.01073,
				"method": "rhf"
			},
			{
				"type": "unocc",
				"energy": 0.0706,
				"method": "rhf"
			},
			{
				"type": "unocc",
				"energy": 0.09554,
				"method": "rhf"
			}
		],
		"cosmo_sigma_profile": { 
			"-0.025": 0.0,
			"-0.024": 0.0,
			"-0.023": 0.0,
			"-0.022": 0.0,
			"-0.021": 0.0,
			"-0.02": 0.0,
			"-0.019": 0.0317594309176,
			"-0.018": 0.597402019465,
			"-0.017": 0.801992120143,
			"-0.016": 1.19012539264,
			"-0.015": 0.647364213313,
			"-0.014": 0.660771632331,
			"-0.013": 0.791683860666,
			"-0.012": 0.409910772024,
			"-0.011": 0.939196340616,
			"-0.01": 1.45960913716,
			"-0.009": 1.4369745902,
			"-0.008": 4.71991295924,
			"-0.007": 12.2146955196,
			"-0.006": 15.1782385107,
			"-0.005": 13.5325430244,
			"-0.004": 16.6646144286,
			"-0.003": 17.362552843,
			"-0.002": 15.4105768748,
			"-0.001": 13.3611009439,
			"0.0": 14.0205049409,
			"0.001": 10.6326337487,
			"0.002": 14.8647091555,
			"0.003": 17.3411660815,
			"0.004": 12.1885280183,
			"0.005": 7.65709067235,
			"0.006": 5.94414097531,
			"0.007": 5.90358591392,
			"0.008": 5.95421215596,
			"0.009": 6.30141836134,
			"0.01": 4.88263439147,
			"0.011": 4.12324734489,
			"0.012": 3.94425174729,
			"0.013": 0.48565698513,
			"0.014": 0.943475622219,
			"0.015": 0.734655179048,
			"0.016": 0.339199898439,
			"0.017": 0.615431342949,
			"0.018": 0.335287041047,
			"0.019": 0.215608812979,
			"0.02": 0.0,
			"0.021": 0.0,
			"0.022": 0.0,
			"0.023": 0.0,
			"0.024": 0.0,
			"0.025": 0.0
		}
	}
}
