{
	 "smiles": "CC1=C(C=C(C=C1)S(C)(=O)=O)S(Cl)(=O)=O", 
	 "Tm": 410.15, 
	 "num_atms": 24, 
	 "gaussian": { 
		 "optdone": 1, 
		 "sigma_profile": "yes", 
		 "theory": "DFT", 
		 "functional": "B3LYP", 
		 "basiset": "6-31G**", 
		 "properties": { 
			 "R2extent": 4938.5303, 
			 "electric_dipole_moment_norm": 5.62285162973, 
			 "electric_quadrupole_moment_norm": 19.9471955558, 
			 "total_energy": -1867.60697463, 
			 "HOMO_LUMO_gap": 0.19447, 
			 "cosmo_polarized_energy": -18.62, 
			 "cosmo_cavitation_energy": 32.53, 
			 "cosmo_dispersion_energy": -24.2, 
			 "cosmo_repulsion_energy": 1.8, 
			 "cosmo_total_nonelectrostatic_energy": 10.13, 
			 "SMD_solvation_energy": 4.15 
		},
		"coords": [
			{
				"x": -1.0701733638,
				"y": 0.4249302248,
				"z": -2.8622315055,
				"element": "C" 
			},
			{
				"x": -0.8087285449,
				"y": 0.1500148059,
				"z": -1.4029991838,
				"element": "C" 
			},
			{
				"x": 0.3319185368,
				"y": 0.5995699991,
				"z": -0.7041897296,
				"element": "C" 
			},
			{
				"x": 0.5559207232,
				"y": 0.3182047882,
				"z": 0.6440188766,
				"element": "C" 
			},
			{
				"x": -0.4027554968,
				"y": -0.4180485202,
				"z": 1.3343550489,
				"element": "C" 
			},
			{
				"x": -1.5432908537,
				"y": -0.8908575164,
				"z": 0.6874268448,
				"element": "C" 
			},
			{
				"x": -1.7312520877,
				"y": -0.6047120062,
				"z": -0.6632204103,
				"element": "C" 
			},
			{
				"x": -0.1411437535,
				"y": -0.7996978122,
				"z": 3.0798450252,
				"element": "S" 
			},
			{
				"x": -0.8069054235,
				"y": 0.6469830652,
				"z": 3.935384844,
				"element": "C" 
			},
			{
				"x": -1.000390804,
				"y": -1.9474319374,
				"z": 3.4045003168,
				"element": "O" 
			},
			{
				"x": 1.3085351985,
				"y": -0.8294236645,
				"z": 3.3143221382,
				"element": "O" 
			},
			{
				"x": 1.5937766231,
				"y": 1.6111273316,
				"z": -1.4927291855,
				"element": "S" 
			},
			{
				"x": 2.6086995927,
				"y": 0.1701740457,
				"z": -2.6930295349,
				"element": "Cl" 
			},
			{
				"x": 0.9769099033,
				"y": 2.5545252143,
				"z": -2.4171842143,
				"element": "O" 
			},
			{
				"x": 2.548554603,
				"y": 2.0463231921,
				"z": -0.4823579772,
				"element": "O" 
			},
			{
				"x": -1.9642539603,
				"y": -0.1093835246,
				"z": -3.1895474299,
				"element": "H" 
			},
			{
				"x": -0.2308913488,
				"y": 0.1071982846,
				"z": -3.4878771071,
				"element": "H" 
			},
			{
				"x": -1.2099003478,
				"y": 1.4938258438,
				"z": -3.042487941,
				"element": "H" 
			},
			{
				"x": 1.4623019072,
				"y": 0.6533414178,
				"z": 1.1355985987,
				"element": "H" 
			},
			{
				"x": -2.2597023997,
				"y": -1.4932995101,
				"z": 1.2361529803,
				"element": "H" 
			},
			{
				"x": -2.6157694952,
				"y": -0.9800888552,
				"z": -1.1688452991,
				"element": "H" 
			},
			{
				"x": -0.6701494867,
				"y": 0.4560912047,
				"z": 5.0019274265,
				"element": "H" 
			},
			{
				"x": -1.8674823055,
				"y": 0.7481476572,
				"z": 3.7010718679,
				"element": "H" 
			},
			{
				"x": -0.2467274159,
				"y": 1.533486272,
				"z": 3.6348955503,
				"element": "H" 
			}
		],
		 "valence_orbital": [ 
			{
				"type": "occ",
				"energy": -0.32319,
				"method": "rhf"
			},
			{
				"type": "occ",
				"energy": -0.31131,
				"method": "rhf"
			},
			{
				"type": "occ",
				"energy": -0.30652,
				"method": "rhf"
			},
			{
				"type": "occ",
				"energy": -0.30471,
				"method": "rhf"
			},
			{
				"type": "occ",
				"energy": -0.29454,
				"method": "rhf"
			},
			{
				"type": "unocc",
				"energy": -0.10007,
				"method": "rhf"
			},
			{
				"type": "unocc",
				"energy": -0.06786,
				"method": "rhf"
			},
			{
				"type": "unocc",
				"energy": -0.05764,
				"method": "rhf"
			},
			{
				"type": "unocc",
				"energy": 0.03273,
				"method": "rhf"
			},
			{
				"type": "unocc",
				"energy": 0.04623,
				"method": "rhf"
			}
		],
		"cosmo_sigma_profile": { 
			"-0.025": 0.0,
			"-0.024": 0.0,
			"-0.023": 0.0,
			"-0.022": 0.0,
			"-0.021": 0.0,
			"-0.02": 0.0,
			"-0.019": 0.0,
			"-0.018": 0.0,
			"-0.017": 0.0,
			"-0.016": 0.0,
			"-0.015": 0.0,
			"-0.014": 0.0,
			"-0.013": 0.0,
			"-0.012": 0.0,
			"-0.011": 0.000130923659868,
			"-0.01": 0.534015258537,
			"-0.009": 6.80403101107,
			"-0.008": 12.4183153784,
			"-0.007": 11.4720202159,
			"-0.006": 12.9472577738,
			"-0.005": 15.4220892742,
			"-0.004": 17.8628165418,
			"-0.003": 19.8336971773,
			"-0.002": 24.7373023147,
			"-0.001": 21.2770401807,
			"0.0": 16.8002815321,
			"0.001": 10.8322662837,
			"0.002": 11.8896142036,
			"0.003": 14.6529456337,
			"0.004": 7.78658694527,
			"0.005": 5.22071494363,
			"0.006": 4.81278734436,
			"0.007": 9.97053612073,
			"0.008": 11.419104474,
			"0.009": 4.956415003,
			"0.01": 6.46907678432,
			"0.011": 9.8486352206,
			"0.012": 4.70206245101,
			"0.013": 0.0,
			"0.014": 0.0,
			"0.015": 0.0,
			"0.016": 0.0,
			"0.017": 0.0,
			"0.018": 0.0,
			"0.019": 0.0,
			"0.02": 0.0,
			"0.021": 0.0,
			"0.022": 0.0,
			"0.023": 0.0,
			"0.024": 0.0,
			"0.025": 0.0
		}
	}
}
