{
	 "smiles": "OC(=O)C1=C2C=C(Br)C=CC2=NC(=C1)C1=CC=NC=C1", 
	 "Tm": 614.15, 
	 "num_atms": 29, 
	 "gaussian": { 
		 "optdone": 1, 
		 "sigma_profile": "yes", 
		 "theory": "DFT", 
		 "functional": "B3LYP", 
		 "basiset": "6-31G**", 
		 "properties": { 
			 "R2extent": 9765.9868, 
			 "electric_dipole_moment_norm": 3.5648822435, 
			 "electric_quadrupole_moment_norm": 16.8126094176, 
			 "total_energy": -3408.38570142, 
			 "HOMO_LUMO_gap": 0.15062, 
			 "cosmo_polarized_energy": -17.08, 
			 "cosmo_cavitation_energy": 36.72, 
			 "cosmo_dispersion_energy": -27.14, 
			 "cosmo_repulsion_energy": 2.04, 
			 "cosmo_total_nonelectrostatic_energy": 11.62, 
			 "SMD_solvation_energy": 3.42 
		},
		"coords": [
			{
				"x": -3.3996702265,
				"y": -1.647070941,
				"z": 0.0047747682,
				"element": "O" 
			},
			{
				"x": -2.3891747138,
				"y": -1.2752165068,
				"z": 0.8325577675,
				"element": "C" 
			},
			{
				"x": -2.4641418714,
				"y": -1.4839044756,
				"z": 2.0178742699,
				"element": "O" 
			},
			{
				"x": -1.1796652618,
				"y": -0.6470895098,
				"z": 0.1868073417,
				"element": "C" 
			},
			{
				"x": -1.2270065754,
				"y": 0.2715516386,
				"z": -0.9099021351,
				"element": "C" 
			},
			{
				"x": -2.4180734616,
				"y": 0.793522069,
				"z": -1.4854364713,
				"element": "C" 
			},
			{
				"x": -2.3389686768,
				"y": 1.6800222639,
				"z": -2.5365291214,
				"element": "C" 
			},
			{
				"x": -3.939882134,
				"y": 2.3804629709,
				"z": -3.2974997249,
				"element": "Br" 
			},
			{
				"x": -1.0974325526,
				"y": 2.0990479703,
				"z": -3.0679542728,
				"element": "C" 
			},
			{
				"x": 0.0657171541,
				"y": 1.6266231155,
				"z": -2.5090994207,
				"element": "C" 
			},
			{
				"x": 0.0394415748,
				"y": 0.7173590215,
				"z": -1.4166351476,
				"element": "C" 
			},
			{
				"x": 1.2296339241,
				"y": 0.3205723464,
				"z": -0.9001376178,
				"element": "N" 
			},
			{
				"x": 1.2462798127,
				"y": -0.4996830295,
				"z": 0.1407267588,
				"element": "C" 
			},
			{
				"x": 0.0430381564,
				"y": -0.992247298,
				"z": 0.7179410101,
				"element": "C" 
			},
			{
				"x": 2.5805374504,
				"y": -0.8816647003,
				"z": 0.6780446427,
				"element": "C" 
			},
			{
				"x": 2.7596157717,
				"y": -1.9210152256,
				"z": 1.6017227289,
				"element": "C" 
			},
			{
				"x": 4.0465039998,
				"y": -2.2127690198,
				"z": 2.0544705467,
				"element": "C" 
			},
			{
				"x": 5.1444224747,
				"y": -1.5570908533,
				"z": 1.661975796,
				"element": "N" 
			},
			{
				"x": 4.9680022687,
				"y": -0.5667381935,
				"z": 0.7756858769,
				"element": "C" 
			},
			{
				"x": 3.7298898022,
				"y": -0.1953254952,
				"z": 0.2590375648,
				"element": "C" 
			},
			{
				"x": -3.1379955018,
				"y": -1.5363106332,
				"z": -0.9211878364,
				"element": "H" 
			},
			{
				"x": -3.3884855978,
				"y": 0.5320627917,
				"z": -1.0811296338,
				"element": "H" 
			},
			{
				"x": -1.0760156117,
				"y": 2.7950724823,
				"z": -3.8983946934,
				"element": "H" 
			},
			{
				"x": 1.0370372944,
				"y": 1.9390383796,
				"z": -2.8772580836,
				"element": "H" 
			},
			{
				"x": 0.059624639,
				"y": -1.6449667221,
				"z": 1.5817495241,
				"element": "H" 
			},
			{
				"x": 1.9277434067,
				"y": -2.515068847,
				"z": 1.9637168911,
				"element": "H" 
			},
			{
				"x": 4.198260364,
				"y": -3.0190052301,
				"z": 2.769927873,
				"element": "H" 
			},
			{
				"x": 5.8676695304,
				"y": -0.0402172728,
				"z": 0.4622231492,
				"element": "H" 
			},
			{
				"x": 3.641094561,
				"y": 0.612048904,
				"z": -0.457772351,
				"element": "H" 
			}
		],
		 "valence_orbital": [ 
			{
				"type": "occ",
				"energy": -0.28395,
				"method": "rhf"
			},
			{
				"type": "occ",
				"energy": -0.2717,
				"method": "rhf"
			},
			{
				"type": "occ",
				"energy": -0.26846,
				"method": "rhf"
			},
			{
				"type": "occ",
				"energy": -0.26067,
				"method": "rhf"
			},
			{
				"type": "occ",
				"energy": -0.25038,
				"method": "rhf"
			},
			{
				"type": "unocc",
				"energy": -0.09976,
				"method": "rhf"
			},
			{
				"type": "unocc",
				"energy": -0.06458,
				"method": "rhf"
			},
			{
				"type": "unocc",
				"energy": -0.03427,
				"method": "rhf"
			},
			{
				"type": "unocc",
				"energy": -0.02034,
				"method": "rhf"
			},
			{
				"type": "unocc",
				"energy": -0.01581,
				"method": "rhf"
			}
		],
		"cosmo_sigma_profile": { 
			"-0.025": 0.0,
			"-0.024": 0.0,
			"-0.023": 0.0,
			"-0.022": 0.0,
			"-0.021": 0.0,
			"-0.02": 0.0,
			"-0.019": 0.178360682951,
			"-0.018": 0.856404124152,
			"-0.017": 1.2056564214,
			"-0.016": 0.276599714512,
			"-0.015": 1.10480639289,
			"-0.014": 1.03812254429,
			"-0.013": 0.890137613286,
			"-0.012": 1.12749644432,
			"-0.011": 1.25097357995,
			"-0.01": 1.86858773896,
			"-0.009": 2.65873692581,
			"-0.008": 5.21078261322,
			"-0.007": 10.5159242245,
			"-0.006": 15.9496883995,
			"-0.005": 15.7074420683,
			"-0.004": 14.8150662675,
			"-0.003": 15.5107231887,
			"-0.002": 20.0847052871,
			"-0.001": 24.9665332631,
			"0.0": 26.0694145788,
			"0.001": 31.7457300811,
			"0.002": 26.7231527557,
			"0.003": 17.8882729602,
			"0.004": 16.2372197562,
			"0.005": 6.30644392834,
			"0.006": 5.02510083622,
			"0.007": 4.96420905549,
			"0.008": 5.57607174237,
			"0.009": 6.59795775483,
			"0.01": 5.56230999086,
			"0.011": 6.43976287852,
			"0.012": 2.2770673335,
			"0.013": 1.20642925595,
			"0.014": 0.709957709296,
			"0.015": 0.975450265843,
			"0.016": 0.767854869465,
			"0.017": 0.179753427899,
			"0.018": 0.0,
			"0.019": 0.0,
			"0.02": 0.0,
			"0.021": 0.0,
			"0.022": 0.0,
			"0.023": 0.0,
			"0.024": 0.0,
			"0.025": 0.0
		}
	}
}
