{
	 "smiles": "CSC1=CC=C(C=C1)C(=O)C1=C(C)NC(=O)N1", 
	 "Tm": 529.15, 
	 "num_atms": 29, 
	 "gaussian": { 
		 "optdone": 1, 
		 "sigma_profile": "yes", 
		 "theory": "DFT", 
		 "functional": "B3LYP", 
		 "basiset": "6-31G**", 
		 "properties": { 
			 "R2extent": 6864.1334, 
			 "electric_dipole_moment_norm": 6.83926724803, 
			 "electric_quadrupole_moment_norm": 21.8061249265, 
			 "total_energy": -1122.67448608, 
			 "HOMO_LUMO_gap": 0.14305, 
			 "cosmo_polarized_energy": -21.46, 
			 "cosmo_cavitation_energy": 34.85, 
			 "cosmo_dispersion_energy": -25.59, 
			 "cosmo_repulsion_energy": 1.94, 
			 "cosmo_total_nonelectrostatic_energy": 11.21, 
			 "SMD_solvation_energy": 7.08 
		},
		"coords": [
			{
				"x": 2.3050013232,
				"y": 2.5094846504,
				"z": -2.8799119821,
				"element": "C" 
			},
			{
				"x": 2.1066395863,
				"y": 3.3920451423,
				"z": -1.2991710462,
				"element": "S" 
			},
			{
				"x": 1.2376389468,
				"y": 2.2312190318,
				"z": -0.2729831679,
				"element": "C" 
			},
			{
				"x": 0.8255772214,
				"y": 0.9571333774,
				"z": -0.6863211997,
				"element": "C" 
			},
			{
				"x": 0.1349633094,
				"y": 0.1245250037,
				"z": 0.1949013847,
				"element": "C" 
			},
			{
				"x": -0.1528089204,
				"y": 0.535813386,
				"z": 1.5021250624,
				"element": "C" 
			},
			{
				"x": 0.2955738104,
				"y": 1.8010015694,
				"z": 1.9207866901,
				"element": "C" 
			},
			{
				"x": 0.9642720869,
				"y": 2.6427884529,
				"z": 1.0464798499,
				"element": "C" 
			},
			{
				"x": -0.803503142,
				"y": -0.351947061,
				"z": 2.5072529387,
				"element": "C" 
			},
			{
				"x": -0.4768161558,
				"y": -0.2895648706,
				"z": 3.6964402176,
				"element": "O" 
			},
			{
				"x": -1.8208862752,
				"y": -1.3364727416,
				"z": 2.1209264778,
				"element": "C" 
			},
			{
				"x": -2.7199596298,
				"y": -1.4730200006,
				"z": 1.0873014163,
				"element": "C" 
			},
			{
				"x": -3.013302855,
				"y": -0.6616460535,
				"z": -0.1319393134,
				"element": "C" 
			},
			{
				"x": -3.5043867014,
				"y": -2.5692275112,
				"z": 1.397999539,
				"element": "N" 
			},
			{
				"x": -3.161430715,
				"y": -3.1388637037,
				"z": 2.6386425064,
				"element": "C" 
			},
			{
				"x": -3.6859942102,
				"y": -4.0951932648,
				"z": 3.1829009791,
				"element": "O" 
			},
			{
				"x": -2.1082134753,
				"y": -2.3500498298,
				"z": 3.044473923,
				"element": "N" 
			},
			{
				"x": 1.3393201599,
				"y": 2.2733808328,
				"z": -3.3328159079,
				"element": "H" 
			},
			{
				"x": 2.8417649214,
				"y": 3.1999209504,
				"z": -3.5335893269,
				"element": "H" 
			},
			{
				"x": 2.9004738166,
				"y": 1.6015257811,
				"z": -2.7601991733,
				"element": "H" 
			},
			{
				"x": 1.0448539836,
				"y": 0.5986561919,
				"z": -1.6852534239,
				"element": "H" 
			},
			{
				"x": -0.1522276814,
				"y": -0.8703364584,
				"z": -0.1307243764,
				"element": "H" 
			},
			{
				"x": 0.1086224739,
				"y": 2.105075759,
				"z": 2.9453880035,
				"element": "H" 
			},
			{
				"x": 1.2889427493,
				"y": 3.6237755777,
				"z": 1.3818612135,
				"element": "H" 
			},
			{
				"x": -4.084565022,
				"y": -0.4337733832,
				"z": -0.180573856,
				"element": "H" 
			},
			{
				"x": -2.4644541495,
				"y": 0.278609944,
				"z": -0.1244182153,
				"element": "H" 
			},
			{
				"x": -2.7513560495,
				"y": -1.2015346599,
				"z": -1.050374609,
				"element": "H" 
			},
			{
				"x": -4.2809564758,
				"y": -2.9162059675,
				"z": 0.8565298943,
				"element": "H" 
			},
			{
				"x": -1.656682931,
				"y": -2.406720145,
				"z": 3.9444655018,
				"element": "H" 
			}
		],
		 "valence_orbital": [ 
			{
				"type": "occ",
				"energy": -0.26958,
				"method": "rhf"
			},
			{
				"type": "occ",
				"energy": -0.26169,
				"method": "rhf"
			},
			{
				"type": "occ",
				"energy": -0.25526,
				"method": "rhf"
			},
			{
				"type": "occ",
				"energy": -0.22355,
				"method": "rhf"
			},
			{
				"type": "occ",
				"energy": -0.20613,
				"method": "rhf"
			},
			{
				"type": "unocc",
				"energy": -0.06308,
				"method": "rhf"
			},
			{
				"type": "unocc",
				"energy": -0.01839,
				"method": "rhf"
			},
			{
				"type": "unocc",
				"energy": -0.00381,
				"method": "rhf"
			},
			{
				"type": "unocc",
				"energy": 0.02472,
				"method": "rhf"
			},
			{
				"type": "unocc",
				"energy": 0.0618,
				"method": "rhf"
			}
		],
		"cosmo_sigma_profile": { 
			"-0.025": 0.0,
			"-0.024": 0.0,
			"-0.023": 0.0,
			"-0.022": 0.0,
			"-0.021": 0.0,
			"-0.02": 0.0,
			"-0.019": 0.0,
			"-0.018": 0.0,
			"-0.017": 0.14109633141,
			"-0.016": 1.19793076344,
			"-0.015": 1.64448296331,
			"-0.014": 1.49481604442,
			"-0.013": 1.34954789543,
			"-0.012": 1.69298937042,
			"-0.011": 2.08203977691,
			"-0.01": 1.84540849504,
			"-0.009": 1.87622320261,
			"-0.008": 2.09361927066,
			"-0.007": 7.19769631681,
			"-0.006": 20.4687711461,
			"-0.005": 21.9578431228,
			"-0.004": 19.986321666,
			"-0.003": 18.7623191788,
			"-0.002": 23.398230741,
			"-0.001": 20.9297769479,
			"0.0": 17.6683319649,
			"0.001": 15.680033321,
			"0.002": 14.0847880391,
			"0.003": 15.9670952245,
			"0.004": 15.6880620089,
			"0.005": 6.94727105898,
			"0.006": 6.01679646513,
			"0.007": 5.47774903796,
			"0.008": 5.10453668377,
			"0.009": 2.75218186652,
			"0.01": 2.51117730753,
			"0.011": 3.73510074276,
			"0.012": 5.03437478423,
			"0.013": 5.69062715635,
			"0.014": 7.53657811646,
			"0.015": 1.78346682589,
			"0.016": 0.0,
			"0.017": 0.0,
			"0.018": 0.0,
			"0.019": 0.0,
			"0.02": 0.0,
			"0.021": 0.0,
			"0.022": 0.0,
			"0.023": 0.0,
			"0.024": 0.0,
			"0.025": 0.0
		}
	}
}
