{
	 "smiles": "FC(F)(F)C1=CC(=CC(=C1)C(=O)CBr)C(F)(F)F", 
	 "Tm": 322.15, 
	 "num_atms": 23, 
	 "gaussian": { 
		 "optdone": 1, 
		 "sigma_profile": "yes", 
		 "theory": "DFT", 
		 "functional": "B3LYP", 
		 "basiset": "6-31G**", 
		 "properties": { 
			 "R2extent": 8358.201, 
			 "electric_dipole_moment_norm": 2.29841176903, 
			 "electric_quadrupole_moment_norm": 10.2804486531, 
			 "total_energy": -3629.75414232, 
			 "HOMO_LUMO_gap": 0.19121, 
			 "cosmo_polarized_energy": -12.17, 
			 "cosmo_cavitation_energy": 33.77, 
			 "cosmo_dispersion_energy": -23.41, 
			 "cosmo_repulsion_energy": 1.71, 
			 "cosmo_total_nonelectrostatic_energy": 12.07, 
			 "SMD_solvation_energy": 7.37 
		},
		"coords": [
			{
				"x": 2.2428764389,
				"y": 1.4419195094,
				"z": -2.4119444529,
				"element": "F" 
			},
			{
				"x": 1.6834164062,
				"y": 2.0736102278,
				"z": -1.3572923453,
				"element": "C" 
			},
			{
				"x": 1.0482545252,
				"y": 3.1638417111,
				"z": -1.8377311954,
				"element": "F" 
			},
			{
				"x": 2.6871734961,
				"y": 2.4956334206,
				"z": -0.56372432,
				"element": "F" 
			},
			{
				"x": 0.7337730676,
				"y": 1.1628859402,
				"z": -0.6177760981,
				"element": "C" 
			},
			{
				"x": -0.6019884798,
				"y": 1.0868826384,
				"z": -1.0201193524,
				"element": "C" 
			},
			{
				"x": -1.464748316,
				"y": 0.2033269262,
				"z": -0.3729644043,
				"element": "C" 
			},
			{
				"x": -1.0006673797,
				"y": -0.6019572848,
				"z": 0.6686219412,
				"element": "C" 
			},
			{
				"x": 0.3372884547,
				"y": -0.5250542019,
				"z": 1.0740742374,
				"element": "C" 
			},
			{
				"x": 1.2018659798,
				"y": 0.3659155621,
				"z": 0.4225909273,
				"element": "C" 
			},
			{
				"x": 0.9151424422,
				"y": -1.3570589629,
				"z": 2.188867279,
				"element": "C" 
			},
			{
				"x": 2.0813325363,
				"y": -1.2439819189,
				"z": 2.504867111,
				"element": "O" 
			},
			{
				"x": -0.0382293519,
				"y": -2.3305402411,
				"z": 2.8809766789,
				"element": "C" 
			},
			{
				"x": 0.8080249125,
				"y": -3.3602688932,
				"z": 4.3013000657,
				"element": "Br" 
			},
			{
				"x": -2.9219866161,
				"y": 0.1613346717,
				"z": -0.7598479868,
				"element": "C" 
			},
			{
				"x": -3.4619128272,
				"y": -1.0542260164,
				"z": -0.5250820822,
				"element": "F" 
			},
			{
				"x": -3.0983526757,
				"y": 0.4464570005,
				"z": -2.0658540182,
				"element": "F" 
			},
			{
				"x": -3.6429358072,
				"y": 1.0592228255,
				"z": -0.0536311423,
				"element": "F" 
			},
			{
				"x": -0.9651696808,
				"y": 1.7099419456,
				"z": -1.8291086662,
				"element": "H" 
			},
			{
				"x": -1.6937772771,
				"y": -1.2849970593,
				"z": 1.1456284961,
				"element": "H" 
			},
			{
				"x": 2.2338151419,
				"y": 0.4193884259,
				"z": 0.7501573001,
				"element": "H" 
			},
			{
				"x": -0.8736387505,
				"y": -1.7903368146,
				"z": 3.3315173609,
				"element": "H" 
			},
			{
				"x": -0.4402562397,
				"y": -3.0472394118,
				"z": 2.1616746663,
				"element": "H" 
			}
		],
		 "valence_orbital": [ 
			{
				"type": "occ",
				"energy": -0.30543,
				"method": "rhf"
			},
			{
				"type": "occ",
				"energy": -0.30091,
				"method": "rhf"
			},
			{
				"type": "occ",
				"energy": -0.28724,
				"method": "rhf"
			},
			{
				"type": "occ",
				"energy": -0.28501,
				"method": "rhf"
			},
			{
				"type": "occ",
				"energy": -0.28446,
				"method": "rhf"
			},
			{
				"type": "unocc",
				"energy": -0.09325,
				"method": "rhf"
			},
			{
				"type": "unocc",
				"energy": -0.06359,
				"method": "rhf"
			},
			{
				"type": "unocc",
				"energy": -0.0126,
				"method": "rhf"
			},
			{
				"type": "unocc",
				"energy": -0.00723,
				"method": "rhf"
			},
			{
				"type": "unocc",
				"energy": 0.07487,
				"method": "rhf"
			}
		],
		"cosmo_sigma_profile": { 
			"-0.025": 0.0,
			"-0.024": 0.0,
			"-0.023": 0.0,
			"-0.022": 0.0,
			"-0.021": 0.0,
			"-0.02": 0.0,
			"-0.019": 0.0,
			"-0.018": 0.0,
			"-0.017": 0.0,
			"-0.016": 0.0,
			"-0.015": 0.0,
			"-0.014": 0.0,
			"-0.013": 0.0,
			"-0.012": 0.0562516636864,
			"-0.011": 2.51557748769,
			"-0.01": 8.25540979993,
			"-0.009": 4.9690067244,
			"-0.008": 6.04285916634,
			"-0.007": 5.86816220879,
			"-0.006": 7.4510184818,
			"-0.005": 8.67337128877,
			"-0.004": 9.1734024665,
			"-0.003": 12.8865371059,
			"-0.002": 19.3330045113,
			"-0.001": 28.9902241782,
			"0.0": 18.8535480356,
			"0.001": 19.2835295351,
			"0.002": 52.5801184608,
			"0.003": 33.6844035582,
			"0.004": 5.71018663152,
			"0.005": 9.9516334585,
			"0.006": 5.4492524492,
			"0.007": 2.85395086147,
			"0.008": 2.20714456505,
			"0.009": 2.86984305002,
			"0.01": 3.6802282297,
			"0.011": 2.49072647826,
			"0.012": 1.19705809357,
			"0.013": 0.0314032926593,
			"0.014": 0.0,
			"0.015": 0.0,
			"0.016": 0.0,
			"0.017": 0.0,
			"0.018": 0.0,
			"0.019": 0.0,
			"0.02": 0.0,
			"0.021": 0.0,
			"0.022": 0.0,
			"0.023": 0.0,
			"0.024": 0.0,
			"0.025": 0.0
		}
	}
}
