{
	 "smiles": "NC1=CC=CC=N1", 
	 "Tm": 330.95, 
	 "num_atms": 13, 
	 "gaussian": { 
		 "optdone": 1, 
		 "sigma_profile": "yes", 
		 "theory": "DFT", 
		 "functional": "B3LYP", 
		 "basiset": "6-31G**", 
		 "properties": { 
			 "R2extent": 1084.49, 
			 "electric_dipole_moment_norm": 1.95279536562, 
			 "electric_quadrupole_moment_norm": 8.68176429996, 
			 "total_energy": -303.654499611, 
			 "HOMO_LUMO_gap": 0.1997, 
			 "cosmo_polarized_energy": -8.7, 
			 "cosmo_cavitation_energy": 16.72, 
			 "cosmo_dispersion_energy": -12.83, 
			 "cosmo_repulsion_energy": 1.09, 
			 "cosmo_total_nonelectrostatic_energy": 4.97, 
			 "SMD_solvation_energy": 1.64 
		},
		"coords": [
			{
				"x": -1.026161615,
				"y": -2.7782053881,
				"z": -0.5481571884,
				"element": "N" 
			},
			{
				"x": -0.5920133875,
				"y": -1.5611626296,
				"z": -1.043887082,
				"element": "C" 
			},
			{
				"x": -1.3309426874,
				"y": -0.8639046679,
				"z": -2.0230452845,
				"element": "C" 
			},
			{
				"x": -0.8665168147,
				"y": 0.3741679499,
				"z": -2.4409270877,
				"element": "C" 
			},
			{
				"x": 0.3061345952,
				"y": 0.895605996,
				"z": -1.8827626944,
				"element": "C" 
			},
			{
				"x": 0.9586782405,
				"y": 0.1265472714,
				"z": -0.9235083522,
				"element": "C" 
			},
			{
				"x": 0.5377465018,
				"y": -1.0744505802,
				"z": -0.5071734754,
				"element": "N" 
			},
			{
				"x": -0.3162731888,
				"y": -3.2851636715,
				"z": -0.0380416796,
				"element": "H" 
			},
			{
				"x": -1.5972851912,
				"y": -3.346223754,
				"z": -1.1558609805,
				"element": "H" 
			},
			{
				"x": -2.2434429609,
				"y": -1.2900595524,
				"z": -2.4298026215,
				"element": "H" 
			},
			{
				"x": -1.4147673217,
				"y": 0.9319645282,
				"z": -3.1953253708,
				"element": "H" 
			},
			{
				"x": 0.6996966197,
				"y": 1.8604331808,
				"z": -2.1833820171,
				"element": "H" 
			},
			{
				"x": 1.8769472103,
				"y": 0.4871513175,
				"z": -0.4618261656,
				"element": "H" 
			}
		],
		 "valence_orbital": [ 
			{
				"type": "occ",
				"energy": -0.36586,
				"method": "rhf"
			},
			{
				"type": "occ",
				"energy": -0.31276,
				"method": "rhf"
			},
			{
				"type": "occ",
				"energy": -0.27386,
				"method": "rhf"
			},
			{
				"type": "occ",
				"energy": -0.25081,
				"method": "rhf"
			},
			{
				"type": "occ",
				"energy": -0.21046,
				"method": "rhf"
			},
			{
				"type": "unocc",
				"energy": -0.01076,
				"method": "rhf"
			},
			{
				"type": "unocc",
				"energy": 0.01408,
				"method": "rhf"
			},
			{
				"type": "unocc",
				"energy": 0.08807,
				"method": "rhf"
			},
			{
				"type": "unocc",
				"energy": 0.10689,
				"method": "rhf"
			},
			{
				"type": "unocc",
				"energy": 0.13556,
				"method": "rhf"
			}
		],
		"cosmo_sigma_profile": { 
			"-0.025": 0.0,
			"-0.024": 0.0,
			"-0.023": 0.0,
			"-0.022": 0.0,
			"-0.021": 0.0,
			"-0.02": 0.0,
			"-0.019": 0.0,
			"-0.018": 0.0,
			"-0.017": 0.0,
			"-0.016": 0.0,
			"-0.015": 0.0,
			"-0.014": 0.0,
			"-0.013": 0.886073785769,
			"-0.012": 2.14530755228,
			"-0.011": 2.58500516558,
			"-0.01": 2.84606823747,
			"-0.009": 2.47769571334,
			"-0.008": 2.07497120909,
			"-0.007": 3.26795434736,
			"-0.006": 7.63439513408,
			"-0.005": 8.67904624101,
			"-0.004": 10.3517323863,
			"-0.003": 8.09707428052,
			"-0.002": 6.60782035595,
			"-0.001": 5.80387877611,
			"0.0": 5.89064503314,
			"0.001": 6.46353587184,
			"0.002": 6.63420242168,
			"0.003": 9.76430361986,
			"0.004": 14.0314498846,
			"0.005": 8.27119046035,
			"0.006": 3.00732421543,
			"0.007": 2.44913073096,
			"0.008": 2.02459886972,
			"0.009": 2.19702702234,
			"0.01": 1.53353941367,
			"0.011": 2.27777642563,
			"0.012": 1.49380707716,
			"0.013": 1.41889026828,
			"0.014": 0.67635855057,
			"0.015": 0.827201771185,
			"0.016": 0.764894139755,
			"0.017": 0.0,
			"0.018": 0.0,
			"0.019": 0.0,
			"0.02": 0.0,
			"0.021": 0.0,
			"0.022": 0.0,
			"0.023": 0.0,
			"0.024": 0.0,
			"0.025": 0.0
		}
	}
}
