{
	 "smiles": "CSC1=NC=CC=C1C1=NC(CCl)=NO1", 
	 "Tm": 383.15, 
	 "num_atms": 23, 
	 "gaussian": { 
		 "optdone": 1, 
		 "sigma_profile": "yes", 
		 "theory": "DFT", 
		 "functional": "B3LYP", 
		 "basiset": "6-31G**", 
		 "properties": { 
			 "R2extent": 4954.0139, 
			 "electric_dipole_moment_norm": 3.34163230772, 
			 "electric_quadrupole_moment_norm": 12.4184931759, 
			 "total_energy": -1445.59694306, 
			 "HOMO_LUMO_gap": 0.15331, 
			 "cosmo_polarized_energy": -11.68, 
			 "cosmo_cavitation_energy": 31.42, 
			 "cosmo_dispersion_energy": -23.5, 
			 "cosmo_repulsion_energy": 1.82, 
			 "cosmo_total_nonelectrostatic_energy": 9.75, 
			 "SMD_solvation_energy": 3.02 
		},
		"coords": [
			{
				"x": 2.415680098,
				"y": 1.2864259533,
				"z": 3.4586603589,
				"element": "C" 
			},
			{
				"x": 1.9851873596,
				"y": 0.3776456421,
				"z": 1.935224858,
				"element": "S" 
			},
			{
				"x": 0.2945560254,
				"y": 0.8820176778,
				"z": 1.7303737801,
				"element": "C" 
			},
			{
				"x": -0.2029623339,
				"y": 1.7157805018,
				"z": 2.6515431706,
				"element": "N" 
			},
			{
				"x": -1.4683603262,
				"y": 2.1289823123,
				"z": 2.5496832588,
				"element": "C" 
			},
			{
				"x": -2.3266945494,
				"y": 1.7410013466,
				"z": 1.5222644274,
				"element": "C" 
			},
			{
				"x": -1.8248867442,
				"y": 0.8767356988,
				"z": 0.5581800291,
				"element": "C" 
			},
			{
				"x": -0.4996193418,
				"y": 0.424566728,
				"z": 0.6379268345,
				"element": "C" 
			},
			{
				"x": -0.0011200267,
				"y": -0.4802927177,
				"z": -0.3865073959,
				"element": "C" 
			},
			{
				"x": 1.176811851,
				"y": -1.0319759649,
				"z": -0.5044884221,
				"element": "N" 
			},
			{
				"x": 1.0477086335,
				"y": -1.7697063658,
				"z": -1.654467737,
				"element": "C" 
			},
			{
				"x": 2.1425043028,
				"y": -2.5943586896,
				"z": -2.2370601166,
				"element": "C" 
			},
			{
				"x": 2.4220395109,
				"y": -4.1128292188,
				"z": -1.2803603912,
				"element": "Cl" 
			},
			{
				"x": -0.1264660054,
				"y": -1.6922510677,
				"z": -2.2326585243,
				"element": "N" 
			},
			{
				"x": -0.8393692927,
				"y": -0.8306193313,
				"z": -1.3927836874,
				"element": "O" 
			},
			{
				"x": 3.4583001068,
				"y": 1.0247622309,
				"z": 3.6545127021,
				"element": "H" 
			},
			{
				"x": 1.7880433078,
				"y": 0.9739381751,
				"z": 4.2931616285,
				"element": "H" 
			},
			{
				"x": 2.3195423877,
				"y": 2.3627660289,
				"z": 3.3160374569,
				"element": "H" 
			},
			{
				"x": -1.8091729072,
				"y": 2.804896501,
				"z": 3.3320849711,
				"element": "H" 
			},
			{
				"x": -3.347995678,
				"y": 2.1025600296,
				"z": 1.4809526842,
				"element": "H" 
			},
			{
				"x": -2.4470734389,
				"y": 0.5410191169,
				"z": -0.2643858397,
				"element": "H" 
			},
			{
				"x": 1.8882971499,
				"y": -2.8943974597,
				"z": -3.2524293313,
				"element": "H" 
			},
			{
				"x": 3.0825499108,
				"y": -2.0432671276,
				"z": -2.2241647149,
				"element": "H" 
			}
		],
		 "valence_orbital": [ 
			{
				"type": "occ",
				"energy": -0.30184,
				"method": "rhf"
			},
			{
				"type": "occ",
				"energy": -0.29831,
				"method": "rhf"
			},
			{
				"type": "occ",
				"energy": -0.27657,
				"method": "rhf"
			},
			{
				"type": "occ",
				"energy": -0.27329,
				"method": "rhf"
			},
			{
				"type": "occ",
				"energy": -0.22806,
				"method": "rhf"
			},
			{
				"type": "unocc",
				"energy": -0.07475,
				"method": "rhf"
			},
			{
				"type": "unocc",
				"energy": -0.03393,
				"method": "rhf"
			},
			{
				"type": "unocc",
				"energy": -0.02539,
				"method": "rhf"
			},
			{
				"type": "unocc",
				"energy": 0.02764,
				"method": "rhf"
			},
			{
				"type": "unocc",
				"energy": 0.04196,
				"method": "rhf"
			}
		],
		"cosmo_sigma_profile": { 
			"-0.025": 0.0,
			"-0.024": 0.0,
			"-0.023": 0.0,
			"-0.022": 0.0,
			"-0.021": 0.0,
			"-0.02": 0.0,
			"-0.019": 0.0,
			"-0.018": 0.0,
			"-0.017": 0.0,
			"-0.016": 0.0,
			"-0.015": 0.0,
			"-0.014": 0.0,
			"-0.013": 0.0,
			"-0.012": 0.0,
			"-0.011": 0.0,
			"-0.01": 0.651418000635,
			"-0.009": 4.20257956893,
			"-0.008": 6.44387799314,
			"-0.007": 12.2810288481,
			"-0.006": 13.8111852621,
			"-0.005": 14.2459397632,
			"-0.004": 15.1779065729,
			"-0.003": 17.8437222144,
			"-0.002": 17.5580053178,
			"-0.001": 21.3185246484,
			"0.0": 20.6606998054,
			"0.001": 19.9312430396,
			"0.002": 14.5420728854,
			"0.003": 11.1878429627,
			"0.004": 12.0848856907,
			"0.005": 18.4314211569,
			"0.006": 12.1207884088,
			"0.007": 6.05099076501,
			"0.008": 5.47454273339,
			"0.009": 4.95181114262,
			"0.01": 3.4756475196,
			"0.011": 3.23394201971,
			"0.012": 0.909749126099,
			"0.013": 0.0084051524618,
			"0.014": 0.0,
			"0.015": 0.0,
			"0.016": 0.0,
			"0.017": 0.0,
			"0.018": 0.0,
			"0.019": 0.0,
			"0.02": 0.0,
			"0.021": 0.0,
			"0.022": 0.0,
			"0.023": 0.0,
			"0.024": 0.0,
			"0.025": 0.0
		}
	}
}
