{
	 "smiles": "COC1=CC(C=O)=CC(OC)=C1OCC(N)=O", 
	 "Tm": 439.15, 
	 "num_atms": 30, 
	 "gaussian": { 
		 "optdone": 1, 
		 "sigma_profile": "yes", 
		 "theory": "DFT", 
		 "functional": "B3LYP", 
		 "basiset": "6-31G**", 
		 "properties": { 
			 "R2extent": 4604.0317, 
			 "electric_dipole_moment_norm": 3.16006084277, 
			 "electric_quadrupole_moment_norm": 31.9487060034, 
			 "total_energy": -857.839816766, 
			 "HOMO_LUMO_gap": 0.16457, 
			 "cosmo_polarized_energy": -18.44, 
			 "cosmo_cavitation_energy": 34.36, 
			 "cosmo_dispersion_energy": -23.93, 
			 "cosmo_repulsion_energy": 1.87, 
			 "cosmo_total_nonelectrostatic_energy": 12.3, 
			 "SMD_solvation_energy": 9.36 
		},
		"coords": [
			{
				"x": -3.4455465564,
				"y": 0.1193629257,
				"z": 1.2728744769,
				"element": "C" 
			},
			{
				"x": -2.0597159998,
				"y": -0.1567474378,
				"z": 1.456555737,
				"element": "O" 
			},
			{
				"x": -1.1836001637,
				"y": 0.3326377557,
				"z": 0.5283420684,
				"element": "C" 
			},
			{
				"x": -1.550216767,
				"y": 1.0615659602,
				"z": -0.5967331758,
				"element": "C" 
			},
			{
				"x": -0.5641661728,
				"y": 1.505521583,
				"z": -1.4925502059,
				"element": "C" 
			},
			{
				"x": -0.9640589815,
				"y": 2.2682629322,
				"z": -2.6937188806,
				"element": "C" 
			},
			{
				"x": -2.112307898,
				"y": 2.5581184491,
				"z": -2.9759285703,
				"element": "O" 
			},
			{
				"x": 0.7850873666,
				"y": 1.2418226593,
				"z": -1.2518363043,
				"element": "C" 
			},
			{
				"x": 1.160751565,
				"y": 0.524553655,
				"z": -0.1156659875,
				"element": "C" 
			},
			{
				"x": 2.4926178881,
				"y": 0.2622707343,
				"z": 0.1054754185,
				"element": "O" 
			},
			{
				"x": 3.0814869031,
				"y": 1.0170998194,
				"z": 1.1736762525,
				"element": "C" 
			},
			{
				"x": 0.1825909572,
				"y": 0.0411839397,
				"z": 0.7698632054,
				"element": "C" 
			},
			{
				"x": 0.5026449456,
				"y": -0.6436766673,
				"z": 1.9083268634,
				"element": "O" 
			},
			{
				"x": 1.2389841264,
				"y": -1.8766124373,
				"z": 1.7843082526,
				"element": "C" 
			},
			{
				"x": 0.3802585193,
				"y": -3.1268863397,
				"z": 1.9983673639,
				"element": "C" 
			},
			{
				"x": -0.9346214529,
				"y": -2.9079423229,
				"z": 2.2367288067,
				"element": "N" 
			},
			{
				"x": 0.9138408722,
				"y": -4.227259439,
				"z": 1.9557232199,
				"element": "O" 
			},
			{
				"x": -3.9561874629,
				"y": -0.3378614515,
				"z": 2.1211374585,
				"element": "H" 
			},
			{
				"x": -3.6372345937,
				"y": 1.198318878,
				"z": 1.2718032774,
				"element": "H" 
			},
			{
				"x": -3.8214022564,
				"y": -0.3170631457,
				"z": 0.3399262544,
				"element": "H" 
			},
			{
				"x": -2.5825604133,
				"y": 1.2952594534,
				"z": -0.8257295254,
				"element": "H" 
			},
			{
				"x": -0.1195050273,
				"y": 2.5734130553,
				"z": -3.3500268686,
				"element": "H" 
			},
			{
				"x": 1.5581442962,
				"y": 1.5899341097,
				"z": -1.9306305968,
				"element": "H" 
			},
			{
				"x": 4.1222274355,
				"y": 0.6948566377,
				"z": 1.2368423043,
				"element": "H" 
			},
			{
				"x": 3.0450029647,
				"y": 2.0910817141,
				"z": 0.9541254569,
				"element": "H" 
			},
			{
				"x": 2.5763133824,
				"y": 0.8238720747,
				"z": 2.1257329691,
				"element": "H" 
			},
			{
				"x": 2.0129348631,
				"y": -1.8720595007,
				"z": 2.5565675199,
				"element": "H" 
			},
			{
				"x": 1.7328715276,
				"y": -1.9521012632,
				"z": 0.8141001016,
				"element": "H" 
			},
			{
				"x": -1.5293004204,
				"y": -3.7128188969,
				"z": 2.3594092709,
				"element": "H" 
			},
			{
				"x": -1.3261334468,
				"y": -1.9748074349,
				"z": 2.2209338368,
				"element": "H" 
			}
		],
		 "valence_orbital": [ 
			{
				"type": "occ",
				"energy": -0.26138,
				"method": "rhf"
			},
			{
				"type": "occ",
				"energy": -0.25953,
				"method": "rhf"
			},
			{
				"type": "occ",
				"energy": -0.25488,
				"method": "rhf"
			},
			{
				"type": "occ",
				"energy": -0.24887,
				"method": "rhf"
			},
			{
				"type": "occ",
				"energy": -0.23127,
				"method": "rhf"
			},
			{
				"type": "unocc",
				"energy": -0.0667,
				"method": "rhf"
			},
			{
				"type": "unocc",
				"energy": -0.00998,
				"method": "rhf"
			},
			{
				"type": "unocc",
				"energy": 0.03397,
				"method": "rhf"
			},
			{
				"type": "unocc",
				"energy": 0.03644,
				"method": "rhf"
			},
			{
				"type": "unocc",
				"energy": 0.05964,
				"method": "rhf"
			}
		],
		"cosmo_sigma_profile": { 
			"-0.025": 0.0,
			"-0.024": 0.0,
			"-0.023": 0.0,
			"-0.022": 0.0,
			"-0.021": 0.0,
			"-0.02": 0.0,
			"-0.019": 0.0,
			"-0.018": 0.0,
			"-0.017": 0.0,
			"-0.016": 0.0,
			"-0.015": 0.0,
			"-0.014": 0.735177150272,
			"-0.013": 1.18718585357,
			"-0.012": 1.13661245423,
			"-0.011": 0.95586021067,
			"-0.01": 0.758596711812,
			"-0.009": 0.753576736725,
			"-0.008": 3.52458022469,
			"-0.007": 10.565707385,
			"-0.006": 20.5063284164,
			"-0.005": 22.2451394872,
			"-0.004": 27.8947367954,
			"-0.003": 25.2510265992,
			"-0.002": 19.3831690604,
			"-0.001": 14.2812824908,
			"0.0": 16.8281341872,
			"0.001": 17.2571583549,
			"0.002": 16.860236218,
			"0.003": 11.9407870855,
			"0.004": 6.82109457739,
			"0.005": 5.23410956062,
			"0.006": 4.57078167219,
			"0.007": 5.96355122032,
			"0.008": 5.17991229514,
			"0.009": 4.30152374605,
			"0.01": 5.56042793284,
			"0.011": 6.65081714932,
			"0.012": 4.2977037187,
			"0.013": 4.24794873404,
			"0.014": 6.21751821201,
			"0.015": 1.79335807542,
			"0.016": 0.0,
			"0.017": 0.0,
			"0.018": 0.0,
			"0.019": 0.0,
			"0.02": 0.0,
			"0.021": 0.0,
			"0.022": 0.0,
			"0.023": 0.0,
			"0.024": 0.0,
			"0.025": 0.0
		}
	}
}
