{
	 "smiles": "CC1=C(C=CC(Cl)=C1)C(O)=O", 
	 "Tm": 445.15, 
	 "num_atms": 18, 
	 "gaussian": { 
		 "optdone": 1, 
		 "sigma_profile": "yes", 
		 "theory": "DFT", 
		 "functional": "B3LYP", 
		 "basiset": "6-31G**", 
		 "properties": { 
			 "R2extent": 2553.575, 
			 "electric_dipole_moment_norm": 2.74508867798, 
			 "electric_quadrupole_moment_norm": 17.6550792861, 
			 "total_energy": -919.724321668, 
			 "HOMO_LUMO_gap": 0.2031, 
			 "cosmo_polarized_energy": -12.62, 
			 "cosmo_cavitation_energy": 24.0, 
			 "cosmo_dispersion_energy": -17.87, 
			 "cosmo_repulsion_energy": 1.43, 
			 "cosmo_total_nonelectrostatic_energy": 7.56, 
			 "SMD_solvation_energy": 4.91 
		},
		"coords": [
			{
				"x": -1.6581152913,
				"y": -0.2965297751,
				"z": 0.9004099359,
				"element": "C" 
			},
			{
				"x": -0.266208187,
				"y": -0.4468291598,
				"z": 0.3352577832,
				"element": "C" 
			},
			{
				"x": 0.7120024053,
				"y": 0.571997097,
				"z": 0.4200616606,
				"element": "C" 
			},
			{
				"x": 1.9779290492,
				"y": 0.3732520655,
				"z": -0.1528472541,
				"element": "C" 
			},
			{
				"x": 2.3104305044,
				"y": -0.8145300801,
				"z": -0.7971273334,
				"element": "C" 
			},
			{
				"x": 1.350535737,
				"y": -1.8218811434,
				"z": -0.8528693971,
				"element": "C" 
			},
			{
				"x": 1.7369887471,
				"y": -3.3394357686,
				"z": -1.6422429809,
				"element": "Cl" 
			},
			{
				"x": 0.0844985004,
				"y": -1.6454825677,
				"z": -0.2965189976,
				"element": "C" 
			},
			{
				"x": 0.3956955672,
				"y": 1.8850457128,
				"z": 1.0724031057,
				"element": "C" 
			},
			{
				"x": 1.4409390295,
				"y": 2.5178342115,
				"z": 1.675847982,
				"element": "O" 
			},
			{
				"x": -0.6975046333,
				"y": 2.4004278877,
				"z": 1.0790920061,
				"element": "O" 
			},
			{
				"x": -1.6395308171,
				"y": 0.0479905925,
				"z": 1.9380363677,
				"element": "H" 
			},
			{
				"x": -2.2237072776,
				"y": 0.4541312295,
				"z": 0.3426219377,
				"element": "H" 
			},
			{
				"x": -2.1918609214,
				"y": -1.2491923342,
				"z": 0.857519495,
				"element": "H" 
			},
			{
				"x": 2.7110549085,
				"y": 1.1754366827,
				"z": -0.135125119,
				"element": "H" 
			},
			{
				"x": 3.2858136936,
				"y": -0.9543206794,
				"z": -1.2484265825,
				"element": "H" 
			},
			{
				"x": -0.6403224929,
				"y": -2.4501043441,
				"z": -0.359275509,
				"element": "H" 
			},
			{
				"x": 2.1967614783,
				"y": 1.9176903732,
				"z": 1.7418828996,
				"element": "H" 
			}
		],
		 "valence_orbital": [ 
			{
				"type": "occ",
				"energy": -0.32552,
				"method": "rhf"
			},
			{
				"type": "occ",
				"energy": -0.3199,
				"method": "rhf"
			},
			{
				"type": "occ",
				"energy": -0.27958,
				"method": "rhf"
			},
			{
				"type": "occ",
				"energy": -0.27423,
				"method": "rhf"
			},
			{
				"type": "occ",
				"energy": -0.26026,
				"method": "rhf"
			},
			{
				"type": "unocc",
				"energy": -0.05716,
				"method": "rhf"
			},
			{
				"type": "unocc",
				"energy": -0.03088,
				"method": "rhf"
			},
			{
				"type": "unocc",
				"energy": 0.01688,
				"method": "rhf"
			},
			{
				"type": "unocc",
				"energy": 0.03348,
				"method": "rhf"
			},
			{
				"type": "unocc",
				"energy": 0.06868,
				"method": "rhf"
			}
		],
		"cosmo_sigma_profile": { 
			"-0.025": 0.0,
			"-0.024": 0.0,
			"-0.023": 0.0,
			"-0.022": 0.0,
			"-0.021": 0.0,
			"-0.02": 0.0,
			"-0.019": 0.0944211802761,
			"-0.018": 0.790210881103,
			"-0.017": 1.22842423006,
			"-0.016": 0.396171238178,
			"-0.015": 0.838364765612,
			"-0.014": 1.13317646369,
			"-0.013": 1.51955793291,
			"-0.012": 0.891078409437,
			"-0.011": 1.06159434343,
			"-0.01": 0.930477118599,
			"-0.009": 1.87782209596,
			"-0.008": 3.41000957027,
			"-0.007": 6.91354045836,
			"-0.006": 7.34823638527,
			"-0.005": 8.11679975948,
			"-0.004": 10.2281601873,
			"-0.003": 10.4251366673,
			"-0.002": 11.8561329018,
			"-0.001": 15.5766160132,
			"0.0": 18.2199673937,
			"0.001": 18.8746779128,
			"0.002": 19.3048261135,
			"0.003": 10.7846424577,
			"0.004": 12.0731042941,
			"0.005": 3.95776762281,
			"0.006": 2.99197086026,
			"0.007": 2.71911242075,
			"0.008": 2.25605968136,
			"0.009": 3.3079473231,
			"0.01": 4.86779586902,
			"0.011": 5.16443042357,
			"0.012": 3.33266784407,
			"0.013": 1.42125919678,
			"0.014": 0.0466213811617,
			"0.015": 0.0,
			"0.016": 0.0,
			"0.017": 0.0,
			"0.018": 0.0,
			"0.019": 0.0,
			"0.02": 0.0,
			"0.021": 0.0,
			"0.022": 0.0,
			"0.023": 0.0,
			"0.024": 0.0,
			"0.025": 0.0
		}
	}
}
