{
	 "smiles": "CC(=O)C1=CNC(=C1)C(=O)N1CCCC(CO)C1", 
	 "Tm": 420.15, 
	 "num_atms": 36, 
	 "gaussian": { 
		 "optdone": 1, 
		 "sigma_profile": "yes", 
		 "theory": "DFT", 
		 "functional": "B3LYP", 
		 "basiset": "6-31G**", 
		 "properties": { 
			 "R2extent": 7096.5587, 
			 "electric_dipole_moment_norm": 2.01870991973, 
			 "electric_quadrupole_moment_norm": 19.6238257058, 
			 "total_energy": -841.420593392, 
			 "HOMO_LUMO_gap": 0.20035, 
			 "cosmo_polarized_energy": -20.24, 
			 "cosmo_cavitation_energy": 38.16, 
			 "cosmo_dispersion_energy": -27.15, 
			 "cosmo_repulsion_energy": 2.1, 
			 "cosmo_total_nonelectrostatic_energy": 13.12, 
			 "SMD_solvation_energy": 6.83 
		},
		"coords": [
			{
				"x": -2.9725308062,
				"y": -3.6779037511,
				"z": -3.8141339784,
				"element": "C" 
			},
			{
				"x": -1.7933442898,
				"y": -3.4549845307,
				"z": -2.8786717258,
				"element": "C" 
			},
			{
				"x": -0.8290449097,
				"y": -4.2094453219,
				"z": -2.8863314138,
				"element": "O" 
			},
			{
				"x": -1.8456538396,
				"y": -2.301892701,
				"z": -1.9634538982,
				"element": "C" 
			},
			{
				"x": -2.8522564813,
				"y": -1.3456696417,
				"z": -1.827956045,
				"element": "C" 
			},
			{
				"x": -2.4684357945,
				"y": -0.4741392914,
				"z": -0.8676902147,
				"element": "N" 
			},
			{
				"x": -1.2307573069,
				"y": -0.822908717,
				"z": -0.3539637679,
				"element": "C" 
			},
			{
				"x": -0.8229508559,
				"y": -1.9595836174,
				"z": -1.0317811639,
				"element": "C" 
			},
			{
				"x": -0.6901713304,
				"y": 0.1473128406,
				"z": 0.6336603558,
				"element": "C" 
			},
			{
				"x": -1.233320497,
				"y": 1.2602977595,
				"z": 0.6918301269,
				"element": "O" 
			},
			{
				"x": 0.3771761499,
				"y": -0.1792473608,
				"z": 1.424690221,
				"element": "N" 
			},
			{
				"x": 0.9207016513,
				"y": -1.516416204,
				"z": 1.6626142135,
				"element": "C" 
			},
			{
				"x": 2.4238626967,
				"y": -1.5483924793,
				"z": 1.3586484619,
				"element": "C" 
			},
			{
				"x": 3.1546421064,
				"y": -0.4645687802,
				"z": 2.1656914812,
				"element": "C" 
			},
			{
				"x": 2.5169253027,
				"y": 0.9209237588,
				"z": 1.9633944905,
				"element": "C" 
			},
			{
				"x": 3.1846683034,
				"y": 1.9963241041,
				"z": 2.8297286109,
				"element": "C" 
			},
			{
				"x": 4.5839023869,
				"y": 2.1065996125,
				"z": 2.6040310306,
				"element": "O" 
			},
			{
				"x": 1.0022670765,
				"y": 0.8669813461,
				"z": 2.2347146535,
				"element": "C" 
			},
			{
				"x": -3.116463256,
				"y": -2.8124274611,
				"z": -4.4708976354,
				"element": "H" 
			},
			{
				"x": -3.8994421051,
				"y": -3.8157801579,
				"z": -3.2459257248,
				"element": "H" 
			},
			{
				"x": -2.7840783568,
				"y": -4.5646388023,
				"z": -4.4203029646,
				"element": "H" 
			},
			{
				"x": -3.7952573166,
				"y": -1.237497495,
				"z": -2.3434368577,
				"element": "H" 
			},
			{
				"x": -2.9190413396,
				"y": 0.3820549911,
				"z": -0.5715956694,
				"element": "H" 
			},
			{
				"x": 0.1043909336,
				"y": -2.5018570119,
				"z": -0.9359234889,
				"element": "H" 
			},
			{
				"x": 0.7636411953,
				"y": -1.7596062812,
				"z": 2.7254119137,
				"element": "H" 
			},
			{
				"x": 0.3643516066,
				"y": -2.2506717404,
				"z": 1.086087998,
				"element": "H" 
			},
			{
				"x": 2.8239828311,
				"y": -2.5406153524,
				"z": 1.59722116,
				"element": "H" 
			},
			{
				"x": 2.575420621,
				"y": -1.3871454377,
				"z": 0.2837159339,
				"element": "H" 
			},
			{
				"x": 3.1069737734,
				"y": -0.7194827707,
				"z": 3.2351659846,
				"element": "H" 
			},
			{
				"x": 4.2163764895,
				"y": -0.4245766716,
				"z": 1.9058217678,
				"element": "H" 
			},
			{
				"x": 2.6419287183,
				"y": 1.2098594713,
				"z": 0.9073272033,
				"element": "H" 
			},
			{
				"x": 3.0785033708,
				"y": 1.7386776115,
				"z": 3.8902462343,
				"element": "H" 
			},
			{
				"x": 2.6782321341,
				"y": 2.963494928,
				"z": 2.6792159281,
				"element": "H" 
			},
			{
				"x": 4.7118654228,
				"y": 2.4161847073,
				"z": 1.6977879647,
				"element": "H" 
			},
			{
				"x": 0.509101376,
				"y": 1.8095279586,
				"z": 1.9961402457,
				"element": "H" 
			},
			{
				"x": 0.8232343389,
				"y": 0.6522124897,
				"z": 3.3002185688,
				"element": "H" 
			}
		],
		 "valence_orbital": [ 
			{
				"type": "occ",
				"energy": -0.26346,
				"method": "rhf"
			},
			{
				"type": "occ",
				"energy": -0.25854,
				"method": "rhf"
			},
			{
				"type": "occ",
				"energy": -0.24067,
				"method": "rhf"
			},
			{
				"type": "occ",
				"energy": -0.23891,
				"method": "rhf"
			},
			{
				"type": "occ",
				"energy": -0.23088,
				"method": "rhf"
			},
			{
				"type": "unocc",
				"energy": -0.03053,
				"method": "rhf"
			},
			{
				"type": "unocc",
				"energy": -0.02213,
				"method": "rhf"
			},
			{
				"type": "unocc",
				"energy": 0.06747,
				"method": "rhf"
			},
			{
				"type": "unocc",
				"energy": 0.08193,
				"method": "rhf"
			},
			{
				"type": "unocc",
				"energy": 0.08488,
				"method": "rhf"
			}
		],
		"cosmo_sigma_profile": { 
			"-0.025": 0.0,
			"-0.024": 0.0,
			"-0.023": 0.0,
			"-0.022": 0.0,
			"-0.021": 0.0,
			"-0.02": 0.0,
			"-0.019": 0.0,
			"-0.018": 0.0,
			"-0.017": 0.0,
			"-0.016": 0.174782480146,
			"-0.015": 1.39576476799,
			"-0.014": 1.61174246694,
			"-0.013": 1.70537125927,
			"-0.012": 2.07859634017,
			"-0.011": 1.9085751634,
			"-0.01": 2.08289616457,
			"-0.009": 3.57034151008,
			"-0.008": 3.51323308645,
			"-0.007": 4.56745408298,
			"-0.006": 9.42642049836,
			"-0.005": 14.5643450105,
			"-0.004": 29.797917267,
			"-0.003": 34.0727688841,
			"-0.002": 32.1099043413,
			"-0.001": 29.350647802,
			"0.0": 23.2550864113,
			"0.001": 13.3379664314,
			"0.002": 11.2462885297,
			"0.003": 12.044797607,
			"0.004": 10.9190402174,
			"0.005": 6.10703180708,
			"0.006": 4.83826978334,
			"0.007": 4.98400957177,
			"0.008": 4.35477672964,
			"0.009": 3.94664335512,
			"0.01": 4.61316048372,
			"0.011": 4.44749342401,
			"0.012": 6.8855111801,
			"0.013": 8.8568266028,
			"0.014": 6.30903529467,
			"0.015": 0.70281151466,
			"0.016": 0.0,
			"0.017": 0.0,
			"0.018": 0.0,
			"0.019": 0.0,
			"0.02": 0.0,
			"0.021": 0.0,
			"0.022": 0.0,
			"0.023": 0.0,
			"0.024": 0.0,
			"0.025": 0.0
		}
	}
}
