{
	 "smiles": "CCC(=O)C=CC1=CC=CC=C1", 
	 "Tm": 311.65, 
	 "num_atms": 24, 
	 "gaussian": { 
		 "optdone": 1, 
		 "sigma_profile": "yes", 
		 "theory": "DFT", 
		 "functional": "B3LYP", 
		 "basiset": "6-31G**", 
		 "properties": { 
			 "R2extent": 3850.2597, 
			 "electric_dipole_moment_norm": 3.91902792156, 
			 "electric_quadrupole_moment_norm": 14.390165253, 
			 "total_energy": -501.617592596, 
			 "HOMO_LUMO_gap": 0.16537, 
			 "cosmo_polarized_energy": -9.87, 
			 "cosmo_cavitation_energy": 28.12, 
			 "cosmo_dispersion_energy": -20.04, 
			 "cosmo_repulsion_energy": 1.61, 
			 "cosmo_total_nonelectrostatic_energy": 9.69, 
			 "SMD_solvation_energy": 5.51 
		},
		"coords": [
			{
				"x": 0.1145983066,
				"y": -2.1858562852,
				"z": 1.5839961183,
				"element": "C" 
			},
			{
				"x": -0.7067137657,
				"y": -1.9867580308,
				"z": 0.2963091479,
				"element": "C" 
			},
			{
				"x": -1.9123771535,
				"y": -1.083391115,
				"z": 0.5416555824,
				"element": "C" 
			},
			{
				"x": -2.9814921983,
				"y": -1.5697342094,
				"z": 0.8931801526,
				"element": "O" 
			},
			{
				"x": -1.7967241386,
				"y": 0.3862010544,
				"z": 0.4080610292,
				"element": "C" 
			},
			{
				"x": -0.6916579355,
				"y": 1.0609032766,
				"z": 0.0307869704,
				"element": "C" 
			},
			{
				"x": -0.5381145578,
				"y": 2.5122724736,
				"z": -0.1036126163,
				"element": "C" 
			},
			{
				"x": 0.7015486636,
				"y": 3.0226238584,
				"z": -0.5309677589,
				"element": "C" 
			},
			{
				"x": 0.9047254422,
				"y": 4.3933325279,
				"z": -0.677935263,
				"element": "C" 
			},
			{
				"x": -0.1318128218,
				"y": 5.2848652741,
				"z": -0.3988789337,
				"element": "C" 
			},
			{
				"x": -1.3706244368,
				"y": 4.7946066089,
				"z": 0.0279211533,
				"element": "C" 
			},
			{
				"x": -1.573180393,
				"y": 3.4265310017,
				"z": 0.1747313505,
				"element": "C" 
			},
			{
				"x": -0.5148436647,
				"y": -2.6016659803,
				"z": 2.3761754216,
				"element": "H" 
			},
			{
				"x": 0.53109205,
				"y": -1.2401809553,
				"z": 1.9452576751,
				"element": "H" 
			},
			{
				"x": 0.9447171997,
				"y": -2.877140831,
				"z": 1.4098623023,
				"element": "H" 
			},
			{
				"x": -0.0679940003,
				"y": -1.5945335561,
				"z": -0.5020871125,
				"element": "H" 
			},
			{
				"x": -1.1049900976,
				"y": -2.9487222043,
				"z": -0.0381586583,
				"element": "H" 
			},
			{
				"x": -2.7200129811,
				"y": 0.9045447134,
				"z": 0.6548627178,
				"element": "H" 
			},
			{
				"x": 0.2053374531,
				"y": 0.4921804537,
				"z": -0.2081235799,
				"element": "H" 
			},
			{
				"x": 1.5112443505,
				"y": 2.3307741052,
				"z": -0.7494469698,
				"element": "H" 
			},
			{
				"x": 1.870092962,
				"y": 4.764379031,
				"z": -1.0094868546,
				"element": "H" 
			},
			{
				"x": 0.0215940922,
				"y": 6.3540740747,
				"z": -0.511682716,
				"element": "H" 
			},
			{
				"x": -2.1806157365,
				"y": 5.4841739069,
				"z": 0.247259823,
				"element": "H" 
			},
			{
				"x": -2.5401966385,
				"y": 3.0640208068,
				"z": 0.5082210184,
				"element": "H" 
			}
		],
		 "valence_orbital": [ 
			{
				"type": "occ",
				"energy": -0.34574,
				"method": "rhf"
			},
			{
				"type": "occ",
				"energy": -0.30712,
				"method": "rhf"
			},
			{
				"type": "occ",
				"energy": -0.26283,
				"method": "rhf"
			},
			{
				"type": "occ",
				"energy": -0.23751,
				"method": "rhf"
			},
			{
				"type": "occ",
				"energy": -0.23631,
				"method": "rhf"
			},
			{
				"type": "unocc",
				"energy": -0.07094,
				"method": "rhf"
			},
			{
				"type": "unocc",
				"energy": -0.01192,
				"method": "rhf"
			},
			{
				"type": "unocc",
				"energy": 0.00988,
				"method": "rhf"
			},
			{
				"type": "unocc",
				"energy": 0.07129,
				"method": "rhf"
			},
			{
				"type": "unocc",
				"energy": 0.08482,
				"method": "rhf"
			}
		],
		"cosmo_sigma_profile": { 
			"-0.025": 0.0,
			"-0.024": 0.0,
			"-0.023": 0.0,
			"-0.022": 0.0,
			"-0.021": 0.0,
			"-0.02": 0.0,
			"-0.019": 0.0,
			"-0.018": 0.0,
			"-0.017": 0.0,
			"-0.016": 0.0,
			"-0.015": 0.0,
			"-0.014": 0.0,
			"-0.013": 0.0,
			"-0.012": 0.0,
			"-0.011": 0.0,
			"-0.01": 0.0,
			"-0.009": 0.0,
			"-0.008": 1.50043772684,
			"-0.007": 6.55401384554,
			"-0.006": 12.6135524059,
			"-0.005": 13.1663013609,
			"-0.004": 19.7605641233,
			"-0.003": 19.0105629922,
			"-0.002": 19.8670139763,
			"-0.001": 24.0020678184,
			"0.0": 20.4697929189,
			"0.001": 15.8763085374,
			"0.002": 15.3423410139,
			"0.003": 13.486368641,
			"0.004": 13.8534933459,
			"0.005": 8.44881402045,
			"0.006": 1.29811580546,
			"0.007": 1.86165033219,
			"0.008": 1.05314535031,
			"0.009": 1.31189278614,
			"0.01": 1.82864938357,
			"0.011": 2.03019166131,
			"0.012": 3.65603965248,
			"0.013": 4.31945399852,
			"0.014": 2.09937967369,
			"0.015": 0.089717883392,
			"0.016": 0.0,
			"0.017": 0.0,
			"0.018": 0.0,
			"0.019": 0.0,
			"0.02": 0.0,
			"0.021": 0.0,
			"0.022": 0.0,
			"0.023": 0.0,
			"0.024": 0.0,
			"0.025": 0.0
		}
	}
}
