{
	 "smiles": "CC(=O)NC1=CC=C(C=C1)S(=O)(=O)N=[N+]=[N-]", 
	 "Tm": 382.15, 
	 "num_atms": 24, 
	 "gaussian": { 
		 "optdone": 1, 
		 "sigma_profile": "yes", 
		 "theory": "DFT", 
		 "functional": "B3LYP", 
		 "basiset": "6-31G**", 
		 "properties": { 
			 "R2extent": 6011.7421, 
			 "electric_dipole_moment_norm": 7.45287781397, 
			 "electric_quadrupole_moment_norm": 12.0937242378, 
			 "total_energy": -1152.41372446, 
			 "HOMO_LUMO_gap": 0.17602, 
			 "cosmo_polarized_energy": -19.38, 
			 "cosmo_cavitation_energy": 32.23, 
			 "cosmo_dispersion_energy": -23.28, 
			 "cosmo_repulsion_energy": 1.78, 
			 "cosmo_total_nonelectrostatic_energy": 10.73, 
			 "SMD_solvation_energy": 4.3 
		},
		"coords": [
			{
				"x": -0.1160139966,
				"y": -1.396684714,
				"z": -4.9657612919,
				"element": "C" 
			},
			{
				"x": -0.8681032935,
				"y": -1.0235876932,
				"z": -3.6982352448,
				"element": "C" 
			},
			{
				"x": -2.0114392625,
				"y": -0.599536474,
				"z": -3.7184865858,
				"element": "O" 
			},
			{
				"x": -0.1261247441,
				"y": -1.1798299043,
				"z": -2.5361015339,
				"element": "N" 
			},
			{
				"x": -0.4893082211,
				"y": -0.8850581264,
				"z": -1.2143940728,
				"element": "C" 
			},
			{
				"x": 0.4731080811,
				"y": -1.123066262,
				"z": -0.2139604206,
				"element": "C" 
			},
			{
				"x": 0.1923049347,
				"y": -0.859398673,
				"z": 1.1181850798,
				"element": "C" 
			},
			{
				"x": -1.0650497581,
				"y": -0.3506965174,
				"z": 1.4562383863,
				"element": "C" 
			},
			{
				"x": -2.0332009702,
				"y": -0.1128862718,
				"z": 0.4785743465,
				"element": "C" 
			},
			{
				"x": -1.7528595622,
				"y": -0.3792805651,
				"z": -0.8580799689,
				"element": "C" 
			},
			{
				"x": -1.4306302764,
				"y": -0.0036242075,
				"z": 3.1607485526,
				"element": "S" 
			},
			{
				"x": -2.8772871185,
				"y": 0.1378541242,
				"z": 3.3274946348,
				"element": "O" 
			},
			{
				"x": -0.6191419451,
				"y": -0.8668960695,
				"z": 4.0080191254,
				"element": "O" 
			},
			{
				"x": -0.695260068,
				"y": 1.5976030264,
				"z": 3.3707707731,
				"element": "N" 
			},
			{
				"x": -1.5279529126,
				"y": 2.5215465892,
				"z": 3.3919666807,
				"element": "N" 
			},
			{
				"x": -2.2122743245,
				"y": 3.4286934174,
				"z": 3.4320428122,
				"element": "N" 
			},
			{
				"x": -0.8379899942,
				"y": -1.7518953954,
				"z": -5.7018213079,
				"element": "H" 
			},
			{
				"x": 0.6488702395,
				"y": -2.1626370603,
				"z": -4.8072971219,
				"element": "H" 
			},
			{
				"x": 0.3700282639,
				"y": -0.5037578068,
				"z": -5.3741214463,
				"element": "H" 
			},
			{
				"x": 0.8092847215,
				"y": -1.5428463433,
				"z": -2.6522404915,
				"element": "H" 
			},
			{
				"x": 1.4467599586,
				"y": -1.5229338897,
				"z": -0.4860218749,
				"element": "H" 
			},
			{
				"x": 0.9284130837,
				"y": -1.0548531481,
				"z": 1.8897690163,
				"element": "H" 
			},
			{
				"x": -3.0091815389,
				"y": 0.2633849846,
				"z": 0.7650539766,
				"element": "H" 
			},
			{
				"x": -2.4919512966,
				"y": -0.2079130202,
				"z": -1.626942023,
				"element": "H" 
			}
		],
		 "valence_orbital": [ 
			{
				"type": "occ",
				"energy": -0.30815,
				"method": "rhf"
			},
			{
				"type": "occ",
				"energy": -0.29494,
				"method": "rhf"
			},
			{
				"type": "occ",
				"energy": -0.28397,
				"method": "rhf"
			},
			{
				"type": "occ",
				"energy": -0.2761,
				"method": "rhf"
			},
			{
				"type": "occ",
				"energy": -0.25073,
				"method": "rhf"
			},
			{
				"type": "unocc",
				"energy": -0.07471,
				"method": "rhf"
			},
			{
				"type": "unocc",
				"energy": -0.04942,
				"method": "rhf"
			},
			{
				"type": "unocc",
				"energy": -0.0329,
				"method": "rhf"
			},
			{
				"type": "unocc",
				"energy": -0.01211,
				"method": "rhf"
			},
			{
				"type": "unocc",
				"energy": 0.01243,
				"method": "rhf"
			}
		],
		"cosmo_sigma_profile": { 
			"-0.025": 0.0,
			"-0.024": 0.0,
			"-0.023": 0.0,
			"-0.022": 0.0,
			"-0.021": 0.0,
			"-0.02": 0.0,
			"-0.019": 0.0,
			"-0.018": 0.0,
			"-0.017": 0.134754746448,
			"-0.016": 0.842903917404,
			"-0.015": 1.3382268007,
			"-0.014": 1.82225723245,
			"-0.013": 0.982642672786,
			"-0.012": 1.83997575782,
			"-0.011": 1.91976276712,
			"-0.01": 1.77867648717,
			"-0.009": 3.28166117177,
			"-0.008": 5.16035926676,
			"-0.007": 9.26352460944,
			"-0.006": 16.3584693426,
			"-0.005": 14.9856771557,
			"-0.004": 15.068514955,
			"-0.003": 15.6350219505,
			"-0.002": 15.6192505291,
			"-0.001": 17.0426209685,
			"0.0": 18.3594211143,
			"0.001": 21.6349345376,
			"0.002": 20.3315427263,
			"0.003": 11.0394253396,
			"0.004": 7.66836007313,
			"0.005": 9.86259184319,
			"0.006": 6.59129782644,
			"0.007": 7.06925585694,
			"0.008": 8.08575511269,
			"0.009": 11.1298138175,
			"0.01": 7.51273422612,
			"0.011": 2.03756060257,
			"0.012": 2.83468724794,
			"0.013": 2.10904042633,
			"0.014": 0.514205591028,
			"0.015": 0.0,
			"0.016": 0.0,
			"0.017": 0.0,
			"0.018": 0.0,
			"0.019": 0.0,
			"0.02": 0.0,
			"0.021": 0.0,
			"0.022": 0.0,
			"0.023": 0.0,
			"0.024": 0.0,
			"0.025": 0.0
		}
	}
}
