{
	 "smiles": "CC1=CC=C(O)C(=C1)C(O)C1=CC=CC=C1", 
	 "Tm": 376.15, 
	 "num_atms": 30, 
	 "gaussian": { 
		 "optdone": 1, 
		 "sigma_profile": "yes", 
		 "theory": "DFT", 
		 "functional": "B3LYP", 
		 "basiset": "6-31G**", 
		 "properties": { 
			 "R2extent": 4038.6191, 
			 "electric_dipole_moment_norm": 2.93511606755, 
			 "electric_quadrupole_moment_norm": 9.57929910536, 
			 "total_energy": -692.379376973, 
			 "HOMO_LUMO_gap": 0.18337, 
			 "cosmo_polarized_energy": -10.95, 
			 "cosmo_cavitation_energy": 32.78, 
			 "cosmo_dispersion_energy": -23.56, 
			 "cosmo_repulsion_energy": 1.84, 
			 "cosmo_total_nonelectrostatic_energy": 11.06, 
			 "SMD_solvation_energy": 5.7 
		},
		"coords": [
			{
				"x": 2.4119207702,
				"y": 3.5765067918,
				"z": 0.9797756807,
				"element": "C" 
			},
			{
				"x": 1.9581913336,
				"y": 2.199241307,
				"z": 1.4049844724,
				"element": "C" 
			},
			{
				"x": 2.8365735809,
				"y": 1.3142457683,
				"z": 2.0487038173,
				"element": "C" 
			},
			{
				"x": 2.4188287467,
				"y": 0.0517718679,
				"z": 2.4514346975,
				"element": "C" 
			},
			{
				"x": 1.1070156549,
				"y": -0.3757159957,
				"z": 2.2100802579,
				"element": "C" 
			},
			{
				"x": 0.7665908058,
				"y": -1.6326835803,
				"z": 2.6196447474,
				"element": "O" 
			},
			{
				"x": 0.2073882626,
				"y": 0.4853739996,
				"z": 1.5536401191,
				"element": "C" 
			},
			{
				"x": 0.6531296459,
				"y": 1.7591744863,
				"z": 1.1774391933,
				"element": "C" 
			},
			{
				"x": -1.2088301326,
				"y": 0.069429815,
				"z": 1.1868399454,
				"element": "C" 
			},
			{
				"x": -1.7153685404,
				"y": -0.8039218634,
				"z": 2.2274640433,
				"element": "O" 
			},
			{
				"x": -1.3221269765,
				"y": -0.6004146357,
				"z": -0.1767207823,
				"element": "C" 
			},
			{
				"x": -2.143372125,
				"y": -0.0417019811,
				"z": -1.162675994,
				"element": "C" 
			},
			{
				"x": -2.2761530077,
				"y": -0.6522531627,
				"z": -2.4122260654,
				"element": "C" 
			},
			{
				"x": -1.5913830658,
				"y": -1.8360423656,
				"z": -2.6843450896,
				"element": "C" 
			},
			{
				"x": -0.7719106748,
				"y": -2.4041028342,
				"z": -1.7040190868,
				"element": "C" 
			},
			{
				"x": -0.6350128541,
				"y": -1.7924466974,
				"z": -0.4595877286,
				"element": "C" 
			},
			{
				"x": 1.5956060955,
				"y": 4.1404024189,
				"z": 0.5191362002,
				"element": "H" 
			},
			{
				"x": 2.7792373498,
				"y": 4.1612751552,
				"z": 1.8314344986,
				"element": "H" 
			},
			{
				"x": 3.2296727389,
				"y": 3.5242395591,
				"z": 0.2509794924,
				"element": "H" 
			},
			{
				"x": 3.8600108205,
				"y": 1.6237108481,
				"z": 2.2480225834,
				"element": "H" 
			},
			{
				"x": 3.0911884195,
				"y": -0.6287725573,
				"z": 2.9641446377,
				"element": "H" 
			},
			{
				"x": -0.2113882765,
				"y": -1.6648351456,
				"z": 2.6300416187,
				"element": "H" 
			},
			{
				"x": -0.0488800203,
				"y": 2.4263099689,
				"z": 0.6800253751,
				"element": "H" 
			},
			{
				"x": -1.8305701659,
				"y": 0.9751060178,
				"z": 1.1674925273,
				"element": "H" 
			},
			{
				"x": -2.4776375894,
				"y": -1.2756391512,
				"z": 1.865352052,
				"element": "H" 
			},
			{
				"x": -2.6814077076,
				"y": 0.8797949361,
				"z": -0.9522995179,
				"element": "H" 
			},
			{
				"x": -2.9151437488,
				"y": -0.2041892182,
				"z": -3.167845522,
				"element": "H" 
			},
			{
				"x": -1.6930422792,
				"y": -2.3146936645,
				"z": -3.6541021376,
				"element": "H" 
			},
			{
				"x": -0.2338022691,
				"y": -3.3244575034,
				"z": -1.9125487811,
				"element": "H" 
			},
			{
				"x": 0.0112752089,
				"y": -2.2316125834,
				"z": 0.2943347457,
				"element": "H" 
			}
		],
		 "valence_orbital": [ 
			{
				"type": "occ",
				"energy": -0.29248,
				"method": "rhf"
			},
			{
				"type": "occ",
				"energy": -0.25754,
				"method": "rhf"
			},
			{
				"type": "occ",
				"energy": -0.25497,
				"method": "rhf"
			},
			{
				"type": "occ",
				"energy": -0.23626,
				"method": "rhf"
			},
			{
				"type": "occ",
				"energy": -0.20328,
				"method": "rhf"
			},
			{
				"type": "unocc",
				"energy": -0.01991,
				"method": "rhf"
			},
			{
				"type": "unocc",
				"energy": -0.00934,
				"method": "rhf"
			},
			{
				"type": "unocc",
				"energy": 0.00874,
				"method": "rhf"
			},
			{
				"type": "unocc",
				"energy": 0.02359,
				"method": "rhf"
			},
			{
				"type": "unocc",
				"energy": 0.07651,
				"method": "rhf"
			}
		],
		"cosmo_sigma_profile": { 
			"-0.025": 0.0,
			"-0.024": 0.0,
			"-0.023": 0.0,
			"-0.022": 0.0,
			"-0.021": 0.0,
			"-0.02": 0.0,
			"-0.019": 0.0,
			"-0.018": 0.0,
			"-0.017": 0.0600824269678,
			"-0.016": 0.623200753826,
			"-0.015": 1.2093343006,
			"-0.014": 0.503905852667,
			"-0.013": 0.559195563431,
			"-0.012": 0.947154174078,
			"-0.011": 0.743924654797,
			"-0.01": 1.13870671039,
			"-0.009": 1.08853439989,
			"-0.008": 0.608386433439,
			"-0.007": 1.68738493816,
			"-0.006": 12.7501819797,
			"-0.005": 19.1653601,
			"-0.004": 22.9985441953,
			"-0.003": 23.3032189254,
			"-0.002": 21.4738652259,
			"-0.001": 16.3098939614,
			"0.0": 18.6656018282,
			"0.001": 18.4486008795,
			"0.002": 14.5367142767,
			"0.003": 15.7216417967,
			"0.004": 19.5065888115,
			"0.005": 20.892855826,
			"0.006": 13.0609786441,
			"0.007": 2.9428892399,
			"0.008": 2.55407061637,
			"0.009": 1.80780096906,
			"0.01": 1.71599360492,
			"0.011": 2.00510113705,
			"0.012": 2.59196001057,
			"0.013": 0.667193252626,
			"0.014": 0.0,
			"0.015": 0.0,
			"0.016": 0.0,
			"0.017": 0.0,
			"0.018": 0.0,
			"0.019": 0.0,
			"0.02": 0.0,
			"0.021": 0.0,
			"0.022": 0.0,
			"0.023": 0.0,
			"0.024": 0.0,
			"0.025": 0.0
		}
	}
}
