{
	 "smiles": "NC1=C(C#N)C2=C(CCC3=C2C=CC=C3)S1", 
	 "Tm": 440.15, 
	 "num_atms": 26, 
	 "gaussian": { 
		 "optdone": 1, 
		 "sigma_profile": "yes", 
		 "theory": "DFT", 
		 "functional": "B3LYP", 
		 "basiset": "6-31G**", 
		 "properties": { 
			 "R2extent": 4212.9004, 
			 "electric_dipole_moment_norm": 4.09122924926, 
			 "electric_quadrupole_moment_norm": 17.204113398, 
			 "total_energy": -1009.09280848, 
			 "HOMO_LUMO_gap": 0.16864, 
			 "cosmo_polarized_energy": -13.87, 
			 "cosmo_cavitation_energy": 31.17, 
			 "cosmo_dispersion_energy": -23.13, 
			 "cosmo_repulsion_energy": 1.73, 
			 "cosmo_total_nonelectrostatic_energy": 9.78, 
			 "SMD_solvation_energy": 5.1 
		},
		"coords": [
			{
				"x": 1.1850806368,
				"y": -3.5772503434,
				"z": -1.4971499918,
				"element": "N" 
			},
			{
				"x": 0.9489232546,
				"y": -2.2336903025,
				"z": -1.3351576229,
				"element": "C" 
			},
			{
				"x": -0.2814783142,
				"y": -1.605174719,
				"z": -1.1974573598,
				"element": "C" 
			},
			{
				"x": -1.4621673658,
				"y": -2.3836444091,
				"z": -1.3075692091,
				"element": "C" 
			},
			{
				"x": -2.3761356246,
				"y": -3.1003149044,
				"z": -1.4225926274,
				"element": "N" 
			},
			{
				"x": -0.1638413295,
				"y": -0.1802408543,
				"z": -0.9339660738,
				"element": "C" 
			},
			{
				"x": 1.1424042492,
				"y": 0.2230117002,
				"z": -0.8726090154,
				"element": "C" 
			},
			{
				"x": 1.567568137,
				"y": 1.6482650483,
				"z": -0.6717661764,
				"element": "C" 
			},
			{
				"x": 0.519366383,
				"y": 2.3409571725,
				"z": 0.2151175295,
				"element": "C" 
			},
			{
				"x": -0.8977286015,
				"y": 2.0876459031,
				"z": -0.2614287298,
				"element": "C" 
			},
			{
				"x": -1.2405395393,
				"y": 0.8191256992,
				"z": -0.7917203563,
				"element": "C" 
			},
			{
				"x": -2.564569586,
				"y": 0.5821690024,
				"z": -1.1901859829,
				"element": "C" 
			},
			{
				"x": -3.5376611837,
				"y": 1.5729474656,
				"z": -1.0578979308,
				"element": "C" 
			},
			{
				"x": -3.1999966166,
				"y": 2.8192423072,
				"z": -0.5333966827,
				"element": "C" 
			},
			{
				"x": -1.8825016812,
				"y": 3.0676401173,
				"z": -0.141175005,
				"element": "C" 
			},
			{
				"x": 2.2621330644,
				"y": -1.1011333076,
				"z": -1.1335077059,
				"element": "S" 
			},
			{
				"x": 2.0179844221,
				"y": -3.8438322024,
				"z": -2.0021962434,
				"element": "H" 
			},
			{
				"x": 0.3688581306,
				"y": -4.1269705655,
				"z": -1.7362943731,
				"element": "H" 
			},
			{
				"x": 1.6434194536,
				"y": 2.1617773717,
				"z": -1.6422220531,
				"element": "H" 
			},
			{
				"x": 2.5556140937,
				"y": 1.7106382157,
				"z": -0.2036349039,
				"element": "H" 
			},
			{
				"x": 0.7152944347,
				"y": 3.4169774058,
				"z": 0.2634711009,
				"element": "H" 
			},
			{
				"x": 0.6234912083,
				"y": 1.9523676303,
				"z": 1.2388461819,
				"element": "H" 
			},
			{
				"x": -2.8421151074,
				"y": -0.3763743422,
				"z": -1.6129036093,
				"element": "H" 
			},
			{
				"x": -4.5569267294,
				"y": 1.3677158127,
				"z": -1.37155267,
				"element": "H" 
			},
			{
				"x": -3.9527432013,
				"y": 3.5957039454,
				"z": -0.4325678553,
				"element": "H" 
			},
			{
				"x": -1.6142325876,
				"y": 4.039341153,
				"z": 0.266817366,
				"element": "H" 
			}
		],
		 "valence_orbital": [ 
			{
				"type": "occ",
				"energy": -0.31613,
				"method": "rhf"
			},
			{
				"type": "occ",
				"energy": -0.27988,
				"method": "rhf"
			},
			{
				"type": "occ",
				"energy": -0.24415,
				"method": "rhf"
			},
			{
				"type": "occ",
				"energy": -0.2341,
				"method": "rhf"
			},
			{
				"type": "occ",
				"energy": -0.20014,
				"method": "rhf"
			},
			{
				"type": "unocc",
				"energy": -0.0315,
				"method": "rhf"
			},
			{
				"type": "unocc",
				"energy": -0.02135,
				"method": "rhf"
			},
			{
				"type": "unocc",
				"energy": -0.00712,
				"method": "rhf"
			},
			{
				"type": "unocc",
				"energy": 0.00187,
				"method": "rhf"
			},
			{
				"type": "unocc",
				"energy": 0.04426,
				"method": "rhf"
			}
		],
		"cosmo_sigma_profile": { 
			"-0.025": 0.0,
			"-0.024": 0.0,
			"-0.023": 0.0,
			"-0.022": 0.0,
			"-0.021": 0.0,
			"-0.02": 0.0,
			"-0.019": 0.0,
			"-0.018": 0.0,
			"-0.017": 0.0,
			"-0.016": 0.120935954913,
			"-0.015": 1.23223204253,
			"-0.014": 1.54569748921,
			"-0.013": 2.48601923864,
			"-0.012": 2.69276722526,
			"-0.011": 2.5507333253,
			"-0.01": 1.98777810185,
			"-0.009": 1.91746880377,
			"-0.008": 2.10792937957,
			"-0.007": 2.01137289741,
			"-0.006": 5.69070770013,
			"-0.005": 13.3633550417,
			"-0.004": 19.5242835038,
			"-0.003": 22.1114014439,
			"-0.002": 21.1168741498,
			"-0.001": 18.6514402356,
			"0.0": 15.4803956627,
			"0.001": 20.1844614646,
			"0.002": 23.3989630649,
			"0.003": 19.7603666415,
			"0.004": 12.9540225369,
			"0.005": 10.7129879173,
			"0.006": 8.92760736815,
			"0.007": 2.98837529242,
			"0.008": 3.19049128211,
			"0.009": 3.00087347166,
			"0.01": 3.14594528481,
			"0.011": 3.38407726179,
			"0.012": 2.59024625689,
			"0.013": 2.4769215638,
			"0.014": 0.838838302097,
			"0.015": 0.0,
			"0.016": 0.0,
			"0.017": 0.0,
			"0.018": 0.0,
			"0.019": 0.0,
			"0.02": 0.0,
			"0.021": 0.0,
			"0.022": 0.0,
			"0.023": 0.0,
			"0.024": 0.0,
			"0.025": 0.0
		}
	}
}
