{
	 "smiles": "ClC1=NC2=C(CCN2)C=C1", 
	 "Tm": 415.15, 
	 "num_atms": 17, 
	 "gaussian": { 
		 "optdone": 1, 
		 "sigma_profile": "yes", 
		 "theory": "DFT", 
		 "functional": "B3LYP", 
		 "basiset": "6-31G**", 
		 "properties": { 
			 "R2extent": 2761.3913, 
			 "electric_dipole_moment_norm": 4.47189622867, 
			 "electric_quadrupole_moment_norm": 11.3187534309, 
			 "total_energy": -840.663087744, 
			 "HOMO_LUMO_gap": 0.18519, 
			 "cosmo_polarized_energy": -9.23, 
			 "cosmo_cavitation_energy": 22.11, 
			 "cosmo_dispersion_energy": -17.21, 
			 "cosmo_repulsion_energy": 1.41, 
			 "cosmo_total_nonelectrostatic_energy": 6.31, 
			 "SMD_solvation_energy": 0.42 
		},
		"coords": [
			{
				"x": 0.9065791629,
				"y": -2.3595039501,
				"z": -3.8254324735,
				"element": "Cl" 
			},
			{
				"x": 0.87538479,
				"y": -2.0721424412,
				"z": -2.0819477436,
				"element": "C" 
			},
			{
				"x": 0.9216892976,
				"y": -0.7973978061,
				"z": -1.7055974344,
				"element": "N" 
			},
			{
				"x": 0.8942822962,
				"y": -0.5989923223,
				"z": -0.3890393354,
				"element": "C" 
			},
			{
				"x": 0.8094258105,
				"y": -1.6126538783,
				"z": 0.5886001109,
				"element": "C" 
			},
			{
				"x": 0.8272306696,
				"y": -0.95715788,
				"z": 1.9503333064,
				"element": "C" 
			},
			{
				"x": 0.5381980664,
				"y": 0.5320643733,
				"z": 1.6049496278,
				"element": "C" 
			},
			{
				"x": 0.9626598469,
				"y": 0.6476782634,
				"z": 0.2012058482,
				"element": "N" 
			},
			{
				"x": 0.7650828579,
				"y": -2.9216828175,
				"z": 0.1528841117,
				"element": "C" 
			},
			{
				"x": 0.7974265874,
				"y": -3.1714351796,
				"z": -1.2319603042,
				"element": "C" 
			},
			{
				"x": 0.094093353,
				"y": -1.3647654747,
				"z": 2.6520913152,
				"element": "H" 
			},
			{
				"x": 1.8171857125,
				"y": -1.0577523619,
				"z": 2.4142646244,
				"element": "H" 
			},
			{
				"x": -0.5350263612,
				"y": 0.7488420597,
				"z": 1.7154583599,
				"element": "H" 
			},
			{
				"x": 1.0927939666,
				"y": 1.2260056111,
				"z": 2.242267232,
				"element": "H" 
			},
			{
				"x": 0.6702990509,
				"y": 1.4436255363,
				"z": -0.3490952651,
				"element": "H" 
			},
			{
				"x": 0.6981456009,
				"y": -3.75082371,
				"z": 0.8523835214,
				"element": "H" 
			},
			{
				"x": 0.7569492917,
				"y": -4.1770080221,
				"z": -1.6299655018,
				"element": "H" 
			}
		],
		 "valence_orbital": [ 
			{
				"type": "occ",
				"energy": -0.30269,
				"method": "rhf"
			},
			{
				"type": "occ",
				"energy": -0.29834,
				"method": "rhf"
			},
			{
				"type": "occ",
				"energy": -0.27244,
				"method": "rhf"
			},
			{
				"type": "occ",
				"energy": -0.26896,
				"method": "rhf"
			},
			{
				"type": "occ",
				"energy": -0.20787,
				"method": "rhf"
			},
			{
				"type": "unocc",
				"energy": -0.02268,
				"method": "rhf"
			},
			{
				"type": "unocc",
				"energy": 0.00244,
				"method": "rhf"
			},
			{
				"type": "unocc",
				"energy": 0.0443,
				"method": "rhf"
			},
			{
				"type": "unocc",
				"energy": 0.0834,
				"method": "rhf"
			},
			{
				"type": "unocc",
				"energy": 0.11128,
				"method": "rhf"
			}
		],
		"cosmo_sigma_profile": { 
			"-0.025": 0.0,
			"-0.024": 0.0,
			"-0.023": 0.0,
			"-0.022": 0.0,
			"-0.021": 0.0,
			"-0.02": 0.0,
			"-0.019": 0.0,
			"-0.018": 0.0,
			"-0.017": 0.0,
			"-0.016": 0.0,
			"-0.015": 0.0,
			"-0.014": 0.124865490463,
			"-0.013": 1.4260524145,
			"-0.012": 0.631684895472,
			"-0.011": 1.2878513232,
			"-0.01": 1.11626768763,
			"-0.009": 0.983123711419,
			"-0.008": 1.11546584052,
			"-0.007": 3.49636094276,
			"-0.006": 5.58843786874,
			"-0.005": 11.3858810946,
			"-0.004": 18.9370085965,
			"-0.003": 16.5817470158,
			"-0.002": 15.2765095689,
			"-0.001": 10.6891595301,
			"0.0": 7.96640634231,
			"0.001": 10.8112011088,
			"0.002": 16.2190958033,
			"0.003": 12.9691282639,
			"0.004": 11.1343280195,
			"0.005": 11.1566308153,
			"0.006": 5.4190068209,
			"0.007": 3.26052491499,
			"0.008": 2.65720551647,
			"0.009": 1.85311901528,
			"0.01": 1.99653556215,
			"0.011": 0.886761278207,
			"0.012": 1.23467701384,
			"0.013": 1.08063941986,
			"0.014": 0.765770370379,
			"0.015": 0.38431867732,
			"0.016": 0.0,
			"0.017": 0.0,
			"0.018": 0.0,
			"0.019": 0.0,
			"0.02": 0.0,
			"0.021": 0.0,
			"0.022": 0.0,
			"0.023": 0.0,
			"0.024": 0.0,
			"0.025": 0.0
		}
	}
}
