{
	 "smiles": "CC(O)CN1C(C)=NC=C1[N+]([O-])=O", 
	 "Tm": 349.15, 
	 "num_atms": 24, 
	 "gaussian": { 
		 "optdone": 1, 
		 "sigma_profile": "yes", 
		 "theory": "DFT", 
		 "functional": "B3LYP", 
		 "basiset": "6-31G**", 
		 "properties": { 
			 "R2extent": 2659.986, 
			 "electric_dipole_moment_norm": 4.76417269838, 
			 "electric_quadrupole_moment_norm": 12.3537093211, 
			 "total_energy": -663.198379426, 
			 "HOMO_LUMO_gap": 0.16693, 
			 "cosmo_polarized_energy": -14.31, 
			 "cosmo_cavitation_energy": 27.55, 
			 "cosmo_dispersion_energy": -19.66, 
			 "cosmo_repulsion_energy": 1.56, 
			 "cosmo_total_nonelectrostatic_energy": 9.45, 
			 "SMD_solvation_energy": 5.35 
		},
		"coords": [
			{
				"x": 1.6701051819,
				"y": -0.974415852,
				"z": -2.0035396021,
				"element": "C" 
			},
			{
				"x": 0.5111727849,
				"y": -0.958641432,
				"z": -1.0068747064,
				"element": "C" 
			},
			{
				"x": 0.6206806274,
				"y": -2.0180663911,
				"z": -0.0547163805,
				"element": "O" 
			},
			{
				"x": 0.5011396541,
				"y": 0.3420436474,
				"z": -0.2002773474,
				"element": "C" 
			},
			{
				"x": -0.6697185966,
				"y": 0.4651091393,
				"z": 0.6740339926,
				"element": "N" 
			},
			{
				"x": -0.7194791359,
				"y": 0.1402786775,
				"z": 2.0004186093,
				"element": "C" 
			},
			{
				"x": 0.44709411,
				"y": -0.374116596,
				"z": 2.7761638996,
				"element": "C" 
			},
			{
				"x": -1.9294716557,
				"y": 0.3435674438,
				"z": 2.5241557013,
				"element": "N" 
			},
			{
				"x": -2.7004880129,
				"y": 0.8121270978,
				"z": 1.513168724,
				"element": "C" 
			},
			{
				"x": -1.9548470825,
				"y": 0.8960174003,
				"z": 0.3537080191,
				"element": "C" 
			},
			{
				"x": -2.3896654114,
				"y": 1.3235699503,
				"z": -0.9249196695,
				"element": "N" 
			},
			{
				"x": -3.5557753547,
				"y": 1.7169321725,
				"z": -1.0138065975,
				"element": "O" 
			},
			{
				"x": -1.591811745,
				"y": 1.2768628204,
				"z": -1.8773776774,
				"element": "O" 
			},
			{
				"x": 1.5701192373,
				"y": -0.1687916888,
				"z": -2.7378147843,
				"element": "H" 
			},
			{
				"x": 2.6285942507,
				"y": -0.8665148161,
				"z": -1.4851877062,
				"element": "H" 
			},
			{
				"x": 1.6881004514,
				"y": -1.9230138406,
				"z": -2.5502756697,
				"element": "H" 
			},
			{
				"x": -0.4404074161,
				"y": -1.0249570609,
				"z": -1.5510078036,
				"element": "H" 
			},
			{
				"x": 0.4390095321,
				"y": -2.8520737418,
				"z": -0.5051317221,
				"element": "H" 
			},
			{
				"x": 1.3874265735,
				"y": 0.3742392855,
				"z": 0.4377357981,
				"element": "H" 
			},
			{
				"x": 0.5166673227,
				"y": 1.1949976545,
				"z": -0.8756810369,
				"element": "H" 
			},
			{
				"x": 1.2442133277,
				"y": 0.3749913969,
				"z": 2.8562573063,
				"element": "H" 
			},
			{
				"x": 0.8646389949,
				"y": -1.2684792318,
				"z": 2.3064303392,
				"element": "H" 
			},
			{
				"x": 0.1010325458,
				"y": -0.6135478654,
				"z": 3.7821165382,
				"element": "H" 
			},
			{
				"x": -3.7427301836,
				"y": 1.0683818303,
				"z": 1.633221776,
				"element": "H" 
			}
		],
		 "valence_orbital": [ 
			{
				"type": "occ",
				"energy": -0.29375,
				"method": "rhf"
			},
			{
				"type": "occ",
				"energy": -0.29053,
				"method": "rhf"
			},
			{
				"type": "occ",
				"energy": -0.28622,
				"method": "rhf"
			},
			{
				"type": "occ",
				"energy": -0.27846,
				"method": "rhf"
			},
			{
				"type": "occ",
				"energy": -0.24833,
				"method": "rhf"
			},
			{
				"type": "unocc",
				"energy": -0.0814,
				"method": "rhf"
			},
			{
				"type": "unocc",
				"energy": 0.02138,
				"method": "rhf"
			},
			{
				"type": "unocc",
				"energy": 0.05496,
				"method": "rhf"
			},
			{
				"type": "unocc",
				"energy": 0.06629,
				"method": "rhf"
			},
			{
				"type": "unocc",
				"energy": 0.08931,
				"method": "rhf"
			}
		],
		"cosmo_sigma_profile": { 
			"-0.025": 0.0,
			"-0.024": 0.0,
			"-0.023": 0.0,
			"-0.022": 0.0,
			"-0.021": 0.0,
			"-0.02": 0.0,
			"-0.019": 0.0,
			"-0.018": 0.0,
			"-0.017": 0.0,
			"-0.016": 0.510691251152,
			"-0.015": 1.1332100576,
			"-0.014": 1.0520992991,
			"-0.013": 0.678963110152,
			"-0.012": 1.10749304735,
			"-0.011": 1.08449469997,
			"-0.01": 0.94930346006,
			"-0.009": 1.48084548976,
			"-0.008": 2.79715389025,
			"-0.007": 5.88664213925,
			"-0.006": 11.9873203796,
			"-0.005": 14.6807731529,
			"-0.004": 18.7753652365,
			"-0.003": 18.1764002558,
			"-0.002": 19.1442932401,
			"-0.001": 19.7120628948,
			"0.0": 16.4471691128,
			"0.001": 10.3746650727,
			"0.002": 7.81072784055,
			"0.003": 7.11580597254,
			"0.004": 5.72720224048,
			"0.005": 6.14852706486,
			"0.006": 6.28951013218,
			"0.007": 6.91157325625,
			"0.008": 10.682843665,
			"0.009": 6.8631614685,
			"0.01": 5.79594720342,
			"0.011": 2.65365577068,
			"0.012": 1.41630968393,
			"0.013": 1.32465283805,
			"0.014": 0.6003305546,
			"0.015": 0.989538572112,
			"0.016": 0.855831171333,
			"0.017": 0.0504047866373,
			"0.018": 0.0,
			"0.019": 0.0,
			"0.02": 0.0,
			"0.021": 0.0,
			"0.022": 0.0,
			"0.023": 0.0,
			"0.024": 0.0,
			"0.025": 0.0
		}
	}
}
