{
	 "smiles": "CCOC(=O)NC1=C(C(=CC=C1)[N+]([O-])=O)[N+]([O-])=O", 
	 "Tm": 375.15, 
	 "num_atms": 27, 
	 "gaussian": { 
		 "optdone": 1, 
		 "sigma_profile": "yes", 
		 "theory": "DFT", 
		 "functional": "B3LYP", 
		 "basiset": "6-31G**", 
		 "properties": { 
			 "R2extent": 6351.1841, 
			 "electric_dipole_moment_norm": 8.19920739706, 
			 "electric_quadrupole_moment_norm": 29.420255625, 
			 "total_energy": -963.775056641, 
			 "HOMO_LUMO_gap": 0.16522, 
			 "cosmo_polarized_energy": -21.6, 
			 "cosmo_cavitation_energy": 33.41, 
			 "cosmo_dispersion_energy": -23.38, 
			 "cosmo_repulsion_energy": 1.82, 
			 "cosmo_total_nonelectrostatic_energy": 11.85, 
			 "SMD_solvation_energy": 11.43 
		},
		"coords": [
			{
				"x": -2.8480150111,
				"y": -2.8169411617,
				"z": 1.8187700806,
				"element": "C" 
			},
			{
				"x": -3.6540238557,
				"y": -1.6112250621,
				"z": 1.3633718759,
				"element": "C" 
			},
			{
				"x": -3.2656541914,
				"y": -1.1868372158,
				"z": 0.0309973746,
				"element": "O" 
			},
			{
				"x": -2.206402955,
				"y": -0.3545830504,
				"z": -0.0318990833,
				"element": "C" 
			},
			{
				"x": -1.5611014024,
				"y": 0.0603960022,
				"z": 0.9069229496,
				"element": "O" 
			},
			{
				"x": -1.9565874884,
				"y": -0.0519027769,
				"z": -1.3592172442,
				"element": "N" 
			},
			{
				"x": -0.8992292148,
				"y": 0.7438685016,
				"z": -1.8219174662,
				"element": "C" 
			},
			{
				"x": -0.5686367381,
				"y": 1.996334657,
				"z": -1.2741037298,
				"element": "C" 
			},
			{
				"x": 0.5146009625,
				"y": 2.7100416181,
				"z": -1.7990543635,
				"element": "C" 
			},
			{
				"x": 1.2692200217,
				"y": 2.2237287667,
				"z": -2.8589835504,
				"element": "C" 
			},
			{
				"x": 0.9178362859,
				"y": 1.0012267431,
				"z": -3.4276718354,
				"element": "C" 
			},
			{
				"x": -0.1449708404,
				"y": 0.2723841119,
				"z": -2.909409777,
				"element": "C" 
			},
			{
				"x": 0.8421521155,
				"y": 4.074128461,
				"z": -1.3339884154,
				"element": "N" 
			},
			{
				"x": -0.0953505548,
				"y": 4.8318837173,
				"z": -1.1131651332,
				"element": "O" 
			},
			{
				"x": 2.0338323097,
				"y": 4.3598632193,
				"z": -1.2659711675,
				"element": "O" 
			},
			{
				"x": -1.3498441273,
				"y": 2.5693692431,
				"z": -0.1572687372,
				"element": "N" 
			},
			{
				"x": -0.7235724691,
				"y": 2.9427195723,
				"z": 0.8221298091,
				"element": "O" 
			},
			{
				"x": -2.5639901877,
				"y": 2.6270209392,
				"z": -0.3174579756,
				"element": "O" 
			},
			{
				"x": -2.9441112543,
				"y": -3.6438120539,
				"z": 1.1087254271,
				"element": "H" 
			},
			{
				"x": -3.2133534984,
				"y": -3.1576377826,
				"z": 2.7931406917,
				"element": "H" 
			},
			{
				"x": -1.7919188525,
				"y": -2.5561921328,
				"z": 1.9228725663,
				"element": "H" 
			},
			{
				"x": -3.5296039945,
				"y": -0.76804845,
				"z": 2.0460399688,
				"element": "H" 
			},
			{
				"x": -4.7160082152,
				"y": -1.8472866978,
				"z": 1.2669466622,
				"element": "H" 
			},
			{
				"x": -2.4670972796,
				"y": -0.5934702661,
				"z": -2.0418848684,
				"element": "H" 
			},
			{
				"x": 2.1002240186,
				"y": 2.8129903951,
				"z": -3.2259144223,
				"element": "H" 
			},
			{
				"x": 1.4850588397,
				"y": 0.6102658211,
				"z": -4.2656458531,
				"element": "H" 
			},
			{
				"x": -0.395152423,
				"y": -0.6987851191,
				"z": -3.3256637835,
				"element": "H" 
			}
		],
		 "valence_orbital": [ 
			{
				"type": "occ",
				"energy": -0.30608,
				"method": "rhf"
			},
			{
				"type": "occ",
				"energy": -0.30308,
				"method": "rhf"
			},
			{
				"type": "occ",
				"energy": -0.29515,
				"method": "rhf"
			},
			{
				"type": "occ",
				"energy": -0.28242,
				"method": "rhf"
			},
			{
				"type": "occ",
				"energy": -0.26426,
				"method": "rhf"
			},
			{
				"type": "unocc",
				"energy": -0.09904,
				"method": "rhf"
			},
			{
				"type": "unocc",
				"energy": -0.07838,
				"method": "rhf"
			},
			{
				"type": "unocc",
				"energy": -0.04097,
				"method": "rhf"
			},
			{
				"type": "unocc",
				"energy": -0.02726,
				"method": "rhf"
			},
			{
				"type": "unocc",
				"energy": 0.03619,
				"method": "rhf"
			}
		],
		"cosmo_sigma_profile": { 
			"-0.025": 0.0,
			"-0.024": 0.0,
			"-0.023": 0.0,
			"-0.022": 0.0,
			"-0.021": 0.0,
			"-0.02": 0.0,
			"-0.019": 0.0,
			"-0.018": 0.0,
			"-0.017": 0.219859398828,
			"-0.016": 1.44405377575,
			"-0.015": 1.2100469041,
			"-0.014": 1.33536278036,
			"-0.013": 1.19390092809,
			"-0.012": 1.15261718473,
			"-0.011": 1.06872179455,
			"-0.01": 1.83176290443,
			"-0.009": 5.98801708922,
			"-0.008": 9.15718531381,
			"-0.007": 8.16407976746,
			"-0.006": 7.90483627527,
			"-0.005": 10.4207820226,
			"-0.004": 17.0982515921,
			"-0.003": 22.8815896789,
			"-0.002": 22.9290198111,
			"-0.001": 21.101301067,
			"0.0": 21.0137207437,
			"0.001": 10.7737624471,
			"0.002": 7.97750466991,
			"0.003": 8.78553753201,
			"0.004": 9.32433547003,
			"0.005": 12.3051469478,
			"0.006": 18.3401307003,
			"0.007": 20.064532808,
			"0.008": 10.8075970639,
			"0.009": 5.9830020074,
			"0.01": 2.08884320943,
			"0.011": 2.66536650458,
			"0.012": 1.29259320164,
			"0.013": 0.0,
			"0.014": 0.0,
			"0.015": 0.0,
			"0.016": 0.0,
			"0.017": 0.0,
			"0.018": 0.0,
			"0.019": 0.0,
			"0.02": 0.0,
			"0.021": 0.0,
			"0.022": 0.0,
			"0.023": 0.0,
			"0.024": 0.0,
			"0.025": 0.0
		}
	}
}
