{
	 "smiles": "CCOC1=C(C=NN(C)C1=O)N1CCOCC1", 
	 "Tm": 363.15, 
	 "num_atms": 34, 
	 "gaussian": { 
		 "optdone": 1, 
		 "sigma_profile": "yes", 
		 "theory": "DFT", 
		 "functional": "B3LYP", 
		 "basiset": "6-31G**", 
		 "properties": { 
			 "R2extent": 4895.5058, 
			 "electric_dipole_moment_norm": 2.46092318653, 
			 "electric_quadrupole_moment_norm": 7.59370272594, 
			 "total_energy": -819.28269623, 
			 "HOMO_LUMO_gap": 0.16142, 
			 "cosmo_polarized_energy": -14.17, 
			 "cosmo_cavitation_energy": 35.43, 
			 "cosmo_dispersion_energy": -25.58, 
			 "cosmo_repulsion_energy": 2.0, 
			 "cosmo_total_nonelectrostatic_energy": 11.85, 
			 "SMD_solvation_energy": 5.2 
		},
		"coords": [
			{
				"x": -2.9616560672,
				"y": 0.0511784021,
				"z": -2.1238328726,
				"element": "C" 
			},
			{
				"x": -2.2063705764,
				"y": -0.5314869937,
				"z": -0.9442967936,
				"element": "C" 
			},
			{
				"x": -1.4375406673,
				"y": 0.5450535012,
				"z": -0.3556723907,
				"element": "O" 
			},
			{
				"x": -0.64530267,
				"y": 0.2384253207,
				"z": 0.7136914208,
				"element": "C" 
			},
			{
				"x": 0.6941672878,
				"y": 0.6112153944,
				"z": 0.7245623434,
				"element": "C" 
			},
			{
				"x": 1.4462638236,
				"y": 0.231081277,
				"z": 1.8931599725,
				"element": "C" 
			},
			{
				"x": 0.9585825166,
				"y": -0.4093845325,
				"z": 2.9207611512,
				"element": "N" 
			},
			{
				"x": -0.3422241302,
				"y": -0.7217345215,
				"z": 2.8977157701,
				"element": "N" 
			},
			{
				"x": -0.8746385408,
				"y": -1.3991778729,
				"z": 4.0778320784,
				"element": "C" 
			},
			{
				"x": -1.2439786462,
				"y": -0.4109162328,
				"z": 1.8659230671,
				"element": "C" 
			},
			{
				"x": -2.4346783874,
				"y": -0.722643582,
				"z": 1.9834631379,
				"element": "O" 
			},
			{
				"x": 1.3235984816,
				"y": 1.2911338536,
				"z": -0.3011975693,
				"element": "N" 
			},
			{
				"x": 2.7852747705,
				"y": 1.3382844821,
				"z": -0.3742384109,
				"element": "C" 
			},
			{
				"x": 3.2099383128,
				"y": 1.8129700421,
				"z": -1.7614751142,
				"element": "C" 
			},
			{
				"x": 2.745624705,
				"y": 3.1227444904,
				"z": -2.0620674545,
				"element": "O" 
			},
			{
				"x": 1.500672634,
				"y": 3.4518716778,
				"z": -1.4478674522,
				"element": "C" 
			},
			{
				"x": 0.6190300361,
				"y": 2.2335454956,
				"z": -1.1852337258,
				"element": "C" 
			},
			{
				"x": -3.6363089004,
				"y": 0.8458702528,
				"z": -1.7924802688,
				"element": "H" 
			},
			{
				"x": -2.2765986396,
				"y": 0.4671583919,
				"z": -2.8691964444,
				"element": "H" 
			},
			{
				"x": -3.5602153656,
				"y": -0.729472876,
				"z": -2.6039358991,
				"element": "H" 
			},
			{
				"x": -1.5142070553,
				"y": -1.321169255,
				"z": -1.268206322,
				"element": "H" 
			},
			{
				"x": -2.8812163059,
				"y": -0.941827348,
				"z": -0.1911428371,
				"element": "H" 
			},
			{
				"x": 2.4990477745,
				"y": 0.472203514,
				"z": 1.9755118732,
				"element": "H" 
			},
			{
				"x": -1.3433905783,
				"y": -2.3422427387,
				"z": 3.7870259605,
				"element": "H" 
			},
			{
				"x": -1.6359704082,
				"y": -0.7791625352,
				"z": 4.5582277275,
				"element": "H" 
			},
			{
				"x": -0.0393861378,
				"y": -1.5742930256,
				"z": 4.7535330831,
				"element": "H" 
			},
			{
				"x": 3.1982067692,
				"y": 0.3373929736,
				"z": -0.2033981802,
				"element": "H" 
			},
			{
				"x": 3.220595435,
				"y": 2.0096667816,
				"z": 0.383751644,
				"element": "H" 
			},
			{
				"x": 2.8497321568,
				"y": 1.0940913474,
				"z": -2.5138226022,
				"element": "H" 
			},
			{
				"x": 4.302765887,
				"y": 1.8400092683,
				"z": -1.8218070616,
				"element": "H" 
			},
			{
				"x": 1.6791556865,
				"y": 3.9846011182,
				"z": -0.5008824006,
				"element": "H" 
			},
			{
				"x": 0.982872975,
				"y": 4.1400930102,
				"z": -2.1244971661,
				"element": "H" 
			},
			{
				"x": 0.3435365693,
				"y": 1.7594547272,
				"z": -2.1360669811,
				"element": "H" 
			},
			{
				"x": -0.3069827447,
				"y": 2.5563661918,
				"z": -0.7101412827,
				"element": "H" 
			}
		],
		 "valence_orbital": [ 
			{
				"type": "occ",
				"energy": -0.28433,
				"method": "rhf"
			},
			{
				"type": "occ",
				"energy": -0.2575,
				"method": "rhf"
			},
			{
				"type": "occ",
				"energy": -0.2363,
				"method": "rhf"
			},
			{
				"type": "occ",
				"energy": -0.23054,
				"method": "rhf"
			},
			{
				"type": "occ",
				"energy": -0.19814,
				"method": "rhf"
			},
			{
				"type": "unocc",
				"energy": -0.03672,
				"method": "rhf"
			},
			{
				"type": "unocc",
				"energy": 0.01437,
				"method": "rhf"
			},
			{
				"type": "unocc",
				"energy": 0.0739,
				"method": "rhf"
			},
			{
				"type": "unocc",
				"energy": 0.08815,
				"method": "rhf"
			},
			{
				"type": "unocc",
				"energy": 0.09692,
				"method": "rhf"
			}
		],
		"cosmo_sigma_profile": { 
			"-0.025": 0.0,
			"-0.024": 0.0,
			"-0.023": 0.0,
			"-0.022": 0.0,
			"-0.021": 0.0,
			"-0.02": 0.0,
			"-0.019": 0.0,
			"-0.018": 0.0,
			"-0.017": 0.0,
			"-0.016": 0.0,
			"-0.015": 0.0,
			"-0.014": 0.0,
			"-0.013": 0.0,
			"-0.012": 0.0,
			"-0.011": 0.0,
			"-0.01": 0.0,
			"-0.009": 0.0,
			"-0.008": 1.03927258575,
			"-0.007": 3.24275035133,
			"-0.006": 9.72091217189,
			"-0.005": 21.3136464174,
			"-0.004": 37.2073835105,
			"-0.003": 35.0669039834,
			"-0.002": 32.21044864,
			"-0.001": 25.8750331122,
			"0.0": 22.7628319259,
			"0.001": 15.0235573831,
			"0.002": 11.0087726547,
			"0.003": 8.33049680444,
			"0.004": 7.57875566861,
			"0.005": 6.01070315259,
			"0.006": 5.43452399,
			"0.007": 4.64161377151,
			"0.008": 5.07140214285,
			"0.009": 4.28612556375,
			"0.01": 3.89885894274,
			"0.011": 3.5686813013,
			"0.012": 4.32081102155,
			"0.013": 4.0644473552,
			"0.014": 4.45909043532,
			"0.015": 1.82146569693,
			"0.016": 0.0,
			"0.017": 0.0,
			"0.018": 0.0,
			"0.019": 0.0,
			"0.02": 0.0,
			"0.021": 0.0,
			"0.022": 0.0,
			"0.023": 0.0,
			"0.024": 0.0,
			"0.025": 0.0
		}
	}
}
