{
	 "smiles": "O=C(OCCC(OC(=O)C1=CC=CC=C1)C1=CC=CC=C1)C1=CC=CC=C1", 
	 "Tm": 324.15, 
	 "num_atms": 47, 
	 "gaussian": { 
		 "optdone": 1, 
		 "sigma_profile": "yes", 
		 "theory": "DFT", 
		 "functional": "B3LYP", 
		 "basiset": "6-31G**", 
		 "properties": { 
			 "R2extent": 14335.3106, 
			 "electric_dipole_moment_norm": 1.24002374574, 
			 "electric_quadrupole_moment_norm": 13.7653558334, 
			 "total_energy": -1189.43527207, 
			 "HOMO_LUMO_gap": 0.20335, 
			 "cosmo_polarized_energy": -14.28, 
			 "cosmo_cavitation_energy": 52.67, 
			 "cosmo_dispersion_energy": -35.73, 
			 "cosmo_repulsion_energy": 2.72, 
			 "cosmo_total_nonelectrostatic_energy": 19.65, 
			 "SMD_solvation_energy": 10.05 
		},
		"coords": [
			{
				"x": 2.5718360342,
				"y": 0.1654771963,
				"z": 0.1450828008,
				"element": "O" 
			},
			{
				"x": 2.8562835658,
				"y": -0.9977512226,
				"z": 0.361350142,
				"element": "C" 
			},
			{
				"x": 1.9678372796,
				"y": -1.9107064832,
				"z": 0.8203498553,
				"element": "O" 
			},
			{
				"x": 0.6255361856,
				"y": -1.4371004772,
				"z": 1.0698423476,
				"element": "C" 
			},
			{
				"x": -0.1986092952,
				"y": -1.449964774,
				"z": -0.2172737634,
				"element": "C" 
			},
			{
				"x": -1.6910101929,
				"y": -1.1770502446,
				"z": 0.0113908077,
				"element": "C" 
			},
			{
				"x": -1.846964951,
				"y": 0.1596964508,
				"z": 0.5707189443,
				"element": "O" 
			},
			{
				"x": -2.1484009961,
				"y": 0.2592963701,
				"z": 1.8884598669,
				"element": "C" 
			},
			{
				"x": -2.2393433442,
				"y": -0.6988965573,
				"z": 2.6342591139,
				"element": "O" 
			},
			{
				"x": -2.3463119424,
				"y": 1.6721825781,
				"z": 2.3188428168,
				"element": "C" 
			},
			{
				"x": -2.6537018394,
				"y": 1.9054911819,
				"z": 3.6667105026,
				"element": "C" 
			},
			{
				"x": -2.849333714,
				"y": 3.2064148448,
				"z": 4.1228508187,
				"element": "C" 
			},
			{
				"x": -2.737895547,
				"y": 4.281057582,
				"z": 3.2362127647,
				"element": "C" 
			},
			{
				"x": -2.431110871,
				"y": 4.0522031591,
				"z": 1.8926049671,
				"element": "C" 
			},
			{
				"x": -2.2353454344,
				"y": 2.7516417404,
				"z": 1.4311751099,
				"element": "C" 
			},
			{
				"x": -2.4963969494,
				"y": -1.2469338634,
				"z": -1.268925281,
				"element": "C" 
			},
			{
				"x": -2.3739209168,
				"y": -0.2578958613,
				"z": -2.2545227388,
				"element": "C" 
			},
			{
				"x": -3.0971250493,
				"y": -0.351447421,
				"z": -3.4427123124,
				"element": "C" 
			},
			{
				"x": -3.9464885982,
				"y": -1.4386098382,
				"z": -3.6648361243,
				"element": "C" 
			},
			{
				"x": -4.072973135,
				"y": -2.4278357705,
				"z": -2.6893901966,
				"element": "C" 
			},
			{
				"x": -3.3540949884,
				"y": -2.3283955657,
				"z": -1.496303276,
				"element": "C" 
			},
			{
				"x": 4.2131942423,
				"y": -1.5805923963,
				"z": 0.1562660091,
				"element": "C" 
			},
			{
				"x": 4.5008568659,
				"y": -2.9268832895,
				"z": 0.4216452754,
				"element": "C" 
			},
			{
				"x": 5.7891221718,
				"y": -3.4160300902,
				"z": 0.2110550625,
				"element": "C" 
			},
			{
				"x": 6.7927062704,
				"y": -2.5675929844,
				"z": -0.2632279135,
				"element": "C" 
			},
			{
				"x": 6.5081731609,
				"y": -1.2251242666,
				"z": -0.5282059632,
				"element": "C" 
			},
			{
				"x": 5.2225300772,
				"y": -0.7323293882,
				"z": -0.319651457,
				"element": "C" 
			},
			{
				"x": 0.6777034445,
				"y": -0.4319657688,
				"z": 1.4919704372,
				"element": "H" 
			},
			{
				"x": 0.2173273079,
				"y": -2.1236382446,
				"z": 1.8142458603,
				"element": "H" 
			},
			{
				"x": 0.207812861,
				"y": -0.7109434524,
				"z": -0.9146902537,
				"element": "H" 
			},
			{
				"x": -0.1074118181,
				"y": -2.4344888906,
				"z": -0.6903623886,
				"element": "H" 
			},
			{
				"x": -2.088995314,
				"y": -1.8853424841,
				"z": 0.7420962718,
				"element": "H" 
			},
			{
				"x": -2.7341632805,
				"y": 1.0548149398,
				"z": 4.3348200878,
				"element": "H" 
			},
			{
				"x": -3.08763904,
				"y": 3.3843484503,
				"z": 5.1673222322,
				"element": "H" 
			},
			{
				"x": -2.8896583222,
				"y": 5.2961884682,
				"z": 3.5922074561,
				"element": "H" 
			},
			{
				"x": -2.3439186571,
				"y": 4.8878209722,
				"z": 1.2044910986,
				"element": "H" 
			},
			{
				"x": -1.9970313273,
				"y": 2.5656447181,
				"z": 0.3906624143,
				"element": "H" 
			},
			{
				"x": -1.7188436781,
				"y": 0.5911827815,
				"z": -2.0834318645,
				"element": "H" 
			},
			{
				"x": -2.9978551608,
				"y": 0.424020244,
				"z": -4.1969940583,
				"element": "H" 
			},
			{
				"x": -4.5083310077,
				"y": -1.5110283504,
				"z": -4.5916354656,
				"element": "H" 
			},
			{
				"x": -4.7357581532,
				"y": -3.2730507694,
				"z": -2.8514548108,
				"element": "H" 
			},
			{
				"x": -3.462864173,
				"y": -3.096057953,
				"z": -0.7340513899,
				"element": "H" 
			},
			{
				"x": 3.7163585112,
				"y": -3.5777396169,
				"z": 0.7899160816,
				"element": "H" 
			},
			{
				"x": 6.0110641976,
				"y": -4.4590110505,
				"z": 0.4171843992,
				"element": "H" 
			},
			{
				"x": 7.7956542978,
				"y": -2.9521873532,
				"z": -0.425974617,
				"element": "H" 
			},
			{
				"x": 7.2883295518,
				"y": -0.5654966176,
				"z": -0.8966097379,
				"element": "H" 
			},
			{
				"x": 4.9760716714,
				"y": 0.305409368,
				"z": -0.5171799317,
				"element": "H" 
			}
		],
		 "valence_orbital": [ 
			{
				"type": "occ",
				"energy": -0.25784,
				"method": "rhf"
			},
			{
				"type": "occ",
				"energy": -0.25696,
				"method": "rhf"
			},
			{
				"type": "occ",
				"energy": -0.25657,
				"method": "rhf"
			},
			{
				"type": "occ",
				"energy": -0.25329,
				"method": "rhf"
			},
			{
				"type": "occ",
				"energy": -0.24874,
				"method": "rhf"
			},
			{
				"type": "unocc",
				"energy": -0.04539,
				"method": "rhf"
			},
			{
				"type": "unocc",
				"energy": -0.04331,
				"method": "rhf"
			},
			{
				"type": "unocc",
				"energy": -0.00908,
				"method": "rhf"
			},
			{
				"type": "unocc",
				"energy": -0.00619,
				"method": "rhf"
			},
			{
				"type": "unocc",
				"energy": -0.00605,
				"method": "rhf"
			}
		],
		"cosmo_sigma_profile": { 
			"-0.025": 0.0,
			"-0.024": 0.0,
			"-0.023": 0.0,
			"-0.022": 0.0,
			"-0.021": 0.0,
			"-0.02": 0.0,
			"-0.019": 0.0,
			"-0.018": 0.0,
			"-0.017": 0.0,
			"-0.016": 0.0,
			"-0.015": 0.0,
			"-0.014": 0.0,
			"-0.013": 0.0,
			"-0.012": 0.0,
			"-0.011": 0.0,
			"-0.01": 0.0,
			"-0.009": 0.0,
			"-0.008": 0.0,
			"-0.007": 3.96486239839,
			"-0.006": 26.2986759057,
			"-0.005": 39.4818447057,
			"-0.004": 39.1042239846,
			"-0.003": 32.2266748568,
			"-0.002": 32.4784342713,
			"-0.001": 29.0356869832,
			"0.0": 27.4732967619,
			"0.001": 34.0685953668,
			"0.002": 34.7105788005,
			"0.003": 35.6063403916,
			"0.004": 36.5146309095,
			"0.005": 19.1631094624,
			"0.006": 8.09396287358,
			"0.007": 2.75229297316,
			"0.008": 2.0124966818,
			"0.009": 3.11482655771,
			"0.01": 3.74369136236,
			"0.011": 5.32124876613,
			"0.012": 5.85792179537,
			"0.013": 0.119146428495,
			"0.014": 0.0,
			"0.015": 0.0,
			"0.016": 0.0,
			"0.017": 0.0,
			"0.018": 0.0,
			"0.019": 0.0,
			"0.02": 0.0,
			"0.021": 0.0,
			"0.022": 0.0,
			"0.023": 0.0,
			"0.024": 0.0,
			"0.025": 0.0
		}
	}
}
