{
	 "smiles": "O=C(CC#N)N1CCCC1", 
	 "Tm": 345.65, 
	 "num_atms": 20, 
	 "gaussian": { 
		 "optdone": 1, 
		 "sigma_profile": "yes", 
		 "theory": "DFT", 
		 "functional": "B3LYP", 
		 "basiset": "6-31G**", 
		 "properties": { 
			 "R2extent": 1670.0514, 
			 "electric_dipole_moment_norm": 4.59631807211, 
			 "electric_quadrupole_moment_norm": 11.5735773795, 
			 "total_energy": -457.492756901, 
			 "HOMO_LUMO_gap": 0.25255, 
			 "cosmo_polarized_energy": -14.08, 
			 "cosmo_cavitation_energy": 23.47, 
			 "cosmo_dispersion_energy": -16.72, 
			 "cosmo_repulsion_energy": 1.38, 
			 "cosmo_total_nonelectrostatic_energy": 8.14, 
			 "SMD_solvation_energy": 4.94 
		},
		"coords": [
			{
				"x": -0.8307634058,
				"y": -1.4527260469,
				"z": 2.0925055451,
				"element": "O" 
			},
			{
				"x": -0.5677283382,
				"y": -0.3652362666,
				"z": 1.5948423651,
				"element": "C" 
			},
			{
				"x": 0.0329883335,
				"y": 0.7628126108,
				"z": 2.4710405776,
				"element": "C" 
			},
			{
				"x": 1.4105705066,
				"y": 1.1068542894,
				"z": 2.1188875435,
				"element": "C" 
			},
			{
				"x": 2.4994504194,
				"y": 1.3764925008,
				"z": 1.8189857946,
				"element": "N" 
			},
			{
				"x": -0.7978204791,
				"y": -0.0702894335,
				"z": 0.2905390633,
				"element": "N" 
			},
			{
				"x": -1.4081473923,
				"y": -1.0830909929,
				"z": -0.5894830173,
				"element": "C" 
			},
			{
				"x": -1.8061324472,
				"y": -0.2808029527,
				"z": -1.8354563707,
				"element": "C" 
			},
			{
				"x": -0.7619812515,
				"y": 0.8476845901,
				"z": -1.8807836346,
				"element": "C" 
			},
			{
				"x": -0.5643557551,
				"y": 1.2097853532,
				"z": -0.4005145856,
				"element": "C" 
			},
			{
				"x": -0.5808845165,
				"y": 1.6696196725,
				"z": 2.4115116359,
				"element": "H" 
			},
			{
				"x": 0.0013737516,
				"y": 0.3950429446,
				"z": 3.49908345,
				"element": "H" 
			},
			{
				"x": -0.6747820995,
				"y": -1.8657403828,
				"z": -0.8205922228,
				"element": "H" 
			},
			{
				"x": -2.2482288724,
				"y": -1.5627363312,
				"z": -0.0813492865,
				"element": "H" 
			},
			{
				"x": -1.8142553645,
				"y": -0.8943887342,
				"z": -2.7397914007,
				"element": "H" 
			},
			{
				"x": -2.8102575594,
				"y": 0.1395920867,
				"z": -1.7078150048,
				"element": "H" 
			},
			{
				"x": -1.0752822514,
				"y": 1.7081658476,
				"z": -2.4774534013,
				"element": "H" 
			},
			{
				"x": 0.1800563343,
				"y": 0.4746663465,
				"z": -2.2973253927,
				"element": "H" 
			},
			{
				"x": -1.2983130729,
				"y": 1.9635861964,
				"z": -0.0800678608,
				"element": "H" 
			},
			{
				"x": 0.4365934603,
				"y": 1.598608702,
				"z": -0.1975637973,
				"element": "H" 
			}
		],
		 "valence_orbital": [ 
			{
				"type": "occ",
				"energy": -0.34922,
				"method": "rhf"
			},
			{
				"type": "occ",
				"energy": -0.33711,
				"method": "rhf"
			},
			{
				"type": "occ",
				"energy": -0.32899,
				"method": "rhf"
			},
			{
				"type": "occ",
				"energy": -0.25885,
				"method": "rhf"
			},
			{
				"type": "occ",
				"energy": -0.24976,
				"method": "rhf"
			},
			{
				"type": "unocc",
				"energy": 0.00279,
				"method": "rhf"
			},
			{
				"type": "unocc",
				"energy": 0.03042,
				"method": "rhf"
			},
			{
				"type": "unocc",
				"energy": 0.04047,
				"method": "rhf"
			},
			{
				"type": "unocc",
				"energy": 0.06813,
				"method": "rhf"
			},
			{
				"type": "unocc",
				"energy": 0.09324,
				"method": "rhf"
			}
		],
		"cosmo_sigma_profile": { 
			"-0.025": 0.0,
			"-0.024": 0.0,
			"-0.023": 0.0,
			"-0.022": 0.0,
			"-0.021": 0.0,
			"-0.02": 0.0,
			"-0.019": 0.0,
			"-0.018": 0.0,
			"-0.017": 0.0,
			"-0.016": 0.0,
			"-0.015": 0.0,
			"-0.014": 0.0,
			"-0.013": 0.0,
			"-0.012": 0.0,
			"-0.011": 0.0,
			"-0.01": 1.30273014554,
			"-0.009": 5.58187363427,
			"-0.008": 4.69147222963,
			"-0.007": 4.53237486999,
			"-0.006": 6.01144720496,
			"-0.005": 8.34763672003,
			"-0.004": 23.5687274194,
			"-0.003": 27.9663164087,
			"-0.002": 20.9908065703,
			"-0.001": 15.5740453555,
			"0.0": 11.2220588761,
			"0.001": 3.21906563902,
			"0.002": 2.91425947957,
			"0.003": 3.56393879207,
			"0.004": 3.70125331285,
			"0.005": 2.93705881189,
			"0.006": 3.21792687396,
			"0.007": 5.04028434253,
			"0.008": 3.94779493556,
			"0.009": 4.38667682907,
			"0.01": 3.53171551127,
			"0.011": 5.17731540602,
			"0.012": 4.07704605649,
			"0.013": 6.92139582947,
			"0.014": 2.74381596641,
			"0.015": 0.0759885074871,
			"0.016": 0.0,
			"0.017": 0.0,
			"0.018": 0.0,
			"0.019": 0.0,
			"0.02": 0.0,
			"0.021": 0.0,
			"0.022": 0.0,
			"0.023": 0.0,
			"0.024": 0.0,
			"0.025": 0.0
		}
	}
}
