{
	 "smiles": "FC1=CC2=C(C=C1)N=C(N2)C1=NC=CC=C1", 
	 "Tm": 433.15, 
	 "num_atms": 24, 
	 "gaussian": { 
		 "optdone": 1, 
		 "sigma_profile": "yes", 
		 "theory": "DFT", 
		 "functional": "B3LYP", 
		 "basiset": "6-31G**", 
		 "properties": { 
			 "R2extent": 5104.8585, 
			 "electric_dipole_moment_norm": 3.44754019701, 
			 "electric_quadrupole_moment_norm": 6.84257563714, 
			 "total_energy": -726.208716317, 
			 "HOMO_LUMO_gap": 0.15683, 
			 "cosmo_polarized_energy": -10.44, 
			 "cosmo_cavitation_energy": 29.46, 
			 "cosmo_dispersion_energy": -22.04, 
			 "cosmo_repulsion_energy": 1.65, 
			 "cosmo_total_nonelectrostatic_energy": 9.07, 
			 "SMD_solvation_energy": 2.35 
		},
		"coords": [
			{
				"x": 2.4474312654,
				"y": 4.56278951,
				"z": 2.0870544748,
				"element": "F" 
			},
			{
				"x": 1.4807255225,
				"y": 3.8450546341,
				"z": 1.4728017509,
				"element": "C" 
			},
			{
				"x": 1.8334715953,
				"y": 2.6497009927,
				"z": 0.8657987021,
				"element": "C" 
			},
			{
				"x": 0.7857845772,
				"y": 1.9595376999,
				"z": 0.2501615912,
				"element": "C" 
			},
			{
				"x": -0.5529320978,
				"y": 2.4412412766,
				"z": 0.2411933005,
				"element": "C" 
			},
			{
				"x": -0.8561755752,
				"y": 3.6573755946,
				"z": 0.8704984942,
				"element": "C" 
			},
			{
				"x": 0.1724616685,
				"y": 4.3576061932,
				"z": 1.4878564337,
				"element": "C" 
			},
			{
				"x": -1.37736537,
				"y": 1.5608659748,
				"z": -0.4355208792,
				"element": "N" 
			},
			{
				"x": -0.5819085268,
				"y": 0.5858656995,
				"z": -0.8229074068,
				"element": "C" 
			},
			{
				"x": 0.728872588,
				"y": 0.7710583994,
				"z": -0.4396170767,
				"element": "N" 
			},
			{
				"x": -0.9682460695,
				"y": -0.6043450759,
				"z": -1.5833520973,
				"element": "C" 
			},
			{
				"x": 0.0262179358,
				"y": -1.4680724267,
				"z": -1.8650777854,
				"element": "N" 
			},
			{
				"x": -0.2858445983,
				"y": -2.5671268608,
				"z": -2.557766173,
				"element": "C" 
			},
			{
				"x": -1.5777663705,
				"y": -2.8600071649,
				"z": -2.998441354,
				"element": "C" 
			},
			{
				"x": -2.6006126578,
				"y": -1.9569633469,
				"z": -2.7003083056,
				"element": "C" 
			},
			{
				"x": -2.2969618951,
				"y": -0.8066575874,
				"z": -1.9801875534,
				"element": "C" 
			},
			{
				"x": 2.8590625025,
				"y": 2.2994550437,
				"z": 0.8834089868,
				"element": "H" 
			},
			{
				"x": -1.8730572685,
				"y": 4.0351166828,
				"z": 0.8704282302,
				"element": "H" 
			},
			{
				"x": -0.0058184613,
				"y": 5.3025349191,
				"z": 1.988993296,
				"element": "H" 
			},
			{
				"x": 1.4635029152,
				"y": 0.1141437501,
				"z": -0.6584982046,
				"element": "H" 
			},
			{
				"x": 0.5364539266,
				"y": -3.2474911326,
				"z": -2.7714312675,
				"element": "H" 
			},
			{
				"x": -1.7721678306,
				"y": -3.7691852996,
				"z": -3.5579412249,
				"element": "H" 
			},
			{
				"x": -3.6192867255,
				"y": -2.1478590852,
				"z": -3.0249407647,
				"element": "H" 
			},
			{
				"x": -3.0462410501,
				"y": -0.0685383903,
				"z": -1.7181051673,
				"element": "H" 
			}
		],
		 "valence_orbital": [ 
			{
				"type": "occ",
				"energy": -0.2796,
				"method": "rhf"
			},
			{
				"type": "occ",
				"energy": -0.27587,
				"method": "rhf"
			},
			{
				"type": "occ",
				"energy": -0.27225,
				"method": "rhf"
			},
			{
				"type": "occ",
				"energy": -0.23318,
				"method": "rhf"
			},
			{
				"type": "occ",
				"energy": -0.21342,
				"method": "rhf"
			},
			{
				"type": "unocc",
				"energy": -0.05659,
				"method": "rhf"
			},
			{
				"type": "unocc",
				"energy": -0.02912,
				"method": "rhf"
			},
			{
				"type": "unocc",
				"energy": 0.00329,
				"method": "rhf"
			},
			{
				"type": "unocc",
				"energy": 0.02611,
				"method": "rhf"
			},
			{
				"type": "unocc",
				"energy": 0.06969,
				"method": "rhf"
			}
		],
		"cosmo_sigma_profile": { 
			"-0.025": 0.0,
			"-0.024": 0.0,
			"-0.023": 0.0,
			"-0.022": 0.0,
			"-0.021": 0.0,
			"-0.02": 0.0,
			"-0.019": 0.0,
			"-0.018": 0.0,
			"-0.017": 0.0,
			"-0.016": 0.060102012933,
			"-0.015": 0.855065277123,
			"-0.014": 0.873728184222,
			"-0.013": 1.0079395201,
			"-0.012": 0.400883029197,
			"-0.011": 0.804635276096,
			"-0.01": 1.18622065318,
			"-0.009": 1.03544103905,
			"-0.008": 3.09608971881,
			"-0.007": 11.1720085779,
			"-0.006": 14.6637801949,
			"-0.005": 13.4802143892,
			"-0.004": 11.6627071458,
			"-0.003": 9.79259580808,
			"-0.002": 10.5620917804,
			"-0.001": 12.6086489121,
			"0.0": 18.586198602,
			"0.001": 28.9486552479,
			"0.002": 29.199182602,
			"0.003": 20.3764843091,
			"0.004": 19.678326971,
			"0.005": 9.84743258717,
			"0.006": 3.97941131259,
			"0.007": 2.70533219873,
			"0.008": 2.66948877196,
			"0.009": 2.96283805562,
			"0.01": 1.34676742091,
			"0.011": 1.05869588762,
			"0.012": 0.641725708224,
			"0.013": 1.30579708458,
			"0.014": 0.988627114702,
			"0.015": 0.720835875549,
			"0.016": 0.00529914127598,
			"0.017": 0.0,
			"0.018": 0.0,
			"0.019": 0.0,
			"0.02": 0.0,
			"0.021": 0.0,
			"0.022": 0.0,
			"0.023": 0.0,
			"0.024": 0.0,
			"0.025": 0.0
		}
	}
}
