{
	 "smiles": "C[C@@H](CCC(O)=O)[C@H]1CCC2C3C(C[C@H](C(O)=O)[C@]12C)[C@@]1(C)CC[C@H](C[C@H]1[C@@H](Br)C3=O)C(O)=O", 
	 "Tm": 503.15, 
	 "num_atms": 71, 
	 "gaussian": { 
		 "optdone": 1, 
		 "sigma_profile": "yes", 
		 "theory": "DFT", 
		 "functional": "B3LYP", 
		 "basiset": "6-31G**", 
		 "properties": { 
			 "R2extent": 22718.3025, 
			 "electric_dipole_moment_norm": 2.65973639671, 
			 "electric_quadrupole_moment_norm": 51.6715532386, 
			 "total_energy": -4111.06737832, 
			 "HOMO_LUMO_gap": 0.21708, 
			 "cosmo_polarized_energy": -40.24, 
			 "cosmo_cavitation_energy": 63.67, 
			 "cosmo_dispersion_energy": -42.32, 
			 "cosmo_repulsion_energy": 3.09, 
			 "cosmo_total_nonelectrostatic_energy": 24.45, 
			 "SMD_solvation_energy": 11.68 
		},
		"coords": [
			{
				"x": -3.1044434072,
				"y": -2.1337103053,
				"z": -3.6659386492,
				"element": "C" 
			},
			{
				"x": -1.7289069242,
				"y": -2.3134221457,
				"z": -3.0007283507,
				"element": "C" 
			},
			{
				"x": -0.6503485478,
				"y": -2.6245297665,
				"z": -4.0680518524,
				"element": "C" 
			},
			{
				"x": -0.8313913898,
				"y": -3.9524923608,
				"z": -4.8211103795,
				"element": "C" 
			},
			{
				"x": -1.5838048533,
				"y": -3.8284919899,
				"z": -6.1438119801,
				"element": "C" 
			},
			{
				"x": -1.9568510127,
				"y": -5.0093059246,
				"z": -6.7095822542,
				"element": "O" 
			},
			{
				"x": -1.8231079682,
				"y": -2.791759519,
				"z": -6.7107426277,
				"element": "O" 
			},
			{
				"x": -1.2657733129,
				"y": -1.0779672375,
				"z": -2.1521020817,
				"element": "C" 
			},
			{
				"x": -2.4072198721,
				"y": -0.2472596167,
				"z": -1.5194686072,
				"element": "C" 
			},
			{
				"x": -2.6137871915,
				"y": -0.847312026,
				"z": -0.1268531551,
				"element": "C" 
			},
			{
				"x": -1.1937251644,
				"y": -1.1862717736,
				"z": 0.3847403903,
				"element": "C" 
			},
			{
				"x": -0.6408749177,
				"y": -0.1317442017,
				"z": 1.373127678,
				"element": "C" 
			},
			{
				"x": -0.3479451505,
				"y": 1.2334760987,
				"z": 0.7196175164,
				"element": "C" 
			},
			{
				"x": 0.5968322605,
				"y": 1.0533542281,
				"z": -0.5113257393,
				"element": "C" 
			},
			{
				"x": 0.9239739831,
				"y": -0.4153748718,
				"z": -0.8696453869,
				"element": "C" 
			},
			{
				"x": 1.7653429693,
				"y": -0.5150955336,
				"z": -2.1363347234,
				"element": "C" 
			},
			{
				"x": 1.5690463982,
				"y": 0.5082479482,
				"z": -3.0063179655,
				"element": "O" 
			},
			{
				"x": 2.5401398223,
				"y": -1.4154010661,
				"z": -2.3861840772,
				"element": "O" 
			},
			{
				"x": -0.3057331752,
				"y": -1.4041397077,
				"z": -0.9138136506,
				"element": "C" 
			},
			{
				"x": 0.2477674721,
				"y": -2.846249193,
				"z": -0.8474025793,
				"element": "C" 
			},
			{
				"x": 0.0458494233,
				"y": 2.3298689049,
				"z": 1.7890610798,
				"element": "C" 
			},
			{
				"x": 0.8680396314,
				"y": 3.4666129007,
				"z": 1.148426335,
				"element": "C" 
			},
			{
				"x": -1.279130218,
				"y": 2.9359757113,
				"z": 2.3365152522,
				"element": "C" 
			},
			{
				"x": -1.1191809358,
				"y": 3.7436532554,
				"z": 3.629756052,
				"element": "C" 
			},
			{
				"x": -0.5270557599,
				"y": 2.900236103,
				"z": 4.7856293367,
				"element": "C" 
			},
			{
				"x": 0.0348265337,
				"y": 1.5475980157,
				"z": 4.2808878848,
				"element": "C" 
			},
			{
				"x": 0.8715942346,
				"y": 1.7297460829,
				"z": 3.0007563742,
				"element": "C" 
			},
			{
				"x": 1.5606540205,
				"y": 0.4257082321,
				"z": 2.5682207876,
				"element": "C" 
			},
			{
				"x": 2.876691653,
				"y": -0.2224080497,
				"z": 3.8924191789,
				"element": "Br" 
			},
			{
				"x": 0.5495231434,
				"y": -0.6614659074,
				"z": 2.189567996,
				"element": "C" 
			},
			{
				"x": 0.6570554078,
				"y": -1.8235755371,
				"z": 2.5153395903,
				"element": "O" 
			},
			{
				"x": -1.5576794935,
				"y": 2.6514796953,
				"z": 5.8940244389,
				"element": "C" 
			},
			{
				"x": -1.075906888,
				"y": 2.0402737389,
				"z": 7.0086155872,
				"element": "O" 
			},
			{
				"x": -2.7272541709,
				"y": 2.9391504003,
				"z": 5.8298879681,
				"element": "O" 
			},
			{
				"x": -3.907619529,
				"y": -2.0463202343,
				"z": -2.9289095957,
				"element": "H" 
			},
			{
				"x": -3.3480575634,
				"y": -2.9971624831,
				"z": -4.291512062,
				"element": "H" 
			},
			{
				"x": -3.1320035707,
				"y": -1.2524330776,
				"z": -4.3153925579,
				"element": "H" 
			},
			{
				"x": -1.8135729856,
				"y": -3.1884546354,
				"z": -2.3449391148,
				"element": "H" 
			},
			{
				"x": 0.336547966,
				"y": -2.6269778937,
				"z": -3.6009629298,
				"element": "H" 
			},
			{
				"x": -0.6451584041,
				"y": -1.8174131593,
				"z": -4.8101487594,
				"element": "H" 
			},
			{
				"x": 0.1496516481,
				"y": -4.3798901943,
				"z": -5.0713005153,
				"element": "H" 
			},
			{
				"x": -1.3295469662,
				"y": -4.7012256275,
				"z": -4.1893916389,
				"element": "H" 
			},
			{
				"x": -1.6991098995,
				"y": -5.7479429433,
				"z": -6.1398034283,
				"element": "H" 
			},
			{
				"x": -0.7321372479,
				"y": -0.4301820875,
				"z": -2.8556213925,
				"element": "H" 
			},
			{
				"x": -3.3193920098,
				"y": -0.2298912859,
				"z": -2.1172183524,
				"element": "H" 
			},
			{
				"x": -2.0853603815,
				"y": 0.7959959954,
				"z": -1.4359105555,
				"element": "H" 
			},
			{
				"x": -3.1998955122,
				"y": -1.7708259234,
				"z": -0.2075228851,
				"element": "H" 
			},
			{
				"x": -3.1652228459,
				"y": -0.185383005,
				"z": 0.5506618581,
				"element": "H" 
			},
			{
				"x": -1.2171632783,
				"y": -2.1225680221,
				"z": 0.9468989474,
				"element": "H" 
			},
			{
				"x": -1.4229139032,
				"y": 0.0118398305,
				"z": 2.1336971288,
				"element": "H" 
			},
			{
				"x": -1.3035884638,
				"y": 1.5817305985,
				"z": 0.3174231342,
				"element": "H" 
			},
			{
				"x": 0.1525817325,
				"y": 1.544576259,
				"z": -1.3795398145,
				"element": "H" 
			},
			{
				"x": 1.5512592712,
				"y": 1.5636249576,
				"z": -0.3585105405,
				"element": "H" 
			},
			{
				"x": 1.5925670716,
				"y": -0.8241261104,
				"z": -0.1036624677,
				"element": "H" 
			},
			{
				"x": 2.1364387218,
				"y": 0.3166367349,
				"z": -3.7727985163,
				"element": "H" 
			},
			{
				"x": -0.56368564,
				"y": -3.5776479765,
				"z": -0.8039604479,
				"element": "H" 
			},
			{
				"x": 0.8260617708,
				"y": -2.9647596517,
				"z": 0.0733445519,
				"element": "H" 
			},
			{
				"x": 0.9056530672,
				"y": -3.0989889684,
				"z": -1.6787733138,
				"element": "H" 
			},
			{
				"x": 0.9523073902,
				"y": 4.314091203,
				"z": 1.8353403785,
				"element": "H" 
			},
			{
				"x": 1.8886707265,
				"y": 3.1582066281,
				"z": 0.9021635133,
				"element": "H" 
			},
			{
				"x": 0.3971323297,
				"y": 3.8302937678,
				"z": 0.2289780325,
				"element": "H" 
			},
			{
				"x": -1.7154676288,
				"y": 3.5736954227,
				"z": 1.5583210597,
				"element": "H" 
			},
			{
				"x": -2.0094962545,
				"y": 2.1366440715,
				"z": 2.5124747268,
				"element": "H" 
			},
			{
				"x": -2.0947560122,
				"y": 4.1259759396,
				"z": 3.9396132337,
				"element": "H" 
			},
			{
				"x": -0.4794580614,
				"y": 4.6138889821,
				"z": 3.4505787231,
				"element": "H" 
			},
			{
				"x": 0.304079563,
				"y": 3.4527381854,
				"z": 5.2472391504,
				"element": "H" 
			},
			{
				"x": 0.6674690449,
				"y": 1.0792543966,
				"z": 5.0416606316,
				"element": "H" 
			},
			{
				"x": -0.7936906962,
				"y": 0.8522468153,
				"z": 4.1052099562,
				"element": "H" 
			},
			{
				"x": 1.6706331883,
				"y": 2.4400461202,
				"z": 3.243050368,
				"element": "H" 
			},
			{
				"x": 2.1752792885,
				"y": 0.6255406275,
				"z": 1.6869609167,
				"element": "H" 
			},
			{
				"x": -0.1263525257,
				"y": 1.8751621621,
				"z": 6.9214831912,
				"element": "H" 
			}
		],
		 "valence_orbital": [ 
			{
				"type": "occ",
				"energy": -0.28112,
				"method": "rhf"
			},
			{
				"type": "occ",
				"energy": -0.27622,
				"method": "rhf"
			},
			{
				"type": "occ",
				"energy": -0.27549,
				"method": "rhf"
			},
			{
				"type": "occ",
				"energy": -0.27336,
				"method": "rhf"
			},
			{
				"type": "occ",
				"energy": -0.25954,
				"method": "rhf"
			},
			{
				"type": "unocc",
				"energy": -0.04246,
				"method": "rhf"
			},
			{
				"type": "unocc",
				"energy": -0.00901,
				"method": "rhf"
			},
			{
				"type": "unocc",
				"energy": -0.00603,
				"method": "rhf"
			},
			{
				"type": "unocc",
				"energy": 0.00309,
				"method": "rhf"
			},
			{
				"type": "unocc",
				"energy": 0.00874,
				"method": "rhf"
			}
		],
		"cosmo_sigma_profile": { 
			"-0.025": 0.0,
			"-0.024": 0.0,
			"-0.023": 0.0,
			"-0.022": 0.0,
			"-0.021": 0.0,
			"-0.02": 0.0,
			"-0.019": 0.378207757238,
			"-0.018": 2.66218970987,
			"-0.017": 2.82344725552,
			"-0.016": 2.71486060424,
			"-0.015": 3.60061076725,
			"-0.014": 2.38236906442,
			"-0.013": 2.86421876558,
			"-0.012": 2.46946416309,
			"-0.011": 3.10046126265,
			"-0.01": 4.36128358063,
			"-0.009": 5.95584143197,
			"-0.008": 7.41190747841,
			"-0.007": 11.9559848076,
			"-0.006": 16.6033832133,
			"-0.005": 21.0150731682,
			"-0.004": 28.1817970397,
			"-0.003": 42.6783131364,
			"-0.002": 48.3228803041,
			"-0.001": 49.698431622,
			"0.0": 43.7119977728,
			"0.001": 34.0900406392,
			"0.002": 19.3154861934,
			"0.003": 13.3958615303,
			"0.004": 13.6711564503,
			"0.005": 15.8937878156,
			"0.006": 13.5064138939,
			"0.007": 9.79753174632,
			"0.008": 11.0778905835,
			"0.009": 9.92568456709,
			"0.01": 12.4490750464,
			"0.011": 18.1910204728,
			"0.012": 16.2030142945,
			"0.013": 5.23737394623,
			"0.014": 0.298257582368,
			"0.015": 0.0,
			"0.016": 0.0,
			"0.017": 0.0,
			"0.018": 0.0,
			"0.019": 0.0,
			"0.02": 0.0,
			"0.021": 0.0,
			"0.022": 0.0,
			"0.023": 0.0,
			"0.024": 0.0,
			"0.025": 0.0
		}
	}
}
