{
	 "smiles": "COC1=C(NC(=O)C2=CC(F)=CC=C2)C=C(N)C=C1", 
	 "Tm": 374.15, 
	 "num_atms": 32, 
	 "gaussian": { 
		 "optdone": 1, 
		 "sigma_profile": "yes", 
		 "theory": "DFT", 
		 "functional": "B3LYP", 
		 "basiset": "6-31G**", 
		 "properties": { 
			 "R2extent": 5878.9083, 
			 "electric_dipole_moment_norm": 5.7388432885, 
			 "electric_quadrupole_moment_norm": 15.2226423856, 
			 "total_energy": -901.110456604, 
			 "HOMO_LUMO_gap": 0.14731, 
			 "cosmo_polarized_energy": -16.54, 
			 "cosmo_cavitation_energy": 36.93, 
			 "cosmo_dispersion_energy": -25.65, 
			 "cosmo_repulsion_energy": 1.98, 
			 "cosmo_total_nonelectrostatic_energy": 13.25, 
			 "SMD_solvation_energy": 8.02 
		},
		"coords": [
			{
				"x": -0.5665242905,
				"y": 0.440795731,
				"z": -4.4396522754,
				"element": "C" 
			},
			{
				"x": -0.6043236025,
				"y": 0.7204704743,
				"z": -3.050835913,
				"element": "O" 
			},
			{
				"x": 0.39013208,
				"y": 0.1931171664,
				"z": -2.2614780751,
				"element": "C" 
			},
			{
				"x": 0.3445191452,
				"y": 0.5751949139,
				"z": -0.9010568387,
				"element": "C" 
			},
			{
				"x": -0.6922845665,
				"y": 1.4531449844,
				"z": -0.5255899552,
				"element": "N" 
			},
			{
				"x": -1.2571530137,
				"y": 1.7640965386,
				"z": 0.6956595783,
				"element": "C" 
			},
			{
				"x": -1.8554081293,
				"y": 2.8250835031,
				"z": 0.8393008287,
				"element": "O" 
			},
			{
				"x": -1.2108483014,
				"y": 0.7619639832,
				"z": 1.8153681863,
				"element": "C" 
			},
			{
				"x": -1.1640460855,
				"y": 1.2661648806,
				"z": 3.12097297,
				"element": "C" 
			},
			{
				"x": -1.2094316344,
				"y": 0.3770300126,
				"z": 4.185219532,
				"element": "C" 
			},
			{
				"x": -1.14287331,
				"y": 0.8597924462,
				"z": 5.443563261,
				"element": "F" 
			},
			{
				"x": -1.3316407626,
				"y": -0.9964182854,
				"z": 3.999117428,
				"element": "C" 
			},
			{
				"x": -1.4072054615,
				"y": -1.4866919472,
				"z": 2.6941422769,
				"element": "C" 
			},
			{
				"x": -1.3407661651,
				"y": -0.6182221954,
				"z": 1.6042852177,
				"element": "C" 
			},
			{
				"x": 1.3387489124,
				"y": 0.1337139677,
				"z": -0.0283853972,
				"element": "C" 
			},
			{
				"x": 2.3542186609,
				"y": -0.733655843,
				"z": -0.4646413136,
				"element": "C" 
			},
			{
				"x": 3.3655142524,
				"y": -1.1307542954,
				"z": 0.42100913,
				"element": "N" 
			},
			{
				"x": 2.3763169908,
				"y": -1.1203653984,
				"z": -1.8098056129,
				"element": "C" 
			},
			{
				"x": 1.4088374605,
				"y": -0.6482291887,
				"z": -2.7007961999,
				"element": "C" 
			},
			{
				"x": -0.6738171387,
				"y": -0.6337537342,
				"z": -4.6377757016,
				"element": "H" 
			},
			{
				"x": -1.4125598981,
				"y": 0.9713121968,
				"z": -4.8794098415,
				"element": "H" 
			},
			{
				"x": 0.36453845,
				"y": 0.7977271671,
				"z": -4.8991318642,
				"element": "H" 
			},
			{
				"x": -0.9990479857,
				"y": 2.0828384813,
				"z": -1.2581437177,
				"element": "H" 
			},
			{
				"x": -1.1078733167,
				"y": 2.3344539423,
				"z": 3.2944889996,
				"element": "H" 
			},
			{
				"x": -1.3746929646,
				"y": -1.6521736256,
				"z": 4.8620765277,
				"element": "H" 
			},
			{
				"x": -1.5215736753,
				"y": -2.55381437,
				"z": 2.5289560872,
				"element": "H" 
			},
			{
				"x": -1.4020681081,
				"y": -1.0080935193,
				"z": 0.5947682154,
				"element": "H" 
			},
			{
				"x": 1.3332540684,
				"y": 0.4730574867,
				"z": 1.0010691305,
				"element": "H" 
			},
			{
				"x": 3.8450577881,
				"y": -1.9797479294,
				"z": 0.1533863242,
				"element": "H" 
			},
			{
				"x": 3.0850445467,
				"y": -1.1612998041,
				"z": 1.3921350525,
				"element": "H" 
			},
			{
				"x": 3.1606972423,
				"y": -1.7794566927,
				"z": -2.1716234554,
				"element": "H" 
			},
			{
				"x": 1.4558588126,
				"y": -0.9550810474,
				"z": -3.7390925846,
				"element": "H" 
			}
		],
		 "valence_orbital": [ 
			{
				"type": "occ",
				"energy": -0.26928,
				"method": "rhf"
			},
			{
				"type": "occ",
				"energy": -0.25124,
				"method": "rhf"
			},
			{
				"type": "occ",
				"energy": -0.24749,
				"method": "rhf"
			},
			{
				"type": "occ",
				"energy": -0.2245,
				"method": "rhf"
			},
			{
				"type": "occ",
				"energy": -0.18959,
				"method": "rhf"
			},
			{
				"type": "unocc",
				"energy": -0.04228,
				"method": "rhf"
			},
			{
				"type": "unocc",
				"energy": -0.00904,
				"method": "rhf"
			},
			{
				"type": "unocc",
				"energy": 0.00127,
				"method": "rhf"
			},
			{
				"type": "unocc",
				"energy": 0.02341,
				"method": "rhf"
			},
			{
				"type": "unocc",
				"energy": 0.05873,
				"method": "rhf"
			}
		],
		"cosmo_sigma_profile": { 
			"-0.025": 0.0,
			"-0.024": 0.0,
			"-0.023": 0.0,
			"-0.022": 0.0,
			"-0.021": 0.0,
			"-0.02": 0.0,
			"-0.019": 0.0,
			"-0.018": 0.0,
			"-0.017": 0.0,
			"-0.016": 0.0,
			"-0.015": 0.0,
			"-0.014": 0.0,
			"-0.013": 0.0672765627274,
			"-0.012": 1.92059125298,
			"-0.011": 3.13645290991,
			"-0.01": 3.7861346338,
			"-0.009": 3.3072125795,
			"-0.008": 4.59370005556,
			"-0.007": 8.52484003995,
			"-0.006": 16.0466417448,
			"-0.005": 23.5992474781,
			"-0.004": 21.361745183,
			"-0.003": 21.5983639786,
			"-0.002": 15.8860942182,
			"-0.001": 16.8339941225,
			"0.0": 18.7211405813,
			"0.001": 20.2315885499,
			"0.002": 19.6706466497,
			"0.003": 23.4671885303,
			"0.004": 21.5182053688,
			"0.005": 11.8616699762,
			"0.006": 10.5604334856,
			"0.007": 4.47057170749,
			"0.008": 3.05213714294,
			"0.009": 2.81809592171,
			"0.01": 2.80455757754,
			"0.011": 2.31396841261,
			"0.012": 3.61481416365,
			"0.013": 5.64484083722,
			"0.014": 2.37996715667,
			"0.015": 0.405319970047,
			"0.016": 0.136713236689,
			"0.017": 0.0,
			"0.018": 0.0,
			"0.019": 0.0,
			"0.02": 0.0,
			"0.021": 0.0,
			"0.022": 0.0,
			"0.023": 0.0,
			"0.024": 0.0,
			"0.025": 0.0
		}
	}
}
