{
	 "smiles": "FC1=CC=CC(F)=C1S(=O)(=O)N1CCN(CC1)C(=O)CCl", 
	 "Tm": 393.15, 
	 "num_atms": 34, 
	 "gaussian": { 
		 "optdone": 1, 
		 "sigma_profile": "yes", 
		 "theory": "DFT", 
		 "functional": "B3LYP", 
		 "basiset": "6-31G**", 
		 "properties": { 
			 "R2extent": 8516.0716, 
			 "electric_dipole_moment_norm": 5.54635972598, 
			 "electric_quadrupole_moment_norm": 32.1332974719, 
			 "total_energy": -1858.25029265, 
			 "HOMO_LUMO_gap": 0.1997, 
			 "cosmo_polarized_energy": -21.35, 
			 "cosmo_cavitation_energy": 39.96, 
			 "cosmo_dispersion_energy": -28.56, 
			 "cosmo_repulsion_energy": 2.11, 
			 "cosmo_total_nonelectrostatic_energy": 13.51, 
			 "SMD_solvation_energy": 5.91 
		},
		"coords": [
			{
				"x": 0.9768377958,
				"y": -1.7037126432,
				"z": -2.2149515803,
				"element": "F" 
			},
			{
				"x": -0.2384787182,
				"y": -1.923234804,
				"z": -2.7574948103,
				"element": "C" 
			},
			{
				"x": -0.5309061239,
				"y": -3.2034555989,
				"z": -3.2001591845,
				"element": "C" 
			},
			{
				"x": -1.788220148,
				"y": -3.443036277,
				"z": -3.756949487,
				"element": "C" 
			},
			{
				"x": -2.7235054696,
				"y": -2.417782229,
				"z": -3.859244877,
				"element": "C" 
			},
			{
				"x": -2.3966120957,
				"y": -1.1422856478,
				"z": -3.4026504857,
				"element": "C" 
			},
			{
				"x": -3.3220849285,
				"y": -0.1892723911,
				"z": -3.5311157552,
				"element": "F" 
			},
			{
				"x": -1.1466464339,
				"y": -0.8580719021,
				"z": -2.8315171699,
				"element": "C" 
			},
			{
				"x": -0.6441959594,
				"y": 0.7941193416,
				"z": -2.2752462977,
				"element": "S" 
			},
			{
				"x": 0.5640149887,
				"y": 1.1461030875,
				"z": -3.0187601296,
				"element": "O" 
			},
			{
				"x": -1.8403544815,
				"y": 1.6296015269,
				"z": -2.3002046047,
				"element": "O" 
			},
			{
				"x": -0.2016878119,
				"y": 0.5893157415,
				"z": -0.6902669261,
				"element": "N" 
			},
			{
				"x": 1.2027762187,
				"y": 0.604024546,
				"z": -0.2682687417,
				"element": "C" 
			},
			{
				"x": 1.4450190964,
				"y": -0.4732992341,
				"z": 0.7873124345,
				"element": "C" 
			},
			{
				"x": 0.4993688012,
				"y": -0.3127935779,
				"z": 1.9054685545,
				"element": "N" 
			},
			{
				"x": -0.6175863899,
				"y": 0.6182291776,
				"z": 1.7215160327,
				"element": "C" 
			},
			{
				"x": -1.248256972,
				"y": 0.4596585161,
				"z": 0.3398566098,
				"element": "C" 
			},
			{
				"x": 0.5766328875,
				"y": -1.007864735,
				"z": 3.0820748216,
				"element": "C" 
			},
			{
				"x": -0.2463598329,
				"y": -0.8969196358,
				"z": 3.984206883,
				"element": "O" 
			},
			{
				"x": 1.7467740513,
				"y": -1.9797236539,
				"z": 3.2476385152,
				"element": "C" 
			},
			{
				"x": 3.295179512,
				"y": -1.114163993,
				"z": 3.6470015279,
				"element": "Cl" 
			},
			{
				"x": 0.2198050515,
				"y": -3.9798126118,
				"z": -3.1090927664,
				"element": "H" 
			},
			{
				"x": -2.0379761854,
				"y": -4.4370696038,
				"z": -4.1131828174,
				"element": "H" 
			},
			{
				"x": -3.7052206209,
				"y": -2.5756925207,
				"z": -4.2907380592,
				"element": "H" 
			},
			{
				"x": 1.8327654317,
				"y": 0.4148666488,
				"z": -1.1361006829,
				"element": "H" 
			},
			{
				"x": 1.4741568469,
				"y": 1.5914441594,
				"z": 0.1263434084,
				"element": "H" 
			},
			{
				"x": 1.3219282096,
				"y": -1.4563299137,
				"z": 0.3159253659,
				"element": "H" 
			},
			{
				"x": 2.4749164436,
				"y": -0.3885640607,
				"z": 1.1468465636,
				"element": "H" 
			},
			{
				"x": -1.3514358192,
				"y": 0.4014360609,
				"z": 2.4980083217,
				"element": "H" 
			},
			{
				"x": -0.2778480154,
				"y": 1.6519205184,
				"z": 1.8641935813,
				"element": "H" 
			},
			{
				"x": -1.7347193306,
				"y": -0.523135846,
				"z": 0.2681134842,
				"element": "H" 
			},
			{
				"x": -2.0104789766,
				"y": 1.229710237,
				"z": 0.192504025,
				"element": "H" 
			},
			{
				"x": 1.9427534011,
				"y": -2.5815667973,
				"z": 2.3590057145,
				"element": "H" 
			},
			{
				"x": 1.5163455776,
				"y": -2.6190418847,
				"z": 4.096528532,
				"element": "H" 
			}
		],
		 "valence_orbital": [ 
			{
				"type": "occ",
				"energy": -0.29193,
				"method": "rhf"
			},
			{
				"type": "occ",
				"energy": -0.27338,
				"method": "rhf"
			},
			{
				"type": "occ",
				"energy": -0.26464,
				"method": "rhf"
			},
			{
				"type": "occ",
				"energy": -0.25875,
				"method": "rhf"
			},
			{
				"type": "occ",
				"energy": -0.25395,
				"method": "rhf"
			},
			{
				"type": "unocc",
				"energy": -0.05425,
				"method": "rhf"
			},
			{
				"type": "unocc",
				"energy": -0.02832,
				"method": "rhf"
			},
			{
				"type": "unocc",
				"energy": -0.02759,
				"method": "rhf"
			},
			{
				"type": "unocc",
				"energy": 0.02271,
				"method": "rhf"
			},
			{
				"type": "unocc",
				"energy": 0.04658,
				"method": "rhf"
			}
		],
		"cosmo_sigma_profile": { 
			"-0.025": 0.0,
			"-0.024": 0.0,
			"-0.023": 0.0,
			"-0.022": 0.0,
			"-0.021": 0.0,
			"-0.02": 0.0,
			"-0.019": 0.0,
			"-0.018": 0.0,
			"-0.017": 0.0,
			"-0.016": 0.0,
			"-0.015": 0.0,
			"-0.014": 0.0,
			"-0.013": 0.0,
			"-0.012": 0.0,
			"-0.011": 0.0,
			"-0.01": 0.0421159059848,
			"-0.009": 3.90473998734,
			"-0.008": 10.0525749451,
			"-0.007": 12.8107905741,
			"-0.006": 25.5864671143,
			"-0.005": 28.5099892652,
			"-0.004": 24.6836860943,
			"-0.003": 20.1205636128,
			"-0.002": 18.2158955301,
			"-0.001": 22.7964316036,
			"0.0": 20.1653644775,
			"0.001": 19.967425706,
			"0.002": 18.3820529551,
			"0.003": 17.1126497086,
			"0.004": 12.4361936583,
			"0.005": 13.0212773522,
			"0.006": 7.4476824041,
			"0.007": 5.56998748987,
			"0.008": 4.48561032022,
			"0.009": 6.68381297765,
			"0.01": 10.4198367394,
			"0.011": 8.84594897875,
			"0.012": 3.15433483057,
			"0.013": 4.63816635632,
			"0.014": 1.3098789046,
			"0.015": 0.0,
			"0.016": 0.0,
			"0.017": 0.0,
			"0.018": 0.0,
			"0.019": 0.0,
			"0.02": 0.0,
			"0.021": 0.0,
			"0.022": 0.0,
			"0.023": 0.0,
			"0.024": 0.0,
			"0.025": 0.0
		}
	}
}
