{
	 "smiles": "COC1=CC=C(C=C1OC)C1=CC(=O)C2=C(O1)C(OC)=C(OC)C=C2", 
	 "Tm": 480.15, 
	 "num_atms": 43, 
	 "gaussian": { 
		 "optdone": 1, 
		 "sigma_profile": "yes", 
		 "theory": "DFT", 
		 "functional": "B3LYP", 
		 "basiset": "6-31G**", 
		 "properties": { 
			 "R2extent": 12095.2455, 
			 "electric_dipole_moment_norm": 6.96611056257, 
			 "electric_quadrupole_moment_norm": 17.9801902604, 
			 "total_energy": -1186.14704795, 
			 "HOMO_LUMO_gap": 0.15864, 
			 "cosmo_polarized_energy": -17.63, 
			 "cosmo_cavitation_energy": 47.33, 
			 "cosmo_dispersion_energy": -32.98, 
			 "cosmo_repulsion_energy": 2.48, 
			 "cosmo_total_nonelectrostatic_energy": 16.84, 
			 "SMD_solvation_energy": 11.81 
		},
		"coords": [
			{
				"x": 3.3500059206,
				"y": -5.6771287008,
				"z": -1.4095091679,
				"element": "C" 
			},
			{
				"x": 2.8039518481,
				"y": -4.8757796601,
				"z": -2.4484988732,
				"element": "O" 
			},
			{
				"x": 2.1461745794,
				"y": -3.7352692492,
				"z": -2.1061886998,
				"element": "C" 
			},
			{
				"x": 1.9850757455,
				"y": -3.267271237,
				"z": -0.798677281,
				"element": "C" 
			},
			{
				"x": 1.2700296375,
				"y": -2.0965478871,
				"z": -0.5467244243,
				"element": "C" 
			},
			{
				"x": 0.7019914699,
				"y": -1.3614568271,
				"z": -1.5958642058,
				"element": "C" 
			},
			{
				"x": 0.872294006,
				"y": -1.8351092895,
				"z": -2.9107345209,
				"element": "C" 
			},
			{
				"x": 1.5807854893,
				"y": -2.9970710915,
				"z": -3.1752339801,
				"element": "C" 
			},
			{
				"x": 1.6488515924,
				"y": -3.4473759854,
				"z": -4.4691051868,
				"element": "O" 
			},
			{
				"x": 2.944151234,
				"y": -3.4167751155,
				"z": -5.0757724698,
				"element": "C" 
			},
			{
				"x": -0.0421839481,
				"y": -0.1218673536,
				"z": -1.323166938,
				"element": "C" 
			},
			{
				"x": -0.4441811706,
				"y": 0.8041098271,
				"z": -2.2338062814,
				"element": "C" 
			},
			{
				"x": -1.1807605609,
				"y": 2.0041886326,
				"z": -1.8591894156,
				"element": "C" 
			},
			{
				"x": -1.5650840472,
				"y": 2.8466332272,
				"z": -2.6718214791,
				"element": "O" 
			},
			{
				"x": -1.4218139041,
				"y": 2.1328060342,
				"z": -0.4033549049,
				"element": "C" 
			},
			{
				"x": -0.9549771222,
				"y": 1.1366330294,
				"z": 0.4632561769,
				"element": "C" 
			},
			{
				"x": -0.2950211286,
				"y": 0.029026226,
				"z": 0.0105241529,
				"element": "O" 
			},
			{
				"x": -1.1530407776,
				"y": 1.2165469042,
				"z": 1.8530614937,
				"element": "C" 
			},
			{
				"x": -0.6593708827,
				"y": 0.2244219219,
				"z": 2.6649870736,
				"element": "O" 
			},
			{
				"x": -1.660690421,
				"y": -0.6649841524,
				"z": 3.180903285,
				"element": "C" 
			},
			{
				"x": -1.8293935757,
				"y": 2.331783854,
				"z": 2.3661895452,
				"element": "C" 
			},
			{
				"x": -2.0810522743,
				"y": 2.447356618,
				"z": 3.7106199387,
				"element": "O" 
			},
			{
				"x": -0.9270993085,
				"y": 2.6362698159,
				"z": 4.5418618321,
				"element": "C" 
			},
			{
				"x": -2.3128142744,
				"y": 3.3297752089,
				"z": 1.5032468225,
				"element": "C" 
			},
			{
				"x": -2.1125738046,
				"y": 3.2281215761,
				"z": 0.1360962087,
				"element": "C" 
			},
			{
				"x": 2.5707996409,
				"y": -6.0247726319,
				"z": -0.72026922,
				"element": "H" 
			},
			{
				"x": 3.804734557,
				"y": -6.5370445215,
				"z": -1.9028223338,
				"element": "H" 
			},
			{
				"x": 4.1181343386,
				"y": -5.135936226,
				"z": -0.8430031408,
				"element": "H" 
			},
			{
				"x": 2.4094966766,
				"y": -3.8143640724,
				"z": 0.0346306781,
				"element": "H" 
			},
			{
				"x": 1.1526220108,
				"y": -1.7501270432,
				"z": 0.4730144291,
				"element": "H" 
			},
			{
				"x": 0.4342717493,
				"y": -1.3223786432,
				"z": -3.7595195138,
				"element": "H" 
			},
			{
				"x": 2.8047307497,
				"y": -3.7600471929,
				"z": -6.1027005062,
				"element": "H" 
			},
			{
				"x": 3.645266925,
				"y": -4.0799909433,
				"z": -4.5608714607,
				"element": "H" 
			},
			{
				"x": 3.3457181829,
				"y": -2.3952823131,
				"z": -5.0881150114,
				"element": "H" 
			},
			{
				"x": -0.2135901982,
				"y": 0.6751372105,
				"z": -3.2832977772,
				"element": "H" 
			},
			{
				"x": -1.134041374,
				"y": -1.3841859286,
				"z": 3.8113022648,
				"element": "H" 
			},
			{
				"x": -2.1647092754,
				"y": -1.1970016105,
				"z": 2.3655754903,
				"element": "H" 
			},
			{
				"x": -2.3993468888,
				"y": -0.1210444592,
				"z": 3.7782411788,
				"element": "H" 
			},
			{
				"x": -0.410507086,
				"y": 3.5669869686,
				"z": 4.2773207874,
				"element": "H" 
			},
			{
				"x": -0.2329091319,
				"y": 1.7954423992,
				"z": 4.4585745069,
				"element": "H" 
			},
			{
				"x": -1.3009149232,
				"y": 2.709979755,
				"z": 5.5648042689,
				"element": "H" 
			},
			{
				"x": -2.8405069044,
				"y": 4.1701860017,
				"z": 1.9419262066,
				"element": "H" 
			},
			{
				"x": -2.4692033714,
				"y": 3.9856069244,
				"z": -0.5535895475,
				"element": "H" 
			}
		],
		 "valence_orbital": [ 
			{
				"type": "occ",
				"energy": -0.24916,
				"method": "rhf"
			},
			{
				"type": "occ",
				"energy": -0.2378,
				"method": "rhf"
			},
			{
				"type": "occ",
				"energy": -0.23164,
				"method": "rhf"
			},
			{
				"type": "occ",
				"energy": -0.22977,
				"method": "rhf"
			},
			{
				"type": "occ",
				"energy": -0.21633,
				"method": "rhf"
			},
			{
				"type": "unocc",
				"energy": -0.05769,
				"method": "rhf"
			},
			{
				"type": "unocc",
				"energy": -0.02225,
				"method": "rhf"
			},
			{
				"type": "unocc",
				"energy": -0.00703,
				"method": "rhf"
			},
			{
				"type": "unocc",
				"energy": 0.0004,
				"method": "rhf"
			},
			{
				"type": "unocc",
				"energy": 0.03777,
				"method": "rhf"
			}
		],
		"cosmo_sigma_profile": { 
			"-0.025": 0.0,
			"-0.024": 0.0,
			"-0.023": 0.0,
			"-0.022": 0.0,
			"-0.021": 0.0,
			"-0.02": 0.0,
			"-0.019": 0.0,
			"-0.018": 0.0,
			"-0.017": 0.0,
			"-0.016": 0.0,
			"-0.015": 0.0,
			"-0.014": 0.0,
			"-0.013": 0.0,
			"-0.012": 0.0,
			"-0.011": 0.0,
			"-0.01": 0.0699946636459,
			"-0.009": 1.28361804759,
			"-0.008": 1.83724134052,
			"-0.007": 5.74025462093,
			"-0.006": 18.3654775728,
			"-0.005": 29.1274191516,
			"-0.004": 34.9578245435,
			"-0.003": 43.639094142,
			"-0.002": 33.8249054473,
			"-0.001": 28.8510454145,
			"0.0": 29.3484678365,
			"0.001": 29.9924790528,
			"0.002": 30.5931145411,
			"0.003": 24.4610429815,
			"0.004": 14.1335107907,
			"0.005": 6.50923783339,
			"0.006": 5.50002675385,
			"0.007": 6.07774263415,
			"0.008": 5.91671869135,
			"0.009": 4.87774380532,
			"0.01": 5.50526329245,
			"0.011": 4.6104826043,
			"0.012": 3.56708603801,
			"0.013": 4.19286390231,
			"0.014": 3.9027137464,
			"0.015": 0.92853345663,
			"0.016": 0.0,
			"0.017": 0.0,
			"0.018": 0.0,
			"0.019": 0.0,
			"0.02": 0.0,
			"0.021": 0.0,
			"0.022": 0.0,
			"0.023": 0.0,
			"0.024": 0.0,
			"0.025": 0.0
		}
	}
}
