{
	 "smiles": "CC1=CC=C(N=C1)C1=CC=C(C)C=N1", 
	 "Tm": 388.65, 
	 "num_atms": 26, 
	 "gaussian": { 
		 "optdone": 1, 
		 "sigma_profile": "yes", 
		 "theory": "DFT", 
		 "functional": "B3LYP", 
		 "basiset": "6-31G**", 
		 "properties": { 
			 "R2extent": 4192.4803, 
			 "electric_dipole_moment_norm": 0.000141421356237, 
			 "electric_quadrupole_moment_norm": 16.2241993109, 
			 "total_energy": -574.030477466, 
			 "HOMO_LUMO_gap": 0.17853, 
			 "cosmo_polarized_energy": -7.84, 
			 "cosmo_cavitation_energy": 29.82, 
			 "cosmo_dispersion_energy": -22.07, 
			 "cosmo_repulsion_energy": 1.72, 
			 "cosmo_total_nonelectrostatic_energy": 9.47, 
			 "SMD_solvation_energy": 3.18 
		},
		"coords": [
			{
				"x": 3.8791474556,
				"y": -0.3662441787,
				"z": -2.0432570705,
				"element": "C" 
			},
			{
				"x": 2.4686080442,
				"y": -0.4951694882,
				"z": -1.5274442159,
				"element": "C" 
			},
			{
				"x": 1.6749272836,
				"y": -1.6172972889,
				"z": -1.8009648649,
				"element": "C" 
			},
			{
				"x": 0.380565085,
				"y": -1.6899604838,
				"z": -1.3029601926,
				"element": "C" 
			},
			{
				"x": -0.1082273206,
				"y": -0.6261890155,
				"z": -0.5286881647,
				"element": "C" 
			},
			{
				"x": 0.6393237683,
				"y": 0.4567718534,
				"z": -0.2570337609,
				"element": "N" 
			},
			{
				"x": 1.8805345235,
				"y": 0.5065050301,
				"z": -0.7452909678,
				"element": "C" 
			},
			{
				"x": -1.4880751784,
				"y": -0.6559305226,
				"z": 0.027854068,
				"element": "C" 
			},
			{
				"x": -1.9768552742,
				"y": 0.4078274231,
				"z": 0.8021512838,
				"element": "C" 
			},
			{
				"x": -3.2712174268,
				"y": 0.3351647663,
				"z": 1.3001571421,
				"element": "C" 
			},
			{
				"x": -4.0649202791,
				"y": -0.7869341883,
				"z": 1.0265863138,
				"element": "C" 
			},
			{
				"x": -5.4754842332,
				"y": -0.9158193064,
				"z": 1.5423417765,
				"element": "C" 
			},
			{
				"x": -3.4768154328,
				"y": -1.7886529444,
				"z": 0.2445116633,
				"element": "C" 
			},
			{
				"x": -2.2356082058,
				"y": -1.7389162976,
				"z": -0.2437538508,
				"element": "N" 
			},
			{
				"x": 4.5142576041,
				"y": -1.1818784993,
				"z": -1.6786756315,
				"element": "H" 
			},
			{
				"x": 3.9090336873,
				"y": -0.4001663711,
				"z": -3.1384740887,
				"element": "H" 
			},
			{
				"x": 4.3331286208,
				"y": 0.5769465985,
				"z": -1.726435255,
				"element": "H" 
			},
			{
				"x": 2.0730227888,
				"y": -2.4310209569,
				"z": -2.4032381065,
				"element": "H" 
			},
			{
				"x": -0.2623339753,
				"y": -2.5408185707,
				"z": -1.4933300245,
				"element": "H" 
			},
			{
				"x": 2.4524090534,
				"y": 1.4021690108,
				"z": -0.5014163942,
				"element": "H" 
			},
			{
				"x": -1.3339573272,
				"y": 1.2586870022,
				"z": 0.9925170857,
				"element": "H" 
			},
			{
				"x": -3.6692788679,
				"y": 1.1488463997,
				"z": 1.9025098634,
				"element": "H" 
			},
			{
				"x": -5.5054256892,
				"y": -0.8815868768,
				"z": 2.6375361411,
				"element": "H" 
			},
			{
				"x": -5.929425519,
				"y": -1.859070273,
				"z": 1.2256417692,
				"element": "H" 
			},
			{
				"x": -6.1106516655,
				"y": -0.1003337747,
				"z": 1.1774926227,
				"element": "H" 
			},
			{
				"x": -4.0486815198,
				"y": -2.6843290472,
				"z": 0.0006628586,
				"element": "H" 
			}
		],
		 "valence_orbital": [ 
			{
				"type": "occ",
				"energy": -0.27862,
				"method": "rhf"
			},
			{
				"type": "occ",
				"energy": -0.26877,
				"method": "rhf"
			},
			{
				"type": "occ",
				"energy": -0.25785,
				"method": "rhf"
			},
			{
				"type": "occ",
				"energy": -0.24173,
				"method": "rhf"
			},
			{
				"type": "occ",
				"energy": -0.22188,
				"method": "rhf"
			},
			{
				"type": "unocc",
				"energy": -0.04335,
				"method": "rhf"
			},
			{
				"type": "unocc",
				"energy": -0.02058,
				"method": "rhf"
			},
			{
				"type": "unocc",
				"energy": -0.00209,
				"method": "rhf"
			},
			{
				"type": "unocc",
				"energy": 0.03423,
				"method": "rhf"
			},
			{
				"type": "unocc",
				"energy": 0.10481,
				"method": "rhf"
			}
		],
		"cosmo_sigma_profile": { 
			"-0.025": 0.0,
			"-0.024": 0.0,
			"-0.023": 0.0,
			"-0.022": 0.0,
			"-0.021": 0.0,
			"-0.02": 0.0,
			"-0.019": 0.0,
			"-0.018": 0.0,
			"-0.017": 0.0,
			"-0.016": 0.0,
			"-0.015": 0.0,
			"-0.014": 0.0,
			"-0.013": 0.0,
			"-0.012": 0.0,
			"-0.011": 0.0,
			"-0.01": 0.0,
			"-0.009": 0.0,
			"-0.008": 0.0,
			"-0.007": 1.22730901242,
			"-0.006": 7.46113128885,
			"-0.005": 17.7992817605,
			"-0.004": 23.1645913336,
			"-0.003": 23.5292908715,
			"-0.002": 21.3913013996,
			"-0.001": 22.5104895035,
			"0.0": 22.3163113777,
			"0.001": 14.5670134537,
			"0.002": 24.9244537932,
			"0.003": 25.6095791843,
			"0.004": 8.04424132276,
			"0.005": 5.82703357914,
			"0.006": 3.85898348463,
			"0.007": 2.91719079783,
			"0.008": 3.48881611781,
			"0.009": 2.1916596642,
			"0.01": 2.44616480068,
			"0.011": 3.0258656232,
			"0.012": 1.65400417678,
			"0.013": 0.0580399620879,
			"0.014": 0.0,
			"0.015": 0.0,
			"0.016": 0.0,
			"0.017": 0.0,
			"0.018": 0.0,
			"0.019": 0.0,
			"0.02": 0.0,
			"0.021": 0.0,
			"0.022": 0.0,
			"0.023": 0.0,
			"0.024": 0.0,
			"0.025": 0.0
		}
	}
}
