{
	 "smiles": "NC(=O)CC1=CC=CS1", 
	 "Tm": 420.15, 
	 "num_atms": 16, 
	 "gaussian": { 
		 "optdone": 1, 
		 "sigma_profile": "yes", 
		 "theory": "DFT", 
		 "functional": "B3LYP", 
		 "basiset": "6-31G**", 
		 "properties": { 
			 "R2extent": 1691.7038, 
			 "electric_dipole_moment_norm": 3.98448203535, 
			 "electric_quadrupole_moment_norm": 13.2275732782, 
			 "total_energy": -761.022379575, 
			 "HOMO_LUMO_gap": 0.20675, 
			 "cosmo_polarized_energy": -12.39, 
			 "cosmo_cavitation_energy": 21.75, 
			 "cosmo_dispersion_energy": -16.34, 
			 "cosmo_repulsion_energy": 1.32, 
			 "cosmo_total_nonelectrostatic_energy": 6.72, 
			 "SMD_solvation_energy": 4.43 
		},
		"coords": [
			{
				"x": 2.3843932288,
				"y": -1.1875338569,
				"z": 0.9277258775,
				"element": "N" 
			},
			{
				"x": 1.4769511148,
				"y": -2.2005837116,
				"z": 0.8513819127,
				"element": "C" 
			},
			{
				"x": 1.7439064918,
				"y": -3.3640052548,
				"z": 1.1085548731,
				"element": "O" 
			},
			{
				"x": 0.037388069,
				"y": -1.7821247124,
				"z": 0.4830253137,
				"element": "C" 
			},
			{
				"x": -0.1325701564,
				"y": -0.4920278026,
				"z": -0.2646666346,
				"element": "C" 
			},
			{
				"x": -0.4081105687,
				"y": 0.7559418172,
				"z": 0.2384079539,
				"element": "C" 
			},
			{
				"x": -0.4642184028,
				"y": 1.7772882574,
				"z": -0.7596216344,
				"element": "C" 
			},
			{
				"x": -0.2286701386,
				"y": 1.2975531085,
				"z": -2.0175944327,
				"element": "C" 
			},
			{
				"x": 0.0651351798,
				"y": -0.4125678483,
				"z": -2.0011179498,
				"element": "S" 
			},
			{
				"x": 3.3423852021,
				"y": -1.4271363961,
				"z": 1.1316490691,
				"element": "H" 
			},
			{
				"x": 2.1589427574,
				"y": -0.257242951,
				"z": 0.6123147503,
				"element": "H" 
			},
			{
				"x": -0.5147786109,
				"y": -1.7187599959,
				"z": 1.428516057,
				"element": "H" 
			},
			{
				"x": -0.386124169,
				"y": -2.6296893298,
				"z": -0.0620826405,
				"element": "H" 
			},
			{
				"x": -0.5787088483,
				"y": 0.9349676832,
				"z": 1.29515276,
				"element": "H" 
			},
			{
				"x": -0.6780279644,
				"y": 2.8187000288,
				"z": -0.5474046215,
				"element": "H" 
			},
			{
				"x": -0.2179931847,
				"y": 1.8395209644,
				"z": -2.9530406536,
				"element": "H" 
			}
		],
		 "valence_orbital": [ 
			{
				"type": "occ",
				"energy": -0.34493,
				"method": "rhf"
			},
			{
				"type": "occ",
				"energy": -0.26692,
				"method": "rhf"
			},
			{
				"type": "occ",
				"energy": -0.26126,
				"method": "rhf"
			},
			{
				"type": "occ",
				"energy": -0.257,
				"method": "rhf"
			},
			{
				"type": "occ",
				"energy": -0.22881,
				"method": "rhf"
			},
			{
				"type": "unocc",
				"energy": -0.02206,
				"method": "rhf"
			},
			{
				"type": "unocc",
				"energy": 0.02077,
				"method": "rhf"
			},
			{
				"type": "unocc",
				"energy": 0.03168,
				"method": "rhf"
			},
			{
				"type": "unocc",
				"energy": 0.05744,
				"method": "rhf"
			},
			{
				"type": "unocc",
				"energy": 0.08694,
				"method": "rhf"
			}
		],
		"cosmo_sigma_profile": { 
			"-0.025": 0.0,
			"-0.024": 0.0,
			"-0.023": 0.0,
			"-0.022": 0.0,
			"-0.021": 0.0,
			"-0.02": 0.0,
			"-0.019": 0.0,
			"-0.018": 0.0,
			"-0.017": 0.0,
			"-0.016": 0.0,
			"-0.015": 0.0,
			"-0.014": 0.833041941734,
			"-0.013": 1.04811380338,
			"-0.012": 1.47921402907,
			"-0.011": 1.73334349692,
			"-0.01": 2.26872294609,
			"-0.009": 2.51674358227,
			"-0.008": 2.9933069857,
			"-0.007": 7.33965109033,
			"-0.006": 12.4981829616,
			"-0.005": 11.855760198,
			"-0.004": 11.6223743348,
			"-0.003": 10.850955192,
			"-0.002": 11.8698011436,
			"-0.001": 8.17188217329,
			"0.0": 9.61359045546,
			"0.001": 9.51839807015,
			"0.002": 11.5719476731,
			"0.003": 12.188341024,
			"0.004": 12.4674556536,
			"0.005": 9.38918916168,
			"0.006": 3.62409938346,
			"0.007": 1.29074478684,
			"0.008": 1.60088810313,
			"0.009": 1.189147289,
			"0.01": 0.781888479255,
			"0.011": 1.4079071502,
			"0.012": 1.89669838504,
			"0.013": 3.61944572498,
			"0.014": 6.01161071631,
			"0.015": 1.849585306,
			"0.016": 0.0110273430176,
			"0.017": 0.0,
			"0.018": 0.0,
			"0.019": 0.0,
			"0.02": 0.0,
			"0.021": 0.0,
			"0.022": 0.0,
			"0.023": 0.0,
			"0.024": 0.0,
			"0.025": 0.0
		}
	}
}
