{
	 "smiles": "OC(=O)CC1=COC(=N1)C1=CC=C(Cl)C=C1", 
	 "Tm": 465.15, 
	 "num_atms": 24, 
	 "gaussian": { 
		 "optdone": 1, 
		 "sigma_profile": "yes", 
		 "theory": "DFT", 
		 "functional": "B3LYP", 
		 "basiset": "6-31G**", 
		 "properties": { 
			 "R2extent": 7521.455, 
			 "electric_dipole_moment_norm": 3.15367298558, 
			 "electric_quadrupole_moment_norm": 11.7665119581, 
			 "total_energy": -1164.61462088, 
			 "HOMO_LUMO_gap": 0.17252, 
			 "cosmo_polarized_energy": -13.08, 
			 "cosmo_cavitation_energy": 32.04, 
			 "cosmo_dispersion_energy": -23.44, 
			 "cosmo_repulsion_energy": 1.84, 
			 "cosmo_total_nonelectrostatic_energy": 10.44, 
			 "SMD_solvation_energy": 5.58 
		},
		"coords": [
			{
				"x": -4.427650557,
				"y": -0.2794681126,
				"z": 0.493902988,
				"element": "O" 
			},
			{
				"x": -3.6518936714,
				"y": -0.5142013205,
				"z": -0.5936155733,
				"element": "C" 
			},
			{
				"x": -3.8925339609,
				"y": -0.0485364848,
				"z": -1.6825143087,
				"element": "O" 
			},
			{
				"x": -2.4958179179,
				"y": -1.4470499804,
				"z": -0.2644064384,
				"element": "C" 
			},
			{
				"x": -1.5935080713,
				"y": -0.9469186959,
				"z": 0.828007621,
				"element": "C" 
			},
			{
				"x": -1.7954035975,
				"y": -0.8869643198,
				"z": 2.1722930025,
				"element": "C" 
			},
			{
				"x": -0.6759918626,
				"y": -0.3472679701,
				"z": 2.7453109331,
				"element": "O" 
			},
			{
				"x": 0.1667864425,
				"y": -0.1016192637,
				"z": 1.7010312131,
				"element": "C" 
			},
			{
				"x": -0.3339625773,
				"y": -0.4394282668,
				"z": 0.5445572731,
				"element": "N" 
			},
			{
				"x": 1.4736199924,
				"y": 0.4823547057,
				"z": 1.9810418835,
				"element": "C" 
			},
			{
				"x": 2.3495776179,
				"y": 0.7462736069,
				"z": 0.9153700013,
				"element": "C" 
			},
			{
				"x": 3.6016951166,
				"y": 1.3027938802,
				"z": 1.1521712416,
				"element": "C" 
			},
			{
				"x": 3.9806330048,
				"y": 1.597650126,
				"z": 2.4635443357,
				"element": "C" 
			},
			{
				"x": 5.5605187535,
				"y": 2.3002939371,
				"z": 2.7676346272,
				"element": "Cl" 
			},
			{
				"x": 3.1255386814,
				"y": 1.3437340769,
				"z": 3.5362716858,
				"element": "C" 
			},
			{
				"x": 1.8733745385,
				"y": 0.7863864503,
				"z": 3.2914903095,
				"element": "C" 
			},
			{
				"x": -5.1353230543,
				"y": 0.3172447039,
				"z": 0.1974392081,
				"element": "H" 
			},
			{
				"x": -1.9139555834,
				"y": -1.5808312721,
				"z": -1.1762443885,
				"element": "H" 
			},
			{
				"x": -2.93060155,
				"y": -2.4139435769,
				"z": 0.016161685,
				"element": "H" 
			},
			{
				"x": -2.6070109232,
				"y": -1.1456563733,
				"z": 2.8317339312,
				"element": "H" 
			},
			{
				"x": 2.0345996716,
				"y": 0.5099943078,
				"z": -0.095213167,
				"element": "H" 
			},
			{
				"x": 4.2799764467,
				"y": 1.5079264968,
				"z": 0.331585463,
				"element": "H" 
			},
			{
				"x": 3.4373673219,
				"y": 1.5796521658,
				"z": 4.5474817902,
				"element": "H" 
			},
			{
				"x": 1.2022657393,
				"y": 0.5856811796,
				"z": 4.1194646829,
				"element": "H" 
			}
		],
		 "valence_orbital": [ 
			{
				"type": "occ",
				"energy": -0.29781,
				"method": "rhf"
			},
			{
				"type": "occ",
				"energy": -0.29017,
				"method": "rhf"
			},
			{
				"type": "occ",
				"energy": -0.27167,
				"method": "rhf"
			},
			{
				"type": "occ",
				"energy": -0.2705,
				"method": "rhf"
			},
			{
				"type": "occ",
				"energy": -0.22554,
				"method": "rhf"
			},
			{
				"type": "unocc",
				"energy": -0.05302,
				"method": "rhf"
			},
			{
				"type": "unocc",
				"energy": -0.0202,
				"method": "rhf"
			},
			{
				"type": "unocc",
				"energy": -0.00356,
				"method": "rhf"
			},
			{
				"type": "unocc",
				"energy": 0.02612,
				"method": "rhf"
			},
			{
				"type": "unocc",
				"energy": 0.02679,
				"method": "rhf"
			}
		],
		"cosmo_sigma_profile": { 
			"-0.025": 0.0,
			"-0.024": 0.0,
			"-0.023": 0.0,
			"-0.022": 0.0,
			"-0.021": 0.0,
			"-0.02": 0.0,
			"-0.019": 0.0914945988597,
			"-0.018": 0.871337146922,
			"-0.017": 0.809847406524,
			"-0.016": 0.743025201604,
			"-0.015": 0.802745410751,
			"-0.014": 1.02951022308,
			"-0.013": 0.484960949205,
			"-0.012": 0.885096582382,
			"-0.011": 0.846683769051,
			"-0.01": 1.79375184694,
			"-0.009": 1.85621332671,
			"-0.008": 5.48832258563,
			"-0.007": 10.0933635819,
			"-0.006": 13.4909954017,
			"-0.005": 11.9905960647,
			"-0.004": 11.2219995257,
			"-0.003": 13.6624249365,
			"-0.002": 13.7225550311,
			"-0.001": 19.4983588546,
			"0.0": 21.6677150778,
			"0.001": 26.6116916061,
			"0.002": 27.0096483615,
			"0.003": 21.248215328,
			"0.004": 16.5569429984,
			"0.005": 9.48974717303,
			"0.006": 3.52120372753,
			"0.007": 3.40734257046,
			"0.008": 4.08283945994,
			"0.009": 2.80932729002,
			"0.01": 3.1489500815,
			"0.011": 5.57416613134,
			"0.012": 4.33612824398,
			"0.013": 0.8488468553,
			"0.014": 0.0116987441799,
			"0.015": 0.0,
			"0.016": 0.0,
			"0.017": 0.0,
			"0.018": 0.0,
			"0.019": 0.0,
			"0.02": 0.0,
			"0.021": 0.0,
			"0.022": 0.0,
			"0.023": 0.0,
			"0.024": 0.0,
			"0.025": 0.0
		}
	}
}
