{
	 "smiles": "CC1=NN=C(S)S1", 
	 "Tm": 459.15, 
	 "num_atms": 11, 
	 "gaussian": { 
		 "optdone": 1, 
		 "sigma_profile": "yes", 
		 "theory": "DFT", 
		 "functional": "B3LYP", 
		 "basiset": "6-31G**", 
		 "properties": { 
			 "R2extent": 2355.9904, 
			 "electric_dipole_moment_norm": 3.9199288667, 
			 "electric_quadrupole_moment_norm": 15.5916064913, 
			 "total_energy": -1022.56950929, 
			 "HOMO_LUMO_gap": 0.20546, 
			 "cosmo_polarized_energy": -11.41, 
			 "cosmo_cavitation_energy": 18.74, 
			 "cosmo_dispersion_energy": -15.14, 
			 "cosmo_repulsion_energy": 1.18, 
			 "cosmo_total_nonelectrostatic_energy": 4.78, 
			 "SMD_solvation_energy": 0.8 
		},
		"coords": [
			{
				"x": -0.6357499256,
				"y": 0.8557926417,
				"z": -0.0388341471,
				"element": "C" 
			},
			{
				"x": 0.216978754,
				"y": 0.0447786534,
				"z": -0.9612205576,
				"element": "C" 
			},
			{
				"x": 0.6339245162,
				"y": 0.464751525,
				"z": -2.1188029234,
				"element": "N" 
			},
			{
				"x": 1.4024499046,
				"y": -0.4428532678,
				"z": -2.7970343657,
				"element": "N" 
			},
			{
				"x": 1.5656860009,
				"y": -1.5550541786,
				"z": -2.1451019713,
				"element": "C" 
			},
			{
				"x": 2.5254735271,
				"y": -2.8698013922,
				"z": -2.8339818441,
				"element": "S" 
			},
			{
				"x": 0.7603417741,
				"y": -1.5922476205,
				"z": -0.5809483995,
				"element": "S" 
			},
			{
				"x": -0.1391287471,
				"y": 1.0240074447,
				"z": 0.9222594205,
				"element": "H" 
			},
			{
				"x": -1.593342638,
				"y": 0.3632822094,
				"z": 0.1588344836,
				"element": "H" 
			},
			{
				"x": -0.8257581037,
				"y": 1.8209164713,
				"z": -0.5121660217,
				"element": "H" 
			},
			{
				"x": 2.3642249375,
				"y": -3.7197724865,
				"z": -1.8017036737,
				"element": "H" 
			}
		],
		 "valence_orbital": [ 
			{
				"type": "occ",
				"energy": -0.3256,
				"method": "rhf"
			},
			{
				"type": "occ",
				"energy": -0.3083,
				"method": "rhf"
			},
			{
				"type": "occ",
				"energy": -0.29948,
				"method": "rhf"
			},
			{
				"type": "occ",
				"energy": -0.26949,
				"method": "rhf"
			},
			{
				"type": "occ",
				"energy": -0.24598,
				"method": "rhf"
			},
			{
				"type": "unocc",
				"energy": -0.04052,
				"method": "rhf"
			},
			{
				"type": "unocc",
				"energy": -0.02976,
				"method": "rhf"
			},
			{
				"type": "unocc",
				"energy": 0.02017,
				"method": "rhf"
			},
			{
				"type": "unocc",
				"energy": 0.02625,
				"method": "rhf"
			},
			{
				"type": "unocc",
				"energy": 0.05245,
				"method": "rhf"
			}
		],
		"cosmo_sigma_profile": { 
			"-0.025": 0.0,
			"-0.024": 0.0,
			"-0.023": 0.0,
			"-0.022": 0.0,
			"-0.021": 0.0,
			"-0.02": 0.0,
			"-0.019": 0.0,
			"-0.018": 0.0,
			"-0.017": 0.0,
			"-0.016": 0.0,
			"-0.015": 0.0,
			"-0.014": 0.0,
			"-0.013": 0.986697246914,
			"-0.012": 3.14600039587,
			"-0.011": 2.0404923483,
			"-0.01": 1.43274874059,
			"-0.009": 1.73905956828,
			"-0.008": 1.44382212734,
			"-0.007": 2.80655873079,
			"-0.006": 10.682882245,
			"-0.005": 9.08638364858,
			"-0.004": 8.72467337601,
			"-0.003": 10.998148496,
			"-0.002": 13.628113907,
			"-0.001": 13.3277589798,
			"0.0": 10.8840555035,
			"0.001": 10.1275662689,
			"0.002": 10.1930945709,
			"0.003": 7.83928914268,
			"0.004": 5.80690721857,
			"0.005": 5.03026847843,
			"0.006": 5.14337261178,
			"0.007": 2.32743223547,
			"0.008": 1.68472412534,
			"0.009": 2.31964754705,
			"0.01": 3.07379553028,
			"0.011": 3.04934483486,
			"0.012": 2.81517976362,
			"0.013": 2.4576467923,
			"0.014": 1.88251454486,
			"0.015": 0.459119612031,
			"0.016": 0.0,
			"0.017": 0.0,
			"0.018": 0.0,
			"0.019": 0.0,
			"0.02": 0.0,
			"0.021": 0.0,
			"0.022": 0.0,
			"0.023": 0.0,
			"0.024": 0.0,
			"0.025": 0.0
		}
	}
}
