{
	 "smiles": "NC1=C(CS(=O)(=O)C2=CC=CC=C2)C=CC=C1", 
	 "Tm": 446.15, 
	 "num_atms": 30, 
	 "gaussian": { 
		 "optdone": 1, 
		 "sigma_profile": "yes", 
		 "theory": "DFT", 
		 "functional": "B3LYP", 
		 "basiset": "6-31G**", 
		 "properties": { 
			 "R2extent": 4305.4758, 
			 "electric_dipole_moment_norm": 5.96282308056, 
			 "electric_quadrupole_moment_norm": 16.985998228, 
			 "total_energy": -1106.54718671, 
			 "HOMO_LUMO_gap": 0.16841, 
			 "cosmo_polarized_energy": -18.57, 
			 "cosmo_cavitation_energy": 34.25, 
			 "cosmo_dispersion_energy": -24.05, 
			 "cosmo_repulsion_energy": 1.81, 
			 "cosmo_total_nonelectrostatic_energy": 12.01, 
			 "SMD_solvation_energy": 4.61 
		},
		"coords": [
			{
				"x": 1.4022133263,
				"y": 1.304088294,
				"z": -0.1500757683,
				"element": "N" 
			},
			{
				"x": 1.6155560179,
				"y": 0.229907304,
				"z": 0.725382155,
				"element": "C" 
			},
			{
				"x": 0.7790864728,
				"y": 0.0280289022,
				"z": 1.8492820997,
				"element": "C" 
			},
			{
				"x": -0.3555095007,
				"y": 0.9627045565,
				"z": 2.1476865226,
				"element": "C" 
			},
			{
				"x": -2.0332278693,
				"y": 0.3762599472,
				"z": 1.6575958169,
				"element": "S" 
			},
			{
				"x": -2.2422641656,
				"y": -0.950085664,
				"z": 2.2613622165,
				"element": "O" 
			},
			{
				"x": -2.9595346641,
				"y": 1.4900703865,
				"z": 1.9273982208,
				"element": "O" 
			},
			{
				"x": -1.9468488018,
				"y": 0.1570591729,
				"z": -0.1298553107,
				"element": "C" 
			},
			{
				"x": -2.2821790554,
				"y": 1.2301839823,
				"z": -0.9609613246,
				"element": "C" 
			},
			{
				"x": -2.2033724462,
				"y": 1.0630258923,
				"z": -2.3447478858,
				"element": "C" 
			},
			{
				"x": -1.7999387942,
				"y": -0.164059095,
				"z": -2.8789926506,
				"element": "C" 
			},
			{
				"x": -1.4812174348,
				"y": -1.2318862132,
				"z": -2.0361313062,
				"element": "C" 
			},
			{
				"x": -1.5548157677,
				"y": -1.0780973898,
				"z": -0.6508791365,
				"element": "C" 
			},
			{
				"x": 1.0473522321,
				"y": -1.0394250248,
				"z": 2.7171408485,
				"element": "C" 
			},
			{
				"x": 2.1317044274,
				"y": -1.8890893412,
				"z": 2.5159782438,
				"element": "C" 
			},
			{
				"x": 2.9743207013,
				"y": -1.6657047213,
				"z": 1.424471382,
				"element": "C" 
			},
			{
				"x": 2.7167969316,
				"y": -0.6234659879,
				"z": 0.5398286466,
				"element": "C" 
			},
			{
				"x": 0.4376595729,
				"y": 1.4528621377,
				"z": -0.4188463443,
				"element": "H" 
			},
			{
				"x": 1.990825641,
				"y": 1.272372182,
				"z": -0.972429197,
				"element": "H" 
			},
			{
				"x": -0.2335748641,
				"y": 1.9457814565,
				"z": 1.6865343597,
				"element": "H" 
			},
			{
				"x": -0.4885714501,
				"y": 1.1089626969,
				"z": 3.224270124,
				"element": "H" 
			},
			{
				"x": -2.6223096624,
				"y": 2.162694558,
				"z": -0.5223585948,
				"element": "H" 
			},
			{
				"x": -2.4687438111,
				"y": 1.8843246146,
				"z": -3.0036758573,
				"element": "H" 
			},
			{
				"x": -1.7436285073,
				"y": -0.2910009636,
				"z": -3.9562269655,
				"element": "H" 
			},
			{
				"x": -1.1806729013,
				"y": -2.1867912254,
				"z": -2.456529052,
				"element": "H" 
			},
			{
				"x": -1.3288504504,
				"y": -1.8975183085,
				"z": 0.0221983329,
				"element": "H" 
			},
			{
				"x": 0.3851393231,
				"y": -1.1955780178,
				"z": 3.5636660502,
				"element": "H" 
			},
			{
				"x": 2.3217395584,
				"y": -2.7064332201,
				"z": 3.2040165948,
				"element": "H" 
			},
			{
				"x": 3.8320491126,
				"y": -2.3104374566,
				"z": 1.2542344299,
				"element": "H" 
			},
			{
				"x": 3.3689168292,
				"y": -0.4630534544,
				"z": -0.3157366505,
				"element": "H" 
			}
		],
		 "valence_orbital": [ 
			{
				"type": "occ",
				"energy": -0.29044,
				"method": "rhf"
			},
			{
				"type": "occ",
				"energy": -0.27869,
				"method": "rhf"
			},
			{
				"type": "occ",
				"energy": -0.27691,
				"method": "rhf"
			},
			{
				"type": "occ",
				"energy": -0.24684,
				"method": "rhf"
			},
			{
				"type": "occ",
				"energy": -0.21313,
				"method": "rhf"
			},
			{
				"type": "unocc",
				"energy": -0.04472,
				"method": "rhf"
			},
			{
				"type": "unocc",
				"energy": -0.02839,
				"method": "rhf"
			},
			{
				"type": "unocc",
				"energy": -0.01593,
				"method": "rhf"
			},
			{
				"type": "unocc",
				"energy": 0.00802,
				"method": "rhf"
			},
			{
				"type": "unocc",
				"energy": 0.06329,
				"method": "rhf"
			}
		],
		"cosmo_sigma_profile": { 
			"-0.025": 0.0,
			"-0.024": 0.0,
			"-0.023": 0.0,
			"-0.022": 0.0,
			"-0.021": 0.0,
			"-0.02": 0.0,
			"-0.019": 0.0,
			"-0.018": 0.0,
			"-0.017": 0.0,
			"-0.016": 0.0,
			"-0.015": 0.00108914199425,
			"-0.014": 0.0451788944515,
			"-0.013": 0.520922536584,
			"-0.012": 1.68841157523,
			"-0.011": 1.88723287556,
			"-0.01": 2.00686064582,
			"-0.009": 3.59534281457,
			"-0.008": 4.84597682375,
			"-0.007": 13.3671160126,
			"-0.006": 20.1544992834,
			"-0.005": 21.3146616943,
			"-0.004": 20.1573564134,
			"-0.003": 16.3270820769,
			"-0.002": 15.2830133952,
			"-0.001": 15.1247607245,
			"0.0": 14.9224266104,
			"0.001": 16.1169051846,
			"0.002": 19.7950182805,
			"0.003": 16.7498256101,
			"0.004": 12.1102438428,
			"0.005": 12.0484306792,
			"0.006": 8.98663647549,
			"0.007": 3.81415517676,
			"0.008": 4.28184064675,
			"0.009": 4.41464083251,
			"0.01": 5.16282104715,
			"0.011": 8.37181669561,
			"0.012": 7.98021148529,
			"0.013": 1.7630162985,
			"0.014": 0.396099958248,
			"0.015": 0.0,
			"0.016": 0.0,
			"0.017": 0.0,
			"0.018": 0.0,
			"0.019": 0.0,
			"0.02": 0.0,
			"0.021": 0.0,
			"0.022": 0.0,
			"0.023": 0.0,
			"0.024": 0.0,
			"0.025": 0.0
		}
	}
}
