{
	 "smiles": "COC(=O)C(C)CN1C=C(Br)C=N1", 
	 "Tm": 317.15, 
	 "num_atms": 24, 
	 "gaussian": { 
		 "optdone": 1, 
		 "sigma_profile": "yes", 
		 "theory": "DFT", 
		 "functional": "B3LYP", 
		 "basiset": "6-31G**", 
		 "properties": { 
			 "R2extent": 4705.9237, 
			 "electric_dipole_moment_norm": 3.76458925648, 
			 "electric_quadrupole_moment_norm": 8.04387754258, 
			 "total_energy": -3142.81936345, 
			 "HOMO_LUMO_gap": 0.23389, 
			 "cosmo_polarized_energy": -11.82, 
			 "cosmo_cavitation_energy": 30.76, 
			 "cosmo_dispersion_energy": -21.34, 
			 "cosmo_repulsion_energy": 1.73, 
			 "cosmo_total_nonelectrostatic_energy": 11.15, 
			 "SMD_solvation_energy": 5.06 
		},
		"coords": [
			{
				"x": -1.2406452662,
				"y": 2.3984799235,
				"z": -0.5146240362,
				"element": "C" 
			},
			{
				"x": -1.2264982657,
				"y": 0.9791218232,
				"z": -0.7548092149,
				"element": "O" 
			},
			{
				"x": -0.2684468511,
				"y": 0.5497287195,
				"z": -1.6127661588,
				"element": "C" 
			},
			{
				"x": 0.5215662947,
				"y": 1.2914762415,
				"z": -2.1514153869,
				"element": "O" 
			},
			{
				"x": -0.3538019162,
				"y": -0.9502867486,
				"z": -1.8682597299,
				"element": "C" 
			},
			{
				"x": -1.3169035339,
				"y": -1.2059335504,
				"z": -3.0449323524,
				"element": "C" 
			},
			{
				"x": -0.7749853206,
				"y": -1.7682298602,
				"z": -0.6368694526,
				"element": "C" 
			},
			{
				"x": 0.1849837235,
				"y": -1.6954716468,
				"z": 0.4558396632,
				"element": "N" 
			},
			{
				"x": 0.1118035289,
				"y": -0.9501505576,
				"z": 1.59086856,
				"element": "C" 
			},
			{
				"x": 1.2871247717,
				"y": -1.1892140686,
				"z": 2.2767970094,
				"element": "C" 
			},
			{
				"x": 1.789672632,
				"y": -0.4614516703,
				"z": 3.940972872,
				"element": "Br" 
			},
			{
				"x": 2.0152725616,
				"y": -2.0916406476,
				"z": 1.4753901175,
				"element": "C" 
			},
			{
				"x": 1.3394813153,
				"y": -2.3941851805,
				"z": 0.3680526351,
				"element": "N" 
			},
			{
				"x": -1.402345721,
				"y": 2.942547707,
				"z": -1.4480830211,
				"element": "H" 
			},
			{
				"x": -2.063482607,
				"y": 2.572466602,
				"z": 0.1786113503,
				"element": "H" 
			},
			{
				"x": -0.2931007082,
				"y": 2.7213470247,
				"z": -0.0772256526,
				"element": "H" 
			},
			{
				"x": 0.6549579224,
				"y": -1.2580560831,
				"z": -2.1581960102,
				"element": "H" 
			},
			{
				"x": -1.0008168657,
				"y": -0.6436330448,
				"z": -3.927202069,
				"element": "H" 
			},
			{
				"x": -2.3382808159,
				"y": -0.9027977272,
				"z": -2.7919965716,
				"element": "H" 
			},
			{
				"x": -1.3283967828,
				"y": -2.2690756237,
				"z": -3.3041513449,
				"element": "H" 
			},
			{
				"x": -1.741040846,
				"y": -1.4276040048,
				"z": -0.2593911406,
				"element": "H" 
			},
			{
				"x": -0.8629363495,
				"y": -2.8207527095,
				"z": -0.9194196363,
				"element": "H" 
			},
			{
				"x": -0.7363729954,
				"y": -0.3246258493,
				"z": 1.8192216469,
				"element": "H" 
			},
			{
				"x": 2.9857920949,
				"y": -2.5267590681,
				"z": 1.6667879236,
				"element": "H" 
			}
		],
		 "valence_orbital": [ 
			{
				"type": "occ",
				"energy": -0.30611,
				"method": "rhf"
			},
			{
				"type": "occ",
				"energy": -0.27957,
				"method": "rhf"
			},
			{
				"type": "occ",
				"energy": -0.27744,
				"method": "rhf"
			},
			{
				"type": "occ",
				"energy": -0.2601,
				"method": "rhf"
			},
			{
				"type": "occ",
				"energy": -0.23282,
				"method": "rhf"
			},
			{
				"type": "unocc",
				"energy": 0.00107,
				"method": "rhf"
			},
			{
				"type": "unocc",
				"energy": 0.00705,
				"method": "rhf"
			},
			{
				"type": "unocc",
				"energy": 0.0186,
				"method": "rhf"
			},
			{
				"type": "unocc",
				"energy": 0.0588,
				"method": "rhf"
			},
			{
				"type": "unocc",
				"energy": 0.07948,
				"method": "rhf"
			}
		],
		"cosmo_sigma_profile": { 
			"-0.025": 0.0,
			"-0.024": 0.0,
			"-0.023": 0.0,
			"-0.022": 0.0,
			"-0.021": 0.0,
			"-0.02": 0.0,
			"-0.019": 0.0,
			"-0.018": 0.0,
			"-0.017": 0.0,
			"-0.016": 0.0,
			"-0.015": 0.0,
			"-0.014": 0.0,
			"-0.013": 0.0,
			"-0.012": 0.0,
			"-0.011": 0.0,
			"-0.01": 0.0652790366363,
			"-0.009": 1.29081866504,
			"-0.008": 3.10642529796,
			"-0.007": 6.23335398478,
			"-0.006": 11.866423262,
			"-0.005": 19.2555482738,
			"-0.004": 23.9130665268,
			"-0.003": 23.710460673,
			"-0.002": 23.8756190043,
			"-0.001": 19.3791900422,
			"0.0": 14.38209173,
			"0.001": 13.4181993205,
			"0.002": 14.0069656969,
			"0.003": 18.0757863557,
			"0.004": 17.2017308159,
			"0.005": 9.50741692141,
			"0.006": 3.76124031596,
			"0.007": 2.75527374051,
			"0.008": 3.29983408738,
			"0.009": 1.91240649459,
			"0.01": 3.18095939078,
			"0.011": 4.19371997194,
			"0.012": 5.65756734627,
			"0.013": 1.54442141398,
			"0.014": 0.704446295787,
			"0.015": 0.580710142883,
			"0.016": 0.0,
			"0.017": 0.0,
			"0.018": 0.0,
			"0.019": 0.0,
			"0.02": 0.0,
			"0.021": 0.0,
			"0.022": 0.0,
			"0.023": 0.0,
			"0.024": 0.0,
			"0.025": 0.0
		}
	}
}
