{
	 "smiles": "COC1=CC2=C(C=CN=C2C=C1)C(=O)CCC1CCNCC1C=C", 
	 "Tm": 333.15, 
	 "num_atms": 48, 
	 "gaussian": { 
		 "optdone": 1, 
		 "sigma_profile": "yes", 
		 "theory": "DFT", 
		 "functional": "B3LYP", 
		 "basiset": "6-31G**", 
		 "properties": { 
			 "R2extent": 12028.6133, 
			 "electric_dipole_moment_norm": 1.47005577105, 
			 "electric_quadrupole_moment_norm": 15.2823193698, 
			 "total_energy": -1036.5125007, 
			 "HOMO_LUMO_gap": 0.13966, 
			 "cosmo_polarized_energy": -14.24, 
			 "cosmo_cavitation_energy": 48.6, 
			 "cosmo_dispersion_energy": -33.51, 
			 "cosmo_repulsion_energy": 2.52, 
			 "cosmo_total_nonelectrostatic_energy": 17.6, 
			 "SMD_solvation_energy": 5.37 
		},
		"coords": [
			{
				"x": 1.4065059313,
				"y": 4.0578102686,
				"z": 4.5828755303,
				"element": "C" 
			},
			{
				"x": 1.5697293024,
				"y": 2.9612415142,
				"z": 5.4740914634,
				"element": "O" 
			},
			{
				"x": 1.7486195018,
				"y": 1.723220429,
				"z": 4.9427642053,
				"element": "C" 
			},
			{
				"x": 1.7837628687,
				"y": 1.4508531763,
				"z": 3.5867913429,
				"element": "C" 
			},
			{
				"x": 1.9761027486,
				"y": 0.1204502256,
				"z": 3.1271209355,
				"element": "C" 
			},
			{
				"x": 2.0291177668,
				"y": -0.2697078592,
				"z": 1.7405956207,
				"element": "C" 
			},
			{
				"x": 2.2229783179,
				"y": -1.6166399382,
				"z": 1.4631782831,
				"element": "C" 
			},
			{
				"x": 2.3605676938,
				"y": -2.5555929027,
				"z": 2.5041134294,
				"element": "C" 
			},
			{
				"x": 2.3193811784,
				"y": -2.2355044666,
				"z": 3.7828105722,
				"element": "N" 
			},
			{
				"x": 2.1317201607,
				"y": -0.9275750574,
				"z": 4.1013558317,
				"element": "C" 
			},
			{
				"x": 2.0897370078,
				"y": -0.6023903485,
				"z": 5.487512256,
				"element": "C" 
			},
			{
				"x": 1.9034097165,
				"y": 0.6868856547,
				"z": 5.9043507523,
				"element": "C" 
			},
			{
				"x": 1.8822310203,
				"y": 0.7059066033,
				"z": 0.6043460877,
				"element": "C" 
			},
			{
				"x": 1.7134017121,
				"y": 1.9050682359,
				"z": 0.791824754,
				"element": "O" 
			},
			{
				"x": 1.9026771286,
				"y": 0.1997390779,
				"z": -0.8376299577,
				"element": "C" 
			},
			{
				"x": 0.5130298851,
				"y": -0.3087953727,
				"z": -1.2834936824,
				"element": "C" 
			},
			{
				"x": 0.4444753289,
				"y": -0.660119062,
				"z": -2.7863589789,
				"element": "C" 
			},
			{
				"x": 1.2582885549,
				"y": -1.9190478772,
				"z": -3.1622271638,
				"element": "C" 
			},
			{
				"x": 0.5778557727,
				"y": -3.2121220829,
				"z": -2.6973135783,
				"element": "C" 
			},
			{
				"x": -0.7718181255,
				"y": -3.2785613337,
				"z": -3.2556137553,
				"element": "N" 
			},
			{
				"x": -1.6178305738,
				"y": -2.1694119246,
				"z": -2.8096014974,
				"element": "C" 
			},
			{
				"x": -1.0186337349,
				"y": -0.84370265,
				"z": -3.3016002572,
				"element": "C" 
			},
			{
				"x": -1.8699912407,
				"y": 0.3724933057,
				"z": -3.0378149478,
				"element": "C" 
			},
			{
				"x": -3.0525147684,
				"y": 0.4193304126,
				"z": -2.4214557717,
				"element": "C" 
			},
			{
				"x": 1.2801923276,
				"y": 4.939176596,
				"z": 5.2130704105,
				"element": "H" 
			},
			{
				"x": 0.5207526942,
				"y": 3.9305255841,
				"z": 3.9489748883,
				"element": "H" 
			},
			{
				"x": 2.2871595097,
				"y": 4.188232825,
				"z": 3.942560163,
				"element": "H" 
			},
			{
				"x": 1.6678566019,
				"y": 2.2299687337,
				"z": 2.8512094153,
				"element": "H" 
			},
			{
				"x": 2.2701576969,
				"y": -1.9744191852,
				"z": 0.4421389923,
				"element": "H" 
			},
			{
				"x": 2.5113935941,
				"y": -3.6075187807,
				"z": 2.2663569068,
				"element": "H" 
			},
			{
				"x": 2.2111433562,
				"y": -1.4184201999,
				"z": 6.1918123701,
				"element": "H" 
			},
			{
				"x": 1.8688802149,
				"y": 0.9514031009,
				"z": 6.9561307192,
				"element": "H" 
			},
			{
				"x": 2.6696428326,
				"y": -0.5663300359,
				"z": -0.9839724395,
				"element": "H" 
			},
			{
				"x": 2.1804346386,
				"y": 1.0650905233,
				"z": -1.4465093406,
				"element": "H" 
			},
			{
				"x": -0.2194794916,
				"y": 0.4770144098,
				"z": -1.0699421994,
				"element": "H" 
			},
			{
				"x": 0.2205647981,
				"y": -1.1687781622,
				"z": -0.6710417466,
				"element": "H" 
			},
			{
				"x": 0.8712762955,
				"y": 0.1942945327,
				"z": -3.3316942597,
				"element": "H" 
			},
			{
				"x": 2.2736140437,
				"y": -1.8653489499,
				"z": -2.7523045053,
				"element": "H" 
			},
			{
				"x": 1.3581395201,
				"y": -1.9618175158,
				"z": -4.2531553469,
				"element": "H" 
			},
			{
				"x": 1.1464786021,
				"y": -4.0778524758,
				"z": -3.0551642733,
				"element": "H" 
			},
			{
				"x": 0.585847538,
				"y": -3.2617348621,
				"z": -1.5902149388,
				"element": "H" 
			},
			{
				"x": -1.2067163342,
				"y": -4.163036153,
				"z": -3.0095348299,
				"element": "H" 
			},
			{
				"x": -2.6152122436,
				"y": -2.3022759291,
				"z": -3.2424039342,
				"element": "H" 
			},
			{
				"x": -1.744090447,
				"y": -2.1381275922,
				"z": -1.7106567269,
				"element": "H" 
			},
			{
				"x": -0.9322414089,
				"y": -0.9435134853,
				"z": -4.3948896626,
				"element": "H" 
			},
			{
				"x": -1.4465953562,
				"y": 1.3056676876,
				"z": -3.4143773129,
				"element": "H" 
			},
			{
				"x": -3.586261842,
				"y": 1.35738638,
				"z": -2.3012944053,
				"element": "H" 
			},
			{
				"x": -3.537540295,
				"y": -0.4639150743,
				"z": -2.0161194181,
				"element": "H" 
			}
		],
		 "valence_orbital": [ 
			{
				"type": "occ",
				"energy": -0.2561,
				"method": "rhf"
			},
			{
				"type": "occ",
				"energy": -0.24493,
				"method": "rhf"
			},
			{
				"type": "occ",
				"energy": -0.24133,
				"method": "rhf"
			},
			{
				"type": "occ",
				"energy": -0.22196,
				"method": "rhf"
			},
			{
				"type": "occ",
				"energy": -0.21839,
				"method": "rhf"
			},
			{
				"type": "unocc",
				"energy": -0.07873,
				"method": "rhf"
			},
			{
				"type": "unocc",
				"energy": -0.01665,
				"method": "rhf"
			},
			{
				"type": "unocc",
				"energy": -0.00445,
				"method": "rhf"
			},
			{
				"type": "unocc",
				"energy": 0.01933,
				"method": "rhf"
			},
			{
				"type": "unocc",
				"energy": 0.04333,
				"method": "rhf"
			}
		],
		"cosmo_sigma_profile": { 
			"-0.025": 0.0,
			"-0.024": 0.0,
			"-0.023": 0.0,
			"-0.022": 0.0,
			"-0.021": 0.0,
			"-0.02": 0.0,
			"-0.019": 0.0,
			"-0.018": 0.0,
			"-0.017": 0.0,
			"-0.016": 0.0,
			"-0.015": 0.0,
			"-0.014": 0.0,
			"-0.013": 0.0,
			"-0.012": 0.0,
			"-0.011": 0.0,
			"-0.01": 0.579522895704,
			"-0.009": 1.40826591463,
			"-0.008": 1.42022806851,
			"-0.007": 6.30889594809,
			"-0.006": 14.0089627406,
			"-0.005": 21.211797047,
			"-0.004": 30.1505306163,
			"-0.003": 43.4317145492,
			"-0.002": 43.5288135788,
			"-0.001": 42.6573925673,
			"0.0": 31.3144516651,
			"0.001": 30.8969590076,
			"0.002": 28.375980846,
			"0.003": 23.2411908325,
			"0.004": 14.3405800696,
			"0.005": 10.0810738748,
			"0.006": 6.51684587316,
			"0.007": 5.65503727245,
			"0.008": 5.70083286907,
			"0.009": 4.65037451426,
			"0.01": 4.76380316634,
			"0.011": 3.25568610943,
			"0.012": 2.86697164655,
			"0.013": 1.99452743549,
			"0.014": 1.54665476909,
			"0.015": 1.18006722229,
			"0.016": 0.501025000661,
			"0.017": 0.675587223925,
			"0.018": 0.328967055639,
			"0.019": 0.0670617679992,
			"0.02": 0.0,
			"0.021": 0.0,
			"0.022": 0.0,
			"0.023": 0.0,
			"0.024": 0.0,
			"0.025": 0.0
		}
	}
}
