{
	 "smiles": "COC1=C(N)C(Cl)=NC=N1", 
	 "Tm": 344.15, 
	 "num_atms": 16, 
	 "gaussian": { 
		 "optdone": 1, 
		 "sigma_profile": "yes", 
		 "theory": "DFT", 
		 "functional": "B3LYP", 
		 "basiset": "6-31G**", 
		 "properties": { 
			 "R2extent": 2451.295, 
			 "electric_dipole_moment_norm": 3.88743177689, 
			 "electric_quadrupole_moment_norm": 8.16311386176, 
			 "total_energy": -893.815688712, 
			 "HOMO_LUMO_gap": 0.19422, 
			 "cosmo_polarized_energy": -9.64, 
			 "cosmo_cavitation_energy": 21.99, 
			 "cosmo_dispersion_energy": -16.93, 
			 "cosmo_repulsion_energy": 1.39, 
			 "cosmo_total_nonelectrostatic_energy": 6.46, 
			 "SMD_solvation_energy": 2.17 
		},
		"coords": [
			{
				"x": -1.9327358038,
				"y": 0.8647917056,
				"z": -3.3730397303,
				"element": "C" 
			},
			{
				"x": -1.6488303521,
				"y": 1.3414236118,
				"z": -2.0503759793,
				"element": "O" 
			},
			{
				"x": -0.3861787531,
				"y": 1.1823511291,
				"z": -1.6001428344,
				"element": "C" 
			},
			{
				"x": -0.1471779775,
				"y": 1.6608237499,
				"z": -0.2840911868,
				"element": "C" 
			},
			{
				"x": -1.132835963,
				"y": 2.3053634016,
				"z": 0.4295899215,
				"element": "N" 
			},
			{
				"x": 1.1640139406,
				"y": 1.4497166176,
				"z": 0.1442810447,
				"element": "C" 
			},
			{
				"x": 1.602225234,
				"y": 1.9658602902,
				"z": 1.773475974,
				"element": "Cl" 
			},
			{
				"x": 2.1125708961,
				"y": 0.8790742882,
				"z": -0.5875715005,
				"element": "N" 
			},
			{
				"x": 1.7593440443,
				"y": 0.4872398327,
				"z": -1.8065061773,
				"element": "C" 
			},
			{
				"x": 0.537947176,
				"y": 0.6099559764,
				"z": -2.3504383487,
				"element": "N" 
			},
			{
				"x": -2.9862161906,
				"y": 1.0900173001,
				"z": -3.5411194954,
				"element": "H" 
			},
			{
				"x": -1.7537865275,
				"y": -0.2111790502,
				"z": -3.4456713422,
				"element": "H" 
			},
			{
				"x": -1.3090061813,
				"y": 1.3755579303,
				"z": -4.1109290191,
				"element": "H" 
			},
			{
				"x": -2.0756510818,
				"y": 2.1190132402,
				"z": 0.1205765915,
				"element": "H" 
			},
			{
				"x": -1.0043992942,
				"y": 2.3425049121,
				"z": 1.4304689636,
				"element": "H" 
			},
			{
				"x": 2.5258168339,
				"y": 0.0216850645,
				"z": -2.4196068814,
				"element": "H" 
			}
		],
		 "valence_orbital": [ 
			{
				"type": "occ",
				"energy": -0.32275,
				"method": "rhf"
			},
			{
				"type": "occ",
				"energy": -0.31241,
				"method": "rhf"
			},
			{
				"type": "occ",
				"energy": -0.28365,
				"method": "rhf"
			},
			{
				"type": "occ",
				"energy": -0.26546,
				"method": "rhf"
			},
			{
				"type": "occ",
				"energy": -0.21868,
				"method": "rhf"
			},
			{
				"type": "unocc",
				"energy": -0.02446,
				"method": "rhf"
			},
			{
				"type": "unocc",
				"energy": -0.01324,
				"method": "rhf"
			},
			{
				"type": "unocc",
				"energy": 0.03154,
				"method": "rhf"
			},
			{
				"type": "unocc",
				"energy": 0.08074,
				"method": "rhf"
			},
			{
				"type": "unocc",
				"energy": 0.11017,
				"method": "rhf"
			}
		],
		"cosmo_sigma_profile": { 
			"-0.025": 0.0,
			"-0.024": 0.0,
			"-0.023": 0.0,
			"-0.022": 0.0,
			"-0.021": 0.0,
			"-0.02": 0.0,
			"-0.019": 0.0,
			"-0.018": 0.0,
			"-0.017": 0.0,
			"-0.016": 0.0,
			"-0.015": 0.0,
			"-0.014": 0.0156692883924,
			"-0.013": 1.01493467375,
			"-0.012": 1.57162830732,
			"-0.011": 2.29311968798,
			"-0.01": 2.39579722724,
			"-0.009": 1.54555300644,
			"-0.008": 2.07840421156,
			"-0.007": 4.18160281489,
			"-0.006": 8.14018921898,
			"-0.005": 8.94960845994,
			"-0.004": 11.1987697741,
			"-0.003": 13.7944155461,
			"-0.002": 15.2286738226,
			"-0.001": 13.7355365606,
			"0.0": 14.1934322316,
			"0.001": 11.3922090851,
			"0.002": 11.0982202501,
			"0.003": 11.4940295152,
			"0.004": 12.8516619342,
			"0.005": 7.17606840059,
			"0.006": 5.42288966515,
			"0.007": 3.52461242946,
			"0.008": 3.18488573416,
			"0.009": 2.38333911736,
			"0.01": 3.10780318179,
			"0.011": 2.67705165966,
			"0.012": 1.49002566099,
			"0.013": 1.03235566316,
			"0.014": 0.842016605039,
			"0.015": 0.0608411835875,
			"0.016": 0.0,
			"0.017": 0.0,
			"0.018": 0.0,
			"0.019": 0.0,
			"0.02": 0.0,
			"0.021": 0.0,
			"0.022": 0.0,
			"0.023": 0.0,
			"0.024": 0.0,
			"0.025": 0.0
		}
	}
}
