{
	 "smiles": "ClC1=C2CCC(=O)C2=CC(Br)=C1", 
	 "Tm": 398.15, 
	 "num_atms": 18, 
	 "gaussian": { 
		 "optdone": 1, 
		 "sigma_profile": "yes", 
		 "theory": "DFT", 
		 "functional": "B3LYP", 
		 "basiset": "6-31G**", 
		 "properties": { 
			 "R2extent": 5533.3024, 
			 "electric_dipole_moment_norm": 2.27748508008, 
			 "electric_quadrupole_moment_norm": 15.0547834093, 
			 "total_energy": -3453.40215357, 
			 "HOMO_LUMO_gap": 0.18233, 
			 "cosmo_polarized_energy": -7.83, 
			 "cosmo_cavitation_energy": 26.32, 
			 "cosmo_dispersion_energy": -19.94, 
			 "cosmo_repulsion_energy": 1.59, 
			 "cosmo_total_nonelectrostatic_energy": 7.98, 
			 "SMD_solvation_energy": 3.21 
		},
		"coords": [
			{
				"x": -1.804975024,
				"y": -2.7587394399,
				"z": -1.77481425,
				"element": "Cl" 
			},
			{
				"x": -1.7979001419,
				"y": -1.0562883167,
				"z": -1.3490221926,
				"element": "C" 
			},
			{
				"x": -1.2721642479,
				"y": -0.1151330887,
				"z": -2.233311441,
				"element": "C" 
			},
			{
				"x": -0.6582921915,
				"y": -0.3136066716,
				"z": -3.601783117,
				"element": "C" 
			},
			{
				"x": -0.2715308024,
				"y": 1.1125452823,
				"z": -4.062198146,
				"element": "C" 
			},
			{
				"x": -0.6850948758,
				"y": 2.0641234145,
				"z": -2.9284246319,
				"element": "C" 
			},
			{
				"x": -0.5469498049,
				"y": 3.270281122,
				"z": -2.9127787695,
				"element": "O" 
			},
			{
				"x": -1.2874848707,
				"y": 1.229383331,
				"z": -1.8522528098,
				"element": "C" 
			},
			{
				"x": -1.8031225022,
				"y": 1.6678871697,
				"z": -0.6323126099,
				"element": "C" 
			},
			{
				"x": -2.3186826184,
				"y": 0.7014585933,
				"z": 0.2236765661,
				"element": "C" 
			},
			{
				"x": -3.043483809,
				"y": 1.2178982856,
				"z": 1.9126785379,
				"element": "Br" 
			},
			{
				"x": -2.3227912338,
				"y": -0.6569794348,
				"z": -0.1192969954,
				"element": "C" 
			},
			{
				"x": -1.3718555045,
				"y": -0.792493781,
				"z": -4.2812280817,
				"element": "H" 
			},
			{
				"x": 0.2069836403,
				"y": -0.9831304805,
				"z": -3.5453365043,
				"element": "H" 
			},
			{
				"x": 0.801645058,
				"y": 1.2243724931,
				"z": -4.2462093825,
				"element": "H" 
			},
			{
				"x": -0.7795887659,
				"y": 1.4152605442,
				"z": -4.98323733,
				"element": "H" 
			},
			{
				"x": -1.7953425056,
				"y": 2.7210989993,
				"z": -0.3762204416,
				"element": "H" 
			},
			{
				"x": -2.7296697998,
				"y": -1.3930380218,
				"z": 0.5631715993,
				"element": "H" 
			}
		],
		 "valence_orbital": [ 
			{
				"type": "occ",
				"energy": -0.31362,
				"method": "rhf"
			},
			{
				"type": "occ",
				"energy": -0.29946,
				"method": "rhf"
			},
			{
				"type": "occ",
				"energy": -0.27288,
				"method": "rhf"
			},
			{
				"type": "occ",
				"energy": -0.2568,
				"method": "rhf"
			},
			{
				"type": "occ",
				"energy": -0.25565,
				"method": "rhf"
			},
			{
				"type": "unocc",
				"energy": -0.07332,
				"method": "rhf"
			},
			{
				"type": "unocc",
				"energy": -0.03466,
				"method": "rhf"
			},
			{
				"type": "unocc",
				"energy": -0.014,
				"method": "rhf"
			},
			{
				"type": "unocc",
				"energy": 0.02499,
				"method": "rhf"
			},
			{
				"type": "unocc",
				"energy": 0.03091,
				"method": "rhf"
			}
		],
		"cosmo_sigma_profile": { 
			"-0.025": 0.0,
			"-0.024": 0.0,
			"-0.023": 0.0,
			"-0.022": 0.0,
			"-0.021": 0.0,
			"-0.02": 0.0,
			"-0.019": 0.0,
			"-0.018": 0.0,
			"-0.017": 0.0,
			"-0.016": 0.0,
			"-0.015": 0.0,
			"-0.014": 0.0,
			"-0.013": 0.0,
			"-0.012": 0.0,
			"-0.011": 0.0,
			"-0.01": 0.0,
			"-0.009": 0.593444471015,
			"-0.008": 2.07496759004,
			"-0.007": 3.81480589262,
			"-0.006": 11.2468326926,
			"-0.005": 17.9183023785,
			"-0.004": 15.3177406314,
			"-0.003": 14.3349269624,
			"-0.002": 17.2166855757,
			"-0.001": 17.6781316336,
			"0.0": 26.9173943374,
			"0.001": 19.9436096229,
			"0.002": 14.1584468323,
			"0.003": 16.1272740006,
			"0.004": 18.7969593374,
			"0.005": 3.09984312592,
			"0.006": 1.29390228605,
			"0.007": 1.55593345132,
			"0.008": 1.16179739581,
			"0.009": 2.26459055081,
			"0.01": 1.84159421918,
			"0.011": 4.25674598758,
			"0.012": 3.96680100292,
			"0.013": 0.943682119925,
			"0.014": 0.0,
			"0.015": 0.0,
			"0.016": 0.0,
			"0.017": 0.0,
			"0.018": 0.0,
			"0.019": 0.0,
			"0.02": 0.0,
			"0.021": 0.0,
			"0.022": 0.0,
			"0.023": 0.0,
			"0.024": 0.0,
			"0.025": 0.0
		}
	}
}
