{
	 "smiles": "N#CSCC1=CC=CC=C1", 
	 "Tm": 315.65, 
	 "num_atms": 17, 
	 "gaussian": { 
		 "optdone": 1, 
		 "sigma_profile": "yes", 
		 "theory": "DFT", 
		 "functional": "B3LYP", 
		 "basiset": "6-31G**", 
		 "properties": { 
			 "R2extent": 2251.1822, 
			 "electric_dipole_moment_norm": 4.11307552204, 
			 "electric_quadrupole_moment_norm": 17.7247949915, 
			 "total_energy": -761.981981592, 
			 "HOMO_LUMO_gap": 0.21053, 
			 "cosmo_polarized_energy": -9.96, 
			 "cosmo_cavitation_energy": 23.81, 
			 "cosmo_dispersion_energy": -16.94, 
			 "cosmo_repulsion_energy": 1.33, 
			 "cosmo_total_nonelectrostatic_energy": 8.2, 
			 "SMD_solvation_energy": 5.43 
		},
		"coords": [
			{
				"x": 0.1473648138,
				"y": 1.6497518508,
				"z": 4.0040601357,
				"element": "N" 
			},
			{
				"x": -0.0071061278,
				"y": 2.0100103975,
				"z": 2.9050099174,
				"element": "C" 
			},
			{
				"x": -0.2303569553,
				"y": 2.5726072566,
				"z": 1.3183371879,
				"element": "S" 
			},
			{
				"x": -0.7705554692,
				"y": 0.9774250748,
				"z": 0.4829754559,
				"element": "C" 
			},
			{
				"x": 0.2903115583,
				"y": -0.0807100368,
				"z": 0.4018814232,
				"element": "C" 
			},
			{
				"x": 1.1996118851,
				"y": -0.0997545292,
				"z": -0.6652236141,
				"element": "C" 
			},
			{
				"x": 2.184275901,
				"y": -1.0831344878,
				"z": -0.7386065694,
				"element": "C" 
			},
			{
				"x": 2.2738646931,
				"y": -2.0590801358,
				"z": 0.2571803698,
				"element": "C" 
			},
			{
				"x": 1.3739421915,
				"y": -2.0471092099,
				"z": 1.3237538446,
				"element": "C" 
			},
			{
				"x": 0.3863904065,
				"y": -1.0640834003,
				"z": 1.3959125163,
				"element": "C" 
			},
			{
				"x": -1.0702964128,
				"y": 1.3347616623,
				"z": -0.5060107328,
				"element": "H" 
			},
			{
				"x": -1.661907465,
				"y": 0.6362132718,
				"z": 1.0117287944,
				"element": "H" 
			},
			{
				"x": 1.1345758309,
				"y": 0.6597070142,
				"z": -1.4406773443,
				"element": "H" 
			},
			{
				"x": 2.8799414837,
				"y": -1.0897131722,
				"z": -1.5726005115,
				"element": "H" 
			},
			{
				"x": 3.0407706624,
				"y": -2.8259462309,
				"z": 0.200053482,
				"element": "H" 
			},
			{
				"x": 1.4383150771,
				"y": -2.8031341468,
				"z": 2.1005672982,
				"element": "H" 
			},
			{
				"x": -0.3099420733,
				"y": -1.0566111784,
				"z": 2.2296583466,
				"element": "H" 
			}
		],
		 "valence_orbital": [ 
			{
				"type": "occ",
				"energy": -0.35137,
				"method": "rhf"
			},
			{
				"type": "occ",
				"energy": -0.32628,
				"method": "rhf"
			},
			{
				"type": "occ",
				"energy": -0.26672,
				"method": "rhf"
			},
			{
				"type": "occ",
				"energy": -0.26104,
				"method": "rhf"
			},
			{
				"type": "occ",
				"energy": -0.25355,
				"method": "rhf"
			},
			{
				"type": "unocc",
				"energy": -0.04302,
				"method": "rhf"
			},
			{
				"type": "unocc",
				"energy": -0.01404,
				"method": "rhf"
			},
			{
				"type": "unocc",
				"energy": -0.00251,
				"method": "rhf"
			},
			{
				"type": "unocc",
				"energy": 0.04031,
				"method": "rhf"
			},
			{
				"type": "unocc",
				"energy": 0.04443,
				"method": "rhf"
			}
		],
		"cosmo_sigma_profile": { 
			"-0.025": 0.0,
			"-0.024": 0.0,
			"-0.023": 0.0,
			"-0.022": 0.0,
			"-0.021": 0.0,
			"-0.02": 0.0,
			"-0.019": 0.0,
			"-0.018": 0.0,
			"-0.017": 0.0,
			"-0.016": 0.0,
			"-0.015": 0.0,
			"-0.014": 0.0,
			"-0.013": 0.0,
			"-0.012": 0.0,
			"-0.011": 0.0,
			"-0.01": 0.49288328595,
			"-0.009": 2.94009403811,
			"-0.008": 5.89872381006,
			"-0.007": 5.57515028189,
			"-0.006": 12.5671977403,
			"-0.005": 15.968905571,
			"-0.004": 15.2156423755,
			"-0.003": 12.0880072578,
			"-0.002": 10.7059064794,
			"-0.001": 10.8511358888,
			"0.0": 11.6602312082,
			"0.001": 12.9326940898,
			"0.002": 13.4500743957,
			"0.003": 13.8777609002,
			"0.004": 15.2220260978,
			"0.005": 12.3275542984,
			"0.006": 3.74702744192,
			"0.007": 3.03208071088,
			"0.008": 3.08685744768,
			"0.009": 2.96117616697,
			"0.01": 2.98363125832,
			"0.011": 2.83772206268,
			"0.012": 2.42325713407,
			"0.013": 0.860647136416,
			"0.014": 0.0,
			"0.015": 0.0,
			"0.016": 0.0,
			"0.017": 0.0,
			"0.018": 0.0,
			"0.019": 0.0,
			"0.02": 0.0,
			"0.021": 0.0,
			"0.022": 0.0,
			"0.023": 0.0,
			"0.024": 0.0,
			"0.025": 0.0
		}
	}
}
