{
	 "smiles": "CCC1OC(=O)C(O)=C1C", 
	 "Tm": 301.65, 
	 "num_atms": 20, 
	 "gaussian": { 
		 "optdone": 1, 
		 "sigma_profile": "yes", 
		 "theory": "DFT", 
		 "functional": "B3LYP", 
		 "basiset": "6-31G**", 
		 "properties": { 
			 "R2extent": 2495.5192, 
			 "electric_dipole_moment_norm": 6.23328308839, 
			 "electric_quadrupole_moment_norm": 13.7904568057, 
			 "total_energy": -498.441585681, 
			 "HOMO_LUMO_gap": 0.21421, 
			 "cosmo_polarized_energy": -17.24, 
			 "cosmo_cavitation_energy": 23.71, 
			 "cosmo_dispersion_energy": -17.08, 
			 "cosmo_repulsion_energy": 1.42, 
			 "cosmo_total_nonelectrostatic_energy": 8.05, 
			 "SMD_solvation_energy": 5.68 
		},
		"coords": [
			{
				"x": -1.1795887737,
				"y": -1.1570575116,
				"z": -2.6307038606,
				"element": "C" 
			},
			{
				"x": -1.8343078973,
				"y": -1.1190168999,
				"z": -1.2468945683,
				"element": "C" 
			},
			{
				"x": -1.116841374,
				"y": -1.999804824,
				"z": -0.2185894722,
				"element": "C" 
			},
			{
				"x": 0.2427271065,
				"y": -1.5390542102,
				"z": -0.0605742575,
				"element": "O" 
			},
			{
				"x": 0.4911300034,
				"y": -1.2365287597,
				"z": 1.2525277874,
				"element": "C" 
			},
			{
				"x": 1.5485575277,
				"y": -0.8230607498,
				"z": 1.6520393744,
				"element": "O" 
			},
			{
				"x": -0.7574100735,
				"y": -1.5224202683,
				"z": 2.0080121083,
				"element": "C" 
			},
			{
				"x": -0.7469526563,
				"y": -1.3020062341,
				"z": 3.3405097909,
				"element": "O" 
			},
			{
				"x": -1.7071221922,
				"y": -1.9741086403,
				"z": 1.1721653132,
				"element": "C" 
			},
			{
				"x": -3.1064704852,
				"y": -2.4069559936,
				"z": 1.4741404206,
				"element": "C" 
			},
			{
				"x": -1.7134427191,
				"y": -0.5079749152,
				"z": -3.3312684594,
				"element": "H" 
			},
			{
				"x": -1.1853501321,
				"y": -2.1718823253,
				"z": -3.0444031813,
				"element": "H" 
			},
			{
				"x": -0.1407997157,
				"y": -0.8216663467,
				"z": -2.5763981375,
				"element": "H" 
			},
			{
				"x": -2.8768440284,
				"y": -1.4557795688,
				"z": -1.3148420216,
				"element": "H" 
			},
			{
				"x": -1.8545129362,
				"y": -0.0931216747,
				"z": -0.8598049807,
				"element": "H" 
			},
			{
				"x": -1.0609759177,
				"y": -3.0306700946,
				"z": -0.6006598923,
				"element": "H" 
			},
			{
				"x": -1.61638418,
				"y": -1.5113049333,
				"z": 3.707876903,
				"element": "H" 
			},
			{
				"x": -3.3089936267,
				"y": -2.4182846932,
				"z": 2.5507778013,
				"element": "H" 
			},
			{
				"x": -3.8471699211,
				"y": -1.744342278,
				"z": 1.0100165174,
				"element": "H" 
			},
			{
				"x": -3.3001480086,
				"y": -3.4188590788,
				"z": 1.0976728149,
				"element": "H" 
			}
		],
		 "valence_orbital": [ 
			{
				"type": "occ",
				"energy": -0.35137,
				"method": "rhf"
			},
			{
				"type": "occ",
				"energy": -0.33928,
				"method": "rhf"
			},
			{
				"type": "occ",
				"energy": -0.29083,
				"method": "rhf"
			},
			{
				"type": "occ",
				"energy": -0.26522,
				"method": "rhf"
			},
			{
				"type": "occ",
				"energy": -0.24201,
				"method": "rhf"
			},
			{
				"type": "unocc",
				"energy": -0.0278,
				"method": "rhf"
			},
			{
				"type": "unocc",
				"energy": 0.03772,
				"method": "rhf"
			},
			{
				"type": "unocc",
				"energy": 0.08594,
				"method": "rhf"
			},
			{
				"type": "unocc",
				"energy": 0.09848,
				"method": "rhf"
			},
			{
				"type": "unocc",
				"energy": 0.11133,
				"method": "rhf"
			}
		],
		"cosmo_sigma_profile": { 
			"-0.025": 0.0,
			"-0.024": 0.0,
			"-0.023": 0.0,
			"-0.022": 0.0,
			"-0.021": 0.0,
			"-0.02": 0.0,
			"-0.019": 0.0,
			"-0.018": 0.245418040125,
			"-0.017": 1.10785729616,
			"-0.016": 0.942307654737,
			"-0.015": 1.18730841864,
			"-0.014": 1.63908893781,
			"-0.013": 0.998950597597,
			"-0.012": 0.996471357054,
			"-0.011": 0.707200695473,
			"-0.01": 1.09279670618,
			"-0.009": 1.19889042701,
			"-0.008": 0.796067028803,
			"-0.007": 1.96441652079,
			"-0.006": 6.03975854597,
			"-0.005": 9.86448402817,
			"-0.004": 16.2752980188,
			"-0.003": 21.9891165872,
			"-0.002": 22.5985525615,
			"-0.001": 18.7259152569,
			"0.0": 13.904175101,
			"0.001": 12.6617684844,
			"0.002": 3.77579869468,
			"0.003": 3.4820874066,
			"0.004": 3.76107300751,
			"0.005": 3.04024348505,
			"0.006": 2.88428598383,
			"0.007": 3.36724971586,
			"0.008": 3.75916191527,
			"0.009": 4.54037859171,
			"0.01": 5.55966321749,
			"0.011": 6.0087516986,
			"0.012": 7.83808553497,
			"0.013": 3.16202263766,
			"0.014": 0.10666156746,
			"0.015": 0.0,
			"0.016": 0.0,
			"0.017": 0.0,
			"0.018": 0.0,
			"0.019": 0.0,
			"0.02": 0.0,
			"0.021": 0.0,
			"0.022": 0.0,
			"0.023": 0.0,
			"0.024": 0.0,
			"0.025": 0.0
		}
	}
}
