{
	 "smiles": "O=CC1=CN=C(S1)C1=CSC=C1", 
	 "Tm": 381.15, 
	 "num_atms": 17, 
	 "gaussian": { 
		 "optdone": 1, 
		 "sigma_profile": "yes", 
		 "theory": "DFT", 
		 "functional": "B3LYP", 
		 "basiset": "6-31G**", 
		 "properties": { 
			 "R2extent": 3554.7038, 
			 "electric_dipole_moment_norm": 2.89339139765, 
			 "electric_quadrupole_moment_norm": 14.1754528665, 
			 "total_energy": -1234.1834748, 
			 "HOMO_LUMO_gap": 0.14962, 
			 "cosmo_polarized_energy": -10.03, 
			 "cosmo_cavitation_energy": 25.69, 
			 "cosmo_dispersion_energy": -19.95, 
			 "cosmo_repulsion_energy": 1.47, 
			 "cosmo_total_nonelectrostatic_energy": 7.21, 
			 "SMD_solvation_energy": 4.06 
		},
		"coords": [
			{
				"x": -1.433088282,
				"y": 2.0314744409,
				"z": 3.5859514301,
				"element": "O" 
			},
			{
				"x": -1.528029196,
				"y": 0.8242551177,
				"z": 3.4433570892,
				"element": "C" 
			},
			{
				"x": -1.3013099159,
				"y": 0.1143704527,
				"z": 2.1936690321,
				"element": "C" 
			},
			{
				"x": -1.3880706248,
				"y": -1.2420734108,
				"z": 1.9585889109,
				"element": "C" 
			},
			{
				"x": -1.12723871,
				"y": -1.6618102962,
				"z": 0.6937738896,
				"element": "N" 
			},
			{
				"x": -0.830381487,
				"y": -0.6398115814,
				"z": -0.0877827688,
				"element": "C" 
			},
			{
				"x": -0.8583226836,
				"y": 0.9243865321,
				"z": 0.7140105903,
				"element": "S" 
			},
			{
				"x": -0.5041915153,
				"y": -0.7790847148,
				"z": -1.5003248816,
				"element": "C" 
			},
			{
				"x": -0.4819386556,
				"y": -2.0046826276,
				"z": -2.1320836201,
				"element": "C" 
			},
			{
				"x": -0.0652586906,
				"y": -1.8615650477,
				"z": -3.7953992915,
				"element": "S" 
			},
			{
				"x": 0.0863134958,
				"y": -0.1348556493,
				"z": -3.6629547978,
				"element": "C" 
			},
			{
				"x": -0.173665603,
				"y": 0.295887303,
				"z": -2.3962726235,
				"element": "C" 
			},
			{
				"x": -1.8014703366,
				"y": 0.1594438455,
				"z": 4.2910286792,
				"element": "H" 
			},
			{
				"x": -1.6488565202,
				"y": -1.9714100618,
				"z": 2.7191315561,
				"element": "H" 
			},
			{
				"x": -0.6921612427,
				"y": -2.9648392461,
				"z": -1.6839918752,
				"element": "H" 
			},
			{
				"x": 0.3576396144,
				"y": 0.4543532344,
				"z": -4.527465438,
				"element": "H" 
			},
			{
				"x": -0.1331696469,
				"y": 1.3392617093,
				"z": -2.104435881,
				"element": "H" 
			}
		],
		 "valence_orbital": [ 
			{
				"type": "occ",
				"energy": -0.29562,
				"method": "rhf"
			},
			{
				"type": "occ",
				"energy": -0.29521,
				"method": "rhf"
			},
			{
				"type": "occ",
				"energy": -0.26206,
				"method": "rhf"
			},
			{
				"type": "occ",
				"energy": -0.25901,
				"method": "rhf"
			},
			{
				"type": "occ",
				"energy": -0.2345,
				"method": "rhf"
			},
			{
				"type": "unocc",
				"energy": -0.08488,
				"method": "rhf"
			},
			{
				"type": "unocc",
				"energy": -0.03409,
				"method": "rhf"
			},
			{
				"type": "unocc",
				"energy": -0.0017,
				"method": "rhf"
			},
			{
				"type": "unocc",
				"energy": 0.00261,
				"method": "rhf"
			},
			{
				"type": "unocc",
				"energy": 0.02474,
				"method": "rhf"
			}
		],
		"cosmo_sigma_profile": { 
			"-0.025": 0.0,
			"-0.024": 0.0,
			"-0.023": 0.0,
			"-0.022": 0.0,
			"-0.021": 0.0,
			"-0.02": 0.0,
			"-0.019": 0.0,
			"-0.018": 0.0,
			"-0.017": 0.0,
			"-0.016": 0.0,
			"-0.015": 0.0,
			"-0.014": 0.0,
			"-0.013": 0.0,
			"-0.012": 0.0,
			"-0.011": 0.0,
			"-0.01": 0.532287778575,
			"-0.009": 6.70863820888,
			"-0.008": 8.04439439673,
			"-0.007": 9.88263956198,
			"-0.006": 9.15677917896,
			"-0.005": 9.02773323774,
			"-0.004": 9.40914315037,
			"-0.003": 9.42199511063,
			"-0.002": 12.7078057174,
			"-0.001": 17.3598239592,
			"0.0": 21.2007844746,
			"0.001": 21.4955333418,
			"0.002": 24.9322743939,
			"0.003": 16.5987890905,
			"0.004": 6.67400760733,
			"0.005": 3.81426292705,
			"0.006": 2.91758556857,
			"0.007": 3.60060492352,
			"0.008": 2.43786580048,
			"0.009": 3.06513708332,
			"0.01": 3.5416387265,
			"0.011": 5.28253791685,
			"0.012": 3.77305543733,
			"0.013": 0.792374929007,
			"0.014": 0.0052387968165,
			"0.015": 0.0,
			"0.016": 0.0,
			"0.017": 0.0,
			"0.018": 0.0,
			"0.019": 0.0,
			"0.02": 0.0,
			"0.021": 0.0,
			"0.022": 0.0,
			"0.023": 0.0,
			"0.024": 0.0,
			"0.025": 0.0
		}
	}
}
