{
	 "smiles": "CCCCCCCCCCCCCCCCI", 
	 "Tm": 295.15, 
	 "num_atms": 50, 
	 "gaussian": { 
		 "optdone": 1, 
		 "sigma_profile": "no", 
		 "theory": "DFT", 
		 "functional": "B3LYP", 
		 "basiset": "6-31G**", 
		 "properties": { 
			 "R2extent": 9146.0255, 
			 "electric_dipole_moment_norm": 2.45544831345, 
			 "electric_quadrupole_moment_norm": 15.9497391361, 
			 "total_energy": -641.032596752, 
			 "HOMO_LUMO_gap": 0.21477, 
			 "cosmo_polarized_energy": -108745.41, 
			 "cosmo_cavitation_energy": 51.81, 
			 "cosmo_dispersion_energy": -35.94, 
			 "cosmo_repulsion_energy": 2.95, 
			 "cosmo_total_nonelectrostatic_energy": 18.83, 
			 "SMD_solvation_energy": 5.76 
		},
		"coords": [
			{
				"x": 2.8094626924,
				"y": -1.2975467045,
				"z": 4.775803263,
				"element": "C" 
			},
			{
				"x": 2.0051348669,
				"y": -1.9126045777,
				"z": 3.6240009948,
				"element": "C" 
			},
			{
				"x": 2.2110309231,
				"y": -1.2283148986,
				"z": 2.2607552846,
				"element": "C" 
			},
			{
				"x": 3.6168569714,
				"y": -1.4087400728,
				"z": 1.6702155626,
				"element": "C" 
			},
			{
				"x": 3.891716794,
				"y": -0.6726601311,
				"z": 0.3455620635,
				"element": "C" 
			},
			{
				"x": 3.04414237,
				"y": -1.1149936024,
				"z": -0.8687632408,
				"element": "C" 
			},
			{
				"x": 1.7561634027,
				"y": -0.3086300176,
				"z": -1.1004792522,
				"element": "C" 
			},
			{
				"x": 0.9664641604,
				"y": -0.7850383134,
				"z": -2.3280852907,
				"element": "C" 
			},
			{
				"x": -0.3616376826,
				"y": -0.0467960016,
				"z": -2.5670395845,
				"element": "C" 
			},
			{
				"x": -0.2078022717,
				"y": 1.4361767755,
				"z": -2.9378834002,
				"element": "C" 
			},
			{
				"x": -1.5241656447,
				"y": 2.1320360759,
				"z": -3.3290007123,
				"element": "C" 
			},
			{
				"x": -2.595123083,
				"y": 2.2160092756,
				"z": -2.2261380346,
				"element": "C" 
			},
			{
				"x": -2.1759056172,
				"y": 3.0477308089,
				"z": -1.0045523829,
				"element": "C" 
			},
			{
				"x": -3.2950192363,
				"y": 3.2762028379,
				"z": 0.0268184564,
				"element": "C" 
			},
			{
				"x": -3.7596372826,
				"y": 1.9922532215,
				"z": 0.7398967276,
				"element": "C" 
			},
			{
				"x": -4.8079497817,
				"y": 2.3064079307,
				"z": 1.7979728373,
				"element": "C" 
			},
			{
				"x": -5.5109460444,
				"y": 0.5183039957,
				"z": 2.8527745215,
				"element": "I" 
			},
			{
				"x": 3.8891079505,
				"y": -1.3806805375,
				"z": 4.6145274033,
				"element": "H" 
			},
			{
				"x": 2.5739155305,
				"y": -0.2334783245,
				"z": 4.8958619691,
				"element": "H" 
			},
			{
				"x": 2.5820505136,
				"y": -1.7959068399,
				"z": 5.7239960731,
				"element": "H" 
			},
			{
				"x": 2.2535007507,
				"y": -2.9791513382,
				"z": 3.532784843,
				"element": "H" 
			},
			{
				"x": 0.9381184454,
				"y": -1.8725133645,
				"z": 3.8776785457,
				"element": "H" 
			},
			{
				"x": 1.9907799463,
				"y": -0.1550945172,
				"z": 2.3592562863,
				"element": "H" 
			},
			{
				"x": 1.4694991784,
				"y": -1.629209039,
				"z": 1.5591180371,
				"element": "H" 
			},
			{
				"x": 4.3622542257,
				"y": -1.0716444506,
				"z": 2.4017459017,
				"element": "H" 
			},
			{
				"x": 3.8036058393,
				"y": -2.4828288731,
				"z": 1.5240726359,
				"element": "H" 
			},
			{
				"x": 4.9520412443,
				"y": -0.8208513161,
				"z": 0.1054981025,
				"element": "H" 
			},
			{
				"x": 3.7714721717,
				"y": 0.4095231942,
				"z": 0.4978017473,
				"element": "H" 
			},
			{
				"x": 2.7973687948,
				"y": -2.1823042898,
				"z": -0.7729602746,
				"element": "H" 
			},
			{
				"x": 3.6562510356,
				"y": -1.0348398235,
				"z": -1.7770463625,
				"element": "H" 
			},
			{
				"x": 1.1092372673,
				"y": -0.3623564398,
				"z": -0.2156371134,
				"element": "H" 
			},
			{
				"x": 2.0243021723,
				"y": 0.7500264007,
				"z": -1.2153687492,
				"element": "H" 
			},
			{
				"x": 1.5980575127,
				"y": -0.6940058161,
				"z": -3.2238235719,
				"element": "H" 
			},
			{
				"x": 0.7563109275,
				"y": -1.8574703094,
				"z": -2.2155912913,
				"element": "H" 
			},
			{
				"x": -0.9072276075,
				"y": -0.5546747421,
				"z": -3.3745316894,
				"element": "H" 
			},
			{
				"x": -0.9884414217,
				"y": -0.1466425354,
				"z": -1.670390673,
				"element": "H" 
			},
			{
				"x": 0.2667240058,
				"y": 1.9818291075,
				"z": -2.1131204335,
				"element": "H" 
			},
			{
				"x": 0.4870973548,
				"y": 1.5150451588,
				"z": -3.7854310503,
				"element": "H" 
			},
			{
				"x": -1.9546144091,
				"y": 1.609070836,
				"z": -4.1938806932,
				"element": "H" 
			},
			{
				"x": -1.2953459182,
				"y": 3.1498959226,
				"z": -3.6737549027,
				"element": "H" 
			},
			{
				"x": -3.5019682585,
				"y": 2.660905501,
				"z": -2.658944987,
				"element": "H" 
			},
			{
				"x": -2.8786989267,
				"y": 1.2039583774,
				"z": -1.9126362508,
				"element": "H" 
			},
			{
				"x": -1.321539583,
				"y": 2.5755130958,
				"z": -0.5020219455,
				"element": "H" 
			},
			{
				"x": -1.820061923,
				"y": 4.0276591266,
				"z": -1.3509235478,
				"element": "H" 
			},
			{
				"x": -4.1543389721,
				"y": 3.750410804,
				"z": -0.4677110838,
				"element": "H" 
			},
			{
				"x": -2.9408334694,
				"y": 3.99244868,
				"z": 0.7801853077,
				"element": "H" 
			},
			{
				"x": -2.8989927709,
				"y": 1.4999195707,
				"z": 1.2078728055,
				"element": "H" 
			},
			{
				"x": -4.1738306882,
				"y": 1.2831262154,
				"z": 0.0162228213,
				"element": "H" 
			},
			{
				"x": -4.4268264852,
				"y": 2.954735621,
				"z": 2.5870309879,
				"element": "H" 
			},
			{
				"x": -5.7119599702,
				"y": 2.7449883429,
				"z": 1.3753633395,
				"element": "H" 
			}
		],
		 "valence_orbital": [ 
			{
				"type": "occ",
				"energy": -0.30435,
				"method": "rhf"
			},
			{
				"type": "occ",
				"energy": -0.29941,
				"method": "rhf"
			},
			{
				"type": "occ",
				"energy": -0.29364,
				"method": "rhf"
			},
			{
				"type": "occ",
				"energy": -0.25486,
				"method": "rhf"
			},
			{
				"type": "occ",
				"energy": -0.25437,
				"method": "rhf"
			},
			{
				"type": "unocc",
				"energy": -0.0396,
				"method": "rhf"
			},
			{
				"type": "unocc",
				"energy": 0.03975,
				"method": "rhf"
			},
			{
				"type": "unocc",
				"energy": 0.04222,
				"method": "rhf"
			},
			{
				"type": "unocc",
				"energy": 0.05545,
				"method": "rhf"
			},
			{
				"type": "unocc",
				"energy": 0.08417,
				"method": "rhf"
			}
		],
		"cosmo_sigma_profile": { 
			"0.0": 0.0,
			"0.0": 0.0,
			"0.0": 0.0,
			"0.0": 0.0,
			"0.0": 0.0,
			"0.0": 0.0,
			"0.0": 0.0,
			"0.0": 0.0,
			"0.0": 0.0,
			"0.0": 0.0,
			"0.0": 0.0,
			"0.0": 0.0,
			"0.0": 0.0,
			"0.0": 0.0,
			"0.0": 0.0,
			"0.0": 0.0,
			"0.0": 0.0,
			"0.0": 0.0,
			"0.0": 0.0,
			"0.0": 0.0,
			"0.0": 0.0,
			"0.0": 0.0,
			"0.0": 0.0,
			"0.0": 0.0,
			"0.0": 0.0,
			"0.0": 0.0,
			"0.0": 0.0,
			"0.0": 0.0,
			"0.0": 0.0,
			"0.0": 0.0,
			"0.0": 0.0,
			"0.0": 0.0,
			"0.0": 0.0,
			"0.0": 0.0,
			"0.0": 0.0,
			"0.0": 0.0,
			"0.0": 0.0,
			"0.0": 0.0,
			"0.0": 0.0,
			"0.0": 0.0,
			"0.0": 0.0,
			"0.0": 0.0,
			"0.0": 0.0,
			"0.0": 0.0,
			"0.0": 0.0,
			"0.0": 0.0,
			"0.0": 0.0,
			"0.0": 0.0,
			"0.0": 0.0,
			"0.0": 0.0,
			"0.0": 0.0
		}
	}
}
