{
	 "smiles": "CC1=CC(C#N)=C(N)S1", 
	 "Tm": 374.15, 
	 "num_atms": 15, 
	 "gaussian": { 
		 "optdone": 1, 
		 "sigma_profile": "yes", 
		 "theory": "DFT", 
		 "functional": "B3LYP", 
		 "basiset": "6-31G**", 
		 "properties": { 
			 "R2extent": 2951.4194, 
			 "electric_dipole_moment_norm": 4.24338818752, 
			 "electric_quadrupole_moment_norm": 27.4834398908, 
			 "total_energy": -739.921105435, 
			 "HOMO_LUMO_gap": 0.1848, 
			 "cosmo_polarized_energy": -12.61, 
			 "cosmo_cavitation_energy": 21.7, 
			 "cosmo_dispersion_energy": -16.04, 
			 "cosmo_repulsion_energy": 1.28, 
			 "cosmo_total_nonelectrostatic_energy": 6.95, 
			 "SMD_solvation_energy": 4.87 
		},
		"coords": [
			{
				"x": -0.2779185202,
				"y": -0.8883166022,
				"z": -2.1096159344,
				"element": "C" 
			},
			{
				"x": 0.4421648386,
				"y": -1.463514799,
				"z": -0.9292326367,
				"element": "C" 
			},
			{
				"x": 0.132621869,
				"y": -2.5524899081,
				"z": -0.1789435665,
				"element": "C" 
			},
			{
				"x": 1.0497783616,
				"y": -2.8018182526,
				"z": 0.9057435302,
				"element": "C" 
			},
			{
				"x": 0.9476223939,
				"y": -3.85013502,
				"z": 1.8565368174,
				"element": "C" 
			},
			{
				"x": 0.9052145736,
				"y": -4.6887612423,
				"z": 2.6661496748,
				"element": "N" 
			},
			{
				"x": 2.0792671922,
				"y": -1.8735076886,
				"z": 0.9603191359,
				"element": "C" 
			},
			{
				"x": 3.1556639795,
				"y": -1.8613502513,
				"z": 1.8151844066,
				"element": "N" 
			},
			{
				"x": 1.9220702772,
				"y": -0.701559983,
				"z": -0.3255383472,
				"element": "S" 
			},
			{
				"x": -1.1626708629,
				"y": -1.4936129841,
				"z": -2.3254894896,
				"element": "H" 
			},
			{
				"x": 0.3474774497,
				"y": -0.8772033844,
				"z": -3.00988616,
				"element": "H" 
			},
			{
				"x": -0.6120376271,
				"y": 0.1398253455,
				"z": -1.9274738539,
				"element": "H" 
			},
			{
				"x": -0.7345131353,
				"y": -3.1753949615,
				"z": -0.3660996237,
				"element": "H" 
			},
			{
				"x": 3.5461923043,
				"y": -0.960659451,
				"z": 2.0531063989,
				"element": "H" 
			},
			{
				"x": 3.0741669059,
				"y": -2.4881008175,
				"z": 2.6063396481,
				"element": "H" 
			}
		],
		 "valence_orbital": [ 
			{
				"type": "occ",
				"energy": -0.34526,
				"method": "rhf"
			},
			{
				"type": "occ",
				"energy": -0.32336,
				"method": "rhf"
			},
			{
				"type": "occ",
				"energy": -0.31962,
				"method": "rhf"
			},
			{
				"type": "occ",
				"energy": -0.25957,
				"method": "rhf"
			},
			{
				"type": "occ",
				"energy": -0.20877,
				"method": "rhf"
			},
			{
				"type": "unocc",
				"energy": -0.02397,
				"method": "rhf"
			},
			{
				"type": "unocc",
				"energy": -0.00442,
				"method": "rhf"
			},
			{
				"type": "unocc",
				"energy": 0.01802,
				"method": "rhf"
			},
			{
				"type": "unocc",
				"energy": 0.04501,
				"method": "rhf"
			},
			{
				"type": "unocc",
				"energy": 0.06153,
				"method": "rhf"
			}
		],
		"cosmo_sigma_profile": { 
			"-0.025": 0.0,
			"-0.024": 0.0,
			"-0.023": 0.0,
			"-0.022": 0.0,
			"-0.021": 0.0,
			"-0.02": 0.0,
			"-0.019": 0.0,
			"-0.018": 0.0,
			"-0.017": 0.0,
			"-0.016": 0.0,
			"-0.015": 0.826037786357,
			"-0.014": 1.73434327763,
			"-0.013": 2.7515719236,
			"-0.012": 3.07610575452,
			"-0.011": 2.35566256024,
			"-0.01": 2.09607847029,
			"-0.009": 2.02755138936,
			"-0.008": 2.25676533016,
			"-0.007": 4.1785207019,
			"-0.006": 4.47628794837,
			"-0.005": 8.86616484578,
			"-0.004": 12.8504723581,
			"-0.003": 11.162335328,
			"-0.002": 12.0601560487,
			"-0.001": 12.5626847157,
			"0.0": 9.68415368881,
			"0.001": 12.9709198637,
			"0.002": 14.7995964791,
			"0.003": 13.9051447599,
			"0.004": 9.96401032995,
			"0.005": 4.71174255756,
			"0.006": 2.96777663545,
			"0.007": 3.04541013431,
			"0.008": 2.95303504053,
			"0.009": 3.54766207936,
			"0.01": 3.86937318346,
			"0.011": 3.76114567202,
			"0.012": 3.06335357493,
			"0.013": 2.35587725459,
			"0.014": 1.29223026853,
			"0.015": 0.00776093812685,
			"0.016": 0.0,
			"0.017": 0.0,
			"0.018": 0.0,
			"0.019": 0.0,
			"0.02": 0.0,
			"0.021": 0.0,
			"0.022": 0.0,
			"0.023": 0.0,
			"0.024": 0.0,
			"0.025": 0.0
		}
	}
}
