{
	 "smiles": "ClC(=O)C1=CC=C(C=C1)C(Cl)=O", 
	 "Tm": 355.35, 
	 "num_atms": 16, 
	 "gaussian": { 
		 "optdone": 1, 
		 "sigma_profile": "yes", 
		 "theory": "DFT", 
		 "functional": "B3LYP", 
		 "basiset": "6-31G**", 
		 "properties": { 
			 "R2extent": 5602.5826, 
			 "electric_dipole_moment_norm": 0.000331662479036, 
			 "electric_quadrupole_moment_norm": 16.9190939828, 
			 "total_energy": -1378.10618405, 
			 "HOMO_LUMO_gap": 0.17916, 
			 "cosmo_polarized_energy": -7.3, 
			 "cosmo_cavitation_energy": 25.32, 
			 "cosmo_dispersion_energy": -18.82, 
			 "cosmo_repulsion_energy": 1.49, 
			 "cosmo_total_nonelectrostatic_energy": 7.99, 
			 "SMD_solvation_energy": 5.59 
		},
		"coords": [
			{
				"x": 2.6346621577,
				"y": 0.0051859999,
				"z": -2.2813132579,
				"element": "Cl" 
			},
			{
				"x": 1.0857544723,
				"y": -0.9484957127,
				"z": -2.2175470006,
				"element": "C" 
			},
			{
				"x": 1.125158441,
				"y": -2.1340810489,
				"z": -2.3522540321,
				"element": "O" 
			},
			{
				"x": -0.1494068167,
				"y": -0.1466297078,
				"z": -1.9950302151,
				"element": "C" 
			},
			{
				"x": -1.3548314632,
				"y": -0.8661939311,
				"z": -1.9435054252,
				"element": "C" 
			},
			{
				"x": -2.5588255583,
				"y": -0.2030486427,
				"z": -1.7396692884,
				"element": "C" 
			},
			{
				"x": -2.5689772657,
				"y": 1.1901796652,
				"z": -1.5849252068,
				"element": "C" 
			},
			{
				"x": -1.363559483,
				"y": 1.9097484585,
				"z": -1.6364464892,
				"element": "C" 
			},
			{
				"x": -0.1595633323,
				"y": 1.246603533,
				"z": -1.8402804395,
				"element": "C" 
			},
			{
				"x": -3.8041659051,
				"y": 1.9920268592,
				"z": -1.3623840219,
				"element": "C" 
			},
			{
				"x": -5.3530879812,
				"y": 1.0383657589,
				"z": -1.2987240554,
				"element": "Cl" 
			},
			{
				"x": -3.8436658705,
				"y": 3.177626813,
				"z": -1.2277272085,
				"element": "O" 
			},
			{
				"x": -1.3301250042,
				"y": -1.9430036053,
				"z": -2.0649422157,
				"element": "H" 
			},
			{
				"x": -3.4862534181,
				"y": -0.7606997506,
				"z": -1.700501333,
				"element": "H" 
			},
			{
				"x": -1.3882720093,
				"y": 2.9865583618,
				"z": -1.5150086636,
				"element": "H" 
			},
			{
				"x": 0.7678590365,
				"y": 1.8042569496,
				"z": -1.8794411471,
				"element": "H" 
			}
		],
		 "valence_orbital": [ 
			{
				"type": "occ",
				"energy": -0.33376,
				"method": "rhf"
			},
			{
				"type": "occ",
				"energy": -0.31065,
				"method": "rhf"
			},
			{
				"type": "occ",
				"energy": -0.31016,
				"method": "rhf"
			},
			{
				"type": "occ",
				"energy": -0.30383,
				"method": "rhf"
			},
			{
				"type": "occ",
				"energy": -0.29752,
				"method": "rhf"
			},
			{
				"type": "unocc",
				"energy": -0.11836,
				"method": "rhf"
			},
			{
				"type": "unocc",
				"energy": -0.04661,
				"method": "rhf"
			},
			{
				"type": "unocc",
				"energy": -0.04553,
				"method": "rhf"
			},
			{
				"type": "unocc",
				"energy": 0.00511,
				"method": "rhf"
			},
			{
				"type": "unocc",
				"energy": 0.00601,
				"method": "rhf"
			}
		],
		"cosmo_sigma_profile": { 
			"-0.025": 0.0,
			"-0.024": 0.0,
			"-0.023": 0.0,
			"-0.022": 0.0,
			"-0.021": 0.0,
			"-0.02": 0.0,
			"-0.019": 0.0,
			"-0.018": 0.0,
			"-0.017": 0.0,
			"-0.016": 0.0,
			"-0.015": 0.0,
			"-0.014": 0.0,
			"-0.013": 0.0,
			"-0.012": 0.0,
			"-0.011": 0.0,
			"-0.01": 0.0,
			"-0.009": 0.396890962213,
			"-0.008": 4.46704978701,
			"-0.007": 7.6940706286,
			"-0.006": 7.12369512985,
			"-0.005": 10.6597255696,
			"-0.004": 12.8635776364,
			"-0.003": 14.6612756791,
			"-0.002": 20.8980364435,
			"-0.001": 21.565491478,
			"0.0": 22.964997045,
			"0.001": 14.62084045,
			"0.002": 11.2173782024,
			"0.003": 14.6481329989,
			"0.004": 16.5661541002,
			"0.005": 7.56000376814,
			"0.006": 4.88165243367,
			"0.007": 5.58937785591,
			"0.008": 8.40433051669,
			"0.009": 2.77647716878,
			"0.01": 0.0635245580983,
			"0.011": 0.0,
			"0.012": 0.0,
			"0.013": 0.0,
			"0.014": 0.0,
			"0.015": 0.0,
			"0.016": 0.0,
			"0.017": 0.0,
			"0.018": 0.0,
			"0.019": 0.0,
			"0.02": 0.0,
			"0.021": 0.0,
			"0.022": 0.0,
			"0.023": 0.0,
			"0.024": 0.0,
			"0.025": 0.0
		}
	}
}
