{
	 "smiles": "COC1=C(NCCC(O)=O)C=C(C)C=C1", 
	 "Tm": 351.15, 
	 "num_atms": 30, 
	 "gaussian": { 
		 "optdone": 1, 
		 "sigma_profile": "yes", 
		 "theory": "DFT", 
		 "functional": "B3LYP", 
		 "basiset": "6-31G**", 
		 "properties": { 
			 "R2extent": 3993.6493, 
			 "electric_dipole_moment_norm": 1.45675501372, 
			 "electric_quadrupole_moment_norm": 10.6111435463, 
			 "total_energy": -708.647580627, 
			 "HOMO_LUMO_gap": 0.18231, 
			 "cosmo_polarized_energy": -12.78, 
			 "cosmo_cavitation_energy": 33.24, 
			 "cosmo_dispersion_energy": -23.47, 
			 "cosmo_repulsion_energy": 1.88, 
			 "cosmo_total_nonelectrostatic_energy": 11.65, 
			 "SMD_solvation_energy": 6.45 
		},
		"coords": [
			{
				"x": -1.6378011121,
				"y": -0.766856135,
				"z": -3.4839366522,
				"element": "C" 
			},
			{
				"x": -1.3976175426,
				"y": 0.0455529173,
				"z": -2.3499252437,
				"element": "O" 
			},
			{
				"x": -0.1303868844,
				"y": 0.0547282501,
				"z": -1.8164517249,
				"element": "C" 
			},
			{
				"x": 0.0126793804,
				"y": 0.8754992048,
				"z": -0.6636282776,
				"element": "C" 
			},
			{
				"x": -1.0938935621,
				"y": 1.6071962251,
				"z": -0.2463081056,
				"element": "N" 
			},
			{
				"x": -1.2096461481,
				"y": 2.1448144748,
				"z": 1.0943511526,
				"element": "C" 
			},
			{
				"x": -1.4001789771,
				"y": 1.0886038446,
				"z": 2.1961043896,
				"element": "C" 
			},
			{
				"x": -2.7253887728,
				"y": 0.3699949156,
				"z": 2.0727643417,
				"element": "C" 
			},
			{
				"x": -2.893239676,
				"y": -0.5485227568,
				"z": 3.0523413221,
				"element": "O" 
			},
			{
				"x": -3.5644985461,
				"y": 0.5685277505,
				"z": 1.2184179541,
				"element": "O" 
			},
			{
				"x": 1.268007454,
				"y": 0.9275863099,
				"z": -0.0485436984,
				"element": "C" 
			},
			{
				"x": 2.3718515817,
				"y": 0.2115423072,
				"z": -0.5451154114,
				"element": "C" 
			},
			{
				"x": 3.7095972532,
				"y": 0.3103337979,
				"z": 0.1514738014,
				"element": "C" 
			},
			{
				"x": 2.2017318201,
				"y": -0.5788043664,
				"z": -1.6776622035,
				"element": "C" 
			},
			{
				"x": 0.9517294859,
				"y": -0.6584521455,
				"z": -2.3114471125,
				"element": "C" 
			},
			{
				"x": -1.4434147815,
				"y": -1.8265595634,
				"z": -3.2712477898,
				"element": "H" 
			},
			{
				"x": -2.6922495595,
				"y": -0.6377014388,
				"z": -3.733991857,
				"element": "H" 
			},
			{
				"x": -1.0232049349,
				"y": -0.4574525328,
				"z": -4.3395475872,
				"element": "H" 
			},
			{
				"x": -1.9669419062,
				"y": 1.2687180444,
				"z": -0.6286776443,
				"element": "H" 
			},
			{
				"x": -2.0655924555,
				"y": 2.8256665249,
				"z": 1.0996060543,
				"element": "H" 
			},
			{
				"x": -0.3264689111,
				"y": 2.7492657859,
				"z": 1.3241665653,
				"element": "H" 
			},
			{
				"x": -1.3525703145,
				"y": 1.5415300961,
				"z": 3.1945890038,
				"element": "H" 
			},
			{
				"x": -0.5998792202,
				"y": 0.3403857285,
				"z": 2.1624254221,
				"element": "H" 
			},
			{
				"x": -3.760733119,
				"y": -0.9580912796,
				"z": 2.8943368118,
				"element": "H" 
			},
			{
				"x": 1.4033088659,
				"y": 1.5463282521,
				"z": 0.8336526359,
				"element": "H" 
			},
			{
				"x": 4.0879678762,
				"y": 1.339793417,
				"z": 0.1531881399,
				"element": "H" 
			},
			{
				"x": 4.459402227,
				"y": -0.3170089801,
				"z": -0.3387526362,
				"element": "H" 
			},
			{
				"x": 3.6439913653,
				"y": -0.0075614225,
				"z": 1.1991208192,
				"element": "H" 
			},
			{
				"x": 3.0384860151,
				"y": -1.1436786263,
				"z": -2.0786161398,
				"element": "H" 
			},
			{
				"x": 0.8391530991,
				"y": -1.2836785993,
				"z": -3.1898863294,
				"element": "H" 
			}
		],
		 "valence_orbital": [ 
			{
				"type": "occ",
				"energy": -0.30381,
				"method": "rhf"
			},
			{
				"type": "occ",
				"energy": -0.2833,
				"method": "rhf"
			},
			{
				"type": "occ",
				"energy": -0.2786,
				"method": "rhf"
			},
			{
				"type": "occ",
				"energy": -0.21605,
				"method": "rhf"
			},
			{
				"type": "occ",
				"energy": -0.17706,
				"method": "rhf"
			},
			{
				"type": "unocc",
				"energy": 0.00525,
				"method": "rhf"
			},
			{
				"type": "unocc",
				"energy": 0.01913,
				"method": "rhf"
			},
			{
				"type": "unocc",
				"energy": 0.0316,
				"method": "rhf"
			},
			{
				"type": "unocc",
				"energy": 0.07705,
				"method": "rhf"
			},
			{
				"type": "unocc",
				"energy": 0.0927,
				"method": "rhf"
			}
		],
		"cosmo_sigma_profile": { 
			"-0.025": 0.0,
			"-0.024": 0.0,
			"-0.023": 0.0,
			"-0.022": 0.0,
			"-0.021": 0.0,
			"-0.02": 0.0,
			"-0.019": 0.00802059994456,
			"-0.018": 0.657405177019,
			"-0.017": 0.937835994646,
			"-0.016": 0.668675132701,
			"-0.015": 0.965842343341,
			"-0.014": 0.670022127156,
			"-0.013": 0.459585212606,
			"-0.012": 0.893246021533,
			"-0.011": 0.869470695647,
			"-0.01": 0.844389814406,
			"-0.009": 0.431621862128,
			"-0.008": 0.249555190728,
			"-0.007": 1.86387921029,
			"-0.006": 8.83081785381,
			"-0.005": 19.8997950908,
			"-0.004": 26.2452923739,
			"-0.003": 30.7732404135,
			"-0.002": 25.1564606882,
			"-0.001": 18.8070296388,
			"0.0": 17.6618702828,
			"0.001": 15.7381636009,
			"0.002": 11.3472895504,
			"0.003": 10.7244812501,
			"0.004": 11.0842212294,
			"0.005": 10.9944755871,
			"0.006": 11.0896511206,
			"0.007": 10.912114532,
			"0.008": 8.29033117194,
			"0.009": 4.44454939517,
			"0.01": 3.06144282697,
			"0.011": 3.83458620156,
			"0.012": 3.09840320543,
			"0.013": 0.0765350504468,
			"0.014": 0.0,
			"0.015": 0.0,
			"0.016": 0.0,
			"0.017": 0.0,
			"0.018": 0.0,
			"0.019": 0.0,
			"0.02": 0.0,
			"0.021": 0.0,
			"0.022": 0.0,
			"0.023": 0.0,
			"0.024": 0.0,
			"0.025": 0.0
		}
	}
}
