{
	 "smiles": "[O-][N+](=O)C1=C(Cl)N=C2SC=CN12", 
	 "Tm": 452.15, 
	 "num_atms": 14, 
	 "gaussian": { 
		 "optdone": 1, 
		 "sigma_profile": "yes", 
		 "theory": "DFT", 
		 "functional": "B3LYP", 
		 "basiset": "6-31G**", 
		 "properties": { 
			 "R2extent": 3254.1208, 
			 "electric_dipole_moment_norm": 5.23085117452, 
			 "electric_quadrupole_moment_norm": 5.35616692328, 
			 "total_energy": -1364.67586873, 
			 "HOMO_LUMO_gap": 0.16583, 
			 "cosmo_polarized_energy": -11.69, 
			 "cosmo_cavitation_energy": 23.08, 
			 "cosmo_dispersion_energy": -18.15, 
			 "cosmo_repulsion_energy": 1.38, 
			 "cosmo_total_nonelectrostatic_energy": 6.31, 
			 "SMD_solvation_energy": 4.39 
		},
		"coords": [
			{
				"x": 2.9378215952,
				"y": 1.6325137448,
				"z": 0.7192204102,
				"element": "O" 
			},
			{
				"x": 1.8559146578,
				"y": 1.1895687111,
				"z": 0.3342313974,
				"element": "N" 
			},
			{
				"x": 1.144136635,
				"y": 1.7031404856,
				"z": -0.5464175331,
				"element": "O" 
			},
			{
				"x": 1.3730833779,
				"y": 0.0046660716,
				"z": 0.9313064417,
				"element": "C" 
			},
			{
				"x": 1.8781899165,
				"y": -0.8375441846,
				"z": 1.9298277304,
				"element": "C" 
			},
			{
				"x": 3.3495163537,
				"y": -0.6627020166,
				"z": 2.7895232139,
				"element": "Cl" 
			},
			{
				"x": 1.050030981,
				"y": -1.8763234279,
				"z": 2.1789582579,
				"element": "N" 
			},
			{
				"x": 0.0359137708,
				"y": -1.6880631774,
				"z": 1.3453524378,
				"element": "C" 
			},
			{
				"x": -1.4464752811,
				"y": -2.5301747731,
				"z": 1.0006553151,
				"element": "S" 
			},
			{
				"x": -1.834355104,
				"y": -1.3123185738,
				"z": -0.2105342748,
				"element": "C" 
			},
			{
				"x": -0.891475967,
				"y": -0.3499471492,
				"z": -0.3233006966,
				"element": "C" 
			},
			{
				"x": 0.1621501705,
				"y": -0.5719582961,
				"z": 0.5607477114,
				"element": "N" 
			},
			{
				"x": -2.7523496614,
				"y": -1.3864130486,
				"z": -0.7740520721,
				"element": "H" 
			},
			{
				"x": -0.8655014449,
				"y": 0.5083556343,
				"z": -0.9748183392,
				"element": "H" 
			}
		],
		 "valence_orbital": [ 
			{
				"type": "occ",
				"energy": -0.31301,
				"method": "rhf"
			},
			{
				"type": "occ",
				"energy": -0.3092,
				"method": "rhf"
			},
			{
				"type": "occ",
				"energy": -0.29531,
				"method": "rhf"
			},
			{
				"type": "occ",
				"energy": -0.26596,
				"method": "rhf"
			},
			{
				"type": "occ",
				"energy": -0.26059,
				"method": "rhf"
			},
			{
				"type": "unocc",
				"energy": -0.09476,
				"method": "rhf"
			},
			{
				"type": "unocc",
				"energy": -0.03596,
				"method": "rhf"
			},
			{
				"type": "unocc",
				"energy": -0.02309,
				"method": "rhf"
			},
			{
				"type": "unocc",
				"energy": 0.01034,
				"method": "rhf"
			},
			{
				"type": "unocc",
				"energy": 0.02552,
				"method": "rhf"
			}
		],
		"cosmo_sigma_profile": { 
			"-0.025": 0.0,
			"-0.024": 0.0,
			"-0.023": 0.0,
			"-0.022": 0.0,
			"-0.021": 0.0,
			"-0.02": 0.0,
			"-0.019": 0.0,
			"-0.018": 0.0,
			"-0.017": 0.0,
			"-0.016": 0.0,
			"-0.015": 0.0,
			"-0.014": 0.0,
			"-0.013": 0.0,
			"-0.012": 0.340999497508,
			"-0.011": 2.6615690996,
			"-0.01": 2.83538176657,
			"-0.009": 3.5009622019,
			"-0.008": 3.23262255299,
			"-0.007": 4.6360595505,
			"-0.006": 7.01639149679,
			"-0.005": 12.812515404,
			"-0.004": 14.5468134176,
			"-0.003": 13.386828457,
			"-0.002": 16.2593236993,
			"-0.001": 15.4360140619,
			"0.0": 15.7120776138,
			"0.001": 13.2174224551,
			"0.002": 12.1739172336,
			"0.003": 9.1864084285,
			"0.004": 5.12133357731,
			"0.005": 4.71078443593,
			"0.006": 5.31928776353,
			"0.007": 7.09408236201,
			"0.008": 10.21361273,
			"0.009": 5.39138175096,
			"0.01": 4.42999841228,
			"0.011": 1.1688341616,
			"0.012": 1.09077778018,
			"0.013": 0.653782641535,
			"0.014": 0.19962227095,
			"0.015": 0.0,
			"0.016": 0.0,
			"0.017": 0.0,
			"0.018": 0.0,
			"0.019": 0.0,
			"0.02": 0.0,
			"0.021": 0.0,
			"0.022": 0.0,
			"0.023": 0.0,
			"0.024": 0.0,
			"0.025": 0.0
		}
	}
}
