{
	 "smiles": "CCCN1N=CC(C(O)=O)=C1C1CC1", 
	 "Tm": 393.15, 
	 "num_atms": 28, 
	 "gaussian": { 
		 "optdone": 1, 
		 "sigma_profile": "yes", 
		 "theory": "DFT", 
		 "functional": "B3LYP", 
		 "basiset": "6-31G**", 
		 "properties": { 
			 "R2extent": 3385.3931, 
			 "electric_dipole_moment_norm": 4.40930139024, 
			 "electric_quadrupole_moment_norm": 10.5274001382, 
			 "total_energy": -649.429749354, 
			 "HOMO_LUMO_gap": 0.22569, 
			 "cosmo_polarized_energy": -12.89, 
			 "cosmo_cavitation_energy": 30.58, 
			 "cosmo_dispersion_energy": -21.68, 
			 "cosmo_repulsion_energy": 1.73, 
			 "cosmo_total_nonelectrostatic_energy": 10.63, 
			 "SMD_solvation_energy": 5.26 
		},
		"coords": [
			{
				"x": -1.826195981,
				"y": 1.9300412112,
				"z": 1.7810022631,
				"element": "C" 
			},
			{
				"x": -0.7081360306,
				"y": 2.1039023917,
				"z": 0.7485556919,
				"element": "C" 
			},
			{
				"x": -0.8422967291,
				"y": 1.2237289654,
				"z": -0.5051961272,
				"element": "C" 
			},
			{
				"x": -0.6154155334,
				"y": -0.2022387911,
				"z": -0.2716272876,
				"element": "N" 
			},
			{
				"x": -1.594804487,
				"y": -0.9241026948,
				"z": 0.340488777,
				"element": "N" 
			},
			{
				"x": -1.1280004694,
				"y": -2.1609258028,
				"z": 0.3855978005,
				"element": "C" 
			},
			{
				"x": 0.1528026041,
				"y": -2.263199255,
				"z": -0.2086574663,
				"element": "C" 
			},
			{
				"x": 0.8634546669,
				"y": -3.5345955957,
				"z": -0.3430426311,
				"element": "C" 
			},
			{
				"x": 2.0109487717,
				"y": -3.4653007674,
				"z": -1.0712566534,
				"element": "O" 
			},
			{
				"x": 0.4756894746,
				"y": -4.5874950111,
				"z": 0.1310792544,
				"element": "O" 
			},
			{
				"x": 0.464254856,
				"y": -0.9597458173,
				"z": -0.622608244,
				"element": "C" 
			},
			{
				"x": 1.6362286072,
				"y": -0.4072348259,
				"z": -1.349808336,
				"element": "C" 
			},
			{
				"x": 3.0427770907,
				"y": -0.6603242881,
				"z": -0.867293279,
				"element": "C" 
			},
			{
				"x": 2.4744162057,
				"y": 0.7266395011,
				"z": -0.7776711566,
				"element": "C" 
			},
			{
				"x": -1.8770754092,
				"y": 0.9012931702,
				"z": 2.143383288,
				"element": "H" 
			},
			{
				"x": -1.6657396804,
				"y": 2.595381185,
				"z": 2.6355358508,
				"element": "H" 
			},
			{
				"x": -2.8020365617,
				"y": 2.1721732544,
				"z": 1.3456399425,
				"element": "H" 
			},
			{
				"x": 0.2666510431,
				"y": 1.9131038488,
				"z": 1.2134594599,
				"element": "H" 
			},
			{
				"x": -0.6852876505,
				"y": 3.1456623694,
				"z": 0.4028769831,
				"element": "H" 
			},
			{
				"x": -1.8477861085,
				"y": 1.3185908553,
				"z": -0.9269059724,
				"element": "H" 
			},
			{
				"x": -0.1254716752,
				"y": 1.5395460985,
				"z": -1.2646046434,
				"element": "H" 
			},
			{
				"x": -1.7089367985,
				"y": -2.9600157204,
				"z": 0.824283549,
				"element": "H" 
			},
			{
				"x": 2.3577300274,
				"y": -4.3731534528,
				"z": -1.0767157066,
				"element": "H" 
			},
			{
				"x": 1.5154750344,
				"y": -0.3947175083,
				"z": -2.4325193549,
				"element": "H" 
			},
			{
				"x": 3.1589557125,
				"y": -1.2223366558,
				"z": 0.0522846043,
				"element": "H" 
			},
			{
				"x": 3.7964787725,
				"y": -0.8732347183,
				"z": -1.6179306438,
				"element": "H" 
			},
			{
				"x": 2.2187950096,
				"y": 1.1012094428,
				"z": 0.2082752438,
				"element": "H" 
			},
			{
				"x": 2.8294252382,
				"y": 1.4873486108,
				"z": -1.4664252062,
				"element": "H" 
			}
		],
		 "valence_orbital": [ 
			{
				"type": "occ",
				"energy": -0.30774,
				"method": "rhf"
			},
			{
				"type": "occ",
				"energy": -0.28222,
				"method": "rhf"
			},
			{
				"type": "occ",
				"energy": -0.26724,
				"method": "rhf"
			},
			{
				"type": "occ",
				"energy": -0.25253,
				"method": "rhf"
			},
			{
				"type": "occ",
				"energy": -0.24526,
				"method": "rhf"
			},
			{
				"type": "unocc",
				"energy": -0.01957,
				"method": "rhf"
			},
			{
				"type": "unocc",
				"energy": 0.01851,
				"method": "rhf"
			},
			{
				"type": "unocc",
				"energy": 0.08029,
				"method": "rhf"
			},
			{
				"type": "unocc",
				"energy": 0.08625,
				"method": "rhf"
			},
			{
				"type": "unocc",
				"energy": 0.08793,
				"method": "rhf"
			}
		],
		"cosmo_sigma_profile": { 
			"-0.025": 0.0,
			"-0.024": 0.0,
			"-0.023": 0.0,
			"-0.022": 0.0,
			"-0.021": 0.0,
			"-0.02": 0.0,
			"-0.019": 0.0,
			"-0.018": 0.229592208393,
			"-0.017": 0.857331229843,
			"-0.016": 1.35423794762,
			"-0.015": 0.157457844951,
			"-0.014": 0.554810497276,
			"-0.013": 1.01670678727,
			"-0.012": 0.564546552056,
			"-0.011": 0.5223902885,
			"-0.01": 0.860924465423,
			"-0.009": 0.825003810055,
			"-0.008": 0.784838894405,
			"-0.007": 1.36544547962,
			"-0.006": 6.42173782,
			"-0.005": 15.3089837944,
			"-0.004": 22.8295270148,
			"-0.003": 24.7783604234,
			"-0.002": 23.1483747726,
			"-0.001": 24.8701659013,
			"0.0": 19.6599143218,
			"0.001": 19.5534937757,
			"0.002": 16.6011675684,
			"0.003": 10.5824345043,
			"0.004": 7.96680895363,
			"0.005": 6.71925843988,
			"0.006": 5.17086134485,
			"0.007": 4.56197784031,
			"0.008": 3.31852301954,
			"0.009": 3.40620444671,
			"0.01": 3.10394999025,
			"0.011": 3.15184424926,
			"0.012": 6.29425606026,
			"0.013": 3.15288749048,
			"0.014": 0.680118968704,
			"0.015": 0.195941846948,
			"0.016": 0.0,
			"0.017": 0.0,
			"0.018": 0.0,
			"0.019": 0.0,
			"0.02": 0.0,
			"0.021": 0.0,
			"0.022": 0.0,
			"0.023": 0.0,
			"0.024": 0.0,
			"0.025": 0.0
		}
	}
}
