{
	 "smiles": "OC(=O)CCC1CC2=C(NC1=O)C=CC=C2", 
	 "Tm": 448.15, 
	 "num_atms": 29, 
	 "gaussian": { 
		 "optdone": 1, 
		 "sigma_profile": "yes", 
		 "theory": "DFT", 
		 "functional": "B3LYP", 
		 "basiset": "6-31G**", 
		 "properties": { 
			 "R2extent": 4217.0578, 
			 "electric_dipole_moment_norm": 7.91961766059, 
			 "electric_quadrupole_moment_norm": 15.4779871602, 
			 "total_energy": -745.589107327, 
			 "HOMO_LUMO_gap": 0.20333, 
			 "cosmo_polarized_energy": -18.3, 
			 "cosmo_cavitation_energy": 31.21, 
			 "cosmo_dispersion_energy": -22.86, 
			 "cosmo_repulsion_energy": 1.76, 
			 "cosmo_total_nonelectrostatic_energy": 10.1, 
			 "SMD_solvation_energy": 6.06 
		},
		"coords": [
			{
				"x": -1.2130755903,
				"y": 3.0192981801,
				"z": -0.4209712065,
				"element": "O" 
			},
			{
				"x": -2.1487462366,
				"y": 2.3265014576,
				"z": 0.2560929637,
				"element": "C" 
			},
			{
				"x": -2.9055259031,
				"y": 2.8790109658,
				"z": 1.0222830403,
				"element": "O" 
			},
			{
				"x": -2.1667510168,
				"y": 0.8127802327,
				"z": 0.029558004,
				"element": "C" 
			},
			{
				"x": -1.124431056,
				"y": 0.0656821023,
				"z": 0.8901338903,
				"element": "C" 
			},
			{
				"x": 0.3553622447,
				"y": 0.471931613,
				"z": 0.6571803636,
				"element": "C" 
			},
			{
				"x": 1.3318120022,
				"y": -0.3231530267,
				"z": 1.5456595474,
				"element": "C" 
			},
			{
				"x": 1.5635001198,
				"y": -1.7269322789,
				"z": 1.0378192261,
				"element": "C" 
			},
			{
				"x": 1.5825588577,
				"y": -1.9289170305,
				"z": -0.3520043602,
				"element": "C" 
			},
			{
				"x": 1.3068927606,
				"y": -0.8330494296,
				"z": -1.1982646448,
				"element": "N" 
			},
			{
				"x": 0.7036632576,
				"y": 0.330669187,
				"z": -0.8187378469,
				"element": "C" 
			},
			{
				"x": 0.4156525089,
				"y": 1.1900194458,
				"z": -1.6602255267,
				"element": "O" 
			},
			{
				"x": 1.8666303122,
				"y": -3.1849182732,
				"z": -0.8939694013,
				"element": "C" 
			},
			{
				"x": 2.1296987414,
				"y": -4.2580504147,
				"z": -0.0431152285,
				"element": "C" 
			},
			{
				"x": 2.098456017,
				"y": -4.0798726555,
				"z": 1.3405812423,
				"element": "C" 
			},
			{
				"x": 1.8144265125,
				"y": -2.8187039556,
				"z": 1.8697264682,
				"element": "C" 
			},
			{
				"x": -0.6547522411,
				"y": 2.4258867774,
				"z": -0.9786194941,
				"element": "H" 
			},
			{
				"x": -3.1630319863,
				"y": 0.464783071,
				"z": 0.3108739544,
				"element": "H" 
			},
			{
				"x": -2.0156661999,
				"y": 0.5890067101,
				"z": -1.0314943572,
				"element": "H" 
			},
			{
				"x": -1.2364777692,
				"y": -1.0122740859,
				"z": 0.7236458801,
				"element": "H" 
			},
			{
				"x": -1.3476110684,
				"y": 0.2457760905,
				"z": 1.9481463774,
				"element": "H" 
			},
			{
				"x": 0.4549611841,
				"y": 1.5371492721,
				"z": 0.8841332325,
				"element": "H" 
			},
			{
				"x": 0.9640512213,
				"y": -0.3403062436,
				"z": 2.5768536335,
				"element": "H" 
			},
			{
				"x": 2.2945291016,
				"y": 0.2073646544,
				"z": 1.5699020619,
				"element": "H" 
			},
			{
				"x": 1.4498240873,
				"y": -0.9349751816,
				"z": -2.19590959,
				"element": "H" 
			},
			{
				"x": 1.8740766968,
				"y": -3.3209234147,
				"z": -1.9723692578,
				"element": "H" 
			},
			{
				"x": 2.3503862025,
				"y": -5.2337103296,
				"z": -0.4650615043,
				"element": "H" 
			},
			{
				"x": 2.2941915608,
				"y": -4.9158912734,
				"z": 2.0045234927,
				"element": "H" 
			},
			{
				"x": 1.7950956787,
				"y": -2.6742821664,
				"z": 2.9469290401,
				"element": "H" 
			}
		],
		 "valence_orbital": [ 
			{
				"type": "occ",
				"energy": -0.28932,
				"method": "rhf"
			},
			{
				"type": "occ",
				"energy": -0.28321,
				"method": "rhf"
			},
			{
				"type": "occ",
				"energy": -0.26735,
				"method": "rhf"
			},
			{
				"type": "occ",
				"energy": -0.24542,
				"method": "rhf"
			},
			{
				"type": "occ",
				"energy": -0.23971,
				"method": "rhf"
			},
			{
				"type": "unocc",
				"energy": -0.03638,
				"method": "rhf"
			},
			{
				"type": "unocc",
				"energy": -0.02361,
				"method": "rhf"
			},
			{
				"type": "unocc",
				"energy": 0.01313,
				"method": "rhf"
			},
			{
				"type": "unocc",
				"energy": 0.02729,
				"method": "rhf"
			},
			{
				"type": "unocc",
				"energy": 0.06814,
				"method": "rhf"
			}
		],
		"cosmo_sigma_profile": { 
			"-0.025": 0.0,
			"-0.024": 0.0,
			"-0.023": 0.0,
			"-0.022": 0.0,
			"-0.021": 0.0,
			"-0.02": 0.0,
			"-0.019": 0.0,
			"-0.018": 0.0,
			"-0.017": 0.0,
			"-0.016": 0.232712176699,
			"-0.015": 0.934779360688,
			"-0.014": 1.2111968966,
			"-0.013": 1.25619541136,
			"-0.012": 1.48405105455,
			"-0.011": 0.926418505708,
			"-0.01": 1.00850538678,
			"-0.009": 0.966149123891,
			"-0.008": 1.59454814005,
			"-0.007": 2.04586235434,
			"-0.006": 10.4229487161,
			"-0.005": 31.5427825018,
			"-0.004": 27.4503906864,
			"-0.003": 24.7275950695,
			"-0.002": 21.5793325378,
			"-0.001": 15.0540961593,
			"0.0": 10.0004463619,
			"0.001": 12.1031705795,
			"0.002": 8.3651328374,
			"0.003": 9.98654969678,
			"0.004": 10.4021225138,
			"0.005": 10.6643546699,
			"0.006": 6.89267742295,
			"0.007": 3.15068956706,
			"0.008": 3.04541622756,
			"0.009": 3.10067472108,
			"0.01": 4.42284535999,
			"0.011": 6.19769493232,
			"0.012": 8.2677985869,
			"0.013": 5.66580243226,
			"0.014": 2.00064719956,
			"0.015": 0.0376930173293,
			"0.016": 0.0,
			"0.017": 0.0,
			"0.018": 0.0,
			"0.019": 0.0,
			"0.02": 0.0,
			"0.021": 0.0,
			"0.022": 0.0,
			"0.023": 0.0,
			"0.024": 0.0,
			"0.025": 0.0
		}
	}
}
