{
	 "smiles": "CCOC(=O)C(=C(C)OC(=O)C1=CC=CC=C1)C1=CC(C(=C(C)OC(=O)C2=CC=CC=C2)C(=O)OCC)=C(C=C1[N+]([O-])=O)[N+]([O-])=O", 
	 "Tm": 440.15, 
	 "num_atms": 74, 
	 "gaussian": { 
		 "optdone": 1, 
		 "sigma_profile": "yes", 
		 "theory": "DFT", 
		 "functional": "B3LYP", 
		 "basiset": "6-31G**", 
		 "properties": { 
			 "R2extent": 28212.9952, 
			 "electric_dipole_moment_norm": 5.3466332341, 
			 "electric_quadrupole_moment_norm": 37.7805843613, 
			 "total_energy": -2248.28691573, 
			 "HOMO_LUMO_gap": 0.15711, 
			 "cosmo_polarized_energy": -27.98, 
			 "cosmo_cavitation_energy": 81.66, 
			 "cosmo_dispersion_energy": -47.84, 
			 "cosmo_repulsion_energy": 3.63, 
			 "cosmo_total_nonelectrostatic_energy": 37.46, 
			 "SMD_solvation_energy": 21.07 
		},
		"coords": [
			{
				"x": -1.0787351171,
				"y": 5.5378111872,
				"z": 1.6682709862,
				"element": "C" 
			},
			{
				"x": 0.2926780698,
				"y": 4.8904646273,
				"z": 1.6369603655,
				"element": "C" 
			},
			{
				"x": 0.0928708963,
				"y": 3.4774990738,
				"z": 1.3923167663,
				"element": "O" 
			},
			{
				"x": 1.2027116815,
				"y": 2.7062329043,
				"z": 1.4052587535,
				"element": "C" 
			},
			{
				"x": 2.3212781495,
				"y": 3.1562996826,
				"z": 1.5446957755,
				"element": "O" 
			},
			{
				"x": 0.8420498115,
				"y": 1.2642225447,
				"z": 1.2182460582,
				"element": "C" 
			},
			{
				"x": 1.7639610948,
				"y": 0.2848980396,
				"z": 1.338267003,
				"element": "C" 
			},
			{
				"x": 1.5376104253,
				"y": -1.1899472675,
				"z": 1.2462684413,
				"element": "C" 
			},
			{
				"x": 3.0719912821,
				"y": 0.589710271,
				"z": 1.6745786466,
				"element": "O" 
			},
			{
				"x": 3.9438415292,
				"y": 0.8633372206,
				"z": 0.6445501198,
				"element": "C" 
			},
			{
				"x": 3.6369516633,
				"y": 0.7147027693,
				"z": -0.5174901845,
				"element": "O" 
			},
			{
				"x": 5.2705430781,
				"y": 1.2986261997,
				"z": 1.1423618681,
				"element": "C" 
			},
			{
				"x": 6.3070589163,
				"y": 1.4238091766,
				"z": 0.2064654034,
				"element": "C" 
			},
			{
				"x": 7.5726939759,
				"y": 1.8296321627,
				"z": 0.6205134153,
				"element": "C" 
			},
			{
				"x": 7.8064693736,
				"y": 2.1169718902,
				"z": 1.9683382296,
				"element": "C" 
			},
			{
				"x": 6.7727693134,
				"y": 2.0003280674,
				"z": 2.9010985211,
				"element": "C" 
			},
			{
				"x": 5.5045396414,
				"y": 1.5916574302,
				"z": 2.4930241852,
				"element": "C" 
			},
			{
				"x": -0.561620425,
				"y": 0.9390231365,
				"z": 0.8296842764,
				"element": "C" 
			},
			{
				"x": -0.7942989608,
				"y": 0.4277607725,
				"z": -0.4538728424,
				"element": "C" 
			},
			{
				"x": -2.0708369398,
				"y": 0.1449566633,
				"z": -0.9589467076,
				"element": "C" 
			},
			{
				"x": -2.1847689121,
				"y": -0.4098597295,
				"z": -2.3416474949,
				"element": "C" 
			},
			{
				"x": -1.8606030803,
				"y": -1.6946327154,
				"z": -2.5914654526,
				"element": "C" 
			},
			{
				"x": -1.8788353922,
				"y": -2.4460774248,
				"z": -3.8802219221,
				"element": "C" 
			},
			{
				"x": -1.3918295889,
				"y": -2.4938030072,
				"z": -1.5409451623,
				"element": "O" 
			},
			{
				"x": -2.2946341886,
				"y": -3.0525945971,
				"z": -0.6626567007,
				"element": "C" 
			},
			{
				"x": -3.4730454385,
				"y": -2.7809054221,
				"z": -0.6719215781,
				"element": "O" 
			},
			{
				"x": -1.6381488256,
				"y": -3.999336071,
				"z": 0.2752179706,
				"element": "C" 
			},
			{
				"x": -0.2888739311,
				"y": -4.365754852,
				"z": 0.1588696827,
				"element": "C" 
			},
			{
				"x": 0.2646751393,
				"y": -5.2669169124,
				"z": 1.0668873781,
				"element": "C" 
			},
			{
				"x": -0.521666141,
				"y": -5.8031394432,
				"z": 2.0899165461,
				"element": "C" 
			},
			{
				"x": -1.8669474834,
				"y": -5.4416586458,
				"z": 2.2052764603,
				"element": "C" 
			},
			{
				"x": -2.4263059484,
				"y": -4.5443451601,
				"z": 1.2997173883,
				"element": "C" 
			},
			{
				"x": -2.6041868262,
				"y": 0.5290186115,
				"z": -3.4294571376,
				"element": "C" 
			},
			{
				"x": -2.8243398908,
				"y": 0.2396544415,
				"z": -4.5892622082,
				"element": "O" 
			},
			{
				"x": -2.6734382469,
				"y": 1.7888347687,
				"z": -2.9505408231,
				"element": "O" 
			},
			{
				"x": -3.118579339,
				"y": 2.8114780225,
				"z": -3.8764342477,
				"element": "C" 
			},
			{
				"x": -4.6368520531,
				"y": 2.8710337644,
				"z": -3.9454416183,
				"element": "C" 
			},
			{
				"x": -3.1604788726,
				"y": 0.4043913502,
				"z": -0.1104968302,
				"element": "C" 
			},
			{
				"x": -2.9805542697,
				"y": 0.9205958496,
				"z": 1.1674209148,
				"element": "C" 
			},
			{
				"x": -1.6970761908,
				"y": 1.1777320764,
				"z": 1.6250885652,
				"element": "C" 
			},
			{
				"x": -1.582295697,
				"y": 1.711908092,
				"z": 2.9927414426,
				"element": "N" 
			},
			{
				"x": -2.5444872741,
				"y": 2.3381002693,
				"z": 3.4345050294,
				"element": "O" 
			},
			{
				"x": -0.5459231895,
				"y": 1.485938339,
				"z": 3.6122840828,
				"element": "O" 
			},
			{
				"x": -4.5539156562,
				"y": 0.1536820624,
				"z": -0.523328303,
				"element": "N" 
			},
			{
				"x": -5.4019452808,
				"y": 0.1054417547,
				"z": 0.365069354,
				"element": "O" 
			},
			{
				"x": -4.7893314806,
				"y": 0.0297927573,
				"z": -1.7224616411,
				"element": "O" 
			},
			{
				"x": -1.5885126126,
				"y": 5.4236160125,
				"z": 0.7071782527,
				"element": "H" 
			},
			{
				"x": -1.7024362239,
				"y": 5.0873959534,
				"z": 2.4455712454,
				"element": "H" 
			},
			{
				"x": -0.9784491231,
				"y": 6.6069283753,
				"z": 1.8792360788,
				"element": "H" 
			},
			{
				"x": 0.929328962,
				"y": 5.2962461823,
				"z": 0.8446095314,
				"element": "H" 
			},
			{
				"x": 0.826847867,
				"y": 5.0071634728,
				"z": 2.5845807758,
				"element": "H" 
			},
			{
				"x": 0.4891886857,
				"y": -1.4544701783,
				"z": 1.120288258,
				"element": "H" 
			},
			{
				"x": 1.9190209815,
				"y": -1.6653915387,
				"z": 2.1565540033,
				"element": "H" 
			},
			{
				"x": 2.1120023825,
				"y": -1.59068352,
				"z": 0.4028962237,
				"element": "H" 
			},
			{
				"x": 6.0990239898,
				"y": 1.2000922119,
				"z": -0.8343902105,
				"element": "H" 
			},
			{
				"x": 8.37585185,
				"y": 1.9240545134,
				"z": -0.1042052584,
				"element": "H" 
			},
			{
				"x": 8.7937351064,
				"y": 2.435356771,
				"z": 2.2911135309,
				"element": "H" 
			},
			{
				"x": 6.9544144336,
				"y": 2.2322133565,
				"z": 3.9462623491,
				"element": "H" 
			},
			{
				"x": 4.6924858488,
				"y": 1.511175728,
				"z": 3.2056115843,
				"element": "H" 
			},
			{
				"x": 0.0624848522,
				"y": 0.2627018659,
				"z": -1.0980839103,
				"element": "H" 
			},
			{
				"x": -2.1144098958,
				"y": -1.7959284571,
				"z": -4.7182949578,
				"element": "H" 
			},
			{
				"x": -0.9095165177,
				"y": -2.9343715139,
				"z": -4.0299116537,
				"element": "H" 
			},
			{
				"x": -2.6358721929,
				"y": -3.237705721,
				"z": -3.8152812872,
				"element": "H" 
			},
			{
				"x": 0.3124082532,
				"y": -3.9511211531,
				"z": -0.641877185,
				"element": "H" 
			},
			{
				"x": 1.3077421281,
				"y": -5.554239943,
				"z": 0.9746428437,
				"element": "H" 
			},
			{
				"x": -0.0866220971,
				"y": -6.504743003,
				"z": 2.7958413767,
				"element": "H" 
			},
			{
				"x": -2.4774800229,
				"y": -5.8603141706,
				"z": 2.999454971,
				"element": "H" 
			},
			{
				"x": -3.4687165225,
				"y": -4.251869118,
				"z": 1.3663393619,
				"element": "H" 
			},
			{
				"x": -2.6832754749,
				"y": 2.60931375,
				"z": -4.8577243372,
				"element": "H" 
			},
			{
				"x": -2.6959893366,
				"y": 3.7354706903,
				"z": -3.4749392148,
				"element": "H" 
			},
			{
				"x": -5.0674224407,
				"y": 3.0299881225,
				"z": -2.9530769811,
				"element": "H" 
			},
			{
				"x": -4.9428310779,
				"y": 3.6996662858,
				"z": -4.5928554297,
				"element": "H" 
			},
			{
				"x": -5.0411890636,
				"y": 1.943525948,
				"z": -4.356446285,
				"element": "H" 
			},
			{
				"x": -3.8363521397,
				"y": 1.1134543462,
				"z": 1.7993035486,
				"element": "H" 
			}
		],
		 "valence_orbital": [ 
			{
				"type": "occ",
				"energy": -0.26997,
				"method": "rhf"
			},
			{
				"type": "occ",
				"energy": -0.26582,
				"method": "rhf"
			},
			{
				"type": "occ",
				"energy": -0.26266,
				"method": "rhf"
			},
			{
				"type": "occ",
				"energy": -0.26062,
				"method": "rhf"
			},
			{
				"type": "occ",
				"energy": -0.259,
				"method": "rhf"
			},
			{
				"type": "unocc",
				"energy": -0.10189,
				"method": "rhf"
			},
			{
				"type": "unocc",
				"energy": -0.08845,
				"method": "rhf"
			},
			{
				"type": "unocc",
				"energy": -0.06501,
				"method": "rhf"
			},
			{
				"type": "unocc",
				"energy": -0.05276,
				"method": "rhf"
			},
			{
				"type": "unocc",
				"energy": -0.0484,
				"method": "rhf"
			}
		],
		"cosmo_sigma_profile": { 
			"-0.025": 0.0,
			"-0.024": 0.0,
			"-0.023": 0.0,
			"-0.022": 0.0,
			"-0.021": 0.0,
			"-0.02": 0.0,
			"-0.019": 0.0,
			"-0.018": 0.0,
			"-0.017": 0.0,
			"-0.016": 0.0,
			"-0.015": 0.0,
			"-0.014": 0.0,
			"-0.013": 0.0,
			"-0.012": 0.0,
			"-0.011": 0.0,
			"-0.01": 0.0,
			"-0.009": 0.465483537305,
			"-0.008": 2.31745596872,
			"-0.007": 11.0179479876,
			"-0.006": 35.4710600038,
			"-0.005": 53.3636274724,
			"-0.004": 60.7993508365,
			"-0.003": 58.4813443096,
			"-0.002": 60.2851001455,
			"-0.001": 53.2112259063,
			"0.0": 52.9560455871,
			"0.001": 41.5057190806,
			"0.002": 40.3789673224,
			"0.003": 42.6902291379,
			"0.004": 31.7829998632,
			"0.005": 18.1402781612,
			"0.006": 18.3626818876,
			"0.007": 21.8960987341,
			"0.008": 16.3844370273,
			"0.009": 13.5449619053,
			"0.01": 9.36349961999,
			"0.011": 7.72624191024,
			"0.012": 1.23896502535,
			"0.013": 0.0,
			"0.014": 0.0,
			"0.015": 0.0,
			"0.016": 0.0,
			"0.017": 0.0,
			"0.018": 0.0,
			"0.019": 0.0,
			"0.02": 0.0,
			"0.021": 0.0,
			"0.022": 0.0,
			"0.023": 0.0,
			"0.024": 0.0,
			"0.025": 0.0
		}
	}
}
