{
	 "smiles": "CC(C)(C)C(C)(C)C", 
	 "Tm": 374.15, 
	 "num_atms": 26, 
	 "gaussian": { 
		 "optdone": 1, 
		 "sigma_profile": "yes", 
		 "theory": "DFT", 
		 "functional": "B3LYP", 
		 "basiset": "6-31G**", 
		 "properties": { 
			 "R2extent": 1463.5697, 
			 "electric_dipole_moment_norm": 0.0001, 
			 "electric_quadrupole_moment_norm": 0.158831892263, 
			 "total_energy": -315.720922082, 
			 "HOMO_LUMO_gap": 0.36442, 
			 "cosmo_polarized_energy": -0.83, 
			 "cosmo_cavitation_energy": 24.17, 
			 "cosmo_dispersion_energy": -17.46, 
			 "cosmo_repulsion_energy": 1.39, 
			 "cosmo_total_nonelectrostatic_energy": 8.1, 
			 "SMD_solvation_energy": 4.43 
		},
		"coords": [
			{
				"x": 3.04441621,
				"y": 0.5103602928,
				"z": -0.7521237733,
				"element": "C" 
			},
			{
				"x": 1.6480977447,
				"y": -0.1415424823,
				"z": -0.6267783339,
				"element": "C" 
			},
			{
				"x": 1.429017553,
				"y": -1.018015866,
				"z": -1.8814721508,
				"element": "C" 
			},
			{
				"x": 1.681984534,
				"y": -1.0831483773,
				"z": 0.5990654521,
				"element": "C" 
			},
			{
				"x": 0.5068073613,
				"y": 0.9573825063,
				"z": -0.4814796195,
				"element": "C" 
			},
			{
				"x": 0.6473591538,
				"y": 2.0602231313,
				"z": -1.5559183916,
				"element": "C" 
			},
			{
				"x": 0.5609359886,
				"y": 1.6454297721,
				"z": 0.9020404832,
				"element": "C" 
			},
			{
				"x": -0.898972644,
				"y": 0.3327184661,
				"z": -0.6364275098,
				"element": "C" 
			},
			{
				"x": 3.2577355507,
				"y": 1.1981140302,
				"z": 0.0723325012,
				"element": "H" 
			},
			{
				"x": 3.8188377318,
				"y": -0.2646437363,
				"z": -0.7363249908,
				"element": "H" 
			},
			{
				"x": 3.1578460351,
				"y": 1.0626483378,
				"z": -1.6894707763,
				"element": "H" 
			},
			{
				"x": 2.2846610681,
				"y": -1.6882542175,
				"z": -2.0202701984,
				"element": "H" 
			},
			{
				"x": 1.3338941851,
				"y": -0.4211780804,
				"z": -2.7941506806,
				"element": "H" 
			},
			{
				"x": 0.5369733846,
				"y": -1.6451090569,
				"z": -1.7945590001,
				"element": "H" 
			},
			{
				"x": 0.708848079,
				"y": -1.5438753991,
				"z": 0.7964785746,
				"element": "H" 
			},
			{
				"x": 2.3956775638,
				"y": -1.8958283132,
				"z": 0.4235304562,
				"element": "H" 
			},
			{
				"x": 1.9994431641,
				"y": -0.5639096818,
				"z": 1.5079949143,
				"element": "H" 
			},
			{
				"x": 1.5472135549,
				"y": 2.6647515742,
				"z": -1.409790568,
				"element": "H" 
			},
			{
				"x": -0.2113177694,
				"y": 2.7390397951,
				"z": -1.5058428013,
				"element": "H" 
			},
			{
				"x": 0.6775186434,
				"y": 1.650670074,
				"z": -2.5706158489,
				"element": "H" 
			},
			{
				"x": 0.3016148742,
				"y": 0.9590406777,
				"z": 1.7132908222,
				"element": "H" 
			},
			{
				"x": -0.1577094001,
				"y": 2.4719495734,
				"z": 0.9340701613,
				"element": "H" 
			},
			{
				"x": 1.5479911434,
				"y": 2.0660570753,
				"z": 1.1189436794,
				"element": "H" 
			},
			{
				"x": -1.0611328063,
				"y": -0.5025358349,
				"z": 0.0522769399,
				"element": "H" 
			},
			{
				"x": -1.0784770327,
				"y": -0.0291556616,
				"z": -1.6529583467,
				"element": "H" 
			},
			{
				"x": -1.6655638712,
				"y": 1.085011401,
				"z": -0.4196409946,
				"element": "H" 
			}
		],
		 "valence_orbital": [ 
			{
				"type": "occ",
				"energy": -0.33703,
				"method": "rhf"
			},
			{
				"type": "occ",
				"energy": -0.33703,
				"method": "rhf"
			},
			{
				"type": "occ",
				"energy": -0.29898,
				"method": "rhf"
			},
			{
				"type": "occ",
				"energy": -0.29898,
				"method": "rhf"
			},
			{
				"type": "occ",
				"energy": -0.29292,
				"method": "rhf"
			},
			{
				"type": "unocc",
				"energy": 0.0715,
				"method": "rhf"
			},
			{
				"type": "unocc",
				"energy": 0.12343,
				"method": "rhf"
			},
			{
				"type": "unocc",
				"energy": 0.12702,
				"method": "rhf"
			},
			{
				"type": "unocc",
				"energy": 0.12703,
				"method": "rhf"
			},
			{
				"type": "unocc",
				"energy": 0.13494,
				"method": "rhf"
			}
		],
		"cosmo_sigma_profile": { 
			"-0.025": 0.0,
			"-0.024": 0.0,
			"-0.023": 0.0,
			"-0.022": 0.0,
			"-0.021": 0.0,
			"-0.02": 0.0,
			"-0.019": 0.0,
			"-0.018": 0.0,
			"-0.017": 0.0,
			"-0.016": 0.0,
			"-0.015": 0.0,
			"-0.014": 0.0,
			"-0.013": 0.0,
			"-0.012": 0.0,
			"-0.011": 0.0,
			"-0.01": 0.0,
			"-0.009": 0.0,
			"-0.008": 0.0,
			"-0.007": 0.0,
			"-0.006": 0.0,
			"-0.005": 0.0,
			"-0.004": 0.136296516751,
			"-0.003": 5.86527433083,
			"-0.002": 28.4817222176,
			"-0.001": 42.3138194681,
			"0.0": 35.9627576437,
			"0.001": 30.9571391522,
			"0.002": 36.0816219602,
			"0.003": 4.53932829964,
			"0.004": 0.0,
			"0.005": 0.0,
			"0.006": 0.0,
			"0.007": 0.0,
			"0.008": 0.0,
			"0.009": 0.0,
			"0.01": 0.0,
			"0.011": 0.0,
			"0.012": 0.0,
			"0.013": 0.0,
			"0.014": 0.0,
			"0.015": 0.0,
			"0.016": 0.0,
			"0.017": 0.0,
			"0.018": 0.0,
			"0.019": 0.0,
			"0.02": 0.0,
			"0.021": 0.0,
			"0.022": 0.0,
			"0.023": 0.0,
			"0.024": 0.0,
			"0.025": 0.0
		}
	}
}
