{
	 "smiles": "CCOC(=O)C1=C(NC(=S)NCC2=CC=CC=C2)SC2=C1CCCC2", 
	 "Tm": 399.15, 
	 "num_atms": 47, 
	 "gaussian": { 
		 "optdone": 1, 
		 "sigma_profile": "yes", 
		 "theory": "DFT", 
		 "functional": "B3LYP", 
		 "basiset": "6-31G**", 
		 "properties": { 
			 "R2extent": 14053.5564, 
			 "electric_dipole_moment_norm": 4.29060306484, 
			 "electric_quadrupole_moment_norm": 19.6483766238, 
			 "total_energy": -1793.64996437, 
			 "HOMO_LUMO_gap": 0.15039, 
			 "cosmo_polarized_energy": -15.73, 
			 "cosmo_cavitation_energy": 52.2, 
			 "cosmo_dispersion_energy": -36.44, 
			 "cosmo_repulsion_energy": 2.74, 
			 "cosmo_total_nonelectrostatic_energy": 18.51, 
			 "SMD_solvation_energy": 7.02 
		},
		"coords": [
			{
				"x": -3.2765911597,
				"y": -4.2342931747,
				"z": 2.9411385117,
				"element": "C" 
			},
			{
				"x": -2.2534361145,
				"y": -3.7786945251,
				"z": 3.9695393587,
				"element": "C" 
			},
			{
				"x": -1.3604360617,
				"y": -2.7766583906,
				"z": 3.4176868616,
				"element": "O" 
			},
			{
				"x": -1.7876244044,
				"y": -1.4797954159,
				"z": 3.4525066782,
				"element": "C" 
			},
			{
				"x": -2.8483669325,
				"y": -1.1601656052,
				"z": 3.958035406,
				"element": "O" 
			},
			{
				"x": -0.8310985036,
				"y": -0.5421245678,
				"z": 2.8387760558,
				"element": "C" 
			},
			{
				"x": 0.2742509203,
				"y": -0.8959937401,
				"z": 2.0658204241,
				"element": "C" 
			},
			{
				"x": 0.7093041191,
				"y": -2.1828890079,
				"z": 1.8087815933,
				"element": "N" 
			},
			{
				"x": 1.5634406379,
				"y": -2.7137793888,
				"z": 0.8597316401,
				"element": "C" 
			},
			{
				"x": 2.0102168364,
				"y": -4.33010509,
				"z": 0.9869724603,
				"element": "S" 
			},
			{
				"x": 1.9903201646,
				"y": -1.8846327706,
				"z": -0.1213404788,
				"element": "N" 
			},
			{
				"x": 2.8766100552,
				"y": -2.3151584207,
				"z": -1.2052707276,
				"element": "C" 
			},
			{
				"x": 3.4071726121,
				"y": -1.1181824434,
				"z": -1.963927823,
				"element": "C" 
			},
			{
				"x": 4.2541362527,
				"y": -0.1947355878,
				"z": -1.3330741466,
				"element": "C" 
			},
			{
				"x": 4.7479943367,
				"y": 0.9061572982,
				"z": -2.0311750517,
				"element": "C" 
			},
			{
				"x": 4.4048735106,
				"y": 1.0975439119,
				"z": -3.3725955827,
				"element": "C" 
			},
			{
				"x": 3.5649767137,
				"y": 0.1838457256,
				"z": -4.009194868,
				"element": "C" 
			},
			{
				"x": 3.0675118675,
				"y": -0.9160051152,
				"z": -3.3060307024,
				"element": "C" 
			},
			{
				"x": 1.1437665815,
				"y": 0.5306162191,
				"z": 1.531602394,
				"element": "S" 
			},
			{
				"x": -0.0100580999,
				"y": 1.5950297295,
				"z": 2.3128035825,
				"element": "C" 
			},
			{
				"x": -0.9773194764,
				"y": 0.8955086791,
				"z": 2.9724726799,
				"element": "C" 
			},
			{
				"x": -2.0690162619,
				"y": 1.6099337856,
				"z": 3.7377027004,
				"element": "C" 
			},
			{
				"x": -1.7417138337,
				"y": 3.0988226574,
				"z": 3.9420242756,
				"element": "C" 
			},
			{
				"x": -1.2082944095,
				"y": 3.7491017202,
				"z": 2.6587580923,
				"element": "C" 
			},
			{
				"x": 0.1129580084,
				"y": 3.0914550258,
				"z": 2.2215333543,
				"element": "C" 
			},
			{
				"x": -3.8888322838,
				"y": -5.0388018686,
				"z": 3.3620779321,
				"element": "H" 
			},
			{
				"x": -2.7834884695,
				"y": -4.6140245943,
				"z": 2.041607457,
				"element": "H" 
			},
			{
				"x": -3.9378714468,
				"y": -3.4094691513,
				"z": 2.6648801755,
				"element": "H" 
			},
			{
				"x": -2.7365872545,
				"y": -3.3598123273,
				"z": 4.8543801882,
				"element": "H" 
			},
			{
				"x": -1.5893162743,
				"y": -4.5935315599,
				"z": 4.2655883315,
				"element": "H" 
			},
			{
				"x": 0.2821450836,
				"y": -2.8843520828,
				"z": 2.4058001131,
				"element": "H" 
			},
			{
				"x": 1.4885653775,
				"y": -1.0192576856,
				"z": -0.2819129692,
				"element": "H" 
			},
			{
				"x": 3.6869726179,
				"y": -2.8951859228,
				"z": -0.7537081879,
				"element": "H" 
			},
			{
				"x": 2.3449320147,
				"y": -2.9977766761,
				"z": -1.8799460669,
				"element": "H" 
			},
			{
				"x": 4.5265025277,
				"y": -0.3449669878,
				"z": -0.2915842527,
				"element": "H" 
			},
			{
				"x": 5.4054194252,
				"y": 1.6120219695,
				"z": -1.5315787753,
				"element": "H" 
			},
			{
				"x": 4.7926640381,
				"y": 1.953497054,
				"z": -3.9173767031,
				"element": "H" 
			},
			{
				"x": 3.2944949553,
				"y": 0.3256338114,
				"z": -5.0516009799,
				"element": "H" 
			},
			{
				"x": 2.4123809103,
				"y": -1.626055333,
				"z": -3.8046338282,
				"element": "H" 
			},
			{
				"x": -2.2336172361,
				"y": 1.1163146455,
				"z": 4.6990586977,
				"element": "H" 
			},
			{
				"x": -3.0175527094,
				"y": 1.4974764906,
				"z": 3.1969141758,
				"element": "H" 
			},
			{
				"x": -0.9881447799,
				"y": 3.201775701,
				"z": 4.7344352254,
				"element": "H" 
			},
			{
				"x": -2.6375443954,
				"y": 3.623509976,
				"z": 4.2916325076,
				"element": "H" 
			},
			{
				"x": -1.0527746631,
				"y": 4.8238485734,
				"z": 2.8031841666,
				"element": "H" 
			},
			{
				"x": -1.9506666768,
				"y": 3.6379267623,
				"z": 1.8579532914,
				"element": "H" 
			},
			{
				"x": 0.9332539023,
				"y": 3.443861133,
				"z": 2.8636318673,
				"element": "H" 
			},
			{
				"x": 0.3713879784,
				"y": 3.3971665644,
				"z": 1.2000209462,
				"element": "H" 
			}
		],
		 "valence_orbital": [ 
			{
				"type": "occ",
				"energy": -0.25915,
				"method": "rhf"
			},
			{
				"type": "occ",
				"energy": -0.25519,
				"method": "rhf"
			},
			{
				"type": "occ",
				"energy": -0.23145,
				"method": "rhf"
			},
			{
				"type": "occ",
				"energy": -0.20845,
				"method": "rhf"
			},
			{
				"type": "occ",
				"energy": -0.2022,
				"method": "rhf"
			},
			{
				"type": "unocc",
				"energy": -0.05181,
				"method": "rhf"
			},
			{
				"type": "unocc",
				"energy": -0.01574,
				"method": "rhf"
			},
			{
				"type": "unocc",
				"energy": -0.00978,
				"method": "rhf"
			},
			{
				"type": "unocc",
				"energy": 0.00313,
				"method": "rhf"
			},
			{
				"type": "unocc",
				"energy": 0.01227,
				"method": "rhf"
			}
		],
		"cosmo_sigma_profile": { 
			"-0.025": 0.0,
			"-0.024": 0.0,
			"-0.023": 0.0,
			"-0.022": 0.0,
			"-0.021": 0.0,
			"-0.02": 0.0,
			"-0.019": 0.0,
			"-0.018": 0.0,
			"-0.017": 0.0,
			"-0.016": 0.0,
			"-0.015": 0.0,
			"-0.014": 0.0,
			"-0.013": 0.0353773622838,
			"-0.012": 0.763756352784,
			"-0.011": 0.763194050752,
			"-0.01": 1.03700814682,
			"-0.009": 1.12622869646,
			"-0.008": 1.08142688088,
			"-0.007": 1.35951276756,
			"-0.006": 10.537704849,
			"-0.005": 24.2392106196,
			"-0.004": 37.7292446561,
			"-0.003": 44.4690297995,
			"-0.002": 50.6233805797,
			"-0.001": 51.7046954664,
			"0.0": 44.2239966465,
			"0.001": 30.1212537746,
			"0.002": 21.5617595399,
			"0.003": 19.9766184924,
			"0.004": 14.4863851164,
			"0.005": 15.118692947,
			"0.006": 8.82611648907,
			"0.007": 4.71178348937,
			"0.008": 6.38611104546,
			"0.009": 7.0887253163,
			"0.01": 9.83146029422,
			"0.011": 6.4556377171,
			"0.012": 3.25431417189,
			"0.013": 0.131414818951,
			"0.014": 0.0,
			"0.015": 0.0,
			"0.016": 0.0,
			"0.017": 0.0,
			"0.018": 0.0,
			"0.019": 0.0,
			"0.02": 0.0,
			"0.021": 0.0,
			"0.022": 0.0,
			"0.023": 0.0,
			"0.024": 0.0,
			"0.025": 0.0
		}
	}
}
