{
	 "smiles": "ClCCCC(Cl)=O", 
	 "Tm": 226.15, 
	 "num_atms": 13, 
	 "gaussian": { 
		 "optdone": 1, 
		 "sigma_profile": "yes", 
		 "theory": "DFT", 
		 "functional": "B3LYP", 
		 "basiset": "6-31G**", 
		 "properties": { 
			 "R2extent": 1495.0459, 
			 "electric_dipole_moment_norm": 4.52816413793, 
			 "electric_quadrupole_moment_norm": 6.15917760744, 
			 "total_energy": -1151.66247375, 
			 "HOMO_LUMO_gap": 0.2586, 
			 "cosmo_polarized_energy": -9.6, 
			 "cosmo_cavitation_energy": 20.3, 
			 "cosmo_dispersion_energy": -14.9, 
			 "cosmo_repulsion_energy": 1.29, 
			 "cosmo_total_nonelectrostatic_energy": 6.69, 
			 "SMD_solvation_energy": 3.54 
		},
		"coords": [
			{
				"x": -0.3356687817,
				"y": 1.8870105491,
				"z": -0.8388859289,
				"element": "Cl" 
			},
			{
				"x": 0.4348953265,
				"y": 1.7069900186,
				"z": 0.7965935271,
				"element": "C" 
			},
			{
				"x": -0.1681301429,
				"y": 0.573339119,
				"z": 1.6186277247,
				"element": "C" 
			},
			{
				"x": -0.0455622296,
				"y": -0.8169261406,
				"z": 0.9718239202,
				"element": "C" 
			},
			{
				"x": -1.292232263,
				"y": -1.2515147753,
				"z": 0.2313195598,
				"element": "C" 
			},
			{
				"x": -0.980109487,
				"y": -2.735087349,
				"z": -0.7959839979,
				"element": "Cl" 
			},
			{
				"x": -2.3837381974,
				"y": -0.7891015069,
				"z": 0.2977089431,
				"element": "O" 
			},
			{
				"x": 0.307812932,
				"y": 2.6654127095,
				"z": 1.301870164,
				"element": "H" 
			},
			{
				"x": 1.4986659907,
				"y": 1.5442467877,
				"z": 0.6100223978,
				"element": "H" 
			},
			{
				"x": -1.2188767979,
				"y": 0.784234249,
				"z": 1.8357822753,
				"element": "H" 
			},
			{
				"x": 0.3649445357,
				"y": 0.5703757844,
				"z": 2.5775159467,
				"element": "H" 
			},
			{
				"x": 0.8074616055,
				"y": -0.885874698,
				"z": 0.2906172144,
				"element": "H" 
			},
			{
				"x": 0.1174375092,
				"y": -1.5901047475,
				"z": 1.7335882537,
				"element": "H" 
			}
		],
		 "valence_orbital": [ 
			{
				"type": "occ",
				"energy": -0.32203,
				"method": "rhf"
			},
			{
				"type": "occ",
				"energy": -0.31843,
				"method": "rhf"
			},
			{
				"type": "occ",
				"energy": -0.30468,
				"method": "rhf"
			},
			{
				"type": "occ",
				"energy": -0.30321,
				"method": "rhf"
			},
			{
				"type": "occ",
				"energy": -0.29649,
				"method": "rhf"
			},
			{
				"type": "unocc",
				"energy": -0.03789,
				"method": "rhf"
			},
			{
				"type": "unocc",
				"energy": 0.01397,
				"method": "rhf"
			},
			{
				"type": "unocc",
				"energy": 0.01987,
				"method": "rhf"
			},
			{
				"type": "unocc",
				"energy": 0.06954,
				"method": "rhf"
			},
			{
				"type": "unocc",
				"energy": 0.109,
				"method": "rhf"
			}
		],
		"cosmo_sigma_profile": { 
			"-0.025": 0.0,
			"-0.024": 0.0,
			"-0.023": 0.0,
			"-0.022": 0.0,
			"-0.021": 0.0,
			"-0.02": 0.0,
			"-0.019": 0.0,
			"-0.018": 0.0,
			"-0.017": 0.0,
			"-0.016": 0.0,
			"-0.015": 0.0,
			"-0.014": 0.0,
			"-0.013": 0.0,
			"-0.012": 0.0,
			"-0.011": 0.0,
			"-0.01": 0.0,
			"-0.009": 1.47611369603,
			"-0.008": 4.54877602051,
			"-0.007": 11.2558647421,
			"-0.006": 14.2549035526,
			"-0.005": 12.6213856068,
			"-0.004": 11.92797231,
			"-0.003": 7.20275053014,
			"-0.002": 5.34997021659,
			"-0.001": 6.38591300897,
			"0.0": 7.35145442604,
			"0.001": 7.66087572885,
			"0.002": 9.78521807109,
			"0.003": 11.0146941067,
			"0.004": 15.4945489128,
			"0.005": 13.826822522,
			"0.006": 10.2116461354,
			"0.007": 7.73697881346,
			"0.008": 4.55730418041,
			"0.009": 2.01766228212,
			"0.01": 0.0298760583534,
			"0.011": 0.0,
			"0.012": 0.0,
			"0.013": 0.0,
			"0.014": 0.0,
			"0.015": 0.0,
			"0.016": 0.0,
			"0.017": 0.0,
			"0.018": 0.0,
			"0.019": 0.0,
			"0.02": 0.0,
			"0.021": 0.0,
			"0.022": 0.0,
			"0.023": 0.0,
			"0.024": 0.0,
			"0.025": 0.0
		}
	}
}
