{
	 "smiles": "CN(CC(O)=O)C1=NC=C(C=C1)C#N", 
	 "Tm": 444.15, 
	 "num_atms": 23, 
	 "gaussian": { 
		 "optdone": 1, 
		 "sigma_profile": "yes", 
		 "theory": "DFT", 
		 "functional": "B3LYP", 
		 "basiset": "6-31G**", 
		 "properties": { 
			 "R2extent": 3514.4746, 
			 "electric_dipole_moment_norm": 5.92999485413, 
			 "electric_quadrupole_moment_norm": 31.4319692334, 
			 "total_energy": -663.077143847, 
			 "HOMO_LUMO_gap": 0.18124, 
			 "cosmo_polarized_energy": -18.01, 
			 "cosmo_cavitation_energy": 28.86, 
			 "cosmo_dispersion_energy": -20.06, 
			 "cosmo_repulsion_energy": 1.59, 
			 "cosmo_total_nonelectrostatic_energy": 10.39, 
			 "SMD_solvation_energy": 6.55 
		},
		"coords": [
			{
				"x": -1.8733278086,
				"y": 0.8686054489,
				"z": 2.0545559084,
				"element": "C" 
			},
			{
				"x": -0.7342100683,
				"y": 0.8254999102,
				"z": 1.1494969964,
				"element": "N" 
			},
			{
				"x": 0.5914116631,
				"y": 0.7523056836,
				"z": 1.7302187798,
				"element": "C" 
			},
			{
				"x": 0.9878777963,
				"y": -0.5910761351,
				"z": 2.338401975,
				"element": "C" 
			},
			{
				"x": 0.1107259364,
				"y": -1.5811480805,
				"z": 2.0602128758,
				"element": "O" 
			},
			{
				"x": 1.9895513224,
				"y": -0.7529188816,
				"z": 2.9963358007,
				"element": "O" 
			},
			{
				"x": -0.9145637898,
				"y": 0.5593514213,
				"z": -0.1879592793,
				"element": "C" 
			},
			{
				"x": 0.1996011309,
				"y": 0.4400749772,
				"z": -0.9402918405,
				"element": "N" 
			},
			{
				"x": 0.0763409458,
				"y": 0.2204156888,
				"z": -2.243218315,
				"element": "C" 
			},
			{
				"x": -1.1570771478,
				"y": 0.093424216,
				"z": -2.9019217025,
				"element": "C" 
			},
			{
				"x": -2.3192187839,
				"y": 0.2044767231,
				"z": -2.113802582,
				"element": "C" 
			},
			{
				"x": -2.2089015438,
				"y": 0.4343268671,
				"z": -0.7567161938,
				"element": "C" 
			},
			{
				"x": -1.2192443351,
				"y": -0.1471269908,
				"z": -4.3071777923,
				"element": "C" 
			},
			{
				"x": -1.2676667784,
				"y": -0.3424871037,
				"z": -5.4540541056,
				"element": "N" 
			},
			{
				"x": -2.3549993621,
				"y": -0.1116129422,
				"z": 2.1643895665,
				"element": "H" 
			},
			{
				"x": -1.5267911125,
				"y": 1.1901661893,
				"z": 3.0382499136,
				"element": "H" 
			},
			{
				"x": -2.6176559958,
				"y": 1.5947499484,
				"z": 1.712254057,
				"element": "H" 
			},
			{
				"x": 0.699337522,
				"y": 1.5036249063,
				"z": 2.5186013196,
				"element": "H" 
			},
			{
				"x": 1.3274482725,
				"y": 0.9737282986,
				"z": 0.9551633726,
				"element": "H" 
			},
			{
				"x": 0.4739681281,
				"y": -2.3853511061,
				"z": 2.4687821604,
				"element": "H" 
			},
			{
				"x": 1.0020872104,
				"y": 0.1344972368,
				"z": -2.8084940986,
				"element": "H" 
			},
			{
				"x": -3.2966941643,
				"y": 0.1036141926,
				"z": -2.5743316567,
				"element": "H" 
			},
			{
				"x": -3.1009990378,
				"y": 0.5067595317,
				"z": -0.1489951595,
				"element": "H" 
			}
		],
		 "valence_orbital": [ 
			{
				"type": "occ",
				"energy": -0.31273,
				"method": "rhf"
			},
			{
				"type": "occ",
				"energy": -0.30219,
				"method": "rhf"
			},
			{
				"type": "occ",
				"energy": -0.28639,
				"method": "rhf"
			},
			{
				"type": "occ",
				"energy": -0.27665,
				"method": "rhf"
			},
			{
				"type": "occ",
				"energy": -0.22427,
				"method": "rhf"
			},
			{
				"type": "unocc",
				"energy": -0.04303,
				"method": "rhf"
			},
			{
				"type": "unocc",
				"energy": -0.03623,
				"method": "rhf"
			},
			{
				"type": "unocc",
				"energy": -0.00167,
				"method": "rhf"
			},
			{
				"type": "unocc",
				"energy": 0.03779,
				"method": "rhf"
			},
			{
				"type": "unocc",
				"energy": 0.05977,
				"method": "rhf"
			}
		],
		"cosmo_sigma_profile": { 
			"-0.025": 0.0,
			"-0.024": 0.0,
			"-0.023": 0.0,
			"-0.022": 0.0,
			"-0.021": 0.0,
			"-0.02": 0.0,
			"-0.019": 0.150528673304,
			"-0.018": 1.02197874783,
			"-0.017": 0.589324415052,
			"-0.016": 1.27541401906,
			"-0.015": 0.581799058075,
			"-0.014": 0.640212570252,
			"-0.013": 0.643012676912,
			"-0.012": 0.711967748942,
			"-0.011": 1.00059517435,
			"-0.01": 0.698006818052,
			"-0.009": 1.59593490827,
			"-0.008": 8.98195290406,
			"-0.007": 12.9291045398,
			"-0.006": 13.0464186265,
			"-0.005": 14.0615249157,
			"-0.004": 15.4587227796,
			"-0.003": 15.2479794979,
			"-0.002": 13.5878108557,
			"-0.001": 14.0280686815,
			"0.0": 15.8506831793,
			"0.001": 15.465349389,
			"0.002": 12.2804764985,
			"0.003": 9.01000973222,
			"0.004": 8.08541037271,
			"0.005": 6.50629512669,
			"0.006": 6.13807314657,
			"0.007": 6.92203807426,
			"0.008": 5.66528607635,
			"0.009": 6.76571273813,
			"0.01": 4.80508929509,
			"0.011": 7.66512098065,
			"0.012": 6.8658499171,
			"0.013": 2.48823370416,
			"0.014": 0.432293150234,
			"0.015": 0.0,
			"0.016": 0.0,
			"0.017": 0.0,
			"0.018": 0.0,
			"0.019": 0.0,
			"0.02": 0.0,
			"0.021": 0.0,
			"0.022": 0.0,
			"0.023": 0.0,
			"0.024": 0.0,
			"0.025": 0.0
		}
	}
}
