{
	 "smiles": "OC1=C(C#N)C(C#N)=C(O)C=C1", 
	 "Tm": 518.15, 
	 "num_atms": 16, 
	 "gaussian": { 
		 "optdone": 1, 
		 "sigma_profile": "yes", 
		 "theory": "DFT", 
		 "functional": "B3LYP", 
		 "basiset": "6-31G**", 
		 "properties": { 
			 "R2extent": 2460.6869, 
			 "electric_dipole_moment_norm": 4.52494152338, 
			 "electric_quadrupole_moment_norm": 11.8491659293, 
			 "total_energy": -567.167460549, 
			 "HOMO_LUMO_gap": 0.15574, 
			 "cosmo_polarized_energy": -14.73, 
			 "cosmo_cavitation_energy": 23.09, 
			 "cosmo_dispersion_energy": -16.07, 
			 "cosmo_repulsion_energy": 1.27, 
			 "cosmo_total_nonelectrostatic_energy": 8.3, 
			 "SMD_solvation_energy": 7.05 
		},
		"coords": [
			{
				"x": 0.5539655667,
				"y": 0.9690513287,
				"z": -1.0746480322,
				"element": "O" 
			},
			{
				"x": 0.409189906,
				"y": 0.0895815861,
				"z": -0.0576993729,
				"element": "C" 
			},
			{
				"x": -0.7475780128,
				"y": 0.0116085336,
				"z": 0.7336188971,
				"element": "C" 
			},
			{
				"x": -1.8178961399,
				"y": 0.9083557916,
				"z": 0.4432370147,
				"element": "C" 
			},
			{
				"x": -2.6292142042,
				"y": 1.6812786223,
				"z": 0.124730092,
				"element": "N" 
			},
			{
				"x": -0.825507839,
				"y": -0.9415728161,
				"z": 1.7874187222,
				"element": "C" 
			},
			{
				"x": -1.9787562137,
				"y": -1.0590359919,
				"z": 2.6182522573,
				"element": "C" 
			},
			{
				"x": -2.8677226397,
				"y": -1.2360876881,
				"z": 3.3500204224,
				"element": "N" 
			},
			{
				"x": 0.254429888,
				"y": -1.8034016054,
				"z": 2.0351231758,
				"element": "C" 
			},
			{
				"x": 0.2513575946,
				"y": -2.7324991265,
				"z": 3.0176616386,
				"element": "O" 
			},
			{
				"x": 1.4038106827,
				"y": -1.7089725211,
				"z": 1.2309558757,
				"element": "C" 
			},
			{
				"x": 1.4795315752,
				"y": -0.7827698713,
				"z": 0.2069679533,
				"element": "C" 
			},
			{
				"x": -0.2424741698,
				"y": 1.5159566592,
				"z": -1.1637026434,
				"element": "H" 
			},
			{
				"x": -0.5876024799,
				"y": -2.706163041,
				"z": 3.5042873958,
				"element": "H" 
			},
			{
				"x": 2.2285663265,
				"y": -2.3824538071,
				"z": 1.4362723883,
				"element": "H" 
			},
			{
				"x": 2.3654001594,
				"y": -0.7087760531,
				"z": -0.4140957846,
				"element": "H" 
			}
		],
		 "valence_orbital": [ 
			{
				"type": "occ",
				"energy": -0.36122,
				"method": "rhf"
			},
			{
				"type": "occ",
				"energy": -0.36091,
				"method": "rhf"
			},
			{
				"type": "occ",
				"energy": -0.33807,
				"method": "rhf"
			},
			{
				"type": "occ",
				"energy": -0.29038,
				"method": "rhf"
			},
			{
				"type": "occ",
				"energy": -0.24563,
				"method": "rhf"
			},
			{
				"type": "unocc",
				"energy": -0.08989,
				"method": "rhf"
			},
			{
				"type": "unocc",
				"energy": -0.03706,
				"method": "rhf"
			},
			{
				"type": "unocc",
				"energy": -0.00762,
				"method": "rhf"
			},
			{
				"type": "unocc",
				"energy": 0.00668,
				"method": "rhf"
			},
			{
				"type": "unocc",
				"energy": 0.05269,
				"method": "rhf"
			}
		],
		"cosmo_sigma_profile": { 
			"-0.025": 0.0,
			"-0.024": 0.0,
			"-0.023": 0.0,
			"-0.022": 0.0,
			"-0.021": 0.0,
			"-0.02": 0.0,
			"-0.019": 0.0,
			"-0.018": 0.0,
			"-0.017": 0.20026368501,
			"-0.016": 1.60251027286,
			"-0.015": 1.47307490901,
			"-0.014": 0.681518171359,
			"-0.013": 1.67363654643,
			"-0.012": 3.05585289711,
			"-0.011": 3.03078888612,
			"-0.01": 2.02023573386,
			"-0.009": 3.40791371919,
			"-0.008": 7.29597123542,
			"-0.007": 6.53528302205,
			"-0.006": 5.84462748788,
			"-0.005": 7.50126653648,
			"-0.004": 7.72287094894,
			"-0.003": 11.7875168418,
			"-0.002": 14.9261301925,
			"-0.001": 15.4820148195,
			"0.0": 12.9755195631,
			"0.001": 9.65038935075,
			"0.002": 7.37237667075,
			"0.003": 5.77188715176,
			"0.004": 6.51703048104,
			"0.005": 5.88281963708,
			"0.006": 7.02366659963,
			"0.007": 8.57447267958,
			"0.008": 8.6962180977,
			"0.009": 8.46648790501,
			"0.01": 5.7716808765,
			"0.011": 4.68050171642,
			"0.012": 2.45051992144,
			"0.013": 0.00772332569163,
			"0.014": 0.0,
			"0.015": 0.0,
			"0.016": 0.0,
			"0.017": 0.0,
			"0.018": 0.0,
			"0.019": 0.0,
			"0.02": 0.0,
			"0.021": 0.0,
			"0.022": 0.0,
			"0.023": 0.0,
			"0.024": 0.0,
			"0.025": 0.0
		}
	}
}
