{
	 "smiles": "NC1=CC(=C(Cl)C=C1)S(=O)(=O)N1CCOCC1", 
	 "Tm": 431.15, 
	 "num_atms": 30, 
	 "gaussian": { 
		 "optdone": 1, 
		 "sigma_profile": "yes", 
		 "theory": "DFT", 
		 "functional": "B3LYP", 
		 "basiset": "6-31G**", 
		 "properties": { 
			 "R2extent": 5324.5582, 
			 "electric_dipole_moment_norm": 4.75873499157, 
			 "electric_quadrupole_moment_norm": 27.6973723098, 
			 "total_energy": -1582.35242603, 
			 "HOMO_LUMO_gap": 0.18128, 
			 "cosmo_polarized_energy": -18.85, 
			 "cosmo_cavitation_energy": 34.9, 
			 "cosmo_dispersion_energy": -25.58, 
			 "cosmo_repulsion_energy": 1.93, 
			 "cosmo_total_nonelectrostatic_energy": 11.25, 
			 "SMD_solvation_energy": 4.51 
		},
		"coords": [
			{
				"x": 0.6994861615,
				"y": 4.6892536676,
				"z": -1.8243074265,
				"element": "N" 
			},
			{
				"x": 0.4921584156,
				"y": 3.3154891134,
				"z": -1.8591467852,
				"element": "C" 
			},
			{
				"x": 1.307660588,
				"y": 2.4502931748,
				"z": -1.1122222646,
				"element": "C" 
			},
			{
				"x": 1.0766311615,
				"y": 1.0748006178,
				"z": -1.0943426358,
				"element": "C" 
			},
			{
				"x": 0.0171230607,
				"y": 0.5310389038,
				"z": -1.8349256963,
				"element": "C" 
			},
			{
				"x": -0.3452730512,
				"y": -1.1835763065,
				"z": -1.875722554,
				"element": "Cl" 
			},
			{
				"x": -0.798133734,
				"y": 1.3867707384,
				"z": -2.5768135979,
				"element": "C" 
			},
			{
				"x": -0.5684830433,
				"y": 2.7577772629,
				"z": -2.5923635706,
				"element": "C" 
			},
			{
				"x": 2.2490332422,
				"y": 0.0861144294,
				"z": -0.1302675192,
				"element": "S" 
			},
			{
				"x": 3.1239306442,
				"y": 1.0579938481,
				"z": 0.5416442078,
				"element": "O" 
			},
			{
				"x": 2.818182254,
				"y": -0.9586884021,
				"z": -0.9818646223,
				"element": "O" 
			},
			{
				"x": 1.2858568878,
				"y": -0.6778745902,
				"z": 1.0004826906,
				"element": "N" 
			},
			{
				"x": 0.8577162088,
				"y": 0.0760566592,
				"z": 2.197015165,
				"element": "C" 
			},
			{
				"x": 0.9570947787,
				"y": -0.8253324914,
				"z": 3.4257845215,
				"element": "C" 
			},
			{
				"x": 0.1866714705,
				"y": -2.0121237905,
				"z": 3.2998987804,
				"element": "O" 
			},
			{
				"x": 0.2160932403,
				"y": -2.6102426121,
				"z": 2.0011813678,
				"element": "C" 
			},
			{
				"x": 1.3857658566,
				"y": -2.1418644772,
				"z": 1.1426336424,
				"element": "C" 
			},
			{
				"x": 0.335635388,
				"y": 5.2112750928,
				"z": -2.6086903908,
				"element": "H" 
			},
			{
				"x": 1.6263812336,
				"y": 4.9879384762,
				"z": -1.5558790225,
				"element": "H" 
			},
			{
				"x": 2.1381299996,
				"y": 2.8374435372,
				"z": -0.5319410775,
				"element": "H" 
			},
			{
				"x": -1.6185086749,
				"y": 0.9675050583,
				"z": -3.1490956303,
				"element": "H" 
			},
			{
				"x": -1.2203614274,
				"y": 3.4020203384,
				"z": -3.1761462344,
				"element": "H" 
			},
			{
				"x": -0.1763826079,
				"y": 0.4202786978,
				"z": 2.0689264651,
				"element": "H" 
			},
			{
				"x": 1.5019696278,
				"y": 0.9489696122,
				"z": 2.3349469474,
				"element": "H" 
			},
			{
				"x": 0.5698608354,
				"y": -0.295517386,
				"z": 4.3015848222,
				"element": "H" 
			},
			{
				"x": 2.0146551068,
				"y": -1.0622101633,
				"z": 3.6192042502,
				"element": "H" 
			},
			{
				"x": -0.7244280876,
				"y": -2.3891218361,
				"z": 1.4767497855,
				"element": "H" 
			},
			{
				"x": 0.2810735863,
				"y": -3.695422625,
				"z": 2.1408151774,
				"element": "H" 
			},
			{
				"x": 1.3276029418,
				"y": -2.6001060445,
				"z": 0.1547651092,
				"element": "H" 
			},
			{
				"x": 2.3387579366,
				"y": -2.444338503,
				"z": 1.5967960954,
				"element": "H" 
			}
		],
		 "valence_orbital": [ 
			{
				"type": "occ",
				"energy": -0.2969,
				"method": "rhf"
			},
			{
				"type": "occ",
				"energy": -0.27788,
				"method": "rhf"
			},
			{
				"type": "occ",
				"energy": -0.25624,
				"method": "rhf"
			},
			{
				"type": "occ",
				"energy": -0.24295,
				"method": "rhf"
			},
			{
				"type": "occ",
				"energy": -0.21965,
				"method": "rhf"
			},
			{
				"type": "unocc",
				"energy": -0.03837,
				"method": "rhf"
			},
			{
				"type": "unocc",
				"energy": -0.01246,
				"method": "rhf"
			},
			{
				"type": "unocc",
				"energy": 0.01675,
				"method": "rhf"
			},
			{
				"type": "unocc",
				"energy": 0.06624,
				"method": "rhf"
			},
			{
				"type": "unocc",
				"energy": 0.0713,
				"method": "rhf"
			}
		],
		"cosmo_sigma_profile": { 
			"-0.025": 0.0,
			"-0.024": 0.0,
			"-0.023": 0.0,
			"-0.022": 0.0,
			"-0.021": 0.0,
			"-0.02": 0.0,
			"-0.019": 0.0,
			"-0.018": 0.0,
			"-0.017": 0.0,
			"-0.016": 0.0,
			"-0.015": 0.0,
			"-0.014": 0.261373586913,
			"-0.013": 2.69559304595,
			"-0.012": 3.28326840035,
			"-0.011": 2.96508521105,
			"-0.01": 3.31662187978,
			"-0.009": 3.76967367255,
			"-0.008": 3.61997360794,
			"-0.007": 5.88417628956,
			"-0.006": 13.5497070106,
			"-0.005": 25.0133865836,
			"-0.004": 21.9092089128,
			"-0.003": 20.1541416876,
			"-0.002": 19.2458259262,
			"-0.001": 13.9820144432,
			"0.0": 13.9971875143,
			"0.001": 15.9433466376,
			"0.002": 21.4644559331,
			"0.003": 18.8440012904,
			"0.004": 13.6765794805,
			"0.005": 7.22048660187,
			"0.006": 4.28445025393,
			"0.007": 5.33818923233,
			"0.008": 6.13736223951,
			"0.009": 5.98397454062,
			"0.01": 8.30448402018,
			"0.011": 9.64282323596,
			"0.012": 5.15544685942,
			"0.013": 1.98213857002,
			"0.014": 0.231173464153,
			"0.015": 0.0,
			"0.016": 0.0,
			"0.017": 0.0,
			"0.018": 0.0,
			"0.019": 0.0,
			"0.02": 0.0,
			"0.021": 0.0,
			"0.022": 0.0,
			"0.023": 0.0,
			"0.024": 0.0,
			"0.025": 0.0
		}
	}
}
