{
	 "smiles": "CCOC(=O)CC(=O)CCl", 
	 "Tm": 265.15, 
	 "num_atms": 19, 
	 "gaussian": { 
		 "optdone": 1, 
		 "sigma_profile": "yes", 
		 "theory": "DFT", 
		 "functional": "B3LYP", 
		 "basiset": "6-31G**", 
		 "properties": { 
			 "R2extent": 3215.0628, 
			 "electric_dipole_moment_norm": 3.09821492476, 
			 "electric_quadrupole_moment_norm": 8.32466920784, 
			 "total_energy": -919.932689881, 
			 "HOMO_LUMO_gap": 0.21227, 
			 "cosmo_polarized_energy": -9.98, 
			 "cosmo_cavitation_energy": 25.22, 
			 "cosmo_dispersion_energy": -17.75, 
			 "cosmo_repulsion_energy": 1.51, 
			 "cosmo_total_nonelectrostatic_energy": 8.97, 
			 "SMD_solvation_energy": 6.02 
		},
		"coords": [
			{
				"x": -1.6313866449,
				"y": 0.0528413635,
				"z": 0.7014327731,
				"element": "C" 
			},
			{
				"x": -0.2469009517,
				"y": -0.1465682458,
				"z": 1.2967720463,
				"element": "C" 
			},
			{
				"x": 0.7849479239,
				"y": -0.0433691275,
				"z": 0.2776947239,
				"element": "O" 
			},
			{
				"x": 1.0634591214,
				"y": -1.1693206497,
				"z": -0.418306854,
				"element": "C" 
			},
			{
				"x": 0.515899991,
				"y": -2.2327796149,
				"z": -0.2482849519,
				"element": "O" 
			},
			{
				"x": 2.1405475663,
				"y": -0.914713415,
				"z": -1.4673097578,
				"element": "C" 
			},
			{
				"x": 3.2385390305,
				"y": 0.0258377719,
				"z": -0.976566679,
				"element": "C" 
			},
			{
				"x": 4.2131467786,
				"y": -0.3906241517,
				"z": -0.3878175369,
				"element": "O" 
			},
			{
				"x": 3.068109963,
				"y": 1.528577244,
				"z": -1.1942583252,
				"element": "C" 
			},
			{
				"x": 2.8460257692,
				"y": 1.9392539069,
				"z": -2.9478203521,
				"element": "Cl" 
			},
			{
				"x": -1.6983710316,
				"y": 1.0106855944,
				"z": 0.1772256104,
				"element": "H" 
			},
			{
				"x": -2.3802813856,
				"y": 0.0460687837,
				"z": 1.5001535211,
				"element": "H" 
			},
			{
				"x": -1.870012834,
				"y": -0.7526230961,
				"z": 0.002754088,
				"element": "H" 
			},
			{
				"x": -0.1580403833,
				"y": -1.120911888,
				"z": 1.7817794935,
				"element": "H" 
			},
			{
				"x": 0.0034257099,
				"y": 0.6404492485,
				"z": 2.011503712,
				"element": "H" 
			},
			{
				"x": 1.6478342763,
				"y": -0.5051579018,
				"z": -2.3555047699,
				"element": "H" 
			},
			{
				"x": 2.5827526762,
				"y": -1.8789251312,
				"z": -1.7197990651,
				"element": "H" 
			},
			{
				"x": 2.1797960545,
				"y": 1.8831797878,
				"z": -0.6689892234,
				"element": "H" 
			},
			{
				"x": 3.9617083704,
				"y": 2.0408995209,
				"z": -0.841958453,
				"element": "H" 
			}
		],
		 "valence_orbital": [ 
			{
				"type": "occ",
				"energy": -0.32655,
				"method": "rhf"
			},
			{
				"type": "occ",
				"energy": -0.31633,
				"method": "rhf"
			},
			{
				"type": "occ",
				"energy": -0.31247,
				"method": "rhf"
			},
			{
				"type": "occ",
				"energy": -0.29121,
				"method": "rhf"
			},
			{
				"type": "occ",
				"energy": -0.26565,
				"method": "rhf"
			},
			{
				"type": "unocc",
				"energy": -0.05338,
				"method": "rhf"
			},
			{
				"type": "unocc",
				"energy": -0.00265,
				"method": "rhf"
			},
			{
				"type": "unocc",
				"energy": 0.02566,
				"method": "rhf"
			},
			{
				"type": "unocc",
				"energy": 0.08978,
				"method": "rhf"
			},
			{
				"type": "unocc",
				"energy": 0.09996,
				"method": "rhf"
			}
		],
		"cosmo_sigma_profile": { 
			"-0.025": 0.0,
			"-0.024": 0.0,
			"-0.023": 0.0,
			"-0.022": 0.0,
			"-0.021": 0.0,
			"-0.02": 0.0,
			"-0.019": 0.0,
			"-0.018": 0.0,
			"-0.017": 0.0,
			"-0.016": 0.0,
			"-0.015": 0.0,
			"-0.014": 0.0,
			"-0.013": 0.0,
			"-0.012": 0.0,
			"-0.011": 0.0,
			"-0.01": 0.0,
			"-0.009": 0.729559539348,
			"-0.008": 4.37242876233,
			"-0.007": 6.22827931275,
			"-0.006": 10.0358186091,
			"-0.005": 14.4184922121,
			"-0.004": 20.9910218599,
			"-0.003": 19.8871781013,
			"-0.002": 16.7545489661,
			"-0.001": 16.1132749618,
			"0.0": 15.7748144949,
			"0.001": 11.1236699471,
			"0.002": 8.42280098885,
			"0.003": 8.21088231377,
			"0.004": 8.4156202512,
			"0.005": 9.52119825672,
			"0.006": 4.35212734242,
			"0.007": 2.67445198301,
			"0.008": 3.87900732016,
			"0.009": 4.11357974974,
			"0.01": 6.40757679341,
			"0.011": 6.70589830477,
			"0.012": 2.11660307909,
			"0.013": 0.0366376721897,
			"0.014": 0.0,
			"0.015": 0.0,
			"0.016": 0.0,
			"0.017": 0.0,
			"0.018": 0.0,
			"0.019": 0.0,
			"0.02": 0.0,
			"0.021": 0.0,
			"0.022": 0.0,
			"0.023": 0.0,
			"0.024": 0.0,
			"0.025": 0.0
		}
	}
}
