{
	 "smiles": "CC1=CC=C(O)C=C1Cl", 
	 "Tm": 326.95, 
	 "num_atms": 16, 
	 "gaussian": { 
		 "optdone": 1, 
		 "sigma_profile": "yes", 
		 "theory": "DFT", 
		 "functional": "B3LYP", 
		 "basiset": "6-31G**", 
		 "properties": { 
			 "R2extent": 1563.3373, 
			 "electric_dipole_moment_norm": 2.98356811553, 
			 "electric_quadrupole_moment_norm": 7.80060260172, 
			 "total_energy": -806.383096794, 
			 "HOMO_LUMO_gap": 0.21184, 
			 "cosmo_polarized_energy": -8.2, 
			 "cosmo_cavitation_energy": 21.42, 
			 "cosmo_dispersion_energy": -16.13, 
			 "cosmo_repulsion_energy": 1.32, 
			 "cosmo_total_nonelectrostatic_energy": 6.61, 
			 "SMD_solvation_energy": 3.84 
		},
		"coords": [
			{
				"x": 1.3330473896,
				"y": -1.0203765738,
				"z": -2.0782832932,
				"element": "C" 
			},
			{
				"x": 0.7067884211,
				"y": -0.0114648113,
				"z": -1.1500665026,
				"element": "C" 
			},
			{
				"x": 1.3188476888,
				"y": 1.2211693724,
				"z": -0.8930359354,
				"element": "C" 
			},
			{
				"x": 0.7615786957,
				"y": 2.1718245222,
				"z": -0.0392317619,
				"element": "C" 
			},
			{
				"x": -0.4544649155,
				"y": 1.9015263446,
				"z": 0.5934166228,
				"element": "C" 
			},
			{
				"x": -1.066283608,
				"y": 2.7781717149,
				"z": 1.4431661267,
				"element": "O" 
			},
			{
				"x": -1.0989705466,
				"y": 0.6820859378,
				"z": 0.363937237,
				"element": "C" 
			},
			{
				"x": -0.5137205123,
				"y": -0.2427193883,
				"z": -0.4941193911,
				"element": "C" 
			},
			{
				"x": -1.3614995286,
				"y": -1.7666770078,
				"z": -0.7538703297,
				"element": "Cl" 
			},
			{
				"x": 2.2761063186,
				"y": -0.6397839929,
				"z": -2.4788848657,
				"element": "H" 
			},
			{
				"x": 1.537222421,
				"y": -1.9667052893,
				"z": -1.5655715531,
				"element": "H" 
			},
			{
				"x": 0.674140699,
				"y": -1.2551437334,
				"z": -2.9213920778,
				"element": "H" 
			},
			{
				"x": 2.2650764418,
				"y": 1.4416455792,
				"z": -1.3799885155,
				"element": "H" 
			},
			{
				"x": 1.2705515451,
				"y": 3.117446871,
				"z": 0.132856165,
				"element": "H" 
			},
			{
				"x": -0.5266123736,
				"y": 3.5756881606,
				"z": 1.5180581788,
				"element": "H" 
			},
			{
				"x": -2.0418081362,
				"y": 0.4728122941,
				"z": 0.8546098955,
				"element": "H" 
			}
		],
		 "valence_orbital": [ 
			{
				"type": "occ",
				"energy": -0.34976,
				"method": "rhf"
			},
			{
				"type": "occ",
				"energy": -0.31451,
				"method": "rhf"
			},
			{
				"type": "occ",
				"energy": -0.30823,
				"method": "rhf"
			},
			{
				"type": "occ",
				"energy": -0.24821,
				"method": "rhf"
			},
			{
				"type": "occ",
				"energy": -0.22311,
				"method": "rhf"
			},
			{
				"type": "unocc",
				"energy": -0.01127,
				"method": "rhf"
			},
			{
				"type": "unocc",
				"energy": 0.00628,
				"method": "rhf"
			},
			{
				"type": "unocc",
				"energy": 0.03394,
				"method": "rhf"
			},
			{
				"type": "unocc",
				"energy": 0.06617,
				"method": "rhf"
			},
			{
				"type": "unocc",
				"energy": 0.10568,
				"method": "rhf"
			}
		],
		"cosmo_sigma_profile": { 
			"-0.025": 0.0,
			"-0.024": 0.0,
			"-0.023": 0.0,
			"-0.022": 0.0,
			"-0.021": 0.0,
			"-0.02": 0.0,
			"-0.019": 0.0,
			"-0.018": 0.613851189959,
			"-0.017": 1.08652654289,
			"-0.016": 1.19026467656,
			"-0.015": 1.17045265016,
			"-0.014": 0.842509315713,
			"-0.013": 0.932030617292,
			"-0.012": 0.437670901186,
			"-0.011": 1.17264514897,
			"-0.01": 1.35296732587,
			"-0.009": 1.44325097157,
			"-0.008": 1.12626394113,
			"-0.007": 2.4570899436,
			"-0.006": 5.54190255235,
			"-0.005": 7.65204711935,
			"-0.004": 9.40408761651,
			"-0.003": 8.10295384092,
			"-0.002": 12.023656713,
			"-0.001": 11.912839841,
			"0.0": 14.9090388445,
			"0.001": 13.6111566811,
			"0.002": 13.9265326242,
			"0.003": 18.3546816668,
			"0.004": 20.6320981102,
			"0.005": 12.1650047072,
			"0.006": 2.28487401154,
			"0.007": 1.93548628308,
			"0.008": 1.16233571828,
			"0.009": 0.804365179658,
			"0.01": 1.951846643,
			"0.011": 2.0781314047,
			"0.012": 0.13653743465,
			"0.013": 0.0,
			"0.014": 0.0,
			"0.015": 0.0,
			"0.016": 0.0,
			"0.017": 0.0,
			"0.018": 0.0,
			"0.019": 0.0,
			"0.02": 0.0,
			"0.021": 0.0,
			"0.022": 0.0,
			"0.023": 0.0,
			"0.024": 0.0,
			"0.025": 0.0
		}
	}
}
