{
	 "smiles": "C1CN2C(N1)=NC1=C2C=CC=C1", 
	 "Tm": 473.15, 
	 "num_atms": 21, 
	 "gaussian": { 
		 "optdone": 1, 
		 "sigma_profile": "yes", 
		 "theory": "DFT", 
		 "functional": "B3LYP", 
		 "basiset": "6-31G**", 
		 "properties": { 
			 "R2extent": 2622.8537, 
			 "electric_dipole_moment_norm": 4.68753603613, 
			 "electric_quadrupole_moment_norm": 16.6325155704, 
			 "total_energy": -512.636879021, 
			 "HOMO_LUMO_gap": 0.20239, 
			 "cosmo_polarized_energy": -14.17, 
			 "cosmo_cavitation_energy": 24.04, 
			 "cosmo_dispersion_energy": -18.5, 
			 "cosmo_repulsion_energy": 1.46, 
			 "cosmo_total_nonelectrostatic_energy": 7.0, 
			 "SMD_solvation_energy": 0.01 
		},
		"coords": [
			{
				"x": 1.865083834,
				"y": 3.5116355643,
				"z": 0.4699384106,
				"element": "C" 
			},
			{
				"x": 0.3193791702,
				"y": 3.6686577463,
				"z": 0.3736631135,
				"element": "C" 
			},
			{
				"x": -0.0847252136,
				"y": 2.2754570964,
				"z": 0.4017156477,
				"element": "N" 
			},
			{
				"x": 0.9543072806,
				"y": 1.4350747826,
				"z": 0.0783038866,
				"element": "C" 
			},
			{
				"x": 2.1086051975,
				"y": 2.176179172,
				"z": -0.1082499491,
				"element": "N" 
			},
			{
				"x": 0.6452874296,
				"y": 0.1737478354,
				"z": -0.0475756757,
				"element": "N" 
			},
			{
				"x": -0.7382475696,
				"y": 0.1713609068,
				"z": 0.1755291757,
				"element": "C" 
			},
			{
				"x": -1.2281854756,
				"y": 1.4869603809,
				"z": 0.4317604481,
				"element": "C" 
			},
			{
				"x": -2.5714222133,
				"y": 1.7560054568,
				"z": 0.6718477777,
				"element": "C" 
			},
			{
				"x": -3.4480722436,
				"y": 0.6668815021,
				"z": 0.6531611521,
				"element": "C" 
			},
			{
				"x": -2.9857622686,
				"y": -0.6359760385,
				"z": 0.4086581596,
				"element": "C" 
			},
			{
				"x": -1.6346885987,
				"y": -0.8986190024,
				"z": 0.1705684159,
				"element": "C" 
			},
			{
				"x": 2.1809865981,
				"y": 3.564655652,
				"z": 1.5214839807,
				"element": "H" 
			},
			{
				"x": 2.3911439396,
				"y": 4.287502222,
				"z": -0.0915831881,
				"element": "H" 
			},
			{
				"x": 0.0178544361,
				"y": 4.1519041276,
				"z": -0.5650878687,
				"element": "H" 
			},
			{
				"x": -0.0890748451,
				"y": 4.2413114898,
				"z": 1.2107497664,
				"element": "H" 
			},
			{
				"x": 2.9816390503,
				"y": 1.7160729888,
				"z": 0.1120423997,
				"element": "H" 
			},
			{
				"x": -2.9283888426,
				"y": 2.7635435436,
				"z": 0.863585453,
				"element": "H" 
			},
			{
				"x": -4.5060032546,
				"y": 0.8345669981,
				"z": 0.8322388206,
				"element": "H" 
			},
			{
				"x": -3.6964398775,
				"y": -1.4574165526,
				"z": 0.4030530245,
				"element": "H" 
			},
			{
				"x": -1.2777765331,
				"y": -1.905505872,
				"z": -0.0211029508,
				"element": "H" 
			}
		],
		 "valence_orbital": [ 
			{
				"type": "occ",
				"energy": -0.28881,
				"method": "rhf"
			},
			{
				"type": "occ",
				"energy": -0.27653,
				"method": "rhf"
			},
			{
				"type": "occ",
				"energy": -0.26337,
				"method": "rhf"
			},
			{
				"type": "occ",
				"energy": -0.21251,
				"method": "rhf"
			},
			{
				"type": "occ",
				"energy": -0.19463,
				"method": "rhf"
			},
			{
				"type": "unocc",
				"energy": 0.00776,
				"method": "rhf"
			},
			{
				"type": "unocc",
				"energy": 0.02969,
				"method": "rhf"
			},
			{
				"type": "unocc",
				"energy": 0.06835,
				"method": "rhf"
			},
			{
				"type": "unocc",
				"energy": 0.07697,
				"method": "rhf"
			},
			{
				"type": "unocc",
				"energy": 0.09525,
				"method": "rhf"
			}
		],
		"cosmo_sigma_profile": { 
			"-0.025": 0.0,
			"-0.024": 0.0,
			"-0.023": 0.0,
			"-0.022": 0.0,
			"-0.021": 0.0,
			"-0.02": 0.0,
			"-0.019": 0.0,
			"-0.018": 0.0,
			"-0.017": 0.0,
			"-0.016": 0.0,
			"-0.015": 0.0369071952128,
			"-0.014": 1.2598827602,
			"-0.013": 1.24648056784,
			"-0.012": 1.25674798935,
			"-0.011": 1.4284068977,
			"-0.01": 0.671066142395,
			"-0.009": 1.12995418368,
			"-0.008": 0.903783528752,
			"-0.007": 3.12392948983,
			"-0.006": 13.4549265962,
			"-0.005": 24.6052047088,
			"-0.004": 19.413649543,
			"-0.003": 16.6060323346,
			"-0.002": 10.2416610232,
			"-0.001": 7.45998737139,
			"0.0": 8.40733938652,
			"0.001": 7.2484039447,
			"0.002": 7.62671968709,
			"0.003": 9.01701150683,
			"0.004": 9.11422410917,
			"0.005": 10.0770597554,
			"0.006": 11.4536313775,
			"0.007": 9.20535775915,
			"0.008": 3.43018941601,
			"0.009": 2.61865261554,
			"0.01": 1.80063717809,
			"0.011": 1.00034212973,
			"0.012": 1.28345106985,
			"0.013": 1.14550049994,
			"0.014": 1.4118261995,
			"0.015": 0.910536960858,
			"0.016": 1.20456416109,
			"0.017": 0.944086574956,
			"0.018": 0.9605711616,
			"0.019": 0.132918260351,
			"0.02": 0.0,
			"0.021": 0.0,
			"0.022": 0.0,
			"0.023": 0.0,
			"0.024": 0.0,
			"0.025": 0.0
		}
	}
}
