{
	 "smiles": "CC1=NOC(=C1C(O)=O)C1=CC=CC=C1", 
	 "Tm": 463.15, 
	 "num_atms": 24, 
	 "gaussian": { 
		 "optdone": 1, 
		 "sigma_profile": "yes", 
		 "theory": "DFT", 
		 "functional": "B3LYP", 
		 "basiset": "6-31G**", 
		 "properties": { 
			 "R2extent": 3577.1436, 
			 "electric_dipole_moment_norm": 4.52058525968, 
			 "electric_quadrupole_moment_norm": 15.7911341464, 
			 "total_energy": -704.986876457, 
			 "HOMO_LUMO_gap": 0.18675, 
			 "cosmo_polarized_energy": -13.91, 
			 "cosmo_cavitation_energy": 28.7, 
			 "cosmo_dispersion_energy": -20.92, 
			 "cosmo_repulsion_energy": 1.62, 
			 "cosmo_total_nonelectrostatic_energy": 9.4, 
			 "SMD_solvation_energy": 5.66 
		},
		"coords": [
			{
				"x": -2.4204568688,
				"y": -3.1104269803,
				"z": 1.4499322044,
				"element": "C" 
			},
			{
				"x": -1.8855852133,
				"y": -1.7288441551,
				"z": 1.2495102343,
				"element": "C" 
			},
			{
				"x": -1.8945561681,
				"y": -0.8718450832,
				"z": 2.2413322166,
				"element": "N" 
			},
			{
				"x": -1.3312909908,
				"y": 0.3110325682,
				"z": 1.7318167835,
				"element": "O" 
			},
			{
				"x": -1.0030862229,
				"y": 0.1400007666,
				"z": 0.438225482,
				"element": "C" 
			},
			{
				"x": -1.3397635164,
				"y": -1.1419811308,
				"z": 0.0537439443,
				"element": "C" 
			},
			{
				"x": -1.2710855014,
				"y": -1.8421578826,
				"z": -1.2481282719,
				"element": "C" 
			},
			{
				"x": -1.097355959,
				"y": -1.0892133392,
				"z": -2.3648532215,
				"element": "O" 
			},
			{
				"x": -1.3849171436,
				"y": -3.0435516389,
				"z": -1.3474999728,
				"element": "O" 
			},
			{
				"x": -0.3966941917,
				"y": 1.301774662,
				"z": -0.2251008835,
				"element": "C" 
			},
			{
				"x": -0.8424431146,
				"y": 2.5951999546,
				"z": 0.1030387762,
				"element": "C" 
			},
			{
				"x": -0.2709710881,
				"y": 3.7083412749,
				"z": -0.5067428607,
				"element": "C" 
			},
			{
				"x": 0.7513899421,
				"y": 3.5499219013,
				"z": -1.4466116823,
				"element": "C" 
			},
			{
				"x": 1.2093281958,
				"y": 2.2711857183,
				"z": -1.7671421027,
				"element": "C" 
			},
			{
				"x": 0.6460927139,
				"y": 1.1500681642,
				"z": -1.157387876,
				"element": "C" 
			},
			{
				"x": -2.7898666911,
				"y": -3.2158239285,
				"z": 2.4717466924,
				"element": "H" 
			},
			{
				"x": -1.6416876036,
				"y": -3.8523786101,
				"z": 1.2580863836,
				"element": "H" 
			},
			{
				"x": -3.2295106055,
				"y": -3.3169845604,
				"z": 0.7440606963,
				"element": "H" 
			},
			{
				"x": -1.0948792929,
				"y": -0.1430401787,
				"z": -2.1539650051,
				"element": "H" 
			},
			{
				"x": -1.6362140304,
				"y": 2.7139165649,
				"z": 0.8326732804,
				"element": "H" 
			},
			{
				"x": -0.625453901,
				"y": 4.7020383645,
				"z": -0.250315873,
				"element": "H" 
			},
			{
				"x": 1.1934509824,
				"y": 4.4206431991,
				"z": -1.9213956088,
				"element": "H" 
			},
			{
				"x": 2.0161045347,
				"y": 2.1428055749,
				"z": -2.4821326587,
				"element": "H" 
			},
			{
				"x": 1.0322517342,
				"y": 0.1619187744,
				"z": -1.384990677,
				"element": "H" 
			}
		],
		 "valence_orbital": [ 
			{
				"type": "occ",
				"energy": -0.30421,
				"method": "rhf"
			},
			{
				"type": "occ",
				"energy": -0.29648,
				"method": "rhf"
			},
			{
				"type": "occ",
				"energy": -0.28197,
				"method": "rhf"
			},
			{
				"type": "occ",
				"energy": -0.27773,
				"method": "rhf"
			},
			{
				"type": "occ",
				"energy": -0.25693,
				"method": "rhf"
			},
			{
				"type": "unocc",
				"energy": -0.07018,
				"method": "rhf"
			},
			{
				"type": "unocc",
				"energy": -0.03329,
				"method": "rhf"
			},
			{
				"type": "unocc",
				"energy": -0.01011,
				"method": "rhf"
			},
			{
				"type": "unocc",
				"energy": 0.00284,
				"method": "rhf"
			},
			{
				"type": "unocc",
				"energy": 0.0727,
				"method": "rhf"
			}
		],
		"cosmo_sigma_profile": { 
			"-0.025": 0.0,
			"-0.024": 0.0,
			"-0.023": 0.0,
			"-0.022": 0.0,
			"-0.021": 0.0,
			"-0.02": 0.0,
			"-0.019": 0.0,
			"-0.018": 0.0,
			"-0.017": 0.0,
			"-0.016": 0.0,
			"-0.015": 0.258095929818,
			"-0.014": 0.909868571485,
			"-0.013": 1.08097070364,
			"-0.012": 0.658169122074,
			"-0.011": 1.18176433533,
			"-0.01": 0.632557309852,
			"-0.009": 0.98041246143,
			"-0.008": 2.36553769412,
			"-0.007": 8.3137958764,
			"-0.006": 14.4142870753,
			"-0.005": 18.7179029779,
			"-0.004": 17.4455822033,
			"-0.003": 18.8490448626,
			"-0.002": 19.1123479211,
			"-0.001": 19.7112603582,
			"0.0": 12.2239904321,
			"0.001": 12.8168007331,
			"0.002": 14.8195481351,
			"0.003": 14.9136547409,
			"0.004": 6.56973107947,
			"0.005": 4.02824968983,
			"0.006": 5.47150792381,
			"0.007": 6.28029135822,
			"0.008": 5.44332560433,
			"0.009": 3.93870390124,
			"0.01": 6.26054823494,
			"0.011": 5.74393483399,
			"0.012": 4.31314700088,
			"0.013": 2.55362579702,
			"0.014": 0.39381747541,
			"0.015": 0.0,
			"0.016": 0.0,
			"0.017": 0.0,
			"0.018": 0.0,
			"0.019": 0.0,
			"0.02": 0.0,
			"0.021": 0.0,
			"0.022": 0.0,
			"0.023": 0.0,
			"0.024": 0.0,
			"0.025": 0.0
		}
	}
}
