{
	 "smiles": "NC(=NO)C1=CC(Cl)=CC=C1", 
	 "Tm": 389.15, 
	 "num_atms": 18, 
	 "gaussian": { 
		 "optdone": 1, 
		 "sigma_profile": "yes", 
		 "theory": "DFT", 
		 "functional": "B3LYP", 
		 "basiset": "6-31G**", 
		 "properties": { 
			 "R2extent": 2558.3047, 
			 "electric_dipole_moment_norm": 2.7517389938, 
			 "electric_quadrupole_moment_norm": 10.214290551, 
			 "total_energy": -915.8355197, 
			 "HOMO_LUMO_gap": 0.17977, 
			 "cosmo_polarized_energy": -11.45, 
			 "cosmo_cavitation_energy": 24.3, 
			 "cosmo_dispersion_energy": -18.34, 
			 "cosmo_repulsion_energy": 1.5, 
			 "cosmo_total_nonelectrostatic_energy": 7.46, 
			 "SMD_solvation_energy": 4.03 
		},
		"coords": [
			{
				"x": 1.1535053768,
				"y": -1.3386863087,
				"z": -2.2323362937,
				"element": "N" 
			},
			{
				"x": 0.3697129211,
				"y": -0.2592153396,
				"z": -1.8687412162,
				"element": "C" 
			},
			{
				"x": -0.1560216778,
				"y": 0.5720641372,
				"z": -2.7094258617,
				"element": "N" 
			},
			{
				"x": 0.1037706633,
				"y": 0.1379827639,
				"z": -4.0363971991,
				"element": "O" 
			},
			{
				"x": 0.1682702038,
				"y": 0.0057597939,
				"z": -0.4235402429,
				"element": "C" 
			},
			{
				"x": -0.9369428348,
				"y": 0.7609077819,
				"z": -0.0009341403,
				"element": "C" 
			},
			{
				"x": -1.1172143574,
				"y": 1.0049015177,
				"z": 1.3552515051,
				"element": "C" 
			},
			{
				"x": -2.5069142293,
				"y": 1.947907648,
				"z": 1.8796604191,
				"element": "Cl" 
			},
			{
				"x": -0.2300916719,
				"y": 0.5109648338,
				"z": 2.3140544453,
				"element": "C" 
			},
			{
				"x": 0.8662656175,
				"y": -0.2366172412,
				"z": 1.8866054063,
				"element": "C" 
			},
			{
				"x": 1.0704739308,
				"y": -0.4883817727,
				"z": 0.5297289079,
				"element": "C" 
			},
			{
				"x": 1.0770446174,
				"y": -2.1540187401,
				"z": -1.6410633859,
				"element": "H" 
			},
			{
				"x": 1.1195549006,
				"y": -1.5398176702,
				"z": -3.2230478901,
				"element": "H" 
			},
			{
				"x": -0.3180056309,
				"y": 0.8298789654,
				"z": -4.5599343356,
				"element": "H" 
			},
			{
				"x": -1.6356237132,
				"y": 1.1432613559,
				"z": -0.7344456337,
				"element": "H" 
			},
			{
				"x": -0.39771803,
				"y": 0.7107477175,
				"z": 3.3664139528,
				"element": "H" 
			},
			{
				"x": 1.5715471814,
				"y": -0.6179902801,
				"z": 2.6189319847,
				"element": "H" 
			},
			{
				"x": 1.9459867324,
				"y": -1.0418491626,
				"z": 0.207019578,
				"element": "H" 
			}
		],
		 "valence_orbital": [ 
			{
				"type": "occ",
				"energy": -0.31108,
				"method": "rhf"
			},
			{
				"type": "occ",
				"energy": -0.27895,
				"method": "rhf"
			},
			{
				"type": "occ",
				"energy": -0.26764,
				"method": "rhf"
			},
			{
				"type": "occ",
				"energy": -0.24914,
				"method": "rhf"
			},
			{
				"type": "occ",
				"energy": -0.21598,
				"method": "rhf"
			},
			{
				"type": "unocc",
				"energy": -0.03621,
				"method": "rhf"
			},
			{
				"type": "unocc",
				"energy": -0.01514,
				"method": "rhf"
			},
			{
				"type": "unocc",
				"energy": 0.03082,
				"method": "rhf"
			},
			{
				"type": "unocc",
				"energy": 0.05275,
				"method": "rhf"
			},
			{
				"type": "unocc",
				"energy": 0.07165,
				"method": "rhf"
			}
		],
		"cosmo_sigma_profile": { 
			"-0.025": 0.0,
			"-0.024": 0.0,
			"-0.023": 0.0,
			"-0.022": 0.0,
			"-0.021": 0.0,
			"-0.02": 0.0,
			"-0.019": 0.0,
			"-0.018": 0.0,
			"-0.017": 0.565148421937,
			"-0.016": 0.974076235428,
			"-0.015": 1.15834880115,
			"-0.014": 0.880591988508,
			"-0.013": 1.43929629544,
			"-0.012": 2.0804836036,
			"-0.011": 2.76346035985,
			"-0.01": 3.09316928006,
			"-0.009": 3.72279896375,
			"-0.008": 2.99384262949,
			"-0.007": 6.60181959693,
			"-0.006": 7.98462504493,
			"-0.005": 10.0340415534,
			"-0.004": 7.24160345339,
			"-0.003": 6.76778518607,
			"-0.002": 8.72549604021,
			"-0.001": 9.58212551134,
			"0.0": 11.9392858216,
			"0.001": 17.8439692629,
			"0.002": 17.7388456516,
			"0.003": 20.9133887879,
			"0.004": 16.1384507946,
			"0.005": 11.2325095078,
			"0.006": 4.26595212864,
			"0.007": 5.43826855757,
			"0.008": 4.16670019699,
			"0.009": 3.8852722291,
			"0.01": 2.49235344838,
			"0.011": 1.86456201346,
			"0.012": 0.80134529184,
			"0.013": 0.74711595764,
			"0.014": 0.0812392504162,
			"0.015": 0.0,
			"0.016": 0.0,
			"0.017": 0.0,
			"0.018": 0.0,
			"0.019": 0.0,
			"0.02": 0.0,
			"0.021": 0.0,
			"0.022": 0.0,
			"0.023": 0.0,
			"0.024": 0.0,
			"0.025": 0.0
		}
	}
}
