{
	 "smiles": "OC(=O)CSC1=NC=CN1C1=CC=C(C=C1)C(F)(F)F", 
	 "Tm": 393.15, 
	 "num_atms": 29, 
	 "gaussian": { 
		 "optdone": 1, 
		 "sigma_profile": "yes", 
		 "theory": "DFT", 
		 "functional": "B3LYP", 
		 "basiset": "6-31G**", 
		 "properties": { 
			 "R2extent": 9181.4368, 
			 "electric_dipole_moment_norm": 6.64114185965, 
			 "electric_quadrupole_moment_norm": 41.4375459547, 
			 "total_energy": -1420.37128755, 
			 "HOMO_LUMO_gap": 0.17215, 
			 "cosmo_polarized_energy": -16.68, 
			 "cosmo_cavitation_energy": 37.09, 
			 "cosmo_dispersion_energy": -26.34, 
			 "cosmo_repulsion_energy": 1.91, 
			 "cosmo_total_nonelectrostatic_energy": 12.66, 
			 "SMD_solvation_energy": 8.54 
		},
		"coords": [
			{
				"x": -0.5668671498,
				"y": 4.6117508911,
				"z": 0.958473619,
				"element": "O" 
			},
			{
				"x": -1.5939731725,
				"y": 4.6028421394,
				"z": 0.1099154149,
				"element": "C" 
			},
			{
				"x": -2.4975719032,
				"y": 5.4059128008,
				"z": 0.1641539214,
				"element": "O" 
			},
			{
				"x": -1.5608114592,
				"y": 3.5326011475,
				"z": -0.9937582096,
				"element": "C" 
			},
			{
				"x": -1.7582862302,
				"y": 1.7873649027,
				"z": -0.4286855687,
				"element": "S" 
			},
			{
				"x": -0.0978403809,
				"y": 1.4371934361,
				"z": 0.06119879,
				"element": "C" 
			},
			{
				"x": 0.8054921569,
				"y": 2.3406429462,
				"z": 0.3975352367,
				"element": "N" 
			},
			{
				"x": 1.9366193953,
				"y": 1.6405137154,
				"z": 0.7649089098,
				"element": "C" 
			},
			{
				"x": 1.7070544805,
				"y": 0.2995470449,
				"z": 0.6668262042,
				"element": "C" 
			},
			{
				"x": 0.3995263133,
				"y": 0.1631381472,
				"z": 0.2014332691,
				"element": "N" 
			},
			{
				"x": -0.2618213328,
				"y": -1.0824827899,
				"z": -0.0296746893,
				"element": "C" 
			},
			{
				"x": -0.8253953546,
				"y": -1.363449025,
				"z": -1.2780589292,
				"element": "C" 
			},
			{
				"x": -1.4497102953,
				"y": -2.5901132192,
				"z": -1.4884881403,
				"element": "C" 
			},
			{
				"x": -1.4972360402,
				"y": -3.5382181962,
				"z": -0.4632627294,
				"element": "C" 
			},
			{
				"x": -0.9257264433,
				"y": -3.2568002963,
				"z": 0.7798721598,
				"element": "C" 
			},
			{
				"x": -0.3134653931,
				"y": -2.0259286999,
				"z": 1.0011603944,
				"element": "C" 
			},
			{
				"x": -2.1145711698,
				"y": -4.8889026878,
				"z": -0.7182147714,
				"element": "C" 
			},
			{
				"x": -3.1109681898,
				"y": -4.8191191625,
				"z": -1.6259850863,
				"element": "F" 
			},
			{
				"x": -2.6225356355,
				"y": -5.4272002427,
				"z": 0.4107012802,
				"element": "F" 
			},
			{
				"x": -1.2019139065,
				"y": -5.7639909998,
				"z": -1.19839439,
				"element": "F" 
			},
			{
				"x": 0.0704489094,
				"y": 3.8685465195,
				"z": 0.7635925104,
				"element": "H" 
			},
			{
				"x": -2.4166569313,
				"y": 3.7068245586,
				"z": -1.6460108293,
				"element": "H" 
			},
			{
				"x": -0.6369005959,
				"y": 3.5936468164,
				"z": -1.5754753482,
				"element": "H" 
			},
			{
				"x": 2.8364399516,
				"y": 2.1496723202,
				"z": 1.0770233052,
				"element": "H" 
			},
			{
				"x": 2.3285708703,
				"y": -0.5638316709,
				"z": 0.8427600227,
				"element": "H" 
			},
			{
				"x": -0.7722527966,
				"y": -0.6290869123,
				"z": -2.0732124276,
				"element": "H" 
			},
			{
				"x": -1.8966355203,
				"y": -2.812304052,
				"z": -2.4510639368,
				"element": "H" 
			},
			{
				"x": -0.9765965739,
				"y": -3.9899250666,
				"z": 1.5770935616,
				"element": "H" 
			},
			{
				"x": 0.1105843974,
				"y": -1.786544365,
				"z": 1.9706364569,
				"element": "H" 
			}
		],
		 "valence_orbital": [ 
			{
				"type": "occ",
				"energy": -0.29362,
				"method": "rhf"
			},
			{
				"type": "occ",
				"energy": -0.29319,
				"method": "rhf"
			},
			{
				"type": "occ",
				"energy": -0.28288,
				"method": "rhf"
			},
			{
				"type": "occ",
				"energy": -0.25644,
				"method": "rhf"
			},
			{
				"type": "occ",
				"energy": -0.23192,
				"method": "rhf"
			},
			{
				"type": "unocc",
				"energy": -0.05977,
				"method": "rhf"
			},
			{
				"type": "unocc",
				"energy": -0.04601,
				"method": "rhf"
			},
			{
				"type": "unocc",
				"energy": -0.0163,
				"method": "rhf"
			},
			{
				"type": "unocc",
				"energy": 0.00215,
				"method": "rhf"
			},
			{
				"type": "unocc",
				"energy": 0.02864,
				"method": "rhf"
			}
		],
		"cosmo_sigma_profile": { 
			"-0.025": 0.0,
			"-0.024": 0.0,
			"-0.023": 0.0,
			"-0.022": 0.0,
			"-0.021": 0.0,
			"-0.02": 0.0,
			"-0.019": 0.0,
			"-0.018": 0.0,
			"-0.017": 0.0,
			"-0.016": 0.0,
			"-0.015": 0.0,
			"-0.014": 0.0,
			"-0.013": 0.0,
			"-0.012": 0.0,
			"-0.011": 0.0,
			"-0.01": 0.518565383476,
			"-0.009": 3.19747337921,
			"-0.008": 11.525575454,
			"-0.007": 15.9939113629,
			"-0.006": 15.5534674798,
			"-0.005": 16.2130643214,
			"-0.004": 15.5298368266,
			"-0.003": 15.3357517274,
			"-0.002": 16.6106770639,
			"-0.001": 21.5001986191,
			"0.0": 24.1726959834,
			"0.001": 30.1149088821,
			"0.002": 37.0334721585,
			"0.003": 33.3892029601,
			"0.004": 8.6620280034,
			"0.005": 3.74305499622,
			"0.006": 3.87785907782,
			"0.007": 1.97055381322,
			"0.008": 2.71585782207,
			"0.009": 3.00071456183,
			"0.01": 3.30528858158,
			"0.011": 5.78392889736,
			"0.012": 7.00327487766,
			"0.013": 3.08709333339,
			"0.014": 0.485917713601,
			"0.015": 0.0,
			"0.016": 0.0,
			"0.017": 0.0,
			"0.018": 0.0,
			"0.019": 0.0,
			"0.02": 0.0,
			"0.021": 0.0,
			"0.022": 0.0,
			"0.023": 0.0,
			"0.024": 0.0,
			"0.025": 0.0
		}
	}
}
