{
	 "smiles": "ClC1=CC(=CC(Cl)=N1)C#N", 
	 "Tm": 369.65, 
	 "num_atms": 12, 
	 "gaussian": { 
		 "optdone": 1, 
		 "sigma_profile": "yes", 
		 "theory": "DFT", 
		 "functional": "B3LYP", 
		 "basiset": "6-31G**", 
		 "properties": { 
			 "R2extent": 2905.3917, 
			 "electric_dipole_moment_norm": 0.296039811512, 
			 "electric_quadrupole_moment_norm": 15.9380024994, 
			 "total_energy": -1259.70266017, 
			 "HOMO_LUMO_gap": 0.18842, 
			 "cosmo_polarized_energy": -9.14, 
			 "cosmo_cavitation_energy": 22.16, 
			 "cosmo_dispersion_energy": -16.13, 
			 "cosmo_repulsion_energy": 1.33, 
			 "cosmo_total_nonelectrostatic_energy": 7.36, 
			 "SMD_solvation_energy": 3.39 
		},
		"coords": [
			{
				"x": -3.8305712511,
				"y": 1.1582794227,
				"z": -1.3389942347,
				"element": "Cl" 
			},
			{
				"x": -2.1650662423,
				"y": 0.6301400299,
				"z": -1.2613878003,
				"element": "C" 
			},
			{
				"x": -1.8767714082,
				"y": -0.7175713979,
				"z": -1.4761199998,
				"element": "C" 
			},
			{
				"x": -0.5287496759,
				"y": -1.0948613943,
				"z": -1.4041943118,
				"element": "C" 
			},
			{
				"x": 0.4515575065,
				"y": -0.1320862583,
				"z": -1.1271366978,
				"element": "C" 
			},
			{
				"x": 0.0107632297,
				"y": 1.1772584901,
				"z": -0.9351800122,
				"element": "C" 
			},
			{
				"x": 1.1901130975,
				"y": 2.4207530494,
				"z": -0.5863595791,
				"element": "Cl" 
			},
			{
				"x": -1.2565276857,
				"y": 1.5573927549,
				"z": -0.9982482841,
				"element": "N" 
			},
			{
				"x": -0.1529151,
				"y": -2.4643964564,
				"z": -1.6138871782,
				"element": "C" 
			},
			{
				"x": 0.1513373126,
				"y": -3.5730541506,
				"z": -1.7836669135,
				"element": "N" 
			},
			{
				"x": -2.6570277344,
				"y": -1.4366718607,
				"z": -1.6880609229,
				"element": "H" 
			},
			{
				"x": 1.5002579514,
				"y": -0.3912822287,
				"z": -1.0649640655,
				"element": "H" 
			}
		],
		 "valence_orbital": [ 
			{
				"type": "occ",
				"energy": -0.34026,
				"method": "rhf"
			},
			{
				"type": "occ",
				"energy": -0.33753,
				"method": "rhf"
			},
			{
				"type": "occ",
				"energy": -0.31832,
				"method": "rhf"
			},
			{
				"type": "occ",
				"energy": -0.31803,
				"method": "rhf"
			},
			{
				"type": "occ",
				"energy": -0.28582,
				"method": "rhf"
			},
			{
				"type": "unocc",
				"energy": -0.0974,
				"method": "rhf"
			},
			{
				"type": "unocc",
				"energy": -0.06259,
				"method": "rhf"
			},
			{
				"type": "unocc",
				"energy": -0.00339,
				"method": "rhf"
			},
			{
				"type": "unocc",
				"energy": -0.001,
				"method": "rhf"
			},
			{
				"type": "unocc",
				"energy": 0.03368,
				"method": "rhf"
			}
		],
		"cosmo_sigma_profile": { 
			"-0.025": 0.0,
			"-0.024": 0.0,
			"-0.023": 0.0,
			"-0.022": 0.0,
			"-0.021": 0.0,
			"-0.02": 0.0,
			"-0.019": 0.0,
			"-0.018": 0.0,
			"-0.017": 0.0,
			"-0.016": 0.0,
			"-0.015": 0.0,
			"-0.014": 0.0,
			"-0.013": 0.0,
			"-0.012": 0.0,
			"-0.011": 2.0691700014,
			"-0.01": 4.2181618827,
			"-0.009": 3.55252269906,
			"-0.008": 3.95887015962,
			"-0.007": 3.84464947453,
			"-0.006": 4.07208648854,
			"-0.005": 9.88072890065,
			"-0.004": 14.7330079544,
			"-0.003": 19.9510095131,
			"-0.002": 12.3495446438,
			"-0.001": 9.59562769608,
			"0.0": 9.53508474405,
			"0.001": 11.946016626,
			"0.002": 14.733071373,
			"0.003": 20.9808030988,
			"0.004": 9.89231389359,
			"0.005": 5.4500828413,
			"0.006": 4.74700421966,
			"0.007": 5.03344395216,
			"0.008": 4.2753809388,
			"0.009": 3.42952712831,
			"0.01": 3.565125224,
			"0.011": 3.02929347434,
			"0.012": 0.757885403065,
			"0.013": 0.0,
			"0.014": 0.0,
			"0.015": 0.0,
			"0.016": 0.0,
			"0.017": 0.0,
			"0.018": 0.0,
			"0.019": 0.0,
			"0.02": 0.0,
			"0.021": 0.0,
			"0.022": 0.0,
			"0.023": 0.0,
			"0.024": 0.0,
			"0.025": 0.0
		}
	}
}
