{
	 "smiles": "CC1=NN(N=C1C(=O)NO)C1=CC=CC=C1", 
	 "Tm": 433.15, 
	 "num_atms": 26, 
	 "gaussian": { 
		 "optdone": 1, 
		 "sigma_profile": "yes", 
		 "theory": "DFT", 
		 "functional": "B3LYP", 
		 "basiset": "6-31G**", 
		 "properties": { 
			 "R2extent": 5203.9227, 
			 "electric_dipole_moment_norm": 3.69598055325, 
			 "electric_quadrupole_moment_norm": 15.5153666202, 
			 "total_energy": -756.468287667, 
			 "HOMO_LUMO_gap": 0.17773, 
			 "cosmo_polarized_energy": -15.35, 
			 "cosmo_cavitation_energy": 31.16, 
			 "cosmo_dispersion_energy": -23.03, 
			 "cosmo_repulsion_energy": 1.79, 
			 "cosmo_total_nonelectrostatic_energy": 9.92, 
			 "SMD_solvation_energy": 5.56 
		},
		"coords": [
			{
				"x": -3.4255246927,
				"y": -0.075504667,
				"z": -1.9265363755,
				"element": "C" 
			},
			{
				"x": -2.0773910977,
				"y": 0.302222665,
				"z": -1.3992379263,
				"element": "C" 
			},
			{
				"x": -1.1896705228,
				"y": -0.6258811671,
				"z": -1.0430964601,
				"element": "N" 
			},
			{
				"x": -0.1285379671,
				"y": 0.0761879496,
				"z": -0.6167668921,
				"element": "N" 
			},
			{
				"x": -0.2621151178,
				"y": 1.3928386599,
				"z": -0.6608063768,
				"element": "N" 
			},
			{
				"x": -1.4922934864,
				"y": 1.5752264619,
				"z": -1.1570443304,
				"element": "C" 
			},
			{
				"x": -2.0149891987,
				"y": 2.9459752134,
				"z": -1.3349872142,
				"element": "C" 
			},
			{
				"x": -1.5566951498,
				"y": 3.9482186187,
				"z": -0.7905620382,
				"element": "O" 
			},
			{
				"x": -3.1404299601,
				"y": 3.0543521278,
				"z": -2.1287032049,
				"element": "N" 
			},
			{
				"x": -3.5139871132,
				"y": 4.3773721446,
				"z": -2.406385211,
				"element": "O" 
			},
			{
				"x": 1.0589724018,
				"y": -0.5541937015,
				"z": -0.1426001288,
				"element": "C" 
			},
			{
				"x": 1.1439050656,
				"y": -1.9488980595,
				"z": -0.1474845132,
				"element": "C" 
			},
			{
				"x": 2.3091684902,
				"y": -2.5552657306,
				"z": 0.3186077245,
				"element": "C" 
			},
			{
				"x": 3.375497929,
				"y": -1.78219078,
				"z": 0.7823193321,
				"element": "C" 
			},
			{
				"x": 3.272621909,
				"y": -0.3891898094,
				"z": 0.7796070408,
				"element": "C" 
			},
			{
				"x": 2.1157859372,
				"y": 0.2357864121,
				"z": 0.3185253807,
				"element": "C" 
			},
			{
				"x": -3.6430929103,
				"y": -1.1142570345,
				"z": -1.6709984607,
				"element": "H" 
			},
			{
				"x": -3.470820477,
				"y": 0.0109665674,
				"z": -3.0196301073,
				"element": "H" 
			},
			{
				"x": -4.2043353182,
				"y": 0.5693991373,
				"z": -1.5107133258,
				"element": "H" 
			},
			{
				"x": -3.1947876871,
				"y": 2.4971911124,
				"z": -2.973993845,
				"element": "H" 
			},
			{
				"x": -2.8603052886,
				"y": 4.8706471185,
				"z": -1.8603284916,
				"element": "H" 
			},
			{
				"x": 0.3081380742,
				"y": -2.5341036452,
				"z": -0.5102024613,
				"element": "H" 
			},
			{
				"x": 2.3805920139,
				"y": -3.6387332283,
				"z": 0.3174927378,
				"element": "H" 
			},
			{
				"x": 4.2801223064,
				"y": -2.26154475,
				"z": 1.143684114,
				"element": "H" 
			},
			{
				"x": 4.0966372566,
				"y": 0.2194441312,
				"z": 1.1394048897,
				"element": "H" 
			},
			{
				"x": 2.0194346032,
				"y": 1.3145342534,
				"z": 0.3114361435,
				"element": "H" 
			}
		],
		 "valence_orbital": [ 
			{
				"type": "occ",
				"energy": -0.30253,
				"method": "rhf"
			},
			{
				"type": "occ",
				"energy": -0.28202,
				"method": "rhf"
			},
			{
				"type": "occ",
				"energy": -0.26426,
				"method": "rhf"
			},
			{
				"type": "occ",
				"energy": -0.24799,
				"method": "rhf"
			},
			{
				"type": "occ",
				"energy": -0.23588,
				"method": "rhf"
			},
			{
				"type": "unocc",
				"energy": -0.05815,
				"method": "rhf"
			},
			{
				"type": "unocc",
				"energy": -0.02209,
				"method": "rhf"
			},
			{
				"type": "unocc",
				"energy": -0.01202,
				"method": "rhf"
			},
			{
				"type": "unocc",
				"energy": 0.02236,
				"method": "rhf"
			},
			{
				"type": "unocc",
				"energy": 0.05138,
				"method": "rhf"
			}
		],
		"cosmo_sigma_profile": { 
			"-0.025": 0.0,
			"-0.024": 0.0,
			"-0.023": 0.0,
			"-0.022": 0.0,
			"-0.021": 0.0,
			"-0.02": 0.0,
			"-0.019": 0.0,
			"-0.018": 0.0,
			"-0.017": 0.0237224242845,
			"-0.016": 1.03887941944,
			"-0.015": 1.41656683901,
			"-0.014": 1.62836093788,
			"-0.013": 1.01327186287,
			"-0.012": 1.67572036149,
			"-0.011": 1.99273656167,
			"-0.01": 1.8036162187,
			"-0.009": 1.7702733277,
			"-0.008": 1.71612101969,
			"-0.007": 4.50157568095,
			"-0.006": 12.6713838492,
			"-0.005": 16.9127288365,
			"-0.004": 18.4418242275,
			"-0.003": 17.8890643348,
			"-0.002": 20.8898909366,
			"-0.001": 18.8754560701,
			"0.0": 17.1867956816,
			"0.001": 17.5322585808,
			"0.002": 15.0298957855,
			"0.003": 15.1603761008,
			"0.004": 15.8928112321,
			"0.005": 6.49404898273,
			"0.006": 4.64871587719,
			"0.007": 4.48622204521,
			"0.008": 5.68668112511,
			"0.009": 5.40218798861,
			"0.01": 5.31147146885,
			"0.011": 5.61661659678,
			"0.012": 3.76420806404,
			"0.013": 2.37176658356,
			"0.014": 0.701867110707,
			"0.015": 0.0,
			"0.016": 0.0,
			"0.017": 0.0,
			"0.018": 0.0,
			"0.019": 0.0,
			"0.02": 0.0,
			"0.021": 0.0,
			"0.022": 0.0,
			"0.023": 0.0,
			"0.024": 0.0,
			"0.025": 0.0
		}
	}
}
