{
	 "smiles": "N1C=CC2=C1C=CN=C2", 
	 "Tm": 381.15, 
	 "num_atms": 15, 
	 "gaussian": { 
		 "optdone": 1, 
		 "sigma_profile": "yes", 
		 "theory": "DFT", 
		 "functional": "B3LYP", 
		 "basiset": "6-31G**", 
		 "properties": { 
			 "R2extent": 2185.2818, 
			 "electric_dipole_moment_norm": 4.37998482303, 
			 "electric_quadrupole_moment_norm": 16.7490058368, 
			 "total_energy": -379.857713131, 
			 "HOMO_LUMO_gap": 0.19701, 
			 "cosmo_polarized_energy": -11.83, 
			 "cosmo_cavitation_energy": 18.83, 
			 "cosmo_dispersion_energy": -14.51, 
			 "cosmo_repulsion_energy": 1.17, 
			 "cosmo_total_nonelectrostatic_energy": 5.49, 
			 "SMD_solvation_energy": 1.94 
		},
		"coords": [
			{
				"x": 0.2887267489,
				"y": 0.8159700158,
				"z": -0.7708743148,
				"element": "N" 
			},
			{
				"x": 0.4767946771,
				"y": 0.6542575241,
				"z": 0.5946764324,
				"element": "C" 
			},
			{
				"x": -0.4907039027,
				"y": 1.3391493972,
				"z": 1.2774094804,
				"element": "C" 
			},
			{
				"x": -1.3310019308,
				"y": 1.9641146146,
				"z": 0.292114466,
				"element": "C" 
			},
			{
				"x": -0.8110612663,
				"y": 1.6133965869,
				"z": -0.9833899625,
				"element": "C" 
			},
			{
				"x": -1.420572145,
				"y": 2.0754657329,
				"z": -2.1534562127,
				"element": "C" 
			},
			{
				"x": -2.5405567864,
				"y": 2.8801607541,
				"z": -1.9805687943,
				"element": "C" 
			},
			{
				"x": -3.0622814042,
				"y": 3.233675172,
				"z": -0.7843916673,
				"element": "N" 
			},
			{
				"x": -2.4698474971,
				"y": 2.7851615127,
				"z": 0.3198370715,
				"element": "C" 
			},
			{
				"x": 0.8670407789,
				"y": 0.4124457498,
				"z": -1.4897367091,
				"element": "H" 
			},
			{
				"x": 1.297003196,
				"y": 0.0555644952,
				"z": 0.9641742911,
				"element": "H" 
			},
			{
				"x": -0.5935711472,
				"y": 1.3928946426,
				"z": 2.3515506208,
				"element": "H" 
			},
			{
				"x": -1.0517279583,
				"y": 1.8282994377,
				"z": -3.1443021253,
				"element": "H" 
			},
			{
				"x": -3.059381625,
				"y": 3.2711240796,
				"z": -2.8535073616,
				"element": "H" 
			},
			{
				"x": -2.9132597378,
				"y": 3.0869202849,
				"z": 1.2684647854,
				"element": "H" 
			}
		],
		 "valence_orbital": [ 
			{
				"type": "occ",
				"energy": -0.34866,
				"method": "rhf"
			},
			{
				"type": "occ",
				"energy": -0.28433,
				"method": "rhf"
			},
			{
				"type": "occ",
				"energy": -0.24511,
				"method": "rhf"
			},
			{
				"type": "occ",
				"energy": -0.23986,
				"method": "rhf"
			},
			{
				"type": "occ",
				"energy": -0.21273,
				"method": "rhf"
			},
			{
				"type": "unocc",
				"energy": -0.01572,
				"method": "rhf"
			},
			{
				"type": "unocc",
				"energy": 0.01396,
				"method": "rhf"
			},
			{
				"type": "unocc",
				"energy": 0.06342,
				"method": "rhf"
			},
			{
				"type": "unocc",
				"energy": 0.07246,
				"method": "rhf"
			},
			{
				"type": "unocc",
				"energy": 0.11963,
				"method": "rhf"
			}
		],
		"cosmo_sigma_profile": { 
			"-0.025": 0.0,
			"-0.024": 0.0,
			"-0.023": 0.0,
			"-0.022": 0.0,
			"-0.021": 0.0,
			"-0.02": 0.0,
			"-0.019": 0.0,
			"-0.018": 0.0,
			"-0.017": 0.0,
			"-0.016": 1.14811305267,
			"-0.015": 1.59116822323,
			"-0.014": 1.33143633416,
			"-0.013": 1.33638088358,
			"-0.012": 1.2711913797,
			"-0.011": 1.28415569068,
			"-0.01": 1.37871118189,
			"-0.009": 2.01340831267,
			"-0.008": 3.8151534887,
			"-0.007": 4.67974044232,
			"-0.006": 6.98149809189,
			"-0.005": 8.70352609654,
			"-0.004": 10.0383722029,
			"-0.003": 9.14160588725,
			"-0.002": 6.44331475524,
			"-0.001": 7.11382602062,
			"0.0": 6.84098088344,
			"0.001": 7.48542622131,
			"0.002": 8.69855701013,
			"0.003": 14.5578081067,
			"0.004": 17.2415638134,
			"0.005": 9.29136098318,
			"0.006": 5.34535391369,
			"0.007": 2.13113310116,
			"0.008": 1.35490763185,
			"0.009": 1.47127918727,
			"0.01": 1.08143922022,
			"0.011": 1.30219200945,
			"0.012": 1.22905152757,
			"0.013": 1.15422159338,
			"0.014": 0.973650693884,
			"0.015": 0.49575191641,
			"0.016": 1.28807782924,
			"0.017": 0.84890158366,
			"0.018": 0.504210472983,
			"0.019": 0.0,
			"0.02": 0.0,
			"0.021": 0.0,
			"0.022": 0.0,
			"0.023": 0.0,
			"0.024": 0.0,
			"0.025": 0.0
		}
	}
}
