{
	 "smiles": "NC1=C(Cl)C=CC(=C1)C(O)=O", 
	 "Tm": 488.15, 
	 "num_atms": 17, 
	 "gaussian": { 
		 "optdone": 1, 
		 "sigma_profile": "yes", 
		 "theory": "DFT", 
		 "functional": "B3LYP", 
		 "basiset": "6-31G**", 
		 "properties": { 
			 "R2extent": 2581.8905, 
			 "electric_dipole_moment_norm": 3.76609544489, 
			 "electric_quadrupole_moment_norm": 22.7039515882, 
			 "total_energy": -935.765925096, 
			 "HOMO_LUMO_gap": 0.1742, 
			 "cosmo_polarized_energy": -16.26, 
			 "cosmo_cavitation_energy": 23.32, 
			 "cosmo_dispersion_energy": -17.67, 
			 "cosmo_repulsion_energy": 1.42, 
			 "cosmo_total_nonelectrostatic_energy": 7.07, 
			 "SMD_solvation_energy": 4.86 
		},
		"coords": [
			{
				"x": -1.0129689888,
				"y": -2.3139310525,
				"z": 2.1566909289,
				"element": "N" 
			},
			{
				"x": -0.6681938961,
				"y": -1.4561398541,
				"z": 1.1338931546,
				"element": "C" 
			},
			{
				"x": 0.5418229788,
				"y": -0.7280393344,
				"z": 1.145644574,
				"element": "C" 
			},
			{
				"x": 1.6761384749,
				"y": -0.980622616,
				"z": 2.4669009661,
				"element": "Cl" 
			},
			{
				"x": 0.8600159146,
				"y": 0.1848928453,
				"z": 0.1455863649,
				"element": "C" 
			},
			{
				"x": -0.0155479052,
				"y": 0.3889268918,
				"z": -0.9181330946,
				"element": "C" 
			},
			{
				"x": -1.2173469539,
				"y": -0.3333655234,
				"z": -0.9674748277,
				"element": "C" 
			},
			{
				"x": -1.5359460477,
				"y": -1.2290236266,
				"z": 0.0527227606,
				"element": "C" 
			},
			{
				"x": -2.21915874,
				"y": -0.1772807841,
				"z": -2.0736164753,
				"element": "C" 
			},
			{
				"x": -1.7617578069,
				"y": 0.3557383558,
				"z": -3.2377397947,
				"element": "O" 
			},
			{
				"x": -3.379018557,
				"y": -0.5023457884,
				"z": -1.9727429401,
				"element": "O" 
			},
			{
				"x": -0.2661438926,
				"y": -2.6506779015,
				"z": 2.7458915371,
				"element": "H" 
			},
			{
				"x": -1.7313374244,
				"y": -2.9924479063,
				"z": 1.9550279283,
				"element": "H" 
			},
			{
				"x": 1.7919632399,
				"y": 0.735565417,
				"z": 0.2097948142,
				"element": "H" 
			},
			{
				"x": 0.2288439719,
				"y": 1.1409123477,
				"z": -1.6626809018,
				"element": "H" 
			},
			{
				"x": -2.4848469992,
				"y": -1.7535356895,
				"z": -0.000869006,
				"element": "H" 
			},
			{
				"x": -0.7962173683,
				"y": 0.4108742193,
				"z": -3.2204959884,
				"element": "H" 
			}
		],
		 "valence_orbital": [ 
			{
				"type": "occ",
				"energy": -0.33052,
				"method": "rhf"
			},
			{
				"type": "occ",
				"energy": -0.31525,
				"method": "rhf"
			},
			{
				"type": "occ",
				"energy": -0.27642,
				"method": "rhf"
			},
			{
				"type": "occ",
				"energy": -0.26176,
				"method": "rhf"
			},
			{
				"type": "occ",
				"energy": -0.22615,
				"method": "rhf"
			},
			{
				"type": "unocc",
				"energy": -0.05195,
				"method": "rhf"
			},
			{
				"type": "unocc",
				"energy": -0.0163,
				"method": "rhf"
			},
			{
				"type": "unocc",
				"energy": 0.01668,
				"method": "rhf"
			},
			{
				"type": "unocc",
				"energy": 0.04954,
				"method": "rhf"
			},
			{
				"type": "unocc",
				"energy": 0.06787,
				"method": "rhf"
			}
		],
		"cosmo_sigma_profile": { 
			"-0.025": 0.0,
			"-0.024": 0.0,
			"-0.023": 0.0,
			"-0.022": 0.0,
			"-0.021": 0.0,
			"-0.02": 0.0,
			"-0.019": 0.216903606859,
			"-0.018": 0.519229442009,
			"-0.017": 1.11904859306,
			"-0.016": 1.0186993979,
			"-0.015": 0.900077892507,
			"-0.014": 0.9461542142,
			"-0.013": 2.86500053633,
			"-0.012": 3.37976490691,
			"-0.011": 3.95580451213,
			"-0.01": 3.61000750911,
			"-0.009": 4.07474769086,
			"-0.008": 4.64480125987,
			"-0.007": 5.64862243091,
			"-0.006": 6.56257629069,
			"-0.005": 6.37930554021,
			"-0.004": 6.95954733829,
			"-0.003": 6.80595370142,
			"-0.002": 8.03589397596,
			"-0.001": 9.7101891219,
			"0.0": 11.6306647211,
			"0.001": 12.5296613649,
			"0.002": 19.1247938088,
			"0.003": 19.17565911,
			"0.004": 12.9393444083,
			"0.005": 4.36360156545,
			"0.006": 3.07275923414,
			"0.007": 2.72442099013,
			"0.008": 4.01022769367,
			"0.009": 3.82119590476,
			"0.01": 5.39685368247,
			"0.011": 5.95657035918,
			"0.012": 5.08689055231,
			"0.013": 1.51396210434,
			"0.014": 0.0292497544216,
			"0.015": 0.0,
			"0.016": 0.0,
			"0.017": 0.0,
			"0.018": 0.0,
			"0.019": 0.0,
			"0.02": 0.0,
			"0.021": 0.0,
			"0.022": 0.0,
			"0.023": 0.0,
			"0.024": 0.0,
			"0.025": 0.0
		}
	}
}
