{
	 "smiles": "OC(=O)C=CC1=CC(=CC=C1SC1=CC=C(Cl)C=C1)[N+]([O-])=O", 
	 "Tm": 487.15, 
	 "num_atms": 32, 
	 "gaussian": { 
		 "optdone": 1, 
		 "sigma_profile": "yes", 
		 "theory": "DFT", 
		 "functional": "B3LYP", 
		 "basiset": "6-31G**", 
		 "properties": { 
			 "R2extent": 11817.9369, 
			 "electric_dipole_moment_norm": 5.24751879368, 
			 "electric_quadrupole_moment_norm": 23.8933325183, 
			 "total_energy": -1791.54149692, 
			 "HOMO_LUMO_gap": 0.15288, 
			 "cosmo_polarized_energy": -17.05, 
			 "cosmo_cavitation_energy": 42.26, 
			 "cosmo_dispersion_energy": -29.86, 
			 "cosmo_repulsion_energy": 2.26, 
			 "cosmo_total_nonelectrostatic_energy": 14.66, 
			 "SMD_solvation_energy": 9.9 
		},
		"coords": [
			{
				"x": -1.8510095305,
				"y": 3.3483621862,
				"z": 3.5201251129,
				"element": "O" 
			},
			{
				"x": -1.7921582422,
				"y": 2.2548535472,
				"z": 2.716507064,
				"element": "C" 
			},
			{
				"x": -2.7911389136,
				"y": 1.652626652,
				"z": 2.3739052241,
				"element": "O" 
			},
			{
				"x": -0.3883252433,
				"y": 1.9698942764,
				"z": 2.3467825313,
				"element": "C" 
			},
			{
				"x": 0.0561103518,
				"y": 1.0190819486,
				"z": 1.5016261961,
				"element": "C" 
			},
			{
				"x": -0.6594235595,
				"y": -0.0639205234,
				"z": 0.8048712763,
				"element": "C" 
			},
			{
				"x": -1.618574923,
				"y": -0.8475575458,
				"z": 1.4615381503,
				"element": "C" 
			},
			{
				"x": -2.1980745237,
				"y": -1.9258728552,
				"z": 0.8080981673,
				"element": "C" 
			},
			{
				"x": -1.8686997542,
				"y": -2.2558879528,
				"z": -0.5067785243,
				"element": "C" 
			},
			{
				"x": -0.926198285,
				"y": -1.4851912712,
				"z": -1.1716771788,
				"element": "C" 
			},
			{
				"x": -0.3073999537,
				"y": -0.4022386659,
				"z": -0.5281513411,
				"element": "C" 
			},
			{
				"x": 0.871800321,
				"y": 0.6490929865,
				"z": -1.3660087845,
				"element": "S" 
			},
			{
				"x": 1.4505844476,
				"y": -0.3617647169,
				"z": -2.7282754407,
				"element": "C" 
			},
			{
				"x": 1.086950154,
				"y": -0.0209308877,
				"z": -4.0365802583,
				"element": "C" 
			},
			{
				"x": 1.5896891615,
				"y": -0.743521854,
				"z": -5.1194872635,
				"element": "C" 
			},
			{
				"x": 2.4511528985,
				"y": -1.8137437538,
				"z": -4.881630833,
				"element": "C" 
			},
			{
				"x": 3.0816969708,
				"y": -2.7302788476,
				"z": -6.236405636,
				"element": "Cl" 
			},
			{
				"x": 2.8237738479,
				"y": -2.167839176,
				"z": -3.5829212214,
				"element": "C" 
			},
			{
				"x": 2.3282097202,
				"y": -1.4327657297,
				"z": -2.5085017967,
				"element": "C" 
			},
			{
				"x": -3.1790910427,
				"y": -2.7504715683,
				"z": 1.5247335653,
				"element": "N" 
			},
			{
				"x": -3.7080282575,
				"y": -3.6727749597,
				"z": 0.9022686005,
				"element": "O" 
			},
			{
				"x": -3.4096190013,
				"y": -2.4762686156,
				"z": 2.7015406087,
				"element": "O" 
			},
			{
				"x": -2.7930614346,
				"y": 3.4844684873,
				"z": 3.7160128024,
				"element": "H" 
			},
			{
				"x": 0.3366856434,
				"y": 2.655977043,
				"z": 2.7728689251,
				"element": "H" 
			},
			{
				"x": 1.1244740282,
				"y": 1.0477491928,
				"z": 1.2872521089,
				"element": "H" 
			},
			{
				"x": -1.9073837695,
				"y": -0.6288538214,
				"z": 2.47880852,
				"element": "H" 
			},
			{
				"x": -2.3533485745,
				"y": -3.0979275959,
				"z": -0.9847139374,
				"element": "H" 
			},
			{
				"x": -0.6680998189,
				"y": -1.7234398346,
				"z": -2.1965296436,
				"element": "H" 
			},
			{
				"x": 0.4103704871,
				"y": 0.8096491893,
				"z": -4.2091094953,
				"element": "H" 
			},
			{
				"x": 1.3119589711,
				"y": -0.4827896718,
				"z": -6.1345778338,
				"element": "H" 
			},
			{
				"x": 3.4998910513,
				"y": -2.9994993447,
				"z": -3.4190283249,
				"element": "H" 
			},
			{
				"x": 2.6235867734,
				"y": -1.6914163173,
				"z": -1.4969613399,
				"element": "H" 
			}
		],
		 "valence_orbital": [ 
			{
				"type": "occ",
				"energy": -0.28596,
				"method": "rhf"
			},
			{
				"type": "occ",
				"energy": -0.28409,
				"method": "rhf"
			},
			{
				"type": "occ",
				"energy": -0.27185,
				"method": "rhf"
			},
			{
				"type": "occ",
				"energy": -0.26129,
				"method": "rhf"
			},
			{
				"type": "occ",
				"energy": -0.24013,
				"method": "rhf"
			},
			{
				"type": "unocc",
				"energy": -0.08725,
				"method": "rhf"
			},
			{
				"type": "unocc",
				"energy": -0.0767,
				"method": "rhf"
			},
			{
				"type": "unocc",
				"energy": -0.04954,
				"method": "rhf"
			},
			{
				"type": "unocc",
				"energy": -0.03822,
				"method": "rhf"
			},
			{
				"type": "unocc",
				"energy": -0.0163,
				"method": "rhf"
			}
		],
		"cosmo_sigma_profile": { 
			"-0.025": 0.0,
			"-0.024": 0.0,
			"-0.023": 0.0,
			"-0.022": 0.0,
			"-0.021": 0.0,
			"-0.02": 0.0,
			"-0.019": 0.0,
			"-0.018": 0.537762457495,
			"-0.017": 1.02243497759,
			"-0.016": 0.951603752865,
			"-0.015": 0.699460197043,
			"-0.014": 0.703834849516,
			"-0.013": 1.00727753089,
			"-0.012": 0.387931995418,
			"-0.011": 0.554947969421,
			"-0.01": 1.23375872246,
			"-0.009": 0.435438805434,
			"-0.008": 6.48755336037,
			"-0.007": 15.5473302665,
			"-0.006": 16.8541077939,
			"-0.005": 15.23414553,
			"-0.004": 16.8216541596,
			"-0.003": 19.3970844621,
			"-0.002": 26.1963233252,
			"-0.001": 31.3839539347,
			"0.0": 35.2820883832,
			"0.001": 35.4513228043,
			"0.002": 27.9618594371,
			"0.003": 15.3776236102,
			"0.004": 17.3895903293,
			"0.005": 10.6065378188,
			"0.006": 6.81983765682,
			"0.007": 9.68988385442,
			"0.008": 11.2862367641,
			"0.009": 8.24014314354,
			"0.01": 5.31095178501,
			"0.011": 3.17183287655,
			"0.012": 1.96965501252,
			"0.013": 0.0995467468647,
			"0.014": 0.0,
			"0.015": 0.0,
			"0.016": 0.0,
			"0.017": 0.0,
			"0.018": 0.0,
			"0.019": 0.0,
			"0.02": 0.0,
			"0.021": 0.0,
			"0.022": 0.0,
			"0.023": 0.0,
			"0.024": 0.0,
			"0.025": 0.0
		}
	}
}
