{
	 "smiles": "CC(C)S(=O)(=O)C1=CSC(C(Cl)=O)=C1Cl", 
	 "Tm": 443.15, 
	 "num_atms": 23, 
	 "gaussian": { 
		 "optdone": 1, 
		 "sigma_profile": "yes", 
		 "theory": "DFT", 
		 "functional": "B3LYP", 
		 "basiset": "6-31G**", 
		 "properties": { 
			 "R2extent": 6403.1107, 
			 "electric_dipole_moment_norm": 4.08975238003, 
			 "electric_quadrupole_moment_norm": 18.9490355649, 
			 "total_energy": -2252.02549871, 
			 "HOMO_LUMO_gap": 0.17986, 
			 "cosmo_polarized_energy": -14.75, 
			 "cosmo_cavitation_energy": 33.37, 
			 "cosmo_dispersion_energy": -24.45, 
			 "cosmo_repulsion_energy": 1.83, 
			 "cosmo_total_nonelectrostatic_energy": 10.75, 
			 "SMD_solvation_energy": 5.47 
		},
		"coords": [
			{
				"x": -1.3721549807,
				"y": 1.8452701526,
				"z": 1.4131277736,
				"element": "C" 
			},
			{
				"x": -0.2201470516,
				"y": 1.2754934703,
				"z": 2.2395389335,
				"element": "C" 
			},
			{
				"x": -0.567462092,
				"y": 1.088923157,
				"z": 3.7206472827,
				"element": "C" 
			},
			{
				"x": 0.2993030741,
				"y": -0.3640817084,
				"z": 1.5885573957,
				"element": "S" 
			},
			{
				"x": -0.9039391203,
				"y": -1.1933386084,
				"z": 1.3976937301,
				"element": "O" 
			},
			{
				"x": 1.4260799183,
				"y": -0.8510789067,
				"z": 2.3947883307,
				"element": "O" 
			},
			{
				"x": 0.9081843122,
				"y": -0.0337725128,
				"z": -0.0823095574,
				"element": "C" 
			},
			{
				"x": 0.2501407358,
				"y": -0.5827735167,
				"z": -1.1541727381,
				"element": "C" 
			},
			{
				"x": 1.02656447,
				"y": -0.2583818024,
				"z": -2.6460736172,
				"element": "S" 
			},
			{
				"x": 2.2872903596,
				"y": 0.6548474167,
				"z": -1.8472771677,
				"element": "C" 
			},
			{
				"x": 3.3843986028,
				"y": 1.2905465442,
				"z": -2.5737806467,
				"element": "C" 
			},
			{
				"x": 3.2972597926,
				"y": 1.0202961038,
				"z": -4.3844424373,
				"element": "Cl" 
			},
			{
				"x": 4.2768210841,
				"y": 1.9345588049,
				"z": -2.1135776589,
				"element": "O" 
			},
			{
				"x": 2.0834062428,
				"y": 0.6761684573,
				"z": -0.4730207694,
				"element": "C" 
			},
			{
				"x": 3.117393644,
				"y": 1.4743474636,
				"z": 0.6524222599,
				"element": "Cl" 
			},
			{
				"x": -2.2459382323,
				"y": 1.1908661199,
				"z": 1.4667210001,
				"element": "H" 
			},
			{
				"x": -1.1008138868,
				"y": 1.9785973828,
				"z": 0.3620946156,
				"element": "H" 
			},
			{
				"x": -1.6475707766,
				"y": 2.8259725345,
				"z": 1.81314016,
				"element": "H" 
			},
			{
				"x": 0.6786495062,
				"y": 1.8931245984,
				"z": 2.1410477695,
				"element": "H" 
			},
			{
				"x": -1.4320891764,
				"y": 0.4291556731,
				"z": 3.8363775022,
				"element": "H" 
			},
			{
				"x": -0.8180673189,
				"y": 2.0634410142,
				"z": 4.1502080723,
				"element": "H" 
			},
			{
				"x": 0.2729227163,
				"y": 0.6678530826,
				"z": 4.276039562,
				"element": "H" 
			},
			{
				"x": -0.653031823,
				"y": -1.1758349204,
				"z": -1.1008497953,
				"element": "H" 
			}
		],
		 "valence_orbital": [ 
			{
				"type": "occ",
				"energy": -0.31216,
				"method": "rhf"
			},
			{
				"type": "occ",
				"energy": -0.30539,
				"method": "rhf"
			},
			{
				"type": "occ",
				"energy": -0.30078,
				"method": "rhf"
			},
			{
				"type": "occ",
				"energy": -0.29447,
				"method": "rhf"
			},
			{
				"type": "occ",
				"energy": -0.28424,
				"method": "rhf"
			},
			{
				"type": "unocc",
				"energy": -0.10438,
				"method": "rhf"
			},
			{
				"type": "unocc",
				"energy": -0.03865,
				"method": "rhf"
			},
			{
				"type": "unocc",
				"energy": -0.03389,
				"method": "rhf"
			},
			{
				"type": "unocc",
				"energy": 0.00616,
				"method": "rhf"
			},
			{
				"type": "unocc",
				"energy": 0.01224,
				"method": "rhf"
			}
		],
		"cosmo_sigma_profile": { 
			"-0.025": 0.0,
			"-0.024": 0.0,
			"-0.023": 0.0,
			"-0.022": 0.0,
			"-0.021": 0.0,
			"-0.02": 0.0,
			"-0.019": 0.0,
			"-0.018": 0.0,
			"-0.017": 0.0,
			"-0.016": 0.0,
			"-0.015": 0.0,
			"-0.014": 0.0,
			"-0.013": 0.0204197222807,
			"-0.012": 1.24619310765,
			"-0.011": 1.55185564199,
			"-0.01": 1.32441278811,
			"-0.009": 1.64893501465,
			"-0.008": 2.25209521007,
			"-0.007": 2.36859255787,
			"-0.006": 9.48879191717,
			"-0.005": 18.9448485037,
			"-0.004": 24.9027122954,
			"-0.003": 31.1490568946,
			"-0.002": 28.3499571814,
			"-0.001": 27.8395144767,
			"0.0": 21.192490432,
			"0.001": 14.3897085269,
			"0.002": 13.7938903615,
			"0.003": 12.4278071038,
			"0.004": 11.4842422462,
			"0.005": 5.21882970425,
			"0.006": 5.91831282964,
			"0.007": 6.81238496451,
			"0.008": 9.08195766122,
			"0.009": 4.10889444719,
			"0.01": 7.13514973021,
			"0.011": 7.67409087066,
			"0.012": 2.39760112226,
			"0.013": 0.0,
			"0.014": 0.0,
			"0.015": 0.0,
			"0.016": 0.0,
			"0.017": 0.0,
			"0.018": 0.0,
			"0.019": 0.0,
			"0.02": 0.0,
			"0.021": 0.0,
			"0.022": 0.0,
			"0.023": 0.0,
			"0.024": 0.0,
			"0.025": 0.0
		}
	}
}
