{
	 "smiles": "CC(O)[C@]1(C)CCC2=C1CCC1C2CCC2(C)C[C@H](O)CCC12C", 
	 "Tm": 479.15, 
	 "num_atms": 60, 
	 "gaussian": { 
		 "optdone": 1, 
		 "sigma_profile": "yes", 
		 "theory": "DFT", 
		 "functional": "B3LYP", 
		 "basiset": "6-31G**", 
		 "properties": { 
			 "R2extent": 9483.0095, 
			 "electric_dipole_moment_norm": 1.71604934078, 
			 "electric_quadrupole_moment_norm": 13.9480685437, 
			 "total_energy": -1010.47950462, 
			 "HOMO_LUMO_gap": 0.24926, 
			 "cosmo_polarized_energy": -11.02, 
			 "cosmo_cavitation_energy": 49.84, 
			 "cosmo_dispersion_energy": -34.42, 
			 "cosmo_repulsion_energy": 2.54, 
			 "cosmo_total_nonelectrostatic_energy": 17.96, 
			 "SMD_solvation_energy": 6.85 
		},
		"coords": [
			{
				"x": -4.4797693413,
				"y": -0.7467369171,
				"z": 1.0526337086,
				"element": "C" 
			},
			{
				"x": -4.1198433448,
				"y": 0.4662652141,
				"z": 1.9127782975,
				"element": "C" 
			},
			{
				"x": -3.4946579474,
				"y": 0.0389684749,
				"z": 3.1286185326,
				"element": "O" 
			},
			{
				"x": -3.1657510279,
				"y": 1.4973627436,
				"z": 1.2411336736,
				"element": "C" 
			},
			{
				"x": -2.9278422339,
				"y": 2.6537666693,
				"z": 2.2330541163,
				"element": "C" 
			},
			{
				"x": -3.778613025,
				"y": 2.0321194538,
				"z": -0.0947648456,
				"element": "C" 
			},
			{
				"x": -3.0343641424,
				"y": 1.3198294489,
				"z": -1.250361563,
				"element": "C" 
			},
			{
				"x": -1.8029850666,
				"y": 0.757904235,
				"z": -0.577020468,
				"element": "C" 
			},
			{
				"x": -1.8620888205,
				"y": 0.8577076921,
				"z": 0.7601597371,
				"element": "C" 
			},
			{
				"x": -0.763790137,
				"y": 0.3661113331,
				"z": 1.6645285334,
				"element": "C" 
			},
			{
				"x": 0.5270953253,
				"y": 0.0536847178,
				"z": 0.8817937917,
				"element": "C" 
			},
			{
				"x": 0.1994767747,
				"y": -0.750027874,
				"z": -0.3999491971,
				"element": "C" 
			},
			{
				"x": -0.6522154058,
				"y": 0.1440355089,
				"z": -1.3346487198,
				"element": "C" 
			},
			{
				"x": 0.2050276223,
				"y": 1.2396035305,
				"z": -2.0443637926,
				"element": "C" 
			},
			{
				"x": 1.6990659377,
				"y": 0.8760862895,
				"z": -2.1257949597,
				"element": "C" 
			},
			{
				"x": 1.9528305422,
				"y": -0.6270442943,
				"z": -2.388236524,
				"element": "C" 
			},
			{
				"x": 1.3338436404,
				"y": -0.9711693379,
				"z": -3.7660840961,
				"element": "C" 
			},
			{
				"x": 3.4717619206,
				"y": -0.8890013985,
				"z": -2.5336430595,
				"element": "C" 
			},
			{
				"x": 4.3349715037,
				"y": -0.5546488061,
				"z": -1.3107893002,
				"element": "C" 
			},
			{
				"x": 5.5253004376,
				"y": -1.3353519672,
				"z": -1.4701720495,
				"element": "O" 
			},
			{
				"x": 3.5995043181,
				"y": -0.8830617395,
				"z": 0.0069903959,
				"element": "C" 
			},
			{
				"x": 2.5087679882,
				"y": -1.9333988897,
				"z": -0.2167490859,
				"element": "C" 
			},
			{
				"x": 1.3601939151,
				"y": -1.4988551275,
				"z": -1.1799586142,
				"element": "C" 
			},
			{
				"x": 0.7465713035,
				"y": -2.8234384386,
				"z": -1.6967938835,
				"element": "C" 
			},
			{
				"x": -5.0114742547,
				"y": -0.4579526973,
				"z": 0.1414268245,
				"element": "H" 
			},
			{
				"x": -3.5819799944,
				"y": -1.3029651226,
				"z": 0.7704424779,
				"element": "H" 
			},
			{
				"x": -5.1409978566,
				"y": -1.4208010555,
				"z": 1.6114215611,
				"element": "H" 
			},
			{
				"x": -5.0499880425,
				"y": 1.0117684256,
				"z": 2.1528073263,
				"element": "H" 
			},
			{
				"x": -4.0749499632,
				"y": -0.6093350326,
				"z": 3.5471491991,
				"element": "H" 
			},
			{
				"x": -3.8691519006,
				"y": 3.1745325941,
				"z": 2.446923078,
				"element": "H" 
			},
			{
				"x": -2.5260141607,
				"y": 2.2922330995,
				"z": 3.1816792859,
				"element": "H" 
			},
			{
				"x": -2.2295853664,
				"y": 3.3832310244,
				"z": 1.809097038,
				"element": "H" 
			},
			{
				"x": -3.5954569042,
				"y": 3.1098766325,
				"z": -0.1554303884,
				"element": "H" 
			},
			{
				"x": -4.8650107122,
				"y": 1.8994452012,
				"z": -0.1396053008,
				"element": "H" 
			},
			{
				"x": -3.6318918682,
				"y": 0.5143124029,
				"z": -1.7030643225,
				"element": "H" 
			},
			{
				"x": -2.7911991684,
				"y": 2.0092906506,
				"z": -2.0693838343,
				"element": "H" 
			},
			{
				"x": -1.1104451769,
				"y": -0.5240330644,
				"z": 2.2066593034,
				"element": "H" 
			},
			{
				"x": -0.5524077129,
				"y": 1.1079345795,
				"z": 2.4452833691,
				"element": "H" 
			},
			{
				"x": 1.2053774645,
				"y": -0.4984072211,
				"z": 1.5376965045,
				"element": "H" 
			},
			{
				"x": 1.0267718312,
				"y": 0.9972387428,
				"z": 0.6331868263,
				"element": "H" 
			},
			{
				"x": -0.4662484672,
				"y": -1.554175194,
				"z": -0.0543415437,
				"element": "H" 
			},
			{
				"x": -1.0783526507,
				"y": -0.5021157864,
				"z": -2.1147960343,
				"element": "H" 
			},
			{
				"x": -0.1957179884,
				"y": 1.4130038915,
				"z": -3.0491463011,
				"element": "H" 
			},
			{
				"x": 0.0993993458,
				"y": 2.1902188778,
				"z": -1.5101538561,
				"element": "H" 
			},
			{
				"x": 2.1769485688,
				"y": 1.4646573361,
				"z": -2.9200225508,
				"element": "H" 
			},
			{
				"x": 2.193184423,
				"y": 1.1752553782,
				"z": -1.1965578945,
				"element": "H" 
			},
			{
				"x": 1.5901560593,
				"y": -1.9839225382,
				"z": -4.088110763,
				"element": "H" 
			},
			{
				"x": 1.72943126,
				"y": -0.2827544854,
				"z": -4.5217462422,
				"element": "H" 
			},
			{
				"x": 0.2452649159,
				"y": -0.8834948378,
				"z": -3.7850883974,
				"element": "H" 
			},
			{
				"x": 3.8556313325,
				"y": -0.3475100918,
				"z": -3.4061467229,
				"element": "H" 
			},
			{
				"x": 3.6315266789,
				"y": -1.9532553986,
				"z": -2.7454583706,
				"element": "H" 
			},
			{
				"x": 4.5985727999,
				"y": 0.5144742414,
				"z": -1.3195503809,
				"element": "H" 
			},
			{
				"x": 6.1375635152,
				"y": -1.0829167516,
				"z": -0.7668462167,
				"element": "H" 
			},
			{
				"x": 4.3321060488,
				"y": -1.2517726924,
				"z": 0.736594221,
				"element": "H" 
			},
			{
				"x": 3.1756193896,
				"y": 0.0302204584,
				"z": 0.4345311184,
				"element": "H" 
			},
			{
				"x": 2.0766431751,
				"y": -2.256503182,
				"z": 0.7372255549,
				"element": "H" 
			},
			{
				"x": 2.9933655526,
				"y": -2.8250459598,
				"z": -0.6332615185,
				"element": "H" 
			},
			{
				"x": -0.1662667509,
				"y": -2.6683827582,
				"z": -2.2792439994,
				"element": "H" 
			},
			{
				"x": 1.45224327,
				"y": -3.3816833498,
				"z": -2.3202149107,
				"element": "H" 
			},
			{
				"x": 0.4877425716,
				"y": -3.4643768383,
				"z": -0.8463147673,
				"element": "H" 
			}
		],
		 "valence_orbital": [ 
			{
				"type": "occ",
				"energy": -0.27238,
				"method": "rhf"
			},
			{
				"type": "occ",
				"energy": -0.26944,
				"method": "rhf"
			},
			{
				"type": "occ",
				"energy": -0.26,
				"method": "rhf"
			},
			{
				"type": "occ",
				"energy": -0.25323,
				"method": "rhf"
			},
			{
				"type": "occ",
				"energy": -0.21143,
				"method": "rhf"
			},
			{
				"type": "unocc",
				"energy": 0.03783,
				"method": "rhf"
			},
			{
				"type": "unocc",
				"energy": 0.06736,
				"method": "rhf"
			},
			{
				"type": "unocc",
				"energy": 0.07501,
				"method": "rhf"
			},
			{
				"type": "unocc",
				"energy": 0.08158,
				"method": "rhf"
			},
			{
				"type": "unocc",
				"energy": 0.09308,
				"method": "rhf"
			}
		],
		"cosmo_sigma_profile": { 
			"-0.025": 0.0,
			"-0.024": 0.0,
			"-0.023": 0.0,
			"-0.022": 0.0,
			"-0.021": 0.0,
			"-0.02": 0.0,
			"-0.019": 0.0,
			"-0.018": 0.0,
			"-0.017": 0.0,
			"-0.016": 0.0,
			"-0.015": 0.623636494131,
			"-0.014": 1.7890506304,
			"-0.013": 2.46854878752,
			"-0.012": 1.60854096156,
			"-0.011": 1.52240739643,
			"-0.01": 2.0073387498,
			"-0.009": 1.58872505774,
			"-0.008": 2.40786179006,
			"-0.007": 1.7449875808,
			"-0.006": 2.28563484217,
			"-0.005": 1.86109923069,
			"-0.004": 5.73418492341,
			"-0.003": 19.6782006966,
			"-0.002": 60.0090514373,
			"-0.001": 68.2746988753,
			"0.0": 65.9704907933,
			"0.001": 57.8671170989,
			"0.002": 35.980055792,
			"0.003": 9.23578163657,
			"0.004": 4.49263949497,
			"0.005": 4.52777932367,
			"0.006": 4.90021380125,
			"0.007": 3.28080607101,
			"0.008": 4.05815236062,
			"0.009": 1.84906688568,
			"0.01": 3.0204391862,
			"0.011": 2.71897932874,
			"0.012": 2.75665822925,
			"0.013": 1.70457719903,
			"0.014": 1.72530304358,
			"0.015": 1.54897224227,
			"0.016": 0.0329977790213,
			"0.017": 0.0,
			"0.018": 0.0,
			"0.019": 0.0,
			"0.02": 0.0,
			"0.021": 0.0,
			"0.022": 0.0,
			"0.023": 0.0,
			"0.024": 0.0,
			"0.025": 0.0
		}
	}
}
