{
	 "smiles": "CC1=CC(NS(=O)(=O)C2=CC(=CC=C2)C#N)=NO1", 
	 "Tm": 433.15, 
	 "num_atms": 27, 
	 "gaussian": { 
		 "optdone": 1, 
		 "sigma_profile": "yes", 
		 "theory": "DFT", 
		 "functional": "B3LYP", 
		 "basiset": "6-31G**", 
		 "properties": { 
			 "R2extent": 5091.0452, 
			 "electric_dipole_moment_norm": 2.13372069634, 
			 "electric_quadrupole_moment_norm": 33.7513479166, 
			 "total_energy": -1212.56825156, 
			 "HOMO_LUMO_gap": 0.18568, 
			 "cosmo_polarized_energy": -20.39, 
			 "cosmo_cavitation_energy": 35.21, 
			 "cosmo_dispersion_energy": -24.2, 
			 "cosmo_repulsion_energy": 1.85, 
			 "cosmo_total_nonelectrostatic_energy": 12.86, 
			 "SMD_solvation_energy": 6.68 
		},
		"coords": [
			{
				"x": -0.6664089896,
				"y": -4.4174152644,
				"z": 1.4741810721,
				"element": "C" 
			},
			{
				"x": 0.281770815,
				"y": -3.4669849115,
				"z": 0.8306671889,
				"element": "C" 
			},
			{
				"x": 0.2638157654,
				"y": -2.7772491579,
				"z": -0.3456031018,
				"element": "C" 
			},
			{
				"x": 1.4953641762,
				"y": -2.0616952979,
				"z": -0.3205973058,
				"element": "C" 
			},
			{
				"x": 2.0456205917,
				"y": -1.2382393006,
				"z": -1.3134504395,
				"element": "N" 
			},
			{
				"x": 1.1488253607,
				"y": -0.0121707961,
				"z": -2.0706434899,
				"element": "S" 
			},
			{
				"x": 2.0986284664,
				"y": 0.6187080492,
				"z": -2.9819371409,
				"element": "O" 
			},
			{
				"x": -0.101656519,
				"y": -0.6235565299,
				"z": -2.5116446164,
				"element": "O" 
			},
			{
				"x": 0.7428824652,
				"y": 1.1830617056,
				"z": -0.7874806274,
				"element": "C" 
			},
			{
				"x": -0.4143576454,
				"y": 1.0027903815,
				"z": -0.0334157735,
				"element": "C" 
			},
			{
				"x": -0.7059504307,
				"y": 1.9246638619,
				"z": 0.9837911281,
				"element": "C" 
			},
			{
				"x": 0.1554153486,
				"y": 3.0095342511,
				"z": 1.2223886154,
				"element": "C" 
			},
			{
				"x": 1.2998223156,
				"y": 3.1745013102,
				"z": 0.4452066489,
				"element": "C" 
			},
			{
				"x": 1.6031169447,
				"y": 2.2614142094,
				"z": -0.5653534116,
				"element": "C" 
			},
			{
				"x": -1.8901422063,
				"y": 1.7585447669,
				"z": 1.7769067255,
				"element": "C" 
			},
			{
				"x": -2.8477861332,
				"y": 1.6230941703,
				"z": 2.4224050442,
				"element": "N" 
			},
			{
				"x": 2.193806822,
				"y": -2.2873738394,
				"z": 0.772672324,
				"element": "N" 
			},
			{
				"x": 1.4249163656,
				"y": -3.1989249921,
				"z": 1.501238702,
				"element": "O" 
			},
			{
				"x": -0.1829673624,
				"y": -5.3818712696,
				"z": 1.6600471767,
				"element": "H" 
			},
			{
				"x": -1.0139020721,
				"y": -4.02921909,
				"z": 2.4372912304,
				"element": "H" 
			},
			{
				"x": -1.5326014954,
				"y": -4.5780430878,
				"z": 0.8298776958,
				"element": "H" 
			},
			{
				"x": -0.481665992,
				"y": -2.7770476273,
				"z": -1.1234426618,
				"element": "H" 
			},
			{
				"x": 3.0021785569,
				"y": -0.9493287321,
				"z": -1.1258236404,
				"element": "H" 
			},
			{
				"x": -1.0835444785,
				"y": 0.1760578455,
				"z": -0.2388476526,
				"element": "H" 
			},
			{
				"x": -0.0834671196,
				"y": 3.7162826217,
				"z": 2.0097240978,
				"element": "H" 
			},
			{
				"x": 1.9560717583,
				"y": 4.019975698,
				"z": 0.623827718,
				"element": "H" 
			},
			{
				"x": 2.480814692,
				"y": 2.3865910254,
				"z": -1.1900855063,
				"element": "H" 
			}
		],
		 "valence_orbital": [ 
			{
				"type": "occ",
				"energy": -0.32061,
				"method": "rhf"
			},
			{
				"type": "occ",
				"energy": -0.30151,
				"method": "rhf"
			},
			{
				"type": "occ",
				"energy": -0.29099,
				"method": "rhf"
			},
			{
				"type": "occ",
				"energy": -0.27453,
				"method": "rhf"
			},
			{
				"type": "occ",
				"energy": -0.26371,
				"method": "rhf"
			},
			{
				"type": "unocc",
				"energy": -0.07803,
				"method": "rhf"
			},
			{
				"type": "unocc",
				"energy": -0.06317,
				"method": "rhf"
			},
			{
				"type": "unocc",
				"energy": -0.02138,
				"method": "rhf"
			},
			{
				"type": "unocc",
				"energy": 0.01649,
				"method": "rhf"
			},
			{
				"type": "unocc",
				"energy": 0.024,
				"method": "rhf"
			}
		],
		"cosmo_sigma_profile": { 
			"-0.025": 0.0,
			"-0.024": 0.0,
			"-0.023": 0.0,
			"-0.022": 0.0,
			"-0.021": 0.0,
			"-0.02": 0.0,
			"-0.019": 0.0,
			"-0.018": 0.0,
			"-0.017": 0.447612451916,
			"-0.016": 0.873797104816,
			"-0.015": 1.05393799281,
			"-0.014": 1.56966558367,
			"-0.013": 0.723602643995,
			"-0.012": 0.352884323418,
			"-0.011": 0.911704230792,
			"-0.01": 1.67034818097,
			"-0.009": 4.86650200543,
			"-0.008": 10.5693078941,
			"-0.007": 12.6889732795,
			"-0.006": 15.8210018094,
			"-0.005": 13.9376843483,
			"-0.004": 17.3454284544,
			"-0.003": 21.826022617,
			"-0.002": 24.1304653829,
			"-0.001": 25.3683692743,
			"0.0": 19.316331993,
			"0.001": 14.2716402437,
			"0.002": 8.72757979502,
			"0.003": 8.30652898657,
			"0.004": 7.7509219326,
			"0.005": 7.93329251644,
			"0.006": 8.85515891793,
			"0.007": 8.84540807225,
			"0.008": 11.8874441341,
			"0.009": 11.2524462083,
			"0.01": 12.0237354658,
			"0.011": 5.21807082064,
			"0.012": 3.5434617938,
			"0.013": 1.71132902749,
			"0.014": 0.433448787679,
			"0.015": 0.0,
			"0.016": 0.0,
			"0.017": 0.0,
			"0.018": 0.0,
			"0.019": 0.0,
			"0.02": 0.0,
			"0.021": 0.0,
			"0.022": 0.0,
			"0.023": 0.0,
			"0.024": 0.0,
			"0.025": 0.0
		}
	}
}
