{
	 "smiles": "CC(C)CN1N=C(C)C(CCC(O)=O)=C1C", 
	 "Tm": 358.15, 
	 "num_atms": 36, 
	 "gaussian": { 
		 "optdone": 1, 
		 "sigma_profile": "yes", 
		 "theory": "DFT", 
		 "functional": "B3LYP", 
		 "basiset": "6-31G**", 
		 "properties": { 
			 "R2extent": 5335.8978, 
			 "electric_dipole_moment_norm": 3.37964261128, 
			 "electric_quadrupole_moment_norm": 12.7862860957, 
			 "total_energy": -729.313977168, 
			 "HOMO_LUMO_gap": 0.22475, 
			 "cosmo_polarized_energy": -14.06, 
			 "cosmo_cavitation_energy": 37.78, 
			 "cosmo_dispersion_energy": -25.21, 
			 "cosmo_repulsion_energy": 2.01, 
			 "cosmo_total_nonelectrostatic_energy": 14.59, 
			 "SMD_solvation_energy": 6.38 
		},
		"coords": [
			{
				"x": -0.9658587406,
				"y": 3.0107163996,
				"z": -3.0299548607,
				"element": "C" 
			},
			{
				"x": -0.1864588126,
				"y": 1.8073847196,
				"z": -2.4827767098,
				"element": "C" 
			},
			{
				"x": -0.8307957028,
				"y": 0.4807673734,
				"z": -2.9036524763,
				"element": "C" 
			},
			{
				"x": -0.0560221847,
				"y": 1.925163421,
				"z": -0.9520745634,
				"element": "C" 
			},
			{
				"x": 0.8006261564,
				"y": 0.905869961,
				"z": -0.3644624741,
				"element": "N" 
			},
			{
				"x": 2.1264635806,
				"y": 0.9379653921,
				"z": -0.6487003601,
				"element": "N" 
			},
			{
				"x": 2.6504276116,
				"y": -0.1095454398,
				"z": -0.0125132175,
				"element": "C" 
			},
			{
				"x": 4.1248312854,
				"y": -0.3732589334,
				"z": -0.078222937,
				"element": "C" 
			},
			{
				"x": 1.6505690029,
				"y": -0.8348795026,
				"z": 0.6934048265,
				"element": "C" 
			},
			{
				"x": 1.8234559008,
				"y": -2.0730492907,
				"z": 1.5317235395,
				"element": "C" 
			},
			{
				"x": 1.2974512917,
				"y": -3.3642763608,
				"z": 0.8746293007,
				"element": "C" 
			},
			{
				"x": 2.1372690988,
				"y": -3.8222101572,
				"z": -0.2989097372,
				"element": "C" 
			},
			{
				"x": 1.4035764597,
				"y": -4.5092628039,
				"z": -1.2071251101,
				"element": "O" 
			},
			{
				"x": 3.3312020242,
				"y": -3.6535837146,
				"z": -0.4277145697,
				"element": "O" 
			},
			{
				"x": 0.468619356,
				"y": -0.1439583194,
				"z": 0.4443794885,
				"element": "C" 
			},
			{
				"x": -0.9229189617,
				"y": -0.3993637751,
				"z": 0.9359376987,
				"element": "C" 
			},
			{
				"x": -1.029661026,
				"y": 2.970241914,
				"z": -4.12202134,
				"element": "H" 
			},
			{
				"x": -0.4875289355,
				"y": 3.9582220314,
				"z": -2.7585553564,
				"element": "H" 
			},
			{
				"x": -1.9917437697,
				"y": 3.0298040384,
				"z": -2.640825666,
				"element": "H" 
			},
			{
				"x": 0.8348211889,
				"y": 1.8380665479,
				"z": -2.8817632169,
				"element": "H" 
			},
			{
				"x": -0.2698557037,
				"y": -0.3761089457,
				"z": -2.5186838311,
				"element": "H" 
			},
			{
				"x": -1.8622160978,
				"y": 0.4079871855,
				"z": -2.5349274219,
				"element": "H" 
			},
			{
				"x": -0.865084267,
				"y": 0.393832119,
				"z": -3.9946663861,
				"element": "H" 
			},
			{
				"x": -1.0412529274,
				"y": 1.8513919742,
				"z": -0.4806371471,
				"element": "H" 
			},
			{
				"x": 0.3642041144,
				"y": 2.9031562113,
				"z": -0.6937167517,
				"element": "H" 
			},
			{
				"x": 4.5994772532,
				"y": -0.2366465764,
				"z": 0.9014983972,
				"element": "H" 
			},
			{
				"x": 4.331239714,
				"y": -1.3976464803,
				"z": -0.4004538759,
				"element": "H" 
			},
			{
				"x": 4.5898170282,
				"y": 0.3251465684,
				"z": -0.7778589462,
				"element": "H" 
			},
			{
				"x": 2.8839187753,
				"y": -2.2131229038,
				"z": 1.7609798605,
				"element": "H" 
			},
			{
				"x": 1.3104736914,
				"y": -1.9560079244,
				"z": 2.4947335068,
				"element": "H" 
			},
			{
				"x": 1.3134769261,
				"y": -4.1883537722,
				"z": 1.6018917846,
				"element": "H" 
			},
			{
				"x": 0.2597769694,
				"y": -3.2582375516,
				"z": 0.5471516262,
				"element": "H" 
			},
			{
				"x": 2.0280010112,
				"y": -4.7948239597,
				"z": -1.8957672134,
				"element": "H" 
			},
			{
				"x": -1.602452465,
				"y": -0.707332848,
				"z": 0.1322877091,
				"element": "H" 
			},
			{
				"x": -1.3590524512,
				"y": 0.4859240252,
				"z": 1.4131127333,
				"element": "H" 
			},
			{
				"x": -0.9126963947,
				"y": -1.1978706224,
				"z": 1.6818536974,
				"element": "H" 
			}
		],
		 "valence_orbital": [ 
			{
				"type": "occ",
				"energy": -0.31682,
				"method": "rhf"
			},
			{
				"type": "occ",
				"energy": -0.27507,
				"method": "rhf"
			},
			{
				"type": "occ",
				"energy": -0.26523,
				"method": "rhf"
			},
			{
				"type": "occ",
				"energy": -0.22139,
				"method": "rhf"
			},
			{
				"type": "occ",
				"energy": -0.21593,
				"method": "rhf"
			},
			{
				"type": "unocc",
				"energy": 0.00882,
				"method": "rhf"
			},
			{
				"type": "unocc",
				"energy": 0.02896,
				"method": "rhf"
			},
			{
				"type": "unocc",
				"energy": 0.06917,
				"method": "rhf"
			},
			{
				"type": "unocc",
				"energy": 0.07635,
				"method": "rhf"
			},
			{
				"type": "unocc",
				"energy": 0.08426,
				"method": "rhf"
			}
		],
		"cosmo_sigma_profile": { 
			"-0.025": 0.0,
			"-0.024": 0.0,
			"-0.023": 0.0,
			"-0.022": 0.0,
			"-0.021": 0.0,
			"-0.02": 0.0,
			"-0.019": 0.0,
			"-0.018": 0.333676884293,
			"-0.017": 1.35110535688,
			"-0.016": 0.375029749289,
			"-0.015": 0.839479755924,
			"-0.014": 0.70672064383,
			"-0.013": 0.955486998151,
			"-0.012": 0.925037997725,
			"-0.011": 0.687393344773,
			"-0.01": 0.559564443412,
			"-0.009": 0.9030149558,
			"-0.008": 0.142616187496,
			"-0.007": 1.54975628603,
			"-0.006": 5.19130843618,
			"-0.005": 12.0596609868,
			"-0.004": 22.0775166155,
			"-0.003": 34.0502063455,
			"-0.002": 37.8047832181,
			"-0.001": 35.4267324735,
			"0.0": 30.9789542025,
			"0.001": 29.6716696189,
			"0.002": 14.5627908361,
			"0.003": 9.57667852209,
			"0.004": 7.90503345156,
			"0.005": 7.56204372644,
			"0.006": 7.35132715543,
			"0.007": 6.113652576,
			"0.008": 4.21495202854,
			"0.009": 4.81996973469,
			"0.01": 4.52262990971,
			"0.011": 3.44613284254,
			"0.012": 3.48964047457,
			"0.013": 1.18240215236,
			"0.014": 1.01780264257,
			"0.015": 0.680916775038,
			"0.016": 0.581537946119,
			"0.017": 0.493905736298,
			"0.018": 0.046076148304,
			"0.019": 0.0,
			"0.02": 0.0,
			"0.021": 0.0,
			"0.022": 0.0,
			"0.023": 0.0,
			"0.024": 0.0,
			"0.025": 0.0
		}
	}
}
