{
	 "smiles": "OC1=CC=C(O)C(=C1)C1=CC=CC=C1", 
	 "Tm": 375.15, 
	 "num_atms": 24, 
	 "gaussian": { 
		 "optdone": 1, 
		 "sigma_profile": "yes", 
		 "theory": "DFT", 
		 "functional": "B3LYP", 
		 "basiset": "6-31G**", 
		 "properties": { 
			 "R2extent": 3244.5833, 
			 "electric_dipole_moment_norm": 0.416679649131, 
			 "electric_quadrupole_moment_norm": 17.9511602898, 
			 "total_energy": -613.748184229, 
			 "HOMO_LUMO_gap": 0.16967, 
			 "cosmo_polarized_energy": -11.61, 
			 "cosmo_cavitation_energy": 27.88, 
			 "cosmo_dispersion_energy": -20.62, 
			 "cosmo_repulsion_energy": 1.61, 
			 "cosmo_total_nonelectrostatic_energy": 8.88, 
			 "SMD_solvation_energy": 5.03 
		},
		"coords": [
			{
				"x": 0.0345164219,
				"y": 0.9242875574,
				"z": -4.4196745606,
				"element": "O" 
			},
			{
				"x": -0.5066979287,
				"y": 0.2034262683,
				"z": -3.3855365261,
				"element": "C" 
			},
			{
				"x": -1.4360647156,
				"y": -0.8230655144,
				"z": -3.5773642332,
				"element": "C" 
			},
			{
				"x": -1.9437507961,
				"y": -1.515294603,
				"z": -2.4803838359,
				"element": "C" 
			},
			{
				"x": -1.5434546704,
				"y": -1.1889055992,
				"z": -1.1835047274,
				"element": "C" 
			},
			{
				"x": -2.0752488055,
				"y": -1.9340159493,
				"z": -0.1637458006,
				"element": "O" 
			},
			{
				"x": -0.6156676413,
				"y": -0.1449896319,
				"z": -0.9748005915,
				"element": "C" 
			},
			{
				"x": -0.1031549068,
				"y": 0.5310512634,
				"z": -2.0911796574,
				"element": "C" 
			},
			{
				"x": -0.1643951606,
				"y": 0.2272144171,
				"z": 0.3938349773,
				"element": "C" 
			},
			{
				"x": -1.0882473698,
				"y": 0.4637001807,
				"z": 1.429827853,
				"element": "C" 
			},
			{
				"x": -0.6548603231,
				"y": 0.8222162769,
				"z": 2.7078908717,
				"element": "C" 
			},
			{
				"x": 0.7076439221,
				"y": 0.9561858463,
				"z": 2.9760877515,
				"element": "C" 
			},
			{
				"x": 1.6353003758,
				"y": 0.7307821493,
				"z": 1.9560600652,
				"element": "C" 
			},
			{
				"x": 1.2047708993,
				"y": 0.3668012828,
				"z": 0.6813916359,
				"element": "C" 
			},
			{
				"x": -0.3358199756,
				"y": 0.6036952748,
				"z": -5.2516626053,
				"element": "H" 
			},
			{
				"x": -1.7618389066,
				"y": -1.0873618825,
				"z": -4.5812876879,
				"element": "H" 
			},
			{
				"x": -2.6520315432,
				"y": -2.3262971272,
				"z": -2.6135795827,
				"element": "H" 
			},
			{
				"x": -1.6235500351,
				"y": -1.700947597,
				"z": 0.6601102799,
				"element": "H" 
			},
			{
				"x": 0.6015801571,
				"y": 1.3447605234,
				"z": -1.9553031091,
				"element": "H" 
			},
			{
				"x": -2.1529366172,
				"y": 0.4009928319,
				"z": 1.2217102179,
				"element": "H" 
			},
			{
				"x": -1.3857098645,
				"y": 1.008589832,
				"z": 3.4897396693,
				"element": "H" 
			},
			{
				"x": 1.0447244919,
				"y": 1.2359895574,
				"z": 3.9698506455,
				"element": "H" 
			},
			{
				"x": 2.6984038389,
				"y": 0.8310798023,
				"z": 2.1560688621,
				"element": "H" 
			},
			{
				"x": 1.9307891529,
				"y": 0.1751048406,
				"z": -0.1031499117,
				"element": "H" 
			}
		],
		 "valence_orbital": [ 
			{
				"type": "occ",
				"energy": -0.30117,
				"method": "rhf"
			},
			{
				"type": "occ",
				"energy": -0.27103,
				"method": "rhf"
			},
			{
				"type": "occ",
				"energy": -0.2578,
				"method": "rhf"
			},
			{
				"type": "occ",
				"energy": -0.23536,
				"method": "rhf"
			},
			{
				"type": "occ",
				"energy": -0.19623,
				"method": "rhf"
			},
			{
				"type": "unocc",
				"energy": -0.02656,
				"method": "rhf"
			},
			{
				"type": "unocc",
				"energy": -0.01153,
				"method": "rhf"
			},
			{
				"type": "unocc",
				"energy": 0.01196,
				"method": "rhf"
			},
			{
				"type": "unocc",
				"energy": 0.03396,
				"method": "rhf"
			},
			{
				"type": "unocc",
				"energy": 0.07401,
				"method": "rhf"
			}
		],
		"cosmo_sigma_profile": { 
			"-0.025": 0.0,
			"-0.024": 0.0,
			"-0.023": 0.0,
			"-0.022": 0.0,
			"-0.021": 0.0,
			"-0.02": 0.0,
			"-0.019": 0.0,
			"-0.018": 0.119760416299,
			"-0.017": 1.10796866419,
			"-0.016": 0.832499893965,
			"-0.015": 1.20890625622,
			"-0.014": 1.19161749304,
			"-0.013": 1.09501297957,
			"-0.012": 1.91810615148,
			"-0.011": 0.968709992187,
			"-0.01": 1.84808353629,
			"-0.009": 2.84050444146,
			"-0.008": 2.00921890357,
			"-0.007": 2.45722648239,
			"-0.006": 11.2772581856,
			"-0.005": 16.4372075349,
			"-0.004": 17.2536460936,
			"-0.003": 15.2278024656,
			"-0.002": 12.1125755534,
			"-0.001": 12.6721052081,
			"0.0": 11.4223294829,
			"0.001": 11.8048224516,
			"0.002": 13.2524188795,
			"0.003": 16.8339818189,
			"0.004": 21.0662234476,
			"0.005": 21.7818601408,
			"0.006": 6.48390645902,
			"0.007": 2.76817968095,
			"0.008": 1.786073691,
			"0.009": 2.79646473236,
			"0.01": 4.1565920379,
			"0.011": 3.29788999203,
			"0.012": 2.81979521635,
			"0.013": 0.0223563681567,
			"0.014": 0.0,
			"0.015": 0.0,
			"0.016": 0.0,
			"0.017": 0.0,
			"0.018": 0.0,
			"0.019": 0.0,
			"0.02": 0.0,
			"0.021": 0.0,
			"0.022": 0.0,
			"0.023": 0.0,
			"0.024": 0.0,
			"0.025": 0.0
		}
	}
}
