{
	 "smiles": "CC1=CC=C2C=CC=C(Cl)C2=N1", 
	 "Tm": 340.15, 
	 "num_atms": 20, 
	 "gaussian": { 
		 "optdone": 1, 
		 "sigma_profile": "yes", 
		 "theory": "DFT", 
		 "functional": "B3LYP", 
		 "basiset": "6-31G**", 
		 "properties": { 
			 "R2extent": 3109.9428, 
			 "electric_dipole_moment_norm": 3.42405218418, 
			 "electric_quadrupole_moment_norm": 9.75937418229, 
			 "total_energy": -900.843994913, 
			 "HOMO_LUMO_gap": 0.17249, 
			 "cosmo_polarized_energy": -8.65, 
			 "cosmo_cavitation_energy": 25.54, 
			 "cosmo_dispersion_energy": -19.12, 
			 "cosmo_repulsion_energy": 1.51, 
			 "cosmo_total_nonelectrostatic_energy": 7.93, 
			 "SMD_solvation_energy": 2.84 
		},
		"coords": [
			{
				"x": 1.2238365721,
				"y": 2.6074822398,
				"z": -0.7241417924,
				"element": "C" 
			},
			{
				"x": 0.9546637223,
				"y": 1.2817691831,
				"z": -0.0578171053,
				"element": "C" 
			},
			{
				"x": 1.5487655137,
				"y": 0.090286543,
				"z": -0.5697116414,
				"element": "C" 
			},
			{
				"x": 1.2936150666,
				"y": -1.106365458,
				"z": 0.0479652954,
				"element": "C" 
			},
			{
				"x": 0.4443204028,
				"y": -1.1465164294,
				"z": 1.1856575862,
				"element": "C" 
			},
			{
				"x": 0.1355056893,
				"y": -2.3456118051,
				"z": 1.8751176026,
				"element": "C" 
			},
			{
				"x": -0.6951854892,
				"y": -2.3177337185,
				"z": 2.9721187093,
				"element": "C" 
			},
			{
				"x": -1.2478631743,
				"y": -1.0966887138,
				"z": 3.4220294045,
				"element": "C" 
			},
			{
				"x": -0.9602179795,
				"y": 0.0808483052,
				"z": 2.7657721613,
				"element": "C" 
			},
			{
				"x": -1.6590579295,
				"y": 1.5758665473,
				"z": 3.3460896866,
				"element": "Cl" 
			},
			{
				"x": -0.1038872541,
				"y": 0.1021811498,
				"z": 1.62322034,
				"element": "C" 
			},
			{
				"x": 0.1609375024,
				"y": 1.280002191,
				"z": 0.9971354126,
				"element": "N" 
			},
			{
				"x": 0.6890312017,
				"y": 3.3989829643,
				"z": -0.1979358545,
				"element": "H" 
			},
			{
				"x": 2.2955543079,
				"y": 2.8387217123,
				"z": -0.7215053581,
				"element": "H" 
			},
			{
				"x": 0.9003886212,
				"y": 2.5941765755,
				"z": -1.7716445651,
				"element": "H" 
			},
			{
				"x": 2.1950821886,
				"y": 0.1436514898,
				"z": -1.4408508041,
				"element": "H" 
			},
			{
				"x": 1.7318855306,
				"y": -2.0312216787,
				"z": -0.3189315701,
				"element": "H" 
			},
			{
				"x": 0.5633845097,
				"y": -3.2809985052,
				"z": 1.5245265252,
				"element": "H" 
			},
			{
				"x": -0.935109586,
				"y": -3.2332719824,
				"z": 3.5040283465,
				"element": "H" 
			},
			{
				"x": -1.9018494166,
				"y": -1.0797606101,
				"z": 4.2868776206,
				"element": "H" 
			}
		],
		 "valence_orbital": [ 
			{
				"type": "occ",
				"energy": -0.30144,
				"method": "rhf"
			},
			{
				"type": "occ",
				"energy": -0.29368,
				"method": "rhf"
			},
			{
				"type": "occ",
				"energy": -0.25364,
				"method": "rhf"
			},
			{
				"type": "occ",
				"energy": -0.25291,
				"method": "rhf"
			},
			{
				"type": "occ",
				"energy": -0.22879,
				"method": "rhf"
			},
			{
				"type": "unocc",
				"energy": -0.0563,
				"method": "rhf"
			},
			{
				"type": "unocc",
				"energy": -0.02287,
				"method": "rhf"
			},
			{
				"type": "unocc",
				"energy": 0.0167,
				"method": "rhf"
			},
			{
				"type": "unocc",
				"energy": 0.04191,
				"method": "rhf"
			},
			{
				"type": "unocc",
				"energy": 0.07797,
				"method": "rhf"
			}
		],
		"cosmo_sigma_profile": { 
			"-0.025": 0.0,
			"-0.024": 0.0,
			"-0.023": 0.0,
			"-0.022": 0.0,
			"-0.021": 0.0,
			"-0.02": 0.0,
			"-0.019": 0.0,
			"-0.018": 0.0,
			"-0.017": 0.0,
			"-0.016": 0.0,
			"-0.015": 0.0,
			"-0.014": 0.0,
			"-0.013": 0.0,
			"-0.012": 0.0,
			"-0.011": 0.0,
			"-0.01": 0.0,
			"-0.009": 0.0,
			"-0.008": 1.21970389936,
			"-0.007": 8.50826060634,
			"-0.006": 10.9585427959,
			"-0.005": 14.495791183,
			"-0.004": 15.7743855646,
			"-0.003": 12.4811879275,
			"-0.002": 13.4658577885,
			"-0.001": 14.5541776101,
			"0.0": 16.8898784677,
			"0.001": 22.131271186,
			"0.002": 24.5764096316,
			"0.003": 16.9630932037,
			"0.004": 11.0396194803,
			"0.005": 9.58985328127,
			"0.006": 2.52965792746,
			"0.007": 2.09331837475,
			"0.008": 1.90585918314,
			"0.009": 1.76081598896,
			"0.01": 1.32599326204,
			"0.011": 0.942756459407,
			"0.012": 0.931084904607,
			"0.013": 1.50446965586,
			"0.014": 0.928729356522,
			"0.015": 0.525825929417,
			"0.016": 0.0,
			"0.017": 0.0,
			"0.018": 0.0,
			"0.019": 0.0,
			"0.02": 0.0,
			"0.021": 0.0,
			"0.022": 0.0,
			"0.023": 0.0,
			"0.024": 0.0,
			"0.025": 0.0
		}
	}
}
