{
	 "smiles": "OC(=O)CCOC1=C(Cl)C=CC(Cl)=C1", 
	 "Tm": 419.15, 
	 "num_atms": 22, 
	 "gaussian": { 
		 "optdone": 1, 
		 "sigma_profile": "yes", 
		 "theory": "DFT", 
		 "functional": "B3LYP", 
		 "basiset": "6-31G**", 
		 "properties": { 
			 "R2extent": 5401.3009, 
			 "electric_dipole_moment_norm": 2.1930131737, 
			 "electric_quadrupole_moment_norm": 15.2542841969, 
			 "total_energy": -1493.83975051, 
			 "HOMO_LUMO_gap": 0.20857, 
			 "cosmo_polarized_energy": -13.86, 
			 "cosmo_cavitation_energy": 30.87, 
			 "cosmo_dispersion_energy": -22.02, 
			 "cosmo_repulsion_energy": 1.78, 
			 "cosmo_total_nonelectrostatic_energy": 10.63, 
			 "SMD_solvation_energy": 6.11 
		},
		"coords": [
			{
				"x": 1.9830932213,
				"y": -1.7430938273,
				"z": -1.9306272539,
				"element": "O" 
			},
			{
				"x": 2.1344792503,
				"y": -1.8892846126,
				"z": -0.5916017206,
				"element": "C" 
			},
			{
				"x": 2.444229448,
				"y": -2.9376082888,
				"z": -0.0764558832,
				"element": "O" 
			},
			{
				"x": 1.9211810143,
				"y": -0.5829010247,
				"z": 0.1511480945,
				"element": "C" 
			},
			{
				"x": 0.7557620813,
				"y": 0.2510682934,
				"z": -0.3612038976,
				"element": "C" 
			},
			{
				"x": -0.4309188467,
				"y": -0.5140896042,
				"z": -0.1484514157,
				"element": "O" 
			},
			{
				"x": -1.6210146149,
				"y": -0.0096452113,
				"z": -0.5553069362,
				"element": "C" 
			},
			{
				"x": -2.7618333841,
				"y": -0.8099523026,
				"z": -0.3422998523,
				"element": "C" 
			},
			{
				"x": -2.5867223322,
				"y": -2.3768540503,
				"z": 0.4126187023,
				"element": "Cl" 
			},
			{
				"x": -4.0203674868,
				"y": -0.3637182437,
				"z": -0.7276640568,
				"element": "C" 
			},
			{
				"x": -4.1806604266,
				"y": 0.8848319524,
				"z": -1.3326828046,
				"element": "C" 
			},
			{
				"x": -3.0521419712,
				"y": 1.669779626,
				"z": -1.5399388427,
				"element": "C" 
			},
			{
				"x": -3.2199090235,
				"y": 3.2462372253,
				"z": -2.2984622501,
				"element": "Cl" 
			},
			{
				"x": -1.7786466049,
				"y": 1.2427495284,
				"z": -1.1614899005,
				"element": "C" 
			},
			{
				"x": 2.1418186353,
				"y": -2.6200711613,
				"z": -2.3184356475,
				"element": "H" 
			},
			{
				"x": 1.7919563448,
				"y": -0.8254012336,
				"z": 1.2075757473,
				"element": "H" 
			},
			{
				"x": 2.8398826096,
				"y": 0.0090715499,
				"z": 0.0520161581,
				"element": "H" 
			},
			{
				"x": 0.8777139004,
				"y": 0.4703931912,
				"z": -1.4279003536,
				"element": "H" 
			},
			{
				"x": 0.6974343936,
				"y": 1.1980287826,
				"z": 0.1916128537,
				"element": "H" 
			},
			{
				"x": -4.8811799004,
				"y": -0.9994991308,
				"z": -0.5524014653,
				"element": "H" 
			},
			{
				"x": -5.1610368799,
				"y": 1.2339533722,
				"z": -1.6335045627,
				"element": "H" 
			},
			{
				"x": -0.9274194277,
				"y": 1.8854051697,
				"z": -1.3412447126,
				"element": "H" 
			}
		],
		 "valence_orbital": [ 
			{
				"type": "occ",
				"energy": -0.31274,
				"method": "rhf"
			},
			{
				"type": "occ",
				"energy": -0.31228,
				"method": "rhf"
			},
			{
				"type": "occ",
				"energy": -0.28062,
				"method": "rhf"
			},
			{
				"type": "occ",
				"energy": -0.2595,
				"method": "rhf"
			},
			{
				"type": "occ",
				"energy": -0.2336,
				"method": "rhf"
			},
			{
				"type": "unocc",
				"energy": -0.02503,
				"method": "rhf"
			},
			{
				"type": "unocc",
				"energy": -0.01258,
				"method": "rhf"
			},
			{
				"type": "unocc",
				"energy": 0.00263,
				"method": "rhf"
			},
			{
				"type": "unocc",
				"energy": 0.01413,
				"method": "rhf"
			},
			{
				"type": "unocc",
				"energy": 0.03872,
				"method": "rhf"
			}
		],
		"cosmo_sigma_profile": { 
			"-0.025": 0.0,
			"-0.024": 0.0,
			"-0.023": 0.0,
			"-0.022": 0.0,
			"-0.021": 0.0,
			"-0.02": 0.0,
			"-0.019": 0.0605008247034,
			"-0.018": 0.821343780465,
			"-0.017": 0.880563731798,
			"-0.016": 0.844135978115,
			"-0.015": 0.974871213901,
			"-0.014": 0.654326955567,
			"-0.013": 0.631592814368,
			"-0.012": 0.305481719186,
			"-0.011": 1.08793024386,
			"-0.01": 0.880151721746,
			"-0.009": 1.21948307503,
			"-0.008": 7.82695811814,
			"-0.007": 13.7890011619,
			"-0.006": 15.7275428817,
			"-0.005": 13.1224433388,
			"-0.004": 10.0756414969,
			"-0.003": 9.38332187711,
			"-0.002": 11.4307049798,
			"-0.001": 11.858595125,
			"0.0": 15.3401827714,
			"0.001": 23.2998575933,
			"0.002": 27.4343139938,
			"0.003": 20.8657645397,
			"0.004": 22.1102095055,
			"0.005": 14.0276525434,
			"0.006": 4.90145233588,
			"0.007": 4.0808797384,
			"0.008": 3.65471755668,
			"0.009": 2.43102496153,
			"0.01": 1.56501448568,
			"0.011": 4.54871773938,
			"0.012": 4.13634046939,
			"0.013": 0.636154371837,
			"0.014": 0.0,
			"0.015": 0.0,
			"0.016": 0.0,
			"0.017": 0.0,
			"0.018": 0.0,
			"0.019": 0.0,
			"0.02": 0.0,
			"0.021": 0.0,
			"0.022": 0.0,
			"0.023": 0.0,
			"0.024": 0.0,
			"0.025": 0.0
		}
	}
}
