{
	 "smiles": "OC(=O)CN(CC(O)=O)C1=CC=CC=C1OCCOC1=CC=CC=C1N(CC(O)=O)CC(O)=O", 
	 "Tm": 451.15, 
	 "num_atms": 58, 
	 "gaussian": { 
		 "optdone": 1, 
		 "sigma_profile": "yes", 
		 "theory": "DFT", 
		 "functional": "B3LYP", 
		 "basiset": "6-31G**", 
		 "properties": { 
			 "R2extent": 16456.2905, 
			 "electric_dipole_moment_norm": 1.38151033655, 
			 "electric_quadrupole_moment_norm": 24.7982797746, 
			 "total_energy": -1714.5493431, 
			 "HOMO_LUMO_gap": 0.18745, 
			 "cosmo_polarized_energy": -30.15, 
			 "cosmo_cavitation_energy": 59.3, 
			 "cosmo_dispersion_energy": -38.25, 
			 "cosmo_repulsion_energy": 2.88, 
			 "cosmo_total_nonelectrostatic_energy": 23.93, 
			 "SMD_solvation_energy": 14.98 
		},
		"coords": [
			{
				"x": 0.5311521836,
				"y": 1.4176784147,
				"z": -0.2439194563,
				"element": "O" 
			},
			{
				"x": 0.3784853057,
				"y": 2.4818406863,
				"z": 0.5398891602,
				"element": "C" 
			},
			{
				"x": 1.2964645173,
				"y": 3.1652370527,
				"z": 0.9612057845,
				"element": "O" 
			},
			{
				"x": -1.092017435,
				"y": 2.7771165215,
				"z": 0.875035933,
				"element": "C" 
			},
			{
				"x": -2.0070522571,
				"y": 1.6985829744,
				"z": 0.5615220188,
				"element": "N" 
			},
			{
				"x": -2.4253426638,
				"y": 1.5406074091,
				"z": -0.8130462281,
				"element": "C" 
			},
			{
				"x": -3.5160069208,
				"y": 2.4826438186,
				"z": -1.3267890948,
				"element": "C" 
			},
			{
				"x": -3.8428908629,
				"y": 3.4641476891,
				"z": -0.4513140536,
				"element": "O" 
			},
			{
				"x": -4.028090175,
				"y": 2.3822095084,
				"z": -2.4190164183,
				"element": "O" 
			},
			{
				"x": -2.7998359534,
				"y": 1.0983330037,
				"z": 1.5718007282,
				"element": "C" 
			},
			{
				"x": -3.5244037597,
				"y": 1.8524615005,
				"z": 2.5061396137,
				"element": "C" 
			},
			{
				"x": -4.3000009874,
				"y": 1.233191334,
				"z": 3.4872360673,
				"element": "C" 
			},
			{
				"x": -4.3926382286,
				"y": -0.1581164808,
				"z": 3.5320969411,
				"element": "C" 
			},
			{
				"x": -3.6785474642,
				"y": -0.9274620125,
				"z": 2.6118763325,
				"element": "C" 
			},
			{
				"x": -2.87471906,
				"y": -0.3121465964,
				"z": 1.6538720979,
				"element": "C" 
			},
			{
				"x": -2.163189312,
				"y": -1.1035419637,
				"z": 0.767729711,
				"element": "O" 
			},
			{
				"x": -0.771546983,
				"y": -1.2105403664,
				"z": 1.0969676396,
				"element": "C" 
			},
			{
				"x": -0.0127032624,
				"y": -1.649253126,
				"z": -0.1494920687,
				"element": "C" 
			},
			{
				"x": 1.3712588248,
				"y": -1.4052654183,
				"z": 0.1397975696,
				"element": "O" 
			},
			{
				"x": 2.3061218681,
				"y": -1.6237168305,
				"z": -0.8442563338,
				"element": "C" 
			},
			{
				"x": 2.322907475,
				"y": -2.7937953898,
				"z": -1.6052073798,
				"element": "C" 
			},
			{
				"x": 3.3106254141,
				"y": -2.9993787613,
				"z": -2.5689258012,
				"element": "C" 
			},
			{
				"x": 4.2991865662,
				"y": -2.0377571545,
				"z": -2.7595461027,
				"element": "C" 
			},
			{
				"x": 4.2986079656,
				"y": -0.8742247764,
				"z": -1.9882442055,
				"element": "C" 
			},
			{
				"x": 3.3031673967,
				"y": -0.6364745945,
				"z": -1.0333623187,
				"element": "C" 
			},
			{
				"x": 3.2246796203,
				"y": 0.5982918281,
				"z": -0.2930147183,
				"element": "N" 
			},
			{
				"x": 3.3600694539,
				"y": 0.4773825299,
				"z": 1.1689258686,
				"element": "C" 
			},
			{
				"x": 4.7121250021,
				"y": 0.0892742314,
				"z": 1.7590722685,
				"element": "C" 
			},
			{
				"x": 5.706872391,
				"y": -0.028733271,
				"z": 0.848912901,
				"element": "O" 
			},
			{
				"x": 4.8799263815,
				"y": -0.0927241372,
				"z": 2.9428097202,
				"element": "O" 
			},
			{
				"x": 3.9665020842,
				"y": 1.7493006641,
				"z": -0.8298725704,
				"element": "C" 
			},
			{
				"x": 3.6313584723,
				"y": 2.1153793154,
				"z": -2.2673172516,
				"element": "C" 
			},
			{
				"x": 2.3273647031,
				"y": 1.9423297573,
				"z": -2.5673600791,
				"element": "O" 
			},
			{
				"x": 4.437203109,
				"y": 2.5704390864,
				"z": -3.0469092754,
				"element": "O" 
			},
			{
				"x": 1.49899751,
				"y": 1.2008195995,
				"z": -0.3661128661,
				"element": "H" 
			},
			{
				"x": -1.1201073433,
				"y": 2.9872653866,
				"z": 1.9463678862,
				"element": "H" 
			},
			{
				"x": -1.3596189147,
				"y": 3.7200413549,
				"z": 0.3755125825,
				"element": "H" 
			},
			{
				"x": -1.5650825593,
				"y": 1.6630543962,
				"z": -1.480134688,
				"element": "H" 
			},
			{
				"x": -2.7839307715,
				"y": 0.5213402842,
				"z": -0.9786966095,
				"element": "H" 
			},
			{
				"x": -4.5318593166,
				"y": 3.9916578351,
				"z": -0.8903189732,
				"element": "H" 
			},
			{
				"x": -3.4958361876,
				"y": 2.9352570642,
				"z": 2.4364716132,
				"element": "H" 
			},
			{
				"x": -4.8522759456,
				"y": 1.8409054751,
				"z": 4.1980259452,
				"element": "H" 
			},
			{
				"x": -5.0094298697,
				"y": -0.6444311593,
				"z": 4.2818012131,
				"element": "H" 
			},
			{
				"x": -3.7171327967,
				"y": -2.0122461029,
				"z": 2.6311297814,
				"element": "H" 
			},
			{
				"x": -0.3794218806,
				"y": -0.2418790979,
				"z": 1.4102884845,
				"element": "H" 
			},
			{
				"x": -0.6350947757,
				"y": -1.9314252138,
				"z": 1.9145505831,
				"element": "H" 
			},
			{
				"x": -0.3258049833,
				"y": -1.0437339719,
				"z": -1.0055016944,
				"element": "H" 
			},
			{
				"x": -0.1947805313,
				"y": -2.7070128111,
				"z": -0.3713894899,
				"element": "H" 
			},
			{
				"x": 1.5576787648,
				"y": -3.5446472275,
				"z": -1.4406243623,
				"element": "H" 
			},
			{
				"x": 3.304928788,
				"y": -3.9102427576,
				"z": -3.1596732855,
				"element": "H" 
			},
			{
				"x": 5.0781357243,
				"y": -2.1874516869,
				"z": -3.5005626234,
				"element": "H" 
			},
			{
				"x": 5.0817520553,
				"y": -0.1414455131,
				"z": -2.1420480328,
				"element": "H" 
			},
			{
				"x": 3.071044352,
				"y": 1.4336398324,
				"z": 1.6191900951,
				"element": "H" 
			},
			{
				"x": 2.6440448277,
				"y": -0.2641189923,
				"z": 1.5264544509,
				"element": "H" 
			},
			{
				"x": 6.5009765605,
				"y": -0.2844884214,
				"z": 1.3490925839,
				"element": "H" 
			},
			{
				"x": 5.0530554266,
				"y": 1.6405654274,
				"z": -0.7710661274,
				"element": "H" 
			},
			{
				"x": 3.6756958688,
				"y": 2.6134866831,
				"z": -0.2186713272,
				"element": "H" 
			},
			{
				"x": 2.2174725886,
				"y": 2.2266731707,
				"z": -3.4904821386,
				"element": "H" 
			}
		],
		 "valence_orbital": [ 
			{
				"type": "occ",
				"energy": -0.26289,
				"method": "rhf"
			},
			{
				"type": "occ",
				"energy": -0.24803,
				"method": "rhf"
			},
			{
				"type": "occ",
				"energy": -0.24418,
				"method": "rhf"
			},
			{
				"type": "occ",
				"energy": -0.22504,
				"method": "rhf"
			},
			{
				"type": "occ",
				"energy": -0.20547,
				"method": "rhf"
			},
			{
				"type": "unocc",
				"energy": -0.01802,
				"method": "rhf"
			},
			{
				"type": "unocc",
				"energy": -0.00889,
				"method": "rhf"
			},
			{
				"type": "unocc",
				"energy": -0.00512,
				"method": "rhf"
			},
			{
				"type": "unocc",
				"energy": -0.00236,
				"method": "rhf"
			},
			{
				"type": "unocc",
				"energy": 0.00246,
				"method": "rhf"
			}
		],
		"cosmo_sigma_profile": { 
			"-0.025": 0.0,
			"-0.024": 0.0,
			"-0.023": 0.0,
			"-0.022": 0.0,
			"-0.021": 0.0,
			"-0.02": 0.0,
			"-0.019": 0.528278182226,
			"-0.018": 2.85107938819,
			"-0.017": 2.67829841413,
			"-0.016": 2.5290524644,
			"-0.015": 2.18314223588,
			"-0.014": 2.14379071518,
			"-0.013": 1.70175652971,
			"-0.012": 2.44919469679,
			"-0.011": 2.58561105248,
			"-0.01": 2.01239437805,
			"-0.009": 1.19241321453,
			"-0.008": 4.71539023538,
			"-0.007": 11.6241881387,
			"-0.006": 22.7066332117,
			"-0.005": 35.9472764829,
			"-0.004": 38.2085466694,
			"-0.003": 36.759155412,
			"-0.002": 33.7112833323,
			"-0.001": 30.0143104495,
			"0.0": 24.6741299062,
			"0.001": 25.284275241,
			"0.002": 25.2839896543,
			"0.003": 26.6160000183,
			"0.004": 26.8270947573,
			"0.005": 27.0216304927,
			"0.006": 16.0813193541,
			"0.007": 6.88835954329,
			"0.008": 6.86513949558,
			"0.009": 7.15434550733,
			"0.01": 7.91830376971,
			"0.011": 15.9230094951,
			"0.012": 13.4174961083,
			"0.013": 3.14587022669,
			"0.014": 0.143637505494,
			"0.015": 0.0,
			"0.016": 0.0,
			"0.017": 0.0,
			"0.018": 0.0,
			"0.019": 0.0,
			"0.02": 0.0,
			"0.021": 0.0,
			"0.022": 0.0,
			"0.023": 0.0,
			"0.024": 0.0,
			"0.025": 0.0
		}
	}
}
