{
	 "smiles": "[O-][N+](=O)C1=C(Cl)N=C(Cl)S1", 
	 "Tm": 312.15, 
	 "num_atms": 10, 
	 "gaussian": { 
		 "optdone": 1, 
		 "sigma_profile": "yes", 
		 "theory": "DFT", 
		 "functional": "B3LYP", 
		 "basiset": "6-31G**", 
		 "properties": { 
			 "R2extent": 2855.6583, 
			 "electric_dipole_moment_norm": 2.76386807753, 
			 "electric_quadrupole_moment_norm": 9.0467117938, 
			 "total_energy": -1692.69699885, 
			 "HOMO_LUMO_gap": 0.16382, 
			 "cosmo_polarized_energy": -7.21, 
			 "cosmo_cavitation_energy": 21.33, 
			 "cosmo_dispersion_energy": -16.8, 
			 "cosmo_repulsion_energy": 1.33, 
			 "cosmo_total_nonelectrostatic_energy": 5.86, 
			 "SMD_solvation_energy": 3.71 
		},
		"coords": [
			{
				"x": 2.0672102199,
				"y": -1.0141620807,
				"z": -1.2746950223,
				"element": "O" 
			},
			{
				"x": 0.8746860877,
				"y": -0.8015757382,
				"z": -1.4705682714,
				"element": "N" 
			},
			{
				"x": 0.3744026856,
				"y": -0.3908558818,
				"z": -2.5245978334,
				"element": "O" 
			},
			{
				"x": -0.0481295794,
				"y": -1.0416424054,
				"z": -0.3990228533,
				"element": "C" 
			},
			{
				"x": 0.1586109144,
				"y": -1.4927030115,
				"z": 0.8879451908,
				"element": "C" 
			},
			{
				"x": 1.6608688829,
				"y": -1.9133654655,
				"z": 1.5998817036,
				"element": "Cl" 
			},
			{
				"x": -0.9684801636,
				"y": -1.6052352595,
				"z": 1.6494052038,
				"element": "N" 
			},
			{
				"x": -2.0112085951,
				"y": -1.2487002053,
				"z": 0.9602565338,
				"element": "C" 
			},
			{
				"x": -3.6042293521,
				"y": -1.2665227984,
				"z": 1.6103515226,
				"element": "Cl" 
			},
			{
				"x": -1.7416311002,
				"y": -0.7386371537,
				"z": -0.6833561742,
				"element": "S" 
			}
		],
		 "valence_orbital": [ 
			{
				"type": "occ",
				"energy": -0.33296,
				"method": "rhf"
			},
			{
				"type": "occ",
				"energy": -0.32741,
				"method": "rhf"
			},
			{
				"type": "occ",
				"energy": -0.32119,
				"method": "rhf"
			},
			{
				"type": "occ",
				"energy": -0.30832,
				"method": "rhf"
			},
			{
				"type": "occ",
				"energy": -0.28514,
				"method": "rhf"
			},
			{
				"type": "unocc",
				"energy": -0.12132,
				"method": "rhf"
			},
			{
				"type": "unocc",
				"energy": -0.05202,
				"method": "rhf"
			},
			{
				"type": "unocc",
				"energy": -0.04895,
				"method": "rhf"
			},
			{
				"type": "unocc",
				"energy": -0.007,
				"method": "rhf"
			},
			{
				"type": "unocc",
				"energy": 0.01253,
				"method": "rhf"
			}
		],
		"cosmo_sigma_profile": { 
			"-0.025": 0.0,
			"-0.024": 0.0,
			"-0.023": 0.0,
			"-0.022": 0.0,
			"-0.021": 0.0,
			"-0.02": 0.0,
			"-0.019": 0.0,
			"-0.018": 0.0,
			"-0.017": 0.0,
			"-0.016": 0.0,
			"-0.015": 0.0,
			"-0.014": 0.0,
			"-0.013": 0.0,
			"-0.012": 0.0,
			"-0.011": 0.0,
			"-0.01": 0.0,
			"-0.009": 0.410865820877,
			"-0.008": 2.10731110156,
			"-0.007": 4.50217448491,
			"-0.006": 12.4077403209,
			"-0.005": 13.2235912607,
			"-0.004": 12.9288319313,
			"-0.003": 13.4432905968,
			"-0.002": 14.0209596797,
			"-0.001": 15.3184107644,
			"0.0": 14.0435530776,
			"0.001": 17.8190824216,
			"0.002": 13.011906462,
			"0.003": 6.4958155697,
			"0.004": 5.61129221719,
			"0.005": 4.72164171739,
			"0.006": 9.02825471771,
			"0.007": 11.0650230786,
			"0.008": 4.98512322694,
			"0.009": 3.40229054555,
			"0.01": 1.1788795413,
			"0.011": 0.255425615275,
			"0.012": 0.0,
			"0.013": 0.0,
			"0.014": 0.0,
			"0.015": 0.0,
			"0.016": 0.0,
			"0.017": 0.0,
			"0.018": 0.0,
			"0.019": 0.0,
			"0.02": 0.0,
			"0.021": 0.0,
			"0.022": 0.0,
			"0.023": 0.0,
			"0.024": 0.0,
			"0.025": 0.0
		}
	}
}
