{
	 "smiles": "CC(C)NC(=O)COC(=O)C1=CC=CC=C1", 
	 "Tm": 403.15, 
	 "num_atms": 31, 
	 "gaussian": { 
		 "optdone": 1, 
		 "sigma_profile": "yes", 
		 "theory": "DFT", 
		 "functional": "B3LYP", 
		 "basiset": "6-31G**", 
		 "properties": { 
			 "R2extent": 7857.9832, 
			 "electric_dipole_moment_norm": 2.48149740278, 
			 "electric_quadrupole_moment_norm": 17.2009742756, 
			 "total_energy": -746.775765759, 
			 "HOMO_LUMO_gap": 0.20743, 
			 "cosmo_polarized_energy": -17.09, 
			 "cosmo_cavitation_energy": 35.77, 
			 "cosmo_dispersion_energy": -25.22, 
			 "cosmo_repulsion_energy": 2.0, 
			 "cosmo_total_nonelectrostatic_energy": 12.54, 
			 "SMD_solvation_energy": 7.48 
		},
		"coords": [
			{
				"x": 2.8984651304,
				"y": 2.852484196,
				"z": 1.1960722533,
				"element": "C" 
			},
			{
				"x": 2.1460186656,
				"y": 1.7319221161,
				"z": 0.4742919143,
				"element": "C" 
			},
			{
				"x": 3.0727936622,
				"y": 0.5908002022,
				"z": 0.0329435846,
				"element": "C" 
			},
			{
				"x": 1.0630690145,
				"y": 1.2374935226,
				"z": 1.3306960786,
				"element": "N" 
			},
			{
				"x": -0.1086879875,
				"y": 0.7580053781,
				"z": 0.8207377647,
				"element": "C" 
			},
			{
				"x": -0.3639542467,
				"y": 0.7191767915,
				"z": -0.373572677,
				"element": "O" 
			},
			{
				"x": -1.1205550141,
				"y": 0.3445216794,
				"z": 1.8935153996,
				"element": "C" 
			},
			{
				"x": -1.9667075353,
				"y": -0.648623704,
				"z": 1.3239458612,
				"element": "O" 
			},
			{
				"x": -3.0485728039,
				"y": -0.9950604691,
				"z": 2.0618158382,
				"element": "C" 
			},
			{
				"x": -3.2733348253,
				"y": -0.5325525326,
				"z": 3.1641741707,
				"element": "O" 
			},
			{
				"x": -3.9028291709,
				"y": -1.9930653537,
				"z": 1.3628033111,
				"element": "C" 
			},
			{
				"x": -3.6317832746,
				"y": -2.4150095466,
				"z": 0.0530955115,
				"element": "C" 
			},
			{
				"x": -4.4673200856,
				"y": -3.3485110813,
				"z": -0.5580312548,
				"element": "C" 
			},
			{
				"x": -5.5686399179,
				"y": -3.8624667093,
				"z": 0.1314005265,
				"element": "C" 
			},
			{
				"x": -5.8401298022,
				"y": -3.4405048247,
				"z": 1.4360825994,
				"element": "C" 
			},
			{
				"x": -5.0105507093,
				"y": -2.5063612403,
				"z": 2.0510812084,
				"element": "C" 
			},
			{
				"x": 2.2239132332,
				"y": 3.6685341202,
				"z": 1.471565912,
				"element": "H" 
			},
			{
				"x": 3.3805857182,
				"y": 2.4814355182,
				"z": 2.1095674507,
				"element": "H" 
			},
			{
				"x": 3.6852782605,
				"y": 3.2589005374,
				"z": 0.5538286077,
				"element": "H" 
			},
			{
				"x": 1.6495797186,
				"y": 2.1355509004,
				"z": -0.4132163742,
				"element": "H" 
			},
			{
				"x": 2.500429196,
				"y": -0.1795034136,
				"z": -0.4901416954,
				"element": "H" 
			},
			{
				"x": 3.8479394489,
				"y": 0.9632568785,
				"z": -0.6452146074,
				"element": "H" 
			},
			{
				"x": 3.5696676634,
				"y": 0.1312860356,
				"z": 0.8954775839,
				"element": "H" 
			},
			{
				"x": 1.2547626864,
				"y": 1.1204615835,
				"z": 2.3159497133,
				"element": "H" 
			},
			{
				"x": -0.6343490634,
				"y": -0.047043707,
				"z": 2.7950634533,
				"element": "H" 
			},
			{
				"x": -1.7146372948,
				"y": 1.2141702505,
				"z": 2.1974600077,
				"element": "H" 
			},
			{
				"x": -2.7780882194,
				"y": -2.0033546119,
				"z": -0.4734305339,
				"element": "H" 
			},
			{
				"x": -4.2607134846,
				"y": -3.6741242527,
				"z": -1.5732485485,
				"element": "H" 
			},
			{
				"x": -6.2167321531,
				"y": -4.5904532294,
				"z": -0.3485915095,
				"element": "H" 
			},
			{
				"x": -6.697436388,
				"y": -3.8393184676,
				"z": 1.9703214709,
				"element": "H" 
			},
			{
				"x": -5.2007804212,
				"y": -2.1598465663,
				"z": 3.061356979,
				"element": "H" 
			}
		],
		 "valence_orbital": [ 
			{
				"type": "occ",
				"energy": -0.27415,
				"method": "rhf"
			},
			{
				"type": "occ",
				"energy": -0.25874,
				"method": "rhf"
			},
			{
				"type": "occ",
				"energy": -0.25644,
				"method": "rhf"
			},
			{
				"type": "occ",
				"energy": -0.25527,
				"method": "rhf"
			},
			{
				"type": "occ",
				"energy": -0.25071,
				"method": "rhf"
			},
			{
				"type": "unocc",
				"energy": -0.04328,
				"method": "rhf"
			},
			{
				"type": "unocc",
				"energy": -0.00447,
				"method": "rhf"
			},
			{
				"type": "unocc",
				"energy": 0.01949,
				"method": "rhf"
			},
			{
				"type": "unocc",
				"energy": 0.05978,
				"method": "rhf"
			},
			{
				"type": "unocc",
				"energy": 0.06822,
				"method": "rhf"
			}
		],
		"cosmo_sigma_profile": { 
			"-0.025": 0.0,
			"-0.024": 0.0,
			"-0.023": 0.0,
			"-0.022": 0.0,
			"-0.021": 0.0,
			"-0.02": 0.0,
			"-0.019": 0.0,
			"-0.018": 0.0,
			"-0.017": 0.0,
			"-0.016": 0.0,
			"-0.015": 0.174952232898,
			"-0.014": 1.55974798139,
			"-0.013": 1.46813467514,
			"-0.012": 1.44095349158,
			"-0.011": 1.66081597905,
			"-0.01": 1.42373048155,
			"-0.009": 2.12633846044,
			"-0.008": 3.11016401419,
			"-0.007": 6.44479262692,
			"-0.006": 12.835701181,
			"-0.005": 15.2351071091,
			"-0.004": 19.8523862033,
			"-0.003": 25.4852280242,
			"-0.002": 24.6912938127,
			"-0.001": 24.1966798321,
			"0.0": 27.5267543238,
			"0.001": 24.7095429662,
			"0.002": 17.2130854596,
			"0.003": 15.022277518,
			"0.004": 15.7835811108,
			"0.005": 4.43939511199,
			"0.006": 3.2729887842,
			"0.007": 3.71656317478,
			"0.008": 2.37578782539,
			"0.009": 3.86484044066,
			"0.01": 2.78451772182,
			"0.011": 5.93664901876,
			"0.012": 5.6442875511,
			"0.013": 4.08001030731,
			"0.014": 4.03957647614,
			"0.015": 0.541610319009,
			"0.016": 0.0,
			"0.017": 0.0,
			"0.018": 0.0,
			"0.019": 0.0,
			"0.02": 0.0,
			"0.021": 0.0,
			"0.022": 0.0,
			"0.023": 0.0,
			"0.024": 0.0,
			"0.025": 0.0
		}
	}
}
