{
	 "smiles": "OCCN1C(=O)OC2=C1C=CC=C2", 
	 "Tm": 378.15, 
	 "num_atms": 22, 
	 "gaussian": { 
		 "optdone": 1, 
		 "sigma_profile": "yes", 
		 "theory": "DFT", 
		 "functional": "B3LYP", 
		 "basiset": "6-31G**", 
		 "properties": { 
			 "R2extent": 3511.4218, 
			 "electric_dipole_moment_norm": 5.15426709727, 
			 "electric_quadrupole_moment_norm": 15.7926621765, 
			 "total_energy": -628.81201616, 
			 "HOMO_LUMO_gap": 0.20542, 
			 "cosmo_polarized_energy": -15.67, 
			 "cosmo_cavitation_energy": 26.5, 
			 "cosmo_dispersion_energy": -19.21, 
			 "cosmo_repulsion_energy": 1.52, 
			 "cosmo_total_nonelectrostatic_energy": 8.81, 
			 "SMD_solvation_energy": 5.61 
		},
		"coords": [
			{
				"x": -3.4739991653,
				"y": 2.5745885157,
				"z": -1.3701050048,
				"element": "O" 
			},
			{
				"x": -2.90609517,
				"y": 2.0629662706,
				"z": -0.1776649704,
				"element": "C" 
			},
			{
				"x": -2.067749483,
				"y": 0.8043889747,
				"z": -0.4547655394,
				"element": "C" 
			},
			{
				"x": -1.4821577685,
				"y": 0.2418213627,
				"z": 0.7509531862,
				"element": "N" 
			},
			{
				"x": -2.0860982884,
				"y": -0.7857211273,
				"z": 1.4624731909,
				"element": "C" 
			},
			{
				"x": -3.1121018286,
				"y": -1.368209589,
				"z": 1.215881579,
				"element": "O" 
			},
			{
				"x": -1.2780701406,
				"y": -1.0577064045,
				"z": 2.5607069625,
				"element": "O" 
			},
			{
				"x": -0.2014571166,
				"y": -0.1999202834,
				"z": 2.519254691,
				"element": "C" 
			},
			{
				"x": -0.3084987447,
				"y": 0.6294475761,
				"z": 1.3973910962,
				"element": "C" 
			},
			{
				"x": 0.6606405036,
				"y": 1.5868001504,
				"z": 1.1234429826,
				"element": "C" 
			},
			{
				"x": 1.7373471863,
				"y": 1.679449052,
				"z": 2.0176070016,
				"element": "C" 
			},
			{
				"x": 1.8327446514,
				"y": 0.8462043477,
				"z": 3.136220555,
				"element": "C" 
			},
			{
				"x": 0.8517404247,
				"y": -0.1200773774,
				"z": 3.4087660645,
				"element": "C" 
			},
			{
				"x": -2.7690734953,
				"y": 2.9721897471,
				"z": -1.8970753585,
				"element": "H" 
			},
			{
				"x": -2.2984515995,
				"y": 2.8145226124,
				"z": 0.3494038524,
				"element": "H" 
			},
			{
				"x": -3.7416465847,
				"y": 1.797434634,
				"z": 0.4762693213,
				"element": "H" 
			},
			{
				"x": -1.2586675526,
				"y": 1.0301719849,
				"z": -1.1601949271,
				"element": "H" 
			},
			{
				"x": -2.7037430148,
				"y": 0.0366848425,
				"z": -0.9004340142,
				"element": "H" 
			},
			{
				"x": 0.5924327297,
				"y": 2.2379930244,
				"z": 0.2583773874,
				"element": "H" 
			},
			{
				"x": 2.5120358911,
				"y": 2.4173478722,
				"z": 1.8340817584,
				"element": "H" 
			},
			{
				"x": 2.6789873663,
				"y": 0.9458189332,
				"z": 3.8082167684,
				"element": "H" 
			},
			{
				"x": 0.9102811994,
				"y": -0.7754951188,
				"z": 4.2702934168,
				"element": "H" 
			}
		],
		 "valence_orbital": [ 
			{
				"type": "occ",
				"energy": -0.31789,
				"method": "rhf"
			},
			{
				"type": "occ",
				"energy": -0.29151,
				"method": "rhf"
			},
			{
				"type": "occ",
				"energy": -0.28723,
				"method": "rhf"
			},
			{
				"type": "occ",
				"energy": -0.25669,
				"method": "rhf"
			},
			{
				"type": "occ",
				"energy": -0.22376,
				"method": "rhf"
			},
			{
				"type": "unocc",
				"energy": -0.01834,
				"method": "rhf"
			},
			{
				"type": "unocc",
				"energy": -0.00186,
				"method": "rhf"
			},
			{
				"type": "unocc",
				"energy": 0.0432,
				"method": "rhf"
			},
			{
				"type": "unocc",
				"energy": 0.05342,
				"method": "rhf"
			},
			{
				"type": "unocc",
				"energy": 0.08351,
				"method": "rhf"
			}
		],
		"cosmo_sigma_profile": { 
			"-0.025": 0.0,
			"-0.024": 0.0,
			"-0.023": 0.0,
			"-0.022": 0.0,
			"-0.021": 0.0,
			"-0.02": 0.0,
			"-0.019": 0.0,
			"-0.018": 0.0,
			"-0.017": 0.0,
			"-0.016": 0.810591790901,
			"-0.015": 1.30491180925,
			"-0.014": 1.10409815817,
			"-0.013": 1.13746203455,
			"-0.012": 0.745663272873,
			"-0.011": 1.15375803808,
			"-0.01": 1.31118303306,
			"-0.009": 1.17615764582,
			"-0.008": 3.23286520561,
			"-0.007": 8.56498175462,
			"-0.006": 10.9367083838,
			"-0.005": 16.3097651023,
			"-0.004": 19.9197582393,
			"-0.003": 17.0304994227,
			"-0.002": 15.243739862,
			"-0.001": 11.1262938507,
			"0.0": 10.676986966,
			"0.001": 10.9628540885,
			"0.002": 9.78523129355,
			"0.003": 12.0047273398,
			"0.004": 11.7909187882,
			"0.005": 8.64980221904,
			"0.006": 4.12174102835,
			"0.007": 3.81988949509,
			"0.008": 4.931938171,
			"0.009": 2.55044028759,
			"0.01": 3.53431739562,
			"0.011": 4.9274245355,
			"0.012": 7.09136688083,
			"0.013": 3.20782068927,
			"0.014": 1.73439280589,
			"0.015": 0.0,
			"0.016": 0.0,
			"0.017": 0.0,
			"0.018": 0.0,
			"0.019": 0.0,
			"0.02": 0.0,
			"0.021": 0.0,
			"0.022": 0.0,
			"0.023": 0.0,
			"0.024": 0.0,
			"0.025": 0.0
		}
	}
}
