{
	 "smiles": "OC(=O)C1=C(COC2=C(Cl)C=CC=C2)C2=C(O1)C=CC=C2", 
	 "Tm": 464.15, 
	 "num_atms": 32, 
	 "gaussian": { 
		 "optdone": 1, 
		 "sigma_profile": "yes", 
		 "theory": "DFT", 
		 "functional": "B3LYP", 
		 "basiset": "6-31G**", 
		 "properties": { 
			 "R2extent": 7815.8927, 
			 "electric_dipole_moment_norm": 3.11725824724, 
			 "electric_quadrupole_moment_norm": 21.7190169982, 
			 "total_energy": -1377.4123648, 
			 "HOMO_LUMO_gap": 0.1662, 
			 "cosmo_polarized_energy": -15.01, 
			 "cosmo_cavitation_energy": 39.26, 
			 "cosmo_dispersion_energy": -27.88, 
			 "cosmo_repulsion_energy": 2.11, 
			 "cosmo_total_nonelectrostatic_energy": 13.5, 
			 "SMD_solvation_energy": 7.99 
		},
		"coords": [
			{
				"x": -3.1729864159,
				"y": 1.2173845787,
				"z": 0.2378666052,
				"element": "O" 
			},
			{
				"x": -3.2306122867,
				"y": -0.1434597206,
				"z": 0.228126552,
				"element": "C" 
			},
			{
				"x": -4.2625989026,
				"y": -0.7536815634,
				"z": 0.0535864827,
				"element": "O" 
			},
			{
				"x": -1.9159295466,
				"y": -0.7565836999,
				"z": 0.4548643261,
				"element": "C" 
			},
			{
				"x": -0.6429816675,
				"y": -0.261560746,
				"z": 0.604996894,
				"element": "C" 
			},
			{
				"x": -0.218082259,
				"y": 1.1746982625,
				"z": 0.6355185382,
				"element": "C" 
			},
			{
				"x": 1.0597905304,
				"y": 1.2749091962,
				"z": 0.0027653307,
				"element": "O" 
			},
			{
				"x": 1.6382771367,
				"y": 2.5029639427,
				"z": -0.0800271664,
				"element": "C" 
			},
			{
				"x": 2.9097458439,
				"y": 2.5682445774,
				"z": -0.6835573522,
				"element": "C" 
			},
			{
				"x": 3.6600756888,
				"y": 1.0985039602,
				"z": -1.2744734492,
				"element": "Cl" 
			},
			{
				"x": 3.5770940162,
				"y": 3.7807863827,
				"z": -0.8161042792,
				"element": "C" 
			},
			{
				"x": 2.9904784919,
				"y": 4.9581560409,
				"z": -0.3458764947,
				"element": "C" 
			},
			{
				"x": 1.7355914283,
				"y": 4.9059653354,
				"z": 0.2545683558,
				"element": "C" 
			},
			{
				"x": 1.0610135414,
				"y": 3.6900335461,
				"z": 0.3891528758,
				"element": "C" 
			},
			{
				"x": 0.2013328937,
				"y": -1.4142696277,
				"z": 0.8056613719,
				"element": "C" 
			},
			{
				"x": -0.6612170926,
				"y": -2.5257198696,
				"z": 0.7542071222,
				"element": "C" 
			},
			{
				"x": -1.9448607371,
				"y": -2.128226337,
				"z": 0.5420040805,
				"element": "O" 
			},
			{
				"x": -0.234685944,
				"y": -3.8421377172,
				"z": 0.9076461932,
				"element": "C" 
			},
			{
				"x": 1.1275818539,
				"y": -4.0253474195,
				"z": 1.122039727,
				"element": "C" 
			},
			{
				"x": 2.0193633808,
				"y": -2.9327006178,
				"z": 1.1751158848,
				"element": "C" 
			},
			{
				"x": 1.5770121516,
				"y": -1.626329157,
				"z": 1.0155381396,
				"element": "C" 
			},
			{
				"x": -4.0798235141,
				"y": 1.5162762653,
				"z": 0.0576733519,
				"element": "H" 
			},
			{
				"x": -0.1377125133,
				"y": 1.5203149208,
				"z": 1.6776351127,
				"element": "H" 
			},
			{
				"x": -0.9521945625,
				"y": 1.8048721567,
				"z": 0.127785149,
				"element": "H" 
			},
			{
				"x": 4.554043299,
				"y": 3.7938785122,
				"z": -1.2870169985,
				"element": "H" 
			},
			{
				"x": 3.5151945534,
				"y": 5.9020805884,
				"z": -0.4514086203,
				"element": "H" 
			},
			{
				"x": 1.2680521588,
				"y": 5.8131943794,
				"z": 0.6251129052,
				"element": "H" 
			},
			{
				"x": 0.084939534,
				"y": 3.6723826241,
				"z": 0.8583435753,
				"element": "H" 
			},
			{
				"x": -0.9337861109,
				"y": -4.6694157803,
				"z": 0.860290303,
				"element": "H" 
			},
			{
				"x": 1.5140265885,
				"y": -5.032316753,
				"z": 1.2476031907,
				"element": "H" 
			},
			{
				"x": 3.0759647783,
				"y": -3.121932083,
				"z": 1.3379593979,
				"element": "H" 
			},
			{
				"x": 2.2669936833,
				"y": -0.7916641779,
				"z": 1.035102895,
				"element": "H" 
			}
		],
		 "valence_orbital": [ 
			{
				"type": "occ",
				"energy": -0.28781,
				"method": "rhf"
			},
			{
				"type": "occ",
				"energy": -0.25511,
				"method": "rhf"
			},
			{
				"type": "occ",
				"energy": -0.24645,
				"method": "rhf"
			},
			{
				"type": "occ",
				"energy": -0.23461,
				"method": "rhf"
			},
			{
				"type": "occ",
				"energy": -0.22989,
				"method": "rhf"
			},
			{
				"type": "unocc",
				"energy": -0.06369,
				"method": "rhf"
			},
			{
				"type": "unocc",
				"energy": -0.01571,
				"method": "rhf"
			},
			{
				"type": "unocc",
				"energy": -0.00207,
				"method": "rhf"
			},
			{
				"type": "unocc",
				"energy": 0.00246,
				"method": "rhf"
			},
			{
				"type": "unocc",
				"energy": 0.01314,
				"method": "rhf"
			}
		],
		"cosmo_sigma_profile": { 
			"-0.025": 0.0,
			"-0.024": 0.0,
			"-0.023": 0.0,
			"-0.022": 0.0,
			"-0.021": 0.0,
			"-0.02": 0.0,
			"-0.019": 0.354350930231,
			"-0.018": 0.848172315634,
			"-0.017": 1.1372492309,
			"-0.016": 0.558073555123,
			"-0.015": 0.736604702594,
			"-0.014": 0.839233723011,
			"-0.013": 0.311498468359,
			"-0.012": 0.853148147709,
			"-0.011": 0.954366555173,
			"-0.01": 0.650037822784,
			"-0.009": 0.166858116523,
			"-0.008": 2.9561414866,
			"-0.007": 11.3034131854,
			"-0.006": 18.2987806526,
			"-0.005": 19.3324485197,
			"-0.004": 20.1479770467,
			"-0.003": 19.7498673355,
			"-0.002": 18.1919707239,
			"-0.001": 23.0838721712,
			"0.0": 21.5497139599,
			"0.001": 27.7231665785,
			"0.002": 27.0076873681,
			"0.003": 28.3624964592,
			"0.004": 30.1623662577,
			"0.005": 15.6546890657,
			"0.006": 4.82652756662,
			"0.007": 3.0140896127,
			"0.008": 3.57755763218,
			"0.009": 3.3054190148,
			"0.01": 2.79109590713,
			"0.011": 6.27507768514,
			"0.012": 2.9931759715,
			"0.013": 0.411099324312,
			"0.014": 0.0,
			"0.015": 0.0,
			"0.016": 0.0,
			"0.017": 0.0,
			"0.018": 0.0,
			"0.019": 0.0,
			"0.02": 0.0,
			"0.021": 0.0,
			"0.022": 0.0,
			"0.023": 0.0,
			"0.024": 0.0,
			"0.025": 0.0
		}
	}
}
