{
	 "smiles": "COC1=CC(=CC(OC)=C1OC)C(=O)N1CCOCC1", 
	 "Tm": 394.15, 
	 "num_atms": 39, 
	 "gaussian": { 
		 "optdone": 1, 
		 "sigma_profile": "yes", 
		 "theory": "DFT", 
		 "functional": "B3LYP", 
		 "basiset": "6-31G**", 
		 "properties": { 
			 "R2extent": 7697.7, 
			 "electric_dipole_moment_norm": 3.14018285296, 
			 "electric_quadrupole_moment_norm": 13.2430271052, 
			 "total_energy": -975.748280423, 
			 "HOMO_LUMO_gap": 0.20202, 
			 "cosmo_polarized_energy": -15.5, 
			 "cosmo_cavitation_energy": 41.07, 
			 "cosmo_dispersion_energy": -28.74, 
			 "cosmo_repulsion_energy": 2.26, 
			 "cosmo_total_nonelectrostatic_energy": 14.59, 
			 "SMD_solvation_energy": 8.84 
		},
		"coords": [
			{
				"x": -1.5625647544,
				"y": 0.0754893364,
				"z": -3.5162956449,
				"element": "C" 
			},
			{
				"x": -1.0374980135,
				"y": 0.5669246997,
				"z": -2.27774495,
				"element": "O" 
			},
			{
				"x": -0.9570300941,
				"y": -0.3425217162,
				"z": -1.2533168725,
				"element": "C" 
			},
			{
				"x": 0.3046530976,
				"y": -0.6498251624,
				"z": -0.7376817197,
				"element": "C" 
			},
			{
				"x": 0.4358292824,
				"y": -1.5147225965,
				"z": 0.3548271363,
				"element": "C" 
			},
			{
				"x": -0.7070149261,
				"y": -2.1101090501,
				"z": 0.9032458643,
				"element": "C" 
			},
			{
				"x": -1.9689263151,
				"y": -1.8030510521,
				"z": 0.4020997377,
				"element": "C" 
			},
			{
				"x": -3.0804693249,
				"y": -2.3404869598,
				"z": 1.0096147768,
				"element": "O" 
			},
			{
				"x": -3.7853999151,
				"y": -3.3149591947,
				"z": 0.2302994305,
				"element": "C" 
			},
			{
				"x": -2.1074948508,
				"y": -0.905987727,
				"z": -0.6744961798,
				"element": "C" 
			},
			{
				"x": -3.349543535,
				"y": -0.5940923812,
				"z": -1.1779979304,
				"element": "O" 
			},
			{
				"x": -4.0999106995,
				"y": 0.3207975424,
				"z": -0.3657529733,
				"element": "C" 
			},
			{
				"x": 1.7679351786,
				"y": -1.950904211,
				"z": 0.9017667809,
				"element": "C" 
			},
			{
				"x": 1.9504606047,
				"y": -3.1221574648,
				"z": 1.2320601036,
				"element": "O" 
			},
			{
				"x": 2.7830523546,
				"y": -1.0270997775,
				"z": 0.9993645785,
				"element": "N" 
			},
			{
				"x": 4.0767919689,
				"y": -1.5315297278,
				"z": 1.4821175333,
				"element": "C" 
			},
			{
				"x": 5.1438407631,
				"y": -0.4605958317,
				"z": 1.296762898,
				"element": "C" 
			},
			{
				"x": 4.8561607828,
				"y": 0.745908138,
				"z": 2.0028493832,
				"element": "O" 
			},
			{
				"x": 3.4674483147,
				"y": 1.0159103,
				"z": 2.1629300125,
				"element": "C" 
			},
			{
				"x": 2.6158119755,
				"y": 0.4317756112,
				"z": 1.0366827874,
				"element": "C" 
			},
			{
				"x": -1.5280179734,
				"y": 0.915731005,
				"z": -4.2127790586,
				"element": "H" 
			},
			{
				"x": -2.5936822374,
				"y": -0.2695465777,
				"z": -3.4039509678,
				"element": "H" 
			},
			{
				"x": -0.9401965642,
				"y": -0.7405381858,
				"z": -3.905311021,
				"element": "H" 
			},
			{
				"x": 1.1684646477,
				"y": -0.203677637,
				"z": -1.2175474783,
				"element": "H" 
			},
			{
				"x": -0.614045452,
				"y": -2.8176453314,
				"z": 1.7189705959,
				"element": "H" 
			},
			{
				"x": -4.1580243668,
				"y": -2.8837651016,
				"z": -0.7039120712,
				"element": "H" 
			},
			{
				"x": -4.6254253896,
				"y": -3.6456749068,
				"z": 0.8443532979,
				"element": "H" 
			},
			{
				"x": -3.1398717508,
				"y": -4.1735591649,
				"z": 0.007964508,
				"element": "H" 
			},
			{
				"x": -3.5776492673,
				"y": 1.2809316682,
				"z": -0.2829289896,
				"element": "H" 
			},
			{
				"x": -4.2738585753,
				"y": -0.0957477157,
				"z": 0.6312236972,
				"element": "H" 
			},
			{
				"x": -5.0541958849,
				"y": 0.4694562606,
				"z": -0.8749441642,
				"element": "H" 
			},
			{
				"x": 4.0063317972,
				"y": -1.8261786837,
				"z": 2.537770818,
				"element": "H" 
			},
			{
				"x": 4.3359762487,
				"y": -2.4334115551,
				"z": 0.921246305,
				"element": "H" 
			},
			{
				"x": 5.2685547569,
				"y": -0.2484083133,
				"z": 0.2232458154,
				"element": "H" 
			},
			{
				"x": 6.1035697543,
				"y": -0.8266190594,
				"z": 1.6749967225,
				"element": "H" 
			},
			{
				"x": 3.3540592969,
				"y": 2.1052114709,
				"z": 2.1841657419,
				"element": "H" 
			},
			{
				"x": 3.1106655666,
				"y": 0.6219008447,
				"z": 3.1273280102,
				"element": "H" 
			},
			{
				"x": 1.5663501633,
				"y": 0.679450084,
				"z": 1.2062541067,
				"element": "H" 
			},
			{
				"x": 2.9133633359,
				"y": 0.8896281242,
				"z": 0.0832193795,
				"element": "H" 
			}
		],
		 "valence_orbital": [ 
			{
				"type": "occ",
				"energy": -0.25678,
				"method": "rhf"
			},
			{
				"type": "occ",
				"energy": -0.24774,
				"method": "rhf"
			},
			{
				"type": "occ",
				"energy": -0.2375,
				"method": "rhf"
			},
			{
				"type": "occ",
				"energy": -0.23637,
				"method": "rhf"
			},
			{
				"type": "occ",
				"energy": -0.23047,
				"method": "rhf"
			},
			{
				"type": "unocc",
				"energy": -0.02845,
				"method": "rhf"
			},
			{
				"type": "unocc",
				"energy": -0.00074,
				"method": "rhf"
			},
			{
				"type": "unocc",
				"energy": 0.05139,
				"method": "rhf"
			},
			{
				"type": "unocc",
				"energy": 0.07209,
				"method": "rhf"
			},
			{
				"type": "unocc",
				"energy": 0.08152,
				"method": "rhf"
			}
		],
		"cosmo_sigma_profile": { 
			"-0.025": 0.0,
			"-0.024": 0.0,
			"-0.023": 0.0,
			"-0.022": 0.0,
			"-0.021": 0.0,
			"-0.02": 0.0,
			"-0.019": 0.0,
			"-0.018": 0.0,
			"-0.017": 0.0,
			"-0.016": 0.0,
			"-0.015": 0.0,
			"-0.014": 0.0,
			"-0.013": 0.0,
			"-0.012": 0.0,
			"-0.011": 0.0,
			"-0.01": 0.0,
			"-0.009": 0.0,
			"-0.008": 0.0,
			"-0.007": 1.00923028792,
			"-0.006": 11.3791029498,
			"-0.005": 31.6464791563,
			"-0.004": 44.8806118323,
			"-0.003": 43.9290263259,
			"-0.002": 34.8011194559,
			"-0.001": 22.62896845,
			"0.0": 19.4795591501,
			"0.001": 17.437174382,
			"0.002": 17.1651656318,
			"0.003": 13.0394069949,
			"0.004": 10.5388878508,
			"0.005": 7.8163544848,
			"0.006": 6.75792998225,
			"0.007": 5.41815622216,
			"0.008": 5.12851377016,
			"0.009": 4.95043223146,
			"0.01": 4.91087458976,
			"0.011": 5.40077995836,
			"0.012": 4.33217882386,
			"0.013": 4.49776750627,
			"0.014": 5.21178419205,
			"0.015": 0.646481903157,
			"0.016": 0.0,
			"0.017": 0.0,
			"0.018": 0.0,
			"0.019": 0.0,
			"0.02": 0.0,
			"0.021": 0.0,
			"0.022": 0.0,
			"0.023": 0.0,
			"0.024": 0.0,
			"0.025": 0.0
		}
	}
}
