{
	 "smiles": "COCC1=C(Cl)C=CC(=C1)[N+]([O-])=O", 
	 "Tm": 317.15, 
	 "num_atms": 21, 
	 "gaussian": { 
		 "optdone": 1, 
		 "sigma_profile": "yes", 
		 "theory": "DFT", 
		 "functional": "B3LYP", 
		 "basiset": "6-31G**", 
		 "properties": { 
			 "R2extent": 3289.3076, 
			 "electric_dipole_moment_norm": 2.05242371113, 
			 "electric_quadrupole_moment_norm": 24.1212510818, 
			 "total_energy": -1050.16843923, 
			 "HOMO_LUMO_gap": 0.17237, 
			 "cosmo_polarized_energy": -10.14, 
			 "cosmo_cavitation_energy": 27.59, 
			 "cosmo_dispersion_energy": -19.75, 
			 "cosmo_repulsion_energy": 1.57, 
			 "cosmo_total_nonelectrostatic_energy": 9.41, 
			 "SMD_solvation_energy": 7.3 
		},
		"coords": [
			{
				"x": 1.3528320751,
				"y": 1.6525557723,
				"z": -2.1825444501,
				"element": "C" 
			},
			{
				"x": 1.7945202068,
				"y": 0.4171760374,
				"z": -1.6488843744,
				"element": "O" 
			},
			{
				"x": 0.7545863019,
				"y": -0.5159838957,
				"z": -1.4231292268,
				"element": "C" 
			},
			{
				"x": -0.1500451488,
				"y": -0.1536820427,
				"z": -0.2574079731,
				"element": "C" 
			},
			{
				"x": 0.2909671028,
				"y": -0.1857010831,
				"z": 1.0785677177,
				"element": "C" 
			},
			{
				"x": 1.9245638654,
				"y": -0.6863480657,
				"z": 1.4564292367,
				"element": "Cl" 
			},
			{
				"x": -0.5470274703,
				"y": 0.1590400529,
				"z": 2.1424779213,
				"element": "C" 
			},
			{
				"x": -1.8582633425,
				"y": 0.550515653,
				"z": 1.8932036874,
				"element": "C" 
			},
			{
				"x": -2.3009538274,
				"y": 0.5835983025,
				"z": 0.5740715271,
				"element": "C" 
			},
			{
				"x": -1.4699033814,
				"y": 0.2399677898,
				"z": -0.4892199074,
				"element": "C" 
			},
			{
				"x": -3.6846542006,
				"y": 0.9938707433,
				"z": 0.2938249139,
				"element": "N" 
			},
			{
				"x": -4.0457198868,
				"y": 1.0161872126,
				"z": -0.8824897113,
				"element": "O" 
			},
			{
				"x": -4.3955321257,
				"y": 1.2897264473,
				"z": 1.2534539587,
				"element": "O" 
			},
			{
				"x": 2.2462123946,
				"y": 2.2535165707,
				"z": -2.3650640655,
				"element": "H" 
			},
			{
				"x": 0.6958837765,
				"y": 2.1975867958,
				"z": -1.4900993924,
				"element": "H" 
			},
			{
				"x": 0.8162450542,
				"y": 1.5131250907,
				"z": -3.1341771715,
				"element": "H" 
			},
			{
				"x": 0.1347908014,
				"y": -0.6353416185,
				"z": -2.3255351525,
				"element": "H" 
			},
			{
				"x": 1.2530259781,
				"y": -1.4691441939,
				"z": -1.2248447026,
				"element": "H" 
			},
			{
				"x": -0.1694579783,
				"y": 0.116247893,
				"z": 3.1576073903,
				"element": "H" 
			},
			{
				"x": -2.5326110743,
				"y": 0.8237208803,
				"z": 2.6949017434,
				"element": "H" 
			},
			{
				"x": -1.8642591207,
				"y": 0.2797656581,
				"z": -1.4979419686,
				"element": "H" 
			}
		],
		 "valence_orbital": [ 
			{
				"type": "occ",
				"energy": -0.31393,
				"method": "rhf"
			},
			{
				"type": "occ",
				"energy": -0.29796,
				"method": "rhf"
			},
			{
				"type": "occ",
				"energy": -0.29015,
				"method": "rhf"
			},
			{
				"type": "occ",
				"energy": -0.27559,
				"method": "rhf"
			},
			{
				"type": "occ",
				"energy": -0.27028,
				"method": "rhf"
			},
			{
				"type": "unocc",
				"energy": -0.09791,
				"method": "rhf"
			},
			{
				"type": "unocc",
				"energy": -0.04311,
				"method": "rhf"
			},
			{
				"type": "unocc",
				"energy": -0.01476,
				"method": "rhf"
			},
			{
				"type": "unocc",
				"energy": 0.01536,
				"method": "rhf"
			},
			{
				"type": "unocc",
				"energy": 0.08064,
				"method": "rhf"
			}
		],
		"cosmo_sigma_profile": { 
			"-0.025": 0.0,
			"-0.024": 0.0,
			"-0.023": 0.0,
			"-0.022": 0.0,
			"-0.021": 0.0,
			"-0.02": 0.0,
			"-0.019": 0.0,
			"-0.018": 0.0,
			"-0.017": 0.0,
			"-0.016": 0.0,
			"-0.015": 0.0,
			"-0.014": 0.0,
			"-0.013": 0.0,
			"-0.012": 0.0,
			"-0.011": 0.0,
			"-0.01": 0.0,
			"-0.009": 0.899288283742,
			"-0.008": 5.13306882,
			"-0.007": 6.91861229277,
			"-0.006": 9.37171860031,
			"-0.005": 13.1360069363,
			"-0.004": 18.913303259,
			"-0.003": 19.8822413248,
			"-0.002": 24.460281701,
			"-0.001": 22.2102696498,
			"0.0": 18.9687872799,
			"0.001": 11.5962509999,
			"0.002": 10.1206551695,
			"0.003": 9.40153818223,
			"0.004": 8.2457249499,
			"0.005": 5.02436895389,
			"0.006": 6.800090619,
			"0.007": 9.16750679319,
			"0.008": 8.91994059926,
			"0.009": 5.38457648819,
			"0.01": 3.84306041841,
			"0.011": 1.61861379346,
			"0.012": 1.3508494003,
			"0.013": 0.805191923091,
			"0.014": 0.0,
			"0.015": 0.0,
			"0.016": 0.0,
			"0.017": 0.0,
			"0.018": 0.0,
			"0.019": 0.0,
			"0.02": 0.0,
			"0.021": 0.0,
			"0.022": 0.0,
			"0.023": 0.0,
			"0.024": 0.0,
			"0.025": 0.0
		}
	}
}
