{
	 "smiles": "O=CC=P(C1=CC=CC=C1)(C1=CC=CC=C1)C1=CC=CC=C1", 
	 "Tm": 459.65, 
	 "num_atms": 39, 
	 "gaussian": { 
		 "optdone": 1, 
		 "sigma_profile": "yes", 
		 "theory": "DFT", 
		 "functional": "B3LYP", 
		 "basiset": "6-31G**", 
		 "properties": { 
			 "R2extent": 8152.9042, 
			 "electric_dipole_moment_norm": 8.53398484414, 
			 "electric_quadrupole_moment_norm": 52.2259030651, 
			 "total_energy": -1188.90319952, 
			 "HOMO_LUMO_gap": 0.13864, 
			 "cosmo_polarized_energy": -21.22, 
			 "cosmo_cavitation_energy": 43.92, 
			 "cosmo_dispersion_energy": -29.09, 
			 "cosmo_repulsion_energy": 2.23, 
			 "cosmo_total_nonelectrostatic_energy": 17.07, 
			 "SMD_solvation_energy": 8.95 
		},
		"coords": [
			{
				"x": -2.0430225264,
				"y": 5.4697286218,
				"z": -0.1983801741,
				"element": "O" 
			},
			{
				"x": -1.5508607082,
				"y": 4.3842587246,
				"z": -0.5091937219,
				"element": "C" 
			},
			{
				"x": -1.9587955585,
				"y": 3.1031925403,
				"z": -0.0213159815,
				"element": "C" 
			},
			{
				"x": -1.1713473841,
				"y": 1.6342250863,
				"z": -0.4152862374,
				"element": "P" 
			},
			{
				"x": -0.7412720095,
				"y": 1.5329630787,
				"z": -2.196836885,
				"element": "C" 
			},
			{
				"x": -1.6221548599,
				"y": 2.1173071424,
				"z": -3.1221919768,
				"element": "C" 
			},
			{
				"x": -1.3625361782,
				"y": 2.0312234987,
				"z": -4.489841379,
				"element": "C" 
			},
			{
				"x": -0.2222595374,
				"y": 1.3667974124,
				"z": -4.946279679,
				"element": "C" 
			},
			{
				"x": 0.6605374928,
				"y": 0.7896959728,
				"z": -4.0317714968,
				"element": "C" 
			},
			{
				"x": 0.4048551847,
				"y": 0.8712427433,
				"z": -2.662484696,
				"element": "C" 
			},
			{
				"x": -2.2747473253,
				"y": 0.2345697767,
				"z": -0.0056415105,
				"element": "C" 
			},
			{
				"x": -2.5331486283,
				"y": -0.0540034062,
				"z": 1.3446848804,
				"element": "C" 
			},
			{
				"x": -3.4250794991,
				"y": -1.0695962625,
				"z": 1.6864990981,
				"element": "C" 
			},
			{
				"x": -4.0583217973,
				"y": -1.8121538068,
				"z": 0.6870499709,
				"element": "C" 
			},
			{
				"x": -3.7997759732,
				"y": -1.534419265,
				"z": -0.655736475,
				"element": "C" 
			},
			{
				"x": -2.9133052684,
				"y": -0.513721044,
				"z": -1.0037163019,
				"element": "C" 
			},
			{
				"x": 0.3945262014,
				"y": 1.2590890368,
				"z": 0.4901958802,
				"element": "C" 
			},
			{
				"x": 0.8818773807,
				"y": -0.0489852926,
				"z": 0.6471421231,
				"element": "C" 
			},
			{
				"x": 2.0746484139,
				"y": -0.2760755427,
				"z": 1.3345077228,
				"element": "C" 
			},
			{
				"x": 2.7883398499,
				"y": 0.7984132257,
				"z": 1.8716729744,
				"element": "C" 
			},
			{
				"x": 2.3041595566,
				"y": 2.0996395462,
				"z": 1.7273764377,
				"element": "C" 
			},
			{
				"x": 1.1083822116,
				"y": 2.3295394021,
				"z": 1.0449624177,
				"element": "C" 
			},
			{
				"x": -0.7130687081,
				"y": 4.3559064396,
				"z": -1.252251624,
				"element": "H" 
			},
			{
				"x": -2.7532860825,
				"y": 3.0419929032,
				"z": 0.7158453521,
				"element": "H" 
			},
			{
				"x": -2.4951129044,
				"y": 2.6511886955,
				"z": -2.7606303622,
				"element": "H" 
			},
			{
				"x": -2.0467207695,
				"y": 2.4909896461,
				"z": -5.1967762246,
				"element": "H" 
			},
			{
				"x": -0.0184327006,
				"y": 1.30515587,
				"z": -6.01143446,
				"element": "H" 
			},
			{
				"x": 1.5537844453,
				"y": 0.2810651747,
				"z": -4.3824036678,
				"element": "H" 
			},
			{
				"x": 1.1042882379,
				"y": 0.4309655656,
				"z": -1.9603987656,
				"element": "H" 
			},
			{
				"x": -2.0374465905,
				"y": 0.5118543982,
				"z": 2.1278593547,
				"element": "H" 
			},
			{
				"x": -3.6226799056,
				"y": -1.2826675104,
				"z": 2.7328888379,
				"element": "H" 
			},
			{
				"x": -4.7501572794,
				"y": -2.6053044784,
				"z": 0.9552122932,
				"element": "H" 
			},
			{
				"x": -4.2883492944,
				"y": -2.1106760947,
				"z": -1.4359143602,
				"element": "H" 
			},
			{
				"x": -2.7223214784,
				"y": -0.2996853114,
				"z": -2.0500250706,
				"element": "H" 
			},
			{
				"x": 0.3261216394,
				"y": -0.8908962095,
				"z": 0.2441138837,
				"element": "H" 
			},
			{
				"x": 2.4433287999,
				"y": -1.2906286617,
				"z": 1.4560625405,
				"element": "H" 
			},
			{
				"x": 3.7149791205,
				"y": 0.6193048637,
				"z": 2.4094320541,
				"element": "H" 
			},
			{
				"x": 2.8507415629,
				"y": 2.9357435337,
				"z": 2.1535607835,
				"element": "H" 
			},
			{
				"x": 0.7129328695,
				"y": 3.3372599868,
				"z": 0.9549444448,
				"element": "H" 
			}
		],
		 "valence_orbital": [ 
			{
				"type": "occ",
				"energy": -0.26753,
				"method": "rhf"
			},
			{
				"type": "occ",
				"energy": -0.26567,
				"method": "rhf"
			},
			{
				"type": "occ",
				"energy": -0.26401,
				"method": "rhf"
			},
			{
				"type": "occ",
				"energy": -0.1905,
				"method": "rhf"
			},
			{
				"type": "occ",
				"energy": -0.18185,
				"method": "rhf"
			},
			{
				"type": "unocc",
				"energy": -0.04321,
				"method": "rhf"
			},
			{
				"type": "unocc",
				"energy": -0.03524,
				"method": "rhf"
			},
			{
				"type": "unocc",
				"energy": -0.03216,
				"method": "rhf"
			},
			{
				"type": "unocc",
				"energy": -0.026,
				"method": "rhf"
			},
			{
				"type": "unocc",
				"energy": -0.01534,
				"method": "rhf"
			}
		],
		"cosmo_sigma_profile": { 
			"-0.025": 0.0,
			"-0.024": 0.0,
			"-0.023": 0.0,
			"-0.022": 0.0,
			"-0.021": 0.0,
			"-0.02": 0.0,
			"-0.019": 0.0,
			"-0.018": 0.0,
			"-0.017": 0.0,
			"-0.016": 0.0,
			"-0.015": 0.0,
			"-0.014": 0.0,
			"-0.013": 0.0,
			"-0.012": 0.0,
			"-0.011": 0.0,
			"-0.01": 0.0,
			"-0.009": 0.0,
			"-0.008": 0.0209075663131,
			"-0.007": 6.68766894771,
			"-0.006": 27.840350893,
			"-0.005": 34.9987705651,
			"-0.004": 33.8289063454,
			"-0.003": 27.2040182876,
			"-0.002": 26.5842423334,
			"-0.001": 22.7682469551,
			"0.0": 26.3922567627,
			"0.001": 25.9489457425,
			"0.002": 25.3091322227,
			"0.003": 29.9890131355,
			"0.004": 28.7770647219,
			"0.005": 3.86235715426,
			"0.006": 1.61057333323,
			"0.007": 2.09561096303,
			"0.008": 2.74563855745,
			"0.009": 1.63520735152,
			"0.01": 1.07973977834,
			"0.011": 1.71373099533,
			"0.012": 1.89733096559,
			"0.013": 1.39874100557,
			"0.014": 1.87008051374,
			"0.015": 4.73095078816,
			"0.016": 5.78697996633,
			"0.017": 3.31723358535,
			"0.018": 0.200948483125,
			"0.019": 0.0,
			"0.02": 0.0,
			"0.021": 0.0,
			"0.022": 0.0,
			"0.023": 0.0,
			"0.024": 0.0,
			"0.025": 0.0
		}
	}
}
