{
	 "smiles": "FC1=CC=C(C=C1)C(N1CCNCC1)C1=CC=C(F)C=C1", 
	 "Tm": 363.65, 
	 "num_atms": 39, 
	 "gaussian": { 
		 "optdone": 1, 
		 "sigma_profile": "yes", 
		 "theory": "DFT", 
		 "functional": "B3LYP", 
		 "basiset": "6-31G**", 
		 "properties": { 
			 "R2extent": 8425.5512, 
			 "electric_dipole_moment_norm": 1.98312904522, 
			 "electric_quadrupole_moment_norm": 12.6605188851, 
			 "total_energy": -967.813219233, 
			 "HOMO_LUMO_gap": 0.19706, 
			 "cosmo_polarized_energy": -8.87, 
			 "cosmo_cavitation_energy": 40.74, 
			 "cosmo_dispersion_energy": -28.11, 
			 "cosmo_repulsion_energy": 2.1, 
			 "cosmo_total_nonelectrostatic_energy": 14.73, 
			 "SMD_solvation_energy": 4.32 
		},
		"coords": [
			{
				"x": -1.1122738428,
				"y": -5.151668402,
				"z": -3.8528564387,
				"element": "F" 
			},
			{
				"x": -0.5495463795,
				"y": -4.1401126557,
				"z": -3.1586687855,
				"element": "C" 
			},
			{
				"x": -0.9925550099,
				"y": -2.8404928356,
				"z": -3.3794999718,
				"element": "C" 
			},
			{
				"x": -0.4050769058,
				"y": -1.799601872,
				"z": -2.6616603996,
				"element": "C" 
			},
			{
				"x": 0.6154914353,
				"y": -2.0412225944,
				"z": -1.7269127763,
				"element": "C" 
			},
			{
				"x": 1.034612553,
				"y": -3.3659102117,
				"z": -1.5406518915,
				"element": "C" 
			},
			{
				"x": 0.4615156591,
				"y": -4.4228793222,
				"z": -2.2496293025,
				"element": "C" 
			},
			{
				"x": 1.2223168666,
				"y": -0.927726513,
				"z": -0.8668686595,
				"element": "C" 
			},
			{
				"x": 0.4002450587,
				"y": -0.5504271344,
				"z": 0.3018638945,
				"element": "N" 
			},
			{
				"x": -0.9524391754,
				"y": -0.0667646134,
				"z": 0.0070570877,
				"element": "C" 
			},
			{
				"x": -1.5783797377,
				"y": 0.5195503349,
				"z": 1.2737822916,
				"element": "C" 
			},
			{
				"x": -1.6079141195,
				"y": -0.5095173081,
				"z": 2.3117143614,
				"element": "N" 
			},
			{
				"x": -0.2568327613,
				"y": -0.971170231,
				"z": 2.6246551679,
				"element": "C" 
			},
			{
				"x": 0.3753825417,
				"y": -1.5604328618,
				"z": 1.3625088662,
				"element": "C" 
			},
			{
				"x": 1.671218151,
				"y": 0.3124648981,
				"z": -1.6526641578,
				"element": "C" 
			},
			{
				"x": 1.7894151726,
				"y": 1.5508575121,
				"z": -1.004887698,
				"element": "C" 
			},
			{
				"x": 2.2758762942,
				"y": 2.6746091158,
				"z": -1.6720512635,
				"element": "C" 
			},
			{
				"x": 2.6600513545,
				"y": 2.5494012731,
				"z": -3.0016822142,
				"element": "C" 
			},
			{
				"x": 3.1311454593,
				"y": 3.6329437645,
				"z": -3.6565394251,
				"element": "F" 
			},
			{
				"x": 2.5739984004,
				"y": 1.3366650262,
				"z": -3.6733285064,
				"element": "C" 
			},
			{
				"x": 2.0791812751,
				"y": 0.2240642594,
				"z": -2.9912702993,
				"element": "C" 
			},
			{
				"x": -1.7790964978,
				"y": -2.6587310689,
				"z": -4.1041250056,
				"element": "H" 
			},
			{
				"x": -0.7344750276,
				"y": -0.7823747697,
				"z": -2.8475666082,
				"element": "H" 
			},
			{
				"x": 1.8301359819,
				"y": -3.5788482977,
				"z": -0.8309880691,
				"element": "H" 
			},
			{
				"x": 0.7881217656,
				"y": -5.4477341709,
				"z": -2.1097909567,
				"element": "H" 
			},
			{
				"x": 2.1362037416,
				"y": -1.3518373143,
				"z": -0.4271825985,
				"element": "H" 
			},
			{
				"x": -1.6079940642,
				"y": -0.8706652001,
				"z": -0.3679846427,
				"element": "H" 
			},
			{
				"x": -0.8902350767,
				"y": 0.7089004735,
				"z": -0.762754141,
				"element": "H" 
			},
			{
				"x": -2.6041977182,
				"y": 0.8380845068,
				"z": 1.0572707056,
				"element": "H" 
			},
			{
				"x": -1.0001986208,
				"y": 1.4150403425,
				"z": 1.570986264,
				"element": "H" 
			},
			{
				"x": -2.0592382069,
				"y": -0.1517842272,
				"z": 3.1487072311,
				"element": "H" 
			},
			{
				"x": 0.3999564952,
				"y": -0.1622087052,
				"z": 2.9966435693,
				"element": "H" 
			},
			{
				"x": -0.3128178244,
				"y": -1.7443189638,
				"z": 3.3991504221,
				"element": "H" 
			},
			{
				"x": 1.4059185608,
				"y": -1.8650924133,
				"z": 1.5800468706,
				"element": "H" 
			},
			{
				"x": -0.1893537548,
				"y": -2.4628174247,
				"z": 1.0690514263,
				"element": "H" 
			},
			{
				"x": 1.4958088175,
				"y": 1.6200821089,
				"z": 0.0367290496,
				"element": "H" 
			},
			{
				"x": 2.3635137691,
				"y": 3.6358743327,
				"z": -1.1766340055,
				"element": "H" 
			},
			{
				"x": 2.8888417334,
				"y": 1.2729634854,
				"z": -4.7094693575,
				"element": "H" 
			},
			{
				"x": 2.0141736367,
				"y": -0.7243623231,
				"z": -3.5138000337,
				"element": "H" 
			}
		],
		 "valence_orbital": [ 
			{
				"type": "occ",
				"energy": -0.25524,
				"method": "rhf"
			},
			{
				"type": "occ",
				"energy": -0.24608,
				"method": "rhf"
			},
			{
				"type": "occ",
				"energy": -0.23439,
				"method": "rhf"
			},
			{
				"type": "occ",
				"energy": -0.22413,
				"method": "rhf"
			},
			{
				"type": "occ",
				"energy": -0.21434,
				"method": "rhf"
			},
			{
				"type": "unocc",
				"energy": -0.01728,
				"method": "rhf"
			},
			{
				"type": "unocc",
				"energy": -0.00524,
				"method": "rhf"
			},
			{
				"type": "unocc",
				"energy": -0.00177,
				"method": "rhf"
			},
			{
				"type": "unocc",
				"energy": 0.00172,
				"method": "rhf"
			},
			{
				"type": "unocc",
				"energy": 0.07559,
				"method": "rhf"
			}
		],
		"cosmo_sigma_profile": { 
			"-0.025": 0.0,
			"-0.024": 0.0,
			"-0.023": 0.0,
			"-0.022": 0.0,
			"-0.021": 0.0,
			"-0.02": 0.0,
			"-0.019": 0.0,
			"-0.018": 0.0,
			"-0.017": 0.0,
			"-0.016": 0.0,
			"-0.015": 0.0,
			"-0.014": 0.0,
			"-0.013": 0.0,
			"-0.012": 0.0,
			"-0.011": 0.0329905187804,
			"-0.01": 1.1921627042,
			"-0.009": 1.17281460728,
			"-0.008": 1.28598460886,
			"-0.007": 5.68168610029,
			"-0.006": 13.3271651711,
			"-0.005": 16.0200588229,
			"-0.004": 24.7617250654,
			"-0.003": 23.5433701064,
			"-0.002": 26.6330544819,
			"-0.001": 35.3049862866,
			"0.0": 30.0502023552,
			"0.001": 30.1402034892,
			"0.002": 25.0157663106,
			"0.003": 24.2580019405,
			"0.004": 34.4316799199,
			"0.005": 18.2861282664,
			"0.006": 1.73540720101,
			"0.007": 1.71896656409,
			"0.008": 1.55500468989,
			"0.009": 0.873051848521,
			"0.01": 0.361572124438,
			"0.011": 0.912930784647,
			"0.012": 0.671946067948,
			"0.013": 0.297589953612,
			"0.014": 0.532969074854,
			"0.015": 0.810929502022,
			"0.016": 0.274629393543,
			"0.017": 0.530899258452,
			"0.018": 0.332334454956,
			"0.019": 0.0630686885615,
			"0.02": 0.0,
			"0.021": 0.0,
			"0.022": 0.0,
			"0.023": 0.0,
			"0.024": 0.0,
			"0.025": 0.0
		}
	}
}
