{
	 "smiles": "CN[C@@H](C)[C@H](O)C1=CC=CC=C1", 
	 "Tm": 308.15, 
	 "num_atms": 27, 
	 "gaussian": { 
		 "optdone": 1, 
		 "sigma_profile": "yes", 
		 "theory": "DFT", 
		 "functional": "B3LYP", 
		 "basiset": "6-31G**", 
		 "properties": { 
			 "R2extent": 2944.8357, 
			 "electric_dipole_moment_norm": 0.801086318695, 
			 "electric_quadrupole_moment_norm": 4.43706370024, 
			 "total_energy": -520.069074236, 
			 "HOMO_LUMO_gap": 0.21789, 
			 "cosmo_polarized_energy": -8.93, 
			 "cosmo_cavitation_energy": 29.02, 
			 "cosmo_dispersion_energy": -20.39, 
			 "cosmo_repulsion_energy": 1.65, 
			 "cosmo_total_nonelectrostatic_energy": 10.28, 
			 "SMD_solvation_energy": 4.51 
		},
		"coords": [
			{
				"x": 0.4797668076,
				"y": -0.5789885526,
				"z": -2.7289979472,
				"element": "C" 
			},
			{
				"x": 1.2149878073,
				"y": 0.3433451207,
				"z": -1.870785489,
				"element": "N" 
			},
			{
				"x": 1.4692107765,
				"y": -0.1427110687,
				"z": -0.5098553191,
				"element": "C" 
			},
			{
				"x": 2.6544311916,
				"y": -1.1161096935,
				"z": -0.4155288748,
				"element": "C" 
			},
			{
				"x": 1.658378735,
				"y": 1.0867905916,
				"z": 0.4146074358,
				"element": "C" 
			},
			{
				"x": 2.1156845294,
				"y": 0.5929133351,
				"z": 1.673009539,
				"element": "O" 
			},
			{
				"x": 0.387717137,
				"y": 1.9100161888,
				"z": 0.5627706824,
				"element": "C" 
			},
			{
				"x": 0.093623544,
				"y": 2.9511590048,
				"z": -0.32628864,
				"element": "C" 
			},
			{
				"x": -1.0800157021,
				"y": 3.6923856091,
				"z": -0.1896632505,
				"element": "C" 
			},
			{
				"x": -1.9773184262,
				"y": 3.4041595447,
				"z": 0.8415297056,
				"element": "C" 
			},
			{
				"x": -1.6928357241,
				"y": 2.3685413158,
				"z": 1.7327758528,
				"element": "C" 
			},
			{
				"x": -0.5183023113,
				"y": 1.6266679146,
				"z": 1.593357844,
				"element": "C" 
			},
			{
				"x": 0.392744821,
				"y": -0.1469176949,
				"z": -3.7308454306,
				"element": "H" 
			},
			{
				"x": 0.9278058181,
				"y": -1.5829622232,
				"z": -2.8330936955,
				"element": "H" 
			},
			{
				"x": -0.5351308055,
				"y": -0.7076983971,
				"z": -2.3374581014,
				"element": "H" 
			},
			{
				"x": 2.1035884425,
				"y": 0.5777533884,
				"z": -2.3078391421,
				"element": "H" 
			},
			{
				"x": 0.5594448616,
				"y": -0.6581413806,
				"z": -0.1760110142,
				"element": "H" 
			},
			{
				"x": 3.5890736663,
				"y": -0.6122711893,
				"z": -0.6932727017,
				"element": "H" 
			},
			{
				"x": 2.7740960189,
				"y": -1.5026890733,
				"z": 0.5982564172,
				"element": "H" 
			},
			{
				"x": 2.5103362983,
				"y": -1.9616369258,
				"z": -1.0962112171,
				"element": "H" 
			},
			{
				"x": 2.4364364375,
				"y": 1.7206823926,
				"z": -0.0464948349,
				"element": "H" 
			},
			{
				"x": 2.1555340521,
				"y": 1.3430773211,
				"z": 2.2805059623,
				"element": "H" 
			},
			{
				"x": 0.7849249694,
				"y": 3.1711210748,
				"z": -1.1338273412,
				"element": "H" 
			},
			{
				"x": -1.2933219525,
				"y": 4.498196147,
				"z": -0.8867381179,
				"element": "H" 
			},
			{
				"x": -2.8893196283,
				"y": 3.9844824409,
				"z": 0.9503622466,
				"element": "H" 
			},
			{
				"x": -2.3844734423,
				"y": 2.1375376117,
				"z": 2.5385167885,
				"element": "H" 
			},
			{
				"x": -0.2916679218,
				"y": 0.8223971971,
				"z": 2.286918643,
				"element": "H" 
			}
		],
		 "valence_orbital": [ 
			{
				"type": "occ",
				"energy": -0.31365,
				"method": "rhf"
			},
			{
				"type": "occ",
				"energy": -0.27298,
				"method": "rhf"
			},
			{
				"type": "occ",
				"energy": -0.24294,
				"method": "rhf"
			},
			{
				"type": "occ",
				"energy": -0.23404,
				"method": "rhf"
			},
			{
				"type": "occ",
				"energy": -0.21451,
				"method": "rhf"
			},
			{
				"type": "unocc",
				"energy": 0.00338,
				"method": "rhf"
			},
			{
				"type": "unocc",
				"energy": 0.00628,
				"method": "rhf"
			},
			{
				"type": "unocc",
				"energy": 0.08548,
				"method": "rhf"
			},
			{
				"type": "unocc",
				"energy": 0.09396,
				"method": "rhf"
			},
			{
				"type": "unocc",
				"energy": 0.10266,
				"method": "rhf"
			}
		],
		"cosmo_sigma_profile": { 
			"-0.025": 0.0,
			"-0.024": 0.0,
			"-0.023": 0.0,
			"-0.022": 0.0,
			"-0.021": 0.0,
			"-0.02": 0.0,
			"-0.019": 0.0,
			"-0.018": 0.0,
			"-0.017": 0.0,
			"-0.016": 0.0677569891025,
			"-0.015": 0.571560667044,
			"-0.014": 0.951302583111,
			"-0.013": 0.994647651911,
			"-0.012": 0.660708759077,
			"-0.011": 0.317937329208,
			"-0.01": 0.738474743667,
			"-0.009": 1.97759970247,
			"-0.008": 2.24954879874,
			"-0.007": 2.79680320359,
			"-0.006": 3.97582051254,
			"-0.005": 10.3140281929,
			"-0.004": 14.6249134521,
			"-0.003": 26.1707951604,
			"-0.002": 25.6291035083,
			"-0.001": 22.603027775,
			"0.0": 24.899281099,
			"0.001": 16.655270809,
			"0.002": 12.3754640926,
			"0.003": 9.72806948551,
			"0.004": 9.40819313655,
			"0.005": 8.79887930286,
			"0.006": 9.94071650709,
			"0.007": 6.46193278132,
			"0.008": 2.55930034391,
			"0.009": 2.28938456448,
			"0.01": 2.52247975202,
			"0.011": 2.37144527646,
			"0.012": 2.59809421256,
			"0.013": 1.23750603714,
			"0.014": 0.190587571376,
			"0.015": 0.0,
			"0.016": 0.0,
			"0.017": 0.0,
			"0.018": 0.0,
			"0.019": 0.0,
			"0.02": 0.0,
			"0.021": 0.0,
			"0.022": 0.0,
			"0.023": 0.0,
			"0.024": 0.0,
			"0.025": 0.0
		}
	}
}
