{
	 "smiles": "OC(=O)CC1CCCCO1", 
	 "Tm": 323.15, 
	 "num_atms": 22, 
	 "gaussian": { 
		 "optdone": 1, 
		 "sigma_profile": "yes", 
		 "theory": "DFT", 
		 "functional": "B3LYP", 
		 "basiset": "6-31G**", 
		 "properties": { 
			 "R2extent": 2231.9163, 
			 "electric_dipole_moment_norm": 1.39091625557, 
			 "electric_quadrupole_moment_norm": 7.04918783052, 
			 "total_energy": -499.665373113, 
			 "HOMO_LUMO_gap": 0.26022, 
			 "cosmo_polarized_energy": -10.2, 
			 "cosmo_cavitation_energy": 23.77, 
			 "cosmo_dispersion_energy": -17.73, 
			 "cosmo_repulsion_energy": 1.47, 
			 "cosmo_total_nonelectrostatic_energy": 7.51, 
			 "SMD_solvation_energy": 4.59 
		},
		"coords": [
			{
				"x": 1.5275781352,
				"y": -2.8426785999,
				"z": 1.4238830598,
				"element": "O" 
			},
			{
				"x": 0.7001532331,
				"y": -2.6383671651,
				"z": 0.3733295089,
				"element": "C" 
			},
			{
				"x": 0.6481643315,
				"y": -3.4033499396,
				"z": -0.566801932,
				"element": "O" 
			},
			{
				"x": -0.1381109968,
				"y": -1.3865729469,
				"z": 0.5486811878,
				"element": "C" 
			},
			{
				"x": 0.0673086913,
				"y": -0.3620762891,
				"z": -0.5769455178,
				"element": "C" 
			},
			{
				"x": -0.4398905848,
				"y": -0.8036241597,
				"z": -1.9567024585,
				"element": "C" 
			},
			{
				"x": -0.0872899057,
				"y": 0.2526920156,
				"z": -3.0156738585,
				"element": "C" 
			},
			{
				"x": 1.4114934915,
				"y": 0.5818085022,
				"z": -2.9575728575,
				"element": "C" 
			},
			{
				"x": 1.8100152255,
				"y": 0.9488000106,
				"z": -1.5276625834,
				"element": "C" 
			},
			{
				"x": 1.4653765125,
				"y": -0.0781148723,
				"z": -0.6029590099,
				"element": "O" 
			},
			{
				"x": 2.0174800613,
				"y": -3.6583762085,
				"z": 1.2229101442,
				"element": "H" 
			},
			{
				"x": -1.1905464293,
				"y": -1.6910040998,
				"z": 0.5657339795,
				"element": "H" 
			},
			{
				"x": 0.1050879599,
				"y": -0.9252677213,
				"z": 1.5076835295,
				"element": "H" 
			},
			{
				"x": -0.4769761154,
				"y": 0.5556710769,
				"z": -0.285918887,
				"element": "H" 
			},
			{
				"x": -1.5249373577,
				"y": -0.9599104968,
				"z": -1.910842338,
				"element": "H" 
			},
			{
				"x": 0.0166646629,
				"y": -1.7653359687,
				"z": -2.2080946898,
				"element": "H" 
			},
			{
				"x": -0.3697722333,
				"y": -0.0986576974,
				"z": -4.0142482178,
				"element": "H" 
			},
			{
				"x": -0.6661333957,
				"y": 1.1689931309,
				"z": -2.8292144729,
				"element": "H" 
			},
			{
				"x": 1.6617950992,
				"y": 1.4078918434,
				"z": -3.634382929,
				"element": "H" 
			},
			{
				"x": 1.9959680612,
				"y": -0.2908750115,
				"z": -3.2742532958,
				"element": "H" 
			},
			{
				"x": 2.8910805186,
				"y": 1.0874785717,
				"z": -1.4323243251,
				"element": "H" 
			},
			{
				"x": 1.320391035,
				"y": 1.8938760254,
				"z": -1.2326240367,
				"element": "H" 
			}
		],
		 "valence_orbital": [ 
			{
				"type": "occ",
				"energy": -0.32237,
				"method": "rhf"
			},
			{
				"type": "occ",
				"energy": -0.31116,
				"method": "rhf"
			},
			{
				"type": "occ",
				"energy": -0.29978,
				"method": "rhf"
			},
			{
				"type": "occ",
				"energy": -0.26748,
				"method": "rhf"
			},
			{
				"type": "occ",
				"energy": -0.24858,
				"method": "rhf"
			},
			{
				"type": "unocc",
				"energy": 0.01164,
				"method": "rhf"
			},
			{
				"type": "unocc",
				"energy": 0.08455,
				"method": "rhf"
			},
			{
				"type": "unocc",
				"energy": 0.08989,
				"method": "rhf"
			},
			{
				"type": "unocc",
				"energy": 0.10893,
				"method": "rhf"
			},
			{
				"type": "unocc",
				"energy": 0.12625,
				"method": "rhf"
			}
		],
		"cosmo_sigma_profile": { 
			"-0.025": 0.0,
			"-0.024": 0.0,
			"-0.023": 0.0,
			"-0.022": 0.0,
			"-0.021": 0.0,
			"-0.02": 0.0,
			"-0.019": 0.0,
			"-0.018": 0.46960324232,
			"-0.017": 0.973301073962,
			"-0.016": 0.60078684768,
			"-0.015": 1.3003444009,
			"-0.014": 0.58455783344,
			"-0.013": 0.686219012165,
			"-0.012": 0.323359263182,
			"-0.011": 1.07385107435,
			"-0.01": 1.06983733213,
			"-0.009": 0.27099237285,
			"-0.008": 0.531543090374,
			"-0.007": 1.67358896809,
			"-0.006": 4.2552705558,
			"-0.005": 6.37657949751,
			"-0.004": 12.913919105,
			"-0.003": 26.4530448434,
			"-0.002": 25.7316663965,
			"-0.001": 20.5905691391,
			"0.0": 16.8380129862,
			"0.001": 10.9427801432,
			"0.002": 4.07130439328,
			"0.003": 4.04403485516,
			"0.004": 4.65031883417,
			"0.005": 3.99475316642,
			"0.006": 4.01253669426,
			"0.007": 5.37811813273,
			"0.008": 5.36916847764,
			"0.009": 5.31674032035,
			"0.01": 3.60418465082,
			"0.011": 4.48827361122,
			"0.012": 4.92853620244,
			"0.013": 0.664231528275,
			"0.014": 0.0,
			"0.015": 0.0,
			"0.016": 0.0,
			"0.017": 0.0,
			"0.018": 0.0,
			"0.019": 0.0,
			"0.02": 0.0,
			"0.021": 0.0,
			"0.022": 0.0,
			"0.023": 0.0,
			"0.024": 0.0,
			"0.025": 0.0
		}
	}
}
