{
	 "smiles": "CC1NCCOC1C1=CC=CC=C1", 
	 "Tm": 412.15, 
	 "num_atms": 28, 
	 "gaussian": { 
		 "optdone": 1, 
		 "sigma_profile": "yes", 
		 "theory": "DFT", 
		 "functional": "B3LYP", 
		 "basiset": "6-31G**", 
		 "properties": { 
			 "R2extent": 2719.3391, 
			 "electric_dipole_moment_norm": 1.34799457714, 
			 "electric_quadrupole_moment_norm": 6.43981155703, 
			 "total_energy": -558.160586287, 
			 "HOMO_LUMO_gap": 0.21186, 
			 "cosmo_polarized_energy": -7.83, 
			 "cosmo_cavitation_energy": 28.38, 
			 "cosmo_dispersion_energy": -20.99, 
			 "cosmo_repulsion_energy": 1.65, 
			 "cosmo_total_nonelectrostatic_energy": 9.05, 
			 "SMD_solvation_energy": 2.66 
		},
		"coords": [
			{
				"x": 1.5146771633,
				"y": -2.078268325,
				"z": -0.4096459008,
				"element": "C" 
			},
			{
				"x": 0.522489531,
				"y": -1.0626279672,
				"z": 0.1813568313,
				"element": "C" 
			},
			{
				"x": -0.4755348932,
				"y": -1.7329128649,
				"z": 1.0425599756,
				"element": "N" 
			},
			{
				"x": -1.8102213832,
				"y": -1.8771226137,
				"z": 0.4481933358,
				"element": "C" 
			},
			{
				"x": -1.6855464102,
				"y": -2.0926718727,
				"z": -1.0524276584,
				"element": "C" 
			},
			{
				"x": -1.0301603083,
				"y": -1.0108872689,
				"z": -1.7230390664,
				"element": "O" 
			},
			{
				"x": -0.1391923445,
				"y": -0.2160641297,
				"z": -0.9343578479,
				"element": "C" 
			},
			{
				"x": -0.8172399583,
				"y": 1.0635931093,
				"z": -0.4314556278,
				"element": "C" 
			},
			{
				"x": -0.1320811386,
				"y": 1.9598103958,
				"z": 0.4024362361,
				"element": "C" 
			},
			{
				"x": -0.7300526979,
				"y": 3.1482011671,
				"z": 0.8236201651,
				"element": "C" 
			},
			{
				"x": -2.0251429828,
				"y": 3.4676146831,
				"z": 0.4116051728,
				"element": "C" 
			},
			{
				"x": -2.7088911049,
				"y": 2.5925654876,
				"z": -0.4330329937,
				"element": "C" 
			},
			{
				"x": -2.1077890753,
				"y": 1.4046573096,
				"z": -0.8537812105,
				"element": "C" 
			},
			{
				"x": 2.3404989679,
				"y": -1.5651864212,
				"z": -0.9162855073,
				"element": "H" 
			},
			{
				"x": 1.9257462589,
				"y": -2.698385345,
				"z": 0.3910055701,
				"element": "H" 
			},
			{
				"x": 1.035261483,
				"y": -2.7380426662,
				"z": -1.1374887064,
				"element": "H" 
			},
			{
				"x": 1.101098778,
				"y": -0.3848166449,
				"z": 0.8172607149,
				"element": "H" 
			},
			{
				"x": -0.5528875289,
				"y": -1.2403248029,
				"z": 1.9249787462,
				"element": "H" 
			},
			{
				"x": -2.3161157099,
				"y": -2.7468150514,
				"z": 0.888805409,
				"element": "H" 
			},
			{
				"x": -2.4552918623,
				"y": -1.0023546683,
				"z": 0.6222294954,
				"element": "H" 
			},
			{
				"x": -2.6788292251,
				"y": -2.1855717468,
				"z": -1.5044637604,
				"element": "H" 
			},
			{
				"x": -1.1418074892,
				"y": -3.0291946359,
				"z": -1.2433154962,
				"element": "H" 
			},
			{
				"x": 0.6518671144,
				"y": 0.090510255,
				"z": -1.6331124364,
				"element": "H" 
			},
			{
				"x": 0.8839026762,
				"y": 1.7413410554,
				"z": 0.7214580204,
				"element": "H" 
			},
			{
				"x": -0.1815471836,
				"y": 3.8257141063,
				"z": 1.4723705667,
				"element": "H" 
			},
			{
				"x": -2.4919402479,
				"y": 4.3919763746,
				"z": 0.7396220982,
				"element": "H" 
			},
			{
				"x": -3.7125258226,
				"y": 2.835759359,
				"z": -0.7714323101,
				"element": "H" 
			},
			{
				"x": -2.6298446059,
				"y": 0.7318037222,
				"z": -1.5247638152,
				"element": "H" 
			}
		],
		 "valence_orbital": [ 
			{
				"type": "occ",
				"energy": -0.2921,
				"method": "rhf"
			},
			{
				"type": "occ",
				"energy": -0.25141,
				"method": "rhf"
			},
			{
				"type": "occ",
				"energy": -0.24728,
				"method": "rhf"
			},
			{
				"type": "occ",
				"energy": -0.24199,
				"method": "rhf"
			},
			{
				"type": "occ",
				"energy": -0.21327,
				"method": "rhf"
			},
			{
				"type": "unocc",
				"energy": -0.00141,
				"method": "rhf"
			},
			{
				"type": "unocc",
				"energy": 0.00234,
				"method": "rhf"
			},
			{
				"type": "unocc",
				"energy": 0.07393,
				"method": "rhf"
			},
			{
				"type": "unocc",
				"energy": 0.10117,
				"method": "rhf"
			},
			{
				"type": "unocc",
				"energy": 0.10532,
				"method": "rhf"
			}
		],
		"cosmo_sigma_profile": { 
			"-0.025": 0.0,
			"-0.024": 0.0,
			"-0.023": 0.0,
			"-0.022": 0.0,
			"-0.021": 0.0,
			"-0.02": 0.0,
			"-0.019": 0.0,
			"-0.018": 0.0,
			"-0.017": 0.0,
			"-0.016": 0.0,
			"-0.015": 0.0,
			"-0.014": 0.0,
			"-0.013": 0.0,
			"-0.012": 0.0,
			"-0.011": 0.0847158072908,
			"-0.01": 0.847571038524,
			"-0.009": 1.50123288553,
			"-0.008": 1.06027603914,
			"-0.007": 1.42088952639,
			"-0.006": 5.77134465742,
			"-0.005": 14.0621072698,
			"-0.004": 21.6025690287,
			"-0.003": 27.8865999133,
			"-0.002": 25.6904042048,
			"-0.001": 20.617466383,
			"0.0": 17.3901106037,
			"0.001": 16.1389803966,
			"0.002": 11.9392212788,
			"0.003": 9.92939486915,
			"0.004": 10.4595167868,
			"0.005": 10.5657218712,
			"0.006": 9.81237015832,
			"0.007": 3.46297139431,
			"0.008": 1.31551630663,
			"0.009": 2.00794546731,
			"0.01": 1.80512319363,
			"0.011": 1.65096591438,
			"0.012": 1.16547228127,
			"0.013": 2.26014609979,
			"0.014": 0.654942556332,
			"0.015": 0.287054326564,
			"0.016": 0.677312366702,
			"0.017": 0.348633937487,
			"0.018": 0.0614242801702,
			"0.019": 0.0,
			"0.02": 0.0,
			"0.021": 0.0,
			"0.022": 0.0,
			"0.023": 0.0,
			"0.024": 0.0,
			"0.025": 0.0
		}
	}
}
