{
	 "smiles": "[O-][N+](=O)C1=CC(C=O)=CC=C1C=O", 
	 "Tm": 370.15, 
	 "num_atms": 18, 
	 "gaussian": { 
		 "optdone": 1, 
		 "sigma_profile": "yes", 
		 "theory": "DFT", 
		 "functional": "B3LYP", 
		 "basiset": "6-31G**", 
		 "properties": { 
			 "R2extent": 3898.6798, 
			 "electric_dipole_moment_norm": 3.77572711011, 
			 "electric_quadrupole_moment_norm": 13.1547201669, 
			 "total_energy": -663.377754323, 
			 "HOMO_LUMO_gap": 0.1579, 
			 "cosmo_polarized_energy": -13.71, 
			 "cosmo_cavitation_energy": 24.54, 
			 "cosmo_dispersion_energy": -17.57, 
			 "cosmo_repulsion_energy": 1.37, 
			 "cosmo_total_nonelectrostatic_energy": 8.35, 
			 "SMD_solvation_energy": 8.55 
		},
		"coords": [
			{
				"x": 0.0740310795,
				"y": -4.1534357709,
				"z": -0.1804922625,
				"element": "O" 
			},
			{
				"x": -0.4010245753,
				"y": -3.7106830832,
				"z": 0.8661779331,
				"element": "N" 
			},
			{
				"x": -1.0283955259,
				"y": -4.3681962515,
				"z": 1.6902914367,
				"element": "O" 
			},
			{
				"x": -0.2250765555,
				"y": -2.26909944,
				"z": 1.1380251237,
				"element": "C" 
			},
			{
				"x": -1.1897020428,
				"y": -1.6654716258,
				"z": 1.9319999516,
				"element": "C" 
			},
			{
				"x": -1.11930337,
				"y": -0.2874492543,
				"z": 2.1658814025,
				"element": "C" 
			},
			{
				"x": -2.1594290534,
				"y": 0.372701764,
				"z": 3.0006498413,
				"element": "C" 
			},
			{
				"x": -3.0950412032,
				"y": -0.2131227451,
				"z": 3.5041976307,
				"element": "O" 
			},
			{
				"x": -0.0747238655,
				"y": 0.4602867224,
				"z": 1.609715,
				"element": "C" 
			},
			{
				"x": 0.8978591034,
				"y": -0.1653247367,
				"z": 0.8361788324,
				"element": "C" 
			},
			{
				"x": 0.8472247231,
				"y": -1.5423704923,
				"z": 0.5810627704,
				"element": "C" 
			},
			{
				"x": 1.9990819576,
				"y": -2.1240236214,
				"z": -0.1962887448,
				"element": "C" 
			},
			{
				"x": 2.7842911041,
				"y": -1.4084222605,
				"z": -0.7847686888,
				"element": "O" 
			},
			{
				"x": -1.9982292232,
				"y": -2.2472525505,
				"z": 2.3583098975,
				"element": "H" 
			},
			{
				"x": -2.0205249361,
				"y": 1.4666630159,
				"z": 3.1370808151,
				"element": "H" 
			},
			{
				"x": -0.0228378438,
				"y": 1.5310610497,
				"z": 1.7903120515,
				"element": "H" 
			},
			{
				"x": 1.7283747751,
				"y": 0.3888159592,
				"z": 0.4120296616,
				"element": "H" 
			},
			{
				"x": 2.1146254519,
				"y": -3.2168766791,
				"z": -0.1780626518,
				"element": "H" 
			}
		],
		 "valence_orbital": [ 
			{
				"type": "occ",
				"energy": -0.32407,
				"method": "rhf"
			},
			{
				"type": "occ",
				"energy": -0.30269,
				"method": "rhf"
			},
			{
				"type": "occ",
				"energy": -0.30032,
				"method": "rhf"
			},
			{
				"type": "occ",
				"energy": -0.28521,
				"method": "rhf"
			},
			{
				"type": "occ",
				"energy": -0.28016,
				"method": "rhf"
			},
			{
				"type": "unocc",
				"energy": -0.12226,
				"method": "rhf"
			},
			{
				"type": "unocc",
				"energy": -0.10041,
				"method": "rhf"
			},
			{
				"type": "unocc",
				"energy": -0.04292,
				"method": "rhf"
			},
			{
				"type": "unocc",
				"energy": -0.03361,
				"method": "rhf"
			},
			{
				"type": "unocc",
				"energy": 0.03207,
				"method": "rhf"
			}
		],
		"cosmo_sigma_profile": { 
			"-0.025": 0.0,
			"-0.024": 0.0,
			"-0.023": 0.0,
			"-0.022": 0.0,
			"-0.021": 0.0,
			"-0.02": 0.0,
			"-0.019": 0.0,
			"-0.018": 0.0,
			"-0.017": 0.0,
			"-0.016": 0.0,
			"-0.015": 0.0,
			"-0.014": 0.0,
			"-0.013": 0.0201002003731,
			"-0.012": 0.319655403805,
			"-0.011": 0.804093972146,
			"-0.01": 2.25812211332,
			"-0.009": 5.1458158506,
			"-0.008": 9.37245328579,
			"-0.007": 9.77350602017,
			"-0.006": 10.8631825877,
			"-0.005": 10.8318058588,
			"-0.004": 11.3584552432,
			"-0.003": 15.540794084,
			"-0.002": 19.8804981711,
			"-0.001": 15.3287814564,
			"0.0": 8.61977150059,
			"0.001": 6.7201335886,
			"0.002": 5.57837300625,
			"0.003": 5.27481986511,
			"0.004": 5.71513807993,
			"0.005": 5.65050908432,
			"0.006": 9.42000805253,
			"0.007": 10.605089695,
			"0.008": 8.3449640515,
			"0.009": 8.07135650519,
			"0.01": 7.77152430873,
			"0.011": 4.27890128684,
			"0.012": 0.892456075031,
			"0.013": 0.0,
			"0.014": 0.0,
			"0.015": 0.0,
			"0.016": 0.0,
			"0.017": 0.0,
			"0.018": 0.0,
			"0.019": 0.0,
			"0.02": 0.0,
			"0.021": 0.0,
			"0.022": 0.0,
			"0.023": 0.0,
			"0.024": 0.0,
			"0.025": 0.0
		}
	}
}
