{
	 "smiles": "OC1=CC2=C(CCNC2)C=C1", 
	 "Tm": 468.15, 
	 "num_atms": 22, 
	 "gaussian": { 
		 "optdone": 1, 
		 "sigma_profile": "yes", 
		 "theory": "DFT", 
		 "functional": "B3LYP", 
		 "basiset": "6-31G**", 
		 "properties": { 
			 "R2extent": 2416.8639, 
			 "electric_dipole_moment_norm": 0.718860841888, 
			 "electric_quadrupole_moment_norm": 13.0365075661, 
			 "total_energy": -479.5578868, 
			 "HOMO_LUMO_gap": 0.2091, 
			 "cosmo_polarized_energy": -10.45, 
			 "cosmo_cavitation_energy": 24.04, 
			 "cosmo_dispersion_energy": -18.35, 
			 "cosmo_repulsion_energy": 1.47, 
			 "cosmo_total_nonelectrostatic_energy": 7.16, 
			 "SMD_solvation_energy": 1.11 
		},
		"coords": [
			{
				"x": -1.7753385816,
				"y": -2.6437169109,
				"z": 1.07512011,
				"element": "O" 
			},
			{
				"x": -1.556381656,
				"y": -1.4465185211,
				"z": 0.4493626399,
				"element": "C" 
			},
			{
				"x": -0.9863930097,
				"y": -1.3496772179,
				"z": -0.8201640129,
				"element": "C" 
			},
			{
				"x": -0.7755464017,
				"y": -0.1014419365,
				"z": -1.4193416076,
				"element": "C" 
			},
			{
				"x": -1.1441950117,
				"y": 1.0708452326,
				"z": -0.7417882558,
				"element": "C" 
			},
			{
				"x": -0.9080175189,
				"y": 2.4349677093,
				"z": -1.3660208612,
				"element": "C" 
			},
			{
				"x": -0.6537045934,
				"y": 2.338669762,
				"z": -2.8787408009,
				"element": "C" 
			},
			{
				"x": 0.304105082,
				"y": 1.2875966627,
				"z": -3.2322510478,
				"element": "N" 
			},
			{
				"x": -0.1839910585,
				"y": -0.0286440015,
				"z": -2.8226306474,
				"element": "C" 
			},
			{
				"x": -1.7165707741,
				"y": 0.953315673,
				"z": 0.5337551412,
				"element": "C" 
			},
			{
				"x": -1.926079721,
				"y": -0.2824970652,
				"z": 1.1337785507,
				"element": "C" 
			},
			{
				"x": -1.4836676341,
				"y": -3.3588827553,
				"z": 0.4951415201,
				"element": "H" 
			},
			{
				"x": -0.6989042596,
				"y": -2.2561558261,
				"z": -1.3533399322,
				"element": "H" 
			},
			{
				"x": -0.0386248837,
				"y": 2.9128689344,
				"z": -0.8889155591,
				"element": "H" 
			},
			{
				"x": -1.7611723773,
				"y": 3.0955853387,
				"z": -1.1638847732,
				"element": "H" 
			},
			{
				"x": -1.5931388151,
				"y": 2.1157955706,
				"z": -3.4015219253,
				"element": "H" 
			},
			{
				"x": -0.291694523,
				"y": 3.2961888203,
				"z": -3.2690919581,
				"element": "H" 
			},
			{
				"x": 1.1852686221,
				"y": 1.4758508322,
				"z": -2.7573325239,
				"element": "H" 
			},
			{
				"x": -0.9523319155,
				"y": -0.34242801,
				"z": -3.545585739,
				"element": "H" 
			},
			{
				"x": 0.6354321285,
				"y": -0.7500866517,
				"z": -2.9223848438,
				"element": "H" 
			},
			{
				"x": -2.0075499914,
				"y": 1.855875554,
				"z": 1.0669417859,
				"element": "H" 
			},
			{
				"x": -2.3710031062,
				"y": -0.3680111937,
				"z": 2.1195947406,
				"element": "H" 
			}
		],
		 "valence_orbital": [ 
			{
				"type": "occ",
				"energy": -0.32734,
				"method": "rhf"
			},
			{
				"type": "occ",
				"energy": -0.31215,
				"method": "rhf"
			},
			{
				"type": "occ",
				"energy": -0.24069,
				"method": "rhf"
			},
			{
				"type": "occ",
				"energy": -0.22069,
				"method": "rhf"
			},
			{
				"type": "occ",
				"energy": -0.20936,
				"method": "rhf"
			},
			{
				"type": "unocc",
				"energy": -0.00026,
				"method": "rhf"
			},
			{
				"type": "unocc",
				"energy": 0.01807,
				"method": "rhf"
			},
			{
				"type": "unocc",
				"energy": 0.07331,
				"method": "rhf"
			},
			{
				"type": "unocc",
				"energy": 0.0903,
				"method": "rhf"
			},
			{
				"type": "unocc",
				"energy": 0.11103,
				"method": "rhf"
			}
		],
		"cosmo_sigma_profile": { 
			"-0.025": 0.0,
			"-0.024": 0.0,
			"-0.023": 0.0,
			"-0.022": 0.0,
			"-0.021": 0.0,
			"-0.02": 0.0,
			"-0.019": 0.0,
			"-0.018": 0.037787229622,
			"-0.017": 0.924789058756,
			"-0.016": 1.19839469338,
			"-0.015": 0.640584849978,
			"-0.014": 1.08063426032,
			"-0.013": 1.1082872436,
			"-0.012": 0.996654375476,
			"-0.011": 1.28531306269,
			"-0.01": 1.36190219614,
			"-0.009": 1.96446553029,
			"-0.008": 2.46355226801,
			"-0.007": 2.5593767958,
			"-0.006": 3.50237947129,
			"-0.005": 8.62610593075,
			"-0.004": 14.0309405345,
			"-0.003": 22.0520574337,
			"-0.002": 19.4852767479,
			"-0.001": 17.8072385885,
			"0.0": 12.5255220438,
			"0.001": 9.18991956871,
			"0.002": 7.25673491579,
			"0.003": 7.61182062841,
			"0.004": 9.05885360832,
			"0.005": 10.7333531968,
			"0.006": 9.86722776813,
			"0.007": 6.12701857792,
			"0.008": 2.18023755315,
			"0.009": 2.58107700755,
			"0.01": 2.07697620406,
			"0.011": 2.02944251222,
			"0.012": 2.26551759363,
			"0.013": 1.02245182044,
			"0.014": 0.682477952888,
			"0.015": 0.60181429573,
			"0.016": 0.280497508217,
			"0.017": 0.560462397983,
			"0.018": 0.760735713656,
			"0.019": 0.0444515439177,
			"0.02": 0.0,
			"0.021": 0.0,
			"0.022": 0.0,
			"0.023": 0.0,
			"0.024": 0.0,
			"0.025": 0.0
		}
	}
}
