{
	 "smiles": "NC1=CC=CC2=CC3=CC=CC=C3N=C12", 
	 "Tm": 381.15, 
	 "num_atms": 25, 
	 "gaussian": { 
		 "optdone": 1, 
		 "sigma_profile": "yes", 
		 "theory": "DFT", 
		 "functional": "B3LYP", 
		 "basiset": "6-31G**", 
		 "properties": { 
			 "R2extent": 3418.6334, 
			 "electric_dipole_moment_norm": 0.823663930253, 
			 "electric_quadrupole_moment_norm": 14.9137428324, 
			 "total_energy": -610.935947082, 
			 "HOMO_LUMO_gap": 0.11668, 
			 "cosmo_polarized_energy": -9.07, 
			 "cosmo_cavitation_energy": 28.44, 
			 "cosmo_dispersion_energy": -21.53, 
			 "cosmo_repulsion_energy": 1.64, 
			 "cosmo_total_nonelectrostatic_energy": 8.55, 
			 "SMD_solvation_energy": 3.26 
		},
		"coords": [
			{
				"x": -0.787790306,
				"y": -2.8512518487,
				"z": -0.0699726014,
				"element": "N" 
			},
			{
				"x": -1.172173777,
				"y": -1.7446152408,
				"z": -0.7920885243,
				"element": "C" 
			},
			{
				"x": -1.8329313108,
				"y": -1.8049709608,
				"z": -2.0058883713,
				"element": "C" 
			},
			{
				"x": -2.2560530347,
				"y": -0.6236848794,
				"z": -2.6689073979,
				"element": "C" 
			},
			{
				"x": -2.0304854346,
				"y": 0.6230777206,
				"z": -2.1417097699,
				"element": "C" 
			},
			{
				"x": -1.3410174191,
				"y": 0.7438170677,
				"z": -0.8984904131,
				"element": "C" 
			},
			{
				"x": -1.0518061797,
				"y": 1.9690680043,
				"z": -0.2886034102,
				"element": "C" 
			},
			{
				"x": -0.3558552616,
				"y": 2.0184800556,
				"z": 0.9241882231,
				"element": "C" 
			},
			{
				"x": -0.0309873932,
				"y": 3.2379623185,
				"z": 1.5936957998,
				"element": "C" 
			},
			{
				"x": 0.6619166198,
				"y": 3.2216988535,
				"z": 2.7761156359,
				"element": "C" 
			},
			{
				"x": 1.0706028593,
				"y": 1.9852890088,
				"z": 3.3576506183,
				"element": "C" 
			},
			{
				"x": 0.7775572704,
				"y": 0.793735225,
				"z": 2.7462114688,
				"element": "C" 
			},
			{
				"x": 0.0554877807,
				"y": 0.7672524801,
				"z": 1.5139995685,
				"element": "C" 
			},
			{
				"x": -0.2178732734,
				"y": -0.4199284228,
				"z": 0.9437712555,
				"element": "N" 
			},
			{
				"x": -0.894746598,
				"y": -0.4441804982,
				"z": -0.2116145174,
				"element": "C" 
			},
			{
				"x": -0.6342405428,
				"y": -3.7103244084,
				"z": -0.5745478378,
				"element": "H" 
			},
			{
				"x": -0.1420629323,
				"y": -2.6474720472,
				"z": 0.6818010969,
				"element": "H" 
			},
			{
				"x": -2.0424266951,
				"y": -2.7729348713,
				"z": -2.4533853718,
				"element": "H" 
			},
			{
				"x": -2.7751991841,
				"y": -0.7223572192,
				"z": -3.6183778581,
				"element": "H" 
			},
			{
				"x": -2.3629290386,
				"y": 1.5210364596,
				"z": -2.6538144422,
				"element": "H" 
			},
			{
				"x": -1.369548599,
				"y": 2.8942646475,
				"z": -0.7651413813,
				"element": "H" 
			},
			{
				"x": -0.3441068165,
				"y": 4.1778262638,
				"z": 1.146022861,
				"element": "H" 
			},
			{
				"x": 0.9047728977,
				"y": 4.1532722125,
				"z": 3.2788639847,
				"element": "H" 
			},
			{
				"x": 1.6187366853,
				"y": 1.9951613009,
				"z": 4.295391358,
				"element": "H" 
			},
			{
				"x": 1.0772596833,
				"y": -0.1584212215,
				"z": 3.172230026,
				"element": "H" 
			}
		],
		 "valence_orbital": [ 
			{
				"type": "occ",
				"energy": -0.28405,
				"method": "rhf"
			},
			{
				"type": "occ",
				"energy": -0.25651,
				"method": "rhf"
			},
			{
				"type": "occ",
				"energy": -0.24076,
				"method": "rhf"
			},
			{
				"type": "occ",
				"energy": -0.23277,
				"method": "rhf"
			},
			{
				"type": "occ",
				"energy": -0.18324,
				"method": "rhf"
			},
			{
				"type": "unocc",
				"energy": -0.06656,
				"method": "rhf"
			},
			{
				"type": "unocc",
				"energy": -0.01285,
				"method": "rhf"
			},
			{
				"type": "unocc",
				"energy": 0.01336,
				"method": "rhf"
			},
			{
				"type": "unocc",
				"energy": 0.0431,
				"method": "rhf"
			},
			{
				"type": "unocc",
				"energy": 0.06587,
				"method": "rhf"
			}
		],
		"cosmo_sigma_profile": { 
			"-0.025": 0.0,
			"-0.024": 0.0,
			"-0.023": 0.0,
			"-0.022": 0.0,
			"-0.021": 0.0,
			"-0.02": 0.0,
			"-0.019": 0.0,
			"-0.018": 0.0,
			"-0.017": 0.0,
			"-0.016": 0.0,
			"-0.015": 0.0,
			"-0.014": 0.0,
			"-0.013": 0.609370631182,
			"-0.012": 1.37697627615,
			"-0.011": 1.06019656208,
			"-0.01": 1.3265067356,
			"-0.009": 3.07754616965,
			"-0.008": 2.16243011163,
			"-0.007": 5.05090866863,
			"-0.006": 13.9331663281,
			"-0.005": 17.1384728573,
			"-0.004": 15.700386898,
			"-0.003": 15.3194324538,
			"-0.002": 11.9404524744,
			"-0.001": 10.4134433955,
			"0.0": 10.3805208483,
			"0.001": 15.3178767688,
			"0.002": 23.0846660919,
			"0.003": 25.5887072172,
			"0.004": 20.0970514491,
			"0.005": 14.6458517915,
			"0.006": 9.00302851397,
			"0.007": 4.20150686786,
			"0.008": 2.11766366943,
			"0.009": 1.56656131158,
			"0.01": 1.35445497813,
			"0.011": 0.859020667662,
			"0.012": 0.464847973247,
			"0.013": 0.455141270459,
			"0.014": 0.05367573877,
			"0.015": 0.0,
			"0.016": 0.0,
			"0.017": 0.0,
			"0.018": 0.0,
			"0.019": 0.0,
			"0.02": 0.0,
			"0.021": 0.0,
			"0.022": 0.0,
			"0.023": 0.0,
			"0.024": 0.0,
			"0.025": 0.0
		}
	}
}
