{
	 "smiles": "NC1=CC=C(C=C1)C1=NNC(=O)N1", 
	 "Tm": 607.15, 
	 "num_atms": 21, 
	 "gaussian": { 
		 "optdone": 1, 
		 "sigma_profile": "yes", 
		 "theory": "DFT", 
		 "functional": "B3LYP", 
		 "basiset": "6-31G**", 
		 "properties": { 
			 "R2extent": 3855.6065, 
			 "electric_dipole_moment_norm": 5.76932238829, 
			 "electric_quadrupole_moment_norm": 12.1350885699, 
			 "total_energy": -603.913402483, 
			 "HOMO_LUMO_gap": 0.17027, 
			 "cosmo_polarized_energy": -20.96, 
			 "cosmo_cavitation_energy": 25.84, 
			 "cosmo_dispersion_energy": -19.61, 
			 "cosmo_repulsion_energy": 1.55, 
			 "cosmo_total_nonelectrostatic_energy": 7.78, 
			 "SMD_solvation_energy": 4.35 
		},
		"coords": [
			{
				"x": -0.9503941695,
				"y": 2.1652570822,
				"z": 2.8615087369,
				"element": "N" 
			},
			{
				"x": -0.7427793803,
				"y": 1.0763945816,
				"z": 2.0243011211,
				"element": "C" 
			},
			{
				"x": -1.4690072244,
				"y": 0.9345425029,
				"z": 0.8289406084,
				"element": "C" 
			},
			{
				"x": -1.2957230225,
				"y": -0.185294059,
				"z": 0.0238866815,
				"element": "C" 
			},
			{
				"x": -0.3977578578,
				"y": -1.2032186422,
				"z": 0.3783613249,
				"element": "C" 
			},
			{
				"x": 0.3287919234,
				"y": -1.0579879833,
				"z": 1.5737734641,
				"element": "C" 
			},
			{
				"x": 0.1626422469,
				"y": 0.0564852394,
				"z": 2.3799019026,
				"element": "C" 
			},
			{
				"x": -0.1959186078,
				"y": -2.3875039702,
				"z": -0.4536881846,
				"element": "C" 
			},
			{
				"x": 0.7438194877,
				"y": -3.2781036189,
				"z": -0.2625445827,
				"element": "N" 
			},
			{
				"x": 0.5507147593,
				"y": -4.2050583486,
				"z": -1.2621026672,
				"element": "N" 
			},
			{
				"x": -0.5060852769,
				"y": -3.9226222226,
				"z": -2.1037254738,
				"element": "C" 
			},
			{
				"x": -0.9319081789,
				"y": -4.5389949485,
				"z": -3.0656671576,
				"element": "O" 
			},
			{
				"x": -0.9693614035,
				"y": -2.7213401016,
				"z": -1.5514812912,
				"element": "N" 
			},
			{
				"x": -0.2016630641,
				"y": 2.3794254918,
				"z": 3.5046158684,
				"element": "H" 
			},
			{
				"x": -1.3429002446,
				"y": 2.9898050876,
				"z": 2.4301472221,
				"element": "H" 
			},
			{
				"x": -2.1717399373,
				"y": 1.708883746,
				"z": 0.532519646,
				"element": "H" 
			},
			{
				"x": -1.862640556,
				"y": -0.2461097469,
				"z": -0.9012557576,
				"element": "H" 
			},
			{
				"x": 1.0273452074,
				"y": -1.8375918393,
				"z": 1.8584456925,
				"element": "H" 
			},
			{
				"x": 0.7304017473,
				"y": 0.1445704462,
				"z": 3.3027790633,
				"element": "H" 
			},
			{
				"x": 1.1559696659,
				"y": -5.0055487859,
				"z": -1.3378520365,
				"element": "H" 
			},
			{
				"x": -1.7897061143,
				"y": -2.2513899107,
				"z": -1.8963641806,
				"element": "H" 
			}
		],
		 "valence_orbital": [ 
			{
				"type": "occ",
				"energy": -0.307,
				"method": "rhf"
			},
			{
				"type": "occ",
				"energy": -0.2611,
				"method": "rhf"
			},
			{
				"type": "occ",
				"energy": -0.25415,
				"method": "rhf"
			},
			{
				"type": "occ",
				"energy": -0.23475,
				"method": "rhf"
			},
			{
				"type": "occ",
				"energy": -0.1963,
				"method": "rhf"
			},
			{
				"type": "unocc",
				"energy": -0.02603,
				"method": "rhf"
			},
			{
				"type": "unocc",
				"energy": -0.00972,
				"method": "rhf"
			},
			{
				"type": "unocc",
				"energy": 0.06169,
				"method": "rhf"
			},
			{
				"type": "unocc",
				"energy": 0.06604,
				"method": "rhf"
			},
			{
				"type": "unocc",
				"energy": 0.07037,
				"method": "rhf"
			}
		],
		"cosmo_sigma_profile": { 
			"-0.025": 0.0,
			"-0.024": 0.0,
			"-0.023": 0.0,
			"-0.022": 0.0,
			"-0.021": 0.0,
			"-0.02": 0.0,
			"-0.019": 0.0,
			"-0.018": 0.0,
			"-0.017": 0.473391297419,
			"-0.016": 2.7393318485,
			"-0.015": 1.88190905624,
			"-0.014": 2.49859663672,
			"-0.013": 4.16064894304,
			"-0.012": 4.20494789828,
			"-0.011": 4.7080595506,
			"-0.01": 5.59698998483,
			"-0.009": 5.06093792305,
			"-0.008": 4.80002647086,
			"-0.007": 5.3442029924,
			"-0.006": 7.41850795176,
			"-0.005": 9.37474031462,
			"-0.004": 8.07030628408,
			"-0.003": 6.64973493564,
			"-0.002": 7.75903155884,
			"-0.001": 11.2512310662,
			"0.0": 12.4375235636,
			"0.001": 11.0809859231,
			"0.002": 10.359291372,
			"0.003": 11.8391936076,
			"0.004": 13.2250575013,
			"0.005": 15.4121671529,
			"0.006": 6.60607030246,
			"0.007": 2.90310418418,
			"0.008": 3.38739238808,
			"0.009": 2.75529305324,
			"0.01": 3.61242932182,
			"0.011": 3.11830772161,
			"0.012": 3.56595171692,
			"0.013": 5.2514049072,
			"0.014": 7.58199172252,
			"0.015": 1.12725836445,
			"0.016": 0.0,
			"0.017": 0.0,
			"0.018": 0.0,
			"0.019": 0.0,
			"0.02": 0.0,
			"0.021": 0.0,
			"0.022": 0.0,
			"0.023": 0.0,
			"0.024": 0.0,
			"0.025": 0.0
		}
	}
}
