{
	 "smiles": "O=C1CCCCCCCCC1", 
	 "Tm": 299.15, 
	 "num_atms": 29, 
	 "gaussian": { 
		 "optdone": 1, 
		 "sigma_profile": "yes", 
		 "theory": "DFT", 
		 "functional": "B3LYP", 
		 "basiset": "6-31G**", 
		 "properties": { 
			 "R2extent": 2180.6835, 
			 "electric_dipole_moment_norm": 2.45703111295, 
			 "electric_quadrupole_moment_norm": 8.41989303376, 
			 "total_energy": -467.14501249, 
			 "HOMO_LUMO_gap": 0.22536, 
			 "cosmo_polarized_energy": -6.2, 
			 "cosmo_cavitation_energy": 26.72, 
			 "cosmo_dispersion_energy": -20.18, 
			 "cosmo_repulsion_energy": 1.61, 
			 "cosmo_total_nonelectrostatic_energy": 8.14, 
			 "SMD_solvation_energy": 3.73 
		},
		"coords": [
			{
				"x": -2.0829074266,
				"y": 1.2671225003,
				"z": 1.6920775693,
				"element": "O" 
			},
			{
				"x": -0.9229416974,
				"y": 0.899611615,
				"z": 1.6152150801,
				"element": "C" 
			},
			{
				"x": -0.3690763244,
				"y": -0.1512139415,
				"z": 2.5767504629,
				"element": "C" 
			},
			{
				"x": 0.1452085811,
				"y": -1.4713661839,
				"z": 1.9554864229,
				"element": "C" 
			},
			{
				"x": -0.9311556082,
				"y": -2.4178492692,
				"z": 1.3850045416,
				"element": "C" 
			},
			{
				"x": -1.8710078521,
				"y": -1.8077821907,
				"z": 0.3280836753,
				"element": "C" 
			},
			{
				"x": -1.1455337543,
				"y": -1.2007664592,
				"z": -0.8928285112,
				"element": "C" 
			},
			{
				"x": -1.8534945345,
				"y": 0.0165917501,
				"z": -1.5455668435,
				"element": "C" 
			},
			{
				"x": -0.9175778373,
				"y": 1.2148752877,
				"z": -1.8127908773,
				"element": "C" 
			},
			{
				"x": -0.6399580153,
				"y": 2.157726305,
				"z": -0.6229818654,
				"element": "C" 
			},
			{
				"x": 0.0396790181,
				"y": 1.5546077028,
				"z": 0.6209765731,
				"element": "C" 
			},
			{
				"x": -1.1559040693,
				"y": -0.3544614729,
				"z": 3.3102205188,
				"element": "H" 
			},
			{
				"x": 0.4699123926,
				"y": 0.3171781719,
				"z": 3.1117214264,
				"element": "H" 
			},
			{
				"x": 0.896899501,
				"y": -1.2458456947,
				"z": 1.1900984722,
				"element": "H" 
			},
			{
				"x": 0.6878413091,
				"y": -2.012096853,
				"z": 2.7402205764,
				"element": "H" 
			},
			{
				"x": -0.416981638,
				"y": -3.2937063504,
				"z": 0.9659311356,
				"element": "H" 
			},
			{
				"x": -1.5425099794,
				"y": -2.7948135308,
				"z": 2.2156661088,
				"element": "H" 
			},
			{
				"x": -2.4830691384,
				"y": -1.0388904027,
				"z": 0.8082227714,
				"element": "H" 
			},
			{
				"x": -2.5758226395,
				"y": -2.580882412,
				"z": -0.0024947762,
				"element": "H" 
			},
			{
				"x": -0.1389768005,
				"y": -0.8931087584,
				"z": -0.5957927726,
				"element": "H" 
			},
			{
				"x": -0.9815497359,
				"y": -1.9821927699,
				"z": -1.645092205,
				"element": "H" 
			},
			{
				"x": -2.3070554044,
				"y": -0.2905449707,
				"z": -2.4951761304,
				"element": "H" 
			},
			{
				"x": -2.6824665191,
				"y": 0.3522100969,
				"z": -0.9114253744,
				"element": "H" 
			},
			{
				"x": -1.3553654031,
				"y": 1.8343914822,
				"z": -2.6060384231,
				"element": "H" 
			},
			{
				"x": 0.0349963169,
				"y": 0.8436143199,
				"z": -2.2184465578,
				"element": "H" 
			},
			{
				"x": -0.0109714663,
				"y": 2.9772079537,
				"z": -0.9909674076,
				"element": "H" 
			},
			{
				"x": -1.5818601151,
				"y": 2.6090255351,
				"z": -0.2923441538,
				"element": "H" 
			},
			{
				"x": 0.5153073358,
				"y": 2.3650183994,
				"z": 1.1952525802,
				"element": "H" 
			},
			{
				"x": 0.8559415043,
				"y": 0.87304014,
				"z": 0.3579179834,
				"element": "H" 
			}
		],
		 "valence_orbital": [ 
			{
				"type": "occ",
				"energy": -0.31939,
				"method": "rhf"
			},
			{
				"type": "occ",
				"energy": -0.30842,
				"method": "rhf"
			},
			{
				"type": "occ",
				"energy": -0.29856,
				"method": "rhf"
			},
			{
				"type": "occ",
				"energy": -0.29734,
				"method": "rhf"
			},
			{
				"type": "occ",
				"energy": -0.23936,
				"method": "rhf"
			},
			{
				"type": "unocc",
				"energy": -0.014,
				"method": "rhf"
			},
			{
				"type": "unocc",
				"energy": 0.07715,
				"method": "rhf"
			},
			{
				"type": "unocc",
				"energy": 0.09419,
				"method": "rhf"
			},
			{
				"type": "unocc",
				"energy": 0.09951,
				"method": "rhf"
			},
			{
				"type": "unocc",
				"energy": 0.12152,
				"method": "rhf"
			}
		],
		"cosmo_sigma_profile": { 
			"-0.025": 0.0,
			"-0.024": 0.0,
			"-0.023": 0.0,
			"-0.022": 0.0,
			"-0.021": 0.0,
			"-0.02": 0.0,
			"-0.019": 0.0,
			"-0.018": 0.0,
			"-0.017": 0.0,
			"-0.016": 0.0,
			"-0.015": 0.0,
			"-0.014": 0.0,
			"-0.013": 0.0,
			"-0.012": 0.0,
			"-0.011": 0.0,
			"-0.01": 0.0,
			"-0.009": 0.0,
			"-0.008": 0.0,
			"-0.007": 0.049739613721,
			"-0.006": 3.35031411549,
			"-0.005": 8.35460712276,
			"-0.004": 8.93840239731,
			"-0.003": 14.4143298145,
			"-0.002": 30.332796267,
			"-0.001": 38.3690125087,
			"0.0": 40.3786868505,
			"0.001": 27.9821855641,
			"0.002": 8.89942343395,
			"0.003": 2.49807653264,
			"0.004": 2.54938535332,
			"0.005": 1.98636171661,
			"0.006": 2.38664238724,
			"0.007": 1.91043966382,
			"0.008": 1.06061168886,
			"0.009": 1.41489237426,
			"0.01": 1.77874148532,
			"0.011": 2.13090845738,
			"0.012": 3.32882273386,
			"0.013": 2.45936809735,
			"0.014": 0.415696638224,
			"0.015": 0.0,
			"0.016": 0.0,
			"0.017": 0.0,
			"0.018": 0.0,
			"0.019": 0.0,
			"0.02": 0.0,
			"0.021": 0.0,
			"0.022": 0.0,
			"0.023": 0.0,
			"0.024": 0.0,
			"0.025": 0.0
		}
	}
}
