{
	 "smiles": "BrC1=CC(OC2=CC=CC=C2)=CC=C1", 
	 "Tm": 293.15, 
	 "num_atms": 23, 
	 "gaussian": { 
		 "optdone": 1, 
		 "sigma_profile": "yes", 
		 "theory": "DFT", 
		 "functional": "B3LYP", 
		 "basiset": "6-31G**", 
		 "properties": { 
			 "R2extent": 6539.9883, 
			 "electric_dipole_moment_norm": 2.70125093244, 
			 "electric_quadrupole_moment_norm": 4.29881983921, 
			 "total_energy": -3109.31926444, 
			 "HOMO_LUMO_gap": 0.20591, 
			 "cosmo_polarized_energy": -5.81, 
			 "cosmo_cavitation_energy": 29.87, 
			 "cosmo_dispersion_energy": -22.16, 
			 "cosmo_repulsion_energy": 1.75, 
			 "cosmo_total_nonelectrostatic_energy": 9.45, 
			 "SMD_solvation_energy": 4.13 
		},
		"coords": [
			{
				"x": -4.7599272083,
				"y": 2.3716654763,
				"z": 1.4415596213,
				"element": "Br" 
			},
			{
				"x": -3.4274375434,
				"y": 1.368589551,
				"z": 0.5052680522,
				"element": "C" 
			},
			{
				"x": -2.0912537855,
				"y": 1.536312008,
				"z": 0.8536927218,
				"element": "C" 
			},
			{
				"x": -1.1193224264,
				"y": 0.80224148,
				"z": 0.166292884,
				"element": "C" 
			},
			{
				"x": 0.1860330595,
				"y": 1.0671225233,
				"z": 0.5121772629,
				"element": "O" 
			},
			{
				"x": 1.1655668948,
				"y": 0.0960709723,
				"z": 0.3825709032,
				"element": "C" 
			},
			{
				"x": 0.9913512275,
				"y": -1.2025827943,
				"z": 0.8693014899,
				"element": "C" 
			},
			{
				"x": 2.0479641704,
				"y": -2.1092341233,
				"z": 0.779151053,
				"element": "C" 
			},
			{
				"x": 3.2690126713,
				"y": -1.7246536329,
				"z": 0.2200991182,
				"element": "C" 
			},
			{
				"x": 3.4316092891,
				"y": -0.4208072486,
				"z": -0.2524868736,
				"element": "C" 
			},
			{
				"x": 2.3803508723,
				"y": 0.4935323222,
				"z": -0.1770535435,
				"element": "C" 
			},
			{
				"x": -1.4813557374,
				"y": -0.084735145,
				"z": -0.8527521899,
				"element": "C" 
			},
			{
				"x": -2.8309011691,
				"y": -0.2347415745,
				"z": -1.171843855,
				"element": "C" 
			},
			{
				"x": -3.8196112011,
				"y": 0.4865153768,
				"z": -0.5009220496,
				"element": "C" 
			},
			{
				"x": -1.7886891267,
				"y": 2.2199985467,
				"z": 1.6371827681,
				"element": "H" 
			},
			{
				"x": 0.0452263126,
				"y": -1.492145585,
				"z": 1.3141883684,
				"element": "H" 
			},
			{
				"x": 1.9162227304,
				"y": -3.1189085966,
				"z": 1.1573629058,
				"element": "H" 
			},
			{
				"x": 4.0876945727,
				"y": -2.4348285445,
				"z": 0.1567319586,
				"element": "H" 
			},
			{
				"x": 4.3781646445,
				"y": -0.1118483877,
				"z": -0.6863047365,
				"element": "H" 
			},
			{
				"x": 2.4844255936,
				"y": 1.5113279702,
				"z": -0.5381125014,
				"element": "H" 
			},
			{
				"x": -0.7201586527,
				"y": -0.6418016943,
				"z": -1.3863297909,
				"element": "H" 
			},
			{
				"x": -3.1174598792,
				"y": -0.9207442848,
				"z": -1.9635584073,
				"element": "H" 
			},
			{
				"x": -4.8667053091,
				"y": 0.3697553848,
				"z": -0.75281516,
				"element": "H" 
			}
		],
		 "valence_orbital": [ 
			{
				"type": "occ",
				"energy": -0.28623,
				"method": "rhf"
			},
			{
				"type": "occ",
				"energy": -0.26037,
				"method": "rhf"
			},
			{
				"type": "occ",
				"energy": -0.25752,
				"method": "rhf"
			},
			{
				"type": "occ",
				"energy": -0.24707,
				"method": "rhf"
			},
			{
				"type": "occ",
				"energy": -0.22564,
				"method": "rhf"
			},
			{
				"type": "unocc",
				"energy": -0.01973,
				"method": "rhf"
			},
			{
				"type": "unocc",
				"energy": -0.01329,
				"method": "rhf"
			},
			{
				"type": "unocc",
				"energy": -0.00628,
				"method": "rhf"
			},
			{
				"type": "unocc",
				"energy": 0.00347,
				"method": "rhf"
			},
			{
				"type": "unocc",
				"energy": 0.00774,
				"method": "rhf"
			}
		],
		"cosmo_sigma_profile": { 
			"-0.025": 0.0,
			"-0.024": 0.0,
			"-0.023": 0.0,
			"-0.022": 0.0,
			"-0.021": 0.0,
			"-0.02": 0.0,
			"-0.019": 0.0,
			"-0.018": 0.0,
			"-0.017": 0.0,
			"-0.016": 0.0,
			"-0.015": 0.0,
			"-0.014": 0.0,
			"-0.013": 0.0,
			"-0.012": 0.0,
			"-0.011": 0.0,
			"-0.01": 0.0,
			"-0.009": 0.0,
			"-0.008": 0.166122384427,
			"-0.007": 5.3875355268,
			"-0.006": 14.863494669,
			"-0.005": 17.373600453,
			"-0.004": 19.3142152889,
			"-0.003": 16.1694103962,
			"-0.002": 15.3892745928,
			"-0.001": 14.6153687891,
			"0.0": 16.7384920501,
			"0.001": 19.5006113895,
			"0.002": 26.4202436494,
			"0.003": 30.3214586302,
			"0.004": 26.0449162543,
			"0.005": 16.211660253,
			"0.006": 2.10860601579,
			"0.007": 1.07719951333,
			"0.008": 1.31057502942,
			"0.009": 0.536834857992,
			"0.01": 0.0,
			"0.011": 0.0,
			"0.012": 0.0,
			"0.013": 0.0,
			"0.014": 0.0,
			"0.015": 0.0,
			"0.016": 0.0,
			"0.017": 0.0,
			"0.018": 0.0,
			"0.019": 0.0,
			"0.02": 0.0,
			"0.021": 0.0,
			"0.022": 0.0,
			"0.023": 0.0,
			"0.024": 0.0,
			"0.025": 0.0
		}
	}
}
