{
	 "smiles": "CC(O)CO", 
	 "Tm": 213.15, 
	 "num_atms": 13, 
	 "gaussian": { 
		 "optdone": 1, 
		 "sigma_profile": "yes", 
		 "theory": "DFT", 
		 "functional": "B3LYP", 
		 "basiset": "6-31G**", 
		 "properties": { 
			 "R2extent": 573.2359, 
			 "electric_dipole_moment_norm": 0.206898356688, 
			 "electric_quadrupole_moment_norm": 9.72633258428, 
			 "total_energy": -269.571571704, 
			 "HOMO_LUMO_gap": 0.32065, 
			 "cosmo_polarized_energy": -10.12, 
			 "cosmo_cavitation_energy": 15.74, 
			 "cosmo_dispersion_energy": -11.71, 
			 "cosmo_repulsion_energy": 1.06, 
			 "cosmo_total_nonelectrostatic_energy": 5.08, 
			 "SMD_solvation_energy": 2.97 
		},
		"coords": [
			{
				"x": 0.903799252,
				"y": 0.5357584479,
				"z": 0.5046598936,
				"element": "C" 
			},
			{
				"x": -0.3059503769,
				"y": 1.0191155269,
				"z": -0.2899064997,
				"element": "C" 
			},
			{
				"x": -0.6660050247,
				"y": 2.3613927561,
				"z": 0.03147161,
				"element": "O" 
			},
			{
				"x": -1.5249930681,
				"y": 0.0987447067,
				"z": -0.1202042546,
				"element": "C" 
			},
			{
				"x": -1.2747619448,
				"y": -1.2424848867,
				"z": -0.5188732445,
				"element": "O" 
			},
			{
				"x": 1.1502465993,
				"y": -0.4952617003,
				"z": 0.237041716,
				"element": "H" 
			},
			{
				"x": 0.68643787,
				"y": 0.5541573011,
				"z": 1.58113027,
				"element": "H" 
			},
			{
				"x": 1.7715857374,
				"y": 1.1747485506,
				"z": 0.3190959813,
				"element": "H" 
			},
			{
				"x": -0.0467026163,
				"y": 1.0503842023,
				"z": -1.3576299033,
				"element": "H" 
			},
			{
				"x": -0.7889093059,
				"y": 2.4073848315,
				"z": 0.9896556599,
				"element": "H" 
			},
			{
				"x": -2.3770524975,
				"y": 0.5399026404,
				"z": -0.6577431167,
				"element": "H" 
			},
			{
				"x": -1.7971738003,
				"y": 0.0498775955,
				"z": 0.9421132802,
				"element": "H" 
			},
			{
				"x": -1.1651208242,
				"y": -1.2486199719,
				"z": -1.4786113921,
				"element": "H" 
			}
		],
		 "valence_orbital": [ 
			{
				"type": "occ",
				"energy": -0.36486,
				"method": "rhf"
			},
			{
				"type": "occ",
				"energy": -0.35499,
				"method": "rhf"
			},
			{
				"type": "occ",
				"energy": -0.31423,
				"method": "rhf"
			},
			{
				"type": "occ",
				"energy": -0.29296,
				"method": "rhf"
			},
			{
				"type": "occ",
				"energy": -0.25318,
				"method": "rhf"
			},
			{
				"type": "unocc",
				"energy": 0.06747,
				"method": "rhf"
			},
			{
				"type": "unocc",
				"energy": 0.07755,
				"method": "rhf"
			},
			{
				"type": "unocc",
				"energy": 0.125,
				"method": "rhf"
			},
			{
				"type": "unocc",
				"energy": 0.13777,
				"method": "rhf"
			},
			{
				"type": "unocc",
				"energy": 0.14991,
				"method": "rhf"
			}
		],
		"cosmo_sigma_profile": { 
			"-0.025": 0.0,
			"-0.024": 0.0,
			"-0.023": 0.0,
			"-0.022": 0.0,
			"-0.021": 0.0,
			"-0.02": 0.0,
			"-0.019": 0.0,
			"-0.018": 0.0,
			"-0.017": 0.0,
			"-0.016": 0.236636366144,
			"-0.015": 1.86502464822,
			"-0.014": 1.37765987498,
			"-0.013": 1.80188880115,
			"-0.012": 2.55476344591,
			"-0.011": 1.79082824244,
			"-0.01": 2.38099123186,
			"-0.009": 1.98393612705,
			"-0.008": 2.06343714492,
			"-0.007": 2.02876272791,
			"-0.006": 3.13958841363,
			"-0.005": 4.31396267857,
			"-0.004": 6.65946763931,
			"-0.003": 9.99586364245,
			"-0.002": 9.5979875995,
			"-0.001": 11.1986891381,
			"0.0": 10.4558849823,
			"0.001": 8.91817871225,
			"0.002": 4.82032316694,
			"0.003": 2.84947758849,
			"0.004": 2.70280168467,
			"0.005": 2.82890207156,
			"0.006": 2.40962887223,
			"0.007": 2.35408347531,
			"0.008": 1.91935850049,
			"0.009": 2.85009179182,
			"0.01": 2.46816285238,
			"0.011": 2.42404210376,
			"0.012": 1.96572014975,
			"0.013": 3.2908401147,
			"0.014": 4.31788902141,
			"0.015": 1.48188517783,
			"0.016": 0.0,
			"0.017": 0.0,
			"0.018": 0.0,
			"0.019": 0.0,
			"0.02": 0.0,
			"0.021": 0.0,
			"0.022": 0.0,
			"0.023": 0.0,
			"0.024": 0.0,
			"0.025": 0.0
		}
	}
}
