{
	 "smiles": "NC1=NC2=C(S1)C=C(C=C2)S(=O)(=O)N1CCCC1", 
	 "Tm": 499.15, 
	 "num_atms": 31, 
	 "gaussian": { 
		 "optdone": 1, 
		 "sigma_profile": "yes", 
		 "theory": "DFT", 
		 "functional": "B3LYP", 
		 "basiset": "6-31G**", 
		 "properties": { 
			 "R2extent": 6203.305, 
			 "electric_dipole_moment_norm": 7.79350655995, 
			 "electric_quadrupole_moment_norm": 20.5730427873, 
			 "total_energy": -1538.02648226, 
			 "HOMO_LUMO_gap": 0.18659, 
			 "cosmo_polarized_energy": -21.17, 
			 "cosmo_cavitation_energy": 36.48, 
			 "cosmo_dispersion_energy": -27.4, 
			 "cosmo_repulsion_energy": 2.04, 
			 "cosmo_total_nonelectrostatic_energy": 11.13, 
			 "SMD_solvation_energy": 1.71 
		},
		"coords": [
			{
				"x": -3.8133908019,
				"y": 4.1475417553,
				"z": -0.8118594675,
				"element": "N" 
			},
			{
				"x": -2.8620366076,
				"y": 3.2414123171,
				"z": -0.4456230378,
				"element": "C" 
			},
			{
				"x": -2.9931216401,
				"y": 2.4137036441,
				"z": 0.5456426079,
				"element": "N" 
			},
			{
				"x": -1.8425284489,
				"y": 1.6662435369,
				"z": 0.7137959037,
				"element": "C" 
			},
			{
				"x": -0.7917359412,
				"y": 1.9303491875,
				"z": -0.2040524972,
				"element": "C" 
			},
			{
				"x": -1.2950753341,
				"y": 3.2081347524,
				"z": -1.3088608715,
				"element": "S" 
			},
			{
				"x": 0.4190018601,
				"y": 1.2500411534,
				"z": -0.1564918082,
				"element": "C" 
			},
			{
				"x": 0.5742759524,
				"y": 0.2804724054,
				"z": 0.8399225716,
				"element": "C" 
			},
			{
				"x": -0.4425639727,
				"y": 0.0094540449,
				"z": 1.7703526483,
				"element": "C" 
			},
			{
				"x": -1.6493351869,
				"y": 0.6978240237,
				"z": 1.7090190599,
				"element": "C" 
			},
			{
				"x": 2.0998963807,
				"y": -0.6642468983,
				"z": 0.8957288943,
				"element": "S" 
			},
			{
				"x": 3.1360937443,
				"y": 0.148172126,
				"z": 0.2521606145,
				"element": "O" 
			},
			{
				"x": 2.2378489562,
				"y": -1.1855525923,
				"z": 2.2573688569,
				"element": "O" 
			},
			{
				"x": 1.8781523762,
				"y": -1.9915867085,
				"z": -0.0890668703,
				"element": "N" 
			},
			{
				"x": 1.8932181342,
				"y": -1.8431039635,
				"z": -1.555375742,
				"element": "C" 
			},
			{
				"x": 1.5916695146,
				"y": -3.2730016088,
				"z": -2.0144990575,
				"element": "C" 
			},
			{
				"x": 0.5522048025,
				"y": -3.7535985758,
				"z": -0.9852808856,
				"element": "C" 
			},
			{
				"x": 0.9913604828,
				"y": -3.0991672289,
				"z": 0.3421883074,
				"element": "C" 
			},
			{
				"x": -3.8083132596,
				"y": 4.5068968196,
				"z": -1.7538701877,
				"element": "H" 
			},
			{
				"x": -4.7233649095,
				"y": 3.9979930137,
				"z": -0.3986387228,
				"element": "H" 
			},
			{
				"x": 1.2367870797,
				"y": 1.4705380396,
				"z": -0.8329792219,
				"element": "H" 
			},
			{
				"x": -0.2596274978,
				"y": -0.716773718,
				"z": 2.5542232397,
				"element": "H" 
			},
			{
				"x": -2.4416939371,
				"y": 0.5097598594,
				"z": 2.4255493758,
				"element": "H" 
			},
			{
				"x": 1.1118270606,
				"y": -1.1497780559,
				"z": -1.9062830823,
				"element": "H" 
			},
			{
				"x": 2.8638164064,
				"y": -1.4669374598,
				"z": -1.882029056,
				"element": "H" 
			},
			{
				"x": 2.5019002071,
				"y": -3.8787081217,
				"z": -1.9530104301,
				"element": "H" 
			},
			{
				"x": 1.2249768971,
				"y": -3.3111543788,
				"z": -3.0438785003,
				"element": "H" 
			},
			{
				"x": 0.4974257525,
				"y": -4.8425936949,
				"z": -0.9077346996,
				"element": "H" 
			},
			{
				"x": -0.4426372448,
				"y": -3.3918926592,
				"z": -1.2672006135,
				"element": "H" 
			},
			{
				"x": 0.1300660929,
				"y": -2.7351250374,
				"z": 0.9139234108,
				"element": "H" 
			},
			{
				"x": 1.5551030817,
				"y": -3.781715977,
				"z": 0.984359261,
				"element": "H" 
			}
		],
		 "valence_orbital": [ 
			{
				"type": "occ",
				"energy": -0.28922,
				"method": "rhf"
			},
			{
				"type": "occ",
				"energy": -0.28778,
				"method": "rhf"
			},
			{
				"type": "occ",
				"energy": -0.25119,
				"method": "rhf"
			},
			{
				"type": "occ",
				"energy": -0.24567,
				"method": "rhf"
			},
			{
				"type": "occ",
				"energy": -0.22485,
				"method": "rhf"
			},
			{
				"type": "unocc",
				"energy": -0.03826,
				"method": "rhf"
			},
			{
				"type": "unocc",
				"energy": -0.01855,
				"method": "rhf"
			},
			{
				"type": "unocc",
				"energy": -0.01156,
				"method": "rhf"
			},
			{
				"type": "unocc",
				"energy": 0.02425,
				"method": "rhf"
			},
			{
				"type": "unocc",
				"energy": 0.05446,
				"method": "rhf"
			}
		],
		"cosmo_sigma_profile": { 
			"-0.025": 0.0,
			"-0.024": 0.0,
			"-0.023": 0.0,
			"-0.022": 0.0,
			"-0.021": 0.0,
			"-0.02": 0.0,
			"-0.019": 0.0,
			"-0.018": 0.0,
			"-0.017": 0.0,
			"-0.016": 0.385527335549,
			"-0.015": 2.19245905403,
			"-0.014": 2.63668738701,
			"-0.013": 2.46035616906,
			"-0.012": 2.73159810756,
			"-0.011": 2.85884387176,
			"-0.01": 1.69451435743,
			"-0.009": 1.48985625305,
			"-0.008": 3.96342833541,
			"-0.007": 5.11122127069,
			"-0.006": 5.95124070949,
			"-0.005": 11.04707836,
			"-0.004": 27.7239697644,
			"-0.003": 32.8408943621,
			"-0.002": 26.3145584211,
			"-0.001": 22.1237309859,
			"0.0": 18.5274733577,
			"0.001": 17.6767081988,
			"0.002": 21.8783509076,
			"0.003": 16.8752954689,
			"0.004": 9.4583000067,
			"0.005": 6.26991532717,
			"0.006": 7.11081910549,
			"0.007": 7.24963570592,
			"0.008": 4.86250774283,
			"0.009": 4.96963889022,
			"0.01": 6.3827874743,
			"0.011": 9.83952102504,
			"0.012": 7.0260726376,
			"0.013": 1.158671277,
			"0.014": 0.741400078465,
			"0.015": 0.241452678762,
			"0.016": 0.0,
			"0.017": 0.0,
			"0.018": 0.0,
			"0.019": 0.0,
			"0.02": 0.0,
			"0.021": 0.0,
			"0.022": 0.0,
			"0.023": 0.0,
			"0.024": 0.0,
			"0.025": 0.0
		}
	}
}
