{
	 "smiles": "FC(F)(F)C1=NN=C(S)N1N=CC1=CC=C(Cl)C=C1", 
	 "Tm": 528.15, 
	 "num_atms": 25, 
	 "gaussian": { 
		 "optdone": 1, 
		 "sigma_profile": "yes", 
		 "theory": "DFT", 
		 "functional": "B3LYP", 
		 "basiset": "6-31G**", 
		 "properties": { 
			 "R2extent": 8510.2794, 
			 "electric_dipole_moment_norm": 5.232586758, 
			 "electric_quadrupole_moment_norm": 17.5310384729, 
			 "total_energy": -1761.50734489, 
			 "HOMO_LUMO_gap": 0.16238, 
			 "cosmo_polarized_energy": -14.88, 
			 "cosmo_cavitation_energy": 36.33, 
			 "cosmo_dispersion_energy": -25.79, 
			 "cosmo_repulsion_energy": 1.88, 
			 "cosmo_total_nonelectrostatic_energy": 12.42, 
			 "SMD_solvation_energy": 4.65 
		},
		"coords": [
			{
				"x": -3.7636584614,
				"y": 0.8281308827,
				"z": -0.4537903484,
				"element": "F" 
			},
			{
				"x": -3.3760037528,
				"y": 2.0787970191,
				"z": -0.1247718027,
				"element": "C" 
			},
			{
				"x": -4.4633990755,
				"y": 2.7880531103,
				"z": 0.1934083656,
				"element": "F" 
			},
			{
				"x": -2.8183113152,
				"y": 2.6278855287,
				"z": -1.2232932061,
				"element": "F" 
			},
			{
				"x": -2.412862519,
				"y": 2.0603573262,
				"z": 1.026530106,
				"element": "C" 
			},
			{
				"x": -2.5819626217,
				"y": 2.6648562376,
				"z": 2.1708453408,
				"element": "N" 
			},
			{
				"x": -1.477174989,
				"y": 2.3916968319,
				"z": 2.9488204,
				"element": "N" 
			},
			{
				"x": -0.6749537199,
				"y": 1.616220183,
				"z": 2.2528437129,
				"element": "C" 
			},
			{
				"x": 0.9175302245,
				"y": 1.0887874245,
				"z": 2.7966757499,
				"element": "S" 
			},
			{
				"x": -1.2260208046,
				"y": 1.3560660922,
				"z": 1.0097738146,
				"element": "N" 
			},
			{
				"x": -0.7861579676,
				"y": 0.7029354254,
				"z": -0.1230744014,
				"element": "N" 
			},
			{
				"x": 0.0172577362,
				"y": -0.2911722035,
				"z": 0.0161988675,
				"element": "C" 
			},
			{
				"x": 0.529540855,
				"y": -1.0033334619,
				"z": -1.15247462,
				"element": "C" 
			},
			{
				"x": 1.3872748472,
				"y": -2.0978410419,
				"z": -0.9620333278,
				"element": "C" 
			},
			{
				"x": 1.8909687331,
				"y": -2.8071236524,
				"z": -2.0493171889,
				"element": "C" 
			},
			{
				"x": 1.5295125951,
				"y": -2.4132038946,
				"z": -3.337687441,
				"element": "C" 
			},
			{
				"x": 2.1565006299,
				"y": -3.2956063547,
				"z": -4.7139710453,
				"element": "Cl" 
			},
			{
				"x": 0.6758766759,
				"y": -1.3251333073,
				"z": -3.5525833415,
				"element": "C" 
			},
			{
				"x": 0.1807204282,
				"y": -0.6235995982,
				"z": -2.4618184585,
				"element": "C" 
			},
			{
				"x": 0.8934259332,
				"y": 1.9308352372,
				"z": 3.8485542744,
				"element": "H" 
			},
			{
				"x": 0.3356944919,
				"y": -0.6630989316,
				"z": 0.9934797867,
				"element": "H" 
			},
			{
				"x": 1.6637481813,
				"y": -2.3985743599,
				"z": 0.0450434496,
				"element": "H" 
			},
			{
				"x": 2.5535810516,
				"y": -3.652540099,
				"z": -1.9037746736,
				"element": "H" 
			},
			{
				"x": 0.4094547218,
				"y": -1.0383196921,
				"z": -4.5636042313,
				"element": "H" 
			},
			{
				"x": -0.4821818782,
				"y": 0.2225252982,
				"z": -2.6070797815,
				"element": "H" 
			}
		],
		 "valence_orbital": [ 
			{
				"type": "occ",
				"energy": -0.30289,
				"method": "rhf"
			},
			{
				"type": "occ",
				"energy": -0.28856,
				"method": "rhf"
			},
			{
				"type": "occ",
				"energy": -0.27564,
				"method": "rhf"
			},
			{
				"type": "occ",
				"energy": -0.26044,
				"method": "rhf"
			},
			{
				"type": "occ",
				"energy": -0.25428,
				"method": "rhf"
			},
			{
				"type": "unocc",
				"energy": -0.0919,
				"method": "rhf"
			},
			{
				"type": "unocc",
				"energy": -0.0368,
				"method": "rhf"
			},
			{
				"type": "unocc",
				"energy": -0.01722,
				"method": "rhf"
			},
			{
				"type": "unocc",
				"energy": -0.01077,
				"method": "rhf"
			},
			{
				"type": "unocc",
				"energy": 0.01034,
				"method": "rhf"
			}
		],
		"cosmo_sigma_profile": { 
			"-0.025": 0.0,
			"-0.024": 0.0,
			"-0.023": 0.0,
			"-0.022": 0.0,
			"-0.021": 0.0,
			"-0.02": 0.0,
			"-0.019": 0.0,
			"-0.018": 0.0,
			"-0.017": 0.0,
			"-0.016": 0.0,
			"-0.015": 0.0,
			"-0.014": 0.0545422607846,
			"-0.013": 1.45283746316,
			"-0.012": 1.32499619357,
			"-0.011": 1.89524703479,
			"-0.01": 3.84873997772,
			"-0.009": 3.50332762121,
			"-0.008": 7.59349120763,
			"-0.007": 9.99895941212,
			"-0.006": 10.8631163476,
			"-0.005": 11.7236623037,
			"-0.004": 13.6905030088,
			"-0.003": 16.3855274507,
			"-0.002": 17.2868120259,
			"-0.001": 19.6915575618,
			"0.0": 26.557108334,
			"0.001": 34.5139303803,
			"0.002": 49.6308401449,
			"0.003": 20.3357572072,
			"0.004": 17.2057593935,
			"0.005": 7.18619383785,
			"0.006": 3.19573582962,
			"0.007": 2.28582502894,
			"0.008": 2.19515700223,
			"0.009": 2.63037742092,
			"0.01": 2.82397815375,
			"0.011": 2.56478162135,
			"0.012": 3.38493702831,
			"0.013": 2.16950077635,
			"0.014": 2.19311696969,
			"0.015": 0.311276501657,
			"0.016": 0.0,
			"0.017": 0.0,
			"0.018": 0.0,
			"0.019": 0.0,
			"0.02": 0.0,
			"0.021": 0.0,
			"0.022": 0.0,
			"0.023": 0.0,
			"0.024": 0.0,
			"0.025": 0.0
		}
	}
}
