{
	 "smiles": "COC1=C(C=CC(Cl)=C1)C(=O)NN", 
	 "Tm": 452.15, 
	 "num_atms": 22, 
	 "gaussian": { 
		 "optdone": 1, 
		 "sigma_profile": "yes", 
		 "theory": "DFT", 
		 "functional": "B3LYP", 
		 "basiset": "6-31G**", 
		 "properties": { 
			 "R2extent": 3783.7959, 
			 "electric_dipole_moment_norm": 3.7809075154, 
			 "electric_quadrupole_moment_norm": 11.3064296699, 
			 "total_energy": -1030.38220968, 
			 "HOMO_LUMO_gap": 0.19803, 
			 "cosmo_polarized_energy": -15.11, 
			 "cosmo_cavitation_energy": 27.95, 
			 "cosmo_dispersion_energy": -20.28, 
			 "cosmo_repulsion_energy": 1.63, 
			 "cosmo_total_nonelectrostatic_energy": 9.31, 
			 "SMD_solvation_energy": 6.36 
		},
		"coords": [
			{
				"x": -2.7537586844,
				"y": -0.6246088738,
				"z": -0.6288658357,
				"element": "C" 
			},
			{
				"x": -1.5996158938,
				"y": -1.2276124143,
				"z": -0.0503157142,
				"element": "O" 
			},
			{
				"x": -0.8513180389,
				"y": -0.5045841743,
				"z": 0.836547,
				"element": "C" 
			},
			{
				"x": 0.3846057397,
				"y": -1.0578073844,
				"z": 1.2357030435,
				"element": "C" 
			},
			{
				"x": 1.1996477764,
				"y": -0.3102937904,
				"z": 2.0919279064,
				"element": "C" 
			},
			{
				"x": 0.8049250248,
				"y": 0.9235978887,
				"z": 2.6040333668,
				"element": "C" 
			},
			{
				"x": -0.4298810025,
				"y": 1.4304850088,
				"z": 2.2111071606,
				"element": "C" 
			},
			{
				"x": -0.9647816452,
				"y": 2.9866537133,
				"z": 2.8265959711,
				"element": "Cl" 
			},
			{
				"x": -1.2601624269,
				"y": 0.7409427792,
				"z": 1.3283194452,
				"element": "C" 
			},
			{
				"x": 0.9807055224,
				"y": -2.3378302287,
				"z": 0.7000509758,
				"element": "C" 
			},
			{
				"x": 2.1417750362,
				"y": -2.3662340375,
				"z": 0.3049284406,
				"element": "O" 
			},
			{
				"x": 0.2135157946,
				"y": -3.4721564738,
				"z": 0.7105158621,
				"element": "N" 
			},
			{
				"x": -1.0078228258,
				"y": -3.6819520747,
				"z": 1.3728497206,
				"element": "N" 
			},
			{
				"x": -3.1282031542,
				"y": -1.3427609025,
				"z": -1.3590392644,
				"element": "H" 
			},
			{
				"x": -3.5303364079,
				"y": -0.4330225611,
				"z": 0.1216823006,
				"element": "H" 
			},
			{
				"x": -2.49818757,
				"y": 0.3122987208,
				"z": -1.1364482118,
				"element": "H" 
			},
			{
				"x": 2.1725114107,
				"y": -0.7172456174,
				"z": 2.3469476803,
				"element": "H" 
			},
			{
				"x": 1.442838575,
				"y": 1.4828105828,
				"z": 3.2778980374,
				"element": "H" 
			},
			{
				"x": -2.2027687967,
				"y": 1.1817316234,
				"z": 1.0335658721,
				"element": "H" 
			},
			{
				"x": 0.6890997315,
				"y": -4.3091031337,
				"z": 0.3992060685,
				"element": "H" 
			},
			{
				"x": -1.7184946334,
				"y": -3.1187392346,
				"z": 0.9133330359,
				"element": "H" 
			},
			{
				"x": -0.9322935318,
				"y": -3.3760694158,
				"z": 2.3408571387,
				"element": "H" 
			}
		],
		 "valence_orbital": [ 
			{
				"type": "occ",
				"energy": -0.28281,
				"method": "rhf"
			},
			{
				"type": "occ",
				"energy": -0.26699,
				"method": "rhf"
			},
			{
				"type": "occ",
				"energy": -0.25371,
				"method": "rhf"
			},
			{
				"type": "occ",
				"energy": -0.24864,
				"method": "rhf"
			},
			{
				"type": "occ",
				"energy": -0.23597,
				"method": "rhf"
			},
			{
				"type": "unocc",
				"energy": -0.03794,
				"method": "rhf"
			},
			{
				"type": "unocc",
				"energy": -0.01275,
				"method": "rhf"
			},
			{
				"type": "unocc",
				"energy": 0.02073,
				"method": "rhf"
			},
			{
				"type": "unocc",
				"energy": 0.03863,
				"method": "rhf"
			},
			{
				"type": "unocc",
				"energy": 0.07496,
				"method": "rhf"
			}
		],
		"cosmo_sigma_profile": { 
			"-0.025": 0.0,
			"-0.024": 0.0,
			"-0.023": 0.0,
			"-0.022": 0.0,
			"-0.021": 0.0,
			"-0.02": 0.0,
			"-0.019": 0.0,
			"-0.018": 0.0,
			"-0.017": 0.0,
			"-0.016": 0.0,
			"-0.015": 0.0,
			"-0.014": 0.152408182658,
			"-0.013": 1.04269969406,
			"-0.012": 1.14150272629,
			"-0.011": 1.90868377219,
			"-0.01": 1.70353740649,
			"-0.009": 2.94974170535,
			"-0.008": 5.03622007749,
			"-0.007": 10.0526129753,
			"-0.006": 15.9841517684,
			"-0.005": 15.6157731269,
			"-0.004": 17.3238563817,
			"-0.003": 14.6677128541,
			"-0.002": 10.2810709736,
			"-0.001": 9.950923387,
			"0.0": 11.8091711193,
			"0.001": 16.8133027221,
			"0.002": 19.6899902278,
			"0.003": 17.0159469713,
			"0.004": 14.6613688445,
			"0.005": 6.78863056319,
			"0.006": 3.74795072691,
			"0.007": 3.56082116943,
			"0.008": 1.91249079835,
			"0.009": 2.20354920459,
			"0.01": 1.17859380551,
			"0.011": 2.644908592,
			"0.012": 2.92034095301,
			"0.013": 5.46018296919,
			"0.014": 4.6346028119,
			"0.015": 0.882535540845,
			"0.016": 0.732800984557,
			"0.017": 0.0186959509063,
			"0.018": 0.0,
			"0.019": 0.0,
			"0.02": 0.0,
			"0.021": 0.0,
			"0.022": 0.0,
			"0.023": 0.0,
			"0.024": 0.0,
			"0.025": 0.0
		}
	}
}
