{
	 "smiles": "O=C1CCCCCCCC1", 
	 "Tm": 307.15, 
	 "num_atms": 26, 
	 "gaussian": { 
		 "optdone": 1, 
		 "sigma_profile": "yes", 
		 "theory": "DFT", 
		 "functional": "B3LYP", 
		 "basiset": "6-31G**", 
		 "properties": { 
			 "R2extent": 1946.114, 
			 "electric_dipole_moment_norm": 2.36433093073, 
			 "electric_quadrupole_moment_norm": 10.2253709053, 
			 "total_energy": -427.827111998, 
			 "HOMO_LUMO_gap": 0.21798, 
			 "cosmo_polarized_energy": -6.16, 
			 "cosmo_cavitation_energy": 24.66, 
			 "cosmo_dispersion_energy": -18.68, 
			 "cosmo_repulsion_energy": 1.51, 
			 "cosmo_total_nonelectrostatic_energy": 7.49, 
			 "SMD_solvation_energy": 3.61 
		},
		"coords": [
			{
				"x": -2.8113632883,
				"y": 0.7459508652,
				"z": -0.0808589895,
				"element": "O" 
			},
			{
				"x": -1.6011951253,
				"y": 0.7380637009,
				"z": 0.0635770716,
				"element": "C" 
			},
			{
				"x": -0.9734272052,
				"y": 0.676100045,
				"z": 1.4559781524,
				"element": "C" 
			},
			{
				"x": -1.2412220553,
				"y": -0.6754686854,
				"z": 2.1798306007,
				"element": "C" 
			},
			{
				"x": -1.2222133272,
				"y": -1.9280172663,
				"z": 1.2805569208,
				"element": "C" 
			},
			{
				"x": 0.0033990176,
				"y": -2.0665648575,
				"z": 0.3424613637,
				"element": "C" 
			},
			{
				"x": -0.3315114497,
				"y": -2.4848270596,
				"z": -1.1092210832,
				"element": "C" 
			},
			{
				"x": -1.3906292028,
				"y": -1.6606438745,
				"z": -1.8715255395,
				"element": "C" 
			},
			{
				"x": -1.0576387961,
				"y": -0.2109326939,
				"z": -2.2761096675,
				"element": "C" 
			},
			{
				"x": -0.6629243781,
				"y": 0.7635086826,
				"z": -1.1451519167,
				"element": "C" 
			},
			{
				"x": 0.1021335344,
				"y": 0.8645383023,
				"z": 1.3889706996,
				"element": "H" 
			},
			{
				"x": -1.4088096976,
				"y": 1.48283058,
				"z": 2.0560785748,
				"element": "H" 
			},
			{
				"x": -0.5025329898,
				"y": -0.7709433193,
				"z": 2.9851230425,
				"element": "H" 
			},
			{
				"x": -2.2228918707,
				"y": -0.6235313483,
				"z": 2.6621047327,
				"element": "H" 
			},
			{
				"x": -2.1413578999,
				"y": -1.9179459247,
				"z": 0.6874888818,
				"element": "H" 
			},
			{
				"x": -1.3014093298,
				"y": -2.8126585505,
				"z": 1.9232395166,
				"element": "H" 
			},
			{
				"x": 0.6991071211,
				"y": -2.8086432248,
				"z": 0.7525585505,
				"element": "H" 
			},
			{
				"x": 0.5716022534,
				"y": -1.1321641854,
				"z": 0.327482224,
				"element": "H" 
			},
			{
				"x": -0.6881129038,
				"y": -3.5237940056,
				"z": -1.0896350344,
				"element": "H" 
			},
			{
				"x": 0.6018245287,
				"y": -2.5023407905,
				"z": -1.6889007083,
				"element": "H" 
			},
			{
				"x": -1.617754948,
				"y": -2.2033268382,
				"z": -2.7981920776,
				"element": "H" 
			},
			{
				"x": -2.3295604784,
				"y": -1.6520743067,
				"z": -1.3082637147,
				"element": "H" 
			},
			{
				"x": -0.2444128757,
				"y": -0.2088300728,
				"z": -3.0133599867,
				"element": "H" 
			},
			{
				"x": -1.9395927034,
				"y": 0.1931920631,
				"z": -2.7844134619,
				"element": "H" 
			},
			{
				"x": 0.3686582405,
				"y": 0.5945912129,
				"z": -0.8267414218,
				"element": "H" 
			},
			{
				"x": -0.6937641706,
				"y": 1.7887315519,
				"z": -1.5411767298,
				"element": "H" 
			}
		],
		 "valence_orbital": [ 
			{
				"type": "occ",
				"energy": -0.32389,
				"method": "rhf"
			},
			{
				"type": "occ",
				"energy": -0.31447,
				"method": "rhf"
			},
			{
				"type": "occ",
				"energy": -0.30774,
				"method": "rhf"
			},
			{
				"type": "occ",
				"energy": -0.30132,
				"method": "rhf"
			},
			{
				"type": "occ",
				"energy": -0.23519,
				"method": "rhf"
			},
			{
				"type": "unocc",
				"energy": -0.01721,
				"method": "rhf"
			},
			{
				"type": "unocc",
				"energy": 0.07627,
				"method": "rhf"
			},
			{
				"type": "unocc",
				"energy": 0.09675,
				"method": "rhf"
			},
			{
				"type": "unocc",
				"energy": 0.10548,
				"method": "rhf"
			},
			{
				"type": "unocc",
				"energy": 0.12045,
				"method": "rhf"
			}
		],
		"cosmo_sigma_profile": { 
			"-0.025": 0.0,
			"-0.024": 0.0,
			"-0.023": 0.0,
			"-0.022": 0.0,
			"-0.021": 0.0,
			"-0.02": 0.0,
			"-0.019": 0.0,
			"-0.018": 0.0,
			"-0.017": 0.0,
			"-0.016": 0.0,
			"-0.015": 0.0,
			"-0.014": 0.0,
			"-0.013": 0.0,
			"-0.012": 0.0,
			"-0.011": 0.0,
			"-0.01": 0.0,
			"-0.009": 0.0,
			"-0.008": 0.0,
			"-0.007": 0.0135693928279,
			"-0.006": 1.28029817304,
			"-0.005": 6.37790694365,
			"-0.004": 9.93976668768,
			"-0.003": 17.8820939058,
			"-0.002": 33.2641749335,
			"-0.001": 38.4193655805,
			"0.0": 33.8474739267,
			"0.001": 19.9022635037,
			"0.002": 4.56630608446,
			"0.003": 2.59019978491,
			"0.004": 1.58859179178,
			"0.005": 1.70543825014,
			"0.006": 2.02255528054,
			"0.007": 1.74027023274,
			"0.008": 1.71404091186,
			"0.009": 1.33929573551,
			"0.01": 1.36588657064,
			"0.011": 2.21785128966,
			"0.012": 3.57956712665,
			"0.013": 3.34522673818,
			"0.014": 0.90960773849,
			"0.015": 0.0,
			"0.016": 0.0,
			"0.017": 0.0,
			"0.018": 0.0,
			"0.019": 0.0,
			"0.02": 0.0,
			"0.021": 0.0,
			"0.022": 0.0,
			"0.023": 0.0,
			"0.024": 0.0,
			"0.025": 0.0
		}
	}
}
