{
	 "smiles": "OC(=O)C1=C(C=CC(F)=C1)C1=CC=CC=C1", 
	 "Tm": 391.15, 
	 "num_atms": 25, 
	 "gaussian": { 
		 "optdone": 1, 
		 "sigma_profile": "yes", 
		 "theory": "DFT", 
		 "functional": "B3LYP", 
		 "basiset": "6-31G**", 
		 "properties": { 
			 "R2extent": 3948.9262, 
			 "electric_dipole_moment_norm": 0.694815774144, 
			 "electric_quadrupole_moment_norm": 8.42514453763, 
			 "total_energy": -751.105393287, 
			 "HOMO_LUMO_gap": 0.17606, 
			 "cosmo_polarized_energy": -11.27, 
			 "cosmo_cavitation_energy": 30.29, 
			 "cosmo_dispersion_energy": -21.52, 
			 "cosmo_repulsion_energy": 1.65, 
			 "cosmo_total_nonelectrostatic_energy": 10.42, 
			 "SMD_solvation_energy": 6.61 
		},
		"coords": [
			{
				"x": 2.8513763542,
				"y": -0.5980121409,
				"z": -2.3301428037,
				"element": "O" 
			},
			{
				"x": 2.3377462843,
				"y": -0.3548490276,
				"z": -1.0939940847,
				"element": "C" 
			},
			{
				"x": 2.7939561557,
				"y": -0.8804881942,
				"z": -0.1015794516,
				"element": "O" 
			},
			{
				"x": 1.2172419484,
				"y": 0.6341191685,
				"z": -1.132859116,
				"element": "C" 
			},
			{
				"x": 0.2924138085,
				"y": 0.7543099208,
				"z": -0.067433434,
				"element": "C" 
			},
			{
				"x": -0.6472337215,
				"y": 1.7967949526,
				"z": -0.1316957467,
				"element": "C" 
			},
			{
				"x": -0.6952743935,
				"y": 2.6900292748,
				"z": -1.1991862205,
				"element": "C" 
			},
			{
				"x": 0.2118675217,
				"y": 2.5271622103,
				"z": -2.2382269162,
				"element": "C" 
			},
			{
				"x": 0.1745004221,
				"y": 3.374712858,
				"z": -3.2860537573,
				"element": "F" 
			},
			{
				"x": 1.1602758944,
				"y": 1.5173101004,
				"z": -2.2222876877,
				"element": "C" 
			},
			{
				"x": 0.2098904088,
				"y": -0.1794219128,
				"z": 1.0928164597,
				"element": "C" 
			},
			{
				"x": 0.2537876745,
				"y": 0.3230054326,
				"z": 2.4013507837,
				"element": "C" 
			},
			{
				"x": 0.1035393909,
				"y": -0.5279087256,
				"z": 3.4972173964,
				"element": "C" 
			},
			{
				"x": -0.10493248,
				"y": -1.8929773524,
				"z": 3.3003318402,
				"element": "C" 
			},
			{
				"x": -0.1604451398,
				"y": -2.40219662,
				"z": 2.0005502075,
				"element": "C" 
			},
			{
				"x": -0.0043425858,
				"y": -1.553662373,
				"z": 0.9071993842,
				"element": "C" 
			},
			{
				"x": 3.5971446907,
				"y": -1.203291606,
				"z": -2.1848515993,
				"element": "H" 
			},
			{
				"x": -1.3714825738,
				"y": 1.8900069471,
				"z": 0.6712126325,
				"element": "H" 
			},
			{
				"x": -1.4264278222,
				"y": 3.4902399692,
				"z": -1.2398529927,
				"element": "H" 
			},
			{
				"x": 1.8640771226,
				"y": 1.4292063762,
				"z": -3.0400088978,
				"element": "H" 
			},
			{
				"x": 0.4253205241,
				"y": 1.384141202,
				"z": 2.5588150106,
				"element": "H" 
			},
			{
				"x": 0.1516715084,
				"y": -0.1224044097,
				"z": 4.5038822631,
				"element": "H" 
			},
			{
				"x": -0.224832194,
				"y": -2.5562089087,
				"z": 4.1521107846,
				"element": "H" 
			},
			{
				"x": -0.329469597,
				"y": -3.4628882849,
				"z": 1.8380423485,
				"element": "H" 
			},
			{
				"x": -0.0590692015,
				"y": -1.9552288568,
				"z": -0.1003564028,
				"element": "H" 
			}
		],
		 "valence_orbital": [ 
			{
				"type": "occ",
				"energy": -0.28436,
				"method": "rhf"
			},
			{
				"type": "occ",
				"energy": -0.27176,
				"method": "rhf"
			},
			{
				"type": "occ",
				"energy": -0.26182,
				"method": "rhf"
			},
			{
				"type": "occ",
				"energy": -0.24773,
				"method": "rhf"
			},
			{
				"type": "occ",
				"energy": -0.23129,
				"method": "rhf"
			},
			{
				"type": "unocc",
				"energy": -0.05523,
				"method": "rhf"
			},
			{
				"type": "unocc",
				"energy": -0.02133,
				"method": "rhf"
			},
			{
				"type": "unocc",
				"energy": 0.00133,
				"method": "rhf"
			},
			{
				"type": "unocc",
				"energy": 0.01253,
				"method": "rhf"
			},
			{
				"type": "unocc",
				"energy": 0.04867,
				"method": "rhf"
			}
		],
		"cosmo_sigma_profile": { 
			"-0.025": 0.0,
			"-0.024": 0.0,
			"-0.023": 0.0,
			"-0.022": 0.0,
			"-0.021": 0.0,
			"-0.02": 0.0,
			"-0.019": 0.0399078556501,
			"-0.018": 0.728446045581,
			"-0.017": 0.884273627669,
			"-0.016": 0.940420018764,
			"-0.015": 0.689032652803,
			"-0.014": 0.809390076284,
			"-0.013": 0.279013626702,
			"-0.012": 0.626642606995,
			"-0.011": 1.25065993573,
			"-0.01": 0.729740251459,
			"-0.009": 0.648853373608,
			"-0.008": 1.85522033982,
			"-0.007": 4.77968590196,
			"-0.006": 11.5726282012,
			"-0.005": 16.8794318598,
			"-0.004": 17.3366740934,
			"-0.003": 17.2448011548,
			"-0.002": 14.9705387911,
			"-0.001": 15.8879616885,
			"0.0": 20.5402662514,
			"0.001": 23.2466617942,
			"0.002": 20.8209747384,
			"0.003": 14.2490973636,
			"0.004": 18.9044456279,
			"0.005": 10.5702805493,
			"0.006": 6.45646230493,
			"0.007": 3.79515977564,
			"0.008": 2.90811175909,
			"0.009": 2.35940365529,
			"0.01": 2.59306052158,
			"0.011": 3.59954251115,
			"0.012": 4.58089235727,
			"0.013": 0.413753444469,
			"0.014": 0.0,
			"0.015": 0.0,
			"0.016": 0.0,
			"0.017": 0.0,
			"0.018": 0.0,
			"0.019": 0.0,
			"0.02": 0.0,
			"0.021": 0.0,
			"0.022": 0.0,
			"0.023": 0.0,
			"0.024": 0.0,
			"0.025": 0.0
		}
	}
}
