{
	 "smiles": "CC1(CCCN(C1)C(=O)C1=CC=CC=C1)C(O)=O", 
	 "Tm": 425.15, 
	 "num_atms": 35, 
	 "gaussian": { 
		 "optdone": 1, 
		 "sigma_profile": "yes", 
		 "theory": "DFT", 
		 "functional": "B3LYP", 
		 "basiset": "6-31G**", 
		 "properties": { 
			 "R2extent": 5676.1329, 
			 "electric_dipole_moment_norm": 4.03354492847, 
			 "electric_quadrupole_moment_norm": 20.4386464569, 
			 "total_energy": -824.18384385, 
			 "HOMO_LUMO_gap": 0.20142, 
			 "cosmo_polarized_energy": -18.29, 
			 "cosmo_cavitation_energy": 35.78, 
			 "cosmo_dispersion_energy": -25.53, 
			 "cosmo_repulsion_energy": 1.94, 
			 "cosmo_total_nonelectrostatic_energy": 12.19, 
			 "SMD_solvation_energy": 6.57 
		},
		"coords": [
			{
				"x": 3.0660681548,
				"y": 1.6725468273,
				"z": -1.0564141516,
				"element": "C" 
			},
			{
				"x": 1.6472642791,
				"y": 2.1467217505,
				"z": -1.4293477837,
				"element": "C" 
			},
			{
				"x": 0.9133664072,
				"y": 2.6931679041,
				"z": -0.1604230867,
				"element": "C" 
			},
			{
				"x": -0.6070316426,
				"y": 2.6058064614,
				"z": -0.3236501973,
				"element": "C" 
			},
			{
				"x": -1.0564291579,
				"y": 1.1265414852,
				"z": -0.4037590247,
				"element": "C" 
			},
			{
				"x": 0.0115096421,
				"y": 0.2984318088,
				"z": -0.9846206611,
				"element": "N" 
			},
			{
				"x": 0.8056469021,
				"y": 0.9707179012,
				"z": -2.0124395217,
				"element": "C" 
			},
			{
				"x": 0.5009792894,
				"y": -0.8627493239,
				"z": -0.4292200569,
				"element": "C" 
			},
			{
				"x": 1.6261677629,
				"y": -1.2890416097,
				"z": -0.6999004765,
				"element": "O" 
			},
			{
				"x": -0.3860157688,
				"y": -1.6481934763,
				"z": 0.4986424448,
				"element": "C" 
			},
			{
				"x": 0.2258273813,
				"y": -2.3105976581,
				"z": 1.5724901285,
				"element": "C" 
			},
			{
				"x": -0.5265295465,
				"y": -3.1116152632,
				"z": 2.4283425028,
				"element": "C" 
			},
			{
				"x": -1.8948793421,
				"y": -3.2848002661,
				"z": 2.2028366242,
				"element": "C" 
			},
			{
				"x": -2.5058153532,
				"y": -2.6543481103,
				"z": 1.1175437926,
				"element": "C" 
			},
			{
				"x": -1.7568051244,
				"y": -1.8353747424,
				"z": 0.2715459374,
				"element": "C" 
			},
			{
				"x": 1.6607003681,
				"y": 3.2941631472,
				"z": -2.4603833767,
				"element": "C" 
			},
			{
				"x": 2.7267486445,
				"y": 4.1330949287,
				"z": -2.4250096572,
				"element": "O" 
			},
			{
				"x": 0.7605847824,
				"y": 3.5155170555,
				"z": -3.2374625476,
				"element": "O" 
			},
			{
				"x": 3.6701609053,
				"y": 1.462999604,
				"z": -1.9459630661,
				"element": "H" 
			},
			{
				"x": 2.9992124506,
				"y": 0.7425567087,
				"z": -0.4878977732,
				"element": "H" 
			},
			{
				"x": 3.5999557196,
				"y": 2.4019114788,
				"z": -0.4305745275,
				"element": "H" 
			},
			{
				"x": 1.2297305338,
				"y": 2.0923980597,
				"z": 0.7012228813,
				"element": "H" 
			},
			{
				"x": 1.2285284846,
				"y": 3.7229435062,
				"z": 0.0424734126,
				"element": "H" 
			},
			{
				"x": -1.1168526405,
				"y": 3.0899963454,
				"z": 0.5155665215,
				"element": "H" 
			},
			{
				"x": -0.9009540616,
				"y": 3.1453034832,
				"z": -1.2293428765,
				"element": "H" 
			},
			{
				"x": -1.2774257059,
				"y": 0.747909935,
				"z": 0.5951132077,
				"element": "H" 
			},
			{
				"x": -1.9765587894,
				"y": 1.0469474655,
				"z": -0.9984089733,
				"element": "H" 
			},
			{
				"x": 0.1214040908,
				"y": 1.3681191361,
				"z": -2.7660974601,
				"element": "H" 
			},
			{
				"x": 1.453321793,
				"y": 0.2277178678,
				"z": -2.4773237555,
				"element": "H" 
			},
			{
				"x": 1.2952546282,
				"y": -2.1940887681,
				"z": 1.7133685827,
				"element": "H" 
			},
			{
				"x": -0.0455080712,
				"y": -3.6098506494,
				"z": 3.2650861072,
				"element": "H" 
			},
			{
				"x": -2.4802300675,
				"y": -3.9166269698,
				"z": 2.8647619826,
				"element": "H" 
			},
			{
				"x": -3.5644174937,
				"y": -2.8035380024,
				"z": 0.9255020757,
				"element": "H" 
			},
			{
				"x": -2.2340926296,
				"y": -1.3622514378,
				"z": -0.5808194619,
				"element": "H" 
			},
			{
				"x": 3.3818131752,
				"y": 3.814363417,
				"z": -1.7883377657,
				"element": "H" 
			}
		],
		 "valence_orbital": [ 
			{
				"type": "occ",
				"energy": -0.27035,
				"method": "rhf"
			},
			{
				"type": "occ",
				"energy": -0.26657,
				"method": "rhf"
			},
			{
				"type": "occ",
				"energy": -0.2593,
				"method": "rhf"
			},
			{
				"type": "occ",
				"energy": -0.24666,
				"method": "rhf"
			},
			{
				"type": "occ",
				"energy": -0.23565,
				"method": "rhf"
			},
			{
				"type": "unocc",
				"energy": -0.03423,
				"method": "rhf"
			},
			{
				"type": "unocc",
				"energy": -0.00956,
				"method": "rhf"
			},
			{
				"type": "unocc",
				"energy": 0.00694,
				"method": "rhf"
			},
			{
				"type": "unocc",
				"energy": 0.04756,
				"method": "rhf"
			},
			{
				"type": "unocc",
				"energy": 0.05583,
				"method": "rhf"
			}
		],
		"cosmo_sigma_profile": { 
			"-0.025": 0.0,
			"-0.024": 0.0,
			"-0.023": 0.0,
			"-0.022": 0.0,
			"-0.021": 0.0,
			"-0.02": 0.0,
			"-0.019": 0.0,
			"-0.018": 0.0,
			"-0.017": 0.476119188403,
			"-0.016": 0.550629460766,
			"-0.015": 1.13858706622,
			"-0.014": 0.886485126902,
			"-0.013": 1.63845082064,
			"-0.012": 0.86812751104,
			"-0.011": 0.830150288943,
			"-0.01": 0.825276866167,
			"-0.009": 1.20298457891,
			"-0.008": 1.69029335647,
			"-0.007": 2.72827216829,
			"-0.006": 11.6065463649,
			"-0.005": 20.5456417577,
			"-0.004": 34.1755994066,
			"-0.003": 28.0050013851,
			"-0.002": 28.3651239841,
			"-0.001": 25.24791772,
			"0.0": 17.3231220934,
			"0.001": 12.359334986,
			"0.002": 11.2412716846,
			"0.003": 12.9898509404,
			"0.004": 13.0036870793,
			"0.005": 11.1997084948,
			"0.006": 4.51439375993,
			"0.007": 3.75948465526,
			"0.008": 4.4238916743,
			"0.009": 4.77699215667,
			"0.01": 5.16845485085,
			"0.011": 6.83980589383,
			"0.012": 5.55050112983,
			"0.013": 4.10820959749,
			"0.014": 3.2040683224,
			"0.015": 0.520996841878,
			"0.016": 0.0,
			"0.017": 0.0,
			"0.018": 0.0,
			"0.019": 0.0,
			"0.02": 0.0,
			"0.021": 0.0,
			"0.022": 0.0,
			"0.023": 0.0,
			"0.024": 0.0,
			"0.025": 0.0
		}
	}
}
