{
	 "smiles": "OC1=C(Br)C2=CC=C(Br)C=C2C=C1", 
	 "Tm": 379.15, 
	 "num_atms": 19, 
	 "gaussian": { 
		 "optdone": 1, 
		 "sigma_profile": "yes", 
		 "theory": "DFT", 
		 "functional": "B3LYP", 
		 "basiset": "6-31G**", 
		 "properties": { 
			 "R2extent": 6031.9973, 
			 "electric_dipole_moment_norm": 1.0949061969, 
			 "electric_quadrupole_moment_norm": 7.03196590649, 
			 "total_energy": -5602.72229011, 
			 "HOMO_LUMO_gap": 0.16315, 
			 "cosmo_polarized_energy": -6.39, 
			 "cosmo_cavitation_energy": 27.45, 
			 "cosmo_dispersion_energy": -21.54, 
			 "cosmo_repulsion_energy": 1.67, 
			 "cosmo_total_nonelectrostatic_energy": 7.58, 
			 "SMD_solvation_energy": 2.57 
		},
		"coords": [
			{
				"x": 1.2160547328,
				"y": -2.1613823328,
				"z": 3.6938477998,
				"element": "O" 
			},
			{
				"x": 0.8981489435,
				"y": -1.3218812678,
				"z": 2.6827483241,
				"element": "C" 
			},
			{
				"x": 1.4509021652,
				"y": -1.3803909007,
				"z": 1.414247366,
				"element": "C" 
			},
			{
				"x": 2.7550278251,
				"y": -2.7539230749,
				"z": 1.0898883097,
				"element": "Br" 
			},
			{
				"x": 1.0819264541,
				"y": -0.4724013995,
				"z": 0.3841027363,
				"element": "C" 
			},
			{
				"x": 1.6219542006,
				"y": -0.4956552568,
				"z": -0.9286140366,
				"element": "C" 
			},
			{
				"x": 1.2221009527,
				"y": 0.4131110853,
				"z": -1.882728127,
				"element": "C" 
			},
			{
				"x": 0.256805688,
				"y": 1.3909605294,
				"z": -1.5589421034,
				"element": "C" 
			},
			{
				"x": -0.2798651308,
				"y": 2.6393418111,
				"z": -2.9023893889,
				"element": "Br" 
			},
			{
				"x": -0.2947256703,
				"y": 1.4535181479,
				"z": -0.3019627167,
				"element": "C" 
			},
			{
				"x": 0.101311963,
				"y": 0.5281439853,
				"z": 0.6975571795,
				"element": "C" 
			},
			{
				"x": -0.4542334327,
				"y": 0.5715308783,
				"z": 2.0057681632,
				"element": "C" 
			},
			{
				"x": -0.0703063683,
				"y": -0.3231912673,
				"z": 2.9694579689,
				"element": "C" 
			},
			{
				"x": 1.882552314,
				"y": -2.7926341256,
				"z": 3.3756306485,
				"element": "H" 
			},
			{
				"x": 2.3633576356,
				"y": -1.2447829371,
				"z": -1.1815443337,
				"element": "H" 
			},
			{
				"x": 1.643166885,
				"y": 0.3832133543,
				"z": -2.8810636045,
				"element": "H" 
			},
			{
				"x": -1.0359791646,
				"y": 2.207875109,
				"z": -0.0607580053,
				"element": "H" 
			},
			{
				"x": -1.1954659316,
				"y": 1.3317832501,
				"z": 2.2341785488,
				"element": "H" 
			},
			{
				"x": -0.4863340611,
				"y": -0.3008355883,
				"z": 3.9709752713,
				"element": "H" 
			}
		],
		 "valence_orbital": [ 
			{
				"type": "occ",
				"energy": -0.30213,
				"method": "rhf"
			},
			{
				"type": "occ",
				"energy": -0.28931,
				"method": "rhf"
			},
			{
				"type": "occ",
				"energy": -0.27216,
				"method": "rhf"
			},
			{
				"type": "occ",
				"energy": -0.24719,
				"method": "rhf"
			},
			{
				"type": "occ",
				"energy": -0.21844,
				"method": "rhf"
			},
			{
				"type": "unocc",
				"energy": -0.05529,
				"method": "rhf"
			},
			{
				"type": "unocc",
				"energy": -0.02214,
				"method": "rhf"
			},
			{
				"type": "unocc",
				"energy": -0.00727,
				"method": "rhf"
			},
			{
				"type": "unocc",
				"energy": 0.00515,
				"method": "rhf"
			},
			{
				"type": "unocc",
				"energy": 0.01574,
				"method": "rhf"
			}
		],
		"cosmo_sigma_profile": { 
			"-0.025": 0.0,
			"-0.024": 0.0,
			"-0.023": 0.0,
			"-0.022": 0.0,
			"-0.021": 0.0,
			"-0.02": 0.0,
			"-0.019": 0.0,
			"-0.018": 0.0,
			"-0.017": 0.0,
			"-0.016": 0.0,
			"-0.015": 0.0286008242623,
			"-0.014": 0.648323313524,
			"-0.013": 0.495435311842,
			"-0.012": 1.29689742814,
			"-0.011": 0.361209566767,
			"-0.01": 0.690377912061,
			"-0.009": 1.06764689972,
			"-0.008": 2.76308381617,
			"-0.007": 8.73745164694,
			"-0.006": 9.43420943566,
			"-0.005": 10.5633279673,
			"-0.004": 10.9444031992,
			"-0.003": 10.8719108609,
			"-0.002": 12.4796829055,
			"-0.001": 14.8639849868,
			"0.0": 16.1264065622,
			"0.001": 27.8493403662,
			"0.002": 39.095911736,
			"0.003": 26.9664758252,
			"0.004": 17.4288590555,
			"0.005": 7.58927248306,
			"0.006": 1.06838661797,
			"0.007": 1.21604077153,
			"0.008": 1.46572250057,
			"0.009": 1.8198282772,
			"0.01": 1.54491981957,
			"0.011": 0.303898222022,
			"0.012": 0.0,
			"0.013": 0.0,
			"0.014": 0.0,
			"0.015": 0.0,
			"0.016": 0.0,
			"0.017": 0.0,
			"0.018": 0.0,
			"0.019": 0.0,
			"0.02": 0.0,
			"0.021": 0.0,
			"0.022": 0.0,
			"0.023": 0.0,
			"0.024": 0.0,
			"0.025": 0.0
		}
	}
}
