{
	 "smiles": "O1C=C(N=C1C1=CC=CC=C1)C1=CC=CC=C1", 
	 "Tm": 376.15, 
	 "num_atms": 28, 
	 "gaussian": { 
		 "optdone": 1, 
		 "sigma_profile": "yes", 
		 "theory": "DFT", 
		 "functional": "B3LYP", 
		 "basiset": "6-31G**", 
		 "properties": { 
			 "R2extent": 6020.2377, 
			 "electric_dipole_moment_norm": 0.971125728214, 
			 "electric_quadrupole_moment_norm": 15.6991586456, 
			 "total_energy": -708.201877074, 
			 "HOMO_LUMO_gap": 0.16799, 
			 "cosmo_polarized_energy": -8.27, 
			 "cosmo_cavitation_energy": 32.86, 
			 "cosmo_dispersion_energy": -24.26, 
			 "cosmo_repulsion_energy": 1.83, 
			 "cosmo_total_nonelectrostatic_energy": 10.43, 
			 "SMD_solvation_energy": 4.99 
		},
		"coords": [
			{
				"x": -1.5894361626,
				"y": 1.2242246607,
				"z": 0.4100811974,
				"element": "O" 
			},
			{
				"x": -0.336951401,
				"y": 1.7632970715,
				"z": 0.5176207912,
				"element": "C" 
			},
			{
				"x": 0.5268792845,
				"y": 0.7730034605,
				"z": 0.8916230587,
				"element": "C" 
			},
			{
				"x": -0.2002734178,
				"y": -0.4068447707,
				"z": 1.0201695587,
				"element": "N" 
			},
			{
				"x": -1.4302825509,
				"y": -0.0939120332,
				"z": 0.7290353656,
				"element": "C" 
			},
			{
				"x": -2.6046954569,
				"y": -0.9614091872,
				"z": 0.7079010198,
				"element": "C" 
			},
			{
				"x": -3.872438652,
				"y": -0.4625054789,
				"z": 0.3688878069,
				"element": "C" 
			},
			{
				"x": -4.9758019409,
				"y": -1.3133083141,
				"z": 0.3568323108,
				"element": "C" 
			},
			{
				"x": -4.8273689455,
				"y": -2.6636386034,
				"z": 0.6810899803,
				"element": "C" 
			},
			{
				"x": -3.5660998177,
				"y": -3.1628708614,
				"z": 1.019053451,
				"element": "C" 
			},
			{
				"x": -2.4587332381,
				"y": -2.3200765476,
				"z": 1.0335811399,
				"element": "C" 
			},
			{
				"x": 1.9727520303,
				"y": 0.8249115428,
				"z": 1.1412287333,
				"element": "C" 
			},
			{
				"x": 2.6572326493,
				"y": -0.3401136635,
				"z": 1.5216436396,
				"element": "C" 
			},
			{
				"x": 4.0297481468,
				"y": -0.3069951152,
				"z": 1.7621390738,
				"element": "C" 
			},
			{
				"x": 4.7414996407,
				"y": 0.886504818,
				"z": 1.6275025272,
				"element": "C" 
			},
			{
				"x": 4.0683281533,
				"y": 2.0511037637,
				"z": 1.2492110541,
				"element": "C" 
			},
			{
				"x": 2.6970585836,
				"y": 2.021585146,
				"z": 1.0081696296,
				"element": "C" 
			},
			{
				"x": -0.2488089171,
				"y": 2.8150737285,
				"z": 0.301969424,
				"element": "H" 
			},
			{
				"x": -3.9856257145,
				"y": 0.586569882,
				"z": 0.1173970256,
				"element": "H" 
			},
			{
				"x": -5.9537288885,
				"y": -0.920863889,
				"z": 0.0936300759,
				"element": "H" 
			},
			{
				"x": -5.6896354812,
				"y": -3.323939113,
				"z": 0.6706588285,
				"element": "H" 
			},
			{
				"x": -3.4462952146,
				"y": -4.2123451712,
				"z": 1.271880832,
				"element": "H" 
			},
			{
				"x": -1.4739358893,
				"y": -2.6929363178,
				"z": 1.2937190412,
				"element": "H" 
			},
			{
				"x": 2.0965124887,
				"y": -1.2626636702,
				"z": 1.6237808254,
				"element": "H" 
			},
			{
				"x": 4.5451491667,
				"y": -1.2171766403,
				"z": 2.0558508924,
				"element": "H" 
			},
			{
				"x": 5.8110040655,
				"y": 0.9107547752,
				"z": 1.8152344099,
				"element": "H" 
			},
			{
				"x": 4.6130448555,
				"y": 2.9848491952,
				"z": 1.1416749417,
				"element": "H" 
			},
			{
				"x": 2.1877026239,
				"y": 2.9354213328,
				"z": 0.7147333653,
				"element": "H" 
			}
		],
		 "valence_orbital": [ 
			{
				"type": "occ",
				"energy": -0.28764,
				"method": "rhf"
			},
			{
				"type": "occ",
				"energy": -0.25645,
				"method": "rhf"
			},
			{
				"type": "occ",
				"energy": -0.24993,
				"method": "rhf"
			},
			{
				"type": "occ",
				"energy": -0.24644,
				"method": "rhf"
			},
			{
				"type": "occ",
				"energy": -0.21042,
				"method": "rhf"
			},
			{
				"type": "unocc",
				"energy": -0.04243,
				"method": "rhf"
			},
			{
				"type": "unocc",
				"energy": -0.02383,
				"method": "rhf"
			},
			{
				"type": "unocc",
				"energy": -0.00496,
				"method": "rhf"
			},
			{
				"type": "unocc",
				"energy": 0.00209,
				"method": "rhf"
			},
			{
				"type": "unocc",
				"energy": 0.05375,
				"method": "rhf"
			}
		],
		"cosmo_sigma_profile": { 
			"-0.025": 0.0,
			"-0.024": 0.0,
			"-0.023": 0.0,
			"-0.022": 0.0,
			"-0.021": 0.0,
			"-0.02": 0.0,
			"-0.019": 0.0,
			"-0.018": 0.0,
			"-0.017": 0.0,
			"-0.016": 0.0,
			"-0.015": 0.0,
			"-0.014": 0.0,
			"-0.013": 0.0,
			"-0.012": 0.0,
			"-0.011": 0.0754577711661,
			"-0.01": 1.70219523438,
			"-0.009": 2.50860831642,
			"-0.008": 2.33144790737,
			"-0.007": 2.9614558899,
			"-0.006": 12.4706707904,
			"-0.005": 19.3159570449,
			"-0.004": 22.1142859706,
			"-0.003": 18.7091542645,
			"-0.002": 15.3458111576,
			"-0.001": 17.8825149263,
			"0.0": 18.3576977816,
			"0.001": 23.0240041871,
			"0.002": 25.0371937654,
			"0.003": 24.3983312309,
			"0.004": 25.577839012,
			"0.005": 20.3619828049,
			"0.006": 6.59415804571,
			"0.007": 1.28510117347,
			"0.008": 2.05942144222,
			"0.009": 1.59050578004,
			"0.01": 1.38558741158,
			"0.011": 0.126080736548,
			"0.012": 0.0,
			"0.013": 0.0,
			"0.014": 0.0,
			"0.015": 0.0,
			"0.016": 0.0,
			"0.017": 0.0,
			"0.018": 0.0,
			"0.019": 0.0,
			"0.02": 0.0,
			"0.021": 0.0,
			"0.022": 0.0,
			"0.023": 0.0,
			"0.024": 0.0,
			"0.025": 0.0
		}
	}
}
