{
	 "smiles": "CC1=CC(=CC=C1)C1(CCCC1)C(O)=O", 
	 "Tm": 430.15, 
	 "num_atms": 31, 
	 "gaussian": { 
		 "optdone": 1, 
		 "sigma_profile": "yes", 
		 "theory": "DFT", 
		 "functional": "B3LYP", 
		 "basiset": "6-31G**", 
		 "properties": { 
			 "R2extent": 3413.5489, 
			 "electric_dipole_moment_norm": 4.18874304535, 
			 "electric_quadrupole_moment_norm": 15.5365844055, 
			 "total_energy": -655.495747652, 
			 "HOMO_LUMO_gap": 0.23039, 
			 "cosmo_polarized_energy": -11.43, 
			 "cosmo_cavitation_energy": 32.12, 
			 "cosmo_dispersion_energy": -22.75, 
			 "cosmo_repulsion_energy": 1.79, 
			 "cosmo_total_nonelectrostatic_energy": 11.15, 
			 "SMD_solvation_energy": 5.87 
		},
		"coords": [
			{
				"x": -3.9696918648,
				"y": -0.9677732808,
				"z": -1.1257182588,
				"element": "C" 
			},
			{
				"x": -2.4733905002,
				"y": -1.0649940251,
				"z": -1.3117924353,
				"element": "C" 
			},
			{
				"x": -1.598357554,
				"y": -0.7342123912,
				"z": -0.271181164,
				"element": "C" 
			},
			{
				"x": -0.2012449019,
				"y": -0.7957896429,
				"z": -0.4172723533,
				"element": "C" 
			},
			{
				"x": 0.3133244143,
				"y": -1.1916459356,
				"z": -1.6593952261,
				"element": "C" 
			},
			{
				"x": -0.5455397193,
				"y": -1.5259283867,
				"z": -2.7080767325,
				"element": "C" 
			},
			{
				"x": -1.9268688512,
				"y": -1.4691136787,
				"z": -2.5373185163,
				"element": "C" 
			},
			{
				"x": 0.701723038,
				"y": -0.3444481686,
				"z": 0.7381608011,
				"element": "C" 
			},
			{
				"x": 0.8999024919,
				"y": 1.2089244388,
				"z": 0.7126265742,
				"element": "C" 
			},
			{
				"x": 2.381977661,
				"y": 1.4486193981,
				"z": 1.0389884682,
				"element": "C" 
			},
			{
				"x": 3.0847247278,
				"y": 0.2659423591,
				"z": 0.3577723042,
				"element": "C" 
			},
			{
				"x": 2.1721954289,
				"y": -0.9250345164,
				"z": 0.6982604787,
				"element": "C" 
			},
			{
				"x": 0.1168169282,
				"y": -0.7841128025,
				"z": 2.0937940661,
				"element": "C" 
			},
			{
				"x": -0.2497861589,
				"y": -2.0906528409,
				"z": 2.1720363175,
				"element": "O" 
			},
			{
				"x": 0.0425525633,
				"y": -0.0809409023,
				"z": 3.0723079721,
				"element": "O" 
			},
			{
				"x": -4.4858791365,
				"y": -1.8146686563,
				"z": -1.589224814,
				"element": "H" 
			},
			{
				"x": -4.2415476733,
				"y": -0.94321991,
				"z": -0.066918301,
				"element": "H" 
			},
			{
				"x": -4.3661560662,
				"y": -0.0556751762,
				"z": -1.5885622033,
				"element": "H" 
			},
			{
				"x": -2.0207745787,
				"y": -0.4174921149,
				"z": 0.6799467435,
				"element": "H" 
			},
			{
				"x": 1.3852798889,
				"y": -1.2329239126,
				"z": -1.8224425903,
				"element": "H" 
			},
			{
				"x": -0.130543323,
				"y": -1.8355951278,
				"z": -3.663249182,
				"element": "H" 
			},
			{
				"x": -2.5867600869,
				"y": -1.7386262828,
				"z": -3.3581961519,
				"element": "H" 
			},
			{
				"x": 0.2207438581,
				"y": 1.6986648996,
				"z": 1.412958666,
				"element": "H" 
			},
			{
				"x": 0.6778235898,
				"y": 1.5751212214,
				"z": -0.2946544659,
				"element": "H" 
			},
			{
				"x": 2.535545305,
				"y": 1.4015159934,
				"z": 2.123341578,
				"element": "H" 
			},
			{
				"x": 2.7386027517,
				"y": 2.4238289372,
				"z": 0.6927487737,
				"element": "H" 
			},
			{
				"x": 4.1139318671,
				"y": 0.1113252213,
				"z": 0.6970232629,
				"element": "H" 
			},
			{
				"x": 3.1167057898,
				"y": 0.4263075132,
				"z": -0.7276845507,
				"element": "H" 
			},
			{
				"x": 2.4388552072,
				"y": -1.3035197131,
				"z": 1.6909203891,
				"element": "H" 
			},
			{
				"x": 2.2706531537,
				"y": -1.7678448214,
				"z": 0.0097928431,
				"element": "H" 
			},
			{
				"x": -0.2308182502,
				"y": -2.4832376952,
				"z": 1.285607707,
				"element": "H" 
			}
		],
		 "valence_orbital": [ 
			{
				"type": "occ",
				"energy": -0.32769,
				"method": "rhf"
			},
			{
				"type": "occ",
				"energy": -0.30738,
				"method": "rhf"
			},
			{
				"type": "occ",
				"energy": -0.26482,
				"method": "rhf"
			},
			{
				"type": "occ",
				"energy": -0.25378,
				"method": "rhf"
			},
			{
				"type": "occ",
				"energy": -0.24577,
				"method": "rhf"
			},
			{
				"type": "unocc",
				"energy": -0.01538,
				"method": "rhf"
			},
			{
				"type": "unocc",
				"energy": -0.01032,
				"method": "rhf"
			},
			{
				"type": "unocc",
				"energy": 0.01552,
				"method": "rhf"
			},
			{
				"type": "unocc",
				"energy": 0.07815,
				"method": "rhf"
			},
			{
				"type": "unocc",
				"energy": 0.08834,
				"method": "rhf"
			}
		],
		"cosmo_sigma_profile": { 
			"-0.025": 0.0,
			"-0.024": 0.0,
			"-0.023": 0.0,
			"-0.022": 0.0,
			"-0.021": 0.0,
			"-0.02": 0.0,
			"-0.019": 0.0,
			"-0.018": 0.0,
			"-0.017": 0.145697637848,
			"-0.016": 0.347523704973,
			"-0.015": 0.517646225243,
			"-0.014": 0.762424897638,
			"-0.013": 0.737089970092,
			"-0.012": 0.494148035135,
			"-0.011": 1.15238573468,
			"-0.01": 0.535432477094,
			"-0.009": 0.765778019833,
			"-0.008": 1.02480239842,
			"-0.007": 1.25363044962,
			"-0.006": 3.53169789577,
			"-0.005": 12.5162902015,
			"-0.004": 21.1345673782,
			"-0.003": 28.7506666517,
			"-0.002": 31.9894451111,
			"-0.001": 28.9505899186,
			"0.0": 30.2142539751,
			"0.001": 22.059191652,
			"0.002": 9.37139171179,
			"0.003": 7.60290528124,
			"0.004": 8.6553355086,
			"0.005": 9.28852029454,
			"0.006": 5.61327014597,
			"0.007": 2.09198157372,
			"0.008": 2.40246515865,
			"0.009": 3.62631725608,
			"0.01": 4.04630006734,
			"0.011": 5.26466629485,
			"0.012": 5.03194886493,
			"0.013": 1.86959949263,
			"0.014": 0.0919230291582,
			"0.015": 0.0,
			"0.016": 0.0,
			"0.017": 0.0,
			"0.018": 0.0,
			"0.019": 0.0,
			"0.02": 0.0,
			"0.021": 0.0,
			"0.022": 0.0,
			"0.023": 0.0,
			"0.024": 0.0,
			"0.025": 0.0
		}
	}
}
