{
	 "smiles": "OC(=O)C=CC1=C(F)C=CC(=C1)C(F)(F)F", 
	 "Tm": 392.65, 
	 "num_atms": 22, 
	 "gaussian": { 
		 "optdone": 1, 
		 "sigma_profile": "yes", 
		 "theory": "DFT", 
		 "functional": "B3LYP", 
		 "basiset": "6-31G**", 
		 "properties": { 
			 "R2extent": 4794.0889, 
			 "electric_dipole_moment_norm": 3.71790454154, 
			 "electric_quadrupole_moment_norm": 26.9435778868, 
			 "total_energy": -934.482847869, 
			 "HOMO_LUMO_gap": 0.17043, 
			 "cosmo_polarized_energy": -16.52, 
			 "cosmo_cavitation_energy": 29.89, 
			 "cosmo_dispersion_energy": -20.84, 
			 "cosmo_repulsion_energy": 1.54, 
			 "cosmo_total_nonelectrostatic_energy": 10.59, 
			 "SMD_solvation_energy": 8.09 
		},
		"coords": [
			{
				"x": -4.0400744726,
				"y": -2.1527621771,
				"z": -1.5824650722,
				"element": "O" 
			},
			{
				"x": -3.3113480342,
				"y": -1.0406942035,
				"z": -1.8756269234,
				"element": "C" 
			},
			{
				"x": -3.6556343496,
				"y": -0.316010076,
				"z": -2.780811904,
				"element": "O" 
			},
			{
				"x": -2.1132562948,
				"y": -0.8103841904,
				"z": -1.0235269339,
				"element": "C" 
			},
			{
				"x": -1.3391003895,
				"y": 0.2658160676,
				"z": -1.2470949224,
				"element": "C" 
			},
			{
				"x": -0.132704898,
				"y": 0.6536636296,
				"z": -0.5193465175,
				"element": "C" 
			},
			{
				"x": 0.5525360509,
				"y": 1.8210797478,
				"z": -0.8950630211,
				"element": "C" 
			},
			{
				"x": 0.0767822938,
				"y": 2.5501890394,
				"z": -1.920210041,
				"element": "F" 
			},
			{
				"x": 1.7029530875,
				"y": 2.2660520169,
				"z": -0.2537355607,
				"element": "C" 
			},
			{
				"x": 2.2089120322,
				"y": 1.5269751558,
				"z": 0.80908787,
				"element": "C" 
			},
			{
				"x": 1.5558954226,
				"y": 0.3547691883,
				"z": 1.2141581262,
				"element": "C" 
			},
			{
				"x": 0.406007315,
				"y": -0.0714941468,
				"z": 0.5591381164,
				"element": "C" 
			},
			{
				"x": 2.1418917399,
				"y": -0.466254758,
				"z": 2.3315748876,
				"element": "C" 
			},
			{
				"x": 3.1675485731,
				"y": -1.234167041,
				"z": 1.8986286654,
				"element": "F" 
			},
			{
				"x": 1.2292824183,
				"y": -1.2968802864,
				"z": 2.881407545,
				"element": "F" 
			},
			{
				"x": 2.629997319,
				"y": 0.3170667945,
				"z": 3.3182334272,
				"element": "F" 
			},
			{
				"x": -3.6476541962,
				"y": -2.6316952647,
				"z": -0.8395307466,
				"element": "H" 
			},
			{
				"x": -1.8894417836,
				"y": -1.5239101183,
				"z": -0.2329591555,
				"element": "H" 
			},
			{
				"x": -1.6451560527,
				"y": 0.9190615944,
				"z": -2.0596196482,
				"element": "H" 
			},
			{
				"x": 2.1776963287,
				"y": 3.1795991812,
				"z": -0.5932443602,
				"element": "H" 
			},
			{
				"x": 3.1003873218,
				"y": 1.8595384194,
				"z": 1.3294686395,
				"element": "H" 
			},
			{
				"x": -0.0847194315,
				"y": -0.9767585726,
				"z": 0.8965375291,
				"element": "H" 
			}
		],
		 "valence_orbital": [ 
			{
				"type": "occ",
				"energy": -0.33761,
				"method": "rhf"
			},
			{
				"type": "occ",
				"energy": -0.31448,
				"method": "rhf"
			},
			{
				"type": "occ",
				"energy": -0.28391,
				"method": "rhf"
			},
			{
				"type": "occ",
				"energy": -0.27677,
				"method": "rhf"
			},
			{
				"type": "occ",
				"energy": -0.25844,
				"method": "rhf"
			},
			{
				"type": "unocc",
				"energy": -0.08801,
				"method": "rhf"
			},
			{
				"type": "unocc",
				"energy": -0.0403,
				"method": "rhf"
			},
			{
				"type": "unocc",
				"energy": -0.00518,
				"method": "rhf"
			},
			{
				"type": "unocc",
				"energy": 0.05044,
				"method": "rhf"
			},
			{
				"type": "unocc",
				"energy": 0.07245,
				"method": "rhf"
			}
		],
		"cosmo_sigma_profile": { 
			"-0.025": 0.0,
			"-0.024": 0.0,
			"-0.023": 0.0,
			"-0.022": 0.0,
			"-0.021": 0.0,
			"-0.02": 0.0336689952866,
			"-0.019": 0.964161552761,
			"-0.018": 1.49560069891,
			"-0.017": 1.24307624012,
			"-0.016": 0.671091807591,
			"-0.015": 1.24979645739,
			"-0.014": 1.2205804102,
			"-0.013": 0.764148513399,
			"-0.012": 1.30033125474,
			"-0.011": 1.66030574214,
			"-0.01": 2.60711668524,
			"-0.009": 2.67191772497,
			"-0.008": 6.52867240162,
			"-0.007": 6.18297943278,
			"-0.006": 6.20241417225,
			"-0.005": 6.57180357209,
			"-0.004": 7.14689403329,
			"-0.003": 11.3311274807,
			"-0.002": 16.0309268829,
			"-0.001": 19.9505057403,
			"0.0": 24.4962702727,
			"0.001": 26.5313056437,
			"0.002": 27.4596965327,
			"0.003": 32.8437794364,
			"0.004": 3.60735976184,
			"0.005": 2.15096860784,
			"0.006": 2.99287129135,
			"0.007": 1.94472142788,
			"0.008": 1.78973377859,
			"0.009": 3.57753539118,
			"0.01": 4.18022404149,
			"0.011": 5.20379920897,
			"0.012": 5.67938356182,
			"0.013": 2.20936159638,
			"0.014": 0.240484587436,
			"0.015": 0.0,
			"0.016": 0.0,
			"0.017": 0.0,
			"0.018": 0.0,
			"0.019": 0.0,
			"0.02": 0.0,
			"0.021": 0.0,
			"0.022": 0.0,
			"0.023": 0.0,
			"0.024": 0.0,
			"0.025": 0.0
		}
	}
}
