{
	 "smiles": "COC1=NC(NCC(O)=O)=NC=C1", 
	 "Tm": 464.15, 
	 "num_atms": 22, 
	 "gaussian": { 
		 "optdone": 1, 
		 "sigma_profile": "yes", 
		 "theory": "DFT", 
		 "functional": "B3LYP", 
		 "basiset": "6-31G**", 
		 "properties": { 
			 "R2extent": 3317.3783, 
			 "electric_dipole_moment_norm": 6.34475703554, 
			 "electric_quadrupole_moment_norm": 26.4984447206, 
			 "total_energy": -662.116733829, 
			 "HOMO_LUMO_gap": 0.19462, 
			 "cosmo_polarized_energy": -15.36, 
			 "cosmo_cavitation_energy": 26.56, 
			 "cosmo_dispersion_energy": -19.82, 
			 "cosmo_repulsion_energy": 1.59, 
			 "cosmo_total_nonelectrostatic_energy": 8.33, 
			 "SMD_solvation_energy": 5.05 
		},
		"coords": [
			{
				"x": -0.2340821145,
				"y": -1.9491427504,
				"z": 3.106522941,
				"element": "C" 
			},
			{
				"x": 0.8613697251,
				"y": -1.6861489416,
				"z": 2.2178310588,
				"element": "O" 
			},
			{
				"x": 0.5920267089,
				"y": -1.048545539,
				"z": 1.0718714851,
				"element": "C" 
			},
			{
				"x": -0.6504528968,
				"y": -0.6752546836,
				"z": 0.8031417453,
				"element": "N" 
			},
			{
				"x": -0.842346331,
				"y": -0.0473287253,
				"z": -0.3775439309,
				"element": "C" 
			},
			{
				"x": -2.1145103127,
				"y": 0.344765156,
				"z": -0.6517950791,
				"element": "N" 
			},
			{
				"x": -2.4884760246,
				"y": 1.2712232677,
				"z": -1.7132547776,
				"element": "C" 
			},
			{
				"x": -2.5480039259,
				"y": 0.6564883114,
				"z": -3.1275562169,
				"element": "C" 
			},
			{
				"x": -1.4070172838,
				"y": 0.1161871513,
				"z": -3.5669797568,
				"element": "O" 
			},
			{
				"x": -3.5541360714,
				"y": 0.6977946517,
				"z": -3.7976480611,
				"element": "O" 
			},
			{
				"x": 0.1043415172,
				"y": 0.2105111396,
				"z": -1.3000520818,
				"element": "N" 
			},
			{
				"x": 1.3578978083,
				"y": -0.1696181394,
				"z": -0.9800677732,
				"element": "C" 
			},
			{
				"x": 1.677388402,
				"y": -0.8015988606,
				"z": 0.2017235044,
				"element": "C" 
			},
			{
				"x": -0.9856034276,
				"y": -2.5785243754,
				"z": 2.6230370606,
				"element": "H" 
			},
			{
				"x": -0.7069718449,
				"y": -1.0177441143,
				"z": 3.4283024706,
				"element": "H" 
			},
			{
				"x": 0.2066087104,
				"y": -2.4675575262,
				"z": 3.95810053,
				"element": "H" 
			},
			{
				"x": -2.7966820645,
				"y": 0.1102752467,
				"z": 0.052430292,
				"element": "H" 
			},
			{
				"x": -1.7827563973,
				"y": 2.1125889813,
				"z": -1.7311772027,
				"element": "H" 
			},
			{
				"x": -3.4835022188,
				"y": 1.6569639503,
				"z": -1.4940046239,
				"element": "H" 
			},
			{
				"x": -0.7033104208,
				"y": 0.199944864,
				"z": -2.8677119788,
				"element": "H" 
			},
			{
				"x": 2.1216054254,
				"y": 0.042541217,
				"z": -1.7242685881,
				"element": "H" 
			},
			{
				"x": 2.6823130374,
				"y": -1.1112202812,
				"z": 0.4548989829,
				"element": "H" 
			}
		],
		 "valence_orbital": [ 
			{
				"type": "occ",
				"energy": -0.29422,
				"method": "rhf"
			},
			{
				"type": "occ",
				"energy": -0.29076,
				"method": "rhf"
			},
			{
				"type": "occ",
				"energy": -0.27952,
				"method": "rhf"
			},
			{
				"type": "occ",
				"energy": -0.25816,
				"method": "rhf"
			},
			{
				"type": "occ",
				"energy": -0.23213,
				"method": "rhf"
			},
			{
				"type": "unocc",
				"energy": -0.03751,
				"method": "rhf"
			},
			{
				"type": "unocc",
				"energy": -0.01414,
				"method": "rhf"
			},
			{
				"type": "unocc",
				"energy": 0.02238,
				"method": "rhf"
			},
			{
				"type": "unocc",
				"energy": 0.0752,
				"method": "rhf"
			},
			{
				"type": "unocc",
				"energy": 0.09888,
				"method": "rhf"
			}
		],
		"cosmo_sigma_profile": { 
			"-0.025": 0.0,
			"-0.024": 0.0,
			"-0.023": 0.0,
			"-0.022": 0.0,
			"-0.021": 0.0,
			"-0.02": 0.0,
			"-0.019": 0.0,
			"-0.018": 0.0,
			"-0.017": 0.0,
			"-0.016": 0.0,
			"-0.015": 0.573548372747,
			"-0.014": 1.08527753407,
			"-0.013": 1.64113214371,
			"-0.012": 0.870915368001,
			"-0.011": 0.785223935616,
			"-0.01": 0.943381900204,
			"-0.009": 1.17105027881,
			"-0.008": 4.98090354775,
			"-0.007": 9.31525233248,
			"-0.006": 12.3080542886,
			"-0.005": 13.9746527837,
			"-0.004": 15.9836228287,
			"-0.003": 16.405542527,
			"-0.002": 15.0744225201,
			"-0.001": 17.0899597229,
			"0.0": 15.2892834617,
			"0.001": 14.1255891657,
			"0.002": 11.5596109864,
			"0.003": 7.01944456205,
			"0.004": 6.25122013485,
			"0.005": 4.38441582876,
			"0.006": 5.7661707613,
			"0.007": 5.5790841545,
			"0.008": 4.23268218917,
			"0.009": 4.72118912219,
			"0.01": 3.65610056268,
			"0.011": 5.30220997809,
			"0.012": 7.0805056689,
			"0.013": 3.72568356349,
			"0.014": 0.762801620827,
			"0.015": 0.0,
			"0.016": 0.0,
			"0.017": 0.0,
			"0.018": 0.0,
			"0.019": 0.0,
			"0.02": 0.0,
			"0.021": 0.0,
			"0.022": 0.0,
			"0.023": 0.0,
			"0.024": 0.0,
			"0.025": 0.0
		}
	}
}
