{
	 "smiles": "S=C=NC1=CC=C(OC2=CC=CC=C2)C=C1", 
	 "Tm": 315.15, 
	 "num_atms": 25, 
	 "gaussian": { 
		 "optdone": 1, 
		 "sigma_profile": "yes", 
		 "theory": "DFT", 
		 "functional": "B3LYP", 
		 "basiset": "6-31G**", 
		 "properties": { 
			 "R2extent": 7216.6126, 
			 "electric_dipole_moment_norm": 4.51738954929, 
			 "electric_quadrupole_moment_norm": 21.965911966, 
			 "total_energy": -1028.95551816, 
			 "HOMO_LUMO_gap": 0.17449, 
			 "cosmo_polarized_energy": -7.81, 
			 "cosmo_cavitation_energy": 33.23, 
			 "cosmo_dispersion_energy": -24.31, 
			 "cosmo_repulsion_energy": 1.87, 
			 "cosmo_total_nonelectrostatic_energy": 10.78, 
			 "SMD_solvation_energy": 6.45 
		},
		"coords": [
			{
				"x": -5.7123884819,
				"y": 4.4932121981,
				"z": -0.9464138346,
				"element": "S" 
			},
			{
				"x": -4.516282765,
				"y": 3.4397566871,
				"z": -0.8793160114,
				"element": "C" 
			},
			{
				"x": -3.6288620939,
				"y": 2.6543991731,
				"z": -0.8262293328,
				"element": "N" 
			},
			{
				"x": -2.6017782877,
				"y": 1.7456518957,
				"z": -0.7648580958,
				"element": "C" 
			},
			{
				"x": -1.7678882806,
				"y": 1.6995454888,
				"z": 0.3643198647,
				"element": "C" 
			},
			{
				"x": -0.7266090108,
				"y": 0.7797702472,
				"z": 0.4285143232,
				"element": "C" 
			},
			{
				"x": -0.5066081603,
				"y": -0.0964409388,
				"z": -0.6411492318,
				"element": "C" 
			},
			{
				"x": 0.4585929249,
				"y": -1.0750745758,
				"z": -0.6278887769,
				"element": "O" 
			},
			{
				"x": 1.6480948468,
				"y": -0.8885335668,
				"z": 0.0600038978,
				"element": "C" 
			},
			{
				"x": 2.107722827,
				"y": -1.9567665007,
				"z": 0.8305704138,
				"element": "C" 
			},
			{
				"x": 3.3404943628,
				"y": -1.8542994594,
				"z": 1.4760413934,
				"element": "C" 
			},
			{
				"x": 4.1047002918,
				"y": -0.6914492314,
				"z": 1.3590139057,
				"element": "C" 
			},
			{
				"x": 3.63310393,
				"y": 0.3700061745,
				"z": 0.5830420461,
				"element": "C" 
			},
			{
				"x": 2.4063375339,
				"y": 0.2776835967,
				"z": -0.0752095242,
				"element": "C" 
			},
			{
				"x": -1.3363328486,
				"y": -0.0563244931,
				"z": -1.7668626357,
				"element": "C" 
			},
			{
				"x": -2.3814277741,
				"y": 0.8566565602,
				"z": -1.8305998108,
				"element": "C" 
			},
			{
				"x": -1.949098752,
				"y": 2.381961501,
				"z": 1.1876752709,
				"element": "H" 
			},
			{
				"x": -0.0894922153,
				"y": 0.7397176396,
				"z": 1.3045430305,
				"element": "H" 
			},
			{
				"x": 1.4977179573,
				"y": -2.8506278361,
				"z": 0.9081845911,
				"element": "H" 
			},
			{
				"x": 3.7004457953,
				"y": -2.6855561533,
				"z": 2.0751411228,
				"element": "H" 
			},
			{
				"x": 5.0617175736,
				"y": -0.6137152156,
				"z": 1.8655467314,
				"element": "H" 
			},
			{
				"x": 4.2255899648,
				"y": 1.2743774773,
				"z": 0.4793627047,
				"element": "H" 
			},
			{
				"x": 2.0415929447,
				"y": 1.094023103,
				"z": -0.6897192841,
				"element": "H" 
			},
			{
				"x": -1.1498854844,
				"y": -0.7492156126,
				"z": -2.5801935133,
				"element": "H" 
			},
			{
				"x": -3.0288567983,
				"y": 0.895341841,
				"z": -2.6998192448,
				"element": "H" 
			}
		],
		 "valence_orbital": [ 
			{
				"type": "occ",
				"energy": -0.27565,
				"method": "rhf"
			},
			{
				"type": "occ",
				"energy": -0.26345,
				"method": "rhf"
			},
			{
				"type": "occ",
				"energy": -0.249,
				"method": "rhf"
			},
			{
				"type": "occ",
				"energy": -0.24774,
				"method": "rhf"
			},
			{
				"type": "occ",
				"energy": -0.21766,
				"method": "rhf"
			},
			{
				"type": "unocc",
				"energy": -0.04317,
				"method": "rhf"
			},
			{
				"type": "unocc",
				"energy": -0.02697,
				"method": "rhf"
			},
			{
				"type": "unocc",
				"energy": -0.01136,
				"method": "rhf"
			},
			{
				"type": "unocc",
				"energy": -0.00646,
				"method": "rhf"
			},
			{
				"type": "unocc",
				"energy": 0.00761,
				"method": "rhf"
			}
		],
		"cosmo_sigma_profile": { 
			"-0.025": 0.0,
			"-0.024": 0.0,
			"-0.023": 0.0,
			"-0.022": 0.0,
			"-0.021": 0.0,
			"-0.02": 0.0,
			"-0.019": 0.0,
			"-0.018": 0.0,
			"-0.017": 0.0,
			"-0.016": 0.0,
			"-0.015": 0.0,
			"-0.014": 0.0,
			"-0.013": 0.0,
			"-0.012": 0.0,
			"-0.011": 0.0,
			"-0.01": 0.0,
			"-0.009": 0.0,
			"-0.008": 1.98075834714,
			"-0.007": 8.3557323245,
			"-0.006": 16.6329699666,
			"-0.005": 18.360645867,
			"-0.004": 17.7708906678,
			"-0.003": 15.7101820768,
			"-0.002": 16.8125920647,
			"-0.001": 23.8519642794,
			"0.0": 23.9341352307,
			"0.001": 22.4989876158,
			"0.002": 26.7503035366,
			"0.003": 23.3545985775,
			"0.004": 16.7288626462,
			"0.005": 16.9576059841,
			"0.006": 14.7829251529,
			"0.007": 5.88684742045,
			"0.008": 1.03205988144,
			"0.009": 0.503792106465,
			"0.01": 0.0,
			"0.011": 0.0,
			"0.012": 0.0,
			"0.013": 0.0,
			"0.014": 0.0,
			"0.015": 0.0,
			"0.016": 0.0,
			"0.017": 0.0,
			"0.018": 0.0,
			"0.019": 0.0,
			"0.02": 0.0,
			"0.021": 0.0,
			"0.022": 0.0,
			"0.023": 0.0,
			"0.024": 0.0,
			"0.025": 0.0
		}
	}
}
