{
	 "smiles": "FC(F)(F)C1=CC=C(C=C1)C1=NC(CCl)=NO1", 
	 "Tm": 322.15, 
	 "num_atms": 23, 
	 "gaussian": { 
		 "optdone": 1, 
		 "sigma_profile": "yes", 
		 "theory": "DFT", 
		 "functional": "B3LYP", 
		 "basiset": "6-31G**", 
		 "properties": { 
			 "R2extent": 9123.9771, 
			 "electric_dipole_moment_norm": 1.70385445681, 
			 "electric_quadrupole_moment_norm": 15.2549439052, 
			 "total_energy": -1329.09371927, 
			 "HOMO_LUMO_gap": 0.18821, 
			 "cosmo_polarized_energy": -9.18, 
			 "cosmo_cavitation_energy": 32.24, 
			 "cosmo_dispersion_energy": -23.19, 
			 "cosmo_repulsion_energy": 1.74, 
			 "cosmo_total_nonelectrostatic_energy": 10.79, 
			 "SMD_solvation_energy": 4.38 
		},
		"coords": [
			{
				"x": -0.7889669684,
				"y": -0.0748765756,
				"z": -4.3552785489,
				"element": "F" 
			},
			{
				"x": -0.710993705,
				"y": -0.7741139287,
				"z": -3.2029132316,
				"element": "C" 
			},
			{
				"x": -1.9783614134,
				"y": -0.9968008977,
				"z": -2.7878286253,
				"element": "F" 
			},
			{
				"x": -0.1709492565,
				"y": -1.9781804081,
				"z": -3.4891627894,
				"element": "F" 
			},
			{
				"x": 0.0868663132,
				"y": -0.0389546232,
				"z": -2.1569937587,
				"element": "C" 
			},
			{
				"x": 0.0888637775,
				"y": 1.3594970422,
				"z": -2.1393870646,
				"element": "C" 
			},
			{
				"x": 0.7811085861,
				"y": 2.0394105041,
				"z": -1.144070498,
				"element": "C" 
			},
			{
				"x": 1.4761133,
				"y": 1.3208667823,
				"z": -0.1588357232,
				"element": "C" 
			},
			{
				"x": 1.4727831162,
				"y": -0.0821527507,
				"z": -0.180142957,
				"element": "C" 
			},
			{
				"x": 0.7784265847,
				"y": -0.7581423547,
				"z": -1.1780794386,
				"element": "C" 
			},
			{
				"x": 2.198292522,
				"y": 2.0566356049,
				"z": 0.8759292563,
				"element": "C" 
			},
			{
				"x": 2.3092810533,
				"y": 3.3503752512,
				"z": 1.017489624,
				"element": "N" 
			},
			{
				"x": 3.0863738106,
				"y": 3.4556366971,
				"z": 2.1432497409,
				"element": "C" 
			},
			{
				"x": 3.518470875,
				"y": 4.7520759909,
				"z": 2.7359707227,
				"element": "C" 
			},
			{
				"x": 2.1363115814,
				"y": 5.6139942494,
				"z": 3.5394311597,
				"element": "Cl" 
			},
			{
				"x": 3.4482149196,
				"y": 2.312768315,
				"z": 2.6770074637,
				"element": "N" 
			},
			{
				"x": 2.8563426311,
				"y": 1.3668458955,
				"z": 1.8311440004,
				"element": "O" 
			},
			{
				"x": -0.4436979378,
				"y": 1.9098238633,
				"z": -2.9069387915,
				"element": "H" 
			},
			{
				"x": 0.7944199314,
				"y": 3.1232928979,
				"z": -1.116398562,
				"element": "H" 
			},
			{
				"x": 2.013493302,
				"y": -0.6356395568,
				"z": 0.5795337759,
				"element": "H" 
			},
			{
				"x": 0.7788016799,
				"y": -1.842055192,
				"z": -1.2037722915,
				"element": "H" 
			},
			{
				"x": 4.281188777,
				"y": 4.5838167447,
				"z": 3.4946402829,
				"element": "H" 
			},
			{
				"x": 3.8920165201,
				"y": 5.421676449,
				"z": 1.9614062536,
				"element": "H" 
			}
		],
		 "valence_orbital": [ 
			{
				"type": "occ",
				"energy": -0.31604,
				"method": "rhf"
			},
			{
				"type": "occ",
				"energy": -0.30931,
				"method": "rhf"
			},
			{
				"type": "occ",
				"energy": -0.3064,
				"method": "rhf"
			},
			{
				"type": "occ",
				"energy": -0.28657,
				"method": "rhf"
			},
			{
				"type": "occ",
				"energy": -0.27135,
				"method": "rhf"
			},
			{
				"type": "unocc",
				"energy": -0.08314,
				"method": "rhf"
			},
			{
				"type": "unocc",
				"energy": -0.03701,
				"method": "rhf"
			},
			{
				"type": "unocc",
				"energy": -0.0299,
				"method": "rhf"
			},
			{
				"type": "unocc",
				"energy": 0.01767,
				"method": "rhf"
			},
			{
				"type": "unocc",
				"energy": 0.04976,
				"method": "rhf"
			}
		],
		"cosmo_sigma_profile": { 
			"-0.025": 0.0,
			"-0.024": 0.0,
			"-0.023": 0.0,
			"-0.022": 0.0,
			"-0.021": 0.0,
			"-0.02": 0.0,
			"-0.019": 0.0,
			"-0.018": 0.0,
			"-0.017": 0.0,
			"-0.016": 0.0,
			"-0.015": 0.0,
			"-0.014": 0.0,
			"-0.013": 0.0,
			"-0.012": 0.0,
			"-0.011": 0.0,
			"-0.01": 0.954251967583,
			"-0.009": 3.93759703688,
			"-0.008": 6.92837392825,
			"-0.007": 11.6456014547,
			"-0.006": 11.460603573,
			"-0.005": 11.9167939495,
			"-0.004": 12.5621010418,
			"-0.003": 13.5151496985,
			"-0.002": 15.9326705731,
			"-0.001": 18.783830116,
			"0.0": 23.9414295192,
			"0.001": 27.4830171892,
			"0.002": 29.4919016978,
			"0.003": 28.4789522062,
			"0.004": 9.69448922933,
			"0.005": 15.0401892566,
			"0.006": 8.58731969279,
			"0.007": 2.52996055002,
			"0.008": 2.42689396511,
			"0.009": 2.13626661158,
			"0.01": 1.60307418879,
			"0.011": 2.41438590683,
			"0.012": 1.00258666436,
			"0.013": 0.00124324564265,
			"0.014": 0.0,
			"0.015": 0.0,
			"0.016": 0.0,
			"0.017": 0.0,
			"0.018": 0.0,
			"0.019": 0.0,
			"0.02": 0.0,
			"0.021": 0.0,
			"0.022": 0.0,
			"0.023": 0.0,
			"0.024": 0.0,
			"0.025": 0.0
		}
	}
}
