{
	 "smiles": "NC1=CC(CN2N=C3C=CC=CN3C2=O)=CC=C1", 
	 "Tm": 401.15, 
	 "num_atms": 30, 
	 "gaussian": { 
		 "optdone": 1, 
		 "sigma_profile": "yes", 
		 "theory": "DFT", 
		 "functional": "B3LYP", 
		 "basiset": "6-31G**", 
		 "properties": { 
			 "R2extent": 5511.6612, 
			 "electric_dipole_moment_norm": 1.48307849084, 
			 "electric_quadrupole_moment_norm": 20.7873465791, 
			 "total_energy": -796.841981095, 
			 "HOMO_LUMO_gap": 0.14667, 
			 "cosmo_polarized_energy": -17.05, 
			 "cosmo_cavitation_energy": 34.68, 
			 "cosmo_dispersion_energy": -24.87, 
			 "cosmo_repulsion_energy": 1.91, 
			 "cosmo_total_nonelectrostatic_energy": 11.72, 
			 "SMD_solvation_energy": 5.44 
		},
		"coords": [
			{
				"x": -0.1326933186,
				"y": 4.835970819,
				"z": 1.3142361064,
				"element": "N" 
			},
			{
				"x": -0.0317410915,
				"y": 3.9427065458,
				"z": 0.2458666171,
				"element": "C" 
			},
			{
				"x": -0.7283363081,
				"y": 2.7244529657,
				"z": 0.2645177844,
				"element": "C" 
			},
			{
				"x": -0.5820865967,
				"y": 1.8006581063,
				"z": -0.7750582271,
				"element": "C" 
			},
			{
				"x": -1.3463945784,
				"y": 0.491085745,
				"z": -0.7181004223,
				"element": "C" 
			},
			{
				"x": -0.8288523055,
				"y": -0.4441428006,
				"z": 0.2737686425,
				"element": "N" 
			},
			{
				"x": 0.2244323058,
				"y": -1.2890148361,
				"z": -0.0261314124,
				"element": "N" 
			},
			{
				"x": 0.4542341172,
				"y": -1.9218575743,
				"z": 1.1005983622,
				"element": "C" 
			},
			{
				"x": 1.4100541449,
				"y": -2.93038173,
				"z": 1.4279913274,
				"element": "C" 
			},
			{
				"x": 1.4323244488,
				"y": -3.4230701935,
				"z": 2.701732709,
				"element": "C" 
			},
			{
				"x": 0.5181497212,
				"y": -2.9486878903,
				"z": 3.7078822065,
				"element": "C" 
			},
			{
				"x": -0.3929399597,
				"y": -1.9898591798,
				"z": 3.3958653323,
				"element": "C" 
			},
			{
				"x": -0.4138126669,
				"y": -1.4981852,
				"z": 2.1125405224,
				"element": "N" 
			},
			{
				"x": -1.2606781758,
				"y": -0.5062067107,
				"z": 1.5757739105,
				"element": "C" 
			},
			{
				"x": -2.1439109294,
				"y": 0.1165846945,
				"z": 2.1544187682,
				"element": "O" 
			},
			{
				"x": 0.2599502009,
				"y": 2.0875261854,
				"z": -1.8533342796,
				"element": "C" 
			},
			{
				"x": 0.9489783851,
				"y": 3.3023742483,
				"z": -1.8798655001,
				"element": "C" 
			},
			{
				"x": 0.8100372772,
				"y": 4.2233756759,
				"z": -0.8462906998,
				"element": "C" 
			},
			{
				"x": 0.0565581078,
				"y": 5.8025262639,
				"z": 1.0877040177,
				"element": "H" 
			},
			{
				"x": -0.9647674385,
				"y": 4.7355343642,
				"z": 1.8791669469,
				"element": "H" 
			},
			{
				"x": -1.3821276925,
				"y": 2.4865160241,
				"z": 1.1007651343,
				"element": "H" 
			},
			{
				"x": -1.315850425,
				"y": -0.0203849084,
				"z": -1.6825720729,
				"element": "H" 
			},
			{
				"x": -2.3911112163,
				"y": 0.6676548466,
				"z": -0.446510159,
				"element": "H" 
			},
			{
				"x": 2.0891054395,
				"y": -3.2712362616,
				"z": 0.6555095565,
				"element": "H" 
			},
			{
				"x": 2.1535442237,
				"y": -4.1888548262,
				"z": 2.9691038692,
				"element": "H" 
			},
			{
				"x": 0.5523541917,
				"y": -3.350522184,
				"z": 4.7132951453,
				"element": "H" 
			},
			{
				"x": -1.1245643854,
				"y": -1.5596087742,
				"z": 4.0689980829,
				"element": "H" 
			},
			{
				"x": 0.3769754623,
				"y": 1.3695878312,
				"z": -2.6596418176,
				"element": "H" 
			},
			{
				"x": 1.6026670372,
				"y": 3.535209501,
				"z": -2.7160461288,
				"element": "H" 
			},
			{
				"x": 1.3552020249,
				"y": 5.1638492527,
				"z": -0.8744843221,
				"element": "H" 
			}
		],
		 "valence_orbital": [ 
			{
				"type": "occ",
				"energy": -0.26919,
				"method": "rhf"
			},
			{
				"type": "occ",
				"energy": -0.26321,
				"method": "rhf"
			},
			{
				"type": "occ",
				"energy": -0.2388,
				"method": "rhf"
			},
			{
				"type": "occ",
				"energy": -0.19806,
				"method": "rhf"
			},
			{
				"type": "occ",
				"energy": -0.19522,
				"method": "rhf"
			},
			{
				"type": "unocc",
				"energy": -0.04855,
				"method": "rhf"
			},
			{
				"type": "unocc",
				"energy": 0.0012,
				"method": "rhf"
			},
			{
				"type": "unocc",
				"energy": 0.00791,
				"method": "rhf"
			},
			{
				"type": "unocc",
				"energy": 0.02266,
				"method": "rhf"
			},
			{
				"type": "unocc",
				"energy": 0.06151,
				"method": "rhf"
			}
		],
		"cosmo_sigma_profile": { 
			"-0.025": 0.0,
			"-0.024": 0.0,
			"-0.023": 0.0,
			"-0.022": 0.0,
			"-0.021": 0.0,
			"-0.02": 0.0,
			"-0.019": 0.0,
			"-0.018": 0.0,
			"-0.017": 0.0,
			"-0.016": 0.0,
			"-0.015": 0.0,
			"-0.014": 0.0,
			"-0.013": 0.255162607292,
			"-0.012": 2.23803468161,
			"-0.011": 3.14363193878,
			"-0.01": 2.02939228084,
			"-0.009": 4.48396167892,
			"-0.008": 7.3796453123,
			"-0.007": 11.8652926389,
			"-0.006": 15.842527282,
			"-0.005": 18.2061645191,
			"-0.004": 17.8533849721,
			"-0.003": 20.7562895585,
			"-0.002": 18.3278199345,
			"-0.001": 16.4509757512,
			"0.0": 17.8662104856,
			"0.001": 17.8920030598,
			"0.002": 17.9636142996,
			"0.003": 14.408362603,
			"0.004": 10.0417249634,
			"0.005": 10.7712084889,
			"0.006": 15.1301076644,
			"0.007": 7.84827446152,
			"0.008": 3.4029247727,
			"0.009": 3.18968808918,
			"0.01": 3.50437127927,
			"0.011": 2.78702754056,
			"0.012": 3.97541186913,
			"0.013": 6.2091909541,
			"0.014": 3.08597184043,
			"0.015": 0.548512426307,
			"0.016": 0.0,
			"0.017": 0.0,
			"0.018": 0.0,
			"0.019": 0.0,
			"0.02": 0.0,
			"0.021": 0.0,
			"0.022": 0.0,
			"0.023": 0.0,
			"0.024": 0.0,
			"0.025": 0.0
		}
	}
}
