{
	 "smiles": "FC=C", 
	 "Tm": 113.15, 
	 "num_atms": 6, 
	 "gaussian": { 
		 "optdone": 1, 
		 "sigma_profile": "yes", 
		 "theory": "DFT", 
		 "functional": "B3LYP", 
		 "basiset": "6-31G**", 
		 "properties": { 
			 "R2extent": 435.6701, 
			 "electric_dipole_moment_norm": 1.23910202163, 
			 "electric_quadrupole_moment_norm": 4.02676493727, 
			 "total_energy": -177.821776578, 
			 "HOMO_LUMO_gap": 0.28138, 
			 "cosmo_polarized_energy": -2.33, 
			 "cosmo_cavitation_energy": 10.1, 
			 "cosmo_dispersion_energy": -7.1, 
			 "cosmo_repulsion_energy": 0.67, 
			 "cosmo_total_nonelectrostatic_energy": 3.67, 
			 "SMD_solvation_energy": 3.76 
		},
		"coords": [
			{
				"x": 1.0223638677,
				"y": -1.916136029,
				"z": 0.1230580029,
				"element": "F" 
			},
			{
				"x": 1.9187414221,
				"y": -0.9174881699,
				"z": 0.2403210706,
				"element": "C" 
			},
			{
				"x": 1.8373224342,
				"y": 0.1982655542,
				"z": -0.4689686114,
				"element": "C" 
			},
			{
				"x": 2.6899566553,
				"y": -1.1453572381,
				"z": 0.9707992258,
				"element": "H" 
			},
			{
				"x": 2.5833075551,
				"y": 0.972462809,
				"z": -0.3383572955,
				"element": "H" 
			},
			{
				"x": 1.0368080656,
				"y": 0.3574530737,
				"z": -1.1823523924,
				"element": "H" 
			}
		],
		 "valence_orbital": [ 
			{
				"type": "occ",
				"energy": -0.47721,
				"method": "rhf"
			},
			{
				"type": "occ",
				"energy": -0.44801,
				"method": "rhf"
			},
			{
				"type": "occ",
				"energy": -0.40601,
				"method": "rhf"
			},
			{
				"type": "occ",
				"energy": -0.36568,
				"method": "rhf"
			},
			{
				"type": "occ",
				"energy": -0.26064,
				"method": "rhf"
			},
			{
				"type": "unocc",
				"energy": 0.02074,
				"method": "rhf"
			},
			{
				"type": "unocc",
				"energy": 0.11534,
				"method": "rhf"
			},
			{
				"type": "unocc",
				"energy": 0.13231,
				"method": "rhf"
			},
			{
				"type": "unocc",
				"energy": 0.14869,
				"method": "rhf"
			},
			{
				"type": "unocc",
				"energy": 0.23724,
				"method": "rhf"
			}
		],
		"cosmo_sigma_profile": { 
			"-0.025": 0.0,
			"-0.024": 0.0,
			"-0.023": 0.0,
			"-0.022": 0.0,
			"-0.021": 0.0,
			"-0.02": 0.0,
			"-0.019": 0.0,
			"-0.018": 0.0,
			"-0.017": 0.0,
			"-0.016": 0.0,
			"-0.015": 0.0,
			"-0.014": 0.0,
			"-0.013": 0.0,
			"-0.012": 0.0,
			"-0.011": 0.0,
			"-0.01": 0.0,
			"-0.009": 0.178920783955,
			"-0.008": 2.08163229537,
			"-0.007": 3.13098886573,
			"-0.006": 5.72356433231,
			"-0.005": 4.93646593572,
			"-0.004": 4.48564796296,
			"-0.003": 4.66352127168,
			"-0.002": 4.07356028695,
			"-0.001": 5.25370328062,
			"0.0": 5.04361782248,
			"0.001": 5.03166072679,
			"0.002": 5.80019354362,
			"0.003": 7.02113024625,
			"0.004": 11.7096115956,
			"0.005": 11.1890919928,
			"0.006": 0.610054999164,
			"0.007": 0.0,
			"0.008": 0.0,
			"0.009": 0.0,
			"0.01": 0.0,
			"0.011": 0.0,
			"0.012": 0.0,
			"0.013": 0.0,
			"0.014": 0.0,
			"0.015": 0.0,
			"0.016": 0.0,
			"0.017": 0.0,
			"0.018": 0.0,
			"0.019": 0.0,
			"0.02": 0.0,
			"0.021": 0.0,
			"0.022": 0.0,
			"0.023": 0.0,
			"0.024": 0.0,
			"0.025": 0.0
		}
	}
}
