{
	 "smiles": "OC(=O)C1=CC=C(OC2CCOCC2)C=C1", 
	 "Tm": 459.15, 
	 "num_atms": 30, 
	 "gaussian": { 
		 "optdone": 1, 
		 "sigma_profile": "yes", 
		 "theory": "DFT", 
		 "functional": "B3LYP", 
		 "basiset": "6-31G**", 
		 "properties": { 
			 "R2extent": 5667.3034, 
			 "electric_dipole_moment_norm": 5.27237498003, 
			 "electric_quadrupole_moment_norm": 31.3432765133, 
			 "total_energy": -766.606790466, 
			 "HOMO_LUMO_gap": 0.19673, 
			 "cosmo_polarized_energy": -18.26, 
			 "cosmo_cavitation_energy": 32.57, 
			 "cosmo_dispersion_energy": -23.94, 
			 "cosmo_repulsion_energy": 1.86, 
			 "cosmo_total_nonelectrostatic_energy": 10.49, 
			 "SMD_solvation_energy": 6.39 
		},
		"coords": [
			{
				"x": -0.8931143297,
				"y": -5.0614875372,
				"z": 1.2709312568,
				"element": "O" 
			},
			{
				"x": -1.9541444465,
				"y": -4.2057243246,
				"z": 1.251187796,
				"element": "C" 
			},
			{
				"x": -3.0725947269,
				"y": -4.6358394388,
				"z": 1.415952515,
				"element": "O" 
			},
			{
				"x": -1.6529752095,
				"y": -2.7612399981,
				"z": 1.0208201503,
				"element": "C" 
			},
			{
				"x": -2.7110594926,
				"y": -1.9242133298,
				"z": 0.6250628394,
				"element": "C" 
			},
			{
				"x": -2.502305897,
				"y": -0.5748418019,
				"z": 0.4002355334,
				"element": "C" 
			},
			{
				"x": -1.2257347035,
				"y": -0.0121700518,
				"z": 0.5846407529,
				"element": "C" 
			},
			{
				"x": -1.1415112205,
				"y": 1.3237733029,
				"z": 0.3550053052,
				"element": "O" 
			},
			{
				"x": 0.1128696721,
				"y": 2.0237291901,
				"z": 0.4996205326,
				"element": "C" 
			},
			{
				"x": -0.2456491756,
				"y": 3.5045765091,
				"z": 0.6620742917,
				"element": "C" 
			},
			{
				"x": -0.772506242,
				"y": 4.0932426271,
				"z": -0.6504618451,
				"element": "C" 
			},
			{
				"x": 0.1559462132,
				"y": 3.9019422767,
				"z": -1.7113597641,
				"element": "O" 
			},
			{
				"x": 0.3897000969,
				"y": 2.5225010708,
				"z": -1.9625283496,
				"element": "C" 
			},
			{
				"x": 0.997489225,
				"y": 1.8233734691,
				"z": -0.741423991,
				"element": "C" 
			},
			{
				"x": -0.1650198096,
				"y": -0.8312497042,
				"z": 0.9991289213,
				"element": "C" 
			},
			{
				"x": -0.3894361721,
				"y": -2.1913338776,
				"z": 1.2136198876,
				"element": "C" 
			},
			{
				"x": -0.0987742948,
				"y": -4.6124357911,
				"z": 0.9515419016,
				"element": "H" 
			},
			{
				"x": -3.6948583272,
				"y": -2.3632651621,
				"z": 0.4991385405,
				"element": "H" 
			},
			{
				"x": -3.3110531691,
				"y": 0.0772419505,
				"z": 0.0875518419,
				"element": "H" 
			},
			{
				"x": 0.6170411133,
				"y": 1.6653012225,
				"z": 1.4051812435,
				"element": "H" 
			},
			{
				"x": 0.65960646,
				"y": 4.0456979138,
				"z": 0.9603447707,
				"element": "H" 
			},
			{
				"x": -0.9858472403,
				"y": 3.6193067897,
				"z": 1.4610297638,
				"element": "H" 
			},
			{
				"x": -1.7413642684,
				"y": 3.6357982892,
				"z": -0.904782232,
				"element": "H" 
			},
			{
				"x": -0.9187339847,
				"y": 5.1733136594,
				"z": -0.5605707846,
				"element": "H" 
			},
			{
				"x": -0.5493648953,
				"y": 2.0233864482,
				"z": -2.2503056607,
				"element": "H" 
			},
			{
				"x": 1.0734097499,
				"y": 2.4758557815,
				"z": -2.8148595794,
				"element": "H" 
			},
			{
				"x": 1.1396217982,
				"y": 0.7573026057,
				"z": -0.9490079194,
				"element": "H" 
			},
			{
				"x": 1.9843670367,
				"y": 2.2539901782,
				"z": -0.5334122594,
				"element": "H" 
			},
			{
				"x": 0.8256572356,
				"y": -0.4268270653,
				"z": 1.1648141034,
				"element": "H" 
			},
			{
				"x": 0.4428390043,
				"y": -2.7921052021,
				"z": 1.5736304377,
				"element": "H" 
			}
		],
		 "valence_orbital": [ 
			{
				"type": "occ",
				"energy": -0.30876,
				"method": "rhf"
			},
			{
				"type": "occ",
				"energy": -0.27275,
				"method": "rhf"
			},
			{
				"type": "occ",
				"energy": -0.26747,
				"method": "rhf"
			},
			{
				"type": "occ",
				"energy": -0.25656,
				"method": "rhf"
			},
			{
				"type": "occ",
				"energy": -0.23807,
				"method": "rhf"
			},
			{
				"type": "unocc",
				"energy": -0.04134,
				"method": "rhf"
			},
			{
				"type": "unocc",
				"energy": -0.02197,
				"method": "rhf"
			},
			{
				"type": "unocc",
				"energy": 0.05451,
				"method": "rhf"
			},
			{
				"type": "unocc",
				"energy": 0.06106,
				"method": "rhf"
			},
			{
				"type": "unocc",
				"energy": 0.07306,
				"method": "rhf"
			}
		],
		"cosmo_sigma_profile": { 
			"-0.025": 0.0,
			"-0.024": 0.0,
			"-0.023": 0.0,
			"-0.022": 0.0,
			"-0.021": 0.0,
			"-0.02": 0.0,
			"-0.019": 0.0,
			"-0.018": 0.650411458265,
			"-0.017": 0.762522838332,
			"-0.016": 1.23353783114,
			"-0.015": 0.90357387166,
			"-0.014": 1.18962460417,
			"-0.013": 0.554627167437,
			"-0.012": 1.4206639354,
			"-0.011": 1.101699276,
			"-0.01": 1.73441954611,
			"-0.009": 0.915252693261,
			"-0.008": 2.68828848185,
			"-0.007": 5.32650861598,
			"-0.006": 8.64593506356,
			"-0.005": 15.3067282963,
			"-0.004": 24.2691137403,
			"-0.003": 28.6857109706,
			"-0.002": 27.2128903883,
			"-0.001": 18.8423407176,
			"0.0": 13.028467543,
			"0.001": 11.6787384853,
			"0.002": 14.7089040587,
			"0.003": 18.4991562896,
			"0.004": 9.71515688994,
			"0.005": 5.8043872746,
			"0.006": 4.83644310173,
			"0.007": 4.35324383597,
			"0.008": 4.1305832735,
			"0.009": 4.47448846424,
			"0.01": 5.06240255555,
			"0.011": 6.6728223937,
			"0.012": 6.57371984917,
			"0.013": 4.69154379446,
			"0.014": 1.25475325524,
			"0.015": 0.0,
			"0.016": 0.0,
			"0.017": 0.0,
			"0.018": 0.0,
			"0.019": 0.0,
			"0.02": 0.0,
			"0.021": 0.0,
			"0.022": 0.0,
			"0.023": 0.0,
			"0.024": 0.0,
			"0.025": 0.0
		}
	}
}
