{
	 "smiles": "CC1=CC(NC(=O)CN2CCNCC2)=NO1", 
	 "Tm": 388.15, 
	 "num_atms": 32, 
	 "gaussian": { 
		 "optdone": 1, 
		 "sigma_profile": "yes", 
		 "theory": "DFT", 
		 "functional": "B3LYP", 
		 "basiset": "6-31G**", 
		 "properties": { 
			 "R2extent": 5716.9779, 
			 "electric_dipole_moment_norm": 1.41569246307, 
			 "electric_quadrupole_moment_norm": 16.8650066872, 
			 "total_energy": -760.115203344, 
			 "HOMO_LUMO_gap": 0.19539, 
			 "cosmo_polarized_energy": -15.9, 
			 "cosmo_cavitation_energy": 34.32, 
			 "cosmo_dispersion_energy": -25.0, 
			 "cosmo_repulsion_energy": 1.96, 
			 "cosmo_total_nonelectrostatic_energy": 11.28, 
			 "SMD_solvation_energy": 2.8 
		},
		"coords": [
			{
				"x": 0.2717387883,
				"y": -2.354740584,
				"z": -4.5214754697,
				"element": "C" 
			},
			{
				"x": 0.288415966,
				"y": -1.3942422244,
				"z": -3.3831347314,
				"element": "C" 
			},
			{
				"x": 0.0524538873,
				"y": -1.5247389632,
				"z": -2.0477039689,
				"element": "C" 
			},
			{
				"x": 0.2438929768,
				"y": -0.2006456206,
				"z": -1.5529853016,
				"element": "C" 
			},
			{
				"x": 0.1356602718,
				"y": 0.2669904495,
				"z": -0.251034072,
				"element": "N" 
			},
			{
				"x": -0.2048156889,
				"y": -0.4711620591,
				"z": 0.8521196566,
				"element": "C" 
			},
			{
				"x": -0.4582798633,
				"y": -1.6669177505,
				"z": 0.8489840784,
				"element": "O" 
			},
			{
				"x": -0.1904312722,
				"y": 0.3446970567,
				"z": 2.1552096362,
				"element": "C" 
			},
			{
				"x": -0.2788082743,
				"y": 1.7877664352,
				"z": 1.935290847,
				"element": "N" 
			},
			{
				"x": 0.4438971295,
				"y": 2.6166607233,
				"z": 2.9154712715,
				"element": "C" 
			},
			{
				"x": -0.3047362818,
				"y": 2.7656428796,
				"z": 4.2512536085,
				"element": "C" 
			},
			{
				"x": -1.6853581863,
				"y": 3.2353862759,
				"z": 4.0858651221,
				"element": "N" 
			},
			{
				"x": -2.4129922237,
				"y": 2.4228190694,
				"z": 3.1032520267,
				"element": "C" 
			},
			{
				"x": -1.6646483893,
				"y": 2.2713000188,
				"z": 1.766974426,
				"element": "C" 
			},
			{
				"x": 0.5667613381,
				"y": 0.655608525,
				"z": -2.5030258233,
				"element": "N" 
			},
			{
				"x": 0.5952168582,
				"y": -0.1105982528,
				"z": -3.6752068518,
				"element": "O" 
			},
			{
				"x": 1.2509596418,
				"y": -2.3995202343,
				"z": -5.0097412567,
				"element": "H" 
			},
			{
				"x": 0.0136261212,
				"y": -3.3538031244,
				"z": -4.1652797968,
				"element": "H" 
			},
			{
				"x": -0.4608391866,
				"y": -2.0527322083,
				"z": -5.2774123899,
				"element": "H" 
			},
			{
				"x": -0.2145882753,
				"y": -2.3976618455,
				"z": -1.4779499994,
				"element": "H" 
			},
			{
				"x": 0.3010008383,
				"y": 1.2547597456,
				"z": -0.0737007163,
				"element": "H" 
			},
			{
				"x": 0.7623754271,
				"y": 0.1163875223,
				"z": 2.6473615844,
				"element": "H" 
			},
			{
				"x": -0.976687396,
				"y": -0.0821148223,
				"z": 2.7931243141,
				"element": "H" 
			},
			{
				"x": 1.4444839065,
				"y": 2.1947821041,
				"z": 3.0649612702,
				"element": "H" 
			},
			{
				"x": 0.5770875086,
				"y": 3.6124782183,
				"z": 2.4686614414,
				"element": "H" 
			},
			{
				"x": -0.3382292868,
				"y": 1.79673881,
				"z": 4.7683430955,
				"element": "H" 
			},
			{
				"x": 0.229104794,
				"y": 3.4591934243,
				"z": 4.9111908359,
				"element": "H" 
			},
			{
				"x": -1.6692316379,
				"y": 4.2038589376,
				"z": 3.7687483861,
				"element": "H" 
			},
			{
				"x": -3.3996817323,
				"y": 2.8686452324,
				"z": 2.9341698667,
				"element": "H" 
			},
			{
				"x": -2.5871931658,
				"y": 1.4349132871,
				"z": 3.5500529103,
				"element": "H" 
			},
			{
				"x": -1.6171552459,
				"y": 3.2495811418,
				"z": 1.2683553492,
				"element": "H" 
			},
			{
				"x": -2.195199347,
				"y": 1.5919678326,
				"z": 1.090060651,
				"element": "H" 
			}
		],
		 "valence_orbital": [ 
			{
				"type": "occ",
				"energy": -0.27228,
				"method": "rhf"
			},
			{
				"type": "occ",
				"energy": -0.25377,
				"method": "rhf"
			},
			{
				"type": "occ",
				"energy": -0.25234,
				"method": "rhf"
			},
			{
				"type": "occ",
				"energy": -0.23581,
				"method": "rhf"
			},
			{
				"type": "occ",
				"energy": -0.20606,
				"method": "rhf"
			},
			{
				"type": "unocc",
				"energy": -0.01067,
				"method": "rhf"
			},
			{
				"type": "unocc",
				"energy": 0.02133,
				"method": "rhf"
			},
			{
				"type": "unocc",
				"energy": 0.06484,
				"method": "rhf"
			},
			{
				"type": "unocc",
				"energy": 0.08601,
				"method": "rhf"
			},
			{
				"type": "unocc",
				"energy": 0.09248,
				"method": "rhf"
			}
		],
		"cosmo_sigma_profile": { 
			"-0.025": 0.0,
			"-0.024": 0.0,
			"-0.023": 0.0,
			"-0.022": 0.0,
			"-0.021": 0.0,
			"-0.02": 0.0,
			"-0.019": 0.0,
			"-0.018": 0.0,
			"-0.017": 0.0,
			"-0.016": 0.0,
			"-0.015": 0.0,
			"-0.014": 0.0,
			"-0.013": 0.0,
			"-0.012": 0.0,
			"-0.011": 0.0,
			"-0.01": 0.403693923737,
			"-0.009": 2.10744270404,
			"-0.008": 2.11020110095,
			"-0.007": 5.612009712,
			"-0.006": 14.6535262717,
			"-0.005": 20.4362343105,
			"-0.004": 31.6268881711,
			"-0.003": 33.5441746802,
			"-0.002": 29.3436232717,
			"-0.001": 23.4390941826,
			"0.0": 14.9117065582,
			"0.001": 13.3726426371,
			"0.002": 11.7082136546,
			"0.003": 9.95612047838,
			"0.004": 4.87982623162,
			"0.005": 5.1638980519,
			"0.006": 5.60591706333,
			"0.007": 4.89919493861,
			"0.008": 6.20664034162,
			"0.009": 5.70954434847,
			"0.01": 3.70676860987,
			"0.011": 3.64925777786,
			"0.012": 5.53426078344,
			"0.013": 5.02103878925,
			"0.014": 2.81813332213,
			"0.015": 0.86183754775,
			"0.016": 0.407675138981,
			"0.017": 0.752792233442,
			"0.018": 0.551979735919,
			"0.019": 0.187557244009,
			"0.02": 0.0,
			"0.021": 0.0,
			"0.022": 0.0,
			"0.023": 0.0,
			"0.024": 0.0,
			"0.025": 0.0
		}
	}
}
