{
	 "smiles": "ClC1=CC=C(Br)S1", 
	 "Tm": 253.15, 
	 "num_atms": 9, 
	 "gaussian": { 
		 "optdone": 1, 
		 "sigma_profile": "yes", 
		 "theory": "DFT", 
		 "functional": "B3LYP", 
		 "basiset": "6-31G**", 
		 "properties": { 
			 "R2extent": 4154.6857, 
			 "electric_dipole_moment_norm": 1.21419901581, 
			 "electric_quadrupole_moment_norm": 2.98700228323, 
			 "total_energy": -3583.3828691, 
			 "HOMO_LUMO_gap": 0.1972, 
			 "cosmo_polarized_energy": -2.72, 
			 "cosmo_cavitation_energy": 19.17, 
			 "cosmo_dispersion_energy": -15.53, 
			 "cosmo_repulsion_energy": 1.26, 
			 "cosmo_total_nonelectrostatic_energy": 4.9, 
			 "SMD_solvation_energy": 1.7 
		},
		"coords": [
			{
				"x": -0.59690472,
				"y": 1.9520539716,
				"z": 0.6940737205,
				"element": "Cl" 
			},
			{
				"x": -0.5167186567,
				"y": 0.923398425,
				"z": -0.6947068424,
				"element": "C" 
			},
			{
				"x": 0.5142852354,
				"y": 0.1034132527,
				"z": -1.0541266749,
				"element": "C" 
			},
			{
				"x": 0.2459217063,
				"y": -0.6081329679,
				"z": -2.2650984843,
				"element": "C" 
			},
			{
				"x": -0.9791809009,
				"y": -0.3060362376,
				"z": -2.7861419725,
				"element": "C" 
			},
			{
				"x": -1.7479730734,
				"y": -0.9999870146,
				"z": -4.3601802092,
				"element": "Br" 
			},
			{
				"x": -1.8511822384,
				"y": 0.8563405919,
				"z": -1.8208078956,
				"element": "S" 
			},
			{
				"x": 1.4282627474,
				"y": 0.0087647872,
				"z": -0.4810867674,
				"element": "H" 
			},
			{
				"x": 0.9316899002,
				"y": -1.3092148082,
				"z": -2.7238248742,
				"element": "H" 
			}
		],
		 "valence_orbital": [ 
			{
				"type": "occ",
				"energy": -0.33016,
				"method": "rhf"
			},
			{
				"type": "occ",
				"energy": -0.31268,
				"method": "rhf"
			},
			{
				"type": "occ",
				"energy": -0.3039,
				"method": "rhf"
			},
			{
				"type": "occ",
				"energy": -0.27424,
				"method": "rhf"
			},
			{
				"type": "occ",
				"energy": -0.23279,
				"method": "rhf"
			},
			{
				"type": "unocc",
				"energy": -0.03559,
				"method": "rhf"
			},
			{
				"type": "unocc",
				"energy": -0.01835,
				"method": "rhf"
			},
			{
				"type": "unocc",
				"energy": -0.00127,
				"method": "rhf"
			},
			{
				"type": "unocc",
				"energy": 0.03704,
				"method": "rhf"
			},
			{
				"type": "unocc",
				"energy": 0.04522,
				"method": "rhf"
			}
		],
		"cosmo_sigma_profile": { 
			"-0.025": 0.0,
			"-0.024": 0.0,
			"-0.023": 0.0,
			"-0.022": 0.0,
			"-0.021": 0.0,
			"-0.02": 0.0,
			"-0.019": 0.0,
			"-0.018": 0.0,
			"-0.017": 0.0,
			"-0.016": 0.0,
			"-0.015": 0.0,
			"-0.014": 0.0,
			"-0.013": 0.0,
			"-0.012": 0.0,
			"-0.011": 0.0,
			"-0.01": 0.0,
			"-0.009": 0.569597313367,
			"-0.008": 3.90881155009,
			"-0.007": 3.59241903033,
			"-0.006": 4.83474825637,
			"-0.005": 5.01478931155,
			"-0.004": 5.15721079016,
			"-0.003": 8.86636733697,
			"-0.002": 11.4800161803,
			"-0.001": 13.0444526403,
			"0.0": 18.6227370685,
			"0.001": 24.4056112704,
			"0.002": 27.0678331574,
			"0.003": 28.6739070345,
			"0.004": 7.59967457568,
			"0.005": 0.0,
			"0.006": 0.0,
			"0.007": 0.0,
			"0.008": 0.0,
			"0.009": 0.0,
			"0.01": 0.0,
			"0.011": 0.0,
			"0.012": 0.0,
			"0.013": 0.0,
			"0.014": 0.0,
			"0.015": 0.0,
			"0.016": 0.0,
			"0.017": 0.0,
			"0.018": 0.0,
			"0.019": 0.0,
			"0.02": 0.0,
			"0.021": 0.0,
			"0.022": 0.0,
			"0.023": 0.0,
			"0.024": 0.0,
			"0.025": 0.0
		}
	}
}
