{
	 "smiles": "NC1=NC(CC2=CC=CC=C2)=CS1", 
	 "Tm": 363.15, 
	 "num_atms": 23, 
	 "gaussian": { 
		 "optdone": 1, 
		 "sigma_profile": "yes", 
		 "theory": "DFT", 
		 "functional": "B3LYP", 
		 "basiset": "6-31G**", 
		 "properties": { 
			 "R2extent": 3818.9474, 
			 "electric_dipole_moment_norm": 1.58653559052, 
			 "electric_quadrupole_moment_norm": 12.1135227812, 
			 "total_energy": -894.781169853, 
			 "HOMO_LUMO_gap": 0.20265, 
			 "cosmo_polarized_energy": -11.4, 
			 "cosmo_cavitation_energy": 28.77, 
			 "cosmo_dispersion_energy": -21.34, 
			 "cosmo_repulsion_energy": 1.67, 
			 "cosmo_total_nonelectrostatic_energy": 9.09, 
			 "SMD_solvation_energy": 3.45 
		},
		"coords": [
			{
				"x": -3.1810372849,
				"y": 2.2678198366,
				"z": -2.8410747884,
				"element": "N" 
			},
			{
				"x": -2.2537278493,
				"y": 2.3245470516,
				"z": -1.823674151,
				"element": "C" 
			},
			{
				"x": -1.89519988,
				"y": 1.2981066851,
				"z": -1.1091290754,
				"element": "N" 
			},
			{
				"x": -1.0087394346,
				"y": 1.6706019704,
				"z": -0.1107855707,
				"element": "C" 
			},
			{
				"x": -0.466499732,
				"y": 0.6083725458,
				"z": 0.8154039289,
				"element": "C" 
			},
			{
				"x": 0.503399912,
				"y": -0.3543806595,
				"z": 0.1460185546,
				"element": "C" 
			},
			{
				"x": 0.0468837062,
				"y": -1.3059132891,
				"z": -0.7771271849,
				"element": "C" 
			},
			{
				"x": 0.9385877275,
				"y": -2.1853263684,
				"z": -1.3908581666,
				"element": "C" 
			},
			{
				"x": 2.3021385988,
				"y": -2.1295132036,
				"z": -1.0915766282,
				"element": "C" 
			},
			{
				"x": 2.7667176401,
				"y": -1.1857555999,
				"z": -0.1752445246,
				"element": "C" 
			},
			{
				"x": 1.8716722331,
				"y": -0.3053876373,
				"z": 0.4366275106,
				"element": "C" 
			},
			{
				"x": -0.6888906595,
				"y": 2.9935090766,
				"z": -0.0678073483,
				"element": "C" 
			},
			{
				"x": -1.5366981833,
				"y": 3.8642818502,
				"z": -1.3282120734,
				"element": "S" 
			},
			{
				"x": -3.3594990731,
				"y": 1.3220393823,
				"z": -3.1533642267,
				"element": "H" 
			},
			{
				"x": -3.068075357,
				"y": 2.9301212876,
				"z": -3.5953164667,
				"element": "H" 
			},
			{
				"x": -1.3167023106,
				"y": 0.0454364941,
				"z": 1.2201959419,
				"element": "H" 
			},
			{
				"x": 0.0276431707,
				"y": 1.0944123522,
				"z": 1.6621094537,
				"element": "H" 
			},
			{
				"x": -1.0106581072,
				"y": -1.3404622205,
				"z": -1.02039686,
				"element": "H" 
			},
			{
				"x": 0.5682552315,
				"y": -2.9180528967,
				"z": -2.1028818475,
				"element": "H" 
			},
			{
				"x": 2.9953685545,
				"y": -2.8173845727,
				"z": -1.5675016339,
				"element": "H" 
			},
			{
				"x": 3.8249114327,
				"y": -1.1341078637,
				"z": 0.0662162386,
				"element": "H" 
			},
			{
				"x": 2.2406648262,
				"y": 0.4267862604,
				"z": 1.1512226566,
				"element": "H" 
			},
			{
				"x": -0.0161151619,
				"y": 3.5074495186,
				"z": 0.6028562615,
				"element": "H" 
			}
		],
		 "valence_orbital": [ 
			{
				"type": "occ",
				"energy": -0.27059,
				"method": "rhf"
			},
			{
				"type": "occ",
				"energy": -0.26897,
				"method": "rhf"
			},
			{
				"type": "occ",
				"energy": -0.24086,
				"method": "rhf"
			},
			{
				"type": "occ",
				"energy": -0.23433,
				"method": "rhf"
			},
			{
				"type": "occ",
				"energy": -0.20634,
				"method": "rhf"
			},
			{
				"type": "unocc",
				"energy": -0.00369,
				"method": "rhf"
			},
			{
				"type": "unocc",
				"energy": 0.00552,
				"method": "rhf"
			},
			{
				"type": "unocc",
				"energy": 0.01166,
				"method": "rhf"
			},
			{
				"type": "unocc",
				"energy": 0.01607,
				"method": "rhf"
			},
			{
				"type": "unocc",
				"energy": 0.06531,
				"method": "rhf"
			}
		],
		"cosmo_sigma_profile": { 
			"-0.025": 0.0,
			"-0.024": 0.0,
			"-0.023": 0.0,
			"-0.022": 0.0,
			"-0.021": 0.0,
			"-0.02": 0.0,
			"-0.019": 0.0,
			"-0.018": 0.0,
			"-0.017": 0.0,
			"-0.016": 0.0,
			"-0.015": 0.154357379213,
			"-0.014": 1.62625424613,
			"-0.013": 2.49386586491,
			"-0.012": 3.01280919363,
			"-0.011": 2.3574291947,
			"-0.01": 2.50199838242,
			"-0.009": 2.17356092798,
			"-0.008": 3.09104255197,
			"-0.007": 3.24647179369,
			"-0.006": 5.51212595519,
			"-0.005": 16.2293958681,
			"-0.004": 16.1921626823,
			"-0.003": 17.9376842249,
			"-0.002": 14.8826113954,
			"-0.001": 15.4233363729,
			"0.0": 11.9580988162,
			"0.001": 12.0842757714,
			"0.002": 17.2961644278,
			"0.003": 15.9467187608,
			"0.004": 18.7293518544,
			"0.005": 17.9395796821,
			"0.006": 14.2540387437,
			"0.007": 6.48210060197,
			"0.008": 3.08350354179,
			"0.009": 2.17480534173,
			"0.01": 1.87215048703,
			"0.011": 1.10573087753,
			"0.012": 1.23575938993,
			"0.013": 0.447770932899,
			"0.014": 0.154321941404,
			"0.015": 0.0,
			"0.016": 0.0,
			"0.017": 0.0,
			"0.018": 0.0,
			"0.019": 0.0,
			"0.02": 0.0,
			"0.021": 0.0,
			"0.022": 0.0,
			"0.023": 0.0,
			"0.024": 0.0,
			"0.025": 0.0
		}
	}
}
