{
	 "smiles": "COC1=CC2=C(C=C1)C(CBr)=CC(=O)O2", 
	 "Tm": 487.15, 
	 "num_atms": 24, 
	 "gaussian": { 
		 "optdone": 1, 
		 "sigma_profile": "yes", 
		 "theory": "DFT", 
		 "functional": "B3LYP", 
		 "basiset": "6-31G**", 
		 "properties": { 
			 "R2extent": 5439.7725, 
			 "electric_dipole_moment_norm": 5.96641441487, 
			 "electric_quadrupole_moment_norm": 12.7099578422, 
			 "total_energy": -3221.6660635, 
			 "HOMO_LUMO_gap": 0.15137, 
			 "cosmo_polarized_energy": -14.71, 
			 "cosmo_cavitation_energy": 30.62, 
			 "cosmo_dispersion_energy": -22.85, 
			 "cosmo_repulsion_energy": 1.78, 
			 "cosmo_total_nonelectrostatic_energy": 9.55, 
			 "SMD_solvation_energy": 5.97 
		},
		"coords": [
			{
				"x": -2.721374845,
				"y": 1.4269263555,
				"z": -3.5368904978,
				"element": "C" 
			},
			{
				"x": -1.7883747481,
				"y": 0.4341285915,
				"z": -3.1287217986,
				"element": "O" 
			},
			{
				"x": -1.1601079273,
				"y": 0.5806274193,
				"z": -1.9351839972,
				"element": "C" 
			},
			{
				"x": -0.2647579152,
				"y": -0.4383930974,
				"z": -1.5957737239,
				"element": "C" 
			},
			{
				"x": 0.4229389626,
				"y": -0.3700320479,
				"z": -0.3910738667,
				"element": "C" 
			},
			{
				"x": 0.2486190243,
				"y": 0.7072733506,
				"z": 0.5076139425,
				"element": "C" 
			},
			{
				"x": -0.6625857816,
				"y": 1.7127401661,
				"z": 0.1404128456,
				"element": "C" 
			},
			{
				"x": -1.3607735305,
				"y": 1.6639565248,
				"z": -1.0582499978,
				"element": "C" 
			},
			{
				"x": 1.0275962248,
				"y": 0.6948515393,
				"z": 1.731222773,
				"element": "C" 
			},
			{
				"x": 0.956941006,
				"y": 1.8262910906,
				"z": 2.7090641685,
				"element": "C" 
			},
			{
				"x": -0.741873311,
				"y": 1.8195087947,
				"z": 3.7547585836,
				"element": "Br" 
			},
			{
				"x": 1.8716078045,
				"y": -0.3425816198,
				"z": 1.9711014626,
				"element": "C" 
			},
			{
				"x": 2.035964881,
				"y": -1.4565589725,
				"z": 1.0467623083,
				"element": "C" 
			},
			{
				"x": 2.765550917,
				"y": -2.4070027604,
				"z": 1.2041801001,
				"element": "O" 
			},
			{
				"x": 1.2802097924,
				"y": -1.3978468566,
				"z": -0.1221186849,
				"element": "O" 
			},
			{
				"x": -2.2442559132,
				"y": 2.408879322,
				"z": -3.6428291889,
				"element": "H" 
			},
			{
				"x": -3.5600185607,
				"y": 1.5045202163,
				"z": -2.834354932,
				"element": "H" 
			},
			{
				"x": -3.0950493654,
				"y": 1.1021758157,
				"z": -4.508574351,
				"element": "H" 
			},
			{
				"x": -0.1091105096,
				"y": -1.2750542942,
				"z": -2.2660504997,
				"element": "H" 
			},
			{
				"x": -0.8460669084,
				"y": 2.5397761002,
				"z": 0.8172989759,
				"element": "H" 
			},
			{
				"x": -2.0567199756,
				"y": 2.4567128381,
				"z": -1.3013512792,
				"element": "H" 
			},
			{
				"x": 0.981323901,
				"y": 2.8014866181,
				"z": 2.2246518298,
				"element": "H" 
			},
			{
				"x": 1.7462854779,
				"y": 1.7624268024,
				"z": 3.4542377429,
				"element": "H" 
			},
			{
				"x": 2.4749313,
				"y": -0.3971118965,
				"z": 2.8699680849,
				"element": "H" 
			}
		],
		 "valence_orbital": [ 
			{
				"type": "occ",
				"energy": -0.28621,
				"method": "rhf"
			},
			{
				"type": "occ",
				"energy": -0.28593,
				"method": "rhf"
			},
			{
				"type": "occ",
				"energy": -0.27307,
				"method": "rhf"
			},
			{
				"type": "occ",
				"energy": -0.25195,
				"method": "rhf"
			},
			{
				"type": "occ",
				"energy": -0.22891,
				"method": "rhf"
			},
			{
				"type": "unocc",
				"energy": -0.07754,
				"method": "rhf"
			},
			{
				"type": "unocc",
				"energy": -0.02016,
				"method": "rhf"
			},
			{
				"type": "unocc",
				"energy": -0.01232,
				"method": "rhf"
			},
			{
				"type": "unocc",
				"energy": 0.0187,
				"method": "rhf"
			},
			{
				"type": "unocc",
				"energy": 0.07418,
				"method": "rhf"
			}
		],
		"cosmo_sigma_profile": { 
			"-0.025": 0.0,
			"-0.024": 0.0,
			"-0.023": 0.0,
			"-0.022": 0.0,
			"-0.021": 0.0,
			"-0.02": 0.0,
			"-0.019": 0.0,
			"-0.018": 0.0,
			"-0.017": 0.0,
			"-0.016": 0.0,
			"-0.015": 0.0,
			"-0.014": 0.0,
			"-0.013": 0.0,
			"-0.012": 0.0,
			"-0.011": 0.0,
			"-0.01": 0.334909838207,
			"-0.009": 5.20753911367,
			"-0.008": 7.13286938183,
			"-0.007": 10.8172497365,
			"-0.006": 17.1975872621,
			"-0.005": 18.4035034105,
			"-0.004": 16.458590565,
			"-0.003": 16.4463889571,
			"-0.002": 13.4090916599,
			"-0.001": 14.108544163,
			"0.0": 14.875347994,
			"0.001": 18.3306855604,
			"0.002": 20.5599558357,
			"0.003": 16.7264755971,
			"0.004": 11.5585608163,
			"0.005": 13.7207626089,
			"0.006": 6.70864725761,
			"0.007": 3.35290142276,
			"0.008": 3.9279297653,
			"0.009": 3.46170180084,
			"0.01": 3.52591842002,
			"0.011": 3.78567462815,
			"0.012": 6.16296857494,
			"0.013": 2.20299558183,
			"0.014": 0.0489536813572,
			"0.015": 0.0,
			"0.016": 0.0,
			"0.017": 0.0,
			"0.018": 0.0,
			"0.019": 0.0,
			"0.02": 0.0,
			"0.021": 0.0,
			"0.022": 0.0,
			"0.023": 0.0,
			"0.024": 0.0,
			"0.025": 0.0
		}
	}
}
