{
	 "smiles": "NC1=NC=C(C=C1)C#N", 
	 "Tm": 434.65, 
	 "num_atms": 14, 
	 "gaussian": { 
		 "optdone": 1, 
		 "sigma_profile": "yes", 
		 "theory": "DFT", 
		 "functional": "B3LYP", 
		 "basiset": "6-31G**", 
		 "properties": { 
			 "R2extent": 2484.2789, 
			 "electric_dipole_moment_norm": 6.25670840458, 
			 "electric_quadrupole_moment_norm": 22.7231223691, 
			 "total_energy": -395.895634316, 
			 "HOMO_LUMO_gap": 0.19214, 
			 "cosmo_polarized_energy": -14.53, 
			 "cosmo_cavitation_energy": 19.67, 
			 "cosmo_dispersion_energy": -14.22, 
			 "cosmo_repulsion_energy": 1.18, 
			 "cosmo_total_nonelectrostatic_energy": 6.63, 
			 "SMD_solvation_energy": 3.57 
		},
		"coords": [
			{
				"x": 0.0945338202,
				"y": -0.9710080298,
				"z": -1.6575252491,
				"element": "N" 
			},
			{
				"x": 0.5576209138,
				"y": -1.3599545289,
				"z": -0.4306709103,
				"element": "C" 
			},
			{
				"x": 0.223671047,
				"y": -0.5661732444,
				"z": 0.6047169732,
				"element": "N" 
			},
			{
				"x": 0.6178481031,
				"y": -0.9252049863,
				"z": 1.8229727413,
				"element": "C" 
			},
			{
				"x": 1.3682946428,
				"y": -2.0803451115,
				"z": 2.095550123,
				"element": "C" 
			},
			{
				"x": 1.7165217402,
				"y": -2.9012859243,
				"z": 1.0031145806,
				"element": "C" 
			},
			{
				"x": 1.3116892863,
				"y": -2.5461581149,
				"z": -0.2673934551,
				"element": "C" 
			},
			{
				"x": 1.762048454,
				"y": -2.4007561985,
				"z": 3.4296921543,
				"element": "C" 
			},
			{
				"x": 2.082634452,
				"y": -2.6601841283,
				"z": 4.5185643808,
				"element": "N" 
			},
			{
				"x": -0.2823492597,
				"y": -0.0367455769,
				"z": -1.7134702784,
				"element": "H" 
			},
			{
				"x": 0.5105667863,
				"y": -1.3519226889,
				"z": -2.4917483725,
				"element": "H" 
			},
			{
				"x": 0.3314062295,
				"y": -0.2634948495,
				"z": 2.6376666148,
				"element": "H" 
			},
			{
				"x": 2.2972235598,
				"y": -3.8032761316,
				"z": 1.1666688387,
				"element": "H" 
			},
			{
				"x": 1.5603902246,
				"y": -3.1630904863,
				"z": -1.1251381413,
				"element": "H" 
			}
		],
		 "valence_orbital": [ 
			{
				"type": "occ",
				"energy": -0.32946,
				"method": "rhf"
			},
			{
				"type": "occ",
				"energy": -0.3184,
				"method": "rhf"
			},
			{
				"type": "occ",
				"energy": -0.30104,
				"method": "rhf"
			},
			{
				"type": "occ",
				"energy": -0.27679,
				"method": "rhf"
			},
			{
				"type": "occ",
				"energy": -0.23189,
				"method": "rhf"
			},
			{
				"type": "unocc",
				"energy": -0.03975,
				"method": "rhf"
			},
			{
				"type": "unocc",
				"energy": -0.03475,
				"method": "rhf"
			},
			{
				"type": "unocc",
				"energy": 0.03909,
				"method": "rhf"
			},
			{
				"type": "unocc",
				"energy": 0.06465,
				"method": "rhf"
			},
			{
				"type": "unocc",
				"energy": 0.08302,
				"method": "rhf"
			}
		],
		"cosmo_sigma_profile": { 
			"-0.025": 0.0,
			"-0.024": 0.0,
			"-0.023": 0.0,
			"-0.022": 0.0,
			"-0.021": 0.0,
			"-0.02": 0.0,
			"-0.019": 0.0,
			"-0.018": 0.0,
			"-0.017": 0.0,
			"-0.016": 0.0,
			"-0.015": 0.253765542261,
			"-0.014": 1.8499372275,
			"-0.013": 2.69612442496,
			"-0.012": 2.46625497095,
			"-0.011": 3.04203333686,
			"-0.01": 2.53789018297,
			"-0.009": 2.51952255315,
			"-0.008": 7.56345684386,
			"-0.007": 6.87440717537,
			"-0.006": 7.18369637454,
			"-0.005": 6.83873211832,
			"-0.004": 5.13126137376,
			"-0.003": 6.54757273559,
			"-0.002": 7.2332348268,
			"-0.001": 9.06184275362,
			"0.0": 14.2126932191,
			"0.001": 14.0482646246,
			"0.002": 8.6179409385,
			"0.003": 5.40321679396,
			"0.004": 5.06590683346,
			"0.005": 4.34890744318,
			"0.006": 4.58874801222,
			"0.007": 4.5000815309,
			"0.008": 5.59855014449,
			"0.009": 4.14234001398,
			"0.01": 4.48137747501,
			"0.011": 3.5673748914,
			"0.012": 3.7218211922,
			"0.013": 3.38160383746,
			"0.014": 1.23943684265,
			"0.015": 0.0826086643631,
			"0.016": 0.0,
			"0.017": 0.0,
			"0.018": 0.0,
			"0.019": 0.0,
			"0.02": 0.0,
			"0.021": 0.0,
			"0.022": 0.0,
			"0.023": 0.0,
			"0.024": 0.0,
			"0.025": 0.0
		}
	}
}
