{
	 "smiles": "CC1=C(C)C(C#N)=C(Cl)N=N1", 
	 "Tm": 335.15, 
	 "num_atms": 17, 
	 "gaussian": { 
		 "optdone": 1, 
		 "sigma_profile": "yes", 
		 "theory": "DFT", 
		 "functional": "B3LYP", 
		 "basiset": "6-31G**", 
		 "properties": { 
			 "R2extent": 3353.8727, 
			 "electric_dipole_moment_norm": 4.67584029881, 
			 "electric_quadrupole_moment_norm": 17.7560208056, 
			 "total_energy": -894.754287132, 
			 "HOMO_LUMO_gap": 0.16647, 
			 "cosmo_polarized_energy": -12.93, 
			 "cosmo_cavitation_energy": 24.04, 
			 "cosmo_dispersion_energy": -17.21, 
			 "cosmo_repulsion_energy": 1.38, 
			 "cosmo_total_nonelectrostatic_energy": 8.21, 
			 "SMD_solvation_energy": 3.49 
		},
		"coords": [
			{
				"x": -2.6298959514,
				"y": 3.3204888737,
				"z": 0.6178423204,
				"element": "C" 
			},
			{
				"x": -1.3833643184,
				"y": 2.6309093688,
				"z": 1.1012200919,
				"element": "C" 
			},
			{
				"x": -0.4284899753,
				"y": 2.0989541016,
				"z": 0.199856219,
				"element": "C" 
			},
			{
				"x": -0.6185014206,
				"y": 2.199311021,
				"z": -1.2870918729,
				"element": "C" 
			},
			{
				"x": 0.6861000563,
				"y": 1.4833669938,
				"z": 0.7760286631,
				"element": "C" 
			},
			{
				"x": 1.7190791427,
				"y": 0.9076510744,
				"z": -0.0311417718,
				"element": "C" 
			},
			{
				"x": 2.5414631553,
				"y": 0.450163146,
				"z": -0.7140388524,
				"element": "N" 
			},
			{
				"x": 0.7488343147,
				"y": 1.4536375824,
				"z": 2.1887921534,
				"element": "C" 
			},
			{
				"x": 2.104812212,
				"y": 0.7043162445,
				"z": 2.9849285334,
				"element": "Cl" 
			},
			{
				"x": -0.176409273,
				"y": 1.9688099761,
				"z": 2.9726993887,
				"element": "N" 
			},
			{
				"x": -1.2441329509,
				"y": 2.5583340675,
				"z": 2.4282513824,
				"element": "N" 
			},
			{
				"x": -3.2433927346,
				"y": 2.6531672324,
				"z": 0.0019235807,
				"element": "H" 
			},
			{
				"x": -3.2146698839,
				"y": 3.6425381274,
				"z": 1.4799849609,
				"element": "H" 
			},
			{
				"x": -2.3899478702,
				"y": 4.1968499547,
				"z": 0.0049023268,
				"element": "H" 
			},
			{
				"x": -0.6976392105,
				"y": 3.2477596856,
				"z": -1.5950928447,
				"element": "H" 
			},
			{
				"x": 0.2065538867,
				"y": 1.741055734,
				"z": -1.8340059596,
				"element": "H" 
			},
			{
				"x": -1.5494991789,
				"y": 1.7075868162,
				"z": -1.5902583194,
				"element": "H" 
			}
		],
		 "valence_orbital": [ 
			{
				"type": "occ",
				"energy": -0.34629,
				"method": "rhf"
			},
			{
				"type": "occ",
				"energy": -0.32622,
				"method": "rhf"
			},
			{
				"type": "occ",
				"energy": -0.31069,
				"method": "rhf"
			},
			{
				"type": "occ",
				"energy": -0.2883,
				"method": "rhf"
			},
			{
				"type": "occ",
				"energy": -0.26137,
				"method": "rhf"
			},
			{
				"type": "unocc",
				"energy": -0.0949,
				"method": "rhf"
			},
			{
				"type": "unocc",
				"energy": -0.05739,
				"method": "rhf"
			},
			{
				"type": "unocc",
				"energy": 0.0039,
				"method": "rhf"
			},
			{
				"type": "unocc",
				"energy": 0.02026,
				"method": "rhf"
			},
			{
				"type": "unocc",
				"energy": 0.03942,
				"method": "rhf"
			}
		],
		"cosmo_sigma_profile": { 
			"-0.025": 0.0,
			"-0.024": 0.0,
			"-0.023": 0.0,
			"-0.022": 0.0,
			"-0.021": 0.0,
			"-0.02": 0.0,
			"-0.019": 0.0,
			"-0.018": 0.0,
			"-0.017": 0.0,
			"-0.016": 0.0,
			"-0.015": 0.0,
			"-0.014": 0.0,
			"-0.013": 0.0,
			"-0.012": 0.0,
			"-0.011": 0.0,
			"-0.01": 0.0,
			"-0.009": 0.000336553842297,
			"-0.008": 2.05176557729,
			"-0.007": 7.62537467209,
			"-0.006": 12.7571142069,
			"-0.005": 22.3011940084,
			"-0.004": 21.9612750294,
			"-0.003": 17.8606088378,
			"-0.002": 14.9518575177,
			"-0.001": 10.8456924187,
			"0.0": 8.29269586705,
			"0.001": 8.47753870724,
			"0.002": 11.9953705798,
			"0.003": 10.4946010131,
			"0.004": 5.50740705011,
			"0.005": 5.28948302287,
			"0.006": 5.04015774103,
			"0.007": 5.66150475576,
			"0.008": 4.57103640434,
			"0.009": 4.41687032293,
			"0.01": 4.31007411264,
			"0.011": 5.15713175149,
			"0.012": 3.23584393232,
			"0.013": 2.04281521016,
			"0.014": 0.905066411558,
			"0.015": 0.0671314084833,
			"0.016": 0.0,
			"0.017": 0.0,
			"0.018": 0.0,
			"0.019": 0.0,
			"0.02": 0.0,
			"0.021": 0.0,
			"0.022": 0.0,
			"0.023": 0.0,
			"0.024": 0.0,
			"0.025": 0.0
		}
	}
}
