{
	 "smiles": "COC(=O)C=CC1=CC=C(C=CC(=O)OC)C(N)=C1", 
	 "Tm": 432.15, 
	 "num_atms": 34, 
	 "gaussian": { 
		 "optdone": 1, 
		 "sigma_profile": "yes", 
		 "theory": "DFT", 
		 "functional": "B3LYP", 
		 "basiset": "6-31G**", 
		 "properties": { 
			 "R2extent": 10842.7298, 
			 "electric_dipole_moment_norm": 1.32497670168, 
			 "electric_quadrupole_moment_norm": 31.66961152, 
			 "total_energy": -898.171729852, 
			 "HOMO_LUMO_gap": 0.13216, 
			 "cosmo_polarized_energy": -18.77, 
			 "cosmo_cavitation_energy": 40.2, 
			 "cosmo_dispersion_energy": -28.63, 
			 "cosmo_repulsion_energy": 2.23, 
			 "cosmo_total_nonelectrostatic_energy": 13.8, 
			 "SMD_solvation_energy": 10.22 
		},
		"coords": [
			{
				"x": -0.2728527008,
				"y": 4.9680986521,
				"z": -4.9407460553,
				"element": "C" 
			},
			{
				"x": -0.0634248282,
				"y": 3.9997447625,
				"z": -3.9036819727,
				"element": "O" 
			},
			{
				"x": 1.1967282878,
				"y": 3.9591207484,
				"z": -3.4019250421,
				"element": "C" 
			},
			{
				"x": 2.0914605065,
				"y": 4.6856093365,
				"z": -3.7937574909,
				"element": "O" 
			},
			{
				"x": 1.371032673,
				"y": 2.9508329729,
				"z": -2.3394329354,
				"element": "C" 
			},
			{
				"x": 0.3925101753,
				"y": 2.1412741622,
				"z": -1.8915589348,
				"element": "C" 
			},
			{
				"x": 0.4937256072,
				"y": 1.1240644925,
				"z": -0.84381495,
				"element": "C" 
			},
			{
				"x": -0.6470876033,
				"y": 0.3539563362,
				"z": -0.5432273283,
				"element": "C" 
			},
			{
				"x": -0.5901986394,
				"y": -0.6285579473,
				"z": 0.4329497889,
				"element": "C" 
			},
			{
				"x": 0.587323209,
				"y": -0.8888266062,
				"z": 1.1553699865,
				"element": "C" 
			},
			{
				"x": 0.668050825,
				"y": -1.967452454,
				"z": 2.1373898551,
				"element": "C" 
			},
			{
				"x": -0.3612097949,
				"y": -2.4963556674,
				"z": 2.8291799077,
				"element": "C" 
			},
			{
				"x": -0.2379246111,
				"y": -3.6216345208,
				"z": 3.7740709254,
				"element": "C" 
			},
			{
				"x": -1.1777160131,
				"y": -4.0977254803,
				"z": 4.383632574,
				"element": "O" 
			},
			{
				"x": 1.0352988255,
				"y": -4.0766685383,
				"z": 3.9046921389,
				"element": "O" 
			},
			{
				"x": 1.1962639939,
				"y": -5.1746010367,
				"z": 4.8133033814,
				"element": "C" 
			},
			{
				"x": 1.7374753317,
				"y": -0.0964829712,
				"z": 0.8740672524,
				"element": "C" 
			},
			{
				"x": 2.932267251,
				"y": -0.3208745408,
				"z": 1.5562465771,
				"element": "N" 
			},
			{
				"x": 1.6708908416,
				"y": 0.8860310988,
				"z": -0.1198739687,
				"element": "C" 
			},
			{
				"x": -1.3202599804,
				"y": 4.8716137568,
				"z": -5.2273330174,
				"element": "H" 
			},
			{
				"x": -0.067194718,
				"y": 5.9775806849,
				"z": -4.5751869284,
				"element": "H" 
			},
			{
				"x": 0.3781389972,
				"y": 4.7668043836,
				"z": -5.7955474575,
				"element": "H" 
			},
			{
				"x": 2.381669789,
				"y": 2.9210840322,
				"z": -1.9457441849,
				"element": "H" 
			},
			{
				"x": -0.5881954246,
				"y": 2.24079747,
				"z": -2.3506934769,
				"element": "H" 
			},
			{
				"x": -1.5670166714,
				"y": 0.5208511132,
				"z": -1.0953604447,
				"element": "H" 
			},
			{
				"x": -1.4644271514,
				"y": -1.2430823732,
				"z": 0.6234863432,
				"element": "H" 
			},
			{
				"x": 1.654903466,
				"y": -2.3906918138,
				"z": 2.3113414017,
				"element": "H" 
			},
			{
				"x": -1.3737997481,
				"y": -2.1155439705,
				"z": 2.7421123398,
				"element": "H" 
			},
			{
				"x": 0.6059525964,
				"y": -6.03543437,
				"z": 4.488659028,
				"element": "H" 
			},
			{
				"x": 0.8785606316,
				"y": -4.8938752066,
				"z": 5.8209757034,
				"element": "H" 
			},
			{
				"x": 2.2596462359,
				"y": -5.4148532588,
				"z": 4.8007748921,
				"element": "H" 
			},
			{
				"x": 3.6387304502,
				"y": 0.3885685001,
				"z": 1.4187712287,
				"element": "H" 
			},
			{
				"x": 2.8455790211,
				"y": -0.5791498018,
				"z": 2.5287341153,
				"element": "H" 
			},
			{
				"x": 2.55739917,
				"y": 1.4820780549,
				"z": -0.3176732517,
				"element": "H" 
			}
		],
		 "valence_orbital": [ 
			{
				"type": "occ",
				"energy": -0.27878,
				"method": "rhf"
			},
			{
				"type": "occ",
				"energy": -0.26902,
				"method": "rhf"
			},
			{
				"type": "occ",
				"energy": -0.26869,
				"method": "rhf"
			},
			{
				"type": "occ",
				"energy": -0.23788,
				"method": "rhf"
			},
			{
				"type": "occ",
				"energy": -0.21557,
				"method": "rhf"
			},
			{
				"type": "unocc",
				"energy": -0.08341,
				"method": "rhf"
			},
			{
				"type": "unocc",
				"energy": -0.03744,
				"method": "rhf"
			},
			{
				"type": "unocc",
				"energy": -0.00233,
				"method": "rhf"
			},
			{
				"type": "unocc",
				"energy": 0.03189,
				"method": "rhf"
			},
			{
				"type": "unocc",
				"energy": 0.06766,
				"method": "rhf"
			}
		],
		"cosmo_sigma_profile": { 
			"-0.025": 0.0,
			"-0.024": 0.0,
			"-0.023": 0.0,
			"-0.022": 0.0,
			"-0.021": 0.0,
			"-0.02": 0.0,
			"-0.019": 0.0,
			"-0.018": 0.0,
			"-0.017": 0.0,
			"-0.016": 0.0,
			"-0.015": 0.0,
			"-0.014": 0.0065688466264,
			"-0.013": 1.86386408131,
			"-0.012": 2.63490612768,
			"-0.011": 3.12397871814,
			"-0.01": 3.47923382613,
			"-0.009": 3.32039059063,
			"-0.008": 4.63387907384,
			"-0.007": 9.78214634179,
			"-0.006": 15.8040959029,
			"-0.005": 21.8045658665,
			"-0.004": 25.3854351406,
			"-0.003": 25.121305843,
			"-0.002": 20.3890877423,
			"-0.001": 19.2549947306,
			"0.0": 20.9766019086,
			"0.001": 21.9055107219,
			"0.002": 24.5709820781,
			"0.003": 23.7527312097,
			"0.004": 18.3586277595,
			"0.005": 9.59190195242,
			"0.006": 8.12358735226,
			"0.007": 3.77291651443,
			"0.008": 3.2532567045,
			"0.009": 3.46936270343,
			"0.01": 4.15597306323,
			"0.011": 5.24542963576,
			"0.012": 9.59943011119,
			"0.013": 6.28272366687,
			"0.014": 0.391840158976,
			"0.015": 0.0,
			"0.016": 0.0,
			"0.017": 0.0,
			"0.018": 0.0,
			"0.019": 0.0,
			"0.02": 0.0,
			"0.021": 0.0,
			"0.022": 0.0,
			"0.023": 0.0,
			"0.024": 0.0,
			"0.025": 0.0
		}
	}
}
