{
	 "smiles": "CC1=C(C(=O)CBr)C(=NO1)C1=CC=CC=C1", 
	 "Tm": 320.15, 
	 "num_atms": 26, 
	 "gaussian": { 
		 "optdone": 1, 
		 "sigma_profile": "yes", 
		 "theory": "DFT", 
		 "functional": "B3LYP", 
		 "basiset": "6-31G**", 
		 "properties": { 
			 "R2extent": 5702.9291, 
			 "electric_dipole_moment_norm": 2.18645842403, 
			 "electric_quadrupole_moment_norm": 18.2840015642, 
			 "total_energy": -3239.85933344, 
			 "HOMO_LUMO_gap": 0.20563, 
			 "cosmo_polarized_energy": -13.47, 
			 "cosmo_cavitation_energy": 32.97, 
			 "cosmo_dispersion_energy": -23.62, 
			 "cosmo_repulsion_energy": 1.87, 
			 "cosmo_total_nonelectrostatic_energy": 11.22, 
			 "SMD_solvation_energy": 4.83 
		},
		"coords": [
			{
				"x": 2.0789017512,
				"y": -2.8804661797,
				"z": -2.5376389232,
				"element": "C" 
			},
			{
				"x": 1.5066109355,
				"y": -2.4054768067,
				"z": -1.2506686598,
				"element": "C" 
			},
			{
				"x": 0.5692418055,
				"y": -1.443746612,
				"z": -0.9258480076,
				"element": "C" 
			},
			{
				"x": -0.1919623273,
				"y": -0.6933555194,
				"z": -1.9470635908,
				"element": "C" 
			},
			{
				"x": 0.1694110782,
				"y": -0.6882070776,
				"z": -3.1120679966,
				"element": "O" 
			},
			{
				"x": -1.4643510354,
				"y": 0.0161440274,
				"z": -1.4832084018,
				"element": "C" 
			},
			{
				"x": -2.5632692808,
				"y": 0.6579081437,
				"z": -2.9646410158,
				"element": "Br" 
			},
			{
				"x": 0.4950306644,
				"y": -1.5196959474,
				"z": 0.5130790136,
				"element": "C" 
			},
			{
				"x": 1.3043045176,
				"y": -2.4415178995,
				"z": 0.9869614134,
				"element": "N" 
			},
			{
				"x": 1.9351241887,
				"y": -3.0053091378,
				"z": -0.135931212,
				"element": "O" 
			},
			{
				"x": -0.2994015861,
				"y": -0.7252288559,
				"z": 1.4803126123,
				"element": "C" 
			},
			{
				"x": -1.1447534478,
				"y": -1.373382106,
				"z": 2.3916420802,
				"element": "C" 
			},
			{
				"x": -1.8718370909,
				"y": -0.6328894504,
				"z": 3.3239728973,
				"element": "C" 
			},
			{
				"x": -1.7559133644,
				"y": 0.7577786855,
				"z": 3.3603622684,
				"element": "C" 
			},
			{
				"x": -0.9027680999,
				"y": 1.4085771104,
				"z": 2.4660351068,
				"element": "C" 
			},
			{
				"x": -0.1758568293,
				"y": 0.6718764134,
				"z": 1.531617221,
				"element": "C" 
			},
			{
				"x": 2.5611862523,
				"y": -3.850049083,
				"z": -2.3976542137,
				"element": "H" 
			},
			{
				"x": 2.8186525152,
				"y": -2.1646861614,
				"z": -2.9115022633,
				"element": "H" 
			},
			{
				"x": 1.2972522683,
				"y": -2.9446074933,
				"z": -3.2970767017,
				"element": "H" 
			},
			{
				"x": -1.2196309513,
				"y": 0.8868623568,
				"z": -0.8749501562,
				"element": "H" 
			},
			{
				"x": -2.0840339555,
				"y": -0.6483774464,
				"z": -0.879539119,
				"element": "H" 
			},
			{
				"x": -1.2253116028,
				"y": -2.4551656732,
				"z": 2.36306673,
				"element": "H" 
			},
			{
				"x": -2.5277879199,
				"y": -1.1434325915,
				"z": 4.0227594592,
				"element": "H" 
			},
			{
				"x": -2.3232190576,
				"y": 1.3326604335,
				"z": 4.0862996325,
				"element": "H" 
			},
			{
				"x": -0.7963336978,
				"y": 2.4886849246,
				"z": 2.5014660252,
				"element": "H" 
			},
			{
				"x": 0.5096142698,
				"y": 1.1763019461,
				"z": 0.8561158016,
				"element": "H" 
			}
		],
		 "valence_orbital": [ 
			{
				"type": "occ",
				"energy": -0.27423,
				"method": "rhf"
			},
			{
				"type": "occ",
				"energy": -0.27116,
				"method": "rhf"
			},
			{
				"type": "occ",
				"energy": -0.26791,
				"method": "rhf"
			},
			{
				"type": "occ",
				"energy": -0.26589,
				"method": "rhf"
			},
			{
				"type": "occ",
				"energy": -0.26214,
				"method": "rhf"
			},
			{
				"type": "unocc",
				"energy": -0.05651,
				"method": "rhf"
			},
			{
				"type": "unocc",
				"energy": -0.04032,
				"method": "rhf"
			},
			{
				"type": "unocc",
				"energy": -0.02223,
				"method": "rhf"
			},
			{
				"type": "unocc",
				"energy": -0.00506,
				"method": "rhf"
			},
			{
				"type": "unocc",
				"energy": 0.00556,
				"method": "rhf"
			}
		],
		"cosmo_sigma_profile": { 
			"-0.025": 0.0,
			"-0.024": 0.0,
			"-0.023": 0.0,
			"-0.022": 0.0,
			"-0.021": 0.0,
			"-0.02": 0.0,
			"-0.019": 0.0,
			"-0.018": 0.0,
			"-0.017": 0.0,
			"-0.016": 0.0,
			"-0.015": 0.0,
			"-0.014": 0.0,
			"-0.013": 0.0,
			"-0.012": 0.0,
			"-0.011": 0.103649748707,
			"-0.01": 0.830590029805,
			"-0.009": 2.74892176878,
			"-0.008": 4.58698901992,
			"-0.007": 8.27962311316,
			"-0.006": 17.7494224671,
			"-0.005": 20.7839439746,
			"-0.004": 23.5768764523,
			"-0.003": 23.9979611738,
			"-0.002": 22.4642481821,
			"-0.001": 15.5388485017,
			"0.0": 12.489353882,
			"0.001": 13.1963800098,
			"0.002": 13.3306465747,
			"0.003": 15.5492639394,
			"0.004": 18.0911120199,
			"0.005": 13.9380089752,
			"0.006": 12.2487028769,
			"0.007": 6.62339977375,
			"0.008": 3.77683044116,
			"0.009": 3.68583527454,
			"0.01": 4.50412882559,
			"0.011": 3.99957912739,
			"0.012": 3.27130930813,
			"0.013": 1.76432244191,
			"0.014": 0.242730509808,
			"0.015": 0.0,
			"0.016": 0.0,
			"0.017": 0.0,
			"0.018": 0.0,
			"0.019": 0.0,
			"0.02": 0.0,
			"0.021": 0.0,
			"0.022": 0.0,
			"0.023": 0.0,
			"0.024": 0.0,
			"0.025": 0.0
		}
	}
}
