{
	 "smiles": "CC1=C(C)C2=C(C=CC=C2)N1C=O", 
	 "Tm": 362.15, 
	 "num_atms": 24, 
	 "gaussian": { 
		 "optdone": 1, 
		 "sigma_profile": "yes", 
		 "theory": "DFT", 
		 "functional": "B3LYP", 
		 "basiset": "6-31G**", 
		 "properties": { 
			 "R2extent": 2651.9326, 
			 "electric_dipole_moment_norm": 2.08166984174, 
			 "electric_quadrupole_moment_norm": 10.4086675795, 
			 "total_energy": -555.793137747, 
			 "HOMO_LUMO_gap": 0.17671, 
			 "cosmo_polarized_energy": -7.94, 
			 "cosmo_cavitation_energy": 27.1, 
			 "cosmo_dispersion_energy": -19.82, 
			 "cosmo_repulsion_energy": 1.53, 
			 "cosmo_total_nonelectrostatic_energy": 8.81, 
			 "SMD_solvation_energy": 5.96 
		},
		"coords": [
			{
				"x": 0.8666593395,
				"y": -3.2811052533,
				"z": 0.2063477593,
				"element": "C" 
			},
			{
				"x": 0.3098698234,
				"y": -1.8982676764,
				"z": 0.3060719962,
				"element": "C" 
			},
			{
				"x": -0.0978596856,
				"y": -1.0664257393,
				"z": -0.6996901664,
				"element": "C" 
			},
			{
				"x": -0.0760512083,
				"y": -1.366532251,
				"z": -2.1723632518,
				"element": "C" 
			},
			{
				"x": -0.5597554606,
				"y": 0.1676555843,
				"z": -0.0954022743,
				"element": "C" 
			},
			{
				"x": -0.4122190545,
				"y": 0.0399541991,
				"z": 1.3037871868,
				"element": "C" 
			},
			{
				"x": -0.769045572,
				"y": 1.0622326293,
				"z": 2.1834978953,
				"element": "C" 
			},
			{
				"x": -1.2851603236,
				"y": 2.2358766773,
				"z": 1.6339000483,
				"element": "C" 
			},
			{
				"x": -1.4395088203,
				"y": 2.3820681506,
				"z": 0.2457535948,
				"element": "C" 
			},
			{
				"x": -1.0805983677,
				"y": 1.3564076982,
				"z": -0.62425462,
				"element": "C" 
			},
			{
				"x": 0.12646825,
				"y": -1.2401350295,
				"z": 1.5505628731,
				"element": "N" 
			},
			{
				"x": 0.4156537797,
				"y": -1.7393676638,
				"z": 2.8093511519,
				"element": "C" 
			},
			{
				"x": 0.8792029686,
				"y": -2.837358178,
				"z": 3.0428745015,
				"element": "O" 
			},
			{
				"x": 1.8711066413,
				"y": -3.3485102515,
				"z": 0.6344747685,
				"element": "H" 
			},
			{
				"x": 0.913668133,
				"y": -3.5736775377,
				"z": -0.8452680037,
				"element": "H" 
			},
			{
				"x": 0.2525010517,
				"y": -4.0081911784,
				"z": 0.7456864356,
				"element": "H" 
			},
			{
				"x": -0.6933435606,
				"y": -2.2367373915,
				"z": -2.4226823437,
				"element": "H" 
			},
			{
				"x": -0.4606561863,
				"y": -0.5207769216,
				"z": -2.7479973138,
				"element": "H" 
			},
			{
				"x": 0.9379815932,
				"y": -1.5708346457,
				"z": -2.5342573179,
				"element": "H" 
			},
			{
				"x": -0.6575362759,
				"y": 0.9686908925,
				"z": 3.258403581,
				"element": "H" 
			},
			{
				"x": -1.5714126392,
				"y": 3.0483901174,
				"z": 2.294706984,
				"element": "H" 
			},
			{
				"x": -1.8442986035,
				"y": 3.3081888579,
				"z": -0.1514365881,
				"element": "H" 
			},
			{
				"x": -1.2031949341,
				"y": 1.4775717738,
				"z": -1.6966586616,
				"element": "H" 
			},
			{
				"x": 0.1739291117,
				"y": -1.0140168625,
				"z": 3.603891765,
				"element": "H" 
			}
		],
		 "valence_orbital": [ 
			{
				"type": "occ",
				"energy": -0.32891,
				"method": "rhf"
			},
			{
				"type": "occ",
				"energy": -0.27885,
				"method": "rhf"
			},
			{
				"type": "occ",
				"energy": -0.27049,
				"method": "rhf"
			},
			{
				"type": "occ",
				"energy": -0.23297,
				"method": "rhf"
			},
			{
				"type": "occ",
				"energy": -0.20952,
				"method": "rhf"
			},
			{
				"type": "unocc",
				"energy": -0.03281,
				"method": "rhf"
			},
			{
				"type": "unocc",
				"energy": -0.0133,
				"method": "rhf"
			},
			{
				"type": "unocc",
				"energy": 0.03187,
				"method": "rhf"
			},
			{
				"type": "unocc",
				"energy": 0.06965,
				"method": "rhf"
			},
			{
				"type": "unocc",
				"energy": 0.08587,
				"method": "rhf"
			}
		],
		"cosmo_sigma_profile": { 
			"-0.025": 0.0,
			"-0.024": 0.0,
			"-0.023": 0.0,
			"-0.022": 0.0,
			"-0.021": 0.0,
			"-0.02": 0.0,
			"-0.019": 0.0,
			"-0.018": 0.0,
			"-0.017": 0.0,
			"-0.016": 0.0,
			"-0.015": 0.0,
			"-0.014": 0.0,
			"-0.013": 0.0,
			"-0.012": 0.0,
			"-0.011": 0.0,
			"-0.01": 1.05390263591,
			"-0.009": 2.68734764185,
			"-0.008": 2.8526196304,
			"-0.007": 2.58342747658,
			"-0.006": 6.32941362335,
			"-0.005": 11.7161068706,
			"-0.004": 19.5330984073,
			"-0.003": 22.6771621902,
			"-0.002": 19.4993924609,
			"-0.001": 22.8966004653,
			"0.0": 20.2987442385,
			"0.001": 13.7595829442,
			"0.002": 11.4889362938,
			"0.003": 12.5115443137,
			"0.004": 12.5048839399,
			"0.005": 10.0572773715,
			"0.006": 8.61314484082,
			"0.007": 2.39764550512,
			"0.008": 1.67512637418,
			"0.009": 1.40076249941,
			"0.01": 2.35367948526,
			"0.011": 2.95161608478,
			"0.012": 3.12629122477,
			"0.013": 1.20240170803,
			"0.014": 0.00945635263767,
			"0.015": 0.0,
			"0.016": 0.0,
			"0.017": 0.0,
			"0.018": 0.0,
			"0.019": 0.0,
			"0.02": 0.0,
			"0.021": 0.0,
			"0.022": 0.0,
			"0.023": 0.0,
			"0.024": 0.0,
			"0.025": 0.0
		}
	}
}
