{
	 "smiles": "COC(=O)C(NS(C)(=O)=O)C(C)C", 
	 "Tm": 320.15, 
	 "num_atms": 28, 
	 "gaussian": { 
		 "optdone": 1, 
		 "sigma_profile": "yes", 
		 "theory": "DFT", 
		 "functional": "B3LYP", 
		 "basiset": "6-31G**", 
		 "properties": { 
			 "R2extent": 3206.1365, 
			 "electric_dipole_moment_norm": 3.4575150513, 
			 "electric_quadrupole_moment_norm": 16.9632656546, 
			 "total_energy": -1029.57005953, 
			 "HOMO_LUMO_gap": 0.26395, 
			 "cosmo_polarized_energy": -17.64, 
			 "cosmo_cavitation_energy": 32.04, 
			 "cosmo_dispersion_energy": -21.89, 
			 "cosmo_repulsion_energy": 1.71, 
			 "cosmo_total_nonelectrostatic_energy": 11.86, 
			 "SMD_solvation_energy": 6.44 
		},
		"coords": [
			{
				"x": -0.048967916,
				"y": 3.8955881672,
				"z": -0.796599271,
				"element": "C" 
			},
			{
				"x": -0.0633460569,
				"y": 2.460738802,
				"z": -0.9110932103,
				"element": "O" 
			},
			{
				"x": 0.2859673251,
				"y": 1.7870748035,
				"z": 0.205269581,
				"element": "C" 
			},
			{
				"x": 0.669857324,
				"y": 2.3124739982,
				"z": 1.2248048778,
				"element": "O" 
			},
			{
				"x": 0.2060222956,
				"y": 0.2717725606,
				"z": -0.0139417794,
				"element": "C" 
			},
			{
				"x": -0.8801167915,
				"y": -0.1304900934,
				"z": -0.9235086855,
				"element": "N" 
			},
			{
				"x": -2.4816123914,
				"y": 0.0885778322,
				"z": -0.3973304323,
				"element": "S" 
			},
			{
				"x": -2.9059940423,
				"y": -1.5626417716,
				"z": 0.1782241238,
				"element": "C" 
			},
			{
				"x": -2.515913526,
				"y": 0.9813072967,
				"z": 0.7670222939,
				"element": "O" 
			},
			{
				"x": -3.2587437492,
				"y": 0.3767453417,
				"z": -1.6056194688,
				"element": "O" 
			},
			{
				"x": 1.5542624869,
				"y": -0.2943093217,
				"z": -0.5490241156,
				"element": "C" 
			},
			{
				"x": 2.7429269281,
				"y": 0.1179683245,
				"z": 0.3333449351,
				"element": "C" 
			},
			{
				"x": 1.4888723795,
				"y": -1.8226361223,
				"z": -0.6829827568,
				"element": "C" 
			},
			{
				"x": 0.9521824054,
				"y": 4.2487174208,
				"z": -0.5383209342,
				"element": "H" 
			},
			{
				"x": -0.3521824589,
				"y": 4.2717695761,
				"z": -1.7730943496,
				"element": "H" 
			},
			{
				"x": -0.7525174562,
				"y": 4.2160860989,
				"z": -0.0253103412,
				"element": "H" 
			},
			{
				"x": 0.0118714719,
				"y": -0.160706305,
				"z": 0.9718509353,
				"element": "H" 
			},
			{
				"x": -0.8149740961,
				"y": 0.3383465495,
				"z": -1.8258968293,
				"element": "H" 
			},
			{
				"x": -3.9277623786,
				"y": -1.5118180713,
				"z": 0.5584245287,
				"element": "H" 
			},
			{
				"x": -2.2216608333,
				"y": -1.8475986635,
				"z": 0.9785535944,
				"element": "H" 
			},
			{
				"x": -2.8372392678,
				"y": -2.2535258089,
				"z": -0.6616273575,
				"element": "H" 
			},
			{
				"x": 1.7034262612,
				"y": 0.1361129539,
				"z": -1.5503667421,
				"element": "H" 
			},
			{
				"x": 2.8619659483,
				"y": 1.2011495977,
				"z": 0.4020975009,
				"element": "H" 
			},
			{
				"x": 2.6234443875,
				"y": -0.2640957767,
				"z": 1.3533290059,
				"element": "H" 
			},
			{
				"x": 3.6678986594,
				"y": -0.3011900834,
				"z": -0.074869588,
				"element": "H" 
			},
			{
				"x": 0.6628614408,
				"y": -2.1384701682,
				"z": -1.3233361502,
				"element": "H" 
			},
			{
				"x": 2.4225313684,
				"y": -2.2048374447,
				"z": -1.107644838,
				"element": "H" 
			},
			{
				"x": 1.356740282,
				"y": -2.2911096927,
				"z": 0.3000454729,
				"element": "H" 
			}
		],
		 "valence_orbital": [ 
			{
				"type": "occ",
				"energy": -0.3153,
				"method": "rhf"
			},
			{
				"type": "occ",
				"energy": -0.30588,
				"method": "rhf"
			},
			{
				"type": "occ",
				"energy": -0.30016,
				"method": "rhf"
			},
			{
				"type": "occ",
				"energy": -0.29609,
				"method": "rhf"
			},
			{
				"type": "occ",
				"energy": -0.25909,
				"method": "rhf"
			},
			{
				"type": "unocc",
				"energy": 0.00486,
				"method": "rhf"
			},
			{
				"type": "unocc",
				"energy": 0.05649,
				"method": "rhf"
			},
			{
				"type": "unocc",
				"energy": 0.07116,
				"method": "rhf"
			},
			{
				"type": "unocc",
				"energy": 0.08148,
				"method": "rhf"
			},
			{
				"type": "unocc",
				"energy": 0.09005,
				"method": "rhf"
			}
		],
		"cosmo_sigma_profile": { 
			"-0.025": 0.0,
			"-0.024": 0.0,
			"-0.023": 0.0,
			"-0.022": 0.0,
			"-0.021": 0.0,
			"-0.02": 0.0,
			"-0.019": 0.0,
			"-0.018": 0.0,
			"-0.017": 0.0,
			"-0.016": 0.0,
			"-0.015": 0.0,
			"-0.014": 0.0,
			"-0.013": 0.355055365882,
			"-0.012": 0.845719618252,
			"-0.011": 0.189362717749,
			"-0.01": 1.33635235042,
			"-0.009": 4.55365763954,
			"-0.008": 7.38658229835,
			"-0.007": 7.66460580902,
			"-0.006": 13.2198892832,
			"-0.005": 16.2932773042,
			"-0.004": 22.1057240996,
			"-0.003": 26.707604569,
			"-0.002": 20.1977224424,
			"-0.001": 19.01018377,
			"0.0": 18.5385078522,
			"0.001": 17.0423536198,
			"0.002": 8.40027894554,
			"0.003": 6.82076066726,
			"0.004": 6.60320388953,
			"0.005": 4.67739261396,
			"0.006": 3.101449629,
			"0.007": 4.05093001083,
			"0.008": 5.90753784928,
			"0.009": 5.47171056446,
			"0.01": 7.95493058871,
			"0.011": 13.992790937,
			"0.012": 7.26415220714,
			"0.013": 0.350559315814,
			"0.014": 0.0,
			"0.015": 0.0,
			"0.016": 0.0,
			"0.017": 0.0,
			"0.018": 0.0,
			"0.019": 0.0,
			"0.02": 0.0,
			"0.021": 0.0,
			"0.022": 0.0,
			"0.023": 0.0,
			"0.024": 0.0,
			"0.025": 0.0
		}
	}
}
