{
	 "smiles": "OCC1=CC2=CC=CN=C2S1", 
	 "Tm": 321.15, 
	 "num_atms": 18, 
	 "gaussian": { 
		 "optdone": 1, 
		 "sigma_profile": "yes", 
		 "theory": "DFT", 
		 "functional": "B3LYP", 
		 "basiset": "6-31G**", 
		 "properties": { 
			 "R2extent": 4257.4657, 
			 "electric_dipole_moment_norm": 2.17658202464, 
			 "electric_quadrupole_moment_norm": 9.38023697035, 
			 "total_energy": -837.216866496, 
			 "HOMO_LUMO_gap": 0.18892, 
			 "cosmo_polarized_energy": -10.42, 
			 "cosmo_cavitation_energy": 23.66, 
			 "cosmo_dispersion_energy": -18.3, 
			 "cosmo_repulsion_energy": 1.42, 
			 "cosmo_total_nonelectrostatic_energy": 6.77, 
			 "SMD_solvation_energy": 1.99 
		},
		"coords": [
			{
				"x": 3.2590261814,
				"y": -4.2471241218,
				"z": 2.9893669422,
				"element": "O" 
			},
			{
				"x": 2.0836063262,
				"y": -3.7771671521,
				"z": 3.6237445261,
				"element": "C" 
			},
			{
				"x": 1.3689609317,
				"y": -2.7273297906,
				"z": 2.8096157419,
				"element": "C" 
			},
			{
				"x": 1.891224422,
				"y": -2.0023412422,
				"z": 1.7822895966,
				"element": "C" 
			},
			{
				"x": 0.9571808413,
				"y": -1.0673148367,
				"z": 1.2169304695,
				"element": "C" 
			},
			{
				"x": 1.0877631836,
				"y": -0.1468213143,
				"z": 0.1661318906,
				"element": "C" 
			},
			{
				"x": -0.009986653,
				"y": 0.6415002849,
				"z": -0.1595895238,
				"element": "C" 
			},
			{
				"x": -1.2053086905,
				"y": 0.4965618993,
				"z": 0.5627754785,
				"element": "C" 
			},
			{
				"x": -1.3655241313,
				"y": -0.3693682271,
				"z": 1.5694995531,
				"element": "N" 
			},
			{
				"x": -0.3048198331,
				"y": -1.1125319167,
				"z": 1.8638945884,
				"element": "C" 
			},
			{
				"x": -0.3109198093,
				"y": -2.3189971824,
				"z": 3.1549321413,
				"element": "S" 
			},
			{
				"x": 2.9933065307,
				"y": -4.6636974189,
				"z": 2.1583554179,
				"element": "H" 
			},
			{
				"x": 2.4118075986,
				"y": -3.3508973794,
				"z": 4.5793316377,
				"element": "H" 
			},
			{
				"x": 1.391205172,
				"y": -4.5990554311,
				"z": 3.8667053536,
				"element": "H" 
			},
			{
				"x": 2.9147116367,
				"y": -2.123488993,
				"z": 1.4473816285,
				"element": "H" 
			},
			{
				"x": 2.0253009239,
				"y": -0.053632439,
				"z": -0.375214784,
				"element": "H" 
			},
			{
				"x": 0.0458753193,
				"y": 1.3674763005,
				"z": -0.9642630553,
				"element": "H" 
			},
			{
				"x": -2.0710099501,
				"y": 1.1079289608,
				"z": 0.3172123974,
				"element": "H" 
			}
		],
		 "valence_orbital": [ 
			{
				"type": "occ",
				"energy": -0.30784,
				"method": "rhf"
			},
			{
				"type": "occ",
				"energy": -0.29011,
				"method": "rhf"
			},
			{
				"type": "occ",
				"energy": -0.26309,
				"method": "rhf"
			},
			{
				"type": "occ",
				"energy": -0.24487,
				"method": "rhf"
			},
			{
				"type": "occ",
				"energy": -0.22984,
				"method": "rhf"
			},
			{
				"type": "unocc",
				"energy": -0.04092,
				"method": "rhf"
			},
			{
				"type": "unocc",
				"energy": -0.01551,
				"method": "rhf"
			},
			{
				"type": "unocc",
				"energy": 0.01734,
				"method": "rhf"
			},
			{
				"type": "unocc",
				"energy": 0.0372,
				"method": "rhf"
			},
			{
				"type": "unocc",
				"energy": 0.06854,
				"method": "rhf"
			}
		],
		"cosmo_sigma_profile": { 
			"-0.025": 0.0,
			"-0.024": 0.0,
			"-0.023": 0.0,
			"-0.022": 0.0,
			"-0.021": 0.0,
			"-0.02": 0.0,
			"-0.019": 0.0,
			"-0.018": 0.0,
			"-0.017": 0.0,
			"-0.016": 0.601238614547,
			"-0.015": 0.962137764032,
			"-0.014": 0.83266512185,
			"-0.013": 0.806563974429,
			"-0.012": 0.952278744453,
			"-0.011": 0.67818136238,
			"-0.01": 0.867419598097,
			"-0.009": 0.940242096316,
			"-0.008": 0.976467777899,
			"-0.007": 6.57477417688,
			"-0.006": 16.48791252,
			"-0.005": 15.2435070292,
			"-0.004": 11.6354492786,
			"-0.003": 10.3131059198,
			"-0.002": 8.07457377373,
			"-0.001": 8.07962469086,
			"0.0": 8.66905794204,
			"0.001": 16.0881128851,
			"0.002": 25.5130727344,
			"0.003": 21.0257757574,
			"0.004": 9.16141811878,
			"0.005": 5.32734966953,
			"0.006": 3.01458843783,
			"0.007": 2.46220439692,
			"0.008": 2.66538318648,
			"0.009": 1.8733613376,
			"0.01": 1.78666718204,
			"0.011": 2.13410428633,
			"0.012": 2.51761288281,
			"0.013": 3.07980399427,
			"0.014": 1.3787565091,
			"0.015": 0.699995535532,
			"0.016": 0.0930915337095,
			"0.017": 0.0,
			"0.018": 0.0,
			"0.019": 0.0,
			"0.02": 0.0,
			"0.021": 0.0,
			"0.022": 0.0,
			"0.023": 0.0,
			"0.024": 0.0,
			"0.025": 0.0
		}
	}
}
