{
	 "smiles": "CNC[C@H](O)C1=CC=C(O)C(O)=C1", 
	 "Tm": 490.65, 
	 "num_atms": 26, 
	 "gaussian": { 
		 "optdone": 1, 
		 "sigma_profile": "yes", 
		 "theory": "DFT", 
		 "functional": "B3LYP", 
		 "basiset": "6-31G**", 
		 "properties": { 
			 "R2extent": 2960.0786, 
			 "electric_dipole_moment_norm": 3.61137642596, 
			 "electric_quadrupole_moment_norm": 8.5012344286, 
			 "total_energy": -631.1875223, 
			 "HOMO_LUMO_gap": 0.21247, 
			 "cosmo_polarized_energy": -16.85, 
			 "cosmo_cavitation_energy": 28.93, 
			 "cosmo_dispersion_energy": -20.9, 
			 "cosmo_repulsion_energy": 1.69, 
			 "cosmo_total_nonelectrostatic_energy": 9.71, 
			 "SMD_solvation_energy": 4.42 
		},
		"coords": [
			{
				"x": -4.088660188,
				"y": 1.0097515176,
				"z": 0.3993139436,
				"element": "C" 
			},
			{
				"x": -3.2833241052,
				"y": -0.0660866014,
				"z": -0.1688473089,
				"element": "N" 
			},
			{
				"x": -2.8603334322,
				"y": -1.0909783669,
				"z": 0.7771519149,
				"element": "C" 
			},
			{
				"x": -1.524421146,
				"y": -0.7831979614,
				"z": 1.4941724825,
				"element": "C" 
			},
			{
				"x": -1.6076754924,
				"y": 0.4216732957,
				"z": 2.2624318495,
				"element": "O" 
			},
			{
				"x": -0.3536652288,
				"y": -0.6651904324,
				"z": 0.543644854,
				"element": "C" 
			},
			{
				"x": 0.4451812762,
				"y": -1.7774298045,
				"z": 0.2670523428,
				"element": "C" 
			},
			{
				"x": 1.502308929,
				"y": -1.6979320112,
				"z": -0.6438855112,
				"element": "C" 
			},
			{
				"x": 1.7796233469,
				"y": -0.4936527999,
				"z": -1.2831048463,
				"element": "C" 
			},
			{
				"x": 2.8143430112,
				"y": -0.4014808484,
				"z": -2.1673624373,
				"element": "O" 
			},
			{
				"x": 0.9832116988,
				"y": 0.6298442456,
				"z": -0.9994471818,
				"element": "C" 
			},
			{
				"x": 1.33909779,
				"y": 1.7779141451,
				"z": -1.6758060394,
				"element": "O" 
			},
			{
				"x": -0.0717748977,
				"y": 0.5467482627,
				"z": -0.1016584238,
				"element": "C" 
			},
			{
				"x": -4.4439394295,
				"y": 1.661660319,
				"z": -0.4048850156,
				"element": "H" 
			},
			{
				"x": -4.9711694224,
				"y": 0.6579231929,
				"z": 0.9677356319,
				"element": "H" 
			},
			{
				"x": -3.4741047232,
				"y": 1.6108110673,
				"z": 1.0733855361,
				"element": "H" 
			},
			{
				"x": -3.7896326163,
				"y": -0.5016248558,
				"z": -0.9315214007,
				"element": "H" 
			},
			{
				"x": -3.6276633606,
				"y": -1.2822691897,
				"z": 1.5565439862,
				"element": "H" 
			},
			{
				"x": -2.7259743506,
				"y": -2.0345099601,
				"z": 0.236295307,
				"element": "H" 
			},
			{
				"x": -1.3300782261,
				"y": -1.6393520291,
				"z": 2.1625417747,
				"element": "H" 
			},
			{
				"x": -2.3489928177,
				"y": 0.3247369698,
				"z": 2.8748885628,
				"element": "H" 
			},
			{
				"x": 0.2485717037,
				"y": -2.7212156138,
				"z": 0.7695482145,
				"element": "H" 
			},
			{
				"x": 2.128231804,
				"y": -2.5576485354,
				"z": -0.8596758572,
				"element": "H" 
			},
			{
				"x": 2.8367297117,
				"y": 0.5126708933,
				"z": -2.4876204976,
				"element": "H" 
			},
			{
				"x": 0.7445992643,
				"y": 2.4950730942,
				"z": -1.4243028195,
				"element": "H" 
			},
			{
				"x": -0.681389099,
				"y": 1.4192620067,
				"z": 0.1102109387,
				"element": "H" 
			}
		],
		 "valence_orbital": [ 
			{
				"type": "occ",
				"energy": -0.31125,
				"method": "rhf"
			},
			{
				"type": "occ",
				"energy": -0.26995,
				"method": "rhf"
			},
			{
				"type": "occ",
				"energy": -0.22809,
				"method": "rhf"
			},
			{
				"type": "occ",
				"energy": -0.2176,
				"method": "rhf"
			},
			{
				"type": "occ",
				"energy": -0.19657,
				"method": "rhf"
			},
			{
				"type": "unocc",
				"energy": 0.0159,
				"method": "rhf"
			},
			{
				"type": "unocc",
				"energy": 0.02454,
				"method": "rhf"
			},
			{
				"type": "unocc",
				"energy": 0.06392,
				"method": "rhf"
			},
			{
				"type": "unocc",
				"energy": 0.0641,
				"method": "rhf"
			},
			{
				"type": "unocc",
				"energy": 0.09994,
				"method": "rhf"
			}
		],
		"cosmo_sigma_profile": { 
			"-0.025": 0.0,
			"-0.024": 0.0,
			"-0.023": 0.0,
			"-0.022": 0.0,
			"-0.021": 0.0,
			"-0.02": 0.0,
			"-0.019": 0.0,
			"-0.018": 0.407056975372,
			"-0.017": 1.24948113608,
			"-0.016": 0.869226733235,
			"-0.015": 1.5420965508,
			"-0.014": 2.48281419593,
			"-0.013": 2.66013989818,
			"-0.012": 2.20913967876,
			"-0.011": 2.24492930556,
			"-0.01": 3.57853619234,
			"-0.009": 4.40779309078,
			"-0.008": 3.4140133193,
			"-0.007": 3.17999007366,
			"-0.006": 5.64664705279,
			"-0.005": 10.4165681386,
			"-0.004": 15.5160237206,
			"-0.003": 16.2583344609,
			"-0.002": 15.8997784947,
			"-0.001": 19.2640538989,
			"0.0": 17.8478067186,
			"0.001": 9.23592235426,
			"0.002": 7.72050743695,
			"0.003": 10.8720578111,
			"0.004": 12.6843277041,
			"0.005": 11.3572864718,
			"0.006": 12.0662465788,
			"0.007": 8.38886249475,
			"0.008": 5.09281553113,
			"0.009": 3.72089453358,
			"0.01": 3.81111284967,
			"0.011": 4.60745385016,
			"0.012": 3.20412163957,
			"0.013": 1.52673259282,
			"0.014": 2.25170279637,
			"0.015": 0.47533483687,
			"0.016": 0.0,
			"0.017": 0.0,
			"0.018": 0.0,
			"0.019": 0.0,
			"0.02": 0.0,
			"0.021": 0.0,
			"0.022": 0.0,
			"0.023": 0.0,
			"0.024": 0.0,
			"0.025": 0.0
		}
	}
}
