{
	 "smiles": "CC(=O)C1=C(C)C2=C(S1)C=CC=C2", 
	 "Tm": 351.15, 
	 "num_atms": 23, 
	 "gaussian": { 
		 "optdone": 1, 
		 "sigma_profile": "yes", 
		 "theory": "DFT", 
		 "functional": "B3LYP", 
		 "basiset": "6-31G**", 
		 "properties": { 
			 "R2extent": 3583.6845, 
			 "electric_dipole_moment_norm": 2.48697363476, 
			 "electric_quadrupole_moment_norm": 10.9288190615, 
			 "total_energy": -898.621639075, 
			 "HOMO_LUMO_gap": 0.15614, 
			 "cosmo_polarized_energy": -7.69, 
			 "cosmo_cavitation_energy": 27.72, 
			 "cosmo_dispersion_energy": -20.93, 
			 "cosmo_repulsion_energy": 1.58, 
			 "cosmo_total_nonelectrostatic_energy": 8.37, 
			 "SMD_solvation_energy": 4.9 
		},
		"coords": [
			{
				"x": 1.4133057759,
				"y": -3.9286995008,
				"z": 0.8676882829,
				"element": "C" 
			},
			{
				"x": 1.4903084802,
				"y": -2.7122607439,
				"z": 1.7752427974,
				"element": "C" 
			},
			{
				"x": 1.6536336805,
				"y": -2.8380876052,
				"z": 2.983657565,
				"element": "O" 
			},
			{
				"x": 1.3614826765,
				"y": -1.3725175664,
				"z": 1.164074842,
				"element": "C" 
			},
			{
				"x": 1.404344463,
				"y": -0.1617043142,
				"z": 1.8233455044,
				"element": "C" 
			},
			{
				"x": 1.5938008883,
				"y": -0.0051397935,
				"z": 3.3065451878,
				"element": "C" 
			},
			{
				"x": 1.244741831,
				"y": 0.9530522224,
				"z": 0.917430938,
				"element": "C" 
			},
			{
				"x": 1.08199478,
				"y": 0.5461027479,
				"z": -0.4311732841,
				"element": "C" 
			},
			{
				"x": 1.1250522829,
				"y": -1.1931600903,
				"z": -0.5828095924,
				"element": "S" 
			},
			{
				"x": 0.9120619967,
				"y": 1.4721520843,
				"z": -1.4671352114,
				"element": "C" 
			},
			{
				"x": 0.9048599019,
				"y": 2.8242867583,
				"z": -1.1494473547,
				"element": "C" 
			},
			{
				"x": 1.0646716869,
				"y": 3.2523596539,
				"z": 0.1824883915,
				"element": "C" 
			},
			{
				"x": 1.2327847133,
				"y": 2.3337770116,
				"z": 1.2067935748,
				"element": "C" 
			},
			{
				"x": 2.2024940576,
				"y": -3.9010610502,
				"z": 0.1077514123,
				"element": "H" 
			},
			{
				"x": 0.4539325298,
				"y": -3.9628705504,
				"z": 0.3389807481,
				"element": "H" 
			},
			{
				"x": 1.5253502284,
				"y": -4.8275117183,
				"z": 1.4747700351,
				"element": "H" 
			},
			{
				"x": 1.5928869059,
				"y": 1.0475017978,
				"z": 3.5973317821,
				"element": "H" 
			},
			{
				"x": 2.5334849025,
				"y": -0.460190256,
				"z": 3.6313744662,
				"element": "H" 
			},
			{
				"x": 0.8058998709,
				"y": -0.5245372161,
				"z": 3.8588162966,
				"element": "H" 
			},
			{
				"x": 0.7888945192,
				"y": 1.1413554756,
				"z": -2.4937163104,
				"element": "H" 
			},
			{
				"x": 0.7743509582,
				"y": 3.5590568846,
				"z": -1.9383926297,
				"element": "H" 
			},
			{
				"x": 1.0558088433,
				"y": 4.314490049,
				"z": 0.4075916384,
				"element": "H" 
			},
			{
				"x": 1.3548540269,
				"y": 2.6776057199,
				"z": 2.22899092,
				"element": "H" 
			}
		],
		 "valence_orbital": [ 
			{
				"type": "occ",
				"energy": -0.32712,
				"method": "rhf"
			},
			{
				"type": "occ",
				"energy": -0.28512,
				"method": "rhf"
			},
			{
				"type": "occ",
				"energy": -0.24746,
				"method": "rhf"
			},
			{
				"type": "occ",
				"energy": -0.2429,
				"method": "rhf"
			},
			{
				"type": "occ",
				"energy": -0.22137,
				"method": "rhf"
			},
			{
				"type": "unocc",
				"energy": -0.06523,
				"method": "rhf"
			},
			{
				"type": "unocc",
				"energy": -0.01039,
				"method": "rhf"
			},
			{
				"type": "unocc",
				"energy": 0.01277,
				"method": "rhf"
			},
			{
				"type": "unocc",
				"energy": 0.0159,
				"method": "rhf"
			},
			{
				"type": "unocc",
				"energy": 0.06723,
				"method": "rhf"
			}
		],
		"cosmo_sigma_profile": { 
			"-0.025": 0.0,
			"-0.024": 0.0,
			"-0.023": 0.0,
			"-0.022": 0.0,
			"-0.021": 0.0,
			"-0.02": 0.0,
			"-0.019": 0.0,
			"-0.018": 0.0,
			"-0.017": 0.0,
			"-0.016": 0.0,
			"-0.015": 0.0,
			"-0.014": 0.0,
			"-0.013": 0.0,
			"-0.012": 0.0,
			"-0.011": 0.0,
			"-0.01": 0.0,
			"-0.009": 0.0,
			"-0.008": 0.395552453417,
			"-0.007": 4.80287369712,
			"-0.006": 11.8900257332,
			"-0.005": 16.0341260792,
			"-0.004": 18.5761275511,
			"-0.003": 18.5244426667,
			"-0.002": 17.8879748726,
			"-0.001": 23.1130328272,
			"0.0": 17.258715867,
			"0.001": 16.5012874179,
			"0.002": 20.1471465936,
			"0.003": 17.6688290441,
			"0.004": 15.9541851007,
			"0.005": 8.38042095289,
			"0.006": 1.99709354025,
			"0.007": 1.90188883592,
			"0.008": 1.57287797779,
			"0.009": 1.74494436768,
			"0.01": 1.64128545739,
			"0.011": 2.16389223629,
			"0.012": 3.2065848027,
			"0.013": 1.76116136432,
			"0.014": 0.288485193884,
			"0.015": 0.0,
			"0.016": 0.0,
			"0.017": 0.0,
			"0.018": 0.0,
			"0.019": 0.0,
			"0.02": 0.0,
			"0.021": 0.0,
			"0.022": 0.0,
			"0.023": 0.0,
			"0.024": 0.0,
			"0.025": 0.0
		}
	}
}
