{
	 "smiles": "OC(=O)C1(Cl)CC2CC1C=C2", 
	 "Tm": 413.15, 
	 "num_atms": 20, 
	 "gaussian": { 
		 "optdone": 1, 
		 "sigma_profile": "yes", 
		 "theory": "DFT", 
		 "functional": "B3LYP", 
		 "basiset": "6-31G**", 
		 "properties": { 
			 "R2extent": 2279.6125, 
			 "electric_dipole_moment_norm": 2.20017303183, 
			 "electric_quadrupole_moment_norm": 8.73018046663, 
			 "total_energy": -920.889400114, 
			 "HOMO_LUMO_gap": 0.21871, 
			 "cosmo_polarized_energy": -9.4, 
			 "cosmo_cavitation_energy": 23.69, 
			 "cosmo_dispersion_energy": -17.71, 
			 "cosmo_repulsion_energy": 1.43, 
			 "cosmo_total_nonelectrostatic_energy": 7.4, 
			 "SMD_solvation_energy": 4.35 
		},
		"coords": [
			{
				"x": -3.3681915909,
				"y": 1.1009265036,
				"z": -1.2861920216,
				"element": "O" 
			},
			{
				"x": -2.9565419975,
				"y": 0.4588732011,
				"z": -0.1728727863,
				"element": "C" 
			},
			{
				"x": -3.6675888043,
				"y": -0.2950225594,
				"z": 0.4530119827,
				"element": "O" 
			},
			{
				"x": -1.5045737875,
				"y": 0.7890458252,
				"z": 0.1859265985,
				"element": "C" 
			},
			{
				"x": -1.5717223298,
				"y": 2.5131906321,
				"z": 0.8216894454,
				"element": "Cl" 
			},
			{
				"x": -0.5113961455,
				"y": 0.6308984156,
				"z": -1.0112488463,
				"element": "C" 
			},
			{
				"x": 0.4649865432,
				"y": -0.4774343757,
				"z": -0.491892864,
				"element": "C" 
			},
			{
				"x": -0.5197398012,
				"y": -1.362228742,
				"z": 0.3107706837,
				"element": "C" 
			},
			{
				"x": -0.9446980773,
				"y": -0.2059229926,
				"z": 1.2528708011,
				"element": "C" 
			},
			{
				"x": 0.4235623682,
				"y": 0.3094837312,
				"z": 1.6802323451,
				"element": "C" 
			},
			{
				"x": 1.2609454079,
				"y": 0.1412653769,
				"z": 0.6491152942,
				"element": "C" 
			},
			{
				"x": -4.3006871634,
				"y": 0.8569070546,
				"z": -1.4119512647,
				"element": "H" 
			},
			{
				"x": -0.0085273572,
				"y": 1.570531988,
				"z": -1.2424513181,
				"element": "H" 
			},
			{
				"x": -1.0445277644,
				"y": 0.3060143087,
				"z": -1.9087784066,
				"element": "H" 
			},
			{
				"x": 1.0430436309,
				"y": -0.9595542374,
				"z": -1.2828302845,
				"element": "H" 
			},
			{
				"x": -1.3416314669,
				"y": -1.7724645266,
				"z": -0.2853555624,
				"element": "H" 
			},
			{
				"x": -0.0251506919,
				"y": -2.1712150711,
				"z": 0.8536099466,
				"element": "H" 
			},
			{
				"x": -1.6657368627,
				"y": -0.4296981535,
				"z": 2.0370237772,
				"element": "H" 
			},
			{
				"x": 0.6222641524,
				"y": 0.8113439409,
				"z": 2.6193380308,
				"element": "H" 
			},
			{
				"x": 2.2896117378,
				"y": 0.4771596804,
				"z": 0.5759844491,
				"element": "H" 
			}
		],
		 "valence_orbital": [ 
			{
				"type": "occ",
				"energy": -0.3279,
				"method": "rhf"
			},
			{
				"type": "occ",
				"energy": -0.30997,
				"method": "rhf"
			},
			{
				"type": "occ",
				"energy": -0.29317,
				"method": "rhf"
			},
			{
				"type": "occ",
				"energy": -0.27824,
				"method": "rhf"
			},
			{
				"type": "occ",
				"energy": -0.24708,
				"method": "rhf"
			},
			{
				"type": "unocc",
				"energy": -0.02837,
				"method": "rhf"
			},
			{
				"type": "unocc",
				"energy": 0.00806,
				"method": "rhf"
			},
			{
				"type": "unocc",
				"energy": 0.04743,
				"method": "rhf"
			},
			{
				"type": "unocc",
				"energy": 0.06794,
				"method": "rhf"
			},
			{
				"type": "unocc",
				"energy": 0.09704,
				"method": "rhf"
			}
		],
		"cosmo_sigma_profile": { 
			"-0.025": 0.0,
			"-0.024": 0.0,
			"-0.023": 0.0,
			"-0.022": 0.0,
			"-0.021": 0.0,
			"-0.02": 0.0,
			"-0.019": 0.406550029115,
			"-0.018": 0.866859331798,
			"-0.017": 1.12346706672,
			"-0.016": 0.631896503465,
			"-0.015": 1.11504511635,
			"-0.014": 0.552867851794,
			"-0.013": 0.673127928973,
			"-0.012": 0.319945944944,
			"-0.011": 1.3282057965,
			"-0.01": 0.428502843596,
			"-0.009": 0.451444891556,
			"-0.008": 1.11336852638,
			"-0.007": 1.72893906847,
			"-0.006": 4.64183585719,
			"-0.005": 8.78771008276,
			"-0.004": 15.2623735919,
			"-0.003": 17.4184583765,
			"-0.002": 17.5988800956,
			"-0.001": 19.5434073055,
			"0.0": 15.5192943988,
			"0.001": 10.7466256937,
			"0.002": 8.98711466683,
			"0.003": 9.52198903132,
			"0.004": 10.9801259067,
			"0.005": 12.5077142573,
			"0.006": 8.70708534879,
			"0.007": 3.89999296537,
			"0.008": 3.37638169601,
			"0.009": 2.74655581347,
			"0.01": 3.04942207527,
			"0.011": 4.20493433298,
			"0.012": 0.199403817522,
			"0.013": 0.0,
			"0.014": 0.0,
			"0.015": 0.0,
			"0.016": 0.0,
			"0.017": 0.0,
			"0.018": 0.0,
			"0.019": 0.0,
			"0.02": 0.0,
			"0.021": 0.0,
			"0.022": 0.0,
			"0.023": 0.0,
			"0.024": 0.0,
			"0.025": 0.0
		}
	}
}
