{
	 "smiles": "CN(C)S(=O)(=O)C1=CC2=C(C=C1)N=C(Cl)C(Cl)=N2", 
	 "Tm": 413.15, 
	 "num_atms": 27, 
	 "gaussian": { 
		 "optdone": 1, 
		 "sigma_profile": "yes", 
		 "theory": "DFT", 
		 "functional": "B3LYP", 
		 "basiset": "6-31G**", 
		 "properties": { 
			 "R2extent": 7826.6493, 
			 "electric_dipole_moment_norm": 4.30442369894, 
			 "electric_quadrupole_moment_norm": 19.791091669, 
			 "total_energy": -2019.68110764, 
			 "HOMO_LUMO_gap": 0.15957, 
			 "cosmo_polarized_energy": -14.86, 
			 "cosmo_cavitation_energy": 36.22, 
			 "cosmo_dispersion_energy": -26.76, 
			 "cosmo_repulsion_energy": 2.01, 
			 "cosmo_total_nonelectrostatic_energy": 11.47, 
			 "SMD_solvation_energy": 1.12 
		},
		"coords": [
			{
				"x": -2.0304838968,
				"y": -0.224191553,
				"z": 2.8670496427,
				"element": "C" 
			},
			{
				"x": -0.9822252904,
				"y": 0.6626289257,
				"z": 3.3773578341,
				"element": "N" 
			},
			{
				"x": 0.0661459391,
				"y": 0.0090132192,
				"z": 4.1644184242,
				"element": "C" 
			},
			{
				"x": -0.502940155,
				"y": 1.9239414759,
				"z": 2.3690860253,
				"element": "S" 
			},
			{
				"x": 0.4552056229,
				"y": 2.7255578893,
				"z": 3.1310956079,
				"element": "O" 
			},
			{
				"x": -1.7258283209,
				"y": 2.4894271226,
				"z": 1.800461267,
				"element": "O" 
			},
			{
				"x": 0.4154297568,
				"y": 1.1710063595,
				"z": 1.0083412719,
				"element": "C" 
			},
			{
				"x": -0.2640454986,
				"y": 0.7823226242,
				"z": -0.128442683,
				"element": "C" 
			},
			{
				"x": 0.4568277862,
				"y": 0.1564483101,
				"z": -1.1719499078,
				"element": "C" 
			},
			{
				"x": 1.8595492475,
				"y": -0.0580780281,
				"z": -1.0357856963,
				"element": "C" 
			},
			{
				"x": 2.5259419512,
				"y": 0.3645326585,
				"z": 0.1393920512,
				"element": "C" 
			},
			{
				"x": 1.8124073252,
				"y": 0.9726070957,
				"z": 1.1492552284,
				"element": "C" 
			},
			{
				"x": 2.5621981638,
				"y": -0.6618594671,
				"z": -2.038629435,
				"element": "N" 
			},
			{
				"x": 1.9179324551,
				"y": -1.0271399707,
				"z": -3.1046248673,
				"element": "C" 
			},
			{
				"x": 2.8244479043,
				"y": -1.7993579167,
				"z": -4.3786310286,
				"element": "Cl" 
			},
			{
				"x": 0.4973649785,
				"y": -0.8077933216,
				"z": -3.2427581182,
				"element": "C" 
			},
			{
				"x": -0.3426254224,
				"y": -1.3090387164,
				"z": -4.6867526194,
				"element": "Cl" 
			},
			{
				"x": -0.1949045842,
				"y": -0.2367666408,
				"z": -2.305479356,
				"element": "N" 
			},
			{
				"x": -1.6441488939,
				"y": -0.9783717056,
				"z": 2.1643176297,
				"element": "H" 
			},
			{
				"x": -2.80226508,
				"y": 0.3702471598,
				"z": 2.3792629688,
				"element": "H" 
			},
			{
				"x": -2.478449669,
				"y": -0.7423405274,
				"z": 3.7196519206,
				"element": "H" 
			},
			{
				"x": -0.411965536,
				"y": -0.5001612289,
				"z": 5.006083174,
				"element": "H" 
			},
			{
				"x": 0.6326257065,
				"y": -0.7355223799,
				"z": 3.584291446,
				"element": "H" 
			},
			{
				"x": 0.746275155,
				"y": 0.7633720812,
				"z": 4.5586649215,
				"element": "H" 
			},
			{
				"x": -1.3248945672,
				"y": 0.9679692004,
				"z": -0.2501877972,
				"element": "H" 
			},
			{
				"x": 3.5965043808,
				"y": 0.2056704726,
				"z": 0.2107829742,
				"element": "H" 
			},
			{
				"x": 2.3075205417,
				"y": 1.3317768615,
				"z": 2.0443291211,
				"element": "H" 
			}
		],
		 "valence_orbital": [ 
			{
				"type": "occ",
				"energy": -0.31225,
				"method": "rhf"
			},
			{
				"type": "occ",
				"energy": -0.29267,
				"method": "rhf"
			},
			{
				"type": "occ",
				"energy": -0.2852,
				"method": "rhf"
			},
			{
				"type": "occ",
				"energy": -0.27791,
				"method": "rhf"
			},
			{
				"type": "occ",
				"energy": -0.26489,
				"method": "rhf"
			},
			{
				"type": "unocc",
				"energy": -0.10532,
				"method": "rhf"
			},
			{
				"type": "unocc",
				"energy": -0.06689,
				"method": "rhf"
			},
			{
				"type": "unocc",
				"energy": -0.02838,
				"method": "rhf"
			},
			{
				"type": "unocc",
				"energy": -0.00055,
				"method": "rhf"
			},
			{
				"type": "unocc",
				"energy": 0.02684,
				"method": "rhf"
			}
		],
		"cosmo_sigma_profile": { 
			"-0.025": 0.0,
			"-0.024": 0.0,
			"-0.023": 0.0,
			"-0.022": 0.0,
			"-0.021": 0.0,
			"-0.02": 0.0,
			"-0.019": 0.0,
			"-0.018": 0.0,
			"-0.017": 0.0,
			"-0.016": 0.0,
			"-0.015": 0.0,
			"-0.014": 0.0,
			"-0.013": 0.0,
			"-0.012": 0.0,
			"-0.011": 0.0,
			"-0.01": 0.0,
			"-0.009": 0.497615336981,
			"-0.008": 4.03555442279,
			"-0.007": 8.59079108821,
			"-0.006": 13.6148148092,
			"-0.005": 21.0873996604,
			"-0.004": 28.869832234,
			"-0.003": 31.6421293998,
			"-0.002": 28.3839963712,
			"-0.001": 21.0733063766,
			"0.0": 18.5431832054,
			"0.001": 17.007541484,
			"0.002": 19.6478400714,
			"0.003": 21.5689921604,
			"0.004": 10.2108111583,
			"0.005": 7.23972148072,
			"0.006": 7.62568348846,
			"0.007": 6.33965553144,
			"0.008": 5.23256408476,
			"0.009": 6.03281542481,
			"0.01": 8.9143055311,
			"0.011": 8.05823496848,
			"0.012": 1.00748717148,
			"0.013": 0.0,
			"0.014": 0.0,
			"0.015": 0.0,
			"0.016": 0.0,
			"0.017": 0.0,
			"0.018": 0.0,
			"0.019": 0.0,
			"0.02": 0.0,
			"0.021": 0.0,
			"0.022": 0.0,
			"0.023": 0.0,
			"0.024": 0.0,
			"0.025": 0.0
		}
	}
}
