{
	 "smiles": "CC1=C(C)C(O)=NC(NC(=O)NS(=O)(=O)C2=CC=CS2)=N1", 
	 "Tm": 493.15, 
	 "num_atms": 33, 
	 "gaussian": { 
		 "optdone": 1, 
		 "sigma_profile": "yes", 
		 "theory": "DFT", 
		 "functional": "B3LYP", 
		 "basiset": "6-31G**", 
		 "properties": { 
			 "R2extent": 9182.4328, 
			 "electric_dipole_moment_norm": 9.15625258389, 
			 "electric_quadrupole_moment_norm": 22.4767579224, 
			 "total_energy": -1742.61593691, 
			 "HOMO_LUMO_gap": 0.18629, 
			 "cosmo_polarized_energy": -27.12, 
			 "cosmo_cavitation_energy": 39.92, 
			 "cosmo_dispersion_energy": -28.19, 
			 "cosmo_repulsion_energy": 2.06, 
			 "cosmo_total_nonelectrostatic_energy": 13.78, 
			 "SMD_solvation_energy": 4.99 
		},
		"coords": [
			{
				"x": 1.2116951663,
				"y": 1.0287673395,
				"z": 0.88648339,
				"element": "C" 
			},
			{
				"x": 1.1718199238,
				"y": 1.3348230145,
				"z": -0.5903652948,
				"element": "C" 
			},
			{
				"x": 0.5560906751,
				"y": 2.4874088029,
				"z": -1.0931450426,
				"element": "C" 
			},
			{
				"x": -0.1492298744,
				"y": 3.5156100712,
				"z": -0.2434419142,
				"element": "C" 
			},
			{
				"x": 0.6472067086,
				"y": 2.6501154851,
				"z": -2.4924036839,
				"element": "C" 
			},
			{
				"x": 0.1085945175,
				"y": 3.7137733295,
				"z": -3.1268743153,
				"element": "O" 
			},
			{
				"x": 1.2679207296,
				"y": 1.7950319855,
				"z": -3.2915160676,
				"element": "N" 
			},
			{
				"x": 1.805924783,
				"y": 0.7295182714,
				"z": -2.6875108248,
				"element": "C" 
			},
			{
				"x": 2.5012256957,
				"y": -0.0997383226,
				"z": -3.566883106,
				"element": "N" 
			},
			{
				"x": 3.2388149314,
				"y": -1.252283565,
				"z": -3.3889793111,
				"element": "C" 
			},
			{
				"x": 4.1925015271,
				"y": -1.5063407835,
				"z": -4.1038423858,
				"element": "O" 
			},
			{
				"x": 2.8767480436,
				"y": -2.1665960584,
				"z": -2.369829804,
				"element": "N" 
			},
			{
				"x": 1.3089800372,
				"y": -2.8428876189,
				"z": -2.1600699107,
				"element": "S" 
			},
			{
				"x": 1.5234400643,
				"y": -4.2771311002,
				"z": -2.3558190059,
				"element": "O" 
			},
			{
				"x": 0.3431258182,
				"y": -2.085140993,
				"z": -2.9477898751,
				"element": "O" 
			},
			{
				"x": 0.9081533609,
				"y": -2.5984492496,
				"z": -0.4544328595,
				"element": "C" 
			},
			{
				"x": -0.3116588534,
				"y": -2.1463668488,
				"z": -0.0222188087,
				"element": "C" 
			},
			{
				"x": -0.4463915493,
				"y": -2.2400564879,
				"z": 1.3930753091,
				"element": "C" 
			},
			{
				"x": 0.6669483871,
				"y": -2.7634566285,
				"z": 1.9954930801,
				"element": "C" 
			},
			{
				"x": 1.9038617611,
				"y": -3.1665811884,
				"z": 0.8529889364,
				"element": "S" 
			},
			{
				"x": 1.7898001888,
				"y": 0.4432681281,
				"z": -1.3890416518,
				"element": "N" 
			},
			{
				"x": 0.2063996781,
				"y": 0.895599925,
				"z": 1.2998428678,
				"element": "H" 
			},
			{
				"x": 1.6908688484,
				"y": 1.8404631786,
				"z": 1.4450423054,
				"element": "H" 
			},
			{
				"x": 1.7768479002,
				"y": 0.1115197898,
				"z": 1.048361014,
				"element": "H" 
			},
			{
				"x": -0.1369603296,
				"y": 3.2450166386,
				"z": 0.8127096064,
				"element": "H" 
			},
			{
				"x": 0.3209409872,
				"y": 4.5056850421,
				"z": -0.3222313254,
				"element": "H" 
			},
			{
				"x": -1.2049265212,
				"y": 3.6264215278,
				"z": -0.5278963771,
				"element": "H" 
			},
			{
				"x": -0.3269814512,
				"y": 4.2889642162,
				"z": -2.4845457147,
				"element": "H" 
			},
			{
				"x": 2.6898458211,
				"y": 0.3387466837,
				"z": -4.4592681563,
				"element": "H" 
			},
			{
				"x": 3.5312335225,
				"y": -2.9449452962,
				"z": -2.4251818784,
				"element": "H" 
			},
			{
				"x": -1.0680249019,
				"y": -1.7721414948,
				"z": -0.7003707723,
				"element": "H" 
			},
			{
				"x": -1.3311411169,
				"y": -1.9318718793,
				"z": 1.9377914818,
				"element": "H" 
			},
			{
				"x": 0.8413255213,
				"y": -2.9326459144,
				"z": 3.0495700946,
				"element": "H" 
			}
		],
		 "valence_orbital": [ 
			{
				"type": "occ",
				"energy": -0.2792,
				"method": "rhf"
			},
			{
				"type": "occ",
				"energy": -0.27697,
				"method": "rhf"
			},
			{
				"type": "occ",
				"energy": -0.26113,
				"method": "rhf"
			},
			{
				"type": "occ",
				"energy": -0.2569,
				"method": "rhf"
			},
			{
				"type": "occ",
				"energy": -0.23881,
				"method": "rhf"
			},
			{
				"type": "unocc",
				"energy": -0.05252,
				"method": "rhf"
			},
			{
				"type": "unocc",
				"energy": -0.03165,
				"method": "rhf"
			},
			{
				"type": "unocc",
				"energy": -0.02484,
				"method": "rhf"
			},
			{
				"type": "unocc",
				"energy": 0.00511,
				"method": "rhf"
			},
			{
				"type": "unocc",
				"energy": 0.02055,
				"method": "rhf"
			}
		],
		"cosmo_sigma_profile": { 
			"-0.025": 0.0,
			"-0.024": 0.0,
			"-0.023": 0.0,
			"-0.022": 0.0,
			"-0.021": 0.0,
			"-0.02": 0.0,
			"-0.019": 0.0,
			"-0.018": 0.127876514998,
			"-0.017": 0.669342561921,
			"-0.016": 1.06570232602,
			"-0.015": 1.84718953213,
			"-0.014": 2.82896445182,
			"-0.013": 2.23862056022,
			"-0.012": 2.9899746113,
			"-0.011": 3.00020862272,
			"-0.01": 4.31121325646,
			"-0.009": 5.71289977999,
			"-0.008": 7.52959897131,
			"-0.007": 9.32488322847,
			"-0.006": 11.8249582365,
			"-0.005": 18.9588219455,
			"-0.004": 17.6289896091,
			"-0.003": 18.1840637147,
			"-0.002": 25.5283449768,
			"-0.001": 29.4543131649,
			"0.0": 24.0510251365,
			"0.001": 20.2677554307,
			"0.002": 17.0680084566,
			"0.003": 11.5713559933,
			"0.004": 8.35859925327,
			"0.005": 8.43915847173,
			"0.006": 8.75092042572,
			"0.007": 7.34426857376,
			"0.008": 8.10194261391,
			"0.009": 10.901920921,
			"0.01": 14.9289975673,
			"0.011": 9.37429353363,
			"0.012": 6.41023729104,
			"0.013": 1.26189726895,
			"0.014": 0.48735123674,
			"0.015": 0.0,
			"0.016": 0.0,
			"0.017": 0.0,
			"0.018": 0.0,
			"0.019": 0.0,
			"0.02": 0.0,
			"0.021": 0.0,
			"0.022": 0.0,
			"0.023": 0.0,
			"0.024": 0.0,
			"0.025": 0.0
		}
	}
}
