{
	 "smiles": "CC1=CC(=O)N2C3=C(NC2=C1C#N)C=CC=C3", 
	 "Tm": 544.15, 
	 "num_atms": 26, 
	 "gaussian": { 
		 "optdone": 1, 
		 "sigma_profile": "yes", 
		 "theory": "DFT", 
		 "functional": "B3LYP", 
		 "basiset": "6-31G**", 
		 "properties": { 
			 "R2extent": 3974.0265, 
			 "electric_dipole_moment_norm": 2.81579269656, 
			 "electric_quadrupole_moment_norm": 25.7375407201, 
			 "total_energy": -740.30343583, 
			 "HOMO_LUMO_gap": 0.1609, 
			 "cosmo_polarized_energy": -17.17, 
			 "cosmo_cavitation_energy": 31.08, 
			 "cosmo_dispersion_energy": -22.45, 
			 "cosmo_repulsion_energy": 1.69, 
			 "cosmo_total_nonelectrostatic_energy": 10.32, 
			 "SMD_solvation_energy": 6.67 
		},
		"coords": [
			{
				"x": 2.3472259057,
				"y": -1.1832719651,
				"z": -2.8739764806,
				"element": "C" 
			},
			{
				"x": 1.4233316332,
				"y": -0.589704494,
				"z": -1.843454657,
				"element": "C" 
			},
			{
				"x": 0.5946580571,
				"y": 0.4626483359,
				"z": -2.1518273288,
				"element": "C" 
			},
			{
				"x": -0.3133029779,
				"y": 1.0788497918,
				"z": -1.2176722524,
				"element": "C" 
			},
			{
				"x": -1.0775103118,
				"y": 2.0149116893,
				"z": -1.4201781196,
				"element": "O" 
			},
			{
				"x": -0.2680302202,
				"y": 0.4776992466,
				"z": 0.0872846138,
				"element": "N" 
			},
			{
				"x": -1.0200430708,
				"y": 0.835282691,
				"z": 1.2233135864,
				"element": "C" 
			},
			{
				"x": -0.6270506145,
				"y": -0.0370018174,
				"z": 2.2549741605,
				"element": "C" 
			},
			{
				"x": 0.3404135228,
				"y": -0.8876250158,
				"z": 1.7198122504,
				"element": "N" 
			},
			{
				"x": 0.5538459156,
				"y": -0.572532911,
				"z": 0.4091754133,
				"element": "C" 
			},
			{
				"x": 1.419689126,
				"y": -1.1444038969,
				"z": -0.5194489176,
				"element": "C" 
			},
			{
				"x": 2.2370212945,
				"y": -2.2274867868,
				"z": -0.1078602955,
				"element": "C" 
			},
			{
				"x": 2.8854433196,
				"y": -3.1149265861,
				"z": 0.2848154839,
				"element": "N" 
			},
			{
				"x": -1.1820098452,
				"y": 0.0434005134,
				"z": 3.528201189,
				"element": "C" 
			},
			{
				"x": -2.1482211855,
				"y": 1.0307545146,
				"z": 3.7353894458,
				"element": "C" 
			},
			{
				"x": -2.5397864103,
				"y": 1.9001320049,
				"z": 2.7067465579,
				"element": "C" 
			},
			{
				"x": -1.9827324743,
				"y": 1.8199441976,
				"z": 1.427807959,
				"element": "C" 
			},
			{
				"x": 2.1306442323,
				"y": -2.2465463619,
				"z": -3.0256094576,
				"element": "H" 
			},
			{
				"x": 3.3906765102,
				"y": -1.1173247268,
				"z": -2.5464634662,
				"element": "H" 
			},
			{
				"x": 2.2504350624,
				"y": -0.6689210743,
				"z": -3.8318268568,
				"element": "H" 
			},
			{
				"x": 0.5893194908,
				"y": 0.8889563858,
				"z": -3.1479214821,
				"element": "H" 
			},
			{
				"x": 0.8284722269,
				"y": -1.6315566645,
				"z": 2.1958649228,
				"element": "H" 
			},
			{
				"x": -0.8786942572,
				"y": -0.629394622,
				"z": 4.3235251293,
				"element": "H" 
			},
			{
				"x": -2.6041710553,
				"y": 1.12434711,
				"z": 4.7159998575,
				"element": "H" 
			},
			{
				"x": -3.2937996717,
				"y": 2.6546854214,
				"z": 2.9063042866,
				"element": "H" 
			},
			{
				"x": -2.2686242027,
				"y": 2.4788850205,
				"z": 0.619724458,
				"element": "H" 
			}
		],
		 "valence_orbital": [ 
			{
				"type": "occ",
				"energy": -0.30432,
				"method": "rhf"
			},
			{
				"type": "occ",
				"energy": -0.2654,
				"method": "rhf"
			},
			{
				"type": "occ",
				"energy": -0.26375,
				"method": "rhf"
			},
			{
				"type": "occ",
				"energy": -0.25925,
				"method": "rhf"
			},
			{
				"type": "occ",
				"energy": -0.20958,
				"method": "rhf"
			},
			{
				"type": "unocc",
				"energy": -0.04868,
				"method": "rhf"
			},
			{
				"type": "unocc",
				"energy": -0.03042,
				"method": "rhf"
			},
			{
				"type": "unocc",
				"energy": -0.00548,
				"method": "rhf"
			},
			{
				"type": "unocc",
				"energy": -0.0008,
				"method": "rhf"
			},
			{
				"type": "unocc",
				"energy": 0.02275,
				"method": "rhf"
			}
		],
		"cosmo_sigma_profile": { 
			"-0.025": 0.0,
			"-0.024": 0.0,
			"-0.023": 0.0,
			"-0.022": 0.0,
			"-0.021": 0.0,
			"-0.02": 0.0,
			"-0.019": 0.0,
			"-0.018": 0.253978795381,
			"-0.017": 1.50484616281,
			"-0.016": 0.814638383477,
			"-0.015": 0.932328600809,
			"-0.014": 1.38643282095,
			"-0.013": 1.034258211,
			"-0.012": 1.15062697097,
			"-0.011": 0.94985673251,
			"-0.01": 1.49919481273,
			"-0.009": 1.77594002941,
			"-0.008": 2.3852419727,
			"-0.007": 5.23513909732,
			"-0.006": 12.218432255,
			"-0.005": 16.906325215,
			"-0.004": 20.6560581214,
			"-0.003": 19.3340077354,
			"-0.002": 22.4637324238,
			"-0.001": 20.3822503008,
			"0.0": 17.2507494658,
			"0.001": 15.3439163009,
			"0.002": 15.9575232117,
			"0.003": 15.8431833174,
			"0.004": 11.739732606,
			"0.005": 4.66728641073,
			"0.006": 3.64699593752,
			"0.007": 4.40898902294,
			"0.008": 3.72455427599,
			"0.009": 4.06713786763,
			"0.01": 5.31618979409,
			"0.011": 4.98881282481,
			"0.012": 4.95338807715,
			"0.013": 5.61105366523,
			"0.014": 2.41169920246,
			"0.015": 0.18558287298,
			"0.016": 0.0,
			"0.017": 0.0,
			"0.018": 0.0,
			"0.019": 0.0,
			"0.02": 0.0,
			"0.021": 0.0,
			"0.022": 0.0,
			"0.023": 0.0,
			"0.024": 0.0,
			"0.025": 0.0
		}
	}
}
