{
	 "smiles": "CC(C)(C)NC(=O)CN1CCN(CC(N)=S)CC1", 
	 "Tm": 423.15, 
	 "num_atms": 42, 
	 "gaussian": { 
		 "optdone": 1, 
		 "sigma_profile": "yes", 
		 "theory": "DFT", 
		 "functional": "B3LYP", 
		 "basiset": "6-31G**", 
		 "properties": { 
			 "R2extent": 7680.3917, 
			 "electric_dipole_moment_norm": 6.99176422371, 
			 "electric_quadrupole_moment_norm": 26.6922258068, 
			 "total_energy": -1164.15886889, 
			 "HOMO_LUMO_gap": 0.1777, 
			 "cosmo_polarized_energy": -24.63, 
			 "cosmo_cavitation_energy": 43.03, 
			 "cosmo_dispersion_energy": -29.49, 
			 "cosmo_repulsion_energy": 2.26, 
			 "cosmo_total_nonelectrostatic_energy": 15.81, 
			 "SMD_solvation_energy": 3.66 
		},
		"coords": [
			{
				"x": -1.2928138337,
				"y": -0.8657476478,
				"z": 3.9914220427,
				"element": "C" 
			},
			{
				"x": -0.0860806584,
				"y": -1.673066372,
				"z": 3.4691117088,
				"element": "C" 
			},
			{
				"x": 1.1427507196,
				"y": -0.7649564985,
				"z": 3.2692945622,
				"element": "C" 
			},
			{
				"x": 0.2737441592,
				"y": -2.7550657568,
				"z": 4.505443101,
				"element": "C" 
			},
			{
				"x": -0.4263642526,
				"y": -2.4169199815,
				"z": 2.2326940997,
				"element": "N" 
			},
			{
				"x": -0.8157765176,
				"y": -2.0455728353,
				"z": 0.9665248639,
				"element": "C" 
			},
			{
				"x": -1.2407472464,
				"y": -2.8957368298,
				"z": 0.1918630569,
				"element": "O" 
			},
			{
				"x": -0.6181735861,
				"y": -0.5884073199,
				"z": 0.5262178852,
				"element": "C" 
			},
			{
				"x": -1.443163828,
				"y": -0.2405839395,
				"z": -0.6177395425,
				"element": "N" 
			},
			{
				"x": -1.0341823022,
				"y": -0.8306980329,
				"z": -1.9074528112,
				"element": "C" 
			},
			{
				"x": -0.3364706752,
				"y": 0.1883020868,
				"z": -2.8374036351,
				"element": "C" 
			},
			{
				"x": 0.4544309767,
				"y": 1.1277659552,
				"z": -2.0298657647,
				"element": "N" 
			},
			{
				"x": 1.4026383002,
				"y": 1.9087735781,
				"z": -2.8203787706,
				"element": "C" 
			},
			{
				"x": 2.6783420765,
				"y": 1.1456789847,
				"z": -3.1775461858,
				"element": "C" 
			},
			{
				"x": 2.9310438925,
				"y": 0.1187990032,
				"z": -2.3568090438,
				"element": "N" 
			},
			{
				"x": 3.6664151096,
				"y": 1.6191798534,
				"z": -4.4291395031,
				"element": "S" 
			},
			{
				"x": -0.426899119,
				"y": 1.9867808782,
				"z": -1.2181223841,
				"element": "C" 
			},
			{
				"x": -1.6759460557,
				"y": 1.1891940068,
				"z": -0.7614874752,
				"element": "C" 
			},
			{
				"x": -1.0461226134,
				"y": -0.3832551768,
				"z": 4.9431310929,
				"element": "H" 
			},
			{
				"x": -2.1522031601,
				"y": -1.523461873,
				"z": 4.1523711089,
				"element": "H" 
			},
			{
				"x": -1.5978382394,
				"y": -0.0814318652,
				"z": 3.2933824752,
				"element": "H" 
			},
			{
				"x": 1.9814093487,
				"y": -1.3401621971,
				"z": 2.8656774993,
				"element": "H" 
			},
			{
				"x": 1.4496432458,
				"y": -0.3401259892,
				"z": 4.2304108286,
				"element": "H" 
			},
			{
				"x": 0.9434588982,
				"y": 0.0694833656,
				"z": 2.5936000327,
				"element": "H" 
			},
			{
				"x": 1.126650699,
				"y": -3.3517685788,
				"z": 4.1662980451,
				"element": "H" 
			},
			{
				"x": -0.5731151178,
				"y": -3.428066543,
				"z": 4.6804284007,
				"element": "H" 
			},
			{
				"x": 0.5372466414,
				"y": -2.2943556133,
				"z": 5.4612848597,
				"element": "H" 
			},
			{
				"x": -0.6038394598,
				"y": -3.4060374777,
				"z": 2.3619263585,
				"element": "H" 
			},
			{
				"x": -0.8854185444,
				"y": 0.0826753715,
				"z": 1.3464469079,
				"element": "H" 
			},
			{
				"x": 0.4659164803,
				"y": -0.4450644301,
				"z": 0.3540525235,
				"element": "H" 
			},
			{
				"x": -1.9128959846,
				"y": -1.2458903582,
				"z": -2.4174039404,
				"element": "H" 
			},
			{
				"x": -0.373851813,
				"y": -1.673902648,
				"z": -1.7036445359,
				"element": "H" 
			},
			{
				"x": -1.0692583677,
				"y": 0.7265994867,
				"z": -3.4662442279,
				"element": "H" 
			},
			{
				"x": 0.3317718844,
				"y": -0.3395807227,
				"z": -3.5244554702,
				"element": "H" 
			},
			{
				"x": 1.7186446935,
				"y": 2.7748282961,
				"z": -2.2252075126,
				"element": "H" 
			},
			{
				"x": 0.9695212599,
				"y": 2.30944963,
				"z": -3.7488542501,
				"element": "H" 
			},
			{
				"x": 2.2467989656,
				"y": -0.095101716,
				"z": -1.6389077125,
				"element": "H" 
			},
			{
				"x": 3.7598069282,
				"y": -0.4409228048,
				"z": -2.4898911597,
				"element": "H" 
			},
			{
				"x": 0.1486212273,
				"y": 2.3514087356,
				"z": -0.3580748797,
				"element": "H" 
			},
			{
				"x": -0.7613988968,
				"y": 2.8759059551,
				"z": -1.7830691602,
				"element": "H" 
			},
			{
				"x": -2.4771820098,
				"y": 1.3183375657,
				"z": -1.4989141393,
				"element": "H" 
			},
			{
				"x": -2.0558132249,
				"y": 1.6005204553,
				"z": 0.1799306512,
				"element": "H" 
			}
		],
		 "valence_orbital": [ 
			{
				"type": "occ",
				"energy": -0.24841,
				"method": "rhf"
			},
			{
				"type": "occ",
				"energy": -0.23615,
				"method": "rhf"
			},
			{
				"type": "occ",
				"energy": -0.22349,
				"method": "rhf"
			},
			{
				"type": "occ",
				"energy": -0.20969,
				"method": "rhf"
			},
			{
				"type": "occ",
				"energy": -0.20035,
				"method": "rhf"
			},
			{
				"type": "unocc",
				"energy": -0.02265,
				"method": "rhf"
			},
			{
				"type": "unocc",
				"energy": 0.02177,
				"method": "rhf"
			},
			{
				"type": "unocc",
				"energy": 0.04789,
				"method": "rhf"
			},
			{
				"type": "unocc",
				"energy": 0.06353,
				"method": "rhf"
			},
			{
				"type": "unocc",
				"energy": 0.08322,
				"method": "rhf"
			}
		],
		"cosmo_sigma_profile": { 
			"-0.025": 0.0,
			"-0.024": 0.0,
			"-0.023": 0.0,
			"-0.022": 0.0,
			"-0.021": 0.0,
			"-0.02": 0.0,
			"-0.019": 0.0,
			"-0.018": 0.0,
			"-0.017": 0.0,
			"-0.016": 0.0,
			"-0.015": 0.655661253386,
			"-0.014": 1.08808610446,
			"-0.013": 1.0705289421,
			"-0.012": 1.3839153852,
			"-0.011": 2.66510721352,
			"-0.01": 3.00301329233,
			"-0.009": 2.49338204543,
			"-0.008": 1.77953970982,
			"-0.007": 5.42208524612,
			"-0.006": 9.52563715417,
			"-0.005": 11.8588751797,
			"-0.004": 32.9693089033,
			"-0.003": 54.3187053112,
			"-0.002": 43.6484381708,
			"-0.001": 32.2589380403,
			"0.0": 28.763000868,
			"0.001": 18.8703610913,
			"0.002": 7.31576103065,
			"0.003": 5.83872433541,
			"0.004": 6.37630459636,
			"0.005": 5.9927805325,
			"0.006": 4.79329289042,
			"0.007": 5.49745072513,
			"0.008": 6.31405122947,
			"0.009": 7.3525584815,
			"0.01": 8.24669431809,
			"0.011": 5.9447867644,
			"0.012": 6.37139708935,
			"0.013": 4.08909139855,
			"0.014": 6.29993298069,
			"0.015": 2.48351904336,
			"0.016": 0.980637118035,
			"0.017": 0.349715470032,
			"0.018": 0.0,
			"0.019": 0.0,
			"0.02": 0.0,
			"0.021": 0.0,
			"0.022": 0.0,
			"0.023": 0.0,
			"0.024": 0.0,
			"0.025": 0.0
		}
	}
}
