{
	 "smiles": "SC1=NN=C(N1C1CC1)C1=CNC2=C1C=CC=C2", 
	 "Tm": 290.15, 
	 "num_atms": 30, 
	 "gaussian": { 
		 "optdone": 1, 
		 "sigma_profile": "yes", 
		 "theory": "DFT", 
		 "functional": "B3LYP", 
		 "basiset": "6-31G**", 
		 "properties": { 
			 "R2extent": 5252.9248, 
			 "electric_dipole_moment_norm": 6.28723325001, 
			 "electric_quadrupole_moment_norm": 26.3285301177, 
			 "total_energy": -1119.75147819, 
			 "HOMO_LUMO_gap": 0.18212, 
			 "cosmo_polarized_energy": -23.42, 
			 "cosmo_cavitation_energy": 35.06, 
			 "cosmo_dispersion_energy": -25.16, 
			 "cosmo_repulsion_energy": 1.89, 
			 "cosmo_total_nonelectrostatic_energy": 11.79, 
			 "SMD_solvation_energy": 2.67 
		},
		"coords": [
			{
				"x": 1.9813979375,
				"y": -4.3101602933,
				"z": -0.4206914656,
				"element": "S" 
			},
			{
				"x": 1.178146934,
				"y": -2.8122765899,
				"z": -0.9045069647,
				"element": "C" 
			},
			{
				"x": 0.645386152,
				"y": -2.6336681332,
				"z": -2.0895174745,
				"element": "N" 
			},
			{
				"x": 0.0588725889,
				"y": -1.3899483987,
				"z": -2.0932539731,
				"element": "N" 
			},
			{
				"x": 0.2565851027,
				"y": -0.8377501958,
				"z": -0.9094130342,
				"element": "C" 
			},
			{
				"x": 0.947630525,
				"y": -1.7162020554,
				"z": -0.0909228525,
				"element": "N" 
			},
			{
				"x": 1.2943505405,
				"y": -1.5753790806,
				"z": 1.3005866652,
				"element": "C" 
			},
			{
				"x": 0.7228522691,
				"y": -2.5474957445,
				"z": 2.3059502414,
				"element": "C" 
			},
			{
				"x": 0.2426598025,
				"y": -1.123207142,
				"z": 2.2810110435,
				"element": "C" 
			},
			{
				"x": -0.2279633211,
				"y": 0.4890767537,
				"z": -0.5457116361,
				"element": "C" 
			},
			{
				"x": -1.4689829761,
				"y": 0.953615757,
				"z": -0.9241116036,
				"element": "C" 
			},
			{
				"x": -1.627377817,
				"y": 2.2528274113,
				"z": -0.5072281964,
				"element": "N" 
			},
			{
				"x": -0.481332349,
				"y": 2.671694684,
				"z": 0.142459078,
				"element": "C" 
			},
			{
				"x": 0.4346869322,
				"y": 1.5835571345,
				"z": 0.1317777125,
				"element": "C" 
			},
			{
				"x": 1.7102700559,
				"y": 1.7770282905,
				"z": 0.6911487482,
				"element": "C" 
			},
			{
				"x": 2.0226507661,
				"y": 3.0054873195,
				"z": 1.2593992814,
				"element": "C" 
			},
			{
				"x": 1.0877582874,
				"y": 4.0603299753,
				"z": 1.2788996086,
				"element": "C" 
			},
			{
				"x": -0.1739770192,
				"y": 3.9091962675,
				"z": 0.7166398709,
				"element": "C" 
			},
			{
				"x": 3.1107341549,
				"y": -3.7477825499,
				"z": 0.0604846014,
				"element": "H" 
			},
			{
				"x": 2.3109691248,
				"y": -1.2286306068,
				"z": 1.46899612,
				"element": "H" 
			},
			{
				"x": 1.3766993997,
				"y": -2.8738143288,
				"z": 3.1083434287,
				"element": "H" 
			},
			{
				"x": 0.0562865036,
				"y": -3.314475399,
				"z": 1.9280410718,
				"element": "H" 
			},
			{
				"x": -0.7489740025,
				"y": -0.9302605175,
				"z": 1.8879666525,
				"element": "H" 
			},
			{
				"x": 0.5590692443,
				"y": -0.4381411489,
				"z": 3.0603335406,
				"element": "H" 
			},
			{
				"x": -2.2428316572,
				"y": 0.4357246253,
				"z": -1.4709910422,
				"element": "H" 
			},
			{
				"x": -2.4474076181,
				"y": 2.8156684588,
				"z": -0.6653218353,
				"element": "H" 
			},
			{
				"x": 2.4503657029,
				"y": 0.9839886793,
				"z": 0.665044906,
				"element": "H" 
			},
			{
				"x": 3.0071792036,
				"y": 3.1611196775,
				"z": 1.6905699002,
				"element": "H" 
			},
			{
				"x": 1.3608827003,
				"y": 5.0087796228,
				"z": 1.7315252724,
				"element": "H" 
			},
			{
				"x": -0.8916871677,
				"y": 4.7246975274,
				"z": 0.7156923349,
				"element": "H" 
			}
		],
		 "valence_orbital": [ 
			{
				"type": "occ",
				"energy": -0.27398,
				"method": "rhf"
			},
			{
				"type": "occ",
				"energy": -0.24282,
				"method": "rhf"
			},
			{
				"type": "occ",
				"energy": -0.24033,
				"method": "rhf"
			},
			{
				"type": "occ",
				"energy": -0.23168,
				"method": "rhf"
			},
			{
				"type": "occ",
				"energy": -0.20522,
				"method": "rhf"
			},
			{
				"type": "unocc",
				"energy": -0.0231,
				"method": "rhf"
			},
			{
				"type": "unocc",
				"energy": -0.00036,
				"method": "rhf"
			},
			{
				"type": "unocc",
				"energy": 0.01708,
				"method": "rhf"
			},
			{
				"type": "unocc",
				"energy": 0.0234,
				"method": "rhf"
			},
			{
				"type": "unocc",
				"energy": 0.04408,
				"method": "rhf"
			}
		],
		"cosmo_sigma_profile": { 
			"-0.025": 0.0,
			"-0.024": 0.0,
			"-0.023": 0.0,
			"-0.022": 0.0,
			"-0.021": 0.0,
			"-0.02": 0.0,
			"-0.019": 0.0,
			"-0.018": 0.0,
			"-0.017": 0.082503142088,
			"-0.016": 1.54969400278,
			"-0.015": 1.23098752293,
			"-0.014": 1.26517900469,
			"-0.013": 1.82933579284,
			"-0.012": 1.16980855362,
			"-0.011": 3.5936377017,
			"-0.01": 3.81093846513,
			"-0.009": 4.74070463983,
			"-0.008": 5.33534644053,
			"-0.007": 8.79886711307,
			"-0.006": 13.1458246731,
			"-0.005": 19.9368209935,
			"-0.004": 17.8672946621,
			"-0.003": 19.6744911733,
			"-0.002": 17.0045169726,
			"-0.001": 19.1706053457,
			"0.0": 14.8678928899,
			"0.001": 15.7677813193,
			"0.002": 17.3893721447,
			"0.003": 19.2596889484,
			"0.004": 16.0091612778,
			"0.005": 13.859739573,
			"0.006": 12.3820731208,
			"0.007": 5.47271051964,
			"0.008": 3.95490854268,
			"0.009": 2.56805663377,
			"0.01": 2.17559580305,
			"0.011": 2.80647519839,
			"0.012": 2.73478028121,
			"0.013": 3.38778486931,
			"0.014": 3.55479711549,
			"0.015": 2.83349113168,
			"0.016": 1.99957877065,
			"0.017": 1.45177589469,
			"0.018": 0.00301130592632,
			"0.019": 0.0,
			"0.02": 0.0,
			"0.021": 0.0,
			"0.022": 0.0,
			"0.023": 0.0,
			"0.024": 0.0,
			"0.025": 0.0
		}
	}
}
