{
	 "smiles": "CC(=O)NCCNC(=O)C1=C(N)C=CC=C1", 
	 "Tm": 402.15, 
	 "num_atms": 31, 
	 "gaussian": { 
		 "optdone": 1, 
		 "sigma_profile": "yes", 
		 "theory": "DFT", 
		 "functional": "B3LYP", 
		 "basiset": "6-31G**", 
		 "properties": { 
			 "R2extent": 5330.0307, 
			 "electric_dipole_moment_norm": 2.17717058588, 
			 "electric_quadrupole_moment_norm": 24.3055357254, 
			 "total_energy": -742.950222474, 
			 "HOMO_LUMO_gap": 0.17078, 
			 "cosmo_polarized_energy": -21.33, 
			 "cosmo_cavitation_energy": 34.84, 
			 "cosmo_dispersion_energy": -24.39, 
			 "cosmo_repulsion_energy": 1.94, 
			 "cosmo_total_nonelectrostatic_energy": 12.4, 
			 "SMD_solvation_energy": 5.86 
		},
		"coords": [
			{
				"x": 1.219855855,
				"y": 2.3808023204,
				"z": 4.0533676404,
				"element": "C" 
			},
			{
				"x": 1.1720262678,
				"y": 0.878792596,
				"z": 3.8112511574,
				"element": "C" 
			},
			{
				"x": 1.3350058255,
				"y": 0.0690386352,
				"z": 4.7135435621,
				"element": "O" 
			},
			{
				"x": 0.9626520135,
				"y": 0.4584122325,
				"z": 2.5178725343,
				"element": "N" 
			},
			{
				"x": 0.6329534417,
				"y": 1.2540027672,
				"z": 1.3501133632,
				"element": "C" 
			},
			{
				"x": -0.8878662488,
				"y": 1.3466967339,
				"z": 1.096321132,
				"element": "C" 
			},
			{
				"x": -1.2142922488,
				"y": 2.1575535569,
				"z": -0.0738505424,
				"element": "N" 
			},
			{
				"x": -1.1430648825,
				"y": 1.7597975552,
				"z": -1.398280853,
				"element": "C" 
			},
			{
				"x": -0.7945269062,
				"y": 2.5799575801,
				"z": -2.2545822522,
				"element": "O" 
			},
			{
				"x": -1.5440351771,
				"y": 0.3671963713,
				"z": -1.7484167361,
				"element": "C" 
			},
			{
				"x": -0.9128420627,
				"y": -0.2906594558,
				"z": -2.841555931,
				"element": "C" 
			},
			{
				"x": 0.1088369539,
				"y": 0.3102404485,
				"z": -3.5462609203,
				"element": "N" 
			},
			{
				"x": -1.3191074477,
				"y": -1.6051819116,
				"z": -3.1526662252,
				"element": "C" 
			},
			{
				"x": -2.3438501701,
				"y": -2.2265572615,
				"z": -2.4528007033,
				"element": "C" 
			},
			{
				"x": -3.0078466122,
				"y": -1.5600237297,
				"z": -1.4161234906,
				"element": "C" 
			},
			{
				"x": -2.5984034229,
				"y": -0.2756727185,
				"z": -1.0774759093,
				"element": "C" 
			},
			{
				"x": 1.3606818397,
				"y": 2.5377380915,
				"z": 5.1221804018,
				"element": "H" 
			},
			{
				"x": 0.2978120945,
				"y": 2.8792760621,
				"z": 3.7364075873,
				"element": "H" 
			},
			{
				"x": 2.0525960133,
				"y": 2.8436458195,
				"z": 3.5127261786,
				"element": "H" 
			},
			{
				"x": 0.9253030613,
				"y": -0.5494767166,
				"z": 2.4324124053,
				"element": "H" 
			},
			{
				"x": 1.0537952949,
				"y": 2.2572510957,
				"z": 1.4639604192,
				"element": "H" 
			},
			{
				"x": 1.1135763637,
				"y": 0.8126268364,
				"z": 0.4694008477,
				"element": "H" 
			},
			{
				"x": -1.3821787643,
				"y": 1.7793391914,
				"z": 1.9735453674,
				"element": "H" 
			},
			{
				"x": -1.2898785182,
				"y": 0.3420169782,
				"z": 0.9661287076,
				"element": "H" 
			},
			{
				"x": -0.9447555512,
				"y": 3.1335481846,
				"z": -0.0017049555,
				"element": "H" 
			},
			{
				"x": 0.0854900284,
				"y": 1.3237038182,
				"z": -3.5305686112,
				"element": "H" 
			},
			{
				"x": 0.3343529764,
				"y": -0.1057288133,
				"z": -4.4375077837,
				"element": "H" 
			},
			{
				"x": -0.8248659121,
				"y": -2.1243093081,
				"z": -3.9702219416,
				"element": "H" 
			},
			{
				"x": -2.640890784,
				"y": -3.2344712046,
				"z": -2.729543632,
				"element": "H" 
			},
			{
				"x": -3.8316519212,
				"y": -2.0317555667,
				"z": -0.8908932203,
				"element": "H" 
			},
			{
				"x": -3.1230813995,
				"y": 0.2666998115,
				"z": -0.296777597,
				"element": "H" 
			}
		],
		 "valence_orbital": [ 
			{
				"type": "occ",
				"energy": -0.26289,
				"method": "rhf"
			},
			{
				"type": "occ",
				"energy": -0.25177,
				"method": "rhf"
			},
			{
				"type": "occ",
				"energy": -0.24647,
				"method": "rhf"
			},
			{
				"type": "occ",
				"energy": -0.24348,
				"method": "rhf"
			},
			{
				"type": "occ",
				"energy": -0.20759,
				"method": "rhf"
			},
			{
				"type": "unocc",
				"energy": -0.03681,
				"method": "rhf"
			},
			{
				"type": "unocc",
				"energy": 0.00594,
				"method": "rhf"
			},
			{
				"type": "unocc",
				"energy": 0.02617,
				"method": "rhf"
			},
			{
				"type": "unocc",
				"energy": 0.04602,
				"method": "rhf"
			},
			{
				"type": "unocc",
				"energy": 0.06641,
				"method": "rhf"
			}
		],
		"cosmo_sigma_profile": { 
			"-0.025": 0.0,
			"-0.024": 0.0,
			"-0.023": 0.0,
			"-0.022": 0.0,
			"-0.021": 0.0,
			"-0.02": 0.0,
			"-0.019": 0.0,
			"-0.018": 0.0,
			"-0.017": 0.0,
			"-0.016": 0.0,
			"-0.015": 0.0,
			"-0.014": 0.0969633523301,
			"-0.013": 1.9809037424,
			"-0.012": 3.61481176418,
			"-0.011": 3.65353248948,
			"-0.01": 4.10396354652,
			"-0.009": 3.79448915924,
			"-0.008": 5.08946289574,
			"-0.007": 6.51200550107,
			"-0.006": 17.9132530243,
			"-0.005": 22.4860739804,
			"-0.004": 22.7918197089,
			"-0.003": 20.7268362692,
			"-0.002": 18.8193485292,
			"-0.001": 18.1421442334,
			"0.0": 14.3691032125,
			"0.001": 9.25217263036,
			"0.002": 12.0478619322,
			"0.003": 13.097020414,
			"0.004": 14.4438415046,
			"0.005": 13.094616533,
			"0.006": 10.5893986064,
			"0.007": 3.13398953677,
			"0.008": 3.39230680569,
			"0.009": 2.71927670667,
			"0.01": 4.01901316503,
			"0.011": 3.31352646086,
			"0.012": 5.30311489514,
			"0.013": 5.80187680783,
			"0.014": 7.37535503819,
			"0.015": 2.80750888019,
			"0.016": 0.16212724137,
			"0.017": 0.0,
			"0.018": 0.0,
			"0.019": 0.0,
			"0.02": 0.0,
			"0.021": 0.0,
			"0.022": 0.0,
			"0.023": 0.0,
			"0.024": 0.0,
			"0.025": 0.0
		}
	}
}
