{
	 "smiles": "NCCS(=O)(=O)CC1=CC=CC=C1", 
	 "Tm": 350.15, 
	 "num_atms": 26, 
	 "gaussian": { 
		 "optdone": 1, 
		 "sigma_profile": "yes", 
		 "theory": "DFT", 
		 "functional": "B3LYP", 
		 "basiset": "6-31G**", 
		 "properties": { 
			 "R2extent": 2900.8593, 
			 "electric_dipole_moment_norm": 4.53454446003, 
			 "electric_quadrupole_moment_norm": 14.917677045, 
			 "total_energy": -954.115862182, 
			 "HOMO_LUMO_gap": 0.21626, 
			 "cosmo_polarized_energy": -19.75, 
			 "cosmo_cavitation_energy": 30.17, 
			 "cosmo_dispersion_energy": -21.43, 
			 "cosmo_repulsion_energy": 1.67, 
			 "cosmo_total_nonelectrostatic_energy": 10.41, 
			 "SMD_solvation_energy": 2.81 
		},
		"coords": [
			{
				"x": -1.2702148804,
				"y": -3.1034480662,
				"z": -0.7838579027,
				"element": "N" 
			},
			{
				"x": -1.2164773913,
				"y": -1.7823944407,
				"z": -0.1639891238,
				"element": "C" 
			},
			{
				"x": -0.1502280909,
				"y": -1.6542127811,
				"z": 0.9411116814,
				"element": "C" 
			},
			{
				"x": -0.1897142617,
				"y": -0.1013194162,
				"z": 1.906541966,
				"element": "S" 
			},
			{
				"x": 0.5570708502,
				"y": -0.3428795949,
				"z": 3.1536806851,
				"element": "O" 
			},
			{
				"x": -1.5835109678,
				"y": 0.3777881691,
				"z": 1.9558717188,
				"element": "O" 
			},
			{
				"x": 0.8056394977,
				"y": 1.1216942542,
				"z": 0.9562655882,
				"element": "C" 
			},
			{
				"x": 0.3442329292,
				"y": 1.3959775338,
				"z": -0.4477262373,
				"element": "C" 
			},
			{
				"x": 1.1235429133,
				"y": 0.9845811071,
				"z": -1.5379929552,
				"element": "C" 
			},
			{
				"x": 0.7041719689,
				"y": 1.2316943317,
				"z": -2.8461513972,
				"element": "C" 
			},
			{
				"x": -0.5032184082,
				"y": 1.8920439093,
				"z": -3.0781858219,
				"element": "C" 
			},
			{
				"x": -1.2857596091,
				"y": 2.3063935794,
				"z": -1.9973550988,
				"element": "C" 
			},
			{
				"x": -0.8663779814,
				"y": 2.0631350197,
				"z": -0.6902689119,
				"element": "C" 
			},
			{
				"x": -1.4789402897,
				"y": -3.8187299431,
				"z": -0.0915933247,
				"element": "H" 
			},
			{
				"x": -0.3744075028,
				"y": -3.3464222503,
				"z": -1.1993961264,
				"element": "H" 
			},
			{
				"x": -2.1947512158,
				"y": -1.5533534265,
				"z": 0.2668027792,
				"element": "H" 
			},
			{
				"x": -1.0350834112,
				"y": -1.0411747064,
				"z": -0.9465183819,
				"element": "H" 
			},
			{
				"x": 0.8702572025,
				"y": -1.7602892063,
				"z": 0.5570449953,
				"element": "H" 
			},
			{
				"x": -0.2945385686,
				"y": -2.4135702642,
				"z": 1.7174749773,
				"element": "H" 
			},
			{
				"x": 0.7362332307,
				"y": 2.0031949118,
				"z": 1.6019927293,
				"element": "H" 
			},
			{
				"x": 1.833328955,
				"y": 0.7524801497,
				"z": 0.9951205409,
				"element": "H" 
			},
			{
				"x": 2.0691969177,
				"y": 0.4773395948,
				"z": -1.3611860857,
				"element": "H" 
			},
			{
				"x": 1.3210293519,
				"y": 0.9114809933,
				"z": -3.6807900029,
				"element": "H" 
			},
			{
				"x": -0.8317640694,
				"y": 2.0856840321,
				"z": -4.095044949,
				"element": "H" 
			},
			{
				"x": -2.2258246116,
				"y": 2.8212063458,
				"z": -2.1725550227,
				"element": "H" 
			},
			{
				"x": -1.483092557,
				"y": 2.3699001641,
				"z": 0.1484036807,
				"element": "H" 
			}
		],
		 "valence_orbital": [ 
			{
				"type": "occ",
				"energy": -0.29492,
				"method": "rhf"
			},
			{
				"type": "occ",
				"energy": -0.29314,
				"method": "rhf"
			},
			{
				"type": "occ",
				"energy": -0.26354,
				"method": "rhf"
			},
			{
				"type": "occ",
				"energy": -0.25564,
				"method": "rhf"
			},
			{
				"type": "occ",
				"energy": -0.24172,
				"method": "rhf"
			},
			{
				"type": "unocc",
				"energy": -0.02546,
				"method": "rhf"
			},
			{
				"type": "unocc",
				"energy": -0.01569,
				"method": "rhf"
			},
			{
				"type": "unocc",
				"energy": 0.05377,
				"method": "rhf"
			},
			{
				"type": "unocc",
				"energy": 0.05893,
				"method": "rhf"
			},
			{
				"type": "unocc",
				"energy": 0.07652,
				"method": "rhf"
			}
		],
		"cosmo_sigma_profile": { 
			"-0.025": 0.0,
			"-0.024": 0.0,
			"-0.023": 0.0,
			"-0.022": 0.0,
			"-0.021": 0.0,
			"-0.02": 0.0,
			"-0.019": 0.0,
			"-0.018": 0.0,
			"-0.017": 0.0,
			"-0.016": 0.0,
			"-0.015": 0.0,
			"-0.014": 0.0,
			"-0.013": 0.0,
			"-0.012": 0.0,
			"-0.011": 0.525527232371,
			"-0.01": 3.82412302612,
			"-0.009": 6.11796238268,
			"-0.008": 12.9088659688,
			"-0.007": 12.5860371428,
			"-0.006": 15.537014796,
			"-0.005": 17.0519692066,
			"-0.004": 20.8554597388,
			"-0.003": 14.2991418477,
			"-0.002": 11.8978149931,
			"-0.001": 10.8441237719,
			"0.0": 12.1346992949,
			"0.001": 10.3688542999,
			"0.002": 12.8405873341,
			"0.003": 11.9414165552,
			"0.004": 11.2601143324,
			"0.005": 8.58195296296,
			"0.006": 3.17162355449,
			"0.007": 3.689382928,
			"0.008": 3.71796315364,
			"0.009": 3.61654614663,
			"0.01": 3.5988875385,
			"0.011": 7.59277844168,
			"0.012": 11.5241033061,
			"0.013": 3.71419270161,
			"0.014": 0.697567403623,
			"0.015": 0.392231287455,
			"0.016": 0.440740569393,
			"0.017": 0.822227251982,
			"0.018": 0.718992571378,
			"0.019": 0.345047800899,
			"0.02": 0.0394119212301,
			"0.021": 0.0,
			"0.022": 0.0,
			"0.023": 0.0,
			"0.024": 0.0,
			"0.025": 0.0
		}
	}
}
