{
	 "smiles": "CC(C)C(C)(NC(=O)C(C)OC1=CC=C(Cl)C=C1Cl)C#N", 
	 "Tm": 344.15, 
	 "num_atms": 39, 
	 "gaussian": { 
		 "optdone": 1, 
		 "sigma_profile": "yes", 
		 "theory": "DFT", 
		 "functional": "B3LYP", 
		 "basiset": "6-31G**", 
		 "properties": { 
			 "R2extent": 10765.5315, 
			 "electric_dipole_moment_norm": 2.03401896009, 
			 "electric_quadrupole_moment_norm": 25.9135448897, 
			 "total_energy": -1762.77092014, 
			 "HOMO_LUMO_gap": 0.20259, 
			 "cosmo_polarized_energy": -20.6, 
			 "cosmo_cavitation_energy": 45.95, 
			 "cosmo_dispersion_energy": -29.46, 
			 "cosmo_repulsion_energy": 2.28, 
			 "cosmo_total_nonelectrostatic_energy": 18.77, 
			 "SMD_solvation_energy": 9.08 
		},
		"coords": [
			{
				"x": 0.3119876177,
				"y": -2.3542852321,
				"z": 0.8717044682,
				"element": "C" 
			},
			{
				"x": -0.9684474469,
				"y": -2.1955321915,
				"z": 0.0388923262,
				"element": "C" 
			},
			{
				"x": -1.7395190136,
				"y": -0.9364225913,
				"z": 0.4608511122,
				"element": "C" 
			},
			{
				"x": -0.6774652179,
				"y": -2.2541377735,
				"z": -1.5055573698,
				"element": "C" 
			},
			{
				"x": -1.9681044079,
				"y": -2.1729595407,
				"z": -2.3538821055,
				"element": "C" 
			},
			{
				"x": 0.327703567,
				"y": -1.2506858023,
				"z": -1.9366803137,
				"element": "N" 
			},
			{
				"x": 0.0978828312,
				"y": 0.0438861002,
				"z": -2.3270036767,
				"element": "C" 
			},
			{
				"x": -0.9761411692,
				"y": 0.6184071754,
				"z": -2.2740757786,
				"element": "O" 
			},
			{
				"x": 1.3549427995,
				"y": 0.7302629015,
				"z": -2.9203759761,
				"element": "C" 
			},
			{
				"x": 1.4256112194,
				"y": 0.4751765268,
				"z": -4.4260535969,
				"element": "C" 
			},
			{
				"x": 1.2790630772,
				"y": 2.137543608,
				"z": -2.7657869424,
				"element": "O" 
			},
			{
				"x": 1.4059066959,
				"y": 2.6997398873,
				"z": -1.5353783701,
				"element": "C" 
			},
			{
				"x": 1.6263371922,
				"y": 1.995792968,
				"z": -0.3461626017,
				"element": "C" 
			},
			{
				"x": 1.7663575846,
				"y": 2.6653587442,
				"z": 0.870842139,
				"element": "C" 
			},
			{
				"x": 1.6862507361,
				"y": 4.0529433699,
				"z": 0.9027425958,
				"element": "C" 
			},
			{
				"x": 1.8598348006,
				"y": 4.9065603209,
				"z": 2.427863024,
				"element": "Cl" 
			},
			{
				"x": 1.4674974357,
				"y": 4.7814434485,
				"z": -0.2668463048,
				"element": "C" 
			},
			{
				"x": 1.3303190006,
				"y": 4.1050956388,
				"z": -1.4741837036,
				"element": "C" 
			},
			{
				"x": 1.0649736896,
				"y": 5.0206481327,
				"z": -2.9386991298,
				"element": "Cl" 
			},
			{
				"x": -0.053965041,
				"y": -3.5689034197,
				"z": -1.7959783866,
				"element": "C" 
			},
			{
				"x": 0.4360464209,
				"y": -4.5964883987,
				"z": -2.0228967358,
				"element": "N" 
			},
			{
				"x": 0.9796019295,
				"y": -1.4963296532,
				"z": 0.7359700798,
				"element": "H" 
			},
			{
				"x": 0.0607397118,
				"y": -2.4074729974,
				"z": 1.9349535468,
				"element": "H" 
			},
			{
				"x": 0.8628289462,
				"y": -3.2642114156,
				"z": 0.6145681738,
				"element": "H" 
			},
			{
				"x": -1.6068782157,
				"y": -3.067947106,
				"z": 0.2348125573,
				"element": "H" 
			},
			{
				"x": -2.7051374472,
				"y": -0.850028024,
				"z": -0.0419947504,
				"element": "H" 
			},
			{
				"x": -1.9296890997,
				"y": -0.9777683585,
				"z": 1.5381484138,
				"element": "H" 
			},
			{
				"x": -1.1748270794,
				"y": -0.0250832614,
				"z": 0.2501902932,
				"element": "H" 
			},
			{
				"x": -1.7360131495,
				"y": -2.3460690843,
				"z": -3.4074936715,
				"element": "H" 
			},
			{
				"x": -2.4250889922,
				"y": -1.1910827496,
				"z": -2.2566251133,
				"element": "H" 
			},
			{
				"x": -2.6659442993,
				"y": -2.9455605661,
				"z": -2.0213015676,
				"element": "H" 
			},
			{
				"x": 1.2803796696,
				"y": -1.5828075207,
				"z": -1.985675408,
				"element": "H" 
			},
			{
				"x": 2.2653928785,
				"y": 0.3500286364,
				"z": -2.4321862348,
				"element": "H" 
			},
			{
				"x": 2.2948099965,
				"y": 0.9851786703,
				"z": -4.8478463159,
				"element": "H" 
			},
			{
				"x": 0.5230395786,
				"y": 0.8625064676,
				"z": -4.904961194,
				"element": "H" 
			},
			{
				"x": 1.5068493238,
				"y": -0.5955315821,
				"z": -4.6326952552,
				"element": "H" 
			},
			{
				"x": 1.6831744481,
				"y": 0.9142679725,
				"z": -0.353077237,
				"element": "H" 
			},
			{
				"x": 1.934152744,
				"y": 2.1062887333,
				"z": 1.7842072624,
				"element": "H" 
			},
			{
				"x": 1.4050366849,
				"y": 5.8624779663,
				"z": -0.2441282528,
				"element": "H" 
			}
		],
		 "valence_orbital": [ 
			{
				"type": "occ",
				"energy": -0.3118,
				"method": "rhf"
			},
			{
				"type": "occ",
				"energy": -0.2837,
				"method": "rhf"
			},
			{
				"type": "occ",
				"energy": -0.27226,
				"method": "rhf"
			},
			{
				"type": "occ",
				"energy": -0.26332,
				"method": "rhf"
			},
			{
				"type": "occ",
				"energy": -0.23136,
				"method": "rhf"
			},
			{
				"type": "unocc",
				"energy": -0.02877,
				"method": "rhf"
			},
			{
				"type": "unocc",
				"energy": -0.01286,
				"method": "rhf"
			},
			{
				"type": "unocc",
				"energy": -0.00743,
				"method": "rhf"
			},
			{
				"type": "unocc",
				"energy": 0.00566,
				"method": "rhf"
			},
			{
				"type": "unocc",
				"energy": 0.01001,
				"method": "rhf"
			}
		],
		"cosmo_sigma_profile": { 
			"-0.025": 0.0,
			"-0.024": 0.0,
			"-0.023": 0.0,
			"-0.022": 0.0,
			"-0.021": 0.0,
			"-0.02": 0.0,
			"-0.019": 0.0,
			"-0.018": 0.0,
			"-0.017": 0.0116281256416,
			"-0.016": 0.614706214927,
			"-0.015": 1.15994634564,
			"-0.014": 1.34936240718,
			"-0.013": 1.16119129816,
			"-0.012": 1.70012053914,
			"-0.011": 1.70014234025,
			"-0.01": 1.92217516013,
			"-0.009": 2.68614734722,
			"-0.008": 5.12654283079,
			"-0.007": 6.88963003514,
			"-0.006": 11.9674666844,
			"-0.005": 18.8927810622,
			"-0.004": 24.2836735846,
			"-0.003": 32.7045019309,
			"-0.002": 33.9277993172,
			"-0.001": 33.6277283968,
			"0.0": 31.8827565707,
			"0.001": 31.9168261354,
			"0.002": 26.3187065053,
			"0.003": 20.4525482999,
			"0.004": 20.9403131836,
			"0.005": 13.1198210324,
			"0.006": 6.97160932635,
			"0.007": 6.22023593564,
			"0.008": 6.21029085924,
			"0.009": 6.09871077921,
			"0.01": 5.05511772778,
			"0.011": 4.64723452568,
			"0.012": 4.56201050604,
			"0.013": 3.0709569043,
			"0.014": 0.701304991219,
			"0.015": 0.0,
			"0.016": 0.0,
			"0.017": 0.0,
			"0.018": 0.0,
			"0.019": 0.0,
			"0.02": 0.0,
			"0.021": 0.0,
			"0.022": 0.0,
			"0.023": 0.0,
			"0.024": 0.0,
			"0.025": 0.0
		}
	}
}
