{
	 "smiles": "CNC(C)C(O)=O", 
	 "Tm": 542.15, 
	 "num_atms": 16, 
	 "gaussian": { 
		 "optdone": 1, 
		 "sigma_profile": "yes", 
		 "theory": "DFT", 
		 "functional": "B3LYP", 
		 "basiset": "6-31G**", 
		 "properties": { 
			 "R2extent": 1210.8574, 
			 "electric_dipole_moment_norm": 5.22209050285, 
			 "electric_quadrupole_moment_norm": 12.1574711811, 
			 "total_energy": -363.05775006, 
			 "HOMO_LUMO_gap": 0.26218, 
			 "cosmo_polarized_energy": -12.5, 
			 "cosmo_cavitation_energy": 18.69, 
			 "cosmo_dispersion_energy": -13.82, 
			 "cosmo_repulsion_energy": 1.18, 
			 "cosmo_total_nonelectrostatic_energy": 6.04, 
			 "SMD_solvation_energy": 4.03 
		},
		"coords": [
			{
				"x": 0.2164260938,
				"y": -0.6580201043,
				"z": -0.4311287263,
				"element": "C" 
			},
			{
				"x": 0.7479765713,
				"y": -0.381786817,
				"z": 0.908405222,
				"element": "N" 
			},
			{
				"x": 0.369903654,
				"y": 0.9145254184,
				"z": 1.5049278488,
				"element": "C" 
			},
			{
				"x": 0.425330744,
				"y": 2.153917936,
				"z": 0.6072287783,
				"element": "C" 
			},
			{
				"x": -1.0182358121,
				"y": 0.7611370615,
				"z": 2.1713951118,
				"element": "C" 
			},
			{
				"x": -1.3183255438,
				"y": -0.5129411634,
				"z": 2.4729480003,
				"element": "O" 
			},
			{
				"x": -1.741536569,
				"y": 1.6927218741,
				"z": 2.4340341593,
				"element": "O" 
			},
			{
				"x": -0.8774321895,
				"y": -0.6317821549,
				"z": -0.3995186468,
				"element": "H" 
			},
			{
				"x": 0.5525659334,
				"y": 0.0445158156,
				"z": -1.206095194,
				"element": "H" 
			},
			{
				"x": 0.5158068806,
				"y": -1.6671307485,
				"z": -0.7274241174,
				"element": "H" 
			},
			{
				"x": 1.7577431633,
				"y": -0.4844974952,
				"z": 0.9085852986,
				"element": "H" 
			},
			{
				"x": 1.0631878294,
				"y": 1.0668160706,
				"z": 2.3439055798,
				"element": "H" 
			},
			{
				"x": 1.435643419,
				"y": 2.3056265023,
				"z": 0.2139692886,
				"element": "H" 
			},
			{
				"x": 0.1362343136,
				"y": 3.0312617099,
				"z": 1.1886714899,
				"element": "H" 
			},
			{
				"x": -0.2691101666,
				"y": 2.07794263,
				"z": -0.2337766179,
				"element": "H" 
			},
			{
				"x": -0.5628783211,
				"y": -1.0326065349,
				"z": 2.106772525,
				"element": "H" 
			}
		],
		 "valence_orbital": [ 
			{
				"type": "occ",
				"energy": -0.3631,
				"method": "rhf"
			},
			{
				"type": "occ",
				"energy": -0.35341,
				"method": "rhf"
			},
			{
				"type": "occ",
				"energy": -0.30021,
				"method": "rhf"
			},
			{
				"type": "occ",
				"energy": -0.27513,
				"method": "rhf"
			},
			{
				"type": "occ",
				"energy": -0.24697,
				"method": "rhf"
			},
			{
				"type": "unocc",
				"energy": 0.01521,
				"method": "rhf"
			},
			{
				"type": "unocc",
				"energy": 0.06755,
				"method": "rhf"
			},
			{
				"type": "unocc",
				"energy": 0.10161,
				"method": "rhf"
			},
			{
				"type": "unocc",
				"energy": 0.12375,
				"method": "rhf"
			},
			{
				"type": "unocc",
				"energy": 0.13316,
				"method": "rhf"
			}
		],
		"cosmo_sigma_profile": { 
			"-0.025": 0.0,
			"-0.024": 0.0,
			"-0.023": 0.0,
			"-0.022": 0.0,
			"-0.021": 0.0,
			"-0.02": 0.0,
			"-0.019": 0.0,
			"-0.018": 0.0,
			"-0.017": 0.0,
			"-0.016": 0.0,
			"-0.015": 0.0,
			"-0.014": 0.0,
			"-0.013": 0.00914500360866,
			"-0.012": 0.97005393496,
			"-0.011": 1.40505683486,
			"-0.01": 1.57831313804,
			"-0.009": 2.0631669088,
			"-0.008": 2.97353758945,
			"-0.007": 5.88520988978,
			"-0.006": 5.49651733217,
			"-0.005": 8.03451840711,
			"-0.004": 13.3528951148,
			"-0.003": 17.3221846424,
			"-0.002": 16.2582842282,
			"-0.001": 14.9749260596,
			"0.0": 9.16390137297,
			"0.001": 5.03361804325,
			"0.002": 2.8010549706,
			"0.003": 2.73762693912,
			"0.004": 2.13035244384,
			"0.005": 2.92669148914,
			"0.006": 2.24823083192,
			"0.007": 2.52843753124,
			"0.008": 2.54989170455,
			"0.009": 3.53825778538,
			"0.01": 3.73445113202,
			"0.011": 5.82074542285,
			"0.012": 5.74659246805,
			"0.013": 3.47354507682,
			"0.014": 0.77894790847,
			"0.015": 0.0,
			"0.016": 0.0,
			"0.017": 0.0,
			"0.018": 0.0,
			"0.019": 0.0,
			"0.02": 0.0,
			"0.021": 0.0,
			"0.022": 0.0,
			"0.023": 0.0,
			"0.024": 0.0,
			"0.025": 0.0
		}
	}
}
