{
	 "smiles": "BrC1=CC(CC#N)=CC=C1", 
	 "Tm": 300.65, 
	 "num_atms": 16, 
	 "gaussian": { 
		 "optdone": 1, 
		 "sigma_profile": "yes", 
		 "theory": "DFT", 
		 "functional": "B3LYP", 
		 "basiset": "6-31G**", 
		 "properties": { 
			 "R2extent": 3220.0075, 
			 "electric_dipole_moment_norm": 2.00795849061, 
			 "electric_quadrupole_moment_norm": 19.1213661217, 
			 "total_energy": -2934.60531313, 
			 "HOMO_LUMO_gap": 0.22261, 
			 "cosmo_polarized_energy": -9.97, 
			 "cosmo_cavitation_energy": 23.54, 
			 "cosmo_dispersion_energy": -17.2, 
			 "cosmo_repulsion_energy": 1.39, 
			 "cosmo_total_nonelectrostatic_energy": 7.73, 
			 "SMD_solvation_energy": 4.16 
		},
		"coords": [
			{
				"x": 3.1757602977,
				"y": -0.2415678776,
				"z": -1.6692493528,
				"element": "Br" 
			},
			{
				"x": 1.3019828459,
				"y": -0.0053970755,
				"z": -1.3750155453,
				"element": "C" 
			},
			{
				"x": 0.8768064903,
				"y": 0.8394859737,
				"z": -0.3546475347,
				"element": "C" 
			},
			{
				"x": -0.494328858,
				"y": 1.0193885704,
				"z": -0.1308600074,
				"element": "C" 
			},
			{
				"x": -0.9135838226,
				"y": 1.9557303383,
				"z": 0.9991805209,
				"element": "C" 
			},
			{
				"x": -2.3608349067,
				"y": 2.0912616527,
				"z": 1.1752219726,
				"element": "C" 
			},
			{
				"x": -3.5082329549,
				"y": 2.1966313637,
				"z": 1.312233622,
				"element": "N" 
			},
			{
				"x": -1.4168544418,
				"y": 0.3475444226,
				"z": -0.9358143516,
				"element": "C" 
			},
			{
				"x": -0.9715083115,
				"y": -0.4968178235,
				"z": -1.955607128,
				"element": "C" 
			},
			{
				"x": 0.3905409052,
				"y": -0.6818940824,
				"z": -2.1855975901,
				"element": "C" 
			},
			{
				"x": 1.6086734285,
				"y": 1.3530678966,
				"z": 0.2605804353,
				"element": "H" 
			},
			{
				"x": -0.4896715052,
				"y": 1.6083016306,
				"z": 1.9499217178,
				"element": "H" 
			},
			{
				"x": -0.4998099014,
				"y": 2.9576731833,
				"z": 0.8281118525,
				"element": "H" 
			},
			{
				"x": -2.4805545019,
				"y": 0.4821294916,
				"z": -0.7681073703,
				"element": "H" 
			},
			{
				"x": -1.693932886,
				"y": -1.0162990966,
				"z": -2.5778926836,
				"element": "H" 
			},
			{
				"x": 0.7408481223,
				"y": -1.3359385682,
				"z": -2.9755585574,
				"element": "H" 
			}
		],
		 "valence_orbital": [ 
			{
				"type": "occ",
				"energy": -0.33547,
				"method": "rhf"
			},
			{
				"type": "occ",
				"energy": -0.32034,
				"method": "rhf"
			},
			{
				"type": "occ",
				"energy": -0.29545,
				"method": "rhf"
			},
			{
				"type": "occ",
				"energy": -0.2706,
				"method": "rhf"
			},
			{
				"type": "occ",
				"energy": -0.25331,
				"method": "rhf"
			},
			{
				"type": "unocc",
				"energy": -0.0307,
				"method": "rhf"
			},
			{
				"type": "unocc",
				"energy": -0.02446,
				"method": "rhf"
			},
			{
				"type": "unocc",
				"energy": -0.00451,
				"method": "rhf"
			},
			{
				"type": "unocc",
				"energy": 0.028,
				"method": "rhf"
			},
			{
				"type": "unocc",
				"energy": 0.03389,
				"method": "rhf"
			}
		],
		"cosmo_sigma_profile": { 
			"-0.025": 0.0,
			"-0.024": 0.0,
			"-0.023": 0.0,
			"-0.022": 0.0,
			"-0.021": 0.0,
			"-0.02": 0.0,
			"-0.019": 0.0,
			"-0.018": 0.0,
			"-0.017": 0.0,
			"-0.016": 0.0,
			"-0.015": 0.0,
			"-0.014": 0.0,
			"-0.013": 0.0,
			"-0.012": 0.0,
			"-0.011": 0.0,
			"-0.01": 0.690260447903,
			"-0.009": 5.34339126135,
			"-0.008": 8.7787313436,
			"-0.007": 9.26032573087,
			"-0.006": 11.6289901573,
			"-0.005": 10.1677703685,
			"-0.004": 8.99601196883,
			"-0.003": 10.7383248542,
			"-0.002": 10.5211053855,
			"-0.001": 10.7074485039,
			"0.0": 10.3542209332,
			"0.001": 13.0230194009,
			"0.002": 16.9209321845,
			"0.003": 20.808229376,
			"0.004": 17.0248490475,
			"0.005": 7.57872574767,
			"0.006": 2.22172728147,
			"0.007": 2.36864327888,
			"0.008": 3.68721586476,
			"0.009": 2.43240910727,
			"0.01": 3.30450401074,
			"0.011": 2.59307353443,
			"0.012": 2.49260746974,
			"0.013": 1.49791971705,
			"0.014": 0.0234140980104,
			"0.015": 0.0,
			"0.016": 0.0,
			"0.017": 0.0,
			"0.018": 0.0,
			"0.019": 0.0,
			"0.02": 0.0,
			"0.021": 0.0,
			"0.022": 0.0,
			"0.023": 0.0,
			"0.024": 0.0,
			"0.025": 0.0
		}
	}
}
