{
	 "smiles": "CC(=O)N[C@@H](CC(O)=O)C(N)=O", 
	 "Tm": 433.15, 
	 "num_atms": 22, 
	 "gaussian": { 
		 "optdone": 1, 
		 "sigma_profile": "yes", 
		 "theory": "DFT", 
		 "functional": "B3LYP", 
		 "basiset": "6-31G**", 
		 "properties": { 
			 "R2extent": 3018.6476, 
			 "electric_dipole_moment_norm": 3.43725538911, 
			 "electric_quadrupole_moment_norm": 11.9030190742, 
			 "total_energy": -645.127660267, 
			 "HOMO_LUMO_gap": 0.25385, 
			 "cosmo_polarized_energy": -17.4, 
			 "cosmo_cavitation_energy": 25.35, 
			 "cosmo_dispersion_energy": -18.71, 
			 "cosmo_repulsion_energy": 1.51, 
			 "cosmo_total_nonelectrostatic_energy": 8.16, 
			 "SMD_solvation_energy": 6.08 
		},
		"coords": [
			{
				"x": 3.0191238135,
				"y": -2.7378452627,
				"z": 0.7316565186,
				"element": "C" 
			},
			{
				"x": 2.3628524084,
				"y": -2.3053073978,
				"z": -0.5638863506,
				"element": "C" 
			},
			{
				"x": 2.647027427,
				"y": -2.8341474923,
				"z": -1.6440980502,
				"element": "O" 
			},
			{
				"x": 1.4467091324,
				"y": -1.3049036268,
				"z": -0.4682494821,
				"element": "N" 
			},
			{
				"x": 0.5949262969,
				"y": -0.9057205523,
				"z": -1.5906535414,
				"element": "C" 
			},
			{
				"x": -0.6953424062,
				"y": -0.2615112128,
				"z": -1.0547982068,
				"element": "C" 
			},
			{
				"x": -0.4027510277,
				"y": 0.8387936393,
				"z": -0.0279878045,
				"element": "C" 
			},
			{
				"x": -0.0954364042,
				"y": 2.0420266874,
				"z": -0.512948486,
				"element": "O" 
			},
			{
				"x": -0.4116327293,
				"y": 0.6030785884,
				"z": 1.1654777719,
				"element": "O" 
			},
			{
				"x": 1.3153844075,
				"y": 0.0336038228,
				"z": -2.5943104807,
				"element": "C" 
			},
			{
				"x": 2.353493535,
				"y": -0.5276849273,
				"z": -3.2339965145,
				"element": "N" 
			},
			{
				"x": 0.9247746779,
				"y": 1.187914816,
				"z": -2.8152130699,
				"element": "O" 
			},
			{
				"x": 2.7674860195,
				"y": -3.7862166467,
				"z": 0.9163883507,
				"element": "H" 
			},
			{
				"x": 4.1040364829,
				"y": -2.6795714993,
				"z": 0.6132264537,
				"element": "H" 
			},
			{
				"x": 2.7167161081,
				"y": -2.1409314509,
				"z": 1.5951999952,
				"element": "H" 
			},
			{
				"x": 1.2106203952,
				"y": -0.9216654284,
				"z": 0.4403310624,
				"element": "H" 
			},
			{
				"x": 0.3417326771,
				"y": -1.8161004532,
				"z": -2.1482118322,
				"element": "H" 
			},
			{
				"x": -1.2869502488,
				"y": -1.0240779141,
				"z": -0.5452851958,
				"element": "H" 
			},
			{
				"x": -1.2682865782,
				"y": 0.1310787283,
				"z": -1.898147164,
				"element": "H" 
			},
			{
				"x": 0.1210368466,
				"y": 1.9431395998,
				"z": -1.4747777246,
				"element": "H" 
			},
			{
				"x": 2.653794284,
				"y": -1.4680171394,
				"z": -2.9750788577,
				"element": "H" 
			},
			{
				"x": 2.8835848824,
				"y": 0.0408651221,
				"z": -3.8783373918,
				"element": "H" 
			}
		],
		 "valence_orbital": [ 
			{
				"type": "occ",
				"energy": -0.30291,
				"method": "rhf"
			},
			{
				"type": "occ",
				"energy": -0.29034,
				"method": "rhf"
			},
			{
				"type": "occ",
				"energy": -0.27856,
				"method": "rhf"
			},
			{
				"type": "occ",
				"energy": -0.2683,
				"method": "rhf"
			},
			{
				"type": "occ",
				"energy": -0.26631,
				"method": "rhf"
			},
			{
				"type": "unocc",
				"energy": -0.01246,
				"method": "rhf"
			},
			{
				"type": "unocc",
				"energy": 0.0034,
				"method": "rhf"
			},
			{
				"type": "unocc",
				"energy": 0.01002,
				"method": "rhf"
			},
			{
				"type": "unocc",
				"energy": 0.0778,
				"method": "rhf"
			},
			{
				"type": "unocc",
				"energy": 0.09172,
				"method": "rhf"
			}
		],
		"cosmo_sigma_profile": { 
			"-0.025": 0.0,
			"-0.024": 0.0,
			"-0.023": 0.0,
			"-0.022": 0.0,
			"-0.021": 0.0,
			"-0.02": 0.0,
			"-0.019": 0.0,
			"-0.018": 0.0,
			"-0.017": 0.0,
			"-0.016": 0.0,
			"-0.015": 0.218981117403,
			"-0.014": 1.40364210031,
			"-0.013": 1.17894390942,
			"-0.012": 1.4025437702,
			"-0.011": 2.37594304318,
			"-0.01": 2.33911396637,
			"-0.009": 2.08352076186,
			"-0.008": 4.8579421022,
			"-0.007": 11.3709862078,
			"-0.006": 16.6753799688,
			"-0.005": 13.7538733122,
			"-0.004": 16.206542743,
			"-0.003": 15.8852399657,
			"-0.002": 14.1622303319,
			"-0.001": 11.3143505034,
			"0.0": 9.30529206389,
			"0.001": 7.84547696632,
			"0.002": 5.86888071016,
			"0.003": 5.1884183235,
			"0.004": 3.71519753787,
			"0.005": 5.01036549752,
			"0.006": 4.35357291213,
			"0.007": 3.91750955668,
			"0.008": 4.38364355392,
			"0.009": 5.07463547944,
			"0.01": 6.63052712052,
			"0.011": 8.37697441736,
			"0.012": 8.11287212478,
			"0.013": 5.14067152715,
			"0.014": 1.66204626536,
			"0.015": 0.0823262455486,
			"0.016": 0.0,
			"0.017": 0.0,
			"0.018": 0.0,
			"0.019": 0.0,
			"0.02": 0.0,
			"0.021": 0.0,
			"0.022": 0.0,
			"0.023": 0.0,
			"0.024": 0.0,
			"0.025": 0.0
		}
	}
}
