{
	 "smiles": "ClC1=NC=CC(C=O)=C1", 
	 "Tm": 320.65, 
	 "num_atms": 13, 
	 "gaussian": { 
		 "optdone": 1, 
		 "sigma_profile": "yes", 
		 "theory": "DFT", 
		 "functional": "B3LYP", 
		 "basiset": "6-31G**", 
		 "properties": { 
			 "R2extent": 2364.0857, 
			 "electric_dipole_moment_norm": 0.799236147831, 
			 "electric_quadrupole_moment_norm": 13.2092984674, 
			 "total_energy": -821.19772565, 
			 "HOMO_LUMO_gap": 0.18001, 
			 "cosmo_polarized_energy": -9.07, 
			 "cosmo_cavitation_energy": 20.05, 
			 "cosmo_dispersion_energy": -14.89, 
			 "cosmo_repulsion_energy": 1.22, 
			 "cosmo_total_nonelectrostatic_energy": 6.38, 
			 "SMD_solvation_energy": 3.01 
		},
		"coords": [
			{
				"x": -0.4437158653,
				"y": -2.0459230906,
				"z": 0.9653838001,
				"element": "Cl" 
			},
			{
				"x": 0.575853889,
				"y": -0.9803746971,
				"z": 0.0050439492,
				"element": "C" 
			},
			{
				"x": 0.5051936642,
				"y": 0.310797671,
				"z": 0.2677450073,
				"element": "N" 
			},
			{
				"x": 1.278650501,
				"y": 1.1363617792,
				"z": -0.458282094,
				"element": "C" 
			},
			{
				"x": 2.1370173729,
				"y": 0.6966033482,
				"z": -1.4588688046,
				"element": "C" 
			},
			{
				"x": 2.1951725722,
				"y": -0.6789569851,
				"z": -1.7200192655,
				"element": "C" 
			},
			{
				"x": 3.094653671,
				"y": -1.2170580346,
				"z": -2.7795542898,
				"element": "C" 
			},
			{
				"x": 3.8151206861,
				"y": -0.524860555,
				"z": -3.4671008961,
				"element": "O" 
			},
			{
				"x": 1.3979305573,
				"y": -1.5471019565,
				"z": -0.9741153099,
				"element": "C" 
			},
			{
				"x": 1.1971823486,
				"y": 2.1934533395,
				"z": -0.2174102982,
				"element": "H" 
			},
			{
				"x": 2.7515127155,
				"y": 1.3821937315,
				"z": -2.0314342989,
				"element": "H" 
			},
			{
				"x": 3.0619543693,
				"y": -2.3210396018,
				"z": -2.9029519281,
				"element": "H" 
			},
			{
				"x": 1.4110735184,
				"y": -2.6187949487,
				"z": -1.1424355715,
				"element": "H" 
			}
		],
		 "valence_orbital": [ 
			{
				"type": "occ",
				"energy": -0.32631,
				"method": "rhf"
			},
			{
				"type": "occ",
				"energy": -0.31373,
				"method": "rhf"
			},
			{
				"type": "occ",
				"energy": -0.29181,
				"method": "rhf"
			},
			{
				"type": "occ",
				"energy": -0.28005,
				"method": "rhf"
			},
			{
				"type": "occ",
				"energy": -0.2755,
				"method": "rhf"
			},
			{
				"type": "unocc",
				"energy": -0.09549,
				"method": "rhf"
			},
			{
				"type": "unocc",
				"energy": -0.04084,
				"method": "rhf"
			},
			{
				"type": "unocc",
				"energy": 0.00924,
				"method": "rhf"
			},
			{
				"type": "unocc",
				"energy": 0.02348,
				"method": "rhf"
			},
			{
				"type": "unocc",
				"energy": 0.09948,
				"method": "rhf"
			}
		],
		"cosmo_sigma_profile": { 
			"-0.025": 0.0,
			"-0.024": 0.0,
			"-0.023": 0.0,
			"-0.022": 0.0,
			"-0.021": 0.0,
			"-0.02": 0.0,
			"-0.019": 0.0,
			"-0.018": 0.0,
			"-0.017": 0.0,
			"-0.016": 0.0,
			"-0.015": 0.0,
			"-0.014": 0.0,
			"-0.013": 0.0,
			"-0.012": 0.0,
			"-0.011": 0.121296170286,
			"-0.01": 2.03519375175,
			"-0.009": 3.40149141304,
			"-0.008": 6.72962890633,
			"-0.007": 8.40234983807,
			"-0.006": 8.19971456195,
			"-0.005": 7.51558238991,
			"-0.004": 6.9252356486,
			"-0.003": 7.55309649263,
			"-0.002": 14.8993526479,
			"-0.001": 19.1690001203,
			"0.0": 12.371917292,
			"0.001": 8.28779269502,
			"0.002": 8.21006947938,
			"0.003": 8.47237686591,
			"0.004": 11.3917621313,
			"0.005": 5.44479534745,
			"0.006": 3.66210755166,
			"0.007": 3.34880832266,
			"0.008": 3.41541145032,
			"0.009": 4.09413783938,
			"0.01": 5.01646718561,
			"0.011": 2.99455189257,
			"0.012": 1.34506626391,
			"0.013": 1.04413963675,
			"0.014": 0.314676493384,
			"0.015": 0.0,
			"0.016": 0.0,
			"0.017": 0.0,
			"0.018": 0.0,
			"0.019": 0.0,
			"0.02": 0.0,
			"0.021": 0.0,
			"0.022": 0.0,
			"0.023": 0.0,
			"0.024": 0.0,
			"0.025": 0.0
		}
	}
}
