{
	 "smiles": "CC1=CC2=C(C=CC=C2)C=C1COC(=O)C(F)(F)F", 
	 "Tm": 365.15, 
	 "num_atms": 30, 
	 "gaussian": { 
		 "optdone": 1, 
		 "sigma_profile": "yes", 
		 "theory": "DFT", 
		 "functional": "B3LYP", 
		 "basiset": "6-31G**", 
		 "properties": { 
			 "R2extent": 6795.611, 
			 "electric_dipole_moment_norm": 3.00958176829, 
			 "electric_quadrupole_moment_norm": 12.5647941511, 
			 "total_energy": -990.106325097, 
			 "HOMO_LUMO_gap": 0.17496, 
			 "cosmo_polarized_energy": -8.09, 
			 "cosmo_cavitation_energy": 36.14, 
			 "cosmo_dispersion_energy": -24.71, 
			 "cosmo_repulsion_energy": 1.83, 
			 "cosmo_total_nonelectrostatic_energy": 13.26, 
			 "SMD_solvation_energy": 8.1 
		},
		"coords": [
			{
				"x": -1.0841747096,
				"y": -2.5479528653,
				"z": -0.9337798115,
				"element": "C" 
			},
			{
				"x": -0.2198804957,
				"y": -1.3660156909,
				"z": -0.5625541426,
				"element": "C" 
			},
			{
				"x": 0.4797518647,
				"y": -0.6761070629,
				"z": -1.5299519841,
				"element": "C" 
			},
			{
				"x": 1.3013342093,
				"y": 0.4420785305,
				"z": -1.2240311132,
				"element": "C" 
			},
			{
				"x": 1.400135907,
				"y": 0.8706843534,
				"z": 0.1369371267,
				"element": "C" 
			},
			{
				"x": 2.2140006019,
				"y": 1.990852868,
				"z": 0.4532081185,
				"element": "C" 
			},
			{
				"x": 2.9037093064,
				"y": 2.6579818276,
				"z": -0.534568435,
				"element": "C" 
			},
			{
				"x": 2.8081892332,
				"y": 2.2330056883,
				"z": -1.8826613468,
				"element": "C" 
			},
			{
				"x": 2.025098701,
				"y": 1.150980935,
				"z": -2.219545447,
				"element": "C" 
			},
			{
				"x": 0.672151407,
				"y": 0.155730036,
				"z": 1.1228736514,
				"element": "C" 
			},
			{
				"x": -0.1109119006,
				"y": -0.9334558927,
				"z": 0.8007495912,
				"element": "C" 
			},
			{
				"x": -0.845621621,
				"y": -1.6576689229,
				"z": 1.8971743609,
				"element": "C" 
			},
			{
				"x": -2.2927228752,
				"y": -1.4265868612,
				"z": 1.8240109131,
				"element": "O" 
			},
			{
				"x": -2.7512357526,
				"y": -0.3387712625,
				"z": 2.4435627268,
				"element": "C" 
			},
			{
				"x": -2.1231556504,
				"y": 0.4543591321,
				"z": 3.0988664823,
				"element": "O" 
			},
			{
				"x": -4.2765661952,
				"y": -0.2320430559,
				"z": 2.2204576592,
				"element": "C" 
			},
			{
				"x": -4.5629260188,
				"y": -0.2326160815,
				"z": 0.9063314771,
				"element": "F" 
			},
			{
				"x": -4.9037698506,
				"y": -1.2789153928,
				"z": 2.7882722738,
				"element": "F" 
			},
			{
				"x": -4.7478011692,
				"y": 0.8929725041,
				"z": 2.7615791109,
				"element": "F" 
			},
			{
				"x": -2.118737929,
				"y": -2.4068653872,
				"z": -0.6047958678,
				"element": "H" 
			},
			{
				"x": -0.7240526619,
				"y": -3.4755844823,
				"z": -0.4707589149,
				"element": "H" 
			},
			{
				"x": -1.0877012983,
				"y": -2.7020529077,
				"z": -2.0155905051,
				"element": "H" 
			},
			{
				"x": 0.4063403916,
				"y": -0.9923823778,
				"z": -2.5681271945,
				"element": "H" 
			},
			{
				"x": 2.2819517503,
				"y": 2.3137275674,
				"z": 1.4888533483,
				"element": "H" 
			},
			{
				"x": 3.5235930481,
				"y": 3.5137776442,
				"z": -0.283938519,
				"element": "H" 
			},
			{
				"x": 3.356887731,
				"y": 2.7673222506,
				"z": -2.6529297429,
				"element": "H" 
			},
			{
				"x": 1.9504246092,
				"y": 0.8256756411,
				"z": -3.2540279399,
				"element": "H" 
			},
			{
				"x": 0.72765578,
				"y": 0.4870723606,
				"z": 2.1566409332,
				"element": "H" 
			},
			{
				"x": -0.4984635794,
				"y": -1.3400640583,
				"z": 2.8810776247,
				"element": "H" 
			},
			{
				"x": -0.7612028333,
				"y": -2.7421390372,
				"z": 1.8106655662,
				"element": "H" 
			}
		],
		 "valence_orbital": [ 
			{
				"type": "occ",
				"energy": -0.31949,
				"method": "rhf"
			},
			{
				"type": "occ",
				"energy": -0.30081,
				"method": "rhf"
			},
			{
				"type": "occ",
				"energy": -0.28733,
				"method": "rhf"
			},
			{
				"type": "occ",
				"energy": -0.24453,
				"method": "rhf"
			},
			{
				"type": "occ",
				"energy": -0.2198,
				"method": "rhf"
			},
			{
				"type": "unocc",
				"energy": -0.04484,
				"method": "rhf"
			},
			{
				"type": "unocc",
				"energy": -0.02668,
				"method": "rhf"
			},
			{
				"type": "unocc",
				"energy": -0.0197,
				"method": "rhf"
			},
			{
				"type": "unocc",
				"energy": 0.02737,
				"method": "rhf"
			},
			{
				"type": "unocc",
				"energy": 0.07185,
				"method": "rhf"
			}
		],
		"cosmo_sigma_profile": { 
			"-0.025": 0.0,
			"-0.024": 0.0,
			"-0.023": 0.0,
			"-0.022": 0.0,
			"-0.021": 0.0,
			"-0.02": 0.0,
			"-0.019": 0.0,
			"-0.018": 0.0,
			"-0.017": 0.0,
			"-0.016": 0.0,
			"-0.015": 0.0,
			"-0.014": 0.0,
			"-0.013": 0.0,
			"-0.012": 0.0,
			"-0.011": 0.0,
			"-0.01": 0.0,
			"-0.009": 0.0,
			"-0.008": 0.604968197156,
			"-0.007": 5.13499428276,
			"-0.006": 17.4868494737,
			"-0.005": 22.1715338115,
			"-0.004": 20.9567173902,
			"-0.003": 18.8681220953,
			"-0.002": 17.8402142562,
			"-0.001": 20.2789315177,
			"0.0": 21.7194103781,
			"0.001": 28.07172162,
			"0.002": 42.7234633918,
			"0.003": 21.0614977408,
			"0.004": 25.6057283688,
			"0.005": 13.6587756159,
			"0.006": 2.93839822941,
			"0.007": 1.64992107635,
			"0.008": 2.21669776159,
			"0.009": 3.10421376583,
			"0.01": 2.69924438392,
			"0.011": 0.227593257012,
			"0.012": 0.0,
			"0.013": 0.0,
			"0.014": 0.0,
			"0.015": 0.0,
			"0.016": 0.0,
			"0.017": 0.0,
			"0.018": 0.0,
			"0.019": 0.0,
			"0.02": 0.0,
			"0.021": 0.0,
			"0.022": 0.0,
			"0.023": 0.0,
			"0.024": 0.0,
			"0.025": 0.0
		}
	}
}
