{
	 "smiles": "COC(=O)[C@@H]1COS(=O)(=O)N1CC1=CC=CC=C1", 
	 "Tm": 228.0, 
	 "num_atms": 31, 
	 "gaussian": { 
		 "optdone": 1, 
		 "sigma_profile": "yes", 
		 "theory": "DFT", 
		 "functional": "B3LYP", 
		 "basiset": "6-31G**", 
		 "properties": { 
			 "R2extent": 4862.5836, 
			 "electric_dipole_moment_norm": 6.30934119223, 
			 "electric_quadrupole_moment_norm": 14.3341242003, 
			 "total_energy": -1255.96746494, 
			 "HOMO_LUMO_gap": 0.21721, 
			 "cosmo_polarized_energy": -16.93, 
			 "cosmo_cavitation_energy": 35.18, 
			 "cosmo_dispersion_energy": -24.89, 
			 "cosmo_repulsion_energy": 1.88, 
			 "cosmo_total_nonelectrostatic_energy": 12.16, 
			 "SMD_solvation_energy": 5.24 
		},
		"coords": [
			{
				"x": 0.5151181302,
				"y": -2.8751126529,
				"z": -0.2265571356,
				"element": "C" 
			},
			{
				"x": 0.5031965237,
				"y": -1.6450875655,
				"z": 0.5288303408,
				"element": "O" 
			},
			{
				"x": 1.3178837249,
				"y": -0.6783943882,
				"z": 0.0635281414,
				"element": "C" 
			},
			{
				"x": 2.0627930771,
				"y": -0.8050451967,
				"z": -0.8782791314,
				"element": "O" 
			},
			{
				"x": 1.2343504659,
				"y": 0.5974817675,
				"z": 0.901816333,
				"element": "C" 
			},
			{
				"x": 1.0985045971,
				"y": 0.3667467058,
				"z": 2.4302756159,
				"element": "C" 
			},
			{
				"x": 0.5651201236,
				"y": 1.5850573454,
				"z": 2.9924104665,
				"element": "O" 
			},
			{
				"x": 0.1393200192,
				"y": 2.6536466598,
				"z": 1.7907299888,
				"element": "S" 
			},
			{
				"x": 1.2544633976,
				"y": 3.5605247732,
				"z": 1.5784114658,
				"element": "O" 
			},
			{
				"x": -1.1974652299,
				"y": 3.1517018974,
				"z": 2.0663223876,
				"element": "O" 
			},
			{
				"x": 0.1195872962,
				"y": 1.5024380288,
				"z": 0.5263313114,
				"element": "N" 
			},
			{
				"x": -1.2103918721,
				"y": 0.9229762875,
				"z": 0.2165107482,
				"element": "C" 
			},
			{
				"x": -1.308864292,
				"y": 0.47641789,
				"z": -1.2306194521,
				"element": "C" 
			},
			{
				"x": -0.6847356694,
				"y": 1.189972115,
				"z": -2.2608648499,
				"element": "C" 
			},
			{
				"x": -0.8466721366,
				"y": 0.7965365414,
				"z": -3.5893687855,
				"element": "C" 
			},
			{
				"x": -1.6374796902,
				"y": -0.3098806433,
				"z": -3.9062703815,
				"element": "C" 
			},
			{
				"x": -2.2642792805,
				"y": -1.0254585579,
				"z": -2.8847177416,
				"element": "C" 
			},
			{
				"x": -2.0954902769,
				"y": -0.6362116968,
				"z": -1.5543937055,
				"element": "C" 
			},
			{
				"x": 0.1072743586,
				"y": -2.6998744939,
				"z": -1.2242137247,
				"element": "H" 
			},
			{
				"x": 1.5341252811,
				"y": -3.2575578401,
				"z": -0.3105123883,
				"element": "H" 
			},
			{
				"x": -0.115039593,
				"y": -3.5660060687,
				"z": 0.3322927373,
				"element": "H" 
			},
			{
				"x": 2.1582265472,
				"y": 1.1410543273,
				"z": 0.6923798963,
				"element": "H" 
			},
			{
				"x": 0.4025383803,
				"y": -0.4438240821,
				"z": 2.6559861422,
				"element": "H" 
			},
			{
				"x": 2.0678567182,
				"y": 0.1677138832,
				"z": 2.8931422551,
				"element": "H" 
			},
			{
				"x": -1.4621451614,
				"y": 0.0908034909,
				"z": 0.8852685183,
				"element": "H" 
			},
			{
				"x": -1.9357070214,
				"y": 1.718029561,
				"z": 0.4077187343,
				"element": "H" 
			},
			{
				"x": -0.0644908993,
				"y": 2.0455028895,
				"z": -2.013985615,
				"element": "H" 
			},
			{
				"x": -0.3527510179,
				"y": 1.3557771073,
				"z": -4.3786455003,
				"element": "H" 
			},
			{
				"x": -1.7619938693,
				"y": -0.6138440942,
				"z": -4.9414958164,
				"element": "H" 
			},
			{
				"x": -2.8815038633,
				"y": -1.8877383202,
				"z": -3.1209211166,
				"element": "H" 
			},
			{
				"x": -2.5845487677,
				"y": -1.1969456703,
				"z": -0.7611097387,
				"element": "H" 
			}
		],
		 "valence_orbital": [ 
			{
				"type": "occ",
				"energy": -0.30168,
				"method": "rhf"
			},
			{
				"type": "occ",
				"energy": -0.29785,
				"method": "rhf"
			},
			{
				"type": "occ",
				"energy": -0.28073,
				"method": "rhf"
			},
			{
				"type": "occ",
				"energy": -0.25912,
				"method": "rhf"
			},
			{
				"type": "occ",
				"energy": -0.25304,
				"method": "rhf"
			},
			{
				"type": "unocc",
				"energy": -0.03583,
				"method": "rhf"
			},
			{
				"type": "unocc",
				"energy": -0.01173,
				"method": "rhf"
			},
			{
				"type": "unocc",
				"energy": -0.00937,
				"method": "rhf"
			},
			{
				"type": "unocc",
				"energy": 0.02813,
				"method": "rhf"
			},
			{
				"type": "unocc",
				"energy": 0.05849,
				"method": "rhf"
			}
		],
		"cosmo_sigma_profile": { 
			"-0.025": 0.0,
			"-0.024": 0.0,
			"-0.023": 0.0,
			"-0.022": 0.0,
			"-0.021": 0.0,
			"-0.02": 0.0,
			"-0.019": 0.0,
			"-0.018": 0.0,
			"-0.017": 0.0,
			"-0.016": 0.0,
			"-0.015": 0.0,
			"-0.014": 0.0,
			"-0.013": 0.0,
			"-0.012": 0.0,
			"-0.011": 0.205395587319,
			"-0.01": 2.37645270705,
			"-0.009": 4.23345799498,
			"-0.008": 4.75093230345,
			"-0.007": 8.89571865812,
			"-0.006": 19.9688473474,
			"-0.005": 24.9212939127,
			"-0.004": 25.0767406971,
			"-0.003": 21.8854890718,
			"-0.002": 17.076303416,
			"-0.001": 15.8582643998,
			"0.0": 15.3705615132,
			"0.001": 13.481507051,
			"0.002": 13.5992051384,
			"0.003": 12.7184840803,
			"0.004": 12.5506954397,
			"0.005": 14.9137554825,
			"0.006": 10.0602981889,
			"0.007": 7.30090018478,
			"0.008": 9.9939417255,
			"0.009": 13.5872392674,
			"0.01": 7.04713396667,
			"0.011": 3.33642585516,
			"0.012": 0.282468005607,
			"0.013": 0.0,
			"0.014": 0.0,
			"0.015": 0.0,
			"0.016": 0.0,
			"0.017": 0.0,
			"0.018": 0.0,
			"0.019": 0.0,
			"0.02": 0.0,
			"0.021": 0.0,
			"0.022": 0.0,
			"0.023": 0.0,
			"0.024": 0.0,
			"0.025": 0.0
		}
	}
}
