{
	 "smiles": "CC1(C)CC2=C(C=C(N2C2=CC(=CC=C2)C(F)(F)F)C2=CC=CC=C2)C(=O)C1", 
	 "Tm": 419.15, 
	 "num_atms": 48, 
	 "gaussian": { 
		 "optdone": 1, 
		 "sigma_profile": "yes", 
		 "theory": "DFT", 
		 "functional": "B3LYP", 
		 "basiset": "6-31G**", 
		 "properties": { 
			 "R2extent": 11796.2157, 
			 "electric_dipole_moment_norm": 4.83984743045, 
			 "electric_quadrupole_moment_norm": 25.0989870887, 
			 "total_energy": -1318.02547464, 
			 "HOMO_LUMO_gap": 0.15943, 
			 "cosmo_polarized_energy": -15.25, 
			 "cosmo_cavitation_energy": 51.58, 
			 "cosmo_dispersion_energy": -33.22, 
			 "cosmo_repulsion_energy": 2.46, 
			 "cosmo_total_nonelectrostatic_energy": 20.82, 
			 "SMD_solvation_energy": 9.79 
		},
		"coords": [
			{
				"x": 2.1208178783,
				"y": 1.3730323166,
				"z": -3.9949158777,
				"element": "C" 
			},
			{
				"x": 2.2194306908,
				"y": 1.4482863859,
				"z": -2.4615695545,
				"element": "C" 
			},
			{
				"x": 3.5132610916,
				"y": 0.7421586003,
				"z": -2.0072372524,
				"element": "C" 
			},
			{
				"x": 0.978362617,
				"y": 0.7421673626,
				"z": -1.8426729971,
				"element": "C" 
			},
			{
				"x": 0.8652647961,
				"y": 1.0541803643,
				"z": -0.3829491345,
				"element": "C" 
			},
			{
				"x": 1.374352038,
				"y": 2.1897596527,
				"z": 0.2279568733,
				"element": "C" 
			},
			{
				"x": 0.9863962157,
				"y": 2.1603520736,
				"z": 1.5983322611,
				"element": "C" 
			},
			{
				"x": 0.2452796316,
				"y": 1.0189673607,
				"z": 1.8045086832,
				"element": "C" 
			},
			{
				"x": 0.1821394052,
				"y": 0.3298424792,
				"z": 0.571366258,
				"element": "N" 
			},
			{
				"x": -0.6018823502,
				"y": -0.8322425646,
				"z": 0.2940153351,
				"element": "C" 
			},
			{
				"x": -1.9920710302,
				"y": -0.7806386969,
				"z": 0.4249014425,
				"element": "C" 
			},
			{
				"x": -2.7525998003,
				"y": -1.9144110724,
				"z": 0.1384177652,
				"element": "C" 
			},
			{
				"x": -2.1372995935,
				"y": -3.0942384556,
				"z": -0.2898699654,
				"element": "C" 
			},
			{
				"x": -0.7504780883,
				"y": -3.1383468747,
				"z": -0.4204466317,
				"element": "C" 
			},
			{
				"x": 0.0201970692,
				"y": -2.0139999429,
				"z": -0.1220115173,
				"element": "C" 
			},
			{
				"x": -4.246803742,
				"y": -1.8827052103,
				"z": 0.3326351099,
				"element": "C" 
			},
			{
				"x": -4.7430043484,
				"y": -0.6323630001,
				"z": 0.2203323944,
				"element": "F" 
			},
			{
				"x": -4.5962672678,
				"y": -2.3414386696,
				"z": 1.5550262272,
				"element": "F" 
			},
			{
				"x": -4.8816687926,
				"y": -2.6580011364,
				"z": -0.5742895355,
				"element": "F" 
			},
			{
				"x": -0.3479056074,
				"y": 0.5307156758,
				"z": 3.0589816709,
				"element": "C" 
			},
			{
				"x": -0.9485597519,
				"y": 1.4569782438,
				"z": 3.9314984294,
				"element": "C" 
			},
			{
				"x": -1.4733056186,
				"y": 1.0495862368,
				"z": 5.1562908158,
				"element": "C" 
			},
			{
				"x": -1.4220252213,
				"y": -0.2944185089,
				"z": 5.5315017694,
				"element": "C" 
			},
			{
				"x": -0.8311353074,
				"y": -1.224618532,
				"z": 4.6743661992,
				"element": "C" 
			},
			{
				"x": -0.2941612954,
				"y": -0.8183728218,
				"z": 3.4537945463,
				"element": "C" 
			},
			{
				"x": 2.1569282031,
				"y": 3.1801067209,
				"z": -0.5100047836,
				"element": "C" 
			},
			{
				"x": 2.6705209051,
				"y": 4.1617518984,
				"z": 0.0108429364,
				"element": "O" 
			},
			{
				"x": 2.2428191537,
				"y": 2.9342966308,
				"z": -2.0203513262,
				"element": "C" 
			},
			{
				"x": 1.2179444568,
				"y": 1.8731438701,
				"z": -4.3628217006,
				"element": "H" 
			},
			{
				"x": 2.9851952476,
				"y": 1.8538910384,
				"z": -4.4651894809,
				"element": "H" 
			},
			{
				"x": 2.092047345,
				"y": 0.3319130637,
				"z": -4.3369977216,
				"element": "H" 
			},
			{
				"x": 4.3916849098,
				"y": 1.2390180536,
				"z": -2.4324059869,
				"element": "H" 
			},
			{
				"x": 3.5259766508,
				"y": -0.3009628292,
				"z": -2.3439031017,
				"element": "H" 
			},
			{
				"x": 3.621425989,
				"y": 0.7477842672,
				"z": -0.918802828,
				"element": "H" 
			},
			{
				"x": 0.0720994544,
				"y": 1.0880261555,
				"z": -2.3634962791,
				"element": "H" 
			},
			{
				"x": 1.0374019931,
				"y": -0.3358765318,
				"z": -2.0266989421,
				"element": "H" 
			},
			{
				"x": 1.2639420127,
				"y": 2.8814824735,
				"z": 2.3529404017,
				"element": "H" 
			},
			{
				"x": -2.4707843105,
				"y": 0.1378631696,
				"z": 0.7428306402,
				"element": "H" 
			},
			{
				"x": -2.7412710544,
				"y": -3.9642903933,
				"z": -0.522702552,
				"element": "H" 
			},
			{
				"x": -0.2658341917,
				"y": -4.0523709405,
				"z": -0.7487940552,
				"element": "H" 
			},
			{
				"x": 1.102211342,
				"y": -2.0473164651,
				"z": -0.1984456972,
				"element": "H" 
			},
			{
				"x": -1.0102270849,
				"y": 2.4989830807,
				"z": 3.6327607227,
				"element": "H" 
			},
			{
				"x": -1.9334068244,
				"y": 1.7820848221,
				"z": 5.8133780143,
				"element": "H" 
			},
			{
				"x": -1.8381968954,
				"y": -0.6139112891,
				"z": 6.4823606477,
				"element": "H" 
			},
			{
				"x": -0.777496205,
				"y": -2.2711460981,
				"z": 4.960771846,
				"element": "H" 
			},
			{
				"x": 0.1858112624,
				"y": -1.5497872014,
				"z": 2.8125038362,
				"element": "H" 
			},
			{
				"x": 3.1394901926,
				"y": 3.4402525924,
				"z": -2.3921897444,
				"element": "H" 
			},
			{
				"x": 1.3817838298,
				"y": 3.454032646,
				"z": -2.4676481601,
				"element": "H" 
			}
		],
		 "valence_orbital": [ 
			{
				"type": "occ",
				"energy": -0.26549,
				"method": "rhf"
			},
			{
				"type": "occ",
				"energy": -0.25363,
				"method": "rhf"
			},
			{
				"type": "occ",
				"energy": -0.24718,
				"method": "rhf"
			},
			{
				"type": "occ",
				"energy": -0.22837,
				"method": "rhf"
			},
			{
				"type": "occ",
				"energy": -0.20682,
				"method": "rhf"
			},
			{
				"type": "unocc",
				"energy": -0.04739,
				"method": "rhf"
			},
			{
				"type": "unocc",
				"energy": -0.03835,
				"method": "rhf"
			},
			{
				"type": "unocc",
				"energy": -0.02271,
				"method": "rhf"
			},
			{
				"type": "unocc",
				"energy": -0.01964,
				"method": "rhf"
			},
			{
				"type": "unocc",
				"energy": -0.00366,
				"method": "rhf"
			}
		],
		"cosmo_sigma_profile": { 
			"-0.025": 0.0,
			"-0.024": 0.0,
			"-0.023": 0.0,
			"-0.022": 0.0,
			"-0.021": 0.0,
			"-0.02": 0.0,
			"-0.019": 0.0,
			"-0.018": 0.0,
			"-0.017": 0.0,
			"-0.016": 0.0,
			"-0.015": 0.0,
			"-0.014": 0.0,
			"-0.013": 0.0,
			"-0.012": 0.0,
			"-0.011": 0.0,
			"-0.01": 0.0,
			"-0.009": 0.0,
			"-0.008": 1.52818407685,
			"-0.007": 6.48773591054,
			"-0.006": 14.5083747878,
			"-0.005": 25.4620986361,
			"-0.004": 33.8464438436,
			"-0.003": 43.4216027939,
			"-0.002": 36.7317544462,
			"-0.001": 35.1236986654,
			"0.0": 36.293166682,
			"0.001": 38.3709729806,
			"0.002": 40.0888826543,
			"0.003": 40.2385741035,
			"0.004": 16.4655780685,
			"0.005": 14.7783822727,
			"0.006": 5.85603065821,
			"0.007": 2.0378276693,
			"0.008": 2.54251755883,
			"0.009": 0.682189983717,
			"0.01": 1.63587694047,
			"0.011": 2.03649970158,
			"0.012": 2.72959840533,
			"0.013": 4.91942796646,
			"0.014": 3.26578283514,
			"0.015": 0.634130744927,
			"0.016": 0.0,
			"0.017": 0.0,
			"0.018": 0.0,
			"0.019": 0.0,
			"0.02": 0.0,
			"0.021": 0.0,
			"0.022": 0.0,
			"0.023": 0.0,
			"0.024": 0.0,
			"0.025": 0.0
		}
	}
}
