{
	 "smiles": "COC1=C(F)C(=CC(F)=C1F)C(O)=O", 
	 "Tm": 388.15, 
	 "num_atms": 19, 
	 "gaussian": { 
		 "optdone": 1, 
		 "sigma_profile": "yes", 
		 "theory": "DFT", 
		 "functional": "B3LYP", 
		 "basiset": "6-31G**", 
		 "properties": { 
			 "R2extent": 2934.1852, 
			 "electric_dipole_moment_norm": 2.29804873969, 
			 "electric_quadrupole_moment_norm": 8.42127499373, 
			 "total_energy": -833.016869505, 
			 "HOMO_LUMO_gap": 0.18328, 
			 "cosmo_polarized_energy": -9.99, 
			 "cosmo_cavitation_energy": 25.61, 
			 "cosmo_dispersion_energy": -18.65, 
			 "cosmo_repulsion_energy": 1.41, 
			 "cosmo_total_nonelectrostatic_energy": 8.36, 
			 "SMD_solvation_energy": 7.91 
		},
		"coords": [
			{
				"x": -2.1501833962,
				"y": -0.1367697638,
				"z": 2.4388072093,
				"element": "C" 
			},
			{
				"x": -1.3280967006,
				"y": -0.7199128738,
				"z": 1.4221678667,
				"element": "O" 
			},
			{
				"x": -0.6671220192,
				"y": 0.0494241163,
				"z": 0.528897594,
				"element": "C" 
			},
			{
				"x": 0.1146835361,
				"y": -0.6595559633,
				"z": -0.4116551066,
				"element": "C" 
			},
			{
				"x": 0.0992903025,
				"y": -1.9914214098,
				"z": -0.2955477853,
				"element": "F" 
			},
			{
				"x": 0.858652874,
				"y": -0.0168082992,
				"z": -1.401349068,
				"element": "C" 
			},
			{
				"x": 0.8305847048,
				"y": 1.389087904,
				"z": -1.4668038402,
				"element": "C" 
			},
			{
				"x": 0.0747276844,
				"y": 2.0949595225,
				"z": -0.559442799,
				"element": "C" 
			},
			{
				"x": 0.0253153361,
				"y": 3.4368127721,
				"z": -0.5934291016,
				"element": "F" 
			},
			{
				"x": -0.6700776925,
				"y": 1.4443067776,
				"z": 0.4313895093,
				"element": "C" 
			},
			{
				"x": -1.3844322152,
				"y": 2.2082433015,
				"z": 1.2805232373,
				"element": "F" 
			},
			{
				"x": 1.7022920859,
				"y": -0.7033600912,
				"z": -2.4207114795,
				"element": "C" 
			},
			{
				"x": 1.7073593614,
				"y": -2.0489539534,
				"z": -2.3295447147,
				"element": "O" 
			},
			{
				"x": 2.3371896123,
				"y": -0.1076468424,
				"z": -3.2695064225,
				"element": "O" 
			},
			{
				"x": -2.541825871,
				"y": -0.9851211426,
				"z": 3.0010836153,
				"element": "H" 
			},
			{
				"x": -1.5690367221,
				"y": 0.5083828954,
				"z": 3.1031945299,
				"element": "H" 
			},
			{
				"x": -2.9778043522,
				"y": 0.4327422824,
				"z": 2.0076118096,
				"element": "H" 
			},
			{
				"x": 1.4053415552,
				"y": 1.8960729812,
				"z": -2.2314753746,
				"element": "H" 
			},
			{
				"x": 2.2895419162,
				"y": -2.3540822136,
				"z": -3.0459096795,
				"element": "H" 
			}
		],
		 "valence_orbital": [ 
			{
				"type": "occ",
				"energy": -0.34097,
				"method": "rhf"
			},
			{
				"type": "occ",
				"energy": -0.32072,
				"method": "rhf"
			},
			{
				"type": "occ",
				"energy": -0.28727,
				"method": "rhf"
			},
			{
				"type": "occ",
				"energy": -0.26003,
				"method": "rhf"
			},
			{
				"type": "occ",
				"energy": -0.23938,
				"method": "rhf"
			},
			{
				"type": "unocc",
				"energy": -0.0561,
				"method": "rhf"
			},
			{
				"type": "unocc",
				"energy": -0.01134,
				"method": "rhf"
			},
			{
				"type": "unocc",
				"energy": 0.03686,
				"method": "rhf"
			},
			{
				"type": "unocc",
				"energy": 0.05198,
				"method": "rhf"
			},
			{
				"type": "unocc",
				"energy": 0.07689,
				"method": "rhf"
			}
		],
		"cosmo_sigma_profile": { 
			"-0.025": 0.0,
			"-0.024": 0.0,
			"-0.023": 0.0,
			"-0.022": 0.0,
			"-0.021": 0.0,
			"-0.02": 0.0,
			"-0.019": 0.244268932129,
			"-0.018": 0.979508259396,
			"-0.017": 0.798960129555,
			"-0.016": 1.26545658422,
			"-0.015": 0.581331087716,
			"-0.014": 0.33783028762,
			"-0.013": 0.660749579999,
			"-0.012": 0.627143614181,
			"-0.011": 1.23909216941,
			"-0.01": 0.351183233006,
			"-0.009": 0.401941803703,
			"-0.008": 1.50087142738,
			"-0.007": 3.39175604652,
			"-0.006": 9.50251770317,
			"-0.005": 9.11807198616,
			"-0.004": 12.9071694711,
			"-0.003": 17.1953804373,
			"-0.002": 22.9544843839,
			"-0.001": 16.0353862338,
			"0.0": 14.7597420981,
			"0.001": 12.1645690771,
			"0.002": 11.678813523,
			"0.003": 21.3752087446,
			"0.004": 13.1147919742,
			"0.005": 4.76822542733,
			"0.006": 5.67867827742,
			"0.007": 4.24589054077,
			"0.008": 5.46569263434,
			"0.009": 4.19909022091,
			"0.01": 2.25030082219,
			"0.011": 4.85721173837,
			"0.012": 1.25538775439,
			"0.013": 0.0,
			"0.014": 0.0,
			"0.015": 0.0,
			"0.016": 0.0,
			"0.017": 0.0,
			"0.018": 0.0,
			"0.019": 0.0,
			"0.02": 0.0,
			"0.021": 0.0,
			"0.022": 0.0,
			"0.023": 0.0,
			"0.024": 0.0,
			"0.025": 0.0
		}
	}
}
