{
	 "smiles": "CC1=CC(C)=C(C(C)=C1)C1(C)CC(C1)C(=N/NC(N)=S)C1=CC2=C(O1)C=CC=C2", 
	 "Tm": 531.15, 
	 "num_atms": 56, 
	 "gaussian": { 
		 "optdone": 1, 
		 "sigma_profile": "yes", 
		 "theory": "DFT", 
		 "functional": "B3LYP", 
		 "basiset": "6-31G**", 
		 "properties": { 
			 "R2extent": 15943.2763, 
			 "electric_dipole_moment_norm": 5.84225906735, 
			 "electric_quadrupole_moment_norm": 29.7321840604, 
			 "total_energy": -1568.44631776, 
			 "HOMO_LUMO_gap": 0.13348, 
			 "cosmo_polarized_energy": -20.8, 
			 "cosmo_cavitation_energy": 57.44, 
			 "cosmo_dispersion_energy": -38.71, 
			 "cosmo_repulsion_energy": 2.87, 
			 "cosmo_total_nonelectrostatic_energy": 21.6, 
			 "SMD_solvation_energy": 8.11 
		},
		"coords": [
			{
				"x": 1.217212187,
				"y": 0.2216433842,
				"z": 6.6508634064,
				"element": "C" 
			},
			{
				"x": 0.7588602886,
				"y": 0.1952463625,
				"z": 5.2122602611,
				"element": "C" 
			},
			{
				"x": -0.3920242901,
				"y": 0.8675120455,
				"z": 4.8034025111,
				"element": "C" 
			},
			{
				"x": -0.8165376615,
				"y": 0.8913437851,
				"z": 3.4691035086,
				"element": "C" 
			},
			{
				"x": -2.1253458358,
				"y": 1.6088372877,
				"z": 3.1911906324,
				"element": "C" 
			},
			{
				"x": -0.04925256,
				"y": 0.2347735543,
				"z": 2.4730277068,
				"element": "C" 
			},
			{
				"x": 1.078177184,
				"y": -0.5169524266,
				"z": 2.8906312061,
				"element": "C" 
			},
			{
				"x": 1.9052221491,
				"y": -1.38657845,
				"z": 1.9600325747,
				"element": "C" 
			},
			{
				"x": 1.4617930894,
				"y": -0.510940981,
				"z": 4.2374828269,
				"element": "C" 
			},
			{
				"x": -0.4733128469,
				"y": 0.2694848576,
				"z": 0.998715971,
				"element": "C" 
			},
			{
				"x": -1.4323537759,
				"y": -0.8983421446,
				"z": 0.6895979408,
				"element": "C" 
			},
			{
				"x": 0.6526618564,
				"y": 0.3680442432,
				"z": -0.0845313793,
				"element": "C" 
			},
			{
				"x": -0.1441101375,
				"y": 1.4805046946,
				"z": -0.8414352445,
				"element": "C" 
			},
			{
				"x": -1.0347677316,
				"y": 1.6175025737,
				"z": 0.4278398749,
				"element": "C" 
			},
			{
				"x": -0.7231114871,
				"y": 1.06666368,
				"z": -2.1807751171,
				"element": "C" 
			},
			{
				"x": -1.9159787256,
				"y": 1.2072013933,
				"z": -2.6761305302,
				"element": "N" 
			},
			{
				"x": -2.887911706,
				"y": 1.8788784091,
				"z": -1.9174237322,
				"element": "N" 
			},
			{
				"x": -2.9312932511,
				"y": 3.2394945257,
				"z": -1.7375632207,
				"element": "C" 
			},
			{
				"x": -1.795919832,
				"y": 3.9225475964,
				"z": -2.0522838137,
				"element": "N" 
			},
			{
				"x": -4.3016289516,
				"y": 3.9735697211,
				"z": -1.1024194559,
				"element": "S" 
			},
			{
				"x": 0.2015386308,
				"y": 0.4260581823,
				"z": -3.1296784123,
				"element": "C" 
			},
			{
				"x": -0.0150783438,
				"y": -0.2265612548,
				"z": -4.3110660628,
				"element": "C" 
			},
			{
				"x": 1.2738346878,
				"y": -0.6107183257,
				"z": -4.8108119512,
				"element": "C" 
			},
			{
				"x": 2.2019979099,
				"y": -0.132917878,
				"z": -3.8635388056,
				"element": "C" 
			},
			{
				"x": 1.552124675,
				"y": 0.4973551423,
				"z": -2.8399280817,
				"element": "O" 
			},
			{
				"x": 3.5779147024,
				"y": -0.2944286052,
				"z": -3.9804911508,
				"element": "C" 
			},
			{
				"x": 4.0255685739,
				"y": -0.974278455,
				"z": -5.111545585,
				"element": "C" 
			},
			{
				"x": 3.1246323983,
				"y": -1.4663729009,
				"z": -6.0780968057,
				"element": "C" 
			},
			{
				"x": 1.752067232,
				"y": -1.2936051004,
				"z": -5.9430583444,
				"element": "C" 
			},
			{
				"x": 1.8853666706,
				"y": 1.0715933562,
				"z": 6.8398557647,
				"element": "H" 
			},
			{
				"x": 1.7677424936,
				"y": -0.6871903824,
				"z": 6.9130898908,
				"element": "H" 
			},
			{
				"x": 0.3716661855,
				"y": 0.3164328133,
				"z": 7.339298504,
				"element": "H" 
			},
			{
				"x": -0.9954788741,
				"y": 1.3835852237,
				"z": 5.5475295795,
				"element": "H" 
			},
			{
				"x": -2.7560993174,
				"y": 1.0779983529,
				"z": 2.474794356,
				"element": "H" 
			},
			{
				"x": -1.9795871749,
				"y": 2.621093737,
				"z": 2.7998354356,
				"element": "H" 
			},
			{
				"x": -2.6972685822,
				"y": 1.7052049557,
				"z": 4.1180593773,
				"element": "H" 
			},
			{
				"x": 2.6515858658,
				"y": -0.8141019699,
				"z": 1.3983389762,
				"element": "H" 
			},
			{
				"x": 2.4501088012,
				"y": -2.1350701003,
				"z": 2.5419822956,
				"element": "H" 
			},
			{
				"x": 1.2957312936,
				"y": -1.9240283399,
				"z": 1.2299818058,
				"element": "H" 
			},
			{
				"x": 2.3337335296,
				"y": -1.0924289524,
				"z": 4.5308345824,
				"element": "H" 
			},
			{
				"x": -0.9550463386,
				"y": -1.8636136896,
				"z": 0.8872651604,
				"element": "H" 
			},
			{
				"x": -2.3316934788,
				"y": -0.842350441,
				"z": 1.3108413753,
				"element": "H" 
			},
			{
				"x": -1.7497572224,
				"y": -0.8895161627,
				"z": -0.3594065244,
				"element": "H" 
			},
			{
				"x": 1.5855283336,
				"y": 0.7755221194,
				"z": 0.3072589968,
				"element": "H" 
			},
			{
				"x": 0.8781025641,
				"y": -0.5448117564,
				"z": -0.6377868571,
				"element": "H" 
			},
			{
				"x": 0.4669622167,
				"y": 2.3703199452,
				"z": -1.0339455891,
				"element": "H" 
			},
			{
				"x": -2.1120846112,
				"y": 1.678279819,
				"z": 0.2992329421,
				"element": "H" 
			},
			{
				"x": -0.700315144,
				"y": 2.4799507241,
				"z": 1.0064452846,
				"element": "H" 
			},
			{
				"x": -3.8076879923,
				"y": 1.4728096182,
				"z": -2.0317659227,
				"element": "H" 
			},
			{
				"x": -1.8876182779,
				"y": 4.9266383326,
				"z": -2.0236790684,
				"element": "H" 
			},
			{
				"x": -1.1742449074,
				"y": 3.5382810384,
				"z": -2.7521554785,
				"element": "H" 
			},
			{
				"x": -0.9836821851,
				"y": -0.3984552413,
				"z": -4.7554411505,
				"element": "H" 
			},
			{
				"x": 4.2585810364,
				"y": 0.088883739,
				"z": -3.2283097596,
				"element": "H" 
			},
			{
				"x": 5.0911394932,
				"y": -1.129039736,
				"z": -5.2506370774,
				"element": "H" 
			},
			{
				"x": 3.5155439635,
				"y": -1.9905175527,
				"z": -6.9449343958,
				"element": "H" 
			},
			{
				"x": 1.0656932308,
				"y": -1.6749343666,
				"z": -6.6928532313,
				"element": "H" 
			}
		],
		 "valence_orbital": [ 
			{
				"type": "occ",
				"energy": -0.23082,
				"method": "rhf"
			},
			{
				"type": "occ",
				"energy": -0.22737,
				"method": "rhf"
			},
			{
				"type": "occ",
				"energy": -0.22122,
				"method": "rhf"
			},
			{
				"type": "occ",
				"energy": -0.20701,
				"method": "rhf"
			},
			{
				"type": "occ",
				"energy": -0.20407,
				"method": "rhf"
			},
			{
				"type": "unocc",
				"energy": -0.07059,
				"method": "rhf"
			},
			{
				"type": "unocc",
				"energy": -0.0081,
				"method": "rhf"
			},
			{
				"type": "unocc",
				"energy": -0.00155,
				"method": "rhf"
			},
			{
				"type": "unocc",
				"energy": 0.00496,
				"method": "rhf"
			},
			{
				"type": "unocc",
				"energy": 0.00742,
				"method": "rhf"
			}
		],
		"cosmo_sigma_profile": { 
			"-0.025": 0.0,
			"-0.024": 0.0,
			"-0.023": 0.0,
			"-0.022": 0.0,
			"-0.021": 0.0,
			"-0.02": 0.0,
			"-0.019": 0.0,
			"-0.018": 0.0,
			"-0.017": 0.0,
			"-0.016": 0.0,
			"-0.015": 0.553260661605,
			"-0.014": 3.50788291976,
			"-0.013": 2.33078233129,
			"-0.012": 2.5878773787,
			"-0.011": 3.83123145536,
			"-0.01": 2.95316173917,
			"-0.009": 2.81833073515,
			"-0.008": 2.6831658295,
			"-0.007": 6.24001298069,
			"-0.006": 11.0418544664,
			"-0.005": 15.0595175563,
			"-0.004": 38.5777770774,
			"-0.003": 44.553411347,
			"-0.002": 40.651303285,
			"-0.001": 39.4205281098,
			"0.0": 47.4444821118,
			"0.001": 41.4432131171,
			"0.002": 28.3504884815,
			"0.003": 25.2910636403,
			"0.004": 24.2865167962,
			"0.005": 19.8031666758,
			"0.006": 11.1574559662,
			"0.007": 10.3232771732,
			"0.008": 6.26438260115,
			"0.009": 5.01616131451,
			"0.01": 5.96340428348,
			"0.011": 8.18799831131,
			"0.012": 5.04909773501,
			"0.013": 0.94761273927,
			"0.014": 0.0,
			"0.015": 0.0,
			"0.016": 0.0,
			"0.017": 0.0,
			"0.018": 0.0,
			"0.019": 0.0,
			"0.02": 0.0,
			"0.021": 0.0,
			"0.022": 0.0,
			"0.023": 0.0,
			"0.024": 0.0,
			"0.025": 0.0
		}
	}
}
