{
	 "smiles": "O=C(CN1CCOCC1)NC1=C(C#N)C2=C(CCCC2)S1", 
	 "Tm": 451.15, 
	 "num_atms": 40, 
	 "gaussian": { 
		 "optdone": 1, 
		 "sigma_profile": "yes", 
		 "theory": "DFT", 
		 "functional": "B3LYP", 
		 "basiset": "6-31G**", 
		 "properties": { 
			 "R2extent": 7065.9956, 
			 "electric_dipole_moment_norm": 5.58873433793, 
			 "electric_quadrupole_moment_norm": 15.4257300135, 
			 "total_energy": -1295.9047287, 
			 "HOMO_LUMO_gap": 0.1551, 
			 "cosmo_polarized_energy": -17.42, 
			 "cosmo_cavitation_energy": 43.06, 
			 "cosmo_dispersion_energy": -28.93, 
			 "cosmo_repulsion_energy": 2.2, 
			 "cosmo_total_nonelectrostatic_energy": 16.33, 
			 "SMD_solvation_energy": 6.96 
		},
		"coords": [
			{
				"x": 3.563803731,
				"y": 1.5273588101,
				"z": 0.0510531166,
				"element": "O" 
			},
			{
				"x": 2.4811798658,
				"y": 0.9840765331,
				"z": -0.0828017396,
				"element": "C" 
			},
			{
				"x": 1.836830753,
				"y": 0.1568457899,
				"z": 1.0310381845,
				"element": "C" 
			},
			{
				"x": 0.4657243193,
				"y": 0.5767687616,
				"z": 1.3008705147,
				"element": "N" 
			},
			{
				"x": 0.362440641,
				"y": 1.8615594238,
				"z": 2.0112323091,
				"element": "C" 
			},
			{
				"x": 0.5816513448,
				"y": 1.7180762707,
				"z": 3.5217452089,
				"element": "C" 
			},
			{
				"x": -0.3109308509,
				"y": 0.7546511647,
				"z": 4.0733730581,
				"element": "O" 
			},
			{
				"x": -0.1378224043,
				"y": -0.5208722988,
				"z": 3.4646948139,
				"element": "C" 
			},
			{
				"x": -0.3786031057,
				"y": -0.43170182,
				"z": 1.9541294331,
				"element": "C" 
			},
			{
				"x": 1.7926042466,
				"y": 1.1207053833,
				"z": -1.2869365616,
				"element": "N" 
			},
			{
				"x": 0.5854957993,
				"y": 0.5583186873,
				"z": -1.7043294366,
				"element": "C" 
			},
			{
				"x": 0.2688415152,
				"y": -0.772636612,
				"z": -1.903861427,
				"element": "C" 
			},
			{
				"x": 1.1878226097,
				"y": -1.8360783346,
				"z": -1.6796655245,
				"element": "C" 
			},
			{
				"x": 1.9235057309,
				"y": -2.7191093721,
				"z": -1.4887260062,
				"element": "N" 
			},
			{
				"x": -1.0782018665,
				"y": -0.9770310054,
				"z": -2.3817657941,
				"element": "C" 
			},
			{
				"x": -1.7511923378,
				"y": 0.1997249331,
				"z": -2.5603450497,
				"element": "C" 
			},
			{
				"x": -3.1515935153,
				"y": 0.3269277128,
				"z": -3.0968480113,
				"element": "C" 
			},
			{
				"x": -3.8638352401,
				"y": -1.0383663108,
				"z": -3.0408980299,
				"element": "C" 
			},
			{
				"x": -2.9569138516,
				"y": -2.1664608079,
				"z": -3.5551522663,
				"element": "C" 
			},
			{
				"x": -1.6980758038,
				"y": -2.3193198198,
				"z": -2.6839395763,
				"element": "C" 
			},
			{
				"x": -0.7715153818,
				"y": 1.5778855577,
				"z": -2.1166612848,
				"element": "S" 
			},
			{
				"x": 2.5319210912,
				"y": 0.24054386,
				"z": 1.8787327972,
				"element": "H" 
			},
			{
				"x": 1.8308246387,
				"y": -0.8937810202,
				"z": 0.721799619,
				"element": "H" 
			},
			{
				"x": -0.6450494019,
				"y": 2.2610831007,
				"z": 1.838876616,
				"element": "H" 
			},
			{
				"x": 1.0795274178,
				"y": 2.5723109641,
				"z": 1.5858196886,
				"element": "H" 
			},
			{
				"x": 1.6249491415,
				"y": 1.4333376036,
				"z": 3.7381385366,
				"element": "H" 
			},
			{
				"x": 0.3776052468,
				"y": 2.6624781836,
				"z": 4.0359002551,
				"element": "H" 
			},
			{
				"x": 0.8742742946,
				"y": -0.907849671,
				"z": 3.673831799,
				"element": "H" 
			},
			{
				"x": -0.8612424388,
				"y": -1.1925194962,
				"z": 3.9379899522,
				"element": "H" 
			},
			{
				"x": -0.2170513878,
				"y": -1.4037377166,
				"z": 1.4752618915,
				"element": "H" 
			},
			{
				"x": -1.4259761284,
				"y": -0.146603695,
				"z": 1.7888622161,
				"element": "H" 
			},
			{
				"x": 2.2731641755,
				"y": 1.7417862816,
				"z": -1.9285385417,
				"element": "H" 
			},
			{
				"x": -3.1186743181,
				"y": 0.6879421506,
				"z": -4.1347347986,
				"element": "H" 
			},
			{
				"x": -3.7198456322,
				"y": 1.0743036582,
				"z": -2.5305821864,
				"element": "H" 
			},
			{
				"x": -4.1556675731,
				"y": -1.251335442,
				"z": -2.0044782525,
				"element": "H" 
			},
			{
				"x": -4.7876223931,
				"y": -0.990902588,
				"z": -3.6273125687,
				"element": "H" 
			},
			{
				"x": -2.6585314343,
				"y": -1.9465496125,
				"z": -4.5885341133,
				"element": "H" 
			},
			{
				"x": -3.5053096022,
				"y": -3.114020121,
				"z": -3.5801173571,
				"element": "H" 
			},
			{
				"x": -0.9659857036,
				"y": -2.9695932257,
				"z": -3.1767314591,
				"element": "H" 
			},
			{
				"x": -1.9558261911,
				"y": -2.8206158609,
				"z": -1.7399900252,
				"element": "H" 
			}
		],
		 "valence_orbital": [ 
			{
				"type": "occ",
				"energy": -0.27492,
				"method": "rhf"
			},
			{
				"type": "occ",
				"energy": -0.26485,
				"method": "rhf"
			},
			{
				"type": "occ",
				"energy": -0.26086,
				"method": "rhf"
			},
			{
				"type": "occ",
				"energy": -0.23529,
				"method": "rhf"
			},
			{
				"type": "occ",
				"energy": -0.2069,
				"method": "rhf"
			},
			{
				"type": "unocc",
				"energy": -0.0518,
				"method": "rhf"
			},
			{
				"type": "unocc",
				"energy": -0.00414,
				"method": "rhf"
			},
			{
				"type": "unocc",
				"energy": 0.00577,
				"method": "rhf"
			},
			{
				"type": "unocc",
				"energy": 0.00809,
				"method": "rhf"
			},
			{
				"type": "unocc",
				"energy": 0.03976,
				"method": "rhf"
			}
		],
		"cosmo_sigma_profile": { 
			"-0.025": 0.0,
			"-0.024": 0.0,
			"-0.023": 0.0,
			"-0.022": 0.0,
			"-0.021": 0.0,
			"-0.02": 0.0,
			"-0.019": 0.0,
			"-0.018": 0.0,
			"-0.017": 0.0,
			"-0.016": 0.0450079671245,
			"-0.015": 0.862810101159,
			"-0.014": 1.41188678156,
			"-0.013": 0.710142207835,
			"-0.012": 1.05053559792,
			"-0.011": 1.18692148713,
			"-0.01": 1.1172728646,
			"-0.009": 0.767589824553,
			"-0.008": 0.762516283339,
			"-0.007": 1.38625955448,
			"-0.006": 2.77424419192,
			"-0.005": 17.933627584,
			"-0.004": 39.5571827948,
			"-0.003": 52.806284204,
			"-0.002": 45.2600011876,
			"-0.001": 37.6972241267,
			"0.0": 26.5423256013,
			"0.001": 17.9616897303,
			"0.002": 14.0554296402,
			"0.003": 11.507164835,
			"0.004": 7.66497612571,
			"0.005": 6.19561350016,
			"0.006": 5.4969895257,
			"0.007": 5.17401456389,
			"0.008": 5.50681710312,
			"0.009": 6.05167870966,
			"0.01": 6.13383568664,
			"0.011": 5.32830750914,
			"0.012": 7.96276945259,
			"0.013": 7.98471424401,
			"0.014": 1.45410470983,
			"0.015": 0.0,
			"0.016": 0.0,
			"0.017": 0.0,
			"0.018": 0.0,
			"0.019": 0.0,
			"0.02": 0.0,
			"0.021": 0.0,
			"0.022": 0.0,
			"0.023": 0.0,
			"0.024": 0.0,
			"0.025": 0.0
		}
	}
}
