{
	 "smiles": "COC1=CC=C(C=NC2=CC=C(C=C2)C2=CC=C(C=C2)N=NC2=CC=CC=C2)C=C1", 
	 "Tm": 487.15, 
	 "num_atms": 51, 
	 "gaussian": { 
		 "optdone": 1, 
		 "sigma_profile": "yes", 
		 "theory": "DFT", 
		 "functional": "B3LYP", 
		 "basiset": "6-31G**", 
		 "properties": { 
			 "R2extent": 28705.834, 
			 "electric_dipole_moment_norm": 6.88342694157, 
			 "electric_quadrupole_moment_norm": 14.0371568973, 
			 "total_energy": -1242.82964414, 
			 "HOMO_LUMO_gap": 0.12499, 
			 "cosmo_polarized_energy": -17.51, 
			 "cosmo_cavitation_energy": 56.94, 
			 "cosmo_dispersion_energy": -40.07, 
			 "cosmo_repulsion_energy": 2.98, 
			 "cosmo_total_nonelectrostatic_energy": 19.85, 
			 "SMD_solvation_energy": 6.93 
		},
		"coords": [
			{
				"x": 0.885367894,
				"y": -8.9176460322,
				"z": 4.9409405408,
				"element": "C" 
			},
			{
				"x": 1.2865687488,
				"y": -8.5401916248,
				"z": 3.6316605262,
				"element": "O" 
			},
			{
				"x": 0.9681693672,
				"y": -7.294500122,
				"z": 3.1890141095,
				"element": "C" 
			},
			{
				"x": 0.2653106736,
				"y": -6.3393675568,
				"z": 3.9347363097,
				"element": "C" 
			},
			{
				"x": -0.0012160017,
				"y": -5.0927585773,
				"z": 3.3684095351,
				"element": "C" 
			},
			{
				"x": 0.4188105288,
				"y": -4.7729982274,
				"z": 2.0709778203,
				"element": "C" 
			},
			{
				"x": 0.1205081135,
				"y": -3.4553782916,
				"z": 1.513213766,
				"element": "C" 
			},
			{
				"x": 0.4564308514,
				"y": -3.1114104053,
				"z": 0.3230442925,
				"element": "N" 
			},
			{
				"x": 0.2011263312,
				"y": -1.8116117516,
				"z": -0.1357819653,
				"element": "C" 
			},
			{
				"x": -0.1523265489,
				"y": -1.646956652,
				"z": -1.4864289893,
				"element": "C" 
			},
			{
				"x": -0.4132272012,
				"y": -0.3853500775,
				"z": -2.0049983823,
				"element": "C" 
			},
			{
				"x": -0.3009005793,
				"y": 0.7697670137,
				"z": -1.2080477334,
				"element": "C" 
			},
			{
				"x": 0.0860763251,
				"y": 0.6012176768,
				"z": 0.1329522477,
				"element": "C" 
			},
			{
				"x": 0.3317237305,
				"y": -0.6610566701,
				"z": 0.6635632993,
				"element": "C" 
			},
			{
				"x": -0.5664004567,
				"y": 2.1163903845,
				"z": -1.7654290576,
				"element": "C" 
			},
			{
				"x": 0.185293748,
				"y": 3.2349100473,
				"z": -1.3577696856,
				"element": "C" 
			},
			{
				"x": -0.0715225069,
				"y": 4.5057158752,
				"z": -1.8592010889,
				"element": "C" 
			},
			{
				"x": -1.0852657965,
				"y": 4.6911896345,
				"z": -2.8121730628,
				"element": "C" 
			},
			{
				"x": -1.8033839434,
				"y": 3.5785035042,
				"z": -3.2716768895,
				"element": "C" 
			},
			{
				"x": -1.5687076102,
				"y": 2.319200818,
				"z": -2.7324572292,
				"element": "C" 
			},
			{
				"x": -1.3123657088,
				"y": 5.9248665351,
				"z": -3.5026825983,
				"element": "N" 
			},
			{
				"x": -1.363691274,
				"y": 7.043375153,
				"z": -2.9463078721,
				"element": "N" 
			},
			{
				"x": -1.4167189354,
				"y": 7.2325990102,
				"z": -1.5252689212,
				"element": "C" 
			},
			{
				"x": -0.6321322336,
				"y": 8.2681327622,
				"z": -0.9992605917,
				"element": "C" 
			},
			{
				"x": -0.7190202738,
				"y": 8.5895820185,
				"z": 0.3537055288,
				"element": "C" 
			},
			{
				"x": -1.6292459485,
				"y": 7.9213146779,
				"z": 1.1768580832,
				"element": "C" 
			},
			{
				"x": -2.4481062907,
				"y": 6.9243857152,
				"z": 0.6394911442,
				"element": "C" 
			},
			{
				"x": -2.3415786667,
				"y": 6.5699755052,
				"z": -0.7039292389,
				"element": "C" 
			},
			{
				"x": 1.1259337456,
				"y": -5.7470966877,
				"z": 1.3351469052,
				"element": "C" 
			},
			{
				"x": 1.3960222948,
				"y": -6.9871177504,
				"z": 1.8827999325,
				"element": "C" 
			},
			{
				"x": 1.2408206079,
				"y": -9.9393249023,
				"z": 5.0811026484,
				"element": "H" 
			},
			{
				"x": -0.206225604,
				"y": -8.8963716885,
				"z": 5.0502093484,
				"element": "H" 
			},
			{
				"x": 1.3363022126,
				"y": -8.2701270672,
				"z": 5.7034183463,
				"element": "H" 
			},
			{
				"x": -0.0735710461,
				"y": -6.5537646438,
				"z": 4.9410365656,
				"element": "H" 
			},
			{
				"x": -0.5478371023,
				"y": -4.353697665,
				"z": 3.9495561081,
				"element": "H" 
			},
			{
				"x": -0.4294606728,
				"y": -2.7719888812,
				"z": 2.178587361,
				"element": "H" 
			},
			{
				"x": -0.2191054976,
				"y": -2.5308905226,
				"z": -2.1126967022,
				"element": "H" 
			},
			{
				"x": -0.6715379537,
				"y": -0.2870557452,
				"z": -3.0551985391,
				"element": "H" 
			},
			{
				"x": 0.1773449116,
				"y": 1.4718592716,
				"z": 0.7759921485,
				"element": "H" 
			},
			{
				"x": 0.6514399773,
				"y": -0.7583523777,
				"z": 1.6968381825,
				"element": "H" 
			},
			{
				"x": 1.0007492978,
				"y": 3.1007743848,
				"z": -0.6536559318,
				"element": "H" 
			},
			{
				"x": 0.52916678,
				"y": 5.3482486171,
				"z": -1.5350869954,
				"element": "H" 
			},
			{
				"x": -2.5558667779,
				"y": 3.7245718155,
				"z": -4.0405737714,
				"element": "H" 
			},
			{
				"x": -2.1730715332,
				"y": 1.4791619793,
				"z": -3.0605505085,
				"element": "H" 
			},
			{
				"x": 0.0402665901,
				"y": 8.8031266905,
				"z": -1.6628406442,
				"element": "H" 
			},
			{
				"x": -0.0911041087,
				"y": 9.3765104022,
				"z": 0.7614189013,
				"element": "H" 
			},
			{
				"x": -1.7122442417,
				"y": 8.1869061103,
				"z": 2.2265181107,
				"element": "H" 
			},
			{
				"x": -3.1727305859,
				"y": 6.4174394574,
				"z": 1.2703202021,
				"element": "H" 
			},
			{
				"x": -2.9772985227,
				"y": 5.7964123519,
				"z": -1.1208244858,
				"element": "H" 
			},
			{
				"x": 1.4508947839,
				"y": -5.5004170723,
				"z": 0.3299016064,
				"element": "H" 
			},
			{
				"x": 1.9384361087,
				"y": -7.7458064195,
				"z": 1.3281273144,
				"element": "H" 
			}
		],
		 "valence_orbital": [ 
			{
				"type": "occ",
				"energy": -0.25194,
				"method": "rhf"
			},
			{
				"type": "occ",
				"energy": -0.25017,
				"method": "rhf"
			},
			{
				"type": "occ",
				"energy": -0.23396,
				"method": "rhf"
			},
			{
				"type": "occ",
				"energy": -0.21429,
				"method": "rhf"
			},
			{
				"type": "occ",
				"energy": -0.19819,
				"method": "rhf"
			},
			{
				"type": "unocc",
				"energy": -0.0732,
				"method": "rhf"
			},
			{
				"type": "unocc",
				"energy": -0.05338,
				"method": "rhf"
			},
			{
				"type": "unocc",
				"energy": -0.01321,
				"method": "rhf"
			},
			{
				"type": "unocc",
				"energy": -0.01121,
				"method": "rhf"
			},
			{
				"type": "unocc",
				"energy": -0.00849,
				"method": "rhf"
			}
		],
		"cosmo_sigma_profile": { 
			"-0.025": 0.0,
			"-0.024": 0.0,
			"-0.023": 0.0,
			"-0.022": 0.0,
			"-0.021": 0.0,
			"-0.02": 0.0,
			"-0.019": 0.0,
			"-0.018": 0.0,
			"-0.017": 0.0,
			"-0.016": 0.0,
			"-0.015": 0.0,
			"-0.014": 0.0,
			"-0.013": 0.0,
			"-0.012": 0.0,
			"-0.011": 0.0,
			"-0.01": 0.0,
			"-0.009": 0.0,
			"-0.008": 0.0640495685399,
			"-0.007": 6.14458072575,
			"-0.006": 37.7661473807,
			"-0.005": 46.008700503,
			"-0.004": 41.5676071568,
			"-0.003": 35.8462130843,
			"-0.002": 26.5767394146,
			"-0.001": 25.6856248359,
			"0.0": 25.5411527869,
			"0.001": 27.1862284063,
			"0.002": 33.5908243106,
			"0.003": 45.3444686317,
			"0.004": 49.1999350961,
			"0.005": 23.5017894421,
			"0.006": 4.77099439979,
			"0.007": 4.87722017973,
			"0.008": 5.6149268078,
			"0.009": 3.98802082138,
			"0.01": 4.18046145054,
			"0.011": 2.96369971917,
			"0.012": 3.45780007518,
			"0.013": 2.16740800969,
			"0.014": 1.15556042764,
			"0.015": 0.0281512997304,
			"0.016": 0.0,
			"0.017": 0.0,
			"0.018": 0.0,
			"0.019": 0.0,
			"0.02": 0.0,
			"0.021": 0.0,
			"0.022": 0.0,
			"0.023": 0.0,
			"0.024": 0.0,
			"0.025": 0.0
		}
	}
}
