{
	 "smiles": "FC1=CC=CC(Cl)=C1C(Cl)(Cl)Cl", 
	 "Tm": 313.65, 
	 "num_atms": 15, 
	 "gaussian": { 
		 "optdone": 1, 
		 "sigma_profile": "yes", 
		 "theory": "DFT", 
		 "functional": "B3LYP", 
		 "basiset": "6-31G**", 
		 "properties": { 
			 "R2extent": 3558.8373, 
			 "electric_dipole_moment_norm": 3.7453134515, 
			 "electric_quadrupole_moment_norm": 3.82033448012, 
			 "total_energy": -2209.11468618, 
			 "HOMO_LUMO_gap": 0.20201, 
			 "cosmo_polarized_energy": -5.17, 
			 "cosmo_cavitation_energy": 25.85, 
			 "cosmo_dispersion_energy": -19.45, 
			 "cosmo_repulsion_energy": 1.51, 
			 "cosmo_total_nonelectrostatic_energy": 7.9, 
			 "SMD_solvation_energy": 3.68 
		},
		"coords": [
			{
				"x": 2.6353201173,
				"y": -0.6031913417,
				"z": 1.7536367471,
				"element": "F" 
			},
			{
				"x": 1.3765041747,
				"y": -0.6277484957,
				"z": 1.292835709,
				"element": "C" 
			},
			{
				"x": 0.6170814302,
				"y": -1.7035804399,
				"z": 1.743378436,
				"element": "C" 
			},
			{
				"x": -0.6998379741,
				"y": -1.8348506073,
				"z": 1.3337756917,
				"element": "C" 
			},
			{
				"x": -1.2439934532,
				"y": -0.8851292534,
				"z": 0.4751216394,
				"element": "C" 
			},
			{
				"x": -0.4738295595,
				"y": 0.1879439075,
				"z": 0.0305322219,
				"element": "C" 
			},
			{
				"x": -1.315827211,
				"y": 1.2868066615,
				"z": -1.0436153414,
				"element": "Cl" 
			},
			{
				"x": 0.88280085,
				"y": 0.3679953221,
				"z": 0.4217767623,
				"element": "C" 
			},
			{
				"x": 1.7065203395,
				"y": 1.558174078,
				"z": -0.0829549192,
				"element": "C" 
			},
			{
				"x": 0.9276901251,
				"y": 3.1156915764,
				"z": 0.4402800004,
				"element": "Cl" 
			},
			{
				"x": 1.8154311642,
				"y": 1.5098059621,
				"z": -1.8973535643,
				"element": "Cl" 
			},
			{
				"x": 3.4068633652,
				"y": 1.6477560777,
				"z": 0.5012946655,
				"element": "Cl" 
			},
			{
				"x": 1.0935988415,
				"y": -2.4122354714,
				"z": 2.4107821479,
				"element": "H" 
			},
			{
				"x": -1.3027657963,
				"y": -2.6688259076,
				"z": 1.6776303176,
				"element": "H" 
			},
			{
				"x": -2.2706564136,
				"y": -0.9624120683,
				"z": 0.1385794859,
				"element": "H" 
			}
		],
		 "valence_orbital": [ 
			{
				"type": "occ",
				"energy": -0.31882,
				"method": "rhf"
			},
			{
				"type": "occ",
				"energy": -0.30105,
				"method": "rhf"
			},
			{
				"type": "occ",
				"energy": -0.30056,
				"method": "rhf"
			},
			{
				"type": "occ",
				"energy": -0.28014,
				"method": "rhf"
			},
			{
				"type": "occ",
				"energy": -0.26392,
				"method": "rhf"
			},
			{
				"type": "unocc",
				"energy": -0.06191,
				"method": "rhf"
			},
			{
				"type": "unocc",
				"energy": -0.04405,
				"method": "rhf"
			},
			{
				"type": "unocc",
				"energy": -0.02954,
				"method": "rhf"
			},
			{
				"type": "unocc",
				"energy": -0.01114,
				"method": "rhf"
			},
			{
				"type": "unocc",
				"energy": 0.00806,
				"method": "rhf"
			}
		],
		"cosmo_sigma_profile": { 
			"-0.025": 0.0,
			"-0.024": 0.0,
			"-0.023": 0.0,
			"-0.022": 0.0,
			"-0.021": 0.0,
			"-0.02": 0.0,
			"-0.019": 0.0,
			"-0.018": 0.0,
			"-0.017": 0.0,
			"-0.016": 0.0,
			"-0.015": 0.0,
			"-0.014": 0.0,
			"-0.013": 0.0,
			"-0.012": 0.0,
			"-0.011": 0.0,
			"-0.01": 0.0,
			"-0.009": 0.602013089718,
			"-0.008": 5.93390745357,
			"-0.007": 6.52151308718,
			"-0.006": 6.10671950451,
			"-0.005": 5.52472215031,
			"-0.004": 9.4911203273,
			"-0.003": 11.0190957647,
			"-0.002": 15.5953566828,
			"-0.001": 18.9338256039,
			"0.0": 24.8891203003,
			"0.001": 24.218370957,
			"0.002": 25.1655690097,
			"0.003": 39.1518358115,
			"0.004": 22.4166149411,
			"0.005": 0.748897288561,
			"0.006": 0.0,
			"0.007": 0.0,
			"0.008": 0.0,
			"0.009": 0.0,
			"0.01": 0.0,
			"0.011": 0.0,
			"0.012": 0.0,
			"0.013": 0.0,
			"0.014": 0.0,
			"0.015": 0.0,
			"0.016": 0.0,
			"0.017": 0.0,
			"0.018": 0.0,
			"0.019": 0.0,
			"0.02": 0.0,
			"0.021": 0.0,
			"0.022": 0.0,
			"0.023": 0.0,
			"0.024": 0.0,
			"0.025": 0.0
		}
	}
}
