{
	 "smiles": "CN1C(C(CCC1=O)C(N)=O)C1=CC=C(C=C1)C(F)(F)F", 
	 "Tm": 513.15, 
	 "num_atms": 36, 
	 "gaussian": { 
		 "optdone": 1, 
		 "sigma_profile": "yes", 
		 "theory": "DFT", 
		 "functional": "B3LYP", 
		 "basiset": "6-31G**", 
		 "properties": { 
			 "R2extent": 8226.6506, 
			 "electric_dipole_moment_norm": 5.39948620982, 
			 "electric_quadrupole_moment_norm": 26.2319340778, 
			 "total_energy": -1102.04424491, 
			 "HOMO_LUMO_gap": 0.19936, 
			 "cosmo_polarized_energy": -22.81, 
			 "cosmo_cavitation_energy": 39.46, 
			 "cosmo_dispersion_energy": -26.85, 
			 "cosmo_repulsion_energy": 2.0, 
			 "cosmo_total_nonelectrostatic_energy": 14.61, 
			 "SMD_solvation_energy": 8.84 
		},
		"coords": [
			{
				"x": 0.4239434424,
				"y": 1.6818318344,
				"z": 1.4690608264,
				"element": "C" 
			},
			{
				"x": 1.2605885539,
				"y": 0.7370579005,
				"z": 0.7349860036,
				"element": "N" 
			},
			{
				"x": 0.6610469995,
				"y": 0.154787576,
				"z": -0.4638416308,
				"element": "C" 
			},
			{
				"x": 1.7410564395,
				"y": -0.4122123283,
				"z": -1.4276290309,
				"element": "C" 
			},
			{
				"x": 2.6889819609,
				"y": -1.3414328812,
				"z": -0.6641987347,
				"element": "C" 
			},
			{
				"x": 3.3392275845,
				"y": -0.6185702632,
				"z": 0.5198106389,
				"element": "C" 
			},
			{
				"x": 2.4409488171,
				"y": 0.3106796563,
				"z": 1.3226978118,
				"element": "C" 
			},
			{
				"x": 2.7913326911,
				"y": 0.7155655094,
				"z": 2.4252440527,
				"element": "O" 
			},
			{
				"x": 2.5071189039,
				"y": 0.6975077705,
				"z": -2.1752898248,
				"element": "C" 
			},
			{
				"x": 1.7333397131,
				"y": 1.5163721477,
				"z": -2.9567345245,
				"element": "N" 
			},
			{
				"x": 3.7175016048,
				"y": 0.8464959514,
				"z": -2.0972158958,
				"element": "O" 
			},
			{
				"x": -0.4122460772,
				"y": -0.8953878123,
				"z": -0.1491992172,
				"element": "C" 
			},
			{
				"x": -1.4413321005,
				"y": -1.1215482303,
				"z": -1.0738240105,
				"element": "C" 
			},
			{
				"x": -2.4165354644,
				"y": -2.0875375155,
				"z": -0.8441009183,
				"element": "C" 
			},
			{
				"x": -2.3807798456,
				"y": -2.8418915203,
				"z": 0.3321203656,
				"element": "C" 
			},
			{
				"x": -1.3708945741,
				"y": -2.6182511263,
				"z": 1.2693442741,
				"element": "C" 
			},
			{
				"x": -0.3961432018,
				"y": -1.6498648678,
				"z": 1.0292510819,
				"element": "C" 
			},
			{
				"x": -3.4014154487,
				"y": -3.9232726072,
				"z": 0.5621528366,
				"element": "C" 
			},
			{
				"x": -4.5882292912,
				"y": -3.6232503297,
				"z": -0.0115972631,
				"element": "F" 
			},
			{
				"x": -3.6252540078,
				"y": -4.1335898566,
				"z": 1.8773776248,
				"element": "F" 
			},
			{
				"x": -3.0009161547,
				"y": -5.1050140239,
				"z": 0.0372226835,
				"element": "F" 
			},
			{
				"x": -0.4884845925,
				"y": 1.2026076971,
				"z": 1.8445410809,
				"element": "H" 
			},
			{
				"x": 0.1372027078,
				"y": 2.5123883696,
				"z": 0.8138382567,
				"element": "H" 
			},
			{
				"x": 1.0012562687,
				"y": 2.0572939452,
				"z": 2.3119232036,
				"element": "H" 
			},
			{
				"x": 0.1498536906,
				"y": 0.9774837269,
				"z": -0.9804480906,
				"element": "H" 
			},
			{
				"x": 1.205302765,
				"y": -0.989995527,
				"z": -2.1924608811,
				"element": "H" 
			},
			{
				"x": 2.1144525261,
				"y": -2.2066146768,
				"z": -0.3158273822,
				"element": "H" 
			},
			{
				"x": 3.4634395212,
				"y": -1.7168943385,
				"z": -1.3382776901,
				"element": "H" 
			},
			{
				"x": 3.776915462,
				"y": -1.3232887604,
				"z": 1.2318997762,
				"element": "H" 
			},
			{
				"x": 4.1545076924,
				"y": 0.0113884155,
				"z": 0.1512024998,
				"element": "H" 
			},
			{
				"x": 2.2201588452,
				"y": 2.183828777,
				"z": -3.5371396009,
				"element": "H" 
			},
			{
				"x": 0.7850251003,
				"y": 1.2824551402,
				"z": -3.2033470652,
				"element": "H" 
			},
			{
				"x": -1.4878483619,
				"y": -0.5283743755,
				"z": -1.9847356943,
				"element": "H" 
			},
			{
				"x": -3.2126983301,
				"y": -2.246013099,
				"z": -1.5635718878,
				"element": "H" 
			},
			{
				"x": -1.3531156403,
				"y": -3.1913287304,
				"z": 2.1900974922,
				"element": "H" 
			},
			{
				"x": 0.3723918009,
				"y": -1.4701115477,
				"z": 1.7740688335,
				"element": "H" 
			}
		],
		 "valence_orbital": [ 
			{
				"type": "occ",
				"energy": -0.27758,
				"method": "rhf"
			},
			{
				"type": "occ",
				"energy": -0.27514,
				"method": "rhf"
			},
			{
				"type": "occ",
				"energy": -0.25979,
				"method": "rhf"
			},
			{
				"type": "occ",
				"energy": -0.24461,
				"method": "rhf"
			},
			{
				"type": "occ",
				"energy": -0.23991,
				"method": "rhf"
			},
			{
				"type": "unocc",
				"energy": -0.04055,
				"method": "rhf"
			},
			{
				"type": "unocc",
				"energy": -0.02976,
				"method": "rhf"
			},
			{
				"type": "unocc",
				"energy": 0.00807,
				"method": "rhf"
			},
			{
				"type": "unocc",
				"energy": 0.02792,
				"method": "rhf"
			},
			{
				"type": "unocc",
				"energy": 0.03916,
				"method": "rhf"
			}
		],
		"cosmo_sigma_profile": { 
			"-0.025": 0.0,
			"-0.024": 0.0,
			"-0.023": 0.0,
			"-0.022": 0.0,
			"-0.021": 0.0,
			"-0.02": 0.0,
			"-0.019": 0.0,
			"-0.018": 0.0,
			"-0.017": 0.0,
			"-0.016": 0.0,
			"-0.015": 0.0164267074919,
			"-0.014": 1.27487404023,
			"-0.013": 4.15098270757,
			"-0.012": 3.16935719384,
			"-0.011": 3.13372508921,
			"-0.01": 3.0973142165,
			"-0.009": 3.10281618186,
			"-0.008": 3.2725925749,
			"-0.007": 7.49673270002,
			"-0.006": 12.3063273226,
			"-0.005": 15.7534445751,
			"-0.004": 18.9926757662,
			"-0.003": 25.0324771476,
			"-0.002": 27.5546840301,
			"-0.001": 24.6972808814,
			"0.0": 18.4182619402,
			"0.001": 20.5447499125,
			"0.002": 28.6394385912,
			"0.003": 41.6916382856,
			"0.004": 8.80132339063,
			"0.005": 3.69942679547,
			"0.006": 3.3229689898,
			"0.007": 3.13948894698,
			"0.008": 2.91669552433,
			"0.009": 2.60657135905,
			"0.01": 3.00333536168,
			"0.011": 2.540803052,
			"0.012": 3.74429323938,
			"0.013": 6.58564364991,
			"0.014": 7.047976925,
			"0.015": 1.97055962875,
			"0.016": 0.0932757919318,
			"0.017": 0.0,
			"0.018": 0.0,
			"0.019": 0.0,
			"0.02": 0.0,
			"0.021": 0.0,
			"0.022": 0.0,
			"0.023": 0.0,
			"0.024": 0.0,
			"0.025": 0.0
		}
	}
}
