{
	 "smiles": "COC(=O)C1=CC=C(Br)C=N1", 
	 "Tm": 374.15, 
	 "num_atms": 17, 
	 "gaussian": { 
		 "optdone": 1, 
		 "sigma_profile": "yes", 
		 "theory": "DFT", 
		 "functional": "B3LYP", 
		 "basiset": "6-31G**", 
		 "properties": { 
			 "R2extent": 4397.1798, 
			 "electric_dipole_moment_norm": 3.49379053894, 
			 "electric_quadrupole_moment_norm": 15.6534709327, 
			 "total_energy": -3046.9596487, 
			 "HOMO_LUMO_gap": 0.19759, 
			 "cosmo_polarized_energy": -11.21, 
			 "cosmo_cavitation_energy": 24.61, 
			 "cosmo_dispersion_energy": -18.6, 
			 "cosmo_repulsion_energy": 1.5, 
			 "cosmo_total_nonelectrostatic_energy": 7.52, 
			 "SMD_solvation_energy": 3.6 
		},
		"coords": [
			{
				"x": 1.3572367686,
				"y": 4.5768197441,
				"z": -0.2085039485,
				"element": "C" 
			},
			{
				"x": 1.1590152269,
				"y": 3.2126515363,
				"z": 0.1951231628,
				"element": "O" 
			},
			{
				"x": 1.8763341448,
				"y": 2.299388707,
				"z": -0.5040244675,
				"element": "C" 
			},
			{
				"x": 2.631995252,
				"y": 2.5853776091,
				"z": -1.4029802752,
				"element": "O" 
			},
			{
				"x": 1.6040295344,
				"y": 0.9027283705,
				"z": -0.011816318,
				"element": "C" 
			},
			{
				"x": 0.7123267822,
				"y": 0.6525563932,
				"z": 1.0381852699,
				"element": "C" 
			},
			{
				"x": 0.5070000141,
				"y": -0.6645796525,
				"z": 1.4435775968,
				"element": "C" 
			},
			{
				"x": 1.2041552655,
				"y": -1.6680956053,
				"z": 0.7783243024,
				"element": "C" 
			},
			{
				"x": 0.9826176823,
				"y": -3.4930099951,
				"z": 1.2676796839,
				"element": "Br" 
			},
			{
				"x": 2.0771487121,
				"y": -1.3287326308,
				"z": -0.2619314909,
				"element": "C" 
			},
			{
				"x": 2.2721539732,
				"y": -0.0706935805,
				"z": -0.6477781047,
				"element": "N" 
			},
			{
				"x": 2.4046975165,
				"y": 4.8643926223,
				"z": -0.0880800635,
				"element": "H" 
			},
			{
				"x": 0.7180585352,
				"y": 5.1730357778,
				"z": 0.4424113901,
				"element": "H" 
			},
			{
				"x": 1.0741960732,
				"y": 4.7123434251,
				"z": -1.2553534283,
				"element": "H" 
			},
			{
				"x": 0.1949160072,
				"y": 1.4715791515,
				"z": 1.522133069,
				"element": "H" 
			},
			{
				"x": -0.1742733981,
				"y": -0.9046349351,
				"z": 2.2521536509,
				"element": "H" 
			},
			{
				"x": 2.6283919097,
				"y": -2.1022269378,
				"z": -0.7906200292,
				"element": "H" 
			}
		],
		 "valence_orbital": [ 
			{
				"type": "occ",
				"energy": -0.30657,
				"method": "rhf"
			},
			{
				"type": "occ",
				"energy": -0.30075,
				"method": "rhf"
			},
			{
				"type": "occ",
				"energy": -0.27786,
				"method": "rhf"
			},
			{
				"type": "occ",
				"energy": -0.27266,
				"method": "rhf"
			},
			{
				"type": "occ",
				"energy": -0.26379,
				"method": "rhf"
			},
			{
				"type": "unocc",
				"energy": -0.0662,
				"method": "rhf"
			},
			{
				"type": "unocc",
				"energy": -0.04077,
				"method": "rhf"
			},
			{
				"type": "unocc",
				"energy": -0.00574,
				"method": "rhf"
			},
			{
				"type": "unocc",
				"energy": 0.04104,
				"method": "rhf"
			},
			{
				"type": "unocc",
				"energy": 0.10299,
				"method": "rhf"
			}
		],
		"cosmo_sigma_profile": { 
			"-0.025": 0.0,
			"-0.024": 0.0,
			"-0.023": 0.0,
			"-0.022": 0.0,
			"-0.021": 0.0,
			"-0.02": 0.0,
			"-0.019": 0.0,
			"-0.018": 0.0,
			"-0.017": 0.0,
			"-0.016": 0.0,
			"-0.015": 0.0,
			"-0.014": 0.0,
			"-0.013": 0.0,
			"-0.012": 0.0,
			"-0.011": 0.0,
			"-0.01": 0.0,
			"-0.009": 1.33637082938,
			"-0.008": 4.39557891452,
			"-0.007": 7.23283098746,
			"-0.006": 10.1302162773,
			"-0.005": 11.9744146977,
			"-0.004": 16.8530317129,
			"-0.003": 17.0020349294,
			"-0.002": 17.5762671656,
			"-0.001": 22.7378707891,
			"0.0": 18.8075481555,
			"0.001": 11.1210980649,
			"0.002": 9.80269718537,
			"0.003": 14.5536005899,
			"0.004": 9.791297806,
			"0.005": 3.40483263174,
			"0.006": 1.8118139576,
			"0.007": 1.65946987345,
			"0.008": 1.85973163645,
			"0.009": 2.45246164142,
			"0.01": 2.33343321037,
			"0.011": 5.00967292727,
			"0.012": 3.37561709769,
			"0.013": 1.65097569862,
			"0.014": 1.37710851638,
			"0.015": 1.2079337106,
			"0.016": 1.11833994136,
			"0.017": 0.564988298103,
			"0.018": 0.0,
			"0.019": 0.0,
			"0.02": 0.0,
			"0.021": 0.0,
			"0.022": 0.0,
			"0.023": 0.0,
			"0.024": 0.0,
			"0.025": 0.0
		}
	}
}
