{
	 "smiles": "CC1=C(Cl)C=CC=C1I", 
	 "Tm": 284.15, 
	 "num_atms": 15, 
	 "gaussian": { 
		 "optdone": 1, 
		 "sigma_profile": "no", 
		 "theory": "DFT", 
		 "functional": "B3LYP", 
		 "basiset": "6-31G**", 
		 "properties": { 
			 "R2extent": 3097.7151, 
			 "electric_dipole_moment_norm": 1.03075368542, 
			 "electric_quadrupole_moment_norm": 8.66837970442, 
			 "total_energy": -741.943286328, 
			 "HOMO_LUMO_gap": 0.19881, 
			 "cosmo_polarized_energy": -85415.57, 
			 "cosmo_cavitation_energy": 23.1, 
			 "cosmo_dispersion_energy": -18.74, 
			 "cosmo_repulsion_energy": 1.48, 
			 "cosmo_total_nonelectrostatic_energy": 5.85, 
			 "SMD_solvation_energy": 2.94 
		},
		"coords": [
			{
				"x": 0.9429362201,
				"y": -1.2806790731,
				"z": -0.5902662701,
				"element": "C" 
			},
			{
				"x": 1.8804685863,
				"y": -0.3622276523,
				"z": 0.1500833266,
				"element": "C" 
			},
			{
				"x": 3.1407980616,
				"y": 0.0091472945,
				"z": -0.3573082072,
				"element": "C" 
			},
			{
				"x": 3.6921065235,
				"y": -0.5985900026,
				"z": -1.9203409619,
				"element": "Cl" 
			},
			{
				"x": 4.013004904,
				"y": 0.8586298955,
				"z": 0.3230304214,
				"element": "C" 
			},
			{
				"x": 3.6401861351,
				"y": 1.3733004808,
				"z": 1.5603122041,
				"element": "C" 
			},
			{
				"x": 2.4037799011,
				"y": 1.0384484562,
				"z": 2.1091896661,
				"element": "C" 
			},
			{
				"x": 1.5527999451,
				"y": 0.1866597722,
				"z": 1.4054136992,
				"element": "C" 
			},
			{
				"x": -0.3154004355,
				"y": -0.2684633298,
				"z": 2.3233828919,
				"element": "I" 
			},
			{
				"x": 1.3665447391,
				"y": -1.6045282087,
				"z": -1.5392143151,
				"element": "H" 
			},
			{
				"x": -0.0105082176,
				"y": -0.7804318975,
				"z": -0.7894379749,
				"element": "H" 
			},
			{
				"x": 0.7184399896,
				"y": -2.1686367006,
				"z": 0.0097916008,
				"element": "H" 
			},
			{
				"x": 4.9702898019,
				"y": 1.1074604298,
				"z": -0.1202140569,
				"element": "H" 
			},
			{
				"x": 4.3112517891,
				"y": 2.0354071132,
				"z": 2.0986178248,
				"element": "H" 
			},
			{
				"x": 2.1054020565,
				"y": 1.4349034225,
				"z": 3.0724601514,
				"element": "H" 
			}
		],
		 "valence_orbital": [ 
			{
				"type": "occ",
				"energy": -0.3164,
				"method": "rhf"
			},
			{
				"type": "occ",
				"energy": -0.29609,
				"method": "rhf"
			},
			{
				"type": "occ",
				"energy": -0.27107,
				"method": "rhf"
			},
			{
				"type": "occ",
				"energy": -0.25554,
				"method": "rhf"
			},
			{
				"type": "occ",
				"energy": -0.24496,
				"method": "rhf"
			},
			{
				"type": "unocc",
				"energy": -0.04615,
				"method": "rhf"
			},
			{
				"type": "unocc",
				"energy": -0.02723,
				"method": "rhf"
			},
			{
				"type": "unocc",
				"energy": -0.0216,
				"method": "rhf"
			},
			{
				"type": "unocc",
				"energy": 0.02949,
				"method": "rhf"
			},
			{
				"type": "unocc",
				"energy": 0.03757,
				"method": "rhf"
			}
		],
		"cosmo_sigma_profile": { 
			"0.0": 0.0,
			"0.0": 0.0,
			"0.0": 0.0,
			"0.0": 0.0,
			"0.0": 0.0,
			"0.0": 0.0,
			"0.0": 0.0,
			"0.0": 0.0,
			"0.0": 0.0,
			"0.0": 0.0,
			"0.0": 0.0,
			"0.0": 0.0,
			"0.0": 0.0,
			"0.0": 0.0,
			"0.0": 0.0,
			"0.0": 0.0,
			"0.0": 0.0,
			"0.0": 0.0,
			"0.0": 0.0,
			"0.0": 0.0,
			"0.0": 0.0,
			"0.0": 0.0,
			"0.0": 0.0,
			"0.0": 0.0,
			"0.0": 0.0,
			"0.0": 0.0,
			"0.0": 0.0,
			"0.0": 0.0,
			"0.0": 0.0,
			"0.0": 0.0,
			"0.0": 0.0,
			"0.0": 0.0,
			"0.0": 0.0,
			"0.0": 0.0,
			"0.0": 0.0,
			"0.0": 0.0,
			"0.0": 0.0,
			"0.0": 0.0,
			"0.0": 0.0,
			"0.0": 0.0,
			"0.0": 0.0,
			"0.0": 0.0,
			"0.0": 0.0,
			"0.0": 0.0,
			"0.0": 0.0,
			"0.0": 0.0,
			"0.0": 0.0,
			"0.0": 0.0,
			"0.0": 0.0,
			"0.0": 0.0,
			"0.0": 0.0
		}
	}
}
