{
	 "smiles": "NC1=CC=C(C=C1)S(=O)(=O)NC1=NC2=C(C=CC=C2)N=C1", 
	 "Tm": 521.15, 
	 "num_atms": 33, 
	 "gaussian": { 
		 "optdone": 1, 
		 "sigma_profile": "yes", 
		 "theory": "DFT", 
		 "functional": "B3LYP", 
		 "basiset": "6-31G**", 
		 "properties": { 
			 "R2extent": 7454.5332, 
			 "electric_dipole_moment_norm": 6.5416079025, 
			 "electric_quadrupole_moment_norm": 28.3131858467, 
			 "total_energy": -1308.30219617, 
			 "HOMO_LUMO_gap": 0.15426, 
			 "cosmo_polarized_energy": -23.91, 
			 "cosmo_cavitation_energy": 39.36, 
			 "cosmo_dispersion_energy": -28.43, 
			 "cosmo_repulsion_energy": 2.11, 
			 "cosmo_total_nonelectrostatic_energy": 13.03, 
			 "SMD_solvation_energy": 3.63 
		},
		"coords": [
			{
				"x": 5.32549461,
				"y": -0.6089700267,
				"z": 0.9031971191,
				"element": "N" 
			},
			{
				"x": 4.0311332363,
				"y": -0.4297345023,
				"z": 1.3538193997,
				"element": "C" 
			},
			{
				"x": 3.4949133613,
				"y": -1.2746525134,
				"z": 2.3475190348,
				"element": "C" 
			},
			{
				"x": 2.2133757716,
				"y": -1.0650728655,
				"z": 2.8352496037,
				"element": "C" 
			},
			{
				"x": 1.446260967,
				"y": -0.0082495251,
				"z": 2.3337166724,
				"element": "C" 
			},
			{
				"x": 1.9611198812,
				"y": 0.8452473935,
				"z": 1.3531975699,
				"element": "C" 
			},
			{
				"x": 3.2435421508,
				"y": 0.6341516239,
				"z": 0.868160249,
				"element": "C" 
			},
			{
				"x": -0.1797032501,
				"y": 0.2668850939,
				"z": 2.9829318814,
				"element": "S" 
			},
			{
				"x": -0.2824526641,
				"y": -0.3680236853,
				"z": 4.3009115277,
				"element": "O" 
			},
			{
				"x": -0.5467885555,
				"y": 1.6640185505,
				"z": 2.7735498912,
				"element": "O" 
			},
			{
				"x": -1.2085329633,
				"y": -0.7481944671,
				"z": 2.047947969,
				"element": "N" 
			},
			{
				"x": -1.6900299364,
				"y": -0.4763364273,
				"z": 0.7720823256,
				"element": "C" 
			},
			{
				"x": -1.039678696,
				"y": 0.3586896158,
				"z": -0.0054376973,
				"element": "N" 
			},
			{
				"x": -1.5511192918,
				"y": 0.5560142036,
				"z": -1.2564587814,
				"element": "C" 
			},
			{
				"x": -2.7249493561,
				"y": -0.1290253511,
				"z": -1.6940692046,
				"element": "C" 
			},
			{
				"x": -3.2262340009,
				"y": 0.0942893498,
				"z": -2.9986610136,
				"element": "C" 
			},
			{
				"x": -2.5809300822,
				"y": 0.9720071277,
				"z": -3.8436908016,
				"element": "C" 
			},
			{
				"x": -1.4168438217,
				"y": 1.6529704433,
				"z": -3.4114402981,
				"element": "C" 
			},
			{
				"x": -0.9082866962,
				"y": 1.4524679077,
				"z": -2.1451172376,
				"element": "C" 
			},
			{
				"x": -3.3739909658,
				"y": -1.001370508,
				"z": -0.8610362715,
				"element": "N" 
			},
			{
				"x": -2.8735877156,
				"y": -1.1657701027,
				"z": 0.334265011,
				"element": "C" 
			},
			{
				"x": 5.5674481457,
				"y": -0.1860631961,
				"z": 0.0195909863,
				"element": "H" 
			},
			{
				"x": 5.7418531343,
				"y": -1.5165905091,
				"z": 1.0481569008,
				"element": "H" 
			},
			{
				"x": 4.0976233646,
				"y": -2.0886540528,
				"z": 2.7411814484,
				"element": "H" 
			},
			{
				"x": 1.8084465225,
				"y": -1.7040835734,
				"z": 3.6122985965,
				"element": "H" 
			},
			{
				"x": 1.3505047211,
				"y": 1.6579042063,
				"z": 0.9793324056,
				"element": "H" 
			},
			{
				"x": 3.6510064745,
				"y": 1.2981654786,
				"z": 0.1105165895,
				"element": "H" 
			},
			{
				"x": -1.7801717134,
				"y": -1.3161869892,
				"z": 2.6625594648,
				"element": "H" 
			},
			{
				"x": -4.1210154909,
				"y": -0.4420154871,
				"z": -3.2981518994,
				"element": "H" 
			},
			{
				"x": -2.9636029849,
				"y": 1.1462646433,
				"z": -4.8447398398,
				"element": "H" 
			},
			{
				"x": -0.9210142684,
				"y": 2.3430498474,
				"z": -4.0881150465,
				"element": "H" 
			},
			{
				"x": -0.0191282185,
				"y": 1.9682854212,
				"z": -1.7976741841,
				"element": "H" 
			},
			{
				"x": -3.3840616688,
				"y": -1.8543171243,
				"z": 1.008507629,
				"element": "H" 
			}
		],
		 "valence_orbital": [ 
			{
				"type": "occ",
				"energy": -0.26671,
				"method": "rhf"
			},
			{
				"type": "occ",
				"energy": -0.25165,
				"method": "rhf"
			},
			{
				"type": "occ",
				"energy": -0.24925,
				"method": "rhf"
			},
			{
				"type": "occ",
				"energy": -0.23374,
				"method": "rhf"
			},
			{
				"type": "occ",
				"energy": -0.22088,
				"method": "rhf"
			},
			{
				"type": "unocc",
				"energy": -0.06662,
				"method": "rhf"
			},
			{
				"type": "unocc",
				"energy": -0.02401,
				"method": "rhf"
			},
			{
				"type": "unocc",
				"energy": -0.01914,
				"method": "rhf"
			},
			{
				"type": "unocc",
				"energy": -0.0138,
				"method": "rhf"
			},
			{
				"type": "unocc",
				"energy": 0.01031,
				"method": "rhf"
			}
		],
		"cosmo_sigma_profile": { 
			"-0.025": 0.0,
			"-0.024": 0.0,
			"-0.023": 0.0,
			"-0.022": 0.0,
			"-0.021": 0.0,
			"-0.02": 0.0,
			"-0.019": 0.0,
			"-0.018": 0.0,
			"-0.017": 0.0913749935919,
			"-0.016": 1.41164822512,
			"-0.015": 1.39989776915,
			"-0.014": 1.60039953436,
			"-0.013": 3.82407418734,
			"-0.012": 3.97060602491,
			"-0.011": 4.58687795628,
			"-0.01": 5.19468046075,
			"-0.009": 4.96331717084,
			"-0.008": 4.6525687256,
			"-0.007": 9.45666874489,
			"-0.006": 16.8740873716,
			"-0.005": 16.8785318121,
			"-0.004": 17.2445538648,
			"-0.003": 15.0601587478,
			"-0.002": 17.2842631342,
			"-0.001": 16.5662246032,
			"0.0": 16.5372158641,
			"0.001": 19.2644234614,
			"0.002": 25.9125106043,
			"0.003": 29.1383535385,
			"0.004": 25.305725801,
			"0.005": 7.28137858129,
			"0.006": 8.26531859768,
			"0.007": 6.34301505924,
			"0.008": 5.11781667682,
			"0.009": 6.00214024662,
			"0.01": 11.009334585,
			"0.011": 10.8946982996,
			"0.012": 2.22702078674,
			"0.013": 0.879401463369,
			"0.014": 0.520804063859,
			"0.015": 0.212879628939,
			"0.016": 0.0,
			"0.017": 0.0,
			"0.018": 0.0,
			"0.019": 0.0,
			"0.02": 0.0,
			"0.021": 0.0,
			"0.022": 0.0,
			"0.023": 0.0,
			"0.024": 0.0,
			"0.025": 0.0
		}
	}
}
