{
	 "smiles": "CN(C)C(=O)SC1=CC(CCl)=CC=C1", 
	 "Tm": 318.15, 
	 "num_atms": 26, 
	 "gaussian": { 
		 "optdone": 1, 
		 "sigma_profile": "yes", 
		 "theory": "DFT", 
		 "functional": "B3LYP", 
		 "basiset": "6-31G**", 
		 "properties": { 
			 "R2extent": 5045.4327, 
			 "electric_dipole_moment_norm": 3.70626996588, 
			 "electric_quadrupole_moment_norm": 21.4012628564, 
			 "total_energy": -1376.66587009, 
			 "HOMO_LUMO_gap": 0.20231, 
			 "cosmo_polarized_energy": -12.72, 
			 "cosmo_cavitation_energy": 33.09, 
			 "cosmo_dispersion_energy": -24.2, 
			 "cosmo_repulsion_energy": 1.9, 
			 "cosmo_total_nonelectrostatic_energy": 10.78, 
			 "SMD_solvation_energy": 5.77 
		},
		"coords": [
			{
				"x": -0.4014746918,
				"y": -3.9711480193,
				"z": -1.8290591565,
				"element": "C" 
			},
			{
				"x": 0.5010964533,
				"y": -2.8853709209,
				"z": -2.182654435,
				"element": "N" 
			},
			{
				"x": 1.6747760946,
				"y": -3.24932842,
				"z": -2.9715605497,
				"element": "C" 
			},
			{
				"x": 0.4472440901,
				"y": -1.6251061977,
				"z": -1.655824846,
				"element": "C" 
			},
			{
				"x": 1.2536616529,
				"y": -0.7453171314,
				"z": -1.8888749784,
				"element": "O" 
			},
			{
				"x": -1.0072577271,
				"y": -1.3409453131,
				"z": -0.5525942259,
				"element": "S" 
			},
			{
				"x": -0.70281463,
				"y": 0.3423390626,
				"z": -0.0328982583,
				"element": "C" 
			},
			{
				"x": -0.6693559378,
				"y": 0.6071988269,
				"z": 1.3390954728,
				"element": "C" 
			},
			{
				"x": -0.5272236928,
				"y": 1.9194686815,
				"z": 1.8072428202,
				"element": "C" 
			},
			{
				"x": -0.5111593171,
				"y": 2.1976987482,
				"z": 3.2803980536,
				"element": "C" 
			},
			{
				"x": 1.1859360549,
				"y": 2.1683598803,
				"z": 3.9869651286,
				"element": "Cl" 
			},
			{
				"x": -0.3955390996,
				"y": 2.9616014112,
				"z": 0.8821193964,
				"element": "C" 
			},
			{
				"x": -0.417085931,
				"y": 2.6961467018,
				"z": -0.4870206017,
				"element": "C" 
			},
			{
				"x": -0.5817396706,
				"y": 1.3922039916,
				"z": -0.9517015729,
				"element": "C" 
			},
			{
				"x": -0.5185486813,
				"y": -4.6266244943,
				"z": -2.6973673112,
				"element": "H" 
			},
			{
				"x": -0.0183973308,
				"y": -4.5698420613,
				"z": -0.9918990112,
				"element": "H" 
			},
			{
				"x": -1.3900171582,
				"y": -3.5920629729,
				"z": -1.5671004871,
				"element": "H" 
			},
			{
				"x": 2.3079387072,
				"y": -3.960686359,
				"z": -2.4255588061,
				"element": "H" 
			},
			{
				"x": 1.3614416407,
				"y": -3.7132252419,
				"z": -3.9133846675,
				"element": "H" 
			},
			{
				"x": 2.2476908995,
				"y": -2.3479106935,
				"z": -3.1799459754,
				"element": "H" 
			},
			{
				"x": -0.7505093796,
				"y": -0.2132821916,
				"z": 2.0461193747,
				"element": "H" 
			},
			{
				"x": -1.0692271575,
				"y": 1.4499775839,
				"z": 3.8439680074,
				"element": "H" 
			},
			{
				"x": -0.8998232932,
				"y": 3.189500222,
				"z": 3.5119325026,
				"element": "H" 
			},
			{
				"x": -0.2739939906,
				"y": 3.9818031125,
				"z": 1.2363526449,
				"element": "H" 
			},
			{
				"x": -0.316419568,
				"y": 3.5105889527,
				"z": -1.1981828754,
				"element": "H" 
			},
			{
				"x": -0.6062983361,
				"y": 1.1855628417,
				"z": -2.014565643,
				"element": "H" 
			}
		],
		 "valence_orbital": [ 
			{
				"type": "occ",
				"energy": -0.27796,
				"method": "rhf"
			},
			{
				"type": "occ",
				"energy": -0.26281,
				"method": "rhf"
			},
			{
				"type": "occ",
				"energy": -0.25391,
				"method": "rhf"
			},
			{
				"type": "occ",
				"energy": -0.25015,
				"method": "rhf"
			},
			{
				"type": "occ",
				"energy": -0.2337,
				"method": "rhf"
			},
			{
				"type": "unocc",
				"energy": -0.03139,
				"method": "rhf"
			},
			{
				"type": "unocc",
				"energy": -0.01708,
				"method": "rhf"
			},
			{
				"type": "unocc",
				"energy": 0.02639,
				"method": "rhf"
			},
			{
				"type": "unocc",
				"energy": 0.03256,
				"method": "rhf"
			},
			{
				"type": "unocc",
				"energy": 0.04286,
				"method": "rhf"
			}
		],
		"cosmo_sigma_profile": { 
			"-0.025": 0.0,
			"-0.024": 0.0,
			"-0.023": 0.0,
			"-0.022": 0.0,
			"-0.021": 0.0,
			"-0.02": 0.0,
			"-0.019": 0.0,
			"-0.018": 0.0,
			"-0.017": 0.0,
			"-0.016": 0.0,
			"-0.015": 0.0,
			"-0.014": 0.0,
			"-0.013": 0.0,
			"-0.012": 0.0,
			"-0.011": 0.0,
			"-0.01": 0.0,
			"-0.009": 0.0,
			"-0.008": 3.63967057801,
			"-0.007": 9.5941320879,
			"-0.006": 15.8635515566,
			"-0.005": 22.4191774727,
			"-0.004": 25.2217185095,
			"-0.003": 24.7517141389,
			"-0.002": 19.8343961548,
			"-0.001": 15.2682220151,
			"0.0": 13.8963482434,
			"0.001": 15.9949126619,
			"0.002": 16.3195681512,
			"0.003": 17.1350897196,
			"0.004": 18.0587963297,
			"0.005": 11.4660491262,
			"0.006": 12.9598600291,
			"0.007": 11.3416895832,
			"0.008": 1.75043948268,
			"0.009": 1.17991234152,
			"0.01": 1.92634102085,
			"0.011": 2.28721212757,
			"0.012": 3.67104988377,
			"0.013": 2.29929658499,
			"0.014": 0.0,
			"0.015": 0.0,
			"0.016": 0.0,
			"0.017": 0.0,
			"0.018": 0.0,
			"0.019": 0.0,
			"0.02": 0.0,
			"0.021": 0.0,
			"0.022": 0.0,
			"0.023": 0.0,
			"0.024": 0.0,
			"0.025": 0.0
		}
	}
}
