{
	 "smiles": "O=C1NC(=O)C2(CN3CCC2CC3)N1", 
	 "Tm": 572.15, 
	 "num_atms": 27, 
	 "gaussian": { 
		 "optdone": 1, 
		 "sigma_profile": "yes", 
		 "theory": "DFT", 
		 "functional": "B3LYP", 
		 "basiset": "6-31G**", 
		 "properties": { 
			 "R2extent": 2488.5306, 
			 "electric_dipole_moment_norm": 2.6952842262, 
			 "electric_quadrupole_moment_norm": 11.5458692358, 
			 "total_energy": -665.523381836, 
			 "HOMO_LUMO_gap": 0.20411, 
			 "cosmo_polarized_energy": -16.52, 
			 "cosmo_cavitation_energy": 27.3, 
			 "cosmo_dispersion_energy": -20.62, 
			 "cosmo_repulsion_energy": 1.59, 
			 "cosmo_total_nonelectrostatic_energy": 8.27, 
			 "SMD_solvation_energy": 1.68 
		},
		"coords": [
			{
				"x": -2.8739937915,
				"y": -2.9662547012,
				"z": -0.0829158879,
				"element": "O" 
			},
			{
				"x": -2.1423802653,
				"y": -2.0099894285,
				"z": -0.2339272606,
				"element": "C" 
			},
			{
				"x": -2.5496884662,
				"y": -0.6828838776,
				"z": -0.4880179925,
				"element": "N" 
			},
			{
				"x": -1.4944907268,
				"y": 0.1931000786,
				"z": -0.6146237997,
				"element": "C" 
			},
			{
				"x": -1.5602836642,
				"y": 1.3675823401,
				"z": -0.9239095279,
				"element": "O" 
			},
			{
				"x": -0.2181506362,
				"y": -0.6125366951,
				"z": -0.3057446458,
				"element": "C" 
			},
			{
				"x": 0.8623886556,
				"y": -0.4413976777,
				"z": -1.4380437796,
				"element": "C" 
			},
			{
				"x": 2.1478122141,
				"y": 0.0201269576,
				"z": -0.9195481828,
				"element": "N" 
			},
			{
				"x": 2.6529527025,
				"y": -0.9326839253,
				"z": 0.0803982555,
				"element": "C" 
			},
			{
				"x": 1.6766062475,
				"y": -1.060161912,
				"z": 1.2934870292,
				"element": "C" 
			},
			{
				"x": 0.4568029793,
				"y": -0.151182007,
				"z": 1.0266043686,
				"element": "C" 
			},
			{
				"x": 0.9656421473,
				"y": 1.2984684935,
				"z": 0.886808031,
				"element": "C" 
			},
			{
				"x": 1.978163723,
				"y": 1.3468050107,
				"z": -0.3002191248,
				"element": "C" 
			},
			{
				"x": -0.7714050194,
				"y": -1.9641547585,
				"z": -0.2151521516,
				"element": "N" 
			},
			{
				"x": -3.5144613033,
				"y": -0.4368092996,
				"z": -0.656968779,
				"element": "H" 
			},
			{
				"x": 0.9980980277,
				"y": -1.4037148637,
				"z": -1.9426226704,
				"element": "H" 
			},
			{
				"x": 0.5067286551,
				"y": 0.2848863156,
				"z": -2.1750068344,
				"element": "H" 
			},
			{
				"x": 3.641406039,
				"y": -0.592419223,
				"z": 0.4055798633,
				"element": "H" 
			},
			{
				"x": 2.7951479042,
				"y": -1.8993545896,
				"z": -0.4156575861,
				"element": "H" 
			},
			{
				"x": 2.1571131685,
				"y": -0.736444429,
				"z": 2.2229794143,
				"element": "H" 
			},
			{
				"x": 1.3709859156,
				"y": -2.0999817627,
				"z": 1.4579488872,
				"element": "H" 
			},
			{
				"x": -0.2693460655,
				"y": -0.2338199361,
				"z": 1.8422451399,
				"element": "H" 
			},
			{
				"x": 0.1338703895,
				"y": 1.9840583997,
				"z": 0.7164421156,
				"element": "H" 
			},
			{
				"x": 1.4466800653,
				"y": 1.5885272948,
				"z": 1.8277374016,
				"element": "H" 
			},
			{
				"x": 2.9631608674,
				"y": 1.6937614612,
				"z": 0.0291389964,
				"element": "H" 
			},
			{
				"x": 1.6296058315,
				"y": 2.0363037538,
				"z": -1.0748574381,
				"element": "H" 
			},
			{
				"x": -0.2592655949,
				"y": -2.7642310189,
				"z": 0.1216461584,
				"element": "H" 
			}
		],
		 "valence_orbital": [ 
			{
				"type": "occ",
				"energy": -0.29069,
				"method": "rhf"
			},
			{
				"type": "occ",
				"energy": -0.28714,
				"method": "rhf"
			},
			{
				"type": "occ",
				"energy": -0.27139,
				"method": "rhf"
			},
			{
				"type": "occ",
				"energy": -0.26326,
				"method": "rhf"
			},
			{
				"type": "occ",
				"energy": -0.21725,
				"method": "rhf"
			},
			{
				"type": "unocc",
				"energy": -0.01314,
				"method": "rhf"
			},
			{
				"type": "unocc",
				"energy": 0.05186,
				"method": "rhf"
			},
			{
				"type": "unocc",
				"energy": 0.05869,
				"method": "rhf"
			},
			{
				"type": "unocc",
				"energy": 0.08172,
				"method": "rhf"
			},
			{
				"type": "unocc",
				"energy": 0.08574,
				"method": "rhf"
			}
		],
		"cosmo_sigma_profile": { 
			"-0.025": 0.0,
			"-0.024": 0.0,
			"-0.023": 0.0,
			"-0.022": 0.0,
			"-0.021": 0.0,
			"-0.02": 0.0,
			"-0.019": 0.0,
			"-0.018": 0.0,
			"-0.017": 0.313688985656,
			"-0.016": 1.11554210475,
			"-0.015": 1.53177251878,
			"-0.014": 1.66623803339,
			"-0.013": 2.26028609387,
			"-0.012": 1.46212119764,
			"-0.011": 2.07106927991,
			"-0.01": 2.26631261571,
			"-0.009": 2.0707114152,
			"-0.008": 2.44299998059,
			"-0.007": 2.19283748368,
			"-0.006": 3.23340295727,
			"-0.005": 9.11624968678,
			"-0.004": 18.896803903,
			"-0.003": 29.7035461776,
			"-0.002": 24.7509566112,
			"-0.001": 23.3511674117,
			"0.0": 16.3810323638,
			"0.001": 7.8985192229,
			"0.002": 5.30929872558,
			"0.003": 5.32196418595,
			"0.004": 3.75296879405,
			"0.005": 3.92199152936,
			"0.006": 3.13690248403,
			"0.007": 3.72561252358,
			"0.008": 2.7297544525,
			"0.009": 3.42324606583,
			"0.01": 4.08534954603,
			"0.011": 4.88419632503,
			"0.012": 8.20477675676,
			"0.013": 8.61379740458,
			"0.014": 1.45861931847,
			"0.015": 0.659277670741,
			"0.016": 0.549972322354,
			"0.017": 0.288651922801,
			"0.018": 0.0,
			"0.019": 0.0,
			"0.02": 0.0,
			"0.021": 0.0,
			"0.022": 0.0,
			"0.023": 0.0,
			"0.024": 0.0,
			"0.025": 0.0
		}
	}
}
