{
	 "smiles": "CC(=CC1=CC=CC=C1)C1=CC=CC=C1", 
	 "Tm": 355.15, 
	 "num_atms": 29, 
	 "gaussian": { 
		 "optdone": 1, 
		 "sigma_profile": "yes", 
		 "theory": "DFT", 
		 "functional": "B3LYP", 
		 "basiset": "6-31G**", 
		 "properties": { 
			 "R2extent": 4206.9932, 
			 "electric_dipole_moment_norm": 0.487420783307, 
			 "electric_quadrupole_moment_norm": 5.47767422361, 
			 "total_energy": -580.027680515, 
			 "HOMO_LUMO_gap": 0.17738, 
			 "cosmo_polarized_energy": -5.56, 
			 "cosmo_cavitation_energy": 32.21, 
			 "cosmo_dispersion_energy": -22.53, 
			 "cosmo_repulsion_energy": 1.78, 
			 "cosmo_total_nonelectrostatic_energy": 11.46, 
			 "SMD_solvation_energy": 5.45 
		},
		"coords": [
			{
				"x": -3.2523645922,
				"y": -0.9752722992,
				"z": -0.7819871825,
				"element": "C" 
			},
			{
				"x": -1.9533044705,
				"y": -0.2339649433,
				"z": -1.0123466721,
				"element": "C" 
			},
			{
				"x": -1.9438462259,
				"y": 1.1158987305,
				"z": -1.0450622058,
				"element": "C" 
			},
			{
				"x": -0.8236384741,
				"y": 2.0659782077,
				"z": -1.1771638912,
				"element": "C" 
			},
			{
				"x": 0.4840779211,
				"y": 1.8051693931,
				"z": -0.7254851876,
				"element": "C" 
			},
			{
				"x": 1.4872782968,
				"y": 2.763706603,
				"z": -0.8520386676,
				"element": "C" 
			},
			{
				"x": 1.2135974606,
				"y": 4.007131287,
				"z": -1.4274826341,
				"element": "C" 
			},
			{
				"x": -0.0817265765,
				"y": 4.289061698,
				"z": -1.8647794979,
				"element": "C" 
			},
			{
				"x": -1.0866639944,
				"y": 3.3327487962,
				"z": -1.7321454717,
				"element": "C" 
			},
			{
				"x": -0.7611603405,
				"y": -1.100746287,
				"z": -1.2477543082,
				"element": "C" 
			},
			{
				"x": -0.3808621197,
				"y": -2.0794174502,
				"z": -0.31445095,
				"element": "C" 
			},
			{
				"x": 0.7086303778,
				"y": -2.9167042599,
				"z": -0.5580625161,
				"element": "C" 
			},
			{
				"x": 1.4287997662,
				"y": -2.8032884518,
				"z": -1.7484137514,
				"element": "C" 
			},
			{
				"x": 1.0529276668,
				"y": -1.8440977253,
				"z": -2.6914928987,
				"element": "C" 
			},
			{
				"x": -0.0302530228,
				"y": -1.0020938673,
				"z": -2.4437816069,
				"element": "C" 
			},
			{
				"x": -3.4750299399,
				"y": -1.6481308682,
				"z": -1.6193225542,
				"element": "H" 
			},
			{
				"x": -3.1977309843,
				"y": -1.6056433051,
				"z": 0.1143545828,
				"element": "H" 
			},
			{
				"x": -4.0915804336,
				"y": -0.2858034524,
				"z": -0.6557973648,
				"element": "H" 
			},
			{
				"x": -2.916078164,
				"y": 1.6018100172,
				"z": -0.9581895473,
				"element": "H" 
			},
			{
				"x": 0.7100048203,
				"y": 0.8527331465,
				"z": -0.2603771715,
				"element": "H" 
			},
			{
				"x": 2.4877218687,
				"y": 2.5408745969,
				"z": -0.4912579688,
				"element": "H" 
			},
			{
				"x": 1.9990013616,
				"y": 4.75134136,
				"z": -1.5235476857,
				"element": "H" 
			},
			{
				"x": -0.311586387,
				"y": 5.2557853961,
				"z": -2.3043059536,
				"element": "H" 
			},
			{
				"x": -2.0951734417,
				"y": 3.5620825584,
				"z": -2.0679713033,
				"element": "H" 
			},
			{
				"x": -0.9320632393,
				"y": -2.1757828708,
				"z": 0.6169521358,
				"element": "H" 
			},
			{
				"x": 0.9930128769,
				"y": -3.6593351576,
				"z": 0.1823157024,
				"element": "H" 
			},
			{
				"x": 2.2731911146,
				"y": -3.4588411511,
				"z": -1.9412176888,
				"element": "H" 
			},
			{
				"x": 1.6025119617,
				"y": -1.7529038103,
				"z": -3.6242771426,
				"element": "H" 
			},
			{
				"x": -0.3208930867,
				"y": -0.2583958907,
				"z": -3.1792105986,
				"element": "H" 
			}
		],
		 "valence_orbital": [ 
			{
				"type": "occ",
				"energy": -0.28198,
				"method": "rhf"
			},
			{
				"type": "occ",
				"energy": -0.25208,
				"method": "rhf"
			},
			{
				"type": "occ",
				"energy": -0.24781,
				"method": "rhf"
			},
			{
				"type": "occ",
				"energy": -0.24159,
				"method": "rhf"
			},
			{
				"type": "occ",
				"energy": -0.20766,
				"method": "rhf"
			},
			{
				"type": "unocc",
				"energy": -0.03028,
				"method": "rhf"
			},
			{
				"type": "unocc",
				"energy": -0.00326,
				"method": "rhf"
			},
			{
				"type": "unocc",
				"energy": 0.00576,
				"method": "rhf"
			},
			{
				"type": "unocc",
				"energy": 0.01062,
				"method": "rhf"
			},
			{
				"type": "unocc",
				"energy": 0.06211,
				"method": "rhf"
			}
		],
		"cosmo_sigma_profile": { 
			"-0.025": 0.0,
			"-0.024": 0.0,
			"-0.023": 0.0,
			"-0.022": 0.0,
			"-0.021": 0.0,
			"-0.02": 0.0,
			"-0.019": 0.0,
			"-0.018": 0.0,
			"-0.017": 0.0,
			"-0.016": 0.0,
			"-0.015": 0.0,
			"-0.014": 0.0,
			"-0.013": 0.0,
			"-0.012": 0.0,
			"-0.011": 0.0,
			"-0.01": 0.0,
			"-0.009": 0.0,
			"-0.008": 0.0,
			"-0.007": 0.0,
			"-0.006": 5.03473271503,
			"-0.005": 20.4543532812,
			"-0.004": 27.9399651087,
			"-0.003": 28.0013049677,
			"-0.002": 19.8650141287,
			"-0.001": 21.7072172976,
			"0.0": 21.8903313093,
			"0.001": 18.8288036673,
			"0.002": 18.3945001818,
			"0.003": 19.0946255424,
			"0.004": 19.7741659625,
			"0.005": 20.2511727089,
			"0.006": 13.9030375184,
			"0.007": 1.59245264742,
			"0.008": 0.0,
			"0.009": 0.0,
			"0.01": 0.0,
			"0.011": 0.0,
			"0.012": 0.0,
			"0.013": 0.0,
			"0.014": 0.0,
			"0.015": 0.0,
			"0.016": 0.0,
			"0.017": 0.0,
			"0.018": 0.0,
			"0.019": 0.0,
			"0.02": 0.0,
			"0.021": 0.0,
			"0.022": 0.0,
			"0.023": 0.0,
			"0.024": 0.0,
			"0.025": 0.0
		}
	}
}
