{
	 "smiles": "OC(=O)C1CCCCN1", 
	 "Tm": 550.15, 
	 "num_atms": 20, 
	 "gaussian": { 
		 "optdone": 1, 
		 "sigma_profile": "yes", 
		 "theory": "DFT", 
		 "functional": "B3LYP", 
		 "basiset": "6-31G**", 
		 "properties": { 
			 "R2extent": 1328.6881, 
			 "electric_dipole_moment_norm": 5.42371195585, 
			 "electric_quadrupole_moment_norm": 14.8260426183, 
			 "total_energy": -440.479384034, 
			 "HOMO_LUMO_gap": 0.25847, 
			 "cosmo_polarized_energy": -12.8, 
			 "cosmo_cavitation_energy": 21.24, 
			 "cosmo_dispersion_energy": -16.18, 
			 "cosmo_repulsion_energy": 1.33, 
			 "cosmo_total_nonelectrostatic_energy": 6.4, 
			 "SMD_solvation_energy": 3.62 
		},
		"coords": [
			{
				"x": -1.3762074735,
				"y": 1.9395997215,
				"z": 1.9293719798,
				"element": "O" 
			},
			{
				"x": -0.1334682601,
				"y": 1.4519128964,
				"z": 1.8333506989,
				"element": "C" 
			},
			{
				"x": 0.5288096733,
				"y": 1.0989940792,
				"z": 2.7827931679,
				"element": "O" 
			},
			{
				"x": 0.3958669017,
				"y": 1.3989295189,
				"z": 0.3777612046,
				"element": "C" 
			},
			{
				"x": 1.0329806676,
				"y": 0.0327418119,
				"z": 0.0830610515,
				"element": "C" 
			},
			{
				"x": -0.0205114681,
				"y": -1.0948215477,
				"z": 0.0529166578,
				"element": "C" 
			},
			{
				"x": -1.3709895101,
				"y": -0.6123207494,
				"z": -0.5396845663,
				"element": "C" 
			},
			{
				"x": -1.1891065984,
				"y": 0.6379947585,
				"z": -1.4013290786,
				"element": "C" 
			},
			{
				"x": -0.7027749778,
				"y": 1.7504734593,
				"z": -0.5582975869,
				"element": "N" 
			},
			{
				"x": -1.6274866384,
				"y": 2.1049369515,
				"z": 0.9820789718,
				"element": "H" 
			},
			{
				"x": 1.1705258774,
				"y": 2.1730239208,
				"z": 0.3233237897,
				"element": "H" 
			},
			{
				"x": 1.7894888309,
				"y": -0.1647891022,
				"z": 0.8460953786,
				"element": "H" 
			},
			{
				"x": 1.5513968605,
				"y": 0.0947052811,
				"z": -0.8807439115,
				"element": "H" 
			},
			{
				"x": -0.1819562552,
				"y": -1.4711106377,
				"z": 1.0678368716,
				"element": "H" 
			},
			{
				"x": 0.3741979055,
				"y": -1.9331346721,
				"z": -0.5311378883,
				"element": "H" 
			},
			{
				"x": -2.0707261461,
				"y": -0.3692368539,
				"z": 0.2682837379,
				"element": "H" 
			},
			{
				"x": -1.8408346094,
				"y": -1.4021194372,
				"z": -1.1342549147,
				"element": "H" 
			},
			{
				"x": -0.4992616382,
				"y": 0.4177966033,
				"z": -2.23217959,
				"element": "H" 
			},
			{
				"x": -2.1412609839,
				"y": 0.9453953075,
				"z": -1.8469225544,
				"element": "H" 
			},
			{
				"x": -0.4359821579,
				"y": 2.5375286904,
				"z": -1.1401234196,
				"element": "H" 
			}
		],
		 "valence_orbital": [ 
			{
				"type": "occ",
				"energy": -0.32862,
				"method": "rhf"
			},
			{
				"type": "occ",
				"energy": -0.32598,
				"method": "rhf"
			},
			{
				"type": "occ",
				"energy": -0.29462,
				"method": "rhf"
			},
			{
				"type": "occ",
				"energy": -0.27741,
				"method": "rhf"
			},
			{
				"type": "occ",
				"energy": -0.23819,
				"method": "rhf"
			},
			{
				"type": "unocc",
				"energy": 0.02028,
				"method": "rhf"
			},
			{
				"type": "unocc",
				"energy": 0.06084,
				"method": "rhf"
			},
			{
				"type": "unocc",
				"energy": 0.0935,
				"method": "rhf"
			},
			{
				"type": "unocc",
				"energy": 0.10729,
				"method": "rhf"
			},
			{
				"type": "unocc",
				"energy": 0.12642,
				"method": "rhf"
			}
		],
		"cosmo_sigma_profile": { 
			"-0.025": 0.0,
			"-0.024": 0.0,
			"-0.023": 0.0,
			"-0.022": 0.0,
			"-0.021": 0.0,
			"-0.02": 0.0,
			"-0.019": 0.0,
			"-0.018": 0.0,
			"-0.017": 0.0,
			"-0.016": 0.0,
			"-0.015": 0.0,
			"-0.014": 0.0,
			"-0.013": 0.0,
			"-0.012": 1.0663205444,
			"-0.011": 1.82108973314,
			"-0.01": 1.34908931971,
			"-0.009": 1.45559315656,
			"-0.008": 3.21353002075,
			"-0.007": 4.6208585672,
			"-0.006": 4.55209968151,
			"-0.005": 4.05532758198,
			"-0.004": 11.5777629244,
			"-0.003": 24.5339710453,
			"-0.002": 24.0453177996,
			"-0.001": 20.8550887383,
			"0.0": 15.0750320252,
			"0.001": 7.00697989023,
			"0.002": 2.15910668019,
			"0.003": 2.67419447319,
			"0.004": 1.95595617225,
			"0.005": 2.37375607987,
			"0.006": 2.07906327095,
			"0.007": 2.44863890851,
			"0.008": 2.11555226148,
			"0.009": 3.30231334276,
			"0.01": 3.55899916632,
			"0.011": 4.94200434449,
			"0.012": 5.36218638679,
			"0.013": 4.73456179937,
			"0.014": 1.58735155646,
			"0.015": 0.0255901510988,
			"0.016": 0.0,
			"0.017": 0.0,
			"0.018": 0.0,
			"0.019": 0.0,
			"0.02": 0.0,
			"0.021": 0.0,
			"0.022": 0.0,
			"0.023": 0.0,
			"0.024": 0.0,
			"0.025": 0.0
		}
	}
}
