{
	 "smiles": "NC1=CC=C(C=C1)S(=O)(=O)NC1=CN=CC=N1", 
	 "Tm": 524.15, 
	 "num_atms": 27, 
	 "gaussian": { 
		 "optdone": 1, 
		 "sigma_profile": "yes", 
		 "theory": "DFT", 
		 "functional": "B3LYP", 
		 "basiset": "6-31G**", 
		 "properties": { 
			 "R2extent": 5119.9801, 
			 "electric_dipole_moment_norm": 7.74803731599, 
			 "electric_quadrupole_moment_norm": 10.4154546151, 
			 "total_energy": -1154.65528693, 
			 "HOMO_LUMO_gap": 0.17528, 
			 "cosmo_polarized_energy": -21.06, 
			 "cosmo_cavitation_energy": 33.25, 
			 "cosmo_dispersion_energy": -24.15, 
			 "cosmo_repulsion_energy": 1.83, 
			 "cosmo_total_nonelectrostatic_energy": 10.93, 
			 "SMD_solvation_energy": 2.08 
		},
		"coords": [
			{
				"x": 1.2716256634,
				"y": 1.8825920275,
				"z": 3.0896850817,
				"element": "N" 
			},
			{
				"x": 0.7762228869,
				"y": 1.5976817191,
				"z": 1.8329621482,
				"element": "C" 
			},
			{
				"x": -0.6125767483,
				"y": 1.5994531318,
				"z": 1.5908306104,
				"element": "C" 
			},
			{
				"x": -1.1096222927,
				"y": 1.3606958521,
				"z": 0.3171873659,
				"element": "C" 
			},
			{
				"x": -0.2250693843,
				"y": 1.1125951502,
				"z": -0.7385194155,
				"element": "C" 
			},
			{
				"x": 1.1577364785,
				"y": 1.1161238848,
				"z": -0.5186723937,
				"element": "C" 
			},
			{
				"x": 1.652923576,
				"y": 1.3565189914,
				"z": 0.7539898373,
				"element": "C" 
			},
			{
				"x": -0.8534551873,
				"y": 0.7687870195,
				"z": -2.3660488245,
				"element": "S" 
			},
			{
				"x": -2.2281221062,
				"y": 1.2635102541,
				"z": -2.4351186208,
				"element": "O" 
			},
			{
				"x": 0.1670171379,
				"y": 1.1288699849,
				"z": -3.3486710763,
				"element": "O" 
			},
			{
				"x": -0.9393276153,
				"y": -0.932526562,
				"z": -2.5094254347,
				"element": "N" 
			},
			{
				"x": -1.7128822004,
				"y": -1.78437914,
				"z": -1.7069829186,
				"element": "C" 
			},
			{
				"x": -3.0258948253,
				"y": -1.477776355,
				"z": -1.291915042,
				"element": "C" 
			},
			{
				"x": -3.7271138791,
				"y": -2.3307755307,
				"z": -0.547546736,
				"element": "N" 
			},
			{
				"x": -3.1456607185,
				"y": -3.4986308659,
				"z": -0.2384051266,
				"element": "C" 
			},
			{
				"x": -1.8617650952,
				"y": -3.8087178214,
				"z": -0.6794290929,
				"element": "C" 
			},
			{
				"x": -1.1337508084,
				"y": -2.9502402637,
				"z": -1.4021167879,
				"element": "N" 
			},
			{
				"x": 2.2220385584,
				"y": 1.6084005261,
				"z": 3.2877424177,
				"element": "H" 
			},
			{
				"x": 0.6420799241,
				"y": 1.779887858,
				"z": 3.8712660977,
				"element": "H" 
			},
			{
				"x": -1.2987405078,
				"y": 1.8025318805,
				"z": 2.40850314,
				"element": "H" 
			},
			{
				"x": -2.1774824398,
				"y": 1.3848524176,
				"z": 0.1320556316,
				"element": "H" 
			},
			{
				"x": 1.8369596323,
				"y": 0.95063197,
				"z": -1.3482839966,
				"element": "H" 
			},
			{
				"x": 2.726280953,
				"y": 1.3721709219,
				"z": 0.9225483712,
				"element": "H" 
			},
			{
				"x": -0.0328104035,
				"y": -1.3330183439,
				"z": -2.735960645,
				"element": "H" 
			},
			{
				"x": -3.4953816306,
				"y": -0.5431455671,
				"z": -1.5799770417,
				"element": "H" 
			},
			{
				"x": -3.7201652282,
				"y": -4.1988091448,
				"z": 0.3627944909,
				"element": "H" 
			},
			{
				"x": -1.3992637394,
				"y": -4.764683995,
				"z": -0.4427920397,
				"element": "H" 
			}
		],
		 "valence_orbital": [ 
			{
				"type": "occ",
				"energy": -0.30414,
				"method": "rhf"
			},
			{
				"type": "occ",
				"energy": -0.2742,
				"method": "rhf"
			},
			{
				"type": "occ",
				"energy": -0.25577,
				"method": "rhf"
			},
			{
				"type": "occ",
				"energy": -0.24928,
				"method": "rhf"
			},
			{
				"type": "occ",
				"energy": -0.22682,
				"method": "rhf"
			},
			{
				"type": "unocc",
				"energy": -0.05154,
				"method": "rhf"
			},
			{
				"type": "unocc",
				"energy": -0.03457,
				"method": "rhf"
			},
			{
				"type": "unocc",
				"energy": -0.02186,
				"method": "rhf"
			},
			{
				"type": "unocc",
				"energy": -0.01602,
				"method": "rhf"
			},
			{
				"type": "unocc",
				"energy": 0.05388,
				"method": "rhf"
			}
		],
		"cosmo_sigma_profile": { 
			"-0.025": 0.0,
			"-0.024": 0.0,
			"-0.023": 0.0,
			"-0.022": 0.0,
			"-0.021": 0.0,
			"-0.02": 0.0,
			"-0.019": 0.0,
			"-0.018": 0.0,
			"-0.017": 0.0,
			"-0.016": 0.00549445650389,
			"-0.015": 0.422733115257,
			"-0.014": 1.7562481846,
			"-0.013": 3.83569442696,
			"-0.012": 3.28052525722,
			"-0.011": 4.66523049969,
			"-0.01": 3.7909214771,
			"-0.009": 3.32767546038,
			"-0.008": 6.65485744596,
			"-0.007": 13.1112139556,
			"-0.006": 13.5837845402,
			"-0.005": 13.3989481233,
			"-0.004": 12.331635954,
			"-0.003": 11.6210753864,
			"-0.002": 13.9655098092,
			"-0.001": 18.0351656018,
			"0.0": 19.6531545246,
			"0.001": 16.5911097248,
			"0.002": 14.6949680497,
			"0.003": 19.3419355778,
			"0.004": 15.7276457525,
			"0.005": 6.16516424478,
			"0.006": 7.57124223314,
			"0.007": 7.49831557489,
			"0.008": 5.01671550296,
			"0.009": 7.16367996816,
			"0.01": 9.49899965187,
			"0.011": 8.81306307274,
			"0.012": 2.68429639839,
			"0.013": 1.14086874981,
			"0.014": 0.766319822503,
			"0.015": 0.564926539682,
			"0.016": 0.0203544545673,
			"0.017": 0.0,
			"0.018": 0.0,
			"0.019": 0.0,
			"0.02": 0.0,
			"0.021": 0.0,
			"0.022": 0.0,
			"0.023": 0.0,
			"0.024": 0.0,
			"0.025": 0.0
		}
	}
}
