{
	 "smiles": "CCCCCCCCC#CC", 
	 "Tm": 243.05, 
	 "num_atms": 31, 
	 "gaussian": { 
		 "optdone": 1, 
		 "sigma_profile": "yes", 
		 "theory": "DFT", 
		 "functional": "B3LYP", 
		 "basiset": "6-31G**", 
		 "properties": { 
			 "R2extent": 4300.2457, 
			 "electric_dipole_moment_norm": 0.214343672638, 
			 "electric_quadrupole_moment_norm": 3.97225668858, 
			 "total_energy": -431.188608134, 
			 "HOMO_LUMO_gap": 0.29682, 
			 "cosmo_polarized_energy": -3.29, 
			 "cosmo_cavitation_energy": 32.73, 
			 "cosmo_dispersion_energy": -22.57, 
			 "cosmo_repulsion_energy": 1.91, 
			 "cosmo_total_nonelectrostatic_energy": 12.07, 
			 "SMD_solvation_energy": 5.33 
		},
		"coords": [
			{
				"x": -3.1080461041,
				"y": -0.4289716425,
				"z": -2.669021537,
				"element": "C" 
			},
			{
				"x": -2.1338043631,
				"y": -0.3901240027,
				"z": -1.4868493297,
				"element": "C" 
			},
			{
				"x": -2.3479498528,
				"y": -1.5435651508,
				"z": -0.4968448364,
				"element": "C" 
			},
			{
				"x": -1.449954814,
				"y": -1.4950336447,
				"z": 0.7523142403,
				"element": "C" 
			},
			{
				"x": 0.0663020074,
				"y": -1.6111289806,
				"z": 0.5098552971,
				"element": "C" 
			},
			{
				"x": 0.501880375,
				"y": -2.9513511035,
				"z": -0.1011247076,
				"element": "C" 
			},
			{
				"x": 2.0125838155,
				"y": -3.1149602637,
				"z": -0.3420714044,
				"element": "C" 
			},
			{
				"x": 2.8869675391,
				"y": -3.2940763986,
				"z": 0.9237095836,
				"element": "C" 
			},
			{
				"x": 3.1402534306,
				"y": -2.0799302462,
				"z": 1.704685246,
				"element": "C" 
			},
			{
				"x": 3.3889261039,
				"y": -1.0832772922,
				"z": 2.3447145631,
				"element": "C" 
			},
			{
				"x": 3.6763664832,
				"y": 0.1228224052,
				"z": 3.1169989019,
				"element": "C" 
			},
			{
				"x": -4.147972431,
				"y": -0.3683948484,
				"z": -2.327778586,
				"element": "H" 
			},
			{
				"x": -2.9357729709,
				"y": 0.4031720626,
				"z": -3.3597345798,
				"element": "H" 
			},
			{
				"x": -3.0032489881,
				"y": -1.359880316,
				"z": -3.238347659,
				"element": "H" 
			},
			{
				"x": -1.1047528973,
				"y": -0.410380762,
				"z": -1.86748841,
				"element": "H" 
			},
			{
				"x": -2.2408224163,
				"y": 0.5655182688,
				"z": -0.9548469527,
				"element": "H" 
			},
			{
				"x": -3.3964362203,
				"y": -1.5332081346,
				"z": -0.1681539333,
				"element": "H" 
			},
			{
				"x": -2.2134602121,
				"y": -2.4991127668,
				"z": -1.0218906733,
				"element": "H" 
			},
			{
				"x": -1.7581421276,
				"y": -2.2977671425,
				"z": 1.4366503623,
				"element": "H" 
			},
			{
				"x": -1.6459034863,
				"y": -0.5547388994,
				"z": 1.2859268331,
				"element": "H" 
			},
			{
				"x": 0.5818646275,
				"y": -1.4632310702,
				"z": 1.4640571656,
				"element": "H" 
			},
			{
				"x": 0.4069380611,
				"y": -0.7933549559,
				"z": -0.139453042,
				"element": "H" 
			},
			{
				"x": 0.1522701669,
				"y": -3.7733637724,
				"z": 0.5413205049,
				"element": "H" 
			},
			{
				"x": -0.0044459825,
				"y": -3.0910820302,
				"z": -1.0649179544,
				"element": "H" 
			},
			{
				"x": 2.3942568794,
				"y": -2.2663969642,
				"z": -0.9234140679,
				"element": "H" 
			},
			{
				"x": 2.1643086809,
				"y": -4.0075242763,
				"z": -0.9619775313,
				"element": "H" 
			},
			{
				"x": 2.4274265277,
				"y": -4.0565806318,
				"z": 1.5688032196,
				"element": "H" 
			},
			{
				"x": 3.8558635771,
				"y": -3.7108550925,
				"z": 0.6165668159,
				"element": "H" 
			},
			{
				"x": 3.0018321367,
				"y": 0.9419894163,
				"z": 2.8420814867,
				"element": "H" 
			},
			{
				"x": 3.5586574323,
				"y": -0.0545631122,
				"z": 4.1922536034,
				"element": "H" 
			},
			{
				"x": 4.7026150219,
				"y": 0.4698513482,
				"z": 2.949977381,
				"element": "H" 
			}
		],
		 "valence_orbital": [ 
			{
				"type": "occ",
				"energy": -0.30855,
				"method": "rhf"
			},
			{
				"type": "occ",
				"energy": -0.30417,
				"method": "rhf"
			},
			{
				"type": "occ",
				"energy": -0.29999,
				"method": "rhf"
			},
			{
				"type": "occ",
				"energy": -0.24018,
				"method": "rhf"
			},
			{
				"type": "occ",
				"energy": -0.23706,
				"method": "rhf"
			},
			{
				"type": "unocc",
				"energy": 0.05976,
				"method": "rhf"
			},
			{
				"type": "unocc",
				"energy": 0.06758,
				"method": "rhf"
			},
			{
				"type": "unocc",
				"energy": 0.08721,
				"method": "rhf"
			},
			{
				"type": "unocc",
				"energy": 0.11118,
				"method": "rhf"
			},
			{
				"type": "unocc",
				"energy": 0.11494,
				"method": "rhf"
			}
		],
		"cosmo_sigma_profile": { 
			"-0.025": 0.0,
			"-0.024": 0.0,
			"-0.023": 0.0,
			"-0.022": 0.0,
			"-0.021": 0.0,
			"-0.02": 0.0,
			"-0.019": 0.0,
			"-0.018": 0.0,
			"-0.017": 0.0,
			"-0.016": 0.0,
			"-0.015": 0.0,
			"-0.014": 0.0,
			"-0.013": 0.0,
			"-0.012": 0.0,
			"-0.011": 0.0,
			"-0.01": 0.0,
			"-0.009": 0.0,
			"-0.008": 0.0,
			"-0.007": 0.0,
			"-0.006": 0.836957761822,
			"-0.005": 6.42827269185,
			"-0.004": 8.82948728056,
			"-0.003": 15.5160200294,
			"-0.002": 36.2097996105,
			"-0.001": 49.6682062525,
			"0.0": 45.8992107417,
			"0.001": 39.3932242729,
			"0.002": 21.0775643424,
			"0.003": 5.70379364404,
			"0.004": 5.0018313739,
			"0.005": 4.49117845084,
			"0.006": 4.09517849303,
			"0.007": 5.3005723794,
			"0.008": 4.80625687435,
			"0.009": 0.0878658377591,
			"0.01": 0.0,
			"0.011": 0.0,
			"0.012": 0.0,
			"0.013": 0.0,
			"0.014": 0.0,
			"0.015": 0.0,
			"0.016": 0.0,
			"0.017": 0.0,
			"0.018": 0.0,
			"0.019": 0.0,
			"0.02": 0.0,
			"0.021": 0.0,
			"0.022": 0.0,
			"0.023": 0.0,
			"0.024": 0.0,
			"0.025": 0.0
		}
	}
}
