{
	 "smiles": "OC(=O)C1=CC(=CN1CC1=C(Br)C=CS1)[N+]([O-])=O", 
	 "Tm": 464.15, 
	 "num_atms": 25, 
	 "gaussian": { 
		 "optdone": 1, 
		 "sigma_profile": "yes", 
		 "theory": "DFT", 
		 "functional": "B3LYP", 
		 "basiset": "6-31G**", 
		 "properties": { 
			 "R2extent": 7128.8182, 
			 "electric_dipole_moment_norm": 6.52129824575, 
			 "electric_quadrupole_moment_norm": 20.230113972, 
			 "total_energy": -3765.15579424, 
			 "HOMO_LUMO_gap": 0.17529, 
			 "cosmo_polarized_energy": -18.27, 
			 "cosmo_cavitation_energy": 35.02, 
			 "cosmo_dispersion_energy": -24.97, 
			 "cosmo_repulsion_energy": 1.89, 
			 "cosmo_total_nonelectrostatic_energy": 11.94, 
			 "SMD_solvation_energy": 8.6 
		},
		"coords": [
			{
				"x": 0.6267800506,
				"y": 2.3643892822,
				"z": 1.0026276271,
				"element": "O" 
			},
			{
				"x": -0.6029916308,
				"y": 2.0784481459,
				"z": 1.5001390383,
				"element": "C" 
			},
			{
				"x": -1.4654213999,
				"y": 2.9213133732,
				"z": 1.6384469273,
				"element": "O" 
			},
			{
				"x": -0.7832037508,
				"y": 0.6695654321,
				"z": 1.8678901233,
				"element": "C" 
			},
			{
				"x": -1.9065220475,
				"y": 0.1682696575,
				"z": 2.500390559,
				"element": "C" 
			},
			{
				"x": -1.6702436996,
				"y": -1.2045390166,
				"z": 2.7013343648,
				"element": "C" 
			},
			{
				"x": -0.4199016028,
				"y": -1.5209869371,
				"z": 2.1925169216,
				"element": "C" 
			},
			{
				"x": 0.1243436731,
				"y": -0.3837009024,
				"z": 1.6879205439,
				"element": "N" 
			},
			{
				"x": 1.421389765,
				"y": -0.3697713933,
				"z": 0.9957815918,
				"element": "C" 
			},
			{
				"x": 1.309198919,
				"y": -0.35593715,
				"z": -0.5035366995,
				"element": "C" 
			},
			{
				"x": 2.0900921324,
				"y": 0.3131834185,
				"z": -1.4091730999,
				"element": "C" 
			},
			{
				"x": 3.5127031581,
				"y": 1.4769843869,
				"z": -0.9254946274,
				"element": "Br" 
			},
			{
				"x": 1.7685009906,
				"y": 0.0582239951,
				"z": -2.7766072781,
				"element": "C" 
			},
			{
				"x": 0.7289852158,
				"y": -0.8170417961,
				"z": -2.8950948176,
				"element": "C" 
			},
			{
				"x": 0.1404092637,
				"y": -1.3399708345,
				"z": -1.350821172,
				"element": "S" 
			},
			{
				"x": -2.5493393264,
				"y": -2.1459587145,
				"z": 3.3318615079,
				"element": "N" 
			},
			{
				"x": -2.1573254517,
				"y": -3.313778638,
				"z": 3.422134568,
				"element": "O" 
			},
			{
				"x": -3.6333271175,
				"y": -1.7257112247,
				"z": 3.7385245646,
				"element": "O" 
			},
			{
				"x": 0.6209057423,
				"y": 3.3123474717,
				"z": 0.7900894738,
				"element": "H" 
			},
			{
				"x": -2.7769767293,
				"y": 0.7358396424,
				"z": 2.7886680357,
				"element": "H" 
			},
			{
				"x": 0.0913647024,
				"y": -2.4705987993,
				"z": 2.1661606521,
				"element": "H" 
			},
			{
				"x": 1.9910415727,
				"y": 0.5025376125,
				"z": 1.3135466909,
				"element": "H" 
			},
			{
				"x": 1.9544221596,
				"y": -1.2631328444,
				"z": 1.3378648705,
				"element": "H" 
			},
			{
				"x": 2.2867015607,
				"y": 0.516380314,
				"z": -3.6090168879,
				"element": "H" 
			},
			{
				"x": 0.2592138502,
				"y": -1.1780544811,
				"z": -3.7993534784,
				"element": "H" 
			}
		],
		 "valence_orbital": [ 
			{
				"type": "occ",
				"energy": -0.28726,
				"method": "rhf"
			},
			{
				"type": "occ",
				"energy": -0.28574,
				"method": "rhf"
			},
			{
				"type": "occ",
				"energy": -0.26986,
				"method": "rhf"
			},
			{
				"type": "occ",
				"energy": -0.25957,
				"method": "rhf"
			},
			{
				"type": "occ",
				"energy": -0.25252,
				"method": "rhf"
			},
			{
				"type": "unocc",
				"energy": -0.07723,
				"method": "rhf"
			},
			{
				"type": "unocc",
				"energy": -0.05353,
				"method": "rhf"
			},
			{
				"type": "unocc",
				"energy": -0.0431,
				"method": "rhf"
			},
			{
				"type": "unocc",
				"energy": -0.02139,
				"method": "rhf"
			},
			{
				"type": "unocc",
				"energy": 0.01904,
				"method": "rhf"
			}
		],
		"cosmo_sigma_profile": { 
			"-0.025": 0.0,
			"-0.024": 0.0,
			"-0.023": 0.0,
			"-0.022": 0.0,
			"-0.021": 0.0,
			"-0.02": 0.0,
			"-0.019": 0.157801959797,
			"-0.018": 1.02117959247,
			"-0.017": 0.625032750937,
			"-0.016": 0.872230248086,
			"-0.015": 0.47428853597,
			"-0.014": 0.842887359724,
			"-0.013": 0.923319965345,
			"-0.012": 2.05991750442,
			"-0.011": 3.24036689697,
			"-0.01": 3.41996553596,
			"-0.009": 5.5837589871,
			"-0.008": 7.23578032322,
			"-0.007": 8.09973716501,
			"-0.006": 10.8281403352,
			"-0.005": 11.9743514404,
			"-0.004": 12.6711587462,
			"-0.003": 17.603429348,
			"-0.002": 16.8131724644,
			"-0.001": 22.2656953357,
			"0.0": 21.8472678076,
			"0.001": 24.4740232467,
			"0.002": 24.4469974843,
			"0.003": 22.2875117235,
			"0.004": 16.8320930236,
			"0.005": 6.06010180279,
			"0.006": 3.72001902636,
			"0.007": 6.52220330371,
			"0.008": 12.6434433059,
			"0.009": 6.85206444606,
			"0.01": 6.04801837235,
			"0.011": 5.58433331112,
			"0.012": 2.63152249609,
			"0.013": 0.0,
			"0.014": 0.0,
			"0.015": 0.0,
			"0.016": 0.0,
			"0.017": 0.0,
			"0.018": 0.0,
			"0.019": 0.0,
			"0.02": 0.0,
			"0.021": 0.0,
			"0.022": 0.0,
			"0.023": 0.0,
			"0.024": 0.0,
			"0.025": 0.0
		}
	}
}
