{
	 "smiles": "CC1=CC(C(=O)CCl)=C(C)N1C1=CC(C)=CC=C1", 
	 "Tm": 373.15, 
	 "num_atms": 34, 
	 "gaussian": { 
		 "optdone": 1, 
		 "sigma_profile": "yes", 
		 "theory": "DFT", 
		 "functional": "B3LYP", 
		 "basiset": "6-31G**", 
		 "properties": { 
			 "R2extent": 6323.3478, 
			 "electric_dipole_moment_norm": 6.81381002744, 
			 "electric_quadrupole_moment_norm": 14.4820240226, 
			 "total_energy": -1171.41818899, 
			 "HOMO_LUMO_gap": 0.16755, 
			 "cosmo_polarized_energy": -12.91, 
			 "cosmo_cavitation_energy": 38.93, 
			 "cosmo_dispersion_energy": -26.51, 
			 "cosmo_repulsion_energy": 2.08, 
			 "cosmo_total_nonelectrostatic_energy": 14.5, 
			 "SMD_solvation_energy": 7.14 
		},
		"coords": [
			{
				"x": -0.5444139366,
				"y": -2.5635213665,
				"z": 1.8383056788,
				"element": "C" 
			},
			{
				"x": -0.6244433646,
				"y": -1.9351928985,
				"z": 0.4845110585,
				"element": "C" 
			},
			{
				"x": -1.1077046801,
				"y": -2.4205345918,
				"z": -0.6976170265,
				"element": "C" 
			},
			{
				"x": -0.9383838712,
				"y": -1.4143175531,
				"z": -1.7042885664,
				"element": "C" 
			},
			{
				"x": -1.3885294525,
				"y": -1.6291052396,
				"z": -3.0792121851,
				"element": "C" 
			},
			{
				"x": -1.9823392451,
				"y": -2.6500674622,
				"z": -3.4094737408,
				"element": "O" 
			},
			{
				"x": -1.1534030309,
				"y": -0.5716011817,
				"z": -4.1647193484,
				"element": "C" 
			},
			{
				"x": 0.5662343148,
				"y": -0.6063226601,
				"z": -4.7661893724,
				"element": "Cl" 
			},
			{
				"x": -0.3410712689,
				"y": -0.3066381947,
				"z": -1.0907212034,
				"element": "C" 
			},
			{
				"x": 0.0531363982,
				"y": 1.0429174297,
				"z": -1.6101287499,
				"element": "C" 
			},
			{
				"x": -0.1580213635,
				"y": -0.6364740806,
				"z": 0.237018617,
				"element": "N" 
			},
			{
				"x": 0.4265599018,
				"y": 0.2079161739,
				"z": 1.2388135251,
				"element": "C" 
			},
			{
				"x": 1.8083444979,
				"y": 0.1760637697,
				"z": 1.4487436596,
				"element": "C" 
			},
			{
				"x": 2.4024103373,
				"y": 0.9758681819,
				"z": 2.4323753165,
				"element": "C" 
			},
			{
				"x": 3.8987874049,
				"y": 0.9654456932,
				"z": 2.6392583558,
				"element": "C" 
			},
			{
				"x": 1.5743157015,
				"y": 1.8019712455,
				"z": 3.2059381439,
				"element": "C" 
			},
			{
				"x": 0.1955491545,
				"y": 1.8342268551,
				"z": 2.9989741873,
				"element": "C" 
			},
			{
				"x": -0.3877105987,
				"y": 1.0372936189,
				"z": 2.012978128,
				"element": "C" 
			},
			{
				"x": 0.4882576276,
				"y": -2.6499101253,
				"z": 2.1966674893,
				"element": "H" 
			},
			{
				"x": -1.1002773843,
				"y": -1.9963826286,
				"z": 2.594342373,
				"element": "H" 
			},
			{
				"x": -0.9690702402,
				"y": -3.5688747415,
				"z": 1.7925712481,
				"element": "H" 
			},
			{
				"x": -1.5429065236,
				"y": -3.3940125658,
				"z": -0.8679092477,
				"element": "H" 
			},
			{
				"x": -1.3456967191,
				"y": 0.4469427312,
				"z": -3.8265059807,
				"element": "H" 
			},
			{
				"x": -1.7837804557,
				"y": -0.8206301597,
				"z": -5.0162427871,
				"element": "H" 
			},
			{
				"x": 0.6803236825,
				"y": 1.5689426781,
				"z": -0.8877711037,
				"element": "H" 
			},
			{
				"x": 0.6162950697,
				"y": 0.9588508849,
				"z": -2.542588576,
				"element": "H" 
			},
			{
				"x": -0.8215531602,
				"y": 1.6779676423,
				"z": -1.8005964409,
				"element": "H" 
			},
			{
				"x": 2.4174173107,
				"y": -0.4810470498,
				"z": 0.8342827649,
				"element": "H" 
			},
			{
				"x": 4.3509038553,
				"y": 0.0486698115,
				"z": 2.2510553237,
				"element": "H" 
			},
			{
				"x": 4.1555011644,
				"y": 1.0487070525,
				"z": 3.6997871936,
				"element": "H" 
			},
			{
				"x": 4.373579756,
				"y": 1.8092257581,
				"z": 2.1236024102,
				"element": "H" 
			},
			{
				"x": 2.0162038626,
				"y": 2.4250958843,
				"z": 3.9793272748,
				"element": "H" 
			},
			{
				"x": -0.4287174627,
				"y": 2.4800062167,
				"z": 3.60942638,
				"element": "H" 
			},
			{
				"x": -1.4591972818,
				"y": 1.0493208719,
				"z": 1.8407852007,
				"element": "H" 
			}
		],
		 "valence_orbital": [ 
			{
				"type": "occ",
				"energy": -0.26952,
				"method": "rhf"
			},
			{
				"type": "occ",
				"energy": -0.26104,
				"method": "rhf"
			},
			{
				"type": "occ",
				"energy": -0.24178,
				"method": "rhf"
			},
			{
				"type": "occ",
				"energy": -0.23738,
				"method": "rhf"
			},
			{
				"type": "occ",
				"energy": -0.20716,
				"method": "rhf"
			},
			{
				"type": "unocc",
				"energy": -0.03961,
				"method": "rhf"
			},
			{
				"type": "unocc",
				"energy": -0.02551,
				"method": "rhf"
			},
			{
				"type": "unocc",
				"energy": -0.02033,
				"method": "rhf"
			},
			{
				"type": "unocc",
				"energy": 0.02748,
				"method": "rhf"
			},
			{
				"type": "unocc",
				"energy": 0.05045,
				"method": "rhf"
			}
		],
		"cosmo_sigma_profile": { 
			"-0.025": 0.0,
			"-0.024": 0.0,
			"-0.023": 0.0,
			"-0.022": 0.0,
			"-0.021": 0.0,
			"-0.02": 0.0,
			"-0.019": 0.0,
			"-0.018": 0.0,
			"-0.017": 0.0,
			"-0.016": 0.0,
			"-0.015": 0.0,
			"-0.014": 0.0,
			"-0.013": 0.0,
			"-0.012": 0.0,
			"-0.011": 0.0,
			"-0.01": 0.0,
			"-0.009": 0.0,
			"-0.008": 2.44934179883,
			"-0.007": 5.74534507359,
			"-0.006": 12.5871181377,
			"-0.005": 19.6770032822,
			"-0.004": 28.4156982938,
			"-0.003": 26.8968753124,
			"-0.002": 32.1427760223,
			"-0.001": 36.3838270354,
			"0.0": 27.2778493291,
			"0.001": 18.2586579614,
			"0.002": 16.7041761947,
			"0.003": 19.3322805839,
			"0.004": 18.4618446972,
			"0.005": 17.3280025632,
			"0.006": 10.9478989984,
			"0.007": 3.08025462879,
			"0.008": 1.53750490469,
			"0.009": 1.7576150458,
			"0.01": 1.69224286735,
			"0.011": 2.53613204471,
			"0.012": 4.13637111078,
			"0.013": 3.32928866155,
			"0.014": 0.320388929134,
			"0.015": 0.0,
			"0.016": 0.0,
			"0.017": 0.0,
			"0.018": 0.0,
			"0.019": 0.0,
			"0.02": 0.0,
			"0.021": 0.0,
			"0.022": 0.0,
			"0.023": 0.0,
			"0.024": 0.0,
			"0.025": 0.0
		}
	}
}
