{
	 "smiles": "NNC1=C(F)C(F)=C(F)C(F)=C1F", 
	 "Tm": 348.65, 
	 "num_atms": 16, 
	 "gaussian": { 
		 "optdone": 1, 
		 "sigma_profile": "yes", 
		 "theory": "DFT", 
		 "functional": "B3LYP", 
		 "basiset": "6-31G**", 
		 "properties": { 
			 "R2extent": 2392.3666, 
			 "electric_dipole_moment_norm": 1.49160676453, 
			 "electric_quadrupole_moment_norm": 6.05259195304, 
			 "total_energy": -839.042005899, 
			 "HOMO_LUMO_gap": 0.21066, 
			 "cosmo_polarized_energy": -7.12, 
			 "cosmo_cavitation_energy": 23.32, 
			 "cosmo_dispersion_energy": -16.59, 
			 "cosmo_repulsion_energy": 1.21, 
			 "cosmo_total_nonelectrostatic_energy": 7.95, 
			 "SMD_solvation_energy": 6.65 
		},
		"coords": [
			{
				"x": 2.3753319613,
				"y": 1.252124775,
				"z": 1.8078173959,
				"element": "N" 
			},
			{
				"x": 2.1417817292,
				"y": 0.1647676684,
				"z": 0.9231436749,
				"element": "N" 
			},
			{
				"x": 0.839445175,
				"y": -0.1832502696,
				"z": 0.5613129434,
				"element": "C" 
			},
			{
				"x": -0.2172680705,
				"y": -0.2639969689,
				"z": 1.480628753,
				"element": "C" 
			},
			{
				"x": -0.0072169951,
				"y": 0.0258708829,
				"z": 2.7811317336,
				"element": "F" 
			},
			{
				"x": -1.495698478,
				"y": -0.6563805156,
				"z": 1.0926394307,
				"element": "C" 
			},
			{
				"x": -2.4763930013,
				"y": -0.7146881001,
				"z": 2.0008453114,
				"element": "F" 
			},
			{
				"x": -1.7530531572,
				"y": -1.0104599978,
				"z": -0.2293982391,
				"element": "C" 
			},
			{
				"x": -2.9789134864,
				"y": -1.3990121162,
				"z": -0.6000759902,
				"element": "F" 
			},
			{
				"x": -0.7183238356,
				"y": -0.956715078,
				"z": -1.1616950896,
				"element": "C" 
			},
			{
				"x": -0.9491558914,
				"y": -1.2836653451,
				"z": -2.4379949363,
				"element": "F" 
			},
			{
				"x": 0.5460670212,
				"y": -0.54088246,
				"z": -0.7641436206,
				"element": "C" 
			},
			{
				"x": 1.5350766613,
				"y": -0.4727060174,
				"z": -1.6794904603,
				"element": "F" 
			},
			{
				"x": 1.6980164979,
				"y": 1.9981334363,
				"z": 1.6417012255,
				"element": "H" 
			},
			{
				"x": 2.227620299,
				"y": 0.9189706739,
				"z": 2.7554515136,
				"element": "H" 
			},
			{
				"x": 2.7614835706,
				"y": 0.2200894325,
				"z": 0.1256263541,
				"element": "H" 
			}
		],
		 "valence_orbital": [ 
			{
				"type": "occ",
				"energy": -0.37027,
				"method": "rhf"
			},
			{
				"type": "occ",
				"energy": -0.31193,
				"method": "rhf"
			},
			{
				"type": "occ",
				"energy": -0.27889,
				"method": "rhf"
			},
			{
				"type": "occ",
				"energy": -0.25845,
				"method": "rhf"
			},
			{
				"type": "occ",
				"energy": -0.22893,
				"method": "rhf"
			},
			{
				"type": "unocc",
				"energy": -0.01827,
				"method": "rhf"
			},
			{
				"type": "unocc",
				"energy": -0.01774,
				"method": "rhf"
			},
			{
				"type": "unocc",
				"energy": 0.00477,
				"method": "rhf"
			},
			{
				"type": "unocc",
				"energy": 0.07678,
				"method": "rhf"
			},
			{
				"type": "unocc",
				"energy": 0.09781,
				"method": "rhf"
			}
		],
		"cosmo_sigma_profile": { 
			"-0.025": 0.0,
			"-0.024": 0.0,
			"-0.023": 0.0,
			"-0.022": 0.0,
			"-0.021": 0.0,
			"-0.02": 0.0,
			"-0.019": 0.0,
			"-0.018": 0.0,
			"-0.017": 0.0,
			"-0.016": 0.0,
			"-0.015": 0.0,
			"-0.014": 0.0,
			"-0.013": 0.0612231240124,
			"-0.012": 0.969167148407,
			"-0.011": 2.19534564025,
			"-0.01": 3.7376693891,
			"-0.009": 3.75383945627,
			"-0.008": 3.65943793719,
			"-0.007": 3.85006915848,
			"-0.006": 3.79992959199,
			"-0.005": 4.42419047563,
			"-0.004": 3.75717299654,
			"-0.003": 15.3269578371,
			"-0.002": 22.1940788401,
			"-0.001": 12.2632993533,
			"0.0": 11.4080168427,
			"0.001": 11.7677251916,
			"0.002": 26.3965145896,
			"0.003": 42.664675499,
			"0.004": 3.54089054127,
			"0.005": 1.17314700326,
			"0.006": 1.19321297835,
			"0.007": 1.68314958638,
			"0.008": 0.934262947795,
			"0.009": 1.3969222956,
			"0.01": 1.77142192648,
			"0.011": 1.00648507993,
			"0.012": 0.452711637502,
			"0.013": 0.55547290601,
			"0.014": 0.454809905871,
			"0.015": 0.800908787519,
			"0.016": 0.601880859608,
			"0.017": 0.152834910265,
			"0.018": 0.0,
			"0.019": 0.0,
			"0.02": 0.0,
			"0.021": 0.0,
			"0.022": 0.0,
			"0.023": 0.0,
			"0.024": 0.0,
			"0.025": 0.0
		}
	}
}
