{
	 "smiles": "CC(C=NNC(N)=O)=NNC(N)=O", 
	 "Tm": 528.15, 
	 "num_atms": 23, 
	 "gaussian": { 
		 "optdone": 1, 
		 "sigma_profile": "yes", 
		 "theory": "DFT", 
		 "functional": "B3LYP", 
		 "basiset": "6-31G**", 
		 "properties": { 
			 "R2extent": 3552.5455, 
			 "electric_dipole_moment_norm": 5.03474809797, 
			 "electric_quadrupole_moment_norm": 24.9526156415, 
			 "total_energy": -675.486436286, 
			 "HOMO_LUMO_gap": 0.17026, 
			 "cosmo_polarized_energy": -25.45, 
			 "cosmo_cavitation_energy": 28.08, 
			 "cosmo_dispersion_energy": -20.39, 
			 "cosmo_repulsion_energy": 1.68, 
			 "cosmo_total_nonelectrostatic_energy": 9.36, 
			 "SMD_solvation_energy": 5.73 
		},
		"coords": [
			{
				"x": -1.0955952211,
				"y": -0.0003085311,
				"z": 1.5920126304,
				"element": "C" 
			},
			{
				"x": -0.6113627117,
				"y": -0.9644448033,
				"z": 0.5396428721,
				"element": "C" 
			},
			{
				"x": -1.3224327613,
				"y": -1.2353401727,
				"z": -0.7176377866,
				"element": "C" 
			},
			{
				"x": -2.2165645121,
				"y": -0.6102743589,
				"z": -1.3998709413,
				"element": "N" 
			},
			{
				"x": -2.6084335413,
				"y": 0.6832674022,
				"z": -1.0298220148,
				"element": "N" 
			},
			{
				"x": -1.6715551665,
				"y": 1.7343752988,
				"z": -0.9886962774,
				"element": "C" 
			},
			{
				"x": -2.2695206814,
				"y": 2.9777106521,
				"z": -1.1062760782,
				"element": "N" 
			},
			{
				"x": -0.4688907769,
				"y": 1.5761884271,
				"z": -0.8755775336,
				"element": "O" 
			},
			{
				"x": 0.4208536386,
				"y": -1.7343685377,
				"z": 0.6996873419,
				"element": "N" 
			},
			{
				"x": 1.1603336944,
				"y": -1.6219354937,
				"z": 1.8195096339,
				"element": "N" 
			},
			{
				"x": 2.320549595,
				"y": -2.3885525365,
				"z": 2.0126157624,
				"element": "C" 
			},
			{
				"x": 2.5184146301,
				"y": -3.3541197836,
				"z": 1.0716166432,
				"element": "N" 
			},
			{
				"x": 3.0311798179,
				"y": -2.180213199,
				"z": 2.9844168073,
				"element": "O" 
			},
			{
				"x": -1.1454169697,
				"y": -0.5061966017,
				"z": 2.5644372942,
				"element": "H" 
			},
			{
				"x": -2.0912923411,
				"y": 0.3717110382,
				"z": 1.3557351931,
				"element": "H" 
			},
			{
				"x": -0.4244419339,
				"y": 0.8607551871,
				"z": 1.682481623,
				"element": "H" 
			},
			{
				"x": -1.0565743522,
				"y": -2.1992114783,
				"z": -1.1523540828,
				"element": "H" 
			},
			{
				"x": -3.4260751529,
				"y": 0.9203455268,
				"z": -1.5800026905,
				"element": "H" 
			},
			{
				"x": -3.2249499404,
				"y": 3.0912622498,
				"z": -0.7980417552,
				"element": "H" 
			},
			{
				"x": -1.6514960378,
				"y": 3.7427186682,
				"z": -0.8778705855,
				"element": "H" 
			},
			{
				"x": 1.0392082655,
				"y": -0.868090144,
				"z": 2.4875232722,
				"element": "H" 
			},
			{
				"x": 3.4162939392,
				"y": -3.808564452,
				"z": 1.0830381087,
				"element": "H" 
			},
			{
				"x": 1.9764685195,
				"y": -3.3236143577,
				"z": 0.2211325635,
				"element": "H" 
			}
		],
		 "valence_orbital": [ 
			{
				"type": "occ",
				"energy": -0.27723,
				"method": "rhf"
			},
			{
				"type": "occ",
				"energy": -0.26683,
				"method": "rhf"
			},
			{
				"type": "occ",
				"energy": -0.26004,
				"method": "rhf"
			},
			{
				"type": "occ",
				"energy": -0.24975,
				"method": "rhf"
			},
			{
				"type": "occ",
				"energy": -0.21942,
				"method": "rhf"
			},
			{
				"type": "unocc",
				"energy": -0.04916,
				"method": "rhf"
			},
			{
				"type": "unocc",
				"energy": 0.03238,
				"method": "rhf"
			},
			{
				"type": "unocc",
				"energy": 0.048,
				"method": "rhf"
			},
			{
				"type": "unocc",
				"energy": 0.05481,
				"method": "rhf"
			},
			{
				"type": "unocc",
				"energy": 0.07375,
				"method": "rhf"
			}
		],
		"cosmo_sigma_profile": { 
			"-0.025": 0.0,
			"-0.024": 0.0,
			"-0.023": 0.0,
			"-0.022": 0.0,
			"-0.021": 0.0,
			"-0.02": 0.0,
			"-0.019": 0.0,
			"-0.018": 0.0,
			"-0.017": 0.0,
			"-0.016": 0.180002762341,
			"-0.015": 2.82638383549,
			"-0.014": 4.42834736015,
			"-0.013": 5.66466205403,
			"-0.012": 5.86536887928,
			"-0.011": 5.26076021603,
			"-0.01": 6.19275762384,
			"-0.009": 5.91556046696,
			"-0.008": 5.54075548635,
			"-0.007": 5.77681551569,
			"-0.006": 5.76641175882,
			"-0.005": 7.95980830049,
			"-0.004": 7.98561645978,
			"-0.003": 10.4272309934,
			"-0.002": 13.7025436854,
			"-0.001": 16.2701148922,
			"0.0": 10.8440142495,
			"0.001": 10.0201619816,
			"0.002": 10.4890821733,
			"0.003": 10.1028000533,
			"0.004": 9.54570199916,
			"0.005": 7.42418804418,
			"0.006": 7.15422997173,
			"0.007": 4.78546575179,
			"0.008": 5.04349834805,
			"0.009": 5.12589149369,
			"0.01": 3.87781983759,
			"0.011": 4.47498344401,
			"0.012": 4.9431148799,
			"0.013": 8.8641951619,
			"0.014": 7.97935604568,
			"0.015": 0.868193524315,
			"0.016": 0.0,
			"0.017": 0.0,
			"0.018": 0.0,
			"0.019": 0.0,
			"0.02": 0.0,
			"0.021": 0.0,
			"0.022": 0.0,
			"0.023": 0.0,
			"0.024": 0.0,
			"0.025": 0.0
		}
	}
}
