{
	 "smiles": "CCOC(=O)C1=C(NC(=S)NC2=CC=CC(Cl)=C2)SC2=C1CCCC2", 
	 "Tm": 449.15, 
	 "num_atms": 44, 
	 "gaussian": { 
		 "optdone": 1, 
		 "sigma_profile": "yes", 
		 "theory": "DFT", 
		 "functional": "B3LYP", 
		 "basiset": "6-31G**", 
		 "properties": { 
			 "R2extent": 15294.8313, 
			 "electric_dipole_moment_norm": 8.07110681258, 
			 "electric_quadrupole_moment_norm": 22.151329287, 
			 "total_energy": -2213.92394639, 
			 "HOMO_LUMO_gap": 0.14232, 
			 "cosmo_polarized_energy": -17.36, 
			 "cosmo_cavitation_energy": 51.28, 
			 "cosmo_dispersion_energy": -36.96, 
			 "cosmo_repulsion_energy": 2.76, 
			 "cosmo_total_nonelectrostatic_energy": 17.09, 
			 "SMD_solvation_energy": 7.1 
		},
		"coords": [
			{
				"x": 2.7422401805,
				"y": 4.989425987,
				"z": 1.6698644801,
				"element": "C" 
			},
			{
				"x": 3.0938448305,
				"y": 4.4948791337,
				"z": 0.2752256732,
				"element": "C" 
			},
			{
				"x": 2.9775675293,
				"y": 3.0518887214,
				"z": 0.1793061636,
				"element": "O" 
			},
			{
				"x": 1.7482190333,
				"y": 2.558627167,
				"z": -0.072997084,
				"element": "C" 
			},
			{
				"x": 0.7703948156,
				"y": 3.2888726442,
				"z": -0.225730787,
				"element": "O" 
			},
			{
				"x": 1.6990957749,
				"y": 1.0921524076,
				"z": -0.1321238266,
				"element": "C" 
			},
			{
				"x": 0.4872824766,
				"y": 0.4481360493,
				"z": -0.3963726676,
				"element": "C" 
			},
			{
				"x": -0.7084331027,
				"y": 1.0980827087,
				"z": -0.6153101431,
				"element": "N" 
			},
			{
				"x": -1.9583053129,
				"y": 0.6552567872,
				"z": -1.0093947724,
				"element": "C" 
			},
			{
				"x": -3.2779469396,
				"y": 1.6573757973,
				"z": -0.7997237964,
				"element": "S" 
			},
			{
				"x": -1.9599890823,
				"y": -0.5891413504,
				"z": -1.5859088116,
				"element": "N" 
			},
			{
				"x": -3.0421975977,
				"y": -1.4057741909,
				"z": -1.9860812247,
				"element": "C" 
			},
			{
				"x": -2.8250425244,
				"y": -2.2700745031,
				"z": -3.0691725445,
				"element": "C" 
			},
			{
				"x": -3.825591285,
				"y": -3.1494503576,
				"z": -3.4740320249,
				"element": "C" 
			},
			{
				"x": -5.0545652232,
				"y": -3.1822160342,
				"z": -2.8158457171,
				"element": "C" 
			},
			{
				"x": -5.249241558,
				"y": -2.3190924877,
				"z": -1.737718331,
				"element": "C" 
			},
			{
				"x": -6.7846897458,
				"y": -2.3555264276,
				"z": -0.8820718392,
				"element": "Cl" 
			},
			{
				"x": -4.2659574,
				"y": -1.4339195188,
				"z": -1.3046346491,
				"element": "C" 
			},
			{
				"x": 0.6662517513,
				"y": -1.2914279285,
				"z": -0.2977959217,
				"element": "S" 
			},
			{
				"x": 2.3808195374,
				"y": -1.1454832537,
				"z": 0.0514358256,
				"element": "C" 
			},
			{
				"x": 2.7838503439,
				"y": 0.1567226418,
				"z": 0.1078897738,
				"element": "C" 
			},
			{
				"x": 4.2297182172,
				"y": 0.5031490658,
				"z": 0.3945630846,
				"element": "C" 
			},
			{
				"x": 5.1535191359,
				"y": -0.7208831056,
				"z": 0.270357448,
				"element": "C" 
			},
			{
				"x": 4.556026461,
				"y": -1.9642652777,
				"z": 0.9399208244,
				"element": "C" 
			},
			{
				"x": 3.2367736453,
				"y": -2.3652811278,
				"z": 0.2576766454,
				"element": "C" 
			},
			{
				"x": 1.6895021377,
				"y": 4.8001514845,
				"z": 1.8915198826,
				"element": "H" 
			},
			{
				"x": 3.3602812865,
				"y": 4.4967727924,
				"z": 2.4262935157,
				"element": "H" 
			},
			{
				"x": 2.9175551862,
				"y": 6.0685025519,
				"z": 1.7330821164,
				"element": "H" 
			},
			{
				"x": 2.4511053836,
				"y": 4.9508609044,
				"z": -0.4806073816,
				"element": "H" 
			},
			{
				"x": 4.1402128841,
				"y": 4.6923645803,
				"z": 0.0311448112,
				"element": "H" 
			},
			{
				"x": -0.6380936238,
				"y": 2.1048549091,
				"z": -0.4349607541,
				"element": "H" 
			},
			{
				"x": -1.0683747416,
				"y": -0.9002902631,
				"z": -1.9533526225,
				"element": "H" 
			},
			{
				"x": -1.8757413475,
				"y": -2.2444577802,
				"z": -3.597604814,
				"element": "H" 
			},
			{
				"x": -3.6490346698,
				"y": -3.8115740948,
				"z": -4.3160853845,
				"element": "H" 
			},
			{
				"x": -5.8433356119,
				"y": -3.8567922005,
				"z": -3.127520884,
				"element": "H" 
			},
			{
				"x": -4.4469454891,
				"y": -0.7776208682,
				"z": -0.4660331637,
				"element": "H" 
			},
			{
				"x": 4.562597836,
				"y": 1.2947148181,
				"z": -0.2811775761,
				"element": "H" 
			},
			{
				"x": 4.3023278986,
				"y": 0.9319500081,
				"z": 1.4030895852,
				"element": "H" 
			},
			{
				"x": 6.1302163923,
				"y": -0.4834705155,
				"z": 0.705982771,
				"element": "H" 
			},
			{
				"x": 5.3284869679,
				"y": -0.9374093817,
				"z": -0.7920607727,
				"element": "H" 
			},
			{
				"x": 5.2601522626,
				"y": -2.8024210915,
				"z": 0.900388631,
				"element": "H" 
			},
			{
				"x": 4.3667069537,
				"y": -1.7544796286,
				"z": 2.0004200743,
				"element": "H" 
			},
			{
				"x": 3.4489757125,
				"y": -2.8466746995,
				"z": -0.7082863933,
				"element": "H" 
			},
			{
				"x": 2.7078606211,
				"y": -3.1123150727,
				"z": 0.8620425813,
				"element": "H" 
			}
		],
		 "valence_orbital": [ 
			{
				"type": "occ",
				"energy": -0.26477,
				"method": "rhf"
			},
			{
				"type": "occ",
				"energy": -0.25054,
				"method": "rhf"
			},
			{
				"type": "occ",
				"energy": -0.2238,
				"method": "rhf"
			},
			{
				"type": "occ",
				"energy": -0.21378,
				"method": "rhf"
			},
			{
				"type": "occ",
				"energy": -0.20601,
				"method": "rhf"
			},
			{
				"type": "unocc",
				"energy": -0.06369,
				"method": "rhf"
			},
			{
				"type": "unocc",
				"energy": -0.02024,
				"method": "rhf"
			},
			{
				"type": "unocc",
				"energy": -0.0141,
				"method": "rhf"
			},
			{
				"type": "unocc",
				"energy": -0.00059,
				"method": "rhf"
			},
			{
				"type": "unocc",
				"energy": 0.00861,
				"method": "rhf"
			}
		],
		"cosmo_sigma_profile": { 
			"-0.025": 0.0,
			"-0.024": 0.0,
			"-0.023": 0.0,
			"-0.022": 0.0,
			"-0.021": 0.0,
			"-0.02": 0.0,
			"-0.019": 0.0,
			"-0.018": 0.0,
			"-0.017": 0.0,
			"-0.016": 0.0,
			"-0.015": 0.277915900407,
			"-0.014": 0.956107465401,
			"-0.013": 1.30999220882,
			"-0.012": 1.20124878454,
			"-0.011": 1.1243550244,
			"-0.01": 1.49441125331,
			"-0.009": 1.27513894904,
			"-0.008": 2.07740332001,
			"-0.007": 6.46652274895,
			"-0.006": 8.55219484177,
			"-0.005": 15.2884125853,
			"-0.004": 23.4117251505,
			"-0.003": 39.7485332252,
			"-0.002": 48.6381569941,
			"-0.001": 49.9269832229,
			"0.0": 46.082939691,
			"0.001": 34.4877106921,
			"0.002": 31.4110537684,
			"0.003": 32.6665931172,
			"0.004": 19.9000308087,
			"0.005": 12.9875728844,
			"0.006": 5.29792143308,
			"0.007": 5.70560146635,
			"0.008": 7.17283669661,
			"0.009": 7.76570110508,
			"0.01": 5.41768865863,
			"0.011": 3.16063585926,
			"0.012": 0.38092080944,
			"0.013": 0.0,
			"0.014": 0.0,
			"0.015": 0.0,
			"0.016": 0.0,
			"0.017": 0.0,
			"0.018": 0.0,
			"0.019": 0.0,
			"0.02": 0.0,
			"0.021": 0.0,
			"0.022": 0.0,
			"0.023": 0.0,
			"0.024": 0.0,
			"0.025": 0.0
		}
	}
}
