{
	 "smiles": "COC(=O)C1=CC=C(O1)C(=O)OC", 
	 "Tm": 385.15, 
	 "num_atms": 21, 
	 "gaussian": { 
		 "optdone": 1, 
		 "sigma_profile": "yes", 
		 "theory": "DFT", 
		 "functional": "B3LYP", 
		 "basiset": "6-31G**", 
		 "properties": { 
			 "R2extent": 4284.8914, 
			 "electric_dipole_moment_norm": 1.79852413384, 
			 "electric_quadrupole_moment_norm": 18.8683124041, 
			 "total_energy": -685.777460941, 
			 "HOMO_LUMO_gap": 0.18375, 
			 "cosmo_polarized_energy": -12.44, 
			 "cosmo_cavitation_energy": 27.41, 
			 "cosmo_dispersion_energy": -19.81, 
			 "cosmo_repulsion_energy": 1.6, 
			 "cosmo_total_nonelectrostatic_energy": 9.2, 
			 "SMD_solvation_energy": 8.81 
		},
		"coords": [
			{
				"x": -3.2065708579,
				"y": 2.5021261765,
				"z": 3.5348141568,
				"element": "C" 
			},
			{
				"x": -3.1689196649,
				"y": 1.3940565518,
				"z": 2.6206706359,
				"element": "O" 
			},
			{
				"x": -2.2821328041,
				"y": 1.5224179449,
				"z": 1.6066599366,
				"element": "C" 
			},
			{
				"x": -1.5563816445,
				"y": 2.4791740427,
				"z": 1.4428271926,
				"element": "O" 
			},
			{
				"x": -2.3308186227,
				"y": 0.3349381571,
				"z": 0.7387521487,
				"element": "C" 
			},
			{
				"x": -3.077307081,
				"y": -0.8189680908,
				"z": 0.7742027427,
				"element": "C" 
			},
			{
				"x": -2.666980887,
				"y": -1.5888373731,
				"z": -0.344003459,
				"element": "C" 
			},
			{
				"x": -1.700158523,
				"y": -0.8493749142,
				"z": -0.9806688552,
				"element": "C" 
			},
			{
				"x": -1.4889985792,
				"y": 0.3239541333,
				"z": -0.3280201215,
				"element": "O" 
			},
			{
				"x": -0.934477287,
				"y": -1.171334244,
				"z": -2.1949227764,
				"element": "C" 
			},
			{
				"x": -1.0902244099,
				"y": -2.2083481211,
				"z": -2.8106596081,
				"element": "O" 
			},
			{
				"x": -0.065135941,
				"y": -0.2017380971,
				"z": -2.5280518566,
				"element": "O" 
			},
			{
				"x": 0.7129237607,
				"y": -0.4612315804,
				"z": -3.7085161428,
				"element": "C" 
			},
			{
				"x": -2.2316954307,
				"y": 2.6434340404,
				"z": 4.008106433,
				"element": "H" 
			},
			{
				"x": -3.4819615819,
				"y": 3.4219815573,
				"z": 3.0129153827,
				"element": "H" 
			},
			{
				"x": -3.9598309803,
				"y": 2.2428566612,
				"z": 4.27831916,
				"element": "H" 
			},
			{
				"x": -3.8213930486,
				"y": -1.0661937818,
				"z": 1.5161022819,
				"element": "H" 
			},
			{
				"x": -3.0208526745,
				"y": -2.5591548611,
				"z": -0.6584158112,
				"element": "H" 
			},
			{
				"x": 1.3122210152,
				"y": -1.3662832305,
				"z": -3.5819389814,
				"element": "H" 
			},
			{
				"x": 0.0619973426,
				"y": -0.5869209269,
				"z": -4.5773076192,
				"element": "H" 
			},
			{
				"x": 1.3542978997,
				"y": 0.410745956,
				"z": -3.8313648396,
				"element": "H" 
			}
		],
		 "valence_orbital": [ 
			{
				"type": "occ",
				"energy": -0.30785,
				"method": "rhf"
			},
			{
				"type": "occ",
				"energy": -0.29972,
				"method": "rhf"
			},
			{
				"type": "occ",
				"energy": -0.28607,
				"method": "rhf"
			},
			{
				"type": "occ",
				"energy": -0.28211,
				"method": "rhf"
			},
			{
				"type": "occ",
				"energy": -0.25199,
				"method": "rhf"
			},
			{
				"type": "unocc",
				"energy": -0.06824,
				"method": "rhf"
			},
			{
				"type": "unocc",
				"energy": -0.00774,
				"method": "rhf"
			},
			{
				"type": "unocc",
				"energy": 0.08881,
				"method": "rhf"
			},
			{
				"type": "unocc",
				"energy": 0.10083,
				"method": "rhf"
			},
			{
				"type": "unocc",
				"energy": 0.10368,
				"method": "rhf"
			}
		],
		"cosmo_sigma_profile": { 
			"-0.025": 0.0,
			"-0.024": 0.0,
			"-0.023": 0.0,
			"-0.022": 0.0,
			"-0.021": 0.0,
			"-0.02": 0.0,
			"-0.019": 0.0,
			"-0.018": 0.0,
			"-0.017": 0.0,
			"-0.016": 0.0,
			"-0.015": 0.0,
			"-0.014": 0.0,
			"-0.013": 0.0,
			"-0.012": 0.0,
			"-0.011": 0.0,
			"-0.01": 0.0676392905708,
			"-0.009": 2.10278923173,
			"-0.008": 2.82519915347,
			"-0.007": 6.05864292831,
			"-0.006": 15.2310291905,
			"-0.005": 17.9915366177,
			"-0.004": 25.311930667,
			"-0.003": 21.9567579927,
			"-0.002": 16.9498321983,
			"-0.001": 14.8046596018,
			"0.0": 14.6172209428,
			"0.001": 14.1063812058,
			"0.002": 8.4408512407,
			"0.003": 5.7518601505,
			"0.004": 5.31013271659,
			"0.005": 5.57702887442,
			"0.006": 6.27122592189,
			"0.007": 5.43185153343,
			"0.008": 3.70374387015,
			"0.009": 6.5338355802,
			"0.01": 5.98251412763,
			"0.011": 9.34422387679,
			"0.012": 4.84585261234,
			"0.013": 0.08996486173,
			"0.014": 0.0,
			"0.015": 0.0,
			"0.016": 0.0,
			"0.017": 0.0,
			"0.018": 0.0,
			"0.019": 0.0,
			"0.02": 0.0,
			"0.021": 0.0,
			"0.022": 0.0,
			"0.023": 0.0,
			"0.024": 0.0,
			"0.025": 0.0
		}
	}
}
