{
	 "smiles": "NC(=O)C1=CC(=CC(=C1)[N+]([O-])=O)[N+]([O-])=O", 
	 "Tm": 456.15, 
	 "num_atms": 20, 
	 "gaussian": { 
		 "optdone": 1, 
		 "sigma_profile": "yes", 
		 "theory": "DFT", 
		 "functional": "B3LYP", 
		 "basiset": "6-31G**", 
		 "properties": { 
			 "R2extent": 3488.6442, 
			 "electric_dipole_moment_norm": 4.68063637233, 
			 "electric_quadrupole_moment_norm": 17.0837357926, 
			 "total_energy": -809.941181143, 
			 "HOMO_LUMO_gap": 0.16351, 
			 "cosmo_polarized_energy": -19.75, 
			 "cosmo_cavitation_energy": 27.23, 
			 "cosmo_dispersion_energy": -19.69, 
			 "cosmo_repulsion_energy": 1.54, 
			 "cosmo_total_nonelectrostatic_energy": 9.08, 
			 "SMD_solvation_energy": 10.11 
		},
		"coords": [
			{
				"x": -2.9311593245,
				"y": -1.3987607588,
				"z": -1.2221609645,
				"element": "N" 
			},
			{
				"x": -1.6216124543,
				"y": -1.231879498,
				"z": -1.5788527627,
				"element": "C" 
			},
			{
				"x": -1.1518125063,
				"y": -1.6924113735,
				"z": -2.6091362806,
				"element": "O" 
			},
			{
				"x": -0.7682158734,
				"y": -0.4122426806,
				"z": -0.6397632031,
				"element": "C" 
			},
			{
				"x": 0.6193300694,
				"y": -0.5047768116,
				"z": -0.8034797753,
				"element": "C" 
			},
			{
				"x": 1.4524912788,
				"y": 0.2358834303,
				"z": 0.0265717289,
				"element": "C" 
			},
			{
				"x": 0.9626444947,
				"y": 1.0865460847,
				"z": 1.0127454003,
				"element": "C" 
			},
			{
				"x": -0.4178562362,
				"y": 1.1709517895,
				"z": 1.1407080868,
				"element": "C" 
			},
			{
				"x": -1.2909604178,
				"y": 0.4420055709,
				"z": 0.3352986291,
				"element": "C" 
			},
			{
				"x": -0.9824226224,
				"y": 2.0706211802,
				"z": 2.1667079274,
				"element": "N" 
			},
			{
				"x": -0.1919899785,
				"y": 2.7067116742,
				"z": 2.8570189593,
				"element": "O" 
			},
			{
				"x": -2.2075991001,
				"y": 2.117548343,
				"z": 2.2607560649,
				"element": "O" 
			},
			{
				"x": 2.9175413626,
				"y": 0.1239036053,
				"z": -0.1416242572,
				"element": "N" 
			},
			{
				"x": 3.6213304418,
				"y": 0.8000652077,
				"z": 0.6041960559,
				"element": "O" 
			},
			{
				"x": 3.3273256171,
				"y": -0.6370607115,
				"z": -1.0128970882,
				"element": "O" 
			},
			{
				"x": -3.2443748405,
				"y": -1.273253949,
				"z": -0.2727332839,
				"element": "H" 
			},
			{
				"x": -3.4738817666,
				"y": -2.0142571898,
				"z": -1.8108793194,
				"element": "H" 
			},
			{
				"x": 1.0280791704,
				"y": -1.1456319122,
				"z": -1.5748270699,
				"element": "H" 
			},
			{
				"x": 1.626136914,
				"y": 1.6589008128,
				"z": 1.6465388261,
				"element": "H" 
			},
			{
				"x": -2.3553942282,
				"y": 0.5843371861,
				"z": 0.4748123261,
				"element": "H" 
			}
		],
		 "valence_orbital": [ 
			{
				"type": "occ",
				"energy": -0.31732,
				"method": "rhf"
			},
			{
				"type": "occ",
				"energy": -0.31253,
				"method": "rhf"
			},
			{
				"type": "occ",
				"energy": -0.31207,
				"method": "rhf"
			},
			{
				"type": "occ",
				"energy": -0.30134,
				"method": "rhf"
			},
			{
				"type": "occ",
				"energy": -0.28317,
				"method": "rhf"
			},
			{
				"type": "unocc",
				"energy": -0.11966,
				"method": "rhf"
			},
			{
				"type": "unocc",
				"energy": -0.11077,
				"method": "rhf"
			},
			{
				"type": "unocc",
				"energy": -0.06936,
				"method": "rhf"
			},
			{
				"type": "unocc",
				"energy": -0.01657,
				"method": "rhf"
			},
			{
				"type": "unocc",
				"energy": 0.03016,
				"method": "rhf"
			}
		],
		"cosmo_sigma_profile": { 
			"-0.025": 0.0,
			"-0.024": 0.0,
			"-0.023": 0.0,
			"-0.022": 0.0,
			"-0.021": 0.0,
			"-0.02": 0.0,
			"-0.019": 0.0,
			"-0.018": 0.0,
			"-0.017": 0.00976703335455,
			"-0.016": 0.8729665626,
			"-0.015": 1.93221118919,
			"-0.014": 2.8850396501,
			"-0.013": 2.47052514953,
			"-0.012": 2.62312868435,
			"-0.011": 2.95429536179,
			"-0.01": 2.07277245991,
			"-0.009": 2.84931331105,
			"-0.008": 5.49546046792,
			"-0.007": 7.01887594242,
			"-0.006": 8.71236284802,
			"-0.005": 12.2345367963,
			"-0.004": 21.1357813553,
			"-0.003": 21.9514926434,
			"-0.002": 11.1310901457,
			"-0.001": 7.94878112863,
			"0.0": 6.5352713741,
			"0.001": 6.40437425323,
			"0.002": 6.83649891839,
			"0.003": 7.10802083344,
			"0.004": 8.38976566465,
			"0.005": 8.45315084965,
			"0.006": 15.4129042261,
			"0.007": 17.0207005859,
			"0.008": 10.1140576272,
			"0.009": 6.88665184611,
			"0.01": 1.68565470856,
			"0.011": 1.98100956995,
			"0.012": 4.10713363527,
			"0.013": 3.45963976732,
			"0.014": 0.341940750698,
			"0.015": 0.0,
			"0.016": 0.0,
			"0.017": 0.0,
			"0.018": 0.0,
			"0.019": 0.0,
			"0.02": 0.0,
			"0.021": 0.0,
			"0.022": 0.0,
			"0.023": 0.0,
			"0.024": 0.0,
			"0.025": 0.0
		}
	}
}
