{
	 "smiles": "FC(F)(F)C(F)(F)C(F)(F)I", 
	 "Tm": 178.15, 
	 "num_atms": 11, 
	 "gaussian": { 
		 "optdone": 1, 
		 "sigma_profile": "no", 
		 "theory": "DFT", 
		 "functional": "B3LYP", 
		 "basiset": "6-31G**", 
		 "properties": { 
			 "R2extent": 2001.4631, 
			 "electric_dipole_moment_norm": 0.401317181292, 
			 "electric_quadrupole_moment_norm": 3.89565316988, 
			 "total_energy": -824.557422748, 
			 "HOMO_LUMO_gap": 0.20706, 
			 "cosmo_polarized_energy": -92333.3, 
			 "cosmo_cavitation_energy": 21.56, 
			 "cosmo_dispersion_energy": -16.17, 
			 "cosmo_repulsion_energy": 1.15, 
			 "cosmo_total_nonelectrostatic_energy": 6.54, 
			 "SMD_solvation_energy": 5.41 
		},
		"coords": [
			{
				"x": -1.6747081912,
				"y": 0.1343626174,
				"z": 2.1171478939,
				"element": "F" 
			},
			{
				"x": -0.4684519033,
				"y": -0.1485715802,
				"z": 1.6123650942,
				"element": "C" 
			},
			{
				"x": 0.2838276709,
				"y": 0.9573720197,
				"z": 1.6412838403,
				"element": "F" 
			},
			{
				"x": 0.1125847186,
				"y": -1.0879118277,
				"z": 2.3673099855,
				"element": "F" 
			},
			{
				"x": -0.5914710423,
				"y": -0.6297025841,
				"z": 0.1404521739,
				"element": "C" 
			},
			{
				"x": -1.1516471565,
				"y": 0.3741393701,
				"z": -0.5672532973,
				"element": "F" 
			},
			{
				"x": 0.6580489072,
				"y": -0.8627379516,
				"z": -0.3142445528,
				"element": "F" 
			},
			{
				"x": -1.442348037,
				"y": -1.9121027886,
				"z": -0.0425705854,
				"element": "C" 
			},
			{
				"x": -0.8916750403,
				"y": -2.9075141894,
				"z": 0.6717146964,
				"element": "F" 
			},
			{
				"x": -2.6819398326,
				"y": -1.6840337703,
				"z": 0.4218474225,
				"element": "F" 
			},
			{
				"x": -1.5578200935,
				"y": -2.5105993152,
				"z": -2.1455526712,
				"element": "I" 
			}
		],
		 "valence_orbital": [ 
			{
				"type": "occ",
				"energy": -0.42924,
				"method": "rhf"
			},
			{
				"type": "occ",
				"energy": -0.39962,
				"method": "rhf"
			},
			{
				"type": "occ",
				"energy": -0.34973,
				"method": "rhf"
			},
			{
				"type": "occ",
				"energy": -0.29371,
				"method": "rhf"
			},
			{
				"type": "occ",
				"energy": -0.29198,
				"method": "rhf"
			},
			{
				"type": "unocc",
				"energy": -0.08492,
				"method": "rhf"
			},
			{
				"type": "unocc",
				"energy": 0.03612,
				"method": "rhf"
			},
			{
				"type": "unocc",
				"energy": 0.04432,
				"method": "rhf"
			},
			{
				"type": "unocc",
				"energy": 0.04906,
				"method": "rhf"
			},
			{
				"type": "unocc",
				"energy": 0.05208,
				"method": "rhf"
			}
		],
		"cosmo_sigma_profile": { 
			"0.0": 0.0,
			"0.0": 0.0,
			"0.0": 0.0,
			"0.0": 0.0,
			"0.0": 0.0,
			"0.0": 0.0,
			"0.0": 0.0,
			"0.0": 0.0,
			"0.0": 0.0,
			"0.0": 0.0,
			"0.0": 0.0,
			"0.0": 0.0,
			"0.0": 0.0,
			"0.0": 0.0,
			"0.0": 0.0,
			"0.0": 0.0,
			"0.0": 0.0,
			"0.0": 0.0,
			"0.0": 0.0,
			"0.0": 0.0,
			"0.0": 0.0,
			"0.0": 0.0,
			"0.0": 0.0,
			"0.0": 0.0,
			"0.0": 0.0,
			"0.0": 0.0,
			"0.0": 0.0,
			"0.0": 0.0,
			"0.0": 0.0,
			"0.0": 0.0,
			"0.0": 0.0,
			"0.0": 0.0,
			"0.0": 0.0,
			"0.0": 0.0,
			"0.0": 0.0,
			"0.0": 0.0,
			"0.0": 0.0,
			"0.0": 0.0,
			"0.0": 0.0,
			"0.0": 0.0,
			"0.0": 0.0,
			"0.0": 0.0,
			"0.0": 0.0,
			"0.0": 0.0,
			"0.0": 0.0,
			"0.0": 0.0,
			"0.0": 0.0,
			"0.0": 0.0,
			"0.0": 0.0,
			"0.0": 0.0,
			"0.0": 0.0
		}
	}
}
