{
	 "smiles": "CCC1=C(NC(=O)S1)C1=CC=CC=C1", 
	 "Tm": 410.15, 
	 "num_atms": 25, 
	 "gaussian": { 
		 "optdone": 1, 
		 "sigma_profile": "yes", 
		 "theory": "DFT", 
		 "functional": "B3LYP", 
		 "basiset": "6-31G**", 
		 "properties": { 
			 "R2extent": 3463.4294, 
			 "electric_dipole_moment_norm": 5.05832998034, 
			 "electric_quadrupole_moment_norm": 14.7780640765, 
			 "total_energy": -953.983079506, 
			 "HOMO_LUMO_gap": 0.17042, 
			 "cosmo_polarized_energy": -11.25, 
			 "cosmo_cavitation_energy": 30.22, 
			 "cosmo_dispersion_energy": -22.17, 
			 "cosmo_repulsion_energy": 1.71, 
			 "cosmo_total_nonelectrostatic_energy": 9.76, 
			 "SMD_solvation_energy": 5.61 
		},
		"coords": [
			{
				"x": 2.4170233288,
				"y": -0.7774511956,
				"z": -1.8766530423,
				"element": "C" 
			},
			{
				"x": 1.6535381681,
				"y": 0.4442957215,
				"z": -1.3350573495,
				"element": "C" 
			},
			{
				"x": 1.0504046451,
				"y": 0.2404513759,
				"z": 0.0258914596,
				"element": "C" 
			},
			{
				"x": -0.2586002471,
				"y": 0.1779219529,
				"z": 0.3859491179,
				"element": "C" 
			},
			{
				"x": -0.4403052538,
				"y": 0.0865866574,
				"z": 1.7741047264,
				"element": "N" 
			},
			{
				"x": 0.6810467516,
				"y": 0.0335994955,
				"z": 2.5732796782,
				"element": "C" 
			},
			{
				"x": 0.7163734517,
				"y": -0.085292378,
				"z": 3.7785265308,
				"element": "O" 
			},
			{
				"x": 2.1024345889,
				"y": 0.1587825459,
				"z": 1.4529570595,
				"element": "S" 
			},
			{
				"x": -1.4614399979,
				"y": 0.2534593959,
				"z": -0.4660571598,
				"element": "C" 
			},
			{
				"x": -1.554915152,
				"y": -0.473185389,
				"z": -1.6651654236,
				"element": "C" 
			},
			{
				"x": -2.6981905015,
				"y": -0.3896801701,
				"z": -2.4590944771,
				"element": "C" 
			},
			{
				"x": -3.7747018845,
				"y": 0.4061305148,
				"z": -2.0632817253,
				"element": "C" 
			},
			{
				"x": -3.6996629785,
				"y": 1.1218327399,
				"z": -0.8664669312,
				"element": "C" 
			},
			{
				"x": -2.5547574012,
				"y": 1.0482267624,
				"z": -0.0752495366,
				"element": "C" 
			},
			{
				"x": 1.7571713207,
				"y": -1.6454179734,
				"z": -1.9759924756,
				"element": "H" 
			},
			{
				"x": 2.8445491458,
				"y": -0.5583120641,
				"z": -2.8602105267,
				"element": "H" 
			},
			{
				"x": 3.2363420459,
				"y": -1.0614182455,
				"z": -1.2088914826,
				"element": "H" 
			},
			{
				"x": 2.3375827579,
				"y": 1.3022103779,
				"z": -1.2947940505,
				"element": "H" 
			},
			{
				"x": 0.8543218188,
				"y": 0.7214858145,
				"z": -2.0294744039,
				"element": "H" 
			},
			{
				"x": -1.3437206241,
				"y": -0.0733419812,
				"z": 2.1977625785,
				"element": "H" 
			},
			{
				"x": -0.7391338211,
				"y": -1.1254619263,
				"z": -1.9587584013,
				"element": "H" 
			},
			{
				"x": -2.7533044333,
				"y": -0.9607171619,
				"z": -3.3813737271,
				"element": "H" 
			},
			{
				"x": -4.666833419,
				"y": 0.4645618018,
				"z": -2.6796241241,
				"element": "H" 
			},
			{
				"x": -4.5310021003,
				"y": 1.7457593939,
				"z": -0.5513577236,
				"element": "H" 
			},
			{
				"x": -2.494720209,
				"y": 1.631373935,
				"z": 0.83953141,
				"element": "H" 
			}
		],
		 "valence_orbital": [ 
			{
				"type": "occ",
				"energy": -0.28663,
				"method": "rhf"
			},
			{
				"type": "occ",
				"energy": -0.27219,
				"method": "rhf"
			},
			{
				"type": "occ",
				"energy": -0.26635,
				"method": "rhf"
			},
			{
				"type": "occ",
				"energy": -0.26154,
				"method": "rhf"
			},
			{
				"type": "occ",
				"energy": -0.20576,
				"method": "rhf"
			},
			{
				"type": "unocc",
				"energy": -0.03534,
				"method": "rhf"
			},
			{
				"type": "unocc",
				"energy": -0.01885,
				"method": "rhf"
			},
			{
				"type": "unocc",
				"energy": 0.01476,
				"method": "rhf"
			},
			{
				"type": "unocc",
				"energy": 0.01857,
				"method": "rhf"
			},
			{
				"type": "unocc",
				"energy": 0.0477,
				"method": "rhf"
			}
		],
		"cosmo_sigma_profile": { 
			"-0.025": 0.0,
			"-0.024": 0.0,
			"-0.023": 0.0,
			"-0.022": 0.0,
			"-0.021": 0.0,
			"-0.02": 0.0,
			"-0.019": 0.0,
			"-0.018": 0.0,
			"-0.017": 0.0,
			"-0.016": 0.583691177771,
			"-0.015": 1.00196739662,
			"-0.014": 0.793232544555,
			"-0.013": 0.506984239541,
			"-0.012": 0.677482470127,
			"-0.011": 0.728995186096,
			"-0.01": 1.55032232897,
			"-0.009": 0.75294883185,
			"-0.008": 1.49666897867,
			"-0.007": 3.02470895172,
			"-0.006": 8.41663663111,
			"-0.005": 13.098011518,
			"-0.004": 20.537060644,
			"-0.003": 20.8154177485,
			"-0.002": 20.2708148175,
			"-0.001": 21.8840757556,
			"0.0": 23.4297269215,
			"0.001": 22.3375900696,
			"0.002": 19.6703363952,
			"0.003": 15.3493201809,
			"0.004": 13.9145148311,
			"0.005": 12.3543814657,
			"0.006": 2.10480745497,
			"0.007": 1.29921044216,
			"0.008": 0.884667025143,
			"0.009": 1.46459208878,
			"0.01": 1.86145265147,
			"0.011": 2.51905203615,
			"0.012": 5.79224647741,
			"0.013": 3.64954550115,
			"0.014": 0.0942508792988,
			"0.015": 0.0,
			"0.016": 0.0,
			"0.017": 0.0,
			"0.018": 0.0,
			"0.019": 0.0,
			"0.02": 0.0,
			"0.021": 0.0,
			"0.022": 0.0,
			"0.023": 0.0,
			"0.024": 0.0,
			"0.025": 0.0
		}
	}
}
