{
	 "smiles": "N#CC1=CC(OC2CCNCC2)=CC=C1", 
	 "Tm": 326.15, 
	 "num_atms": 29, 
	 "gaussian": { 
		 "optdone": 1, 
		 "sigma_profile": "yes", 
		 "theory": "DFT", 
		 "functional": "B3LYP", 
		 "basiset": "6-31G**", 
		 "properties": { 
			 "R2extent": 5213.081, 
			 "electric_dipole_moment_norm": 4.07371524778, 
			 "electric_quadrupole_moment_norm": 26.6390774912, 
			 "total_energy": -650.409148877, 
			 "HOMO_LUMO_gap": 0.17718, 
			 "cosmo_polarized_energy": -12.86, 
			 "cosmo_cavitation_energy": 32.16, 
			 "cosmo_dispersion_energy": -22.85, 
			 "cosmo_repulsion_energy": 1.8, 
			 "cosmo_total_nonelectrostatic_energy": 11.11, 
			 "SMD_solvation_energy": 3.92 
		},
		"coords": [
			{
				"x": 5.1898477037,
				"y": -1.0475917313,
				"z": -3.1428873931,
				"element": "N" 
			},
			{
				"x": 4.1754744352,
				"y": -1.5390614802,
				"z": -2.8547767053,
				"element": "C" 
			},
			{
				"x": 2.9218712558,
				"y": -2.1401233035,
				"z": -2.4981009165,
				"element": "C" 
			},
			{
				"x": 1.9012980967,
				"y": -1.3254399205,
				"z": -1.9729853546,
				"element": "C" 
			},
			{
				"x": 0.6760101065,
				"y": -1.9008012362,
				"z": -1.6222860669,
				"element": "C" 
			},
			{
				"x": -0.3941985475,
				"y": -1.2269002597,
				"z": -1.1227561709,
				"element": "O" 
			},
			{
				"x": -0.3296796356,
				"y": 0.1913603574,
				"z": -0.891049625,
				"element": "C" 
			},
			{
				"x": -1.7827870659,
				"y": 0.6913107541,
				"z": -0.8553559965,
				"element": "C" 
			},
			{
				"x": -1.8943080575,
				"y": 2.0211856712,
				"z": -0.0577757938,
				"element": "C" 
			},
			{
				"x": -0.66049957,
				"y": 2.8069444132,
				"z": -0.0327033068,
				"element": "N" 
			},
			{
				"x": 0.45208126,
				"y": 2.0758706325,
				"z": 0.5950784924,
				"element": "C" 
			},
			{
				"x": 0.3837878544,
				"y": 0.5329859842,
				"z": 0.4185314654,
				"element": "C" 
			},
			{
				"x": 0.487464351,
				"y": -3.2835945937,
				"z": -1.7944838964,
				"element": "C" 
			},
			{
				"x": 1.5046413583,
				"y": -4.075955364,
				"z": -2.3128941084,
				"element": "C" 
			},
			{
				"x": 2.7325760286,
				"y": -3.5171221103,
				"z": -2.6717371879,
				"element": "C" 
			},
			{
				"x": 2.0899674323,
				"y": -0.2674803313,
				"z": -1.8489980592,
				"element": "H" 
			},
			{
				"x": 0.1959833719,
				"y": 0.6603754659,
				"z": -1.7339164232,
				"element": "H" 
			},
			{
				"x": -2.3962200733,
				"y": -0.086611305,
				"z": -0.3868870238,
				"element": "H" 
			},
			{
				"x": -2.1512688381,
				"y": 0.8121033759,
				"z": -1.8799551635,
				"element": "H" 
			},
			{
				"x": -2.7004935093,
				"y": 2.6406355837,
				"z": -0.4628790881,
				"element": "H" 
			},
			{
				"x": -2.164643111,
				"y": 1.8074185606,
				"z": 0.9834045519,
				"element": "H" 
			},
			{
				"x": -0.4085351336,
				"y": 3.0705296957,
				"z": -0.9812077833,
				"element": "H" 
			},
			{
				"x": 0.4732771309,
				"y": 2.3084299672,
				"z": 1.6675571433,
				"element": "H" 
			},
			{
				"x": 1.3863087975,
				"y": 2.4641068566,
				"z": 0.175561182,
				"element": "H" 
			},
			{
				"x": -0.1815456416,
				"y": 0.073924936,
				"z": 1.2382032077,
				"element": "H" 
			},
			{
				"x": 1.3882724578,
				"y": 0.099668277,
				"z": 0.4504367706,
				"element": "H" 
			},
			{
				"x": -0.4713377872,
				"y": -3.7074329147,
				"z": -1.5149289214,
				"element": "H" 
			},
			{
				"x": 1.3400721792,
				"y": -5.1414875874,
				"z": -2.4402186253,
				"element": "H" 
			},
			{
				"x": 3.5313831509,
				"y": -4.1281483935,
				"z": -3.0759892033,
				"element": "H" 
			}
		],
		 "valence_orbital": [ 
			{
				"type": "occ",
				"energy": -0.32428,
				"method": "rhf"
			},
			{
				"type": "occ",
				"energy": -0.31501,
				"method": "rhf"
			},
			{
				"type": "occ",
				"energy": -0.26724,
				"method": "rhf"
			},
			{
				"type": "occ",
				"energy": -0.2375,
				"method": "rhf"
			},
			{
				"type": "occ",
				"energy": -0.22613,
				"method": "rhf"
			},
			{
				"type": "unocc",
				"energy": -0.04895,
				"method": "rhf"
			},
			{
				"type": "unocc",
				"energy": -0.01059,
				"method": "rhf"
			},
			{
				"type": "unocc",
				"energy": 0.03892,
				"method": "rhf"
			},
			{
				"type": "unocc",
				"energy": 0.05237,
				"method": "rhf"
			},
			{
				"type": "unocc",
				"energy": 0.08246,
				"method": "rhf"
			}
		],
		"cosmo_sigma_profile": { 
			"-0.025": 0.0,
			"-0.024": 0.0,
			"-0.023": 0.0,
			"-0.022": 0.0,
			"-0.021": 0.0,
			"-0.02": 0.0,
			"-0.019": 0.0,
			"-0.018": 0.0,
			"-0.017": 0.0,
			"-0.016": 0.0,
			"-0.015": 0.0,
			"-0.014": 0.0,
			"-0.013": 0.0,
			"-0.012": 0.0,
			"-0.011": 0.0,
			"-0.01": 0.740042033197,
			"-0.009": 1.81600173275,
			"-0.008": 5.18520069621,
			"-0.007": 10.4180704327,
			"-0.006": 11.7905886524,
			"-0.005": 12.0916150155,
			"-0.004": 17.0416402123,
			"-0.003": 29.0295814285,
			"-0.002": 25.0710143572,
			"-0.001": 24.0341666138,
			"0.0": 21.3344124024,
			"0.001": 15.1079638083,
			"0.002": 18.7616612645,
			"0.003": 13.4796502409,
			"0.004": 7.19055440819,
			"0.005": 4.09089512368,
			"0.006": 5.50326577999,
			"0.007": 4.27930890676,
			"0.008": 6.47451843064,
			"0.009": 5.01515017375,
			"0.01": 3.82978173298,
			"0.011": 3.56942590027,
			"0.012": 3.40578764025,
			"0.013": 2.06108971635,
			"0.014": 0.299863864774,
			"0.015": 1.15185690027,
			"0.016": 0.500667377031,
			"0.017": 0.562726066364,
			"0.018": 0.400146972301,
			"0.019": 0.189520465607,
			"0.02": 0.0,
			"0.021": 0.0,
			"0.022": 0.0,
			"0.023": 0.0,
			"0.024": 0.0,
			"0.025": 0.0
		}
	}
}
