{
	 "smiles": "FC1=CC=C2C=CC=CC2=C1", 
	 "Tm": 334.15, 
	 "num_atms": 18, 
	 "gaussian": { 
		 "optdone": 1, 
		 "sigma_profile": "yes", 
		 "theory": "DFT", 
		 "functional": "B3LYP", 
		 "basiset": "6-31G**", 
		 "properties": { 
			 "R2extent": 2579.3033, 
			 "electric_dipole_moment_norm": 1.43825361811, 
			 "electric_quadrupole_moment_norm": 7.24184701026, 
			 "total_energy": -485.128074572, 
			 "HOMO_LUMO_gap": 0.17553, 
			 "cosmo_polarized_energy": -4.41, 
			 "cosmo_cavitation_energy": 22.21, 
			 "cosmo_dispersion_energy": -16.57, 
			 "cosmo_repulsion_energy": 1.27, 
			 "cosmo_total_nonelectrostatic_energy": 6.92, 
			 "SMD_solvation_energy": 4.06 
		},
		"coords": [
			{
				"x": 0.9556459988,
				"y": 3.808065081,
				"z": -1.5192884854,
				"element": "F" 
			},
			{
				"x": 0.9822839481,
				"y": 2.4590130669,
				"z": -1.4625851147,
				"element": "C" 
			},
			{
				"x": 2.0183293436,
				"y": 1.8524544357,
				"z": -0.721764143,
				"element": "C" 
			},
			{
				"x": 2.0664843778,
				"y": 0.4794132759,
				"z": -0.6493173223,
				"element": "C" 
			},
			{
				"x": 1.0958285323,
				"y": -0.3266520177,
				"z": -1.3045393876,
				"element": "C" 
			},
			{
				"x": 1.1253269351,
				"y": -1.7458210921,
				"z": -1.2438124567,
				"element": "C" 
			},
			{
				"x": 0.171608826,
				"y": -2.5004348518,
				"z": -1.8886825878,
				"element": "C" 
			},
			{
				"x": -0.8584605057,
				"y": -1.8660843818,
				"z": -2.6261632345,
				"element": "C" 
			},
			{
				"x": -0.9165507685,
				"y": -0.492854348,
				"z": -2.7055617724,
				"element": "C" 
			},
			{
				"x": 0.0525224697,
				"y": 0.3153897993,
				"z": -2.051481236,
				"element": "C" 
			},
			{
				"x": 0.0188835246,
				"y": 1.7342616655,
				"z": -2.1150673768,
				"element": "C" 
			},
			{
				"x": 2.7511052154,
				"y": 2.481205168,
				"z": -0.2277035973,
				"element": "H" 
			},
			{
				"x": 2.856702355,
				"y": -0.0068587164,
				"z": -0.0836293268,
				"element": "H" 
			},
			{
				"x": 1.9179478766,
				"y": -2.2272547537,
				"z": -0.6765523303,
				"element": "H" 
			},
			{
				"x": 0.2049997063,
				"y": -3.5845577411,
				"z": -1.8347225125,
				"element": "H" 
			},
			{
				"x": -1.6062513951,
				"y": -2.4705499827,
				"z": -3.1314229807,
				"element": "H" 
			},
			{
				"x": -1.7069870533,
				"y": -0.0068287898,
				"z": -3.2714160325,
				"element": "H" 
			},
			{
				"x": -0.7587193869,
				"y": 2.2460941829,
				"z": -2.6726901028,
				"element": "H" 
			}
		],
		 "valence_orbital": [ 
			{
				"type": "occ",
				"energy": -0.33525,
				"method": "rhf"
			},
			{
				"type": "occ",
				"energy": -0.32233,
				"method": "rhf"
			},
			{
				"type": "occ",
				"energy": -0.28815,
				"method": "rhf"
			},
			{
				"type": "occ",
				"energy": -0.24302,
				"method": "rhf"
			},
			{
				"type": "occ",
				"energy": -0.21796,
				"method": "rhf"
			},
			{
				"type": "unocc",
				"energy": -0.04243,
				"method": "rhf"
			},
			{
				"type": "unocc",
				"energy": -0.00895,
				"method": "rhf"
			},
			{
				"type": "unocc",
				"energy": 0.02771,
				"method": "rhf"
			},
			{
				"type": "unocc",
				"energy": 0.08854,
				"method": "rhf"
			},
			{
				"type": "unocc",
				"energy": 0.09982,
				"method": "rhf"
			}
		],
		"cosmo_sigma_profile": { 
			"-0.025": 0.0,
			"-0.024": 0.0,
			"-0.023": 0.0,
			"-0.022": 0.0,
			"-0.021": 0.0,
			"-0.02": 0.0,
			"-0.019": 0.0,
			"-0.018": 0.0,
			"-0.017": 0.0,
			"-0.016": 0.0,
			"-0.015": 0.0,
			"-0.014": 0.0,
			"-0.013": 0.0,
			"-0.012": 0.0,
			"-0.011": 0.0,
			"-0.01": 0.0,
			"-0.009": 0.0,
			"-0.008": 0.0884213582469,
			"-0.007": 4.05515036578,
			"-0.006": 14.2468542253,
			"-0.005": 13.4245167702,
			"-0.004": 13.4669438682,
			"-0.003": 11.2424952686,
			"-0.002": 9.01476647334,
			"-0.001": 8.34206675088,
			"0.0": 10.9014128361,
			"0.001": 14.1510904561,
			"0.002": 15.6098907382,
			"0.003": 23.826283367,
			"0.004": 25.9817977786,
			"0.005": 13.5337503673,
			"0.006": 1.01132139422,
			"0.007": 0.0,
			"0.008": 0.0,
			"0.009": 0.0,
			"0.01": 0.0,
			"0.011": 0.0,
			"0.012": 0.0,
			"0.013": 0.0,
			"0.014": 0.0,
			"0.015": 0.0,
			"0.016": 0.0,
			"0.017": 0.0,
			"0.018": 0.0,
			"0.019": 0.0,
			"0.02": 0.0,
			"0.021": 0.0,
			"0.022": 0.0,
			"0.023": 0.0,
			"0.024": 0.0,
			"0.025": 0.0
		}
	}
}
