{
	 "smiles": "ClCC1=CSC(=N1)C1=CSC=C1", 
	 "Tm": 338.15, 
	 "num_atms": 18, 
	 "gaussian": { 
		 "optdone": 1, 
		 "sigma_profile": "yes", 
		 "theory": "DFT", 
		 "functional": "B3LYP", 
		 "basiset": "6-31G**", 
		 "properties": { 
			 "R2extent": 4073.4024, 
			 "electric_dipole_moment_norm": 3.00825259079, 
			 "electric_quadrupole_moment_norm": 10.164354372, 
			 "total_energy": -1619.76978306, 
			 "HOMO_LUMO_gap": 0.17066, 
			 "cosmo_polarized_energy": -9.44, 
			 "cosmo_cavitation_energy": 27.77, 
			 "cosmo_dispersion_energy": -21.56, 
			 "cosmo_repulsion_energy": 1.64, 
			 "cosmo_total_nonelectrostatic_energy": 7.85, 
			 "SMD_solvation_energy": 3.06 
		},
		"coords": [
			{
				"x": -1.6817181845,
				"y": 3.0832619574,
				"z": 0.4235596587,
				"element": "Cl" 
			},
			{
				"x": -1.8419347972,
				"y": 1.9063915267,
				"z": -0.9738238458,
				"element": "C" 
			},
			{
				"x": -1.466186165,
				"y": 0.5147919014,
				"z": -0.5927922938,
				"element": "C" 
			},
			{
				"x": -2.3526077738,
				"y": -0.4812621287,
				"z": -0.277868582,
				"element": "C" 
			},
			{
				"x": -1.5031563705,
				"y": -1.9385690404,
				"z": 0.0996696484,
				"element": "S" 
			},
			{
				"x": 0.0202331883,
				"y": -1.0878749089,
				"z": -0.2022503006,
				"element": "C" 
			},
			{
				"x": -0.1383390443,
				"y": 0.1612098437,
				"z": -0.5492213368,
				"element": "N" 
			},
			{
				"x": 1.3134733513,
				"y": -1.7518534117,
				"z": -0.0707929512,
				"element": "C" 
			},
			{
				"x": 2.5052867963,
				"y": -1.088656038,
				"z": -0.2633320496,
				"element": "C" 
			},
			{
				"x": 3.8621195354,
				"y": -2.127408292,
				"z": -0.0392992909,
				"element": "S" 
			},
			{
				"x": 2.8331680118,
				"y": -3.47960723,
				"z": 0.3195193452,
				"element": "C" 
			},
			{
				"x": 1.5147904002,
				"y": -3.1342515268,
				"z": 0.2662115993,
				"element": "C" 
			},
			{
				"x": -1.1803150628,
				"y": 2.2865828639,
				"z": -1.7514667433,
				"element": "H" 
			},
			{
				"x": -2.8792820715,
				"y": 1.9701963636,
				"z": -1.2999710891,
				"element": "H" 
			},
			{
				"x": -3.4315781234,
				"y": -0.4328828342,
				"z": -0.2403878459,
				"element": "H" 
			},
			{
				"x": 2.6307687174,
				"y": -0.0469230695,
				"z": -0.5196440516,
				"element": "H" 
			},
			{
				"x": 3.2627609437,
				"y": -4.445027794,
				"z": 0.546679628,
				"element": "H" 
			},
			{
				"x": 0.710916649,
				"y": -3.8363181826,
				"z": 0.4574105007,
				"element": "H" 
			}
		],
		 "valence_orbital": [ 
			{
				"type": "occ",
				"energy": -0.29143,
				"method": "rhf"
			},
			{
				"type": "occ",
				"energy": -0.28279,
				"method": "rhf"
			},
			{
				"type": "occ",
				"energy": -0.28004,
				"method": "rhf"
			},
			{
				"type": "occ",
				"energy": -0.25422,
				"method": "rhf"
			},
			{
				"type": "occ",
				"energy": -0.22519,
				"method": "rhf"
			},
			{
				"type": "unocc",
				"energy": -0.05453,
				"method": "rhf"
			},
			{
				"type": "unocc",
				"energy": -0.02122,
				"method": "rhf"
			},
			{
				"type": "unocc",
				"energy": 0.00154,
				"method": "rhf"
			},
			{
				"type": "unocc",
				"energy": 0.00554,
				"method": "rhf"
			},
			{
				"type": "unocc",
				"energy": 0.02972,
				"method": "rhf"
			}
		],
		"cosmo_sigma_profile": { 
			"-0.025": 0.0,
			"-0.024": 0.0,
			"-0.023": 0.0,
			"-0.022": 0.0,
			"-0.021": 0.0,
			"-0.02": 0.0,
			"-0.019": 0.0,
			"-0.018": 0.0,
			"-0.017": 0.0,
			"-0.016": 0.0,
			"-0.015": 0.0,
			"-0.014": 0.0,
			"-0.013": 0.0,
			"-0.012": 0.0,
			"-0.011": 0.0,
			"-0.01": 1.1343509197,
			"-0.009": 4.5803210335,
			"-0.008": 10.1102543768,
			"-0.007": 11.1006183791,
			"-0.006": 9.78784072242,
			"-0.005": 12.1198617047,
			"-0.004": 9.62335952751,
			"-0.003": 9.61836964483,
			"-0.002": 11.2379737847,
			"-0.001": 12.3470475859,
			"0.0": 17.9470230746,
			"0.001": 21.0630858807,
			"0.002": 24.6478687892,
			"0.003": 26.4819123473,
			"0.004": 14.0504493185,
			"0.005": 9.31451855802,
			"0.006": 12.109721345,
			"0.007": 7.98616016859,
			"0.008": 1.53484637334,
			"0.009": 0.938385560779,
			"0.01": 1.46660918259,
			"0.011": 1.06763806435,
			"0.012": 0.119128085083,
			"0.013": 0.0,
			"0.014": 0.0,
			"0.015": 0.0,
			"0.016": 0.0,
			"0.017": 0.0,
			"0.018": 0.0,
			"0.019": 0.0,
			"0.02": 0.0,
			"0.021": 0.0,
			"0.022": 0.0,
			"0.023": 0.0,
			"0.024": 0.0,
			"0.025": 0.0
		}
	}
}
