{
	 "smiles": "OC1=C(Cl)C=C(C=O)C=C1Cl", 
	 "Tm": 428.15, 
	 "num_atms": 15, 
	 "gaussian": { 
		 "optdone": 1, 
		 "sigma_profile": "yes", 
		 "theory": "DFT", 
		 "functional": "B3LYP", 
		 "basiset": "6-31G**", 
		 "properties": { 
			 "R2extent": 3304.4223, 
			 "electric_dipole_moment_norm": 1.52756528175, 
			 "electric_quadrupole_moment_norm": 12.8223787298, 
			 "total_energy": -1339.97416978, 
			 "HOMO_LUMO_gap": 0.17983, 
			 "cosmo_polarized_energy": -9.94, 
			 "cosmo_cavitation_energy": 23.7, 
			 "cosmo_dispersion_energy": -17.8, 
			 "cosmo_repulsion_energy": 1.43, 
			 "cosmo_total_nonelectrostatic_energy": 7.33, 
			 "SMD_solvation_energy": 5.03 
		},
		"coords": [
			{
				"x": -2.5196384749,
				"y": 0.2453721903,
				"z": 2.6217660906,
				"element": "O" 
			},
			{
				"x": -1.7618981017,
				"y": 0.5675013459,
				"z": 1.5617477491,
				"element": "C" 
			},
			{
				"x": -1.1263295348,
				"y": 1.8234058664,
				"z": 1.5306833482,
				"element": "C" 
			},
			{
				"x": -1.3489387154,
				"y": 2.914990964,
				"z": 2.8744515095,
				"element": "Cl" 
			},
			{
				"x": -0.3344071588,
				"y": 2.192862438,
				"z": 0.4514484252,
				"element": "C" 
			},
			{
				"x": -0.1560717736,
				"y": 1.3172128445,
				"z": -0.6263048906,
				"element": "C" 
			},
			{
				"x": 0.6877085328,
				"y": 1.713041241,
				"z": -1.7744681805,
				"element": "C" 
			},
			{
				"x": 0.8934068017,
				"y": 1.0136188162,
				"z": -2.7477085796,
				"element": "O" 
			},
			{
				"x": -0.7785061102,
				"y": 0.0614097589,
				"z": -0.6184550288,
				"element": "C" 
			},
			{
				"x": -1.5645662025,
				"y": -0.2950530596,
				"z": 0.4618149458,
				"element": "C" 
			},
			{
				"x": -2.3624377846,
				"y": -1.8640091395,
				"z": 0.5075794305,
				"element": "Cl" 
			},
			{
				"x": -2.884040343,
				"y": -0.6450960354,
				"z": 2.4912356521,
				"element": "H" 
			},
			{
				"x": 0.1449812324,
				"y": 3.1670239902,
				"z": 0.4514522962,
				"element": "H" 
			},
			{
				"x": 1.1379448489,
				"y": 2.7263885353,
				"z": -1.6892110181,
				"element": "H" 
			},
			{
				"x": -0.6333072165,
				"y": -0.6084697563,
				"z": -1.4585317495,
				"element": "H" 
			}
		],
		 "valence_orbital": [ 
			{
				"type": "occ",
				"energy": -0.33525,
				"method": "rhf"
			},
			{
				"type": "occ",
				"energy": -0.3267,
				"method": "rhf"
			},
			{
				"type": "occ",
				"energy": -0.27122,
				"method": "rhf"
			},
			{
				"type": "occ",
				"energy": -0.26709,
				"method": "rhf"
			},
			{
				"type": "occ",
				"energy": -0.2533,
				"method": "rhf"
			},
			{
				"type": "unocc",
				"energy": -0.07347,
				"method": "rhf"
			},
			{
				"type": "unocc",
				"energy": -0.03978,
				"method": "rhf"
			},
			{
				"type": "unocc",
				"energy": -0.01054,
				"method": "rhf"
			},
			{
				"type": "unocc",
				"energy": 0.0273,
				"method": "rhf"
			},
			{
				"type": "unocc",
				"energy": 0.03349,
				"method": "rhf"
			}
		],
		"cosmo_sigma_profile": { 
			"-0.025": 0.0,
			"-0.024": 0.0,
			"-0.023": 0.0,
			"-0.022": 0.0,
			"-0.021": 0.0,
			"-0.02": 0.0,
			"-0.019": 0.0,
			"-0.018": 0.0,
			"-0.017": 0.212429730498,
			"-0.016": 0.760305433134,
			"-0.015": 0.436751349226,
			"-0.014": 0.663771446095,
			"-0.013": 0.886933653241,
			"-0.012": 0.918883817591,
			"-0.011": 1.20401005431,
			"-0.01": 0.997981921568,
			"-0.009": 3.93276645562,
			"-0.008": 4.8796676012,
			"-0.007": 6.44301817998,
			"-0.006": 6.24665981296,
			"-0.005": 6.41864373444,
			"-0.004": 7.46529151333,
			"-0.003": 10.8312632054,
			"-0.002": 14.3408550167,
			"-0.001": 20.8649839775,
			"0.0": 22.89027539,
			"0.001": 16.8282538441,
			"0.002": 12.6004078165,
			"0.003": 14.7801416196,
			"0.004": 12.1158591116,
			"0.005": 4.18084166157,
			"0.006": 3.46061750808,
			"0.007": 2.82144982873,
			"0.008": 4.48587483016,
			"0.009": 4.11597630567,
			"0.01": 2.78216077849,
			"0.011": 4.42961980072,
			"0.012": 1.92757529423,
			"0.013": 0.539271072755,
			"0.014": 0.0,
			"0.015": 0.0,
			"0.016": 0.0,
			"0.017": 0.0,
			"0.018": 0.0,
			"0.019": 0.0,
			"0.02": 0.0,
			"0.021": 0.0,
			"0.022": 0.0,
			"0.023": 0.0,
			"0.024": 0.0,
			"0.025": 0.0
		}
	}
}
