{
	 "smiles": "CCN(CC)S(=O)(=O)C1=C(OC)C=CC(=C1)C(O)=O", 
	 "Tm": 456.15, 
	 "num_atms": 36, 
	 "gaussian": { 
		 "optdone": 1, 
		 "sigma_profile": "yes", 
		 "theory": "DFT", 
		 "functional": "B3LYP", 
		 "basiset": "6-31G**", 
		 "properties": { 
			 "R2extent": 6007.7302, 
			 "electric_dipole_moment_norm": 6.38257005054, 
			 "electric_quadrupole_moment_norm": 27.4685642661, 
			 "total_energy": -1296.50940487, 
			 "HOMO_LUMO_gap": 0.18962, 
			 "cosmo_polarized_energy": -22.84, 
			 "cosmo_cavitation_energy": 39.64, 
			 "cosmo_dispersion_energy": -27.45, 
			 "cosmo_repulsion_energy": 2.07, 
			 "cosmo_total_nonelectrostatic_energy": 14.25, 
			 "SMD_solvation_energy": 7.98 
		},
		"coords": [
			{
				"x": -0.7621211161,
				"y": 0.5268597271,
				"z": 3.6997211598,
				"element": "C" 
			},
			{
				"x": -1.4359000736,
				"y": 1.202072125,
				"z": 2.5042545102,
				"element": "C" 
			},
			{
				"x": -1.5519753091,
				"y": 0.3051776727,
				"z": 1.3411574972,
				"element": "N" 
			},
			{
				"x": -2.4644971896,
				"y": -0.850639435,
				"z": 1.4182160918,
				"element": "C" 
			},
			{
				"x": -3.9534965543,
				"y": -0.4950740417,
				"z": 1.4488859323,
				"element": "C" 
			},
			{
				"x": -1.1680973713,
				"y": 0.8748481435,
				"z": -0.1834609451,
				"element": "S" 
			},
			{
				"x": -0.7326968947,
				"y": 2.2670350508,
				"z": -0.0618831649,
				"element": "O" 
			},
			{
				"x": -2.2473631377,
				"y": 0.5084413342,
				"z": -1.1127525285,
				"element": "O" 
			},
			{
				"x": 0.2437399382,
				"y": -0.124538208,
				"z": -0.698938743,
				"element": "C" 
			},
			{
				"x": 1.4822256099,
				"y": -0.0747596665,
				"z": -0.0216783203,
				"element": "C" 
			},
			{
				"x": 1.5563667833,
				"y": 0.7177181158,
				"z": 1.0687212012,
				"element": "O" 
			},
			{
				"x": 2.8163968244,
				"y": 0.8886458728,
				"z": 1.713848919,
				"element": "C" 
			},
			{
				"x": 2.5470362057,
				"y": -0.8520304892,
				"z": -0.5037040683,
				"element": "C" 
			},
			{
				"x": 2.3791102779,
				"y": -1.6511240998,
				"z": -1.6287797667,
				"element": "C" 
			},
			{
				"x": 1.1601085473,
				"y": -1.688686425,
				"z": -2.315714486,
				"element": "C" 
			},
			{
				"x": 0.0944871922,
				"y": -0.9206297592,
				"z": -1.8296124642,
				"element": "C" 
			},
			{
				"x": 1.0615180944,
				"y": -2.5783998846,
				"z": -3.5152379737,
				"element": "C" 
			},
			{
				"x": 0.0109189931,
				"y": -2.3785366119,
				"z": -4.3524407211,
				"element": "O" 
			},
			{
				"x": 1.8673802316,
				"y": -3.4479496754,
				"z": -3.7557422284,
				"element": "O" 
			},
			{
				"x": -1.345651504,
				"y": -0.3133172624,
				"z": 4.0890027102,
				"element": "H" 
			},
			{
				"x": -0.6510348078,
				"y": 1.2502861989,
				"z": 4.5143907802,
				"element": "H" 
			},
			{
				"x": 0.2283073983,
				"y": 0.1578048177,
				"z": 3.4213011512,
				"element": "H" 
			},
			{
				"x": -0.8550080387,
				"y": 2.0668917274,
				"z": 2.1851328695,
				"element": "H" 
			},
			{
				"x": -2.4298359628,
				"y": 1.5729437703,
				"z": 2.7888254162,
				"element": "H" 
			},
			{
				"x": -2.1861413402,
				"y": -1.4167048467,
				"z": 2.3135739611,
				"element": "H" 
			},
			{
				"x": -2.2553304806,
				"y": -1.5021945822,
				"z": 0.5661009044,
				"element": "H" 
			},
			{
				"x": -4.2032070086,
				"y": 0.1326076874,
				"z": 2.3100495669,
				"element": "H" 
			},
			{
				"x": -4.5512025241,
				"y": -1.4098993252,
				"z": 1.5234548631,
				"element": "H" 
			},
			{
				"x": -4.2369777428,
				"y": 0.0327911329,
				"z": 0.5359712854,
				"element": "H" 
			},
			{
				"x": 3.1783983569,
				"y": -0.0530162822,
				"z": 2.1426212418,
				"element": "H" 
			},
			{
				"x": 2.6413727364,
				"y": 1.6076919147,
				"z": 2.5139240766,
				"element": "H" 
			},
			{
				"x": 3.5640360891,
				"y": 1.2891390265,
				"z": 1.0203717398,
				"element": "H" 
			},
			{
				"x": 3.5057088045,
				"y": -0.8375569285,
				"z": -0.0002232396,
				"element": "H" 
			},
			{
				"x": 3.1955224783,
				"y": -2.2630648623,
				"z": -1.9969669974,
				"element": "H" 
			},
			{
				"x": -0.887904732,
				"y": -0.9294870252,
				"z": -2.2918931174,
				"element": "H" 
			},
			{
				"x": -0.4600927733,
				"y": -1.5645449066,
				"z": -4.1267971134,
				"element": "H" 
			}
		],
		 "valence_orbital": [ 
			{
				"type": "occ",
				"energy": -0.30199,
				"method": "rhf"
			},
			{
				"type": "occ",
				"energy": -0.28744,
				"method": "rhf"
			},
			{
				"type": "occ",
				"energy": -0.27505,
				"method": "rhf"
			},
			{
				"type": "occ",
				"energy": -0.25787,
				"method": "rhf"
			},
			{
				"type": "occ",
				"energy": -0.24425,
				"method": "rhf"
			},
			{
				"type": "unocc",
				"energy": -0.05463,
				"method": "rhf"
			},
			{
				"type": "unocc",
				"energy": -0.04272,
				"method": "rhf"
			},
			{
				"type": "unocc",
				"energy": 0.03781,
				"method": "rhf"
			},
			{
				"type": "unocc",
				"energy": 0.04467,
				"method": "rhf"
			},
			{
				"type": "unocc",
				"energy": 0.06381,
				"method": "rhf"
			}
		],
		"cosmo_sigma_profile": { 
			"-0.025": 0.0,
			"-0.024": 0.0,
			"-0.023": 0.0,
			"-0.022": 0.0,
			"-0.021": 0.0,
			"-0.02": 0.0,
			"-0.019": 0.611003607457,
			"-0.018": 0.999810963089,
			"-0.017": 0.720551329788,
			"-0.016": 1.16731224174,
			"-0.015": 1.08566587032,
			"-0.014": 1.11798494678,
			"-0.013": 0.599824921037,
			"-0.012": 0.697754915211,
			"-0.011": 0.905162090868,
			"-0.01": 1.16672661303,
			"-0.009": 1.10068540239,
			"-0.008": 4.40586117684,
			"-0.007": 9.08205108128,
			"-0.006": 13.0269838811,
			"-0.005": 18.190206928,
			"-0.004": 28.7254131406,
			"-0.003": 30.1075996249,
			"-0.002": 28.9271645801,
			"-0.001": 24.6681154134,
			"0.0": 30.1839865204,
			"0.001": 25.2997706269,
			"0.002": 12.262181675,
			"0.003": 6.33019473682,
			"0.004": 5.78042627857,
			"0.005": 6.70674338733,
			"0.006": 6.38541228396,
			"0.007": 5.49953266404,
			"0.008": 6.48885384088,
			"0.009": 7.58549769672,
			"0.01": 11.2938518161,
			"0.011": 13.0330091764,
			"0.012": 7.63148022139,
			"0.013": 1.61236007529,
			"0.014": 0.0898023801069,
			"0.015": 0.0,
			"0.016": 0.0,
			"0.017": 0.0,
			"0.018": 0.0,
			"0.019": 0.0,
			"0.02": 0.0,
			"0.021": 0.0,
			"0.022": 0.0,
			"0.023": 0.0,
			"0.024": 0.0,
			"0.025": 0.0
		}
	}
}
