{
	 "smiles": "NC1=NN2C(NC(=O)C=C2C2=CC=CC=C2)=C1N=NC1=CC=C(Cl)C=C1", 
	 "Tm": 585.15, 
	 "num_atms": 39, 
	 "gaussian": { 
		 "optdone": 1, 
		 "sigma_profile": "yes", 
		 "theory": "DFT", 
		 "functional": "B3LYP", 
		 "basiset": "6-31G**", 
		 "properties": { 
			 "R2extent": 16602.9292, 
			 "electric_dipole_moment_norm": 5.21694233148, 
			 "electric_quadrupole_moment_norm": 4.02328503092, 
			 "total_energy": -1557.64217261, 
			 "HOMO_LUMO_gap": 0.13014, 
			 "cosmo_polarized_energy": -17.8, 
			 "cosmo_cavitation_energy": 47.05, 
			 "cosmo_dispersion_energy": -33.97, 
			 "cosmo_repulsion_energy": 2.56, 
			 "cosmo_total_nonelectrostatic_energy": 15.63, 
			 "SMD_solvation_energy": 6.35 
		},
		"coords": [
			{
				"x": 3.0449130285,
				"y": 1.159147066,
				"z": -2.0880293499,
				"element": "N" 
			},
			{
				"x": 2.0913008256,
				"y": 0.583314983,
				"z": -1.2952151517,
				"element": "C" 
			},
			{
				"x": 2.0771220404,
				"y": -0.7160096197,
				"z": -1.0338898529,
				"element": "N" 
			},
			{
				"x": 1.0065857674,
				"y": -0.8749748116,
				"z": -0.1527333652,
				"element": "N" 
			},
			{
				"x": 0.3695161647,
				"y": 0.304912707,
				"z": 0.0982079335,
				"element": "C" 
			},
			{
				"x": -0.7200532511,
				"y": 0.3437108935,
				"z": 0.8973128688,
				"element": "N" 
			},
			{
				"x": -1.2784110848,
				"y": -0.8059211108,
				"z": 1.4983867566,
				"element": "C" 
			},
			{
				"x": -2.27195809,
				"y": -0.7185308678,
				"z": 2.2042958297,
				"element": "O" 
			},
			{
				"x": -0.545880144,
				"y": -2.0279923858,
				"z": 1.1893927857,
				"element": "C" 
			},
			{
				"x": 0.5605505511,
				"y": -2.0746077019,
				"z": 0.3847999039,
				"element": "C" 
			},
			{
				"x": 1.2809854534,
				"y": -3.3334879867,
				"z": 0.088540223,
				"element": "C" 
			},
			{
				"x": 2.6842909784,
				"y": -3.4025572667,
				"z": 0.0678815812,
				"element": "C" 
			},
			{
				"x": 3.321126275,
				"y": -4.6239983307,
				"z": -0.1410449169,
				"element": "C" 
			},
			{
				"x": 2.5743972075,
				"y": -5.7866175267,
				"z": -0.3431145796,
				"element": "C" 
			},
			{
				"x": 1.1799464039,
				"y": -5.7244220355,
				"z": -0.3343616907,
				"element": "C" 
			},
			{
				"x": 0.5370583786,
				"y": -4.5074421142,
				"z": -0.1179041011,
				"element": "C" 
			},
			{
				"x": 1.0403317766,
				"y": 1.3014682754,
				"z": -0.6232062349,
				"element": "C" 
			},
			{
				"x": 0.7898763315,
				"y": 2.6378918976,
				"z": -0.7389536274,
				"element": "N" 
			},
			{
				"x": -0.2054203338,
				"y": 3.058493476,
				"z": -0.0565093658,
				"element": "N" 
			},
			{
				"x": -0.4681275281,
				"y": 4.4402319396,
				"z": -0.1768263866,
				"element": "C" 
			},
			{
				"x": -1.5786653424,
				"y": 4.9190801206,
				"z": 0.5336935135,
				"element": "C" 
			},
			{
				"x": -1.9301132608,
				"y": 6.265628343,
				"z": 0.4878910246,
				"element": "C" 
			},
			{
				"x": -1.1579735915,
				"y": 7.1397649238,
				"z": -0.276349409,
				"element": "C" 
			},
			{
				"x": -1.5869202468,
				"y": 8.8414552254,
				"z": -0.343614921,
				"element": "Cl" 
			},
			{
				"x": -0.0444102068,
				"y": 6.6848988525,
				"z": -0.9906624043,
				"element": "C" 
			},
			{
				"x": 0.2978825428,
				"y": 5.3398563158,
				"z": -0.9400781552,
				"element": "C" 
			},
			{
				"x": 2.8061784703,
				"y": 2.0658528096,
				"z": -2.4613687241,
				"element": "H" 
			},
			{
				"x": 3.5335258949,
				"y": 0.5389326609,
				"z": -2.717051598,
				"element": "H" 
			},
			{
				"x": -1.1427334435,
				"y": 1.2577823078,
				"z": 1.0362643121,
				"element": "H" 
			},
			{
				"x": -0.9037850516,
				"y": -2.93072976,
				"z": 1.6643400454,
				"element": "H" 
			},
			{
				"x": 3.2671013802,
				"y": -2.5015007659,
				"z": 0.2098044264,
				"element": "H" 
			},
			{
				"x": 4.4062431055,
				"y": -4.6665589912,
				"z": -0.1466332328,
				"element": "H" 
			},
			{
				"x": 3.0766846542,
				"y": -6.7347588616,
				"z": -0.5116135568,
				"element": "H" 
			},
			{
				"x": 0.5911013813,
				"y": -6.6212272428,
				"z": -0.5020383944,
				"element": "H" 
			},
			{
				"x": -0.5471474909,
				"y": -4.4584262744,
				"z": -0.1297272452,
				"element": "H" 
			},
			{
				"x": -2.1621075212,
				"y": 4.217489547,
				"z": 1.1215291027,
				"element": "H" 
			},
			{
				"x": -2.7894053376,
				"y": 6.6344797476,
				"z": 1.0365023317,
				"element": "H" 
			},
			{
				"x": 0.5429627805,
				"y": 7.3838901852,
				"z": -1.5761751495,
				"element": "H" 
			},
			{
				"x": 1.1579305325,
				"y": 4.9679813769,
				"z": -1.4842412259,
				"element": "H" 
			}
		],
		 "valence_orbital": [ 
			{
				"type": "occ",
				"energy": -0.26319,
				"method": "rhf"
			},
			{
				"type": "occ",
				"energy": -0.25262,
				"method": "rhf"
			},
			{
				"type": "occ",
				"energy": -0.24227,
				"method": "rhf"
			},
			{
				"type": "occ",
				"energy": -0.22104,
				"method": "rhf"
			},
			{
				"type": "occ",
				"energy": -0.21362,
				"method": "rhf"
			},
			{
				"type": "unocc",
				"energy": -0.08348,
				"method": "rhf"
			},
			{
				"type": "unocc",
				"energy": -0.06084,
				"method": "rhf"
			},
			{
				"type": "unocc",
				"energy": -0.01565,
				"method": "rhf"
			},
			{
				"type": "unocc",
				"energy": -0.01389,
				"method": "rhf"
			},
			{
				"type": "unocc",
				"energy": -0.00211,
				"method": "rhf"
			}
		],
		"cosmo_sigma_profile": { 
			"-0.025": 0.0,
			"-0.024": 0.0,
			"-0.023": 0.0,
			"-0.022": 0.0,
			"-0.021": 0.0,
			"-0.02": 0.0,
			"-0.019": 0.0,
			"-0.018": 0.0,
			"-0.017": 0.0,
			"-0.016": 0.0,
			"-0.015": 0.0,
			"-0.014": 0.738606447475,
			"-0.013": 2.06459362971,
			"-0.012": 1.76366808958,
			"-0.011": 2.59295287581,
			"-0.01": 3.70121490398,
			"-0.009": 3.0722568892,
			"-0.008": 2.66659267413,
			"-0.007": 10.5855221537,
			"-0.006": 20.0967597542,
			"-0.005": 24.5802420013,
			"-0.004": 25.767667539,
			"-0.003": 21.2761813551,
			"-0.002": 26.8376298552,
			"-0.001": 26.6035444592,
			"0.0": 27.5677622052,
			"0.001": 29.4305259853,
			"0.002": 38.9785845606,
			"0.003": 37.3570362174,
			"0.004": 29.1107227123,
			"0.005": 13.2220011207,
			"0.006": 4.45777746191,
			"0.007": 3.62300750672,
			"0.008": 2.82756937036,
			"0.009": 2.95978893062,
			"0.01": 3.66837963478,
			"0.011": 3.44959880779,
			"0.012": 3.6670464264,
			"0.013": 6.43405444155,
			"0.014": 2.31135404713,
			"0.015": 0.0256944266986,
			"0.016": 0.0,
			"0.017": 0.0,
			"0.018": 0.0,
			"0.019": 0.0,
			"0.02": 0.0,
			"0.021": 0.0,
			"0.022": 0.0,
			"0.023": 0.0,
			"0.024": 0.0,
			"0.025": 0.0
		}
	}
}
