{
	 "smiles": "OC(=O)C=CC1=C(Br)C=CC=C1", 
	 "Tm": 489.15, 
	 "num_atms": 19, 
	 "gaussian": { 
		 "optdone": 1, 
		 "sigma_profile": "yes", 
		 "theory": "DFT", 
		 "functional": "B3LYP", 
		 "basiset": "6-31G**", 
		 "properties": { 
			 "R2extent": 4145.904, 
			 "electric_dipole_moment_norm": 6.11798543967, 
			 "electric_quadrupole_moment_norm": 22.8489457389, 
			 "total_energy": -3069.01875295, 
			 "HOMO_LUMO_gap": 0.16914, 
			 "cosmo_polarized_energy": -16.62, 
			 "cosmo_cavitation_energy": 26.46, 
			 "cosmo_dispersion_energy": -19.6, 
			 "cosmo_repulsion_energy": 1.56, 
			 "cosmo_total_nonelectrostatic_energy": 8.42, 
			 "SMD_solvation_energy": 4.82 
		},
		"coords": [
			{
				"x": 3.6984019779,
				"y": -3.2010073277,
				"z": -1.2977552652,
				"element": "O" 
			},
			{
				"x": 3.3392550663,
				"y": -1.8897578105,
				"z": -1.3948161268,
				"element": "C" 
			},
			{
				"x": 4.1700875734,
				"y": -1.0589220756,
				"z": -1.681855014,
				"element": "O" 
			},
			{
				"x": 1.9062983913,
				"y": -1.5937497119,
				"z": -1.1281262174,
				"element": "C" 
			},
			{
				"x": 1.470523524,
				"y": -0.3221080192,
				"z": -1.1664809301,
				"element": "C" 
			},
			{
				"x": 0.0967288187,
				"y": 0.1364888525,
				"z": -0.9527856033,
				"element": "C" 
			},
			{
				"x": -0.2000132424,
				"y": 1.475319445,
				"z": -0.6224737598,
				"element": "C" 
			},
			{
				"x": 1.1903724814,
				"y": 2.7709926545,
				"z": -0.3978765154,
				"element": "Br" 
			},
			{
				"x": -1.5096837045,
				"y": 1.9102731737,
				"z": -0.4252788511,
				"element": "C" 
			},
			{
				"x": -2.5662420726,
				"y": 1.0120615816,
				"z": -0.5611616223,
				"element": "C" 
			},
			{
				"x": -2.3084678139,
				"y": -0.3191466667,
				"z": -0.8971762754,
				"element": "C" 
			},
			{
				"x": -0.999144166,
				"y": -0.740659265,
				"z": -1.0909749789,
				"element": "C" 
			},
			{
				"x": 2.9362065365,
				"y": -3.7433912197,
				"z": -1.0526846415,
				"element": "H" 
			},
			{
				"x": 1.2377199676,
				"y": -2.4182515437,
				"z": -0.8877554538,
				"element": "H" 
			},
			{
				"x": 2.2219051803,
				"y": 0.4370509047,
				"z": -1.3666948753,
				"element": "H" 
			},
			{
				"x": -1.6949082077,
				"y": 2.9461860654,
				"z": -0.1660792204,
				"element": "H" 
			},
			{
				"x": -3.5851498455,
				"y": 1.3557209313,
				"z": -0.4112030877,
				"element": "H" 
			},
			{
				"x": -3.1267147713,
				"y": -1.0221659696,
				"z": -1.0178094169,
				"element": "H" 
			},
			{
				"x": -0.8089756936,
				"y": -1.7686339991,
				"z": -1.3824121448,
				"element": "H" 
			}
		],
		 "valence_orbital": [ 
			{
				"type": "occ",
				"energy": -0.30716,
				"method": "rhf"
			},
			{
				"type": "occ",
				"energy": -0.29449,
				"method": "rhf"
			},
			{
				"type": "occ",
				"energy": -0.27164,
				"method": "rhf"
			},
			{
				"type": "occ",
				"energy": -0.2621,
				"method": "rhf"
			},
			{
				"type": "occ",
				"energy": -0.24708,
				"method": "rhf"
			},
			{
				"type": "unocc",
				"energy": -0.07794,
				"method": "rhf"
			},
			{
				"type": "unocc",
				"energy": -0.02733,
				"method": "rhf"
			},
			{
				"type": "unocc",
				"energy": -0.00183,
				"method": "rhf"
			},
			{
				"type": "unocc",
				"energy": 0.00613,
				"method": "rhf"
			},
			{
				"type": "unocc",
				"energy": 0.05535,
				"method": "rhf"
			}
		],
		"cosmo_sigma_profile": { 
			"-0.025": 0.0,
			"-0.024": 0.0,
			"-0.023": 0.0,
			"-0.022": 0.0,
			"-0.021": 0.0,
			"-0.02": 0.0606578976955,
			"-0.019": 0.9656204813,
			"-0.018": 1.31292100095,
			"-0.017": 1.21663156543,
			"-0.016": 0.933767621686,
			"-0.015": 1.15979352086,
			"-0.014": 0.844396774185,
			"-0.013": 1.13278307341,
			"-0.012": 0.789234693341,
			"-0.011": 1.46277516214,
			"-0.01": 1.06862473903,
			"-0.009": 2.65762783108,
			"-0.008": 2.84436118286,
			"-0.007": 8.30565376148,
			"-0.006": 9.70730586776,
			"-0.005": 11.0267433811,
			"-0.004": 8.32536330416,
			"-0.003": 11.5108161309,
			"-0.002": 10.6122697797,
			"-0.001": 14.5980426916,
			"0.0": 15.9751369744,
			"0.001": 22.4399256278,
			"0.002": 24.8182748905,
			"0.003": 18.7359475987,
			"0.004": 11.8022470703,
			"0.005": 2.71607380016,
			"0.006": 2.53953777911,
			"0.007": 2.65583221656,
			"0.008": 2.46654846607,
			"0.009": 2.87799681046,
			"0.01": 4.40803981901,
			"0.011": 5.16654005311,
			"0.012": 5.81527632181,
			"0.013": 2.40322745041,
			"0.014": 0.383791436943,
			"0.015": 0.0,
			"0.016": 0.0,
			"0.017": 0.0,
			"0.018": 0.0,
			"0.019": 0.0,
			"0.02": 0.0,
			"0.021": 0.0,
			"0.022": 0.0,
			"0.023": 0.0,
			"0.024": 0.0,
			"0.025": 0.0
		}
	}
}
