{
	 "smiles": "FC1=CC(=CC(F)=C1F)C#N", 
	 "Tm": 319.15, 
	 "num_atms": 13, 
	 "gaussian": { 
		 "optdone": 1, 
		 "sigma_profile": "yes", 
		 "theory": "DFT", 
		 "functional": "B3LYP", 
		 "basiset": "6-31G**", 
		 "properties": { 
			 "R2extent": 2314.2756, 
			 "electric_dipole_moment_norm": 1.87015210344, 
			 "electric_quadrupole_moment_norm": 16.1597066576, 
			 "total_energy": -622.166707096, 
			 "HOMO_LUMO_gap": 0.20654, 
			 "cosmo_polarized_energy": -7.55, 
			 "cosmo_cavitation_energy": 20.89, 
			 "cosmo_dispersion_energy": -14.34, 
			 "cosmo_repulsion_energy": 1.09, 
			 "cosmo_total_nonelectrostatic_energy": 7.64, 
			 "SMD_solvation_energy": 6.63 
		},
		"coords": [
			{
				"x": 0.8404491992,
				"y": 1.087831542,
				"z": 0.3728850879,
				"element": "F" 
			},
			{
				"x": 0.0267397859,
				"y": 0.3343768931,
				"z": -0.3755825344,
				"element": "C" 
			},
			{
				"x": -1.035593699,
				"y": 0.9100111474,
				"z": -1.0562009146,
				"element": "C" 
			},
			{
				"x": -1.8685815126,
				"y": 0.0873600402,
				"z": -1.8321624183,
				"element": "C" 
			},
			{
				"x": -1.634035725,
				"y": -1.2946420035,
				"z": -1.9204710591,
				"element": "C" 
			},
			{
				"x": -0.562681008,
				"y": -1.836972725,
				"z": -1.2267741919,
				"element": "C" 
			},
			{
				"x": -0.309763558,
				"y": -3.1493290526,
				"z": -1.2881346584,
				"element": "F" 
			},
			{
				"x": 0.2762101091,
				"y": -1.0363998531,
				"z": -0.4507295635,
				"element": "C" 
			},
			{
				"x": 1.3021753889,
				"y": -1.5739147179,
				"z": 0.209980721,
				"element": "F" 
			},
			{
				"x": -2.971434251,
				"y": 0.665191266,
				"z": -2.5425235907,
				"element": "C" 
			},
			{
				"x": -3.8660955017,
				"y": 1.1339501188,
				"z": -3.1187710981,
				"element": "N" 
			},
			{
				"x": -1.2051749246,
				"y": 1.976995687,
				"z": -0.9794081353,
				"element": "H" 
			},
			{
				"x": -2.2685143031,
				"y": -1.9403583423,
				"z": -2.5151076448,
				"element": "H" 
			}
		],
		 "valence_orbital": [ 
			{
				"type": "occ",
				"energy": -0.37342,
				"method": "rhf"
			},
			{
				"type": "occ",
				"energy": -0.35034,
				"method": "rhf"
			},
			{
				"type": "occ",
				"energy": -0.34821,
				"method": "rhf"
			},
			{
				"type": "occ",
				"energy": -0.28685,
				"method": "rhf"
			},
			{
				"type": "occ",
				"energy": -0.2766,
				"method": "rhf"
			},
			{
				"type": "unocc",
				"energy": -0.07006,
				"method": "rhf"
			},
			{
				"type": "unocc",
				"energy": -0.03899,
				"method": "rhf"
			},
			{
				"type": "unocc",
				"energy": 0.01965,
				"method": "rhf"
			},
			{
				"type": "unocc",
				"energy": 0.02585,
				"method": "rhf"
			},
			{
				"type": "unocc",
				"energy": 0.06781,
				"method": "rhf"
			}
		],
		"cosmo_sigma_profile": { 
			"-0.025": 0.0,
			"-0.024": 0.0,
			"-0.023": 0.0,
			"-0.022": 0.0,
			"-0.021": 0.0,
			"-0.02": 0.0,
			"-0.019": 0.0,
			"-0.018": 0.0,
			"-0.017": 0.0,
			"-0.016": 0.0,
			"-0.015": 0.0,
			"-0.014": 0.0,
			"-0.013": 0.0,
			"-0.012": 0.0,
			"-0.011": 0.266319045725,
			"-0.01": 3.36073722423,
			"-0.009": 3.66159333088,
			"-0.008": 4.10036515628,
			"-0.007": 2.99391491809,
			"-0.006": 3.71377365202,
			"-0.005": 4.44998543512,
			"-0.004": 12.97930668,
			"-0.003": 16.4724482316,
			"-0.002": 18.3566163186,
			"-0.001": 15.7764777958,
			"0.0": 7.14304607231,
			"0.001": 7.99417230225,
			"0.002": 24.6287265438,
			"0.003": 20.3660115383,
			"0.004": 1.82329499815,
			"0.005": 2.57240770047,
			"0.006": 2.43857671721,
			"0.007": 3.36644083907,
			"0.008": 3.28516815049,
			"0.009": 3.40288364278,
			"0.01": 2.69090734509,
			"0.011": 2.49140134475,
			"0.012": 2.14950586952,
			"0.013": 0.430853942429,
			"0.014": 0.0,
			"0.015": 0.0,
			"0.016": 0.0,
			"0.017": 0.0,
			"0.018": 0.0,
			"0.019": 0.0,
			"0.02": 0.0,
			"0.021": 0.0,
			"0.022": 0.0,
			"0.023": 0.0,
			"0.024": 0.0,
			"0.025": 0.0
		}
	}
}
