{
	 "smiles": "CC1=NN=C(S)N1CC(N)=O", 
	 "Tm": 506.15, 
	 "num_atms": 19, 
	 "gaussian": { 
		 "optdone": 1, 
		 "sigma_profile": "yes", 
		 "theory": "DFT", 
		 "functional": "B3LYP", 
		 "basiset": "6-31G**", 
		 "properties": { 
			 "R2extent": 2157.6801, 
			 "electric_dipole_moment_norm": 3.89229883873, 
			 "electric_quadrupole_moment_norm": 21.2630658848, 
			 "total_energy": -887.759874885, 
			 "HOMO_LUMO_gap": 0.21846, 
			 "cosmo_polarized_energy": -21.76, 
			 "cosmo_cavitation_energy": 24.65, 
			 "cosmo_dispersion_energy": -18.34, 
			 "cosmo_repulsion_energy": 1.44, 
			 "cosmo_total_nonelectrostatic_energy": 7.75, 
			 "SMD_solvation_energy": 2.6 
		},
		"coords": [
			{
				"x": -1.3572168884,
				"y": 1.4734025622,
				"z": -0.6319830853,
				"element": "C" 
			},
			{
				"x": -0.3368022811,
				"y": 0.4372578876,
				"z": -0.9620749126,
				"element": "C" 
			},
			{
				"x": 0.0028171575,
				"y": 0.0419095347,
				"z": -2.1649792894,
				"element": "N" 
			},
			{
				"x": 0.9893174731,
				"y": -0.9247444243,
				"z": -2.039733553,
				"element": "N" 
			},
			{
				"x": 1.2052972344,
				"y": -1.0786246958,
				"z": -0.7590793863,
				"element": "C" 
			},
			{
				"x": 2.3565773952,
				"y": -2.2078142808,
				"z": -0.0208839729,
				"element": "S" 
			},
			{
				"x": 0.4082912943,
				"y": -0.2438240914,
				"z": -0.0135606339,
				"element": "N" 
			},
			{
				"x": 0.2654476312,
				"y": -0.1784581614,
				"z": 1.4368725209,
				"element": "C" 
			},
			{
				"x": -0.9241947763,
				"y": -1.0231294524,
				"z": 1.9398256441,
				"element": "C" 
			},
			{
				"x": -0.7257367231,
				"y": -2.368984724,
				"z": 1.9129104289,
				"element": "N" 
			},
			{
				"x": -1.9552549392,
				"y": -0.4937539884,
				"z": 2.3254880619,
				"element": "O" 
			},
			{
				"x": -2.0935862035,
				"y": 1.1011487565,
				"z": 0.0868728907,
				"element": "H" 
			},
			{
				"x": -0.8947821865,
				"y": 2.3706056183,
				"z": -0.2028554516,
				"element": "H" 
			},
			{
				"x": -1.8637237182,
				"y": 1.7582987538,
				"z": -1.5550821862,
				"element": "H" 
			},
			{
				"x": 2.5735540769,
				"y": -2.856817688,
				"z": -1.179830919,
				"element": "H" 
			},
			{
				"x": 1.2033316431,
				"y": -0.501423438,
				"z": 1.8983145439,
				"element": "H" 
			},
			{
				"x": 0.0746875172,
				"y": 0.8532106616,
				"z": 1.7332723444,
				"element": "H" 
			},
			{
				"x": -1.5144911212,
				"y": -2.9614698705,
				"z": 2.1276696373,
				"element": "H" 
			},
			{
				"x": 0.0905674145,
				"y": -2.7850889596,
				"z": 1.486537318,
				"element": "H" 
			}
		],
		 "valence_orbital": [ 
			{
				"type": "occ",
				"energy": -0.30595,
				"method": "rhf"
			},
			{
				"type": "occ",
				"energy": -0.28874,
				"method": "rhf"
			},
			{
				"type": "occ",
				"energy": -0.26592,
				"method": "rhf"
			},
			{
				"type": "occ",
				"energy": -0.25811,
				"method": "rhf"
			},
			{
				"type": "occ",
				"energy": -0.238,
				"method": "rhf"
			},
			{
				"type": "unocc",
				"energy": -0.01954,
				"method": "rhf"
			},
			{
				"type": "unocc",
				"energy": 0.00261,
				"method": "rhf"
			},
			{
				"type": "unocc",
				"energy": 0.01579,
				"method": "rhf"
			},
			{
				"type": "unocc",
				"energy": 0.03956,
				"method": "rhf"
			},
			{
				"type": "unocc",
				"energy": 0.04799,
				"method": "rhf"
			}
		],
		"cosmo_sigma_profile": { 
			"-0.025": 0.0,
			"-0.024": 0.0,
			"-0.023": 0.0,
			"-0.022": 0.0,
			"-0.021": 0.0,
			"-0.02": 0.0,
			"-0.019": 0.0,
			"-0.018": 0.0,
			"-0.017": 0.0,
			"-0.016": 0.0,
			"-0.015": 0.322738365821,
			"-0.014": 1.27835805685,
			"-0.013": 1.72989857925,
			"-0.012": 3.04293725916,
			"-0.011": 3.3543655405,
			"-0.01": 3.75653992842,
			"-0.009": 6.52974826328,
			"-0.008": 8.3451114691,
			"-0.007": 9.24912247784,
			"-0.006": 10.910408775,
			"-0.005": 10.3178041587,
			"-0.004": 11.4666736071,
			"-0.003": 12.8263865118,
			"-0.002": 15.2381361941,
			"-0.001": 11.9793592069,
			"0.0": 9.72522662125,
			"0.001": 9.97652105882,
			"0.002": 6.61940208771,
			"0.003": 6.46327017372,
			"0.004": 5.66706768422,
			"0.005": 5.3248260861,
			"0.006": 4.12960010584,
			"0.007": 2.47553165535,
			"0.008": 3.36343144016,
			"0.009": 3.39840380475,
			"0.01": 3.06669418846,
			"0.011": 4.51181375936,
			"0.012": 5.66581220748,
			"0.013": 7.68741695014,
			"0.014": 3.80543029379,
			"0.015": 2.99747476205,
			"0.016": 2.31224198645,
			"0.017": 0.664920356517,
			"0.018": 0.0,
			"0.019": 0.0,
			"0.02": 0.0,
			"0.021": 0.0,
			"0.022": 0.0,
			"0.023": 0.0,
			"0.024": 0.0,
			"0.025": 0.0
		}
	}
}
