{
	 "smiles": "CC1=CC(=CC=C1)N1N=C(CCC1=O)C(O)=O", 
	 "Tm": 426.15, 
	 "num_atms": 29, 
	 "gaussian": { 
		 "optdone": 1, 
		 "sigma_profile": "yes", 
		 "theory": "DFT", 
		 "functional": "B3LYP", 
		 "basiset": "6-31G**", 
		 "properties": { 
			 "R2extent": 5213.4639, 
			 "electric_dipole_moment_norm": 3.04459564146, 
			 "electric_quadrupole_moment_norm": 27.375819892, 
			 "total_energy": -799.682560479, 
			 "HOMO_LUMO_gap": 0.15915, 
			 "cosmo_polarized_energy": -15.72, 
			 "cosmo_cavitation_energy": 33.27, 
			 "cosmo_dispersion_energy": -23.91, 
			 "cosmo_repulsion_energy": 1.87, 
			 "cosmo_total_nonelectrostatic_energy": 11.23, 
			 "SMD_solvation_energy": 7.08 
		},
		"coords": [
			{
				"x": 0.7474816876,
				"y": -2.69906164,
				"z": -2.6370244889,
				"element": "C" 
			},
			{
				"x": 0.0669790367,
				"y": -1.4157138031,
				"z": -2.2203268312,
				"element": "C" 
			},
			{
				"x": 0.0111564265,
				"y": -1.0549167441,
				"z": -0.8691706428,
				"element": "C" 
			},
			{
				"x": -0.5957408897,
				"y": 0.1422198162,
				"z": -0.4811202401,
				"element": "C" 
			},
			{
				"x": -1.1524652228,
				"y": 0.9966336692,
				"z": -1.4373569264,
				"element": "C" 
			},
			{
				"x": -1.089810753,
				"y": 0.6443171715,
				"z": -2.7836403226,
				"element": "C" 
			},
			{
				"x": -0.4899292976,
				"y": -0.5529211474,
				"z": -3.1730519454,
				"element": "C" 
			},
			{
				"x": -0.6427984286,
				"y": 0.5342532787,
				"z": 0.902427065,
				"element": "N" 
			},
			{
				"x": -0.385336136,
				"y": 1.8643856747,
				"z": 1.1253989493,
				"element": "N" 
			},
			{
				"x": -0.6391783179,
				"y": 2.3945930803,
				"z": 2.2717161703,
				"element": "C" 
			},
			{
				"x": -1.2244248933,
				"y": 1.6487456786,
				"z": 3.4302012879,
				"element": "C" 
			},
			{
				"x": -0.7650968815,
				"y": 0.1922769393,
				"z": 3.3447143675,
				"element": "C" 
			},
			{
				"x": -0.9068242821,
				"y": -0.3799032266,
				"z": 1.9440721903,
				"element": "C" 
			},
			{
				"x": -1.171358651,
				"y": -1.5455272963,
				"z": 1.723212215,
				"element": "O" 
			},
			{
				"x": -0.3367830644,
				"y": 3.8616107512,
				"z": 2.3887159948,
				"element": "C" 
			},
			{
				"x": 0.1760500546,
				"y": 4.430571458,
				"z": 1.2846875009,
				"element": "O" 
			},
			{
				"x": -0.5490545031,
				"y": 4.4791885061,
				"z": 3.408432173,
				"element": "O" 
			},
			{
				"x": 0.3535383558,
				"y": -3.0680909432,
				"z": -3.5883329739,
				"element": "H" 
			},
			{
				"x": 0.6142275939,
				"y": -3.483776685,
				"z": -1.8865921712,
				"element": "H" 
			},
			{
				"x": 1.8268788319,
				"y": -2.5506917343,
				"z": -2.7662759235,
				"element": "H" 
			},
			{
				"x": 0.4279624157,
				"y": -1.7151008343,
				"z": -0.1189942353,
				"element": "H" 
			},
			{
				"x": -1.6281891398,
				"y": 1.9194912705,
				"z": -1.1254388017,
				"element": "H" 
			},
			{
				"x": -1.5230810815,
				"y": 1.3030802845,
				"z": -3.5304291465,
				"element": "H" 
			},
			{
				"x": -0.4562660217,
				"y": -0.823354184,
				"z": -4.2251087005,
				"element": "H" 
			},
			{
				"x": -0.9339434531,
				"y": 2.1269355593,
				"z": 4.3677607283,
				"element": "H" 
			},
			{
				"x": -2.3206405101,
				"y": 1.7149472204,
				"z": 3.373022904,
				"element": "H" 
			},
			{
				"x": 0.2975990568,
				"y": 0.1177524393,
				"z": 3.6138546309,
				"element": "H" 
			},
			{
				"x": -1.3165754162,
				"y": -0.4649664242,
				"z": 4.0187512072,
				"element": "H" 
			},
			{
				"x": 0.2564234837,
				"y": 3.7296218647,
				"z": 0.6095959656,
				"element": "H" 
			}
		],
		 "valence_orbital": [ 
			{
				"type": "occ",
				"energy": -0.28893,
				"method": "rhf"
			},
			{
				"type": "occ",
				"energy": -0.28455,
				"method": "rhf"
			},
			{
				"type": "occ",
				"energy": -0.26824,
				"method": "rhf"
			},
			{
				"type": "occ",
				"energy": -0.25171,
				"method": "rhf"
			},
			{
				"type": "occ",
				"energy": -0.23613,
				"method": "rhf"
			},
			{
				"type": "unocc",
				"energy": -0.07698,
				"method": "rhf"
			},
			{
				"type": "unocc",
				"energy": -0.02638,
				"method": "rhf"
			},
			{
				"type": "unocc",
				"energy": -0.00964,
				"method": "rhf"
			},
			{
				"type": "unocc",
				"energy": 0.01756,
				"method": "rhf"
			},
			{
				"type": "unocc",
				"energy": 0.06046,
				"method": "rhf"
			}
		],
		"cosmo_sigma_profile": { 
			"-0.025": 0.0,
			"-0.024": 0.0,
			"-0.023": 0.0,
			"-0.022": 0.0,
			"-0.021": 0.0,
			"-0.02": 0.0,
			"-0.019": 0.0,
			"-0.018": 0.0,
			"-0.017": 0.0,
			"-0.016": 0.0,
			"-0.015": 0.020811865217,
			"-0.014": 0.39314214355,
			"-0.013": 0.484640384601,
			"-0.012": 0.321332831654,
			"-0.011": 1.00579797834,
			"-0.01": 0.339509611285,
			"-0.009": 0.689945097331,
			"-0.008": 3.73586691184,
			"-0.007": 10.677478488,
			"-0.006": 17.3226233671,
			"-0.005": 24.1448032728,
			"-0.004": 27.9863312575,
			"-0.003": 24.0485608197,
			"-0.002": 17.6812103414,
			"-0.001": 15.6409102459,
			"0.0": 16.6203526432,
			"0.001": 12.0451823701,
			"0.002": 10.2750772181,
			"0.003": 11.7515900429,
			"0.004": 12.5841103781,
			"0.005": 13.4906820907,
			"0.006": 4.38582409389,
			"0.007": 4.05036572888,
			"0.008": 4.88530351497,
			"0.009": 5.84210336779,
			"0.01": 7.80788455756,
			"0.011": 8.89735934965,
			"0.012": 6.46867691242,
			"0.013": 1.20810514356,
			"0.014": 0.0,
			"0.015": 0.0,
			"0.016": 0.0,
			"0.017": 0.0,
			"0.018": 0.0,
			"0.019": 0.0,
			"0.02": 0.0,
			"0.021": 0.0,
			"0.022": 0.0,
			"0.023": 0.0,
			"0.024": 0.0,
			"0.025": 0.0
		}
	}
}
