{
	 "smiles": "CC1=CC(C)=C(NS(=O)(=O)C2=C(NN)C=CC(=C2)[N+]([O-])=O)C=C1", 
	 "Tm": 439.15, 
	 "num_atms": 39, 
	 "gaussian": { 
		 "optdone": 1, 
		 "sigma_profile": "yes", 
		 "theory": "DFT", 
		 "functional": "B3LYP", 
		 "basiset": "6-31G**", 
		 "properties": { 
			 "R2extent": 8754.8704, 
			 "electric_dipole_moment_norm": 5.56828583767, 
			 "electric_quadrupole_moment_norm": 29.1653488098, 
			 "total_energy": -1461.02654045, 
			 "HOMO_LUMO_gap": 0.13689, 
			 "cosmo_polarized_energy": -22.41, 
			 "cosmo_cavitation_energy": 43.86, 
			 "cosmo_dispersion_energy": -30.34, 
			 "cosmo_repulsion_energy": 2.28, 
			 "cosmo_total_nonelectrostatic_energy": 15.79, 
			 "SMD_solvation_energy": 9.42 
		},
		"coords": [
			{
				"x": 1.5239816654,
				"y": 1.8027573077,
				"z": 4.3829487536,
				"element": "C" 
			},
			{
				"x": 1.1200839591,
				"y": 0.6263150149,
				"z": 3.5260294572,
				"element": "C" 
			},
			{
				"x": 2.049142948,
				"y": -0.3637248008,
				"z": 3.1844764796,
				"element": "C" 
			},
			{
				"x": 1.7168132709,
				"y": -1.4904145673,
				"z": 2.4231651743,
				"element": "C" 
			},
			{
				"x": 2.7545963746,
				"y": -2.5398327967,
				"z": 2.1154563617,
				"element": "C" 
			},
			{
				"x": 0.3862938983,
				"y": -1.6020007486,
				"z": 1.9755252212,
				"element": "C" 
			},
			{
				"x": -0.0185269062,
				"y": -2.7624834582,
				"z": 1.2257027914,
				"element": "N" 
			},
			{
				"x": 0.1754004071,
				"y": -2.8016799785,
				"z": -0.4503996663,
				"element": "S" 
			},
			{
				"x": -0.153546543,
				"y": -4.1710306209,
				"z": -0.8622730957,
				"element": "O" 
			},
			{
				"x": 1.4703330955,
				"y": -2.2119618927,
				"z": -0.7782097385,
				"element": "O" 
			},
			{
				"x": -1.0876455995,
				"y": -1.6821973755,
				"z": -1.112348891,
				"element": "C" 
			},
			{
				"x": -2.4590911207,
				"y": -1.8347362969,
				"z": -0.7987966911,
				"element": "C" 
			},
			{
				"x": -2.9165033642,
				"y": -2.9231851177,
				"z": -0.0116386544,
				"element": "N" 
			},
			{
				"x": -3.0529637156,
				"y": -4.2040080019,
				"z": -0.6630219001,
				"element": "N" 
			},
			{
				"x": -3.3514423333,
				"y": -0.8380960283,
				"z": -1.2269974548,
				"element": "C" 
			},
			{
				"x": -2.9151705866,
				"y": 0.2534712626,
				"z": -1.9700501381,
				"element": "C" 
			},
			{
				"x": -1.5638156239,
				"y": 0.3473212289,
				"z": -2.291707479,
				"element": "C" 
			},
			{
				"x": -0.6386201726,
				"y": -0.6010587415,
				"z": -1.8623840037,
				"element": "C" 
			},
			{
				"x": -1.095711641,
				"y": 1.4934229944,
				"z": -3.0853267257,
				"element": "N" 
			},
			{
				"x": 0.1004335833,
				"y": 1.5426128894,
				"z": -3.3625300966,
				"element": "O" 
			},
			{
				"x": -1.9349306945,
				"y": 2.3289771764,
				"z": -3.4211021857,
				"element": "O" 
			},
			{
				"x": -0.55825401,
				"y": -0.6256401067,
				"z": 2.3092238138,
				"element": "C" 
			},
			{
				"x": -0.1983103764,
				"y": 0.475707878,
				"z": 3.0807765401,
				"element": "C" 
			},
			{
				"x": 0.8798405418,
				"y": 2.6684396032,
				"z": 4.2030128019,
				"element": "H" 
			},
			{
				"x": 1.4517354495,
				"y": 1.5580564606,
				"z": 5.450151298,
				"element": "H" 
			},
			{
				"x": 2.5579682435,
				"y": 2.1029732008,
				"z": 4.1887447875,
				"element": "H" 
			},
			{
				"x": 3.0742541197,
				"y": -0.2646017518,
				"z": 3.5346620668,
				"element": "H" 
			},
			{
				"x": 2.3325047594,
				"y": -3.5450489657,
				"z": 2.2034720152,
				"element": "H" 
			},
			{
				"x": 3.1222546467,
				"y": -2.4398394782,
				"z": 1.0900345015,
				"element": "H" 
			},
			{
				"x": 3.6040731115,
				"y": -2.452890484,
				"z": 2.7981015875,
				"element": "H" 
			},
			{
				"x": -0.9636676293,
				"y": -3.0882215023,
				"z": 1.432558135,
				"element": "H" 
			},
			{
				"x": -3.8181271943,
				"y": -2.7057252256,
				"z": 0.4004781363,
				"element": "H" 
			},
			{
				"x": -3.3368151329,
				"y": -4.0602781785,
				"z": -1.633841961,
				"element": "H" 
			},
			{
				"x": -2.1257588134,
				"y": -4.6240862721,
				"z": -0.6849937071,
				"element": "H" 
			},
			{
				"x": -4.4057922192,
				"y": -0.9369138772,
				"z": -0.9830188126,
				"element": "H" 
			},
			{
				"x": -3.5987750762,
				"y": 1.0204406939,
				"z": -2.3121988258,
				"element": "H" 
			},
			{
				"x": 0.4151029994,
				"y": -0.4826487247,
				"z": -2.0821468195,
				"element": "H" 
			},
			{
				"x": -1.5818412313,
				"y": -0.7348450266,
				"z": 1.9614999913,
				"element": "H" 
			},
			{
				"x": -0.9448030896,
				"y": 1.224254308,
				"z": 3.3328669331,
				"element": "H" 
			}
		],
		 "valence_orbital": [ 
			{
				"type": "occ",
				"energy": -0.29093,
				"method": "rhf"
			},
			{
				"type": "occ",
				"energy": -0.27757,
				"method": "rhf"
			},
			{
				"type": "occ",
				"energy": -0.26734,
				"method": "rhf"
			},
			{
				"type": "occ",
				"energy": -0.25209,
				"method": "rhf"
			},
			{
				"type": "occ",
				"energy": -0.23899,
				"method": "rhf"
			},
			{
				"type": "unocc",
				"energy": -0.1021,
				"method": "rhf"
			},
			{
				"type": "unocc",
				"energy": -0.06058,
				"method": "rhf"
			},
			{
				"type": "unocc",
				"energy": -0.02444,
				"method": "rhf"
			},
			{
				"type": "unocc",
				"energy": -0.01727,
				"method": "rhf"
			},
			{
				"type": "unocc",
				"energy": -0.00823,
				"method": "rhf"
			}
		],
		"cosmo_sigma_profile": { 
			"-0.025": 0.0,
			"-0.024": 0.0,
			"-0.023": 0.0,
			"-0.022": 0.0,
			"-0.021": 0.0,
			"-0.02": 0.0,
			"-0.019": 0.0,
			"-0.018": 0.0,
			"-0.017": 0.0,
			"-0.016": 0.0,
			"-0.015": 0.0,
			"-0.014": 0.332016036771,
			"-0.013": 1.94081614407,
			"-0.012": 1.80239834151,
			"-0.011": 3.18570935849,
			"-0.01": 4.37918173713,
			"-0.009": 5.62311339168,
			"-0.008": 7.56444072593,
			"-0.007": 8.81537051101,
			"-0.006": 10.4930616477,
			"-0.005": 18.1493458103,
			"-0.004": 26.8089195874,
			"-0.003": 25.6770555987,
			"-0.002": 31.8383967829,
			"-0.001": 31.9441998657,
			"0.0": 31.3957834667,
			"0.001": 20.7464519316,
			"0.002": 13.6963884774,
			"0.003": 13.5984559717,
			"0.004": 14.4434288884,
			"0.005": 16.021912124,
			"0.006": 9.54819208841,
			"0.007": 14.6399993013,
			"0.008": 12.1325487626,
			"0.009": 9.35895149038,
			"0.01": 6.77723658572,
			"0.011": 4.24288127452,
			"0.012": 0.884086961826,
			"0.013": 0.552495830443,
			"0.014": 0.520711602996,
			"0.015": 0.586533863067,
			"0.016": 0.636141972969,
			"0.017": 0.511012619736,
			"0.018": 0.0,
			"0.019": 0.0,
			"0.02": 0.0,
			"0.021": 0.0,
			"0.022": 0.0,
			"0.023": 0.0,
			"0.024": 0.0,
			"0.025": 0.0
		}
	}
}
