{
	 "smiles": "CC(C1NCC(C)CC1O)C1=CC=C2C3CC=C4CC(O)CCC4(C)C3CC2=C1C", 
	 "Tm": 479.15, 
	 "num_atms": 69, 
	 "gaussian": { 
		 "optdone": 1, 
		 "sigma_profile": "yes", 
		 "theory": "DFT", 
		 "functional": "B3LYP", 
		 "basiset": "6-31G**", 
		 "properties": { 
			 "R2extent": 16973.076, 
			 "electric_dipole_moment_norm": 3.88274909825, 
			 "electric_quadrupole_moment_norm": 9.55587033817, 
			 "total_energy": -1257.56892903, 
			 "HOMO_LUMO_gap": 0.2196, 
			 "cosmo_polarized_energy": -15.35, 
			 "cosmo_cavitation_energy": 60.24, 
			 "cosmo_dispersion_energy": -40.96, 
			 "cosmo_repulsion_energy": 3.05, 
			 "cosmo_total_nonelectrostatic_energy": 22.34, 
			 "SMD_solvation_energy": 8.08 
		},
		"coords": [
			{
				"x": -5.1309788097,
				"y": -1.1976185891,
				"z": -0.1711376344,
				"element": "C" 
			},
			{
				"x": -4.0641080875,
				"y": -0.671708014,
				"z": -1.1543884544,
				"element": "C" 
			},
			{
				"x": -4.6282376113,
				"y": 0.5815058228,
				"z": -1.9016813594,
				"element": "C" 
			},
			{
				"x": -4.9077357404,
				"y": 1.7050780191,
				"z": -0.9889727198,
				"element": "N" 
			},
			{
				"x": -4.5118732791,
				"y": 3.0437242514,
				"z": -1.4305227817,
				"element": "C" 
			},
			{
				"x": -3.0029025947,
				"y": 3.0872330459,
				"z": -1.7192314362,
				"element": "C" 
			},
			{
				"x": -2.5776337217,
				"y": 4.4699078727,
				"z": -2.226056214,
				"element": "C" 
			},
			{
				"x": -2.5940771951,
				"y": 1.9501778502,
				"z": -2.702359354,
				"element": "C" 
			},
			{
				"x": -3.7853778927,
				"y": 1.0813017422,
				"z": -3.1023963252,
				"element": "C" 
			},
			{
				"x": -3.2950340855,
				"y": 0.0138051944,
				"z": -3.9125163713,
				"element": "O" 
			},
			{
				"x": -2.7143125049,
				"y": -0.5162491052,
				"z": -0.4535276867,
				"element": "C" 
			},
			{
				"x": -2.6015637262,
				"y": 0.349998379,
				"z": 0.646807893,
				"element": "C" 
			},
			{
				"x": -1.4044819943,
				"y": 0.5000559204,
				"z": 1.3510850452,
				"element": "C" 
			},
			{
				"x": -0.303104456,
				"y": -0.2544889454,
				"z": 0.9677258754,
				"element": "C" 
			},
			{
				"x": 1.1030121937,
				"y": -0.2667056481,
				"z": 1.5252495954,
				"element": "C" 
			},
			{
				"x": 1.3396185611,
				"y": -0.1346756026,
				"z": 3.0289408728,
				"element": "C" 
			},
			{
				"x": 2.7771598264,
				"y": -0.4921715953,
				"z": 3.3376866775,
				"element": "C" 
			},
			{
				"x": 3.5924841364,
				"y": -1.1921462292,
				"z": 2.5321397246,
				"element": "C" 
			},
			{
				"x": 5.0610668054,
				"y": -1.3759349071,
				"z": 2.8620930225,
				"element": "C" 
			},
			{
				"x": 5.9770841612,
				"y": -1.0916174805,
				"z": 1.6338484849,
				"element": "C" 
			},
			{
				"x": 7.2073305753,
				"y": -0.4846581683,
				"z": 2.0193800343,
				"element": "O" 
			},
			{
				"x": 5.2207385785,
				"y": -0.2615904949,
				"z": 0.5923630937,
				"element": "C" 
			},
			{
				"x": 3.9551201008,
				"y": -0.9748259692,
				"z": 0.0660360087,
				"element": "C" 
			},
			{
				"x": 3.1665471817,
				"y": -1.7608438771,
				"z": 1.1717429307,
				"element": "C" 
			},
			{
				"x": 3.5261757517,
				"y": -3.2663235326,
				"z": 1.0933743795,
				"element": "C" 
			},
			{
				"x": 1.6331350481,
				"y": -1.6303728925,
				"z": 1.0421944185,
				"element": "C" 
			},
			{
				"x": 0.9292421886,
				"y": -1.8623437904,
				"z": -0.316087769,
				"element": "C" 
			},
			{
				"x": -0.4015934299,
				"y": -1.1461304713,
				"z": -0.1131081135,
				"element": "C" 
			},
			{
				"x": -1.5883994459,
				"y": -1.2883604274,
				"z": -0.8451279475,
				"element": "C" 
			},
			{
				"x": -1.6479284352,
				"y": -2.2483366466,
				"z": -2.0155953106,
				"element": "C" 
			},
			{
				"x": -6.0722379541,
				"y": -1.4150406656,
				"z": -0.6917241775,
				"element": "H" 
			},
			{
				"x": -4.7929916074,
				"y": -2.1187962595,
				"z": 0.3129470767,
				"element": "H" 
			},
			{
				"x": -5.3410995489,
				"y": -0.4681635131,
				"z": 0.6168699006,
				"element": "H" 
			},
			{
				"x": -3.9518091535,
				"y": -1.4302718216,
				"z": -1.9325740282,
				"element": "H" 
			},
			{
				"x": -5.5766762576,
				"y": 0.2217205235,
				"z": -2.3441784554,
				"element": "H" 
			},
			{
				"x": -5.8781648343,
				"y": 1.6987357664,
				"z": -0.6991014762,
				"element": "H" 
			},
			{
				"x": -4.7450108507,
				"y": 3.7422052296,
				"z": -0.6180927627,
				"element": "H" 
			},
			{
				"x": -5.0687182271,
				"y": 3.4048945207,
				"z": -2.3170384053,
				"element": "H" 
			},
			{
				"x": -2.5028538478,
				"y": 2.8969403434,
				"z": -0.7633293211,
				"element": "H" 
			},
			{
				"x": -1.4955768509,
				"y": 4.5110518721,
				"z": -2.388895644,
				"element": "H" 
			},
			{
				"x": -2.8372960552,
				"y": 5.2584939326,
				"z": -1.5103681031,
				"element": "H" 
			},
			{
				"x": -3.0645640927,
				"y": 4.7095522959,
				"z": -3.1793790569,
				"element": "H" 
			},
			{
				"x": -1.8296190728,
				"y": 1.3125511796,
				"z": -2.2517912722,
				"element": "H" 
			},
			{
				"x": -2.1617339111,
				"y": 2.3646609667,
				"z": -3.6203138459,
				"element": "H" 
			},
			{
				"x": -4.4599275752,
				"y": 1.702241903,
				"z": -3.7128699118,
				"element": "H" 
			},
			{
				"x": -4.0548473936,
				"y": -0.4695474689,
				"z": -4.2634168343,
				"element": "H" 
			},
			{
				"x": -3.4688329942,
				"y": 0.9320507007,
				"z": 0.9347300435,
				"element": "H" 
			},
			{
				"x": -1.3482669375,
				"y": 1.1893498185,
				"z": 2.1902350409,
				"element": "H" 
			},
			{
				"x": 1.6781465338,
				"y": 0.5348650777,
				"z": 1.0316602755,
				"element": "H" 
			},
			{
				"x": 0.6453652225,
				"y": -0.7880062489,
				"z": 3.5793204544,
				"element": "H" 
			},
			{
				"x": 1.1344480515,
				"y": 0.8853097014,
				"z": 3.3797003699,
				"element": "H" 
			},
			{
				"x": 3.1801392158,
				"y": -0.1165291991,
				"z": 4.2784757528,
				"element": "H" 
			},
			{
				"x": 5.3435601306,
				"y": -0.685759196,
				"z": 3.6655487293,
				"element": "H" 
			},
			{
				"x": 5.2662599376,
				"y": -2.3854283834,
				"z": 3.2408507679,
				"element": "H" 
			},
			{
				"x": 6.28613587,
				"y": -2.0374036971,
				"z": 1.1749237807,
				"element": "H" 
			},
			{
				"x": 6.9975091381,
				"y": 0.3891502078,
				"z": 2.3771813002,
				"element": "H" 
			},
			{
				"x": 4.9310017706,
				"y": 0.6887807327,
				"z": 1.0639865172,
				"element": "H" 
			},
			{
				"x": 5.8937321799,
				"y": -0.0151897317,
				"z": -0.2355990092,
				"element": "H" 
			},
			{
				"x": 4.2321411686,
				"y": -1.6681948203,
				"z": -0.7374153854,
				"element": "H" 
			},
			{
				"x": 3.3058398849,
				"y": -0.2211933459,
				"z": -0.3916727377,
				"element": "H" 
			},
			{
				"x": 3.1726476482,
				"y": -3.6879247672,
				"z": 0.1461980588,
				"element": "H" 
			},
			{
				"x": 4.6031884094,
				"y": -3.44632707,
				"z": 1.1449801914,
				"element": "H" 
			},
			{
				"x": 3.0531846363,
				"y": -3.8244644878,
				"z": 1.908598729,
				"element": "H" 
			},
			{
				"x": 1.2027915679,
				"y": -2.3708311752,
				"z": 1.7339021831,
				"element": "H" 
			},
			{
				"x": 1.4888452382,
				"y": -1.4107975441,
				"z": -1.1478493596,
				"element": "H" 
			},
			{
				"x": 0.8175659924,
				"y": -2.9255676243,
				"z": -0.5512255385,
				"element": "H" 
			},
			{
				"x": -1.9808507302,
				"y": -1.7367513516,
				"z": -2.9234373507,
				"element": "H" 
			},
			{
				"x": -0.6691847962,
				"y": -2.688273557,
				"z": -2.2163211102,
				"element": "H" 
			},
			{
				"x": -2.3435120041,
				"y": -3.0764785554,
				"z": -1.828373965,
				"element": "H" 
			}
		],
		 "valence_orbital": [ 
			{
				"type": "occ",
				"energy": -0.26218,
				"method": "rhf"
			},
			{
				"type": "occ",
				"energy": -0.22497,
				"method": "rhf"
			},
			{
				"type": "occ",
				"energy": -0.22264,
				"method": "rhf"
			},
			{
				"type": "occ",
				"energy": -0.21384,
				"method": "rhf"
			},
			{
				"type": "occ",
				"energy": -0.20678,
				"method": "rhf"
			},
			{
				"type": "unocc",
				"energy": 0.01282,
				"method": "rhf"
			},
			{
				"type": "unocc",
				"energy": 0.01739,
				"method": "rhf"
			},
			{
				"type": "unocc",
				"energy": 0.02938,
				"method": "rhf"
			},
			{
				"type": "unocc",
				"energy": 0.06221,
				"method": "rhf"
			},
			{
				"type": "unocc",
				"energy": 0.07538,
				"method": "rhf"
			}
		],
		"cosmo_sigma_profile": { 
			"-0.025": 0.0,
			"-0.024": 0.0,
			"-0.023": 0.0,
			"-0.022": 0.0,
			"-0.021": 0.0,
			"-0.02": 0.0,
			"-0.019": 0.0,
			"-0.018": 0.0,
			"-0.017": 0.0,
			"-0.016": 0.0,
			"-0.015": 1.05462627628,
			"-0.014": 1.60750344899,
			"-0.013": 2.10077842435,
			"-0.012": 1.65674881933,
			"-0.011": 1.9453419884,
			"-0.01": 2.61482411199,
			"-0.009": 2.59902301867,
			"-0.008": 3.4766141808,
			"-0.007": 2.69738244738,
			"-0.006": 3.9777649036,
			"-0.005": 5.74676371097,
			"-0.004": 12.2447851127,
			"-0.003": 43.3397271158,
			"-0.002": 70.3794538182,
			"-0.001": 73.1666805298,
			"0.0": 64.2630030758,
			"0.001": 55.6303319296,
			"0.002": 32.4999077898,
			"0.003": 16.5374931868,
			"0.004": 14.224311275,
			"0.005": 10.7354453153,
			"0.006": 9.73364846268,
			"0.007": 8.46571113832,
			"0.008": 5.96877955814,
			"0.009": 3.25614666283,
			"0.01": 2.33922215459,
			"0.011": 1.33772553994,
			"0.012": 2.33586764264,
			"0.013": 2.87502904346,
			"0.014": 2.93321445162,
			"0.015": 1.67895425019,
			"0.016": 0.0,
			"0.017": 0.0,
			"0.018": 0.0,
			"0.019": 0.0,
			"0.02": 0.0,
			"0.021": 0.0,
			"0.022": 0.0,
			"0.023": 0.0,
			"0.024": 0.0,
			"0.025": 0.0
		}
	}
}
