{
	 "smiles": "N#CC(C#N)=C(SCC1=CC=CC=C1)SCC1=CC=CC=C1", 
	 "Tm": 355.15, 
	 "num_atms": 36, 
	 "gaussian": { 
		 "optdone": 1, 
		 "sigma_profile": "yes", 
		 "theory": "DFT", 
		 "functional": "B3LYP", 
		 "basiset": "6-31G**", 
		 "properties": { 
			 "R2extent": 8524.9025, 
			 "electric_dipole_moment_norm": 7.30005414911, 
			 "electric_quadrupole_moment_norm": 21.807295432, 
			 "total_energy": -1600.17005027, 
			 "HOMO_LUMO_gap": 0.15114, 
			 "cosmo_polarized_energy": -16.38, 
			 "cosmo_cavitation_energy": 45.68, 
			 "cosmo_dispersion_energy": -29.44, 
			 "cosmo_repulsion_energy": 2.21, 
			 "cosmo_total_nonelectrostatic_energy": 18.46, 
			 "SMD_solvation_energy": 9.13 
		},
		"coords": [
			{
				"x": -0.4848402544,
				"y": 2.802444965,
				"z": -3.9291761216,
				"element": "N" 
			},
			{
				"x": -0.8794464055,
				"y": 1.9749312548,
				"z": -3.209729919,
				"element": "C" 
			},
			{
				"x": -1.3667460098,
				"y": 0.975218785,
				"z": -2.3162290892,
				"element": "C" 
			},
			{
				"x": -2.763740396,
				"y": 1.0412761729,
				"z": -2.0140422099,
				"element": "C" 
			},
			{
				"x": -3.9020561447,
				"y": 1.1287291294,
				"z": -1.7851662253,
				"element": "N" 
			},
			{
				"x": -0.5529687613,
				"y": -0.0194978714,
				"z": -1.8046738592,
				"element": "C" 
			},
			{
				"x": 1.1975479159,
				"y": -0.081735554,
				"z": -2.0078194424,
				"element": "S" 
			},
			{
				"x": 1.8406448085,
				"y": 1.6360203489,
				"z": -1.6481299141,
				"element": "C" 
			},
			{
				"x": 1.4757177567,
				"y": 2.1673417613,
				"z": -0.2883083967,
				"element": "C" 
			},
			{
				"x": 0.5739773574,
				"y": 3.2322272404,
				"z": -0.1675608819,
				"element": "C" 
			},
			{
				"x": 0.2376862015,
				"y": 3.7362546692,
				"z": 1.0911646293,
				"element": "C" 
			},
			{
				"x": 0.7976429855,
				"y": 3.1806512896,
				"z": 2.2410988991,
				"element": "C" 
			},
			{
				"x": 1.7021052899,
				"y": 2.120041024,
				"z": 2.129775735,
				"element": "C" 
			},
			{
				"x": 2.0384010917,
				"y": 1.6177774371,
				"z": 0.874304093,
				"element": "C" 
			},
			{
				"x": -1.3245971746,
				"y": -1.3948150647,
				"z": -1.0238889151,
				"element": "S" 
			},
			{
				"x": -0.085869366,
				"y": -1.9958105337,
				"z": 0.2334950591,
				"element": "C" 
			},
			{
				"x": -0.7876836425,
				"y": -2.9606413613,
				"z": 1.1541738824,
				"element": "C" 
			},
			{
				"x": -0.7379561652,
				"y": -4.3389943054,
				"z": 0.9079880166,
				"element": "C" 
			},
			{
				"x": -1.3859665013,
				"y": -5.2349019097,
				"z": 1.7590408392,
				"element": "C" 
			},
			{
				"x": -2.0945956361,
				"y": -4.7607818221,
				"z": 2.8641257199,
				"element": "C" 
			},
			{
				"x": -2.1537108949,
				"y": -3.3877816327,
				"z": 3.1146846337,
				"element": "C" 
			},
			{
				"x": -1.5067572652,
				"y": -2.493320542,
				"z": 2.2633846308,
				"element": "C" 
			},
			{
				"x": 1.5378409489,
				"y": 2.308510981,
				"z": -2.4497751025,
				"element": "H" 
			},
			{
				"x": 2.9176538225,
				"y": 1.4602338366,
				"z": -1.7373519656,
				"element": "H" 
			},
			{
				"x": 0.1427044882,
				"y": 3.67362418,
				"z": -1.0614605404,
				"element": "H" 
			},
			{
				"x": -0.4622331303,
				"y": 4.5628473578,
				"z": 1.1693538771,
				"element": "H" 
			},
			{
				"x": 0.5363583064,
				"y": 3.5728174695,
				"z": 3.2195645394,
				"element": "H" 
			},
			{
				"x": 2.1502769203,
				"y": 1.6905976192,
				"z": 3.0212258204,
				"element": "H" 
			},
			{
				"x": 2.7457633293,
				"y": 0.7960902066,
				"z": 0.7913185774,
				"element": "H" 
			},
			{
				"x": 0.286257552,
				"y": -1.1184077964,
				"z": 0.7653301134,
				"element": "H" 
			},
			{
				"x": 0.7416401009,
				"y": -2.4749638463,
				"z": -0.2895306997,
				"element": "H" 
			},
			{
				"x": -0.185281904,
				"y": -4.7109706298,
				"z": 0.0488995136,
				"element": "H" 
			},
			{
				"x": -1.3359957763,
				"y": -6.3012403115,
				"z": 1.5594344495,
				"element": "H" 
			},
			{
				"x": -2.5983803447,
				"y": -5.4573571182,
				"z": 3.5277861285,
				"element": "H" 
			},
			{
				"x": -2.7038810367,
				"y": -3.0136800371,
				"z": 3.9730120984,
				"element": "H" 
			},
			{
				"x": -1.5580120661,
				"y": -1.4251353919,
				"z": 2.4577820266,
				"element": "H" 
			}
		],
		 "valence_orbital": [ 
			{
				"type": "occ",
				"energy": -0.26641,
				"method": "rhf"
			},
			{
				"type": "occ",
				"energy": -0.26479,
				"method": "rhf"
			},
			{
				"type": "occ",
				"energy": -0.26258,
				"method": "rhf"
			},
			{
				"type": "occ",
				"energy": -0.25668,
				"method": "rhf"
			},
			{
				"type": "occ",
				"energy": -0.24161,
				"method": "rhf"
			},
			{
				"type": "unocc",
				"energy": -0.09047,
				"method": "rhf"
			},
			{
				"type": "unocc",
				"energy": -0.03395,
				"method": "rhf"
			},
			{
				"type": "unocc",
				"energy": -0.02871,
				"method": "rhf"
			},
			{
				"type": "unocc",
				"energy": -0.02049,
				"method": "rhf"
			},
			{
				"type": "unocc",
				"energy": -0.01592,
				"method": "rhf"
			}
		],
		"cosmo_sigma_profile": { 
			"-0.025": 0.0,
			"-0.024": 0.0,
			"-0.023": 0.0,
			"-0.022": 0.0,
			"-0.021": 0.0,
			"-0.02": 0.0,
			"-0.019": 0.0,
			"-0.018": 0.0,
			"-0.017": 0.0,
			"-0.016": 0.0,
			"-0.015": 0.0,
			"-0.014": 0.0,
			"-0.013": 0.0,
			"-0.012": 0.0,
			"-0.011": 0.0,
			"-0.01": 0.0915056393345,
			"-0.009": 1.89070054088,
			"-0.008": 3.01344315595,
			"-0.007": 6.44060481762,
			"-0.006": 21.4307329149,
			"-0.005": 29.4588897319,
			"-0.004": 37.6539006973,
			"-0.003": 33.5073126242,
			"-0.002": 28.9740068212,
			"-0.001": 24.4371484347,
			"0.0": 24.8477955646,
			"0.001": 23.7604730814,
			"0.002": 26.611332846,
			"0.003": 24.1196032992,
			"0.004": 24.0299138039,
			"0.005": 23.8400573436,
			"0.006": 6.36262669065,
			"0.007": 5.02895202603,
			"0.008": 6.24049455694,
			"0.009": 5.27633610114,
			"0.01": 5.50482102008,
			"0.011": 4.83497749879,
			"0.012": 3.75530941288,
			"0.013": 0.327489327818,
			"0.014": 0.0,
			"0.015": 0.0,
			"0.016": 0.0,
			"0.017": 0.0,
			"0.018": 0.0,
			"0.019": 0.0,
			"0.02": 0.0,
			"0.021": 0.0,
			"0.022": 0.0,
			"0.023": 0.0,
			"0.024": 0.0,
			"0.025": 0.0
		}
	}
}
