{
	 "smiles": "OC(=O)C1=CC2=C(N1)C=CC(Cl)=C2Cl", 
	 "Tm": 555.15, 
	 "num_atms": 19, 
	 "gaussian": { 
		 "optdone": 1, 
		 "sigma_profile": "yes", 
		 "theory": "DFT", 
		 "functional": "B3LYP", 
		 "basiset": "6-31G**", 
		 "properties": { 
			 "R2extent": 4828.2102, 
			 "electric_dipole_moment_norm": 1.05259647064, 
			 "electric_quadrupole_moment_norm": 25.9564735461, 
			 "total_energy": -1471.56925633, 
			 "HOMO_LUMO_gap": 0.16487, 
			 "cosmo_polarized_energy": -15.77, 
			 "cosmo_cavitation_energy": 27.74, 
			 "cosmo_dispersion_energy": -20.9, 
			 "cosmo_repulsion_energy": 1.63, 
			 "cosmo_total_nonelectrostatic_energy": 8.48, 
			 "SMD_solvation_energy": 5.04 
		},
		"coords": [
			{
				"x": -2.6878325695,
				"y": 1.5173030602,
				"z": 1.7785313911,
				"element": "O" 
			},
			{
				"x": -2.5517319332,
				"y": 0.6469798418,
				"z": 0.7527381489,
				"element": "C" 
			},
			{
				"x": -3.4787882868,
				"y": 0.4106327865,
				"z": 0.0073300952,
				"element": "O" 
			},
			{
				"x": -1.2354434693,
				"y": 0.0026502853,
				"z": 0.5819828356,
				"element": "C" 
			},
			{
				"x": -0.0375392384,
				"y": 0.0848247676,
				"z": 1.2652929277,
				"element": "C" 
			},
			{
				"x": 0.8726176929,
				"y": -0.7929240795,
				"z": 0.6050707617,
				"element": "C" 
			},
			{
				"x": 0.1703688656,
				"y": -1.3890792489,
				"z": -0.4829219908,
				"element": "C" 
			},
			{
				"x": -1.1024427269,
				"y": -0.8841299794,
				"z": -0.4659850608,
				"element": "N" 
			},
			{
				"x": 0.7788207937,
				"y": -2.3110995545,
				"z": -1.3448673806,
				"element": "C" 
			},
			{
				"x": 2.1032484383,
				"y": -2.6314215444,
				"z": -1.1051489977,
				"element": "C" 
			},
			{
				"x": 2.8242052845,
				"y": -2.0549315253,
				"z": -0.03269454,
				"element": "C" 
			},
			{
				"x": 4.4936342893,
				"y": -2.531707435,
				"z": 0.1779896304,
				"element": "Cl" 
			},
			{
				"x": 2.2217482358,
				"y": -1.1402582066,
				"z": 0.822888744,
				"element": "C" 
			},
			{
				"x": 3.0741780991,
				"y": -0.4070170894,
				"z": 2.1556278671,
				"element": "Cl" 
			},
			{
				"x": -1.8611843658,
				"y": 1.5945588558,
				"z": 2.2756452628,
				"element": "H" 
			},
			{
				"x": 0.1885956191,
				"y": 0.688964738,
				"z": 2.1326854862,
				"element": "H" 
			},
			{
				"x": -1.8678282304,
				"y": -1.0881175952,
				"z": -1.0926014274,
				"element": "H" 
			},
			{
				"x": 0.2387034397,
				"y": -2.7611595333,
				"z": -2.171124019,
				"element": "H" 
			},
			{
				"x": 2.6180700624,
				"y": -3.339568544,
				"z": -1.7441397345,
				"element": "H" 
			}
		],
		 "valence_orbital": [ 
			{
				"type": "occ",
				"energy": -0.31427,
				"method": "rhf"
			},
			{
				"type": "occ",
				"energy": -0.29916,
				"method": "rhf"
			},
			{
				"type": "occ",
				"energy": -0.29356,
				"method": "rhf"
			},
			{
				"type": "occ",
				"energy": -0.24754,
				"method": "rhf"
			},
			{
				"type": "occ",
				"energy": -0.23535,
				"method": "rhf"
			},
			{
				"type": "unocc",
				"energy": -0.07048,
				"method": "rhf"
			},
			{
				"type": "unocc",
				"energy": -0.01193,
				"method": "rhf"
			},
			{
				"type": "unocc",
				"energy": -0.00154,
				"method": "rhf"
			},
			{
				"type": "unocc",
				"energy": 0.00066,
				"method": "rhf"
			},
			{
				"type": "unocc",
				"energy": 0.04307,
				"method": "rhf"
			}
		],
		"cosmo_sigma_profile": { 
			"-0.025": 0.0,
			"-0.024": 0.0,
			"-0.023": 0.0,
			"-0.022": 0.0,
			"-0.021": 0.0,
			"-0.02": 0.0447000211755,
			"-0.019": 0.86457127687,
			"-0.018": 0.965255045909,
			"-0.017": 1.24408383347,
			"-0.016": 1.70665134519,
			"-0.015": 1.63913649418,
			"-0.014": 2.21552717106,
			"-0.013": 1.84413059138,
			"-0.012": 1.92339341457,
			"-0.011": 2.25045258131,
			"-0.01": 2.14471084786,
			"-0.009": 2.54003789504,
			"-0.008": 5.20450241429,
			"-0.007": 6.83800458741,
			"-0.006": 5.93551346515,
			"-0.005": 5.43310382934,
			"-0.004": 6.36167219789,
			"-0.003": 10.1300051904,
			"-0.002": 11.0328537698,
			"-0.001": 11.20864511,
			"0.0": 17.7922647563,
			"0.001": 31.1623286652,
			"0.002": 27.51995174,
			"0.003": 18.2001257036,
			"0.004": 17.6001008184,
			"0.005": 8.62341895367,
			"0.006": 3.34301155968,
			"0.007": 2.7510574387,
			"0.008": 2.28805069084,
			"0.009": 3.96815265266,
			"0.01": 4.84354273237,
			"0.011": 4.37757383858,
			"0.012": 2.98752175878,
			"0.013": 0.923689894902,
			"0.014": 0.0,
			"0.015": 0.0,
			"0.016": 0.0,
			"0.017": 0.0,
			"0.018": 0.0,
			"0.019": 0.0,
			"0.02": 0.0,
			"0.021": 0.0,
			"0.022": 0.0,
			"0.023": 0.0,
			"0.024": 0.0,
			"0.025": 0.0
		}
	}
}
