{
	 "smiles": "COC1=CC(=CC(OC)=C1OC)C(=O)OCCCN(C)CCN(C)CCCOC(=O)C1=CC(OC)=C(OC)C(OC)=C1", 
	 "Tm": 349.15, 
	 "num_atms": 86, 
	 "gaussian": { 
		 "optdone": 1, 
		 "sigma_profile": "yes", 
		 "theory": "DFT", 
		 "functional": "B3LYP", 
		 "basiset": "6-31G**", 
		 "properties": { 
			 "R2extent": 28479.9675, 
			 "electric_dipole_moment_norm": 4.21400492881, 
			 "electric_quadrupole_moment_norm": 29.0727156117, 
			 "total_energy": -2031.36925911, 
			 "HOMO_LUMO_gap": 0.14995, 
			 "cosmo_polarized_energy": -25.48, 
			 "cosmo_cavitation_energy": 85.19, 
			 "cosmo_dispersion_energy": -49.94, 
			 "cosmo_repulsion_energy": 3.77, 
			 "cosmo_total_nonelectrostatic_energy": 39.02, 
			 "SMD_solvation_energy": 17.08 
		},
		"coords": [
			{
				"x": 4.8495357469,
				"y": -1.5093214284,
				"z": 1.0759011528,
				"element": "C" 
			},
			{
				"x": 3.8578409596,
				"y": -2.523799964,
				"z": 1.1111105023,
				"element": "O" 
			},
			{
				"x": 2.5969215868,
				"y": -2.1720589138,
				"z": 1.4979432575,
				"element": "C" 
			},
			{
				"x": 2.2201457422,
				"y": -0.8895046246,
				"z": 1.9035706916,
				"element": "C" 
			},
			{
				"x": 0.8894933174,
				"y": -0.6561709392,
				"z": 2.2751599295,
				"element": "C" 
			},
			{
				"x": -0.0593454931,
				"y": -1.6828069787,
				"z": 2.2566445542,
				"element": "C" 
			},
			{
				"x": 0.321602524,
				"y": -2.968827981,
				"z": 1.8662381849,
				"element": "C" 
			},
			{
				"x": -0.5117456785,
				"y": -4.0448029542,
				"z": 1.8324416736,
				"element": "O" 
			},
			{
				"x": -1.8635398602,
				"y": -3.8513811847,
				"z": 2.2532550067,
				"element": "C" 
			},
			{
				"x": 1.6502896759,
				"y": -3.2155056227,
				"z": 1.4726738496,
				"element": "C" 
			},
			{
				"x": 1.9983291978,
				"y": -4.4616866072,
				"z": 1.0207217711,
				"element": "O" 
			},
			{
				"x": 2.6951494764,
				"y": -5.2743205532,
				"z": 1.9697835993,
				"element": "C" 
			},
			{
				"x": 0.422833672,
				"y": 0.6807745305,
				"z": 2.7328768651,
				"element": "C" 
			},
			{
				"x": -0.7335534244,
				"y": 0.9373947944,
				"z": 3.0263155258,
				"element": "O" 
			},
			{
				"x": 1.4229188575,
				"y": 1.589462869,
				"z": 2.8167379712,
				"element": "O" 
			},
			{
				"x": 1.0745768732,
				"y": 2.8569081627,
				"z": 3.4216521599,
				"element": "C" 
			},
			{
				"x": 0.4140363608,
				"y": 3.8408439777,
				"z": 2.4593057784,
				"element": "C" 
			},
			{
				"x": -0.1186567881,
				"y": 5.0542546373,
				"z": 3.2565296338,
				"element": "C" 
			},
			{
				"x": -0.7726475341,
				"y": 6.1263523585,
				"z": 2.5343505447,
				"element": "N" 
			},
			{
				"x": 0.074492916,
				"y": 7.0160727198,
				"z": 1.7702863963,
				"element": "C" 
			},
			{
				"x": -2.134941928,
				"y": 5.9150660818,
				"z": 2.0601584631,
				"element": "C" 
			},
			{
				"x": -2.3784500058,
				"y": 5.9294071203,
				"z": 0.5380645089,
				"element": "C" 
			},
			{
				"x": -1.6999113827,
				"y": 4.8934202934,
				"z": -0.244947105,
				"element": "N" 
			},
			{
				"x": -1.5462382343,
				"y": 5.3183328445,
				"z": -1.6351252531,
				"element": "C" 
			},
			{
				"x": -2.3811465172,
				"y": 3.5990444929,
				"z": -0.1387835638,
				"element": "C" 
			},
			{
				"x": -1.6234578211,
				"y": 2.4637841266,
				"z": -0.8370075708,
				"element": "C" 
			},
			{
				"x": -2.1812449257,
				"y": 1.0881959537,
				"z": -0.4968986706,
				"element": "C" 
			},
			{
				"x": -1.5308034079,
				"y": 0.1591895609,
				"z": -1.3916979491,
				"element": "O" 
			},
			{
				"x": -1.6719077181,
				"y": -1.1574941144,
				"z": -1.1244325599,
				"element": "C" 
			},
			{
				"x": -2.321991414,
				"y": -1.5748878604,
				"z": -0.1808892576,
				"element": "O" 
			},
			{
				"x": -0.9413451482,
				"y": -2.0119322343,
				"z": -2.0999676381,
				"element": "C" 
			},
			{
				"x": -0.7882410329,
				"y": -3.3669003052,
				"z": -1.7885514487,
				"element": "C" 
			},
			{
				"x": -0.1026248334,
				"y": -4.204092027,
				"z": -2.6724955893,
				"element": "C" 
			},
			{
				"x": 0.1172834275,
				"y": -5.5308775661,
				"z": -2.4668242114,
				"element": "O" 
			},
			{
				"x": -0.3139910354,
				"y": -6.0935275955,
				"z": -1.2298459596,
				"element": "C" 
			},
			{
				"x": 0.4091541899,
				"y": -3.6875455524,
				"z": -3.8797429225,
				"element": "C" 
			},
			{
				"x": 1.0208917548,
				"y": -4.5017496952,
				"z": -4.7923629307,
				"element": "O" 
			},
			{
				"x": 2.354793291,
				"y": -4.894969682,
				"z": -4.459604798,
				"element": "C" 
			},
			{
				"x": 0.2501217636,
				"y": -2.320360937,
				"z": -4.17835431,
				"element": "C" 
			},
			{
				"x": 0.7974157573,
				"y": -1.9148230518,
				"z": -5.3599422657,
				"element": "O" 
			},
			{
				"x": 0.6490739141,
				"y": -0.5538904762,
				"z": -5.7262643788,
				"element": "C" 
			},
			{
				"x": -0.4257861178,
				"y": -1.4804625973,
				"z": -3.2890662304,
				"element": "C" 
			},
			{
				"x": 4.5770805117,
				"y": -0.7031642408,
				"z": 0.3832427851,
				"element": "H" 
			},
			{
				"x": 5.0288950834,
				"y": -1.0810612726,
				"z": 2.0705538443,
				"element": "H" 
			},
			{
				"x": 5.7614234726,
				"y": -1.9937136424,
				"z": 0.7233513565,
				"element": "H" 
			},
			{
				"x": 2.9304019995,
				"y": -0.0755169241,
				"z": 1.9359990804,
				"element": "H" 
			},
			{
				"x": -1.0755304005,
				"y": -1.4498294081,
				"z": 2.5414769915,
				"element": "H" 
			},
			{
				"x": -2.3364338966,
				"y": -4.8318327199,
				"z": 2.1752906151,
				"element": "H" 
			},
			{
				"x": -1.9080407379,
				"y": -3.5131682401,
				"z": 3.2960642603,
				"element": "H" 
			},
			{
				"x": -2.3778040371,
				"y": -3.1365046944,
				"z": 1.6046218425,
				"element": "H" 
			},
			{
				"x": 2.8924346643,
				"y": -6.2258021166,
				"z": 1.4716403232,
				"element": "H" 
			},
			{
				"x": 2.0800470744,
				"y": -5.4520216692,
				"z": 2.8602203011,
				"element": "H" 
			},
			{
				"x": 3.6445770929,
				"y": -4.8128332166,
				"z": 2.2607763825,
				"element": "H" 
			},
			{
				"x": 0.4112302005,
				"y": 2.6571158909,
				"z": 4.2687989122,
				"element": "H" 
			},
			{
				"x": 2.0247708817,
				"y": 3.245569206,
				"z": 3.7985254553,
				"element": "H" 
			},
			{
				"x": 1.1253846043,
				"y": 4.1608891818,
				"z": 1.6901929531,
				"element": "H" 
			},
			{
				"x": -0.4157211966,
				"y": 3.3438961364,
				"z": 1.9532877366,
				"element": "H" 
			},
			{
				"x": 0.7153229185,
				"y": 5.4996702984,
				"z": 3.8193519694,
				"element": "H" 
			},
			{
				"x": -0.8227206343,
				"y": 4.6792987227,
				"z": 4.0121322808,
				"element": "H" 
			},
			{
				"x": 0.9746942715,
				"y": 7.2445552571,
				"z": 2.3521893217,
				"element": "H" 
			},
			{
				"x": 0.3969929002,
				"y": 6.6202701423,
				"z": 0.7917086681,
				"element": "H" 
			},
			{
				"x": -0.4410944695,
				"y": 7.9684295169,
				"z": 1.5914384313,
				"element": "H" 
			},
			{
				"x": -2.5055868679,
				"y": 4.9804020543,
				"z": 2.4938284637,
				"element": "H" 
			},
			{
				"x": -2.7926219073,
				"y": 6.709635379,
				"z": 2.4565546396,
				"element": "H" 
			},
			{
				"x": -2.0445251033,
				"y": 6.8989129426,
				"z": 0.1551859006,
				"element": "H" 
			},
			{
				"x": -3.4757565256,
				"y": 5.9086381055,
				"z": 0.3802186772,
				"element": "H" 
			},
			{
				"x": -0.925864387,
				"y": 4.6102388864,
				"z": -2.1891275329,
				"element": "H" 
			},
			{
				"x": -2.5101129171,
				"y": 5.419501395,
				"z": -2.1713105281,
				"element": "H" 
			},
			{
				"x": -1.0399403044,
				"y": 6.2875446993,
				"z": -1.6646934289,
				"element": "H" 
			},
			{
				"x": -3.4113210937,
				"y": 3.6565726244,
				"z": -0.5481673637,
				"element": "H" 
			},
			{
				"x": -2.4852002861,
				"y": 3.3579062953,
				"z": 0.9251853558,
				"element": "H" 
			},
			{
				"x": -0.5658716024,
				"y": 2.507523554,
				"z": -0.5540992073,
				"element": "H" 
			},
			{
				"x": -1.6719271137,
				"y": 2.5845015587,
				"z": -1.9241937581,
				"element": "H" 
			},
			{
				"x": -3.2648390123,
				"y": 1.0329369129,
				"z": -0.6576175087,
				"element": "H" 
			},
			{
				"x": -1.9788550747,
				"y": 0.8012601203,
				"z": 0.5387112179,
				"element": "H" 
			},
			{
				"x": -1.1863873821,
				"y": -3.7348048507,
				"z": -0.8533039854,
				"element": "H" 
			},
			{
				"x": -1.4052723477,
				"y": -6.0372588914,
				"z": -1.1277457497,
				"element": "H" 
			},
			{
				"x": 0.160935466,
				"y": -5.5994821993,
				"z": -0.3757110508,
				"element": "H" 
			},
			{
				"x": -0.0146720903,
				"y": -7.1425083047,
				"z": -1.2658202348,
				"element": "H" 
			},
			{
				"x": 3.0126215224,
				"y": -4.020414328,
				"z": -4.3808847377,
				"element": "H" 
			},
			{
				"x": 2.3800466967,
				"y": -5.4611424291,
				"z": -3.5231796057,
				"element": "H" 
			},
			{
				"x": 2.6979255693,
				"y": -5.5298289554,
				"z": -5.2793339457,
				"element": "H" 
			},
			{
				"x": 1.1409378076,
				"y": -0.4488519275,
				"z": -6.6947644524,
				"element": "H" 
			},
			{
				"x": 1.1292672972,
				"y": 0.1185614484,
				"z": -5.002990775,
				"element": "H" 
			},
			{
				"x": -0.4074065871,
				"y": -0.2726925295,
				"z": -5.8261724732,
				"element": "H" 
			},
			{
				"x": -0.5519147636,
				"y": -0.4274008458,
				"z": -3.4956488349,
				"element": "H" 
			}
		],
		 "valence_orbital": [ 
			{
				"type": "occ",
				"energy": -0.21686,
				"method": "rhf"
			},
			{
				"type": "occ",
				"energy": -0.21634,
				"method": "rhf"
			},
			{
				"type": "occ",
				"energy": -0.21081,
				"method": "rhf"
			},
			{
				"type": "occ",
				"energy": -0.20766,
				"method": "rhf"
			},
			{
				"type": "occ",
				"energy": -0.18787,
				"method": "rhf"
			},
			{
				"type": "unocc",
				"energy": -0.03792,
				"method": "rhf"
			},
			{
				"type": "unocc",
				"energy": -0.02955,
				"method": "rhf"
			},
			{
				"type": "unocc",
				"energy": 0.01966,
				"method": "rhf"
			},
			{
				"type": "unocc",
				"energy": 0.02813,
				"method": "rhf"
			},
			{
				"type": "unocc",
				"energy": 0.06469,
				"method": "rhf"
			}
		],
		"cosmo_sigma_profile": { 
			"-0.025": 0.0,
			"-0.024": 0.0,
			"-0.023": 0.0,
			"-0.022": 0.0,
			"-0.021": 0.0,
			"-0.02": 0.0,
			"-0.019": 0.0,
			"-0.018": 0.0,
			"-0.017": 0.0,
			"-0.016": 0.0,
			"-0.015": 0.0,
			"-0.014": 0.0,
			"-0.013": 0.0,
			"-0.012": 0.0,
			"-0.011": 0.0,
			"-0.01": 0.0,
			"-0.009": 0.0,
			"-0.008": 0.0,
			"-0.007": 0.667058571398,
			"-0.006": 19.3231096325,
			"-0.005": 45.2030934934,
			"-0.004": 62.6018183334,
			"-0.003": 88.0445005984,
			"-0.002": 78.3628588568,
			"-0.001": 70.6565891897,
			"0.0": 57.5269594893,
			"0.001": 40.3571816576,
			"0.002": 46.5815538424,
			"0.003": 44.7394366854,
			"0.004": 25.8433767707,
			"0.005": 16.7345660728,
			"0.006": 14.6553694628,
			"0.007": 9.51310645387,
			"0.008": 10.0789490306,
			"0.009": 8.98521647808,
			"0.01": 8.22907767497,
			"0.011": 10.1048373699,
			"0.012": 7.00280713566,
			"0.013": 2.03122249418,
			"0.014": 0.841001722238,
			"0.015": 0.0,
			"0.016": 0.0,
			"0.017": 0.0,
			"0.018": 0.0,
			"0.019": 0.0,
			"0.02": 0.0,
			"0.021": 0.0,
			"0.022": 0.0,
			"0.023": 0.0,
			"0.024": 0.0,
			"0.025": 0.0
		}
	}
}
