{
	 "smiles": "CC1=C(C)C2=C(S1)N=C(C)N(N)C2=O", 
	 "Tm": 478.15, 
	 "num_atms": 25, 
	 "gaussian": { 
		 "optdone": 1, 
		 "sigma_profile": "yes", 
		 "theory": "DFT", 
		 "functional": "B3LYP", 
		 "basiset": "6-31G**", 
		 "properties": { 
			 "R2extent": 3527.3891, 
			 "electric_dipole_moment_norm": 0.475670274455, 
			 "electric_quadrupole_moment_norm": 14.901362232, 
			 "total_energy": -987.257707219, 
			 "HOMO_LUMO_gap": 0.17191, 
			 "cosmo_polarized_energy": -11.19, 
			 "cosmo_cavitation_energy": 29.75, 
			 "cosmo_dispersion_energy": -22.34, 
			 "cosmo_repulsion_energy": 1.7, 
			 "cosmo_total_nonelectrostatic_energy": 9.12, 
			 "SMD_solvation_energy": 4.23 
		},
		"coords": [
			{
				"x": -0.4327252978,
				"y": -2.7437368982,
				"z": -3.1145423507,
				"element": "C" 
			},
			{
				"x": -0.6803001906,
				"y": -1.8807309084,
				"z": -1.9076684294,
				"element": "C" 
			},
			{
				"x": 0.2283402265,
				"y": -1.1581947904,
				"z": -1.178278727,
				"element": "C" 
			},
			{
				"x": 1.703879039,
				"y": -1.0942085632,
				"z": -1.4651883366,
				"element": "C" 
			},
			{
				"x": -0.4041687499,
				"y": -0.4579677229,
				"z": -0.0901480775,
				"element": "C" 
			},
			{
				"x": -1.779118442,
				"y": -0.6596825064,
				"z": -0.0113488895,
				"element": "C" 
			},
			{
				"x": -2.3204183008,
				"y": -1.7218754774,
				"z": -1.2834132669,
				"element": "S" 
			},
			{
				"x": -2.6325820669,
				"y": -0.1317563698,
				"z": 0.9043997774,
				"element": "N" 
			},
			{
				"x": -2.0983084762,
				"y": 0.6499081162,
				"z": 1.8058041107,
				"element": "C" 
			},
			{
				"x": -2.9691710354,
				"y": 1.2749701892,
				"z": 2.8553433218,
				"element": "C" 
			},
			{
				"x": -0.7458599366,
				"y": 0.9243577743,
				"z": 1.8259413326,
				"element": "N" 
			},
			{
				"x": -0.2487997328,
				"y": 1.7810042771,
				"z": 2.8370600111,
				"element": "N" 
			},
			{
				"x": 0.2039097198,
				"y": 0.4015244084,
				"z": 0.896310698,
				"element": "C" 
			},
			{
				"x": 1.3866340261,
				"y": 0.7139041813,
				"z": 1.0149738037,
				"element": "O" 
			},
			{
				"x": -0.0025004424,
				"y": -2.1638274065,
				"z": -3.9388526433,
				"element": "H" 
			},
			{
				"x": 0.261813794,
				"y": -3.5600470555,
				"z": -2.886215982,
				"element": "H" 
			},
			{
				"x": -1.358603727,
				"y": -3.1949388057,
				"z": -3.4805173225,
				"element": "H" 
			},
			{
				"x": 2.28636095,
				"y": -1.4467702106,
				"z": -0.6083938787,
				"element": "H" 
			},
			{
				"x": 1.9662406428,
				"y": -1.6998095357,
				"z": -2.3359487386,
				"element": "H" 
			},
			{
				"x": 2.0240073132,
				"y": -0.0639879217,
				"z": -1.6491258215,
				"element": "H" 
			},
			{
				"x": -3.9931194535,
				"y": 0.9440434333,
				"z": 2.6831022207,
				"element": "H" 
			},
			{
				"x": -2.9189296396,
				"y": 2.3667383929,
				"z": 2.8129126594,
				"element": "H" 
			},
			{
				"x": -2.6474298962,
				"y": 0.9857560065,
				"z": 3.8597724754,
				"element": "H" 
			},
			{
				"x": 0.2300935011,
				"y": 2.541735224,
				"z": 2.3526722391,
				"element": "H" 
			},
			{
				"x": 0.5069561751,
				"y": 1.2672921692,
				"z": 3.2925498142,
				"element": "H" 
			}
		],
		 "valence_orbital": [ 
			{
				"type": "occ",
				"energy": -0.28107,
				"method": "rhf"
			},
			{
				"type": "occ",
				"energy": -0.27385,
				"method": "rhf"
			},
			{
				"type": "occ",
				"energy": -0.2643,
				"method": "rhf"
			},
			{
				"type": "occ",
				"energy": -0.24999,
				"method": "rhf"
			},
			{
				"type": "occ",
				"energy": -0.20833,
				"method": "rhf"
			},
			{
				"type": "unocc",
				"energy": -0.03642,
				"method": "rhf"
			},
			{
				"type": "unocc",
				"energy": -0.00486,
				"method": "rhf"
			},
			{
				"type": "unocc",
				"energy": 0.02108,
				"method": "rhf"
			},
			{
				"type": "unocc",
				"energy": 0.03295,
				"method": "rhf"
			},
			{
				"type": "unocc",
				"energy": 0.07445,
				"method": "rhf"
			}
		],
		"cosmo_sigma_profile": { 
			"-0.025": 0.0,
			"-0.024": 0.0,
			"-0.023": 0.0,
			"-0.022": 0.0,
			"-0.021": 0.0,
			"-0.02": 0.0,
			"-0.019": 0.0,
			"-0.018": 0.0,
			"-0.017": 0.0,
			"-0.016": 0.0,
			"-0.015": 0.0,
			"-0.014": 0.0,
			"-0.013": 0.140191691729,
			"-0.012": 2.19162472115,
			"-0.011": 2.88688633268,
			"-0.01": 2.61151186382,
			"-0.009": 2.15290391282,
			"-0.008": 2.18172965543,
			"-0.007": 1.50061339879,
			"-0.006": 4.13685396049,
			"-0.005": 12.1429096663,
			"-0.004": 22.0015515507,
			"-0.003": 22.2363386665,
			"-0.002": 22.5978718601,
			"-0.001": 25.4341164368,
			"0.0": 19.8239663596,
			"0.001": 17.3584869373,
			"0.002": 18.2225039445,
			"0.003": 15.7622152765,
			"0.004": 10.6875250953,
			"0.005": 5.40821814853,
			"0.006": 3.80500400921,
			"0.007": 3.71795656328,
			"0.008": 2.3476750746,
			"0.009": 3.22489910091,
			"0.01": 3.536092488,
			"0.011": 3.01854537075,
			"0.012": 3.20026040488,
			"0.013": 4.91012292679,
			"0.014": 0.48338225361,
			"0.015": 0.0,
			"0.016": 0.0,
			"0.017": 0.0,
			"0.018": 0.0,
			"0.019": 0.0,
			"0.02": 0.0,
			"0.021": 0.0,
			"0.022": 0.0,
			"0.023": 0.0,
			"0.024": 0.0,
			"0.025": 0.0
		}
	}
}
