{
	 "smiles": "O=C1NCCN1CC#C", 
	 "Tm": 393.15, 
	 "num_atms": 17, 
	 "gaussian": { 
		 "optdone": 1, 
		 "sigma_profile": "yes", 
		 "theory": "DFT", 
		 "functional": "B3LYP", 
		 "basiset": "6-31G**", 
		 "properties": { 
			 "R2extent": 2899.6788, 
			 "electric_dipole_moment_norm": 3.84443893046, 
			 "electric_quadrupole_moment_norm": 18.4436521974, 
			 "total_energy": -418.126564493, 
			 "HOMO_LUMO_gap": 0.27941, 
			 "cosmo_polarized_energy": -12.96, 
			 "cosmo_cavitation_energy": 21.39, 
			 "cosmo_dispersion_energy": -15.31, 
			 "cosmo_repulsion_energy": 1.27, 
			 "cosmo_total_nonelectrostatic_energy": 7.35, 
			 "SMD_solvation_energy": 3.95 
		},
		"coords": [
			{
				"x": -3.8669076265,
				"y": -1.5911550362,
				"z": -0.7244538115,
				"element": "O" 
			},
			{
				"x": -3.039465316,
				"y": -0.7332463848,
				"z": -0.464099337,
				"element": "C" 
			},
			{
				"x": -2.5144819584,
				"y": 0.2135356043,
				"z": -1.3367310159,
				"element": "N" 
			},
			{
				"x": -1.7666068617,
				"y": 1.2287809746,
				"z": -0.6021137931,
				"element": "C" 
			},
			{
				"x": -1.3412978947,
				"y": 0.4370710013,
				"z": 0.6512209609,
				"element": "C" 
			},
			{
				"x": -2.427792179,
				"y": -0.5245731037,
				"z": 0.768053381,
				"element": "N" 
			},
			{
				"x": -2.4307834333,
				"y": -1.5821052186,
				"z": 1.7621098219,
				"element": "C" 
			},
			{
				"x": -2.551206793,
				"y": -1.0709006942,
				"z": 3.1313055321,
				"element": "C" 
			},
			{
				"x": -2.6191558589,
				"y": -0.6571469959,
				"z": 4.2634031093,
				"element": "C" 
			},
			{
				"x": -3.0945736977,
				"y": 0.463143944,
				"z": -2.1248314209,
				"element": "H" 
			},
			{
				"x": -0.9077392227,
				"y": 1.5956080117,
				"z": -1.1707036777,
				"element": "H" 
			},
			{
				"x": -2.3949356221,
				"y": 2.0868350415,
				"z": -0.3226218388,
				"element": "H" 
			},
			{
				"x": -0.37471883,
				"y": -0.0683620736,
				"z": 0.4931024558,
				"element": "H" 
			},
			{
				"x": -1.2618473076,
				"y": 1.0653663729,
				"z": 1.5423801427,
				"element": "H" 
			},
			{
				"x": -3.278034285,
				"y": -2.2301662813,
				"z": 1.512065262,
				"element": "H" 
			},
			{
				"x": -1.5183151481,
				"y": -2.1977266809,
				"z": 1.6864317526,
				"element": "H" 
			},
			{
				"x": -2.7004379655,
				"y": -0.2947584812,
				"z": 5.2619824766,
				"element": "H" 
			}
		],
		 "valence_orbital": [ 
			{
				"type": "occ",
				"energy": -0.27903,
				"method": "rhf"
			},
			{
				"type": "occ",
				"energy": -0.27074,
				"method": "rhf"
			},
			{
				"type": "occ",
				"energy": -0.26291,
				"method": "rhf"
			},
			{
				"type": "occ",
				"energy": -0.25124,
				"method": "rhf"
			},
			{
				"type": "occ",
				"energy": -0.24043,
				"method": "rhf"
			},
			{
				"type": "unocc",
				"energy": 0.03898,
				"method": "rhf"
			},
			{
				"type": "unocc",
				"energy": 0.0483,
				"method": "rhf"
			},
			{
				"type": "unocc",
				"energy": 0.06111,
				"method": "rhf"
			},
			{
				"type": "unocc",
				"energy": 0.08674,
				"method": "rhf"
			},
			{
				"type": "unocc",
				"energy": 0.10659,
				"method": "rhf"
			}
		],
		"cosmo_sigma_profile": { 
			"-0.025": 0.0,
			"-0.024": 0.0,
			"-0.023": 0.0,
			"-0.022": 0.0,
			"-0.021": 0.0,
			"-0.02": 0.0,
			"-0.019": 0.0,
			"-0.018": 0.0,
			"-0.017": 0.0,
			"-0.016": 0.0,
			"-0.015": 0.0,
			"-0.014": 0.737864705125,
			"-0.013": 1.27436781678,
			"-0.012": 1.54975862649,
			"-0.011": 2.42093122915,
			"-0.01": 1.79827846506,
			"-0.009": 1.74222617821,
			"-0.008": 2.62901042695,
			"-0.007": 2.78343035848,
			"-0.006": 8.38744848528,
			"-0.005": 18.416584758,
			"-0.004": 21.5545778717,
			"-0.003": 14.7300551368,
			"-0.002": 10.2931102471,
			"-0.001": 4.84064731616,
			"0.0": 6.22339981676,
			"0.001": 6.98471772255,
			"0.002": 5.49427128487,
			"0.003": 6.31002101147,
			"0.004": 9.2825656355,
			"0.005": 6.4889325093,
			"0.006": 10.6197657474,
			"0.007": 6.6812267821,
			"0.008": 2.20101848408,
			"0.009": 1.49421209891,
			"0.01": 1.7559599698,
			"0.011": 1.18038026094,
			"0.012": 2.20383530955,
			"0.013": 3.07971277893,
			"0.014": 5.87232251419,
			"0.015": 1.11774651339,
			"0.016": 0.0,
			"0.017": 0.0,
			"0.018": 0.0,
			"0.019": 0.0,
			"0.02": 0.0,
			"0.021": 0.0,
			"0.022": 0.0,
			"0.023": 0.0,
			"0.024": 0.0,
			"0.025": 0.0
		}
	}
}
