{
	 "smiles": "CC1=C(N2C=CC=CC2=N1)C(O)=O", 
	 "Tm": 414.15, 
	 "num_atms": 21, 
	 "gaussian": { 
		 "optdone": 1, 
		 "sigma_profile": "yes", 
		 "theory": "DFT", 
		 "functional": "B3LYP", 
		 "basiset": "6-31G**", 
		 "properties": { 
			 "R2extent": 2333.6147, 
			 "electric_dipole_moment_norm": 1.13338345673, 
			 "electric_quadrupole_moment_norm": 11.8551198817, 
			 "total_energy": -607.756892268, 
			 "HOMO_LUMO_gap": 0.17746, 
			 "cosmo_polarized_energy": -11.08, 
			 "cosmo_cavitation_energy": 25.23, 
			 "cosmo_dispersion_energy": -18.95, 
			 "cosmo_repulsion_energy": 1.47, 
			 "cosmo_total_nonelectrostatic_energy": 7.76, 
			 "SMD_solvation_energy": 4.03 
		},
		"coords": [
			{
				"x": -0.4374679472,
				"y": -1.8669852604,
				"z": 2.3663846977,
				"element": "C" 
			},
			{
				"x": -0.4263233904,
				"y": -1.0413452664,
				"z": 1.1185662129,
				"element": "C" 
			},
			{
				"x": 0.6159367805,
				"y": -0.9009379632,
				"z": 0.1842717057,
				"element": "C" 
			},
			{
				"x": 0.1208938226,
				"y": -0.0262385503,
				"z": -0.7857075184,
				"element": "N" 
			},
			{
				"x": 0.6843012852,
				"y": 0.4760805059,
				"z": -1.9311072379,
				"element": "C" 
			},
			{
				"x": -0.0512128357,
				"y": 1.3332082535,
				"z": -2.7080766288,
				"element": "C" 
			},
			{
				"x": -1.3709593107,
				"y": 1.6945349025,
				"z": -2.3348555307,
				"element": "C" 
			},
			{
				"x": -1.9295941567,
				"y": 1.1860024702,
				"z": -1.1832622818,
				"element": "C" 
			},
			{
				"x": -1.1758889256,
				"y": 0.3048936509,
				"z": -0.3829868147,
				"element": "C" 
			},
			{
				"x": -1.5035090514,
				"y": -0.30815248,
				"z": 0.7650874394,
				"element": "N" 
			},
			{
				"x": 1.9450477492,
				"y": -1.4620566324,
				"z": 0.1043298283,
				"element": "C" 
			},
			{
				"x": 2.2288725016,
				"y": -2.2872730574,
				"z": 1.147547735,
				"element": "O" 
			},
			{
				"x": 2.7623487884,
				"y": -1.2487296978,
				"z": -0.7829498109,
				"element": "O" 
			},
			{
				"x": -0.2712213168,
				"y": -2.9253179222,
				"z": 2.143666907,
				"element": "H" 
			},
			{
				"x": -1.4034877276,
				"y": -1.749142894,
				"z": 2.8598130537,
				"element": "H" 
			},
			{
				"x": 0.3589567696,
				"y": -1.5614210043,
				"z": 3.0516952465,
				"element": "H" 
			},
			{
				"x": 1.6930918373,
				"y": 0.1481602779,
				"z": -2.1386036011,
				"element": "H" 
			},
			{
				"x": 0.3958157196,
				"y": 1.7289347859,
				"z": -3.6126739793,
				"element": "H" 
			},
			{
				"x": -1.9391516771,
				"y": 2.3742968538,
				"z": -2.9615114332,
				"element": "H" 
			},
			{
				"x": -2.9334541815,
				"y": 1.4348564065,
				"z": -0.8602811085,
				"element": "H" 
			},
			{
				"x": 3.1347052666,
				"y": -2.5986673786,
				"z": 0.986753119,
				"element": "H" 
			}
		],
		 "valence_orbital": [ 
			{
				"type": "occ",
				"energy": -0.31456,
				"method": "rhf"
			},
			{
				"type": "occ",
				"energy": -0.28715,
				"method": "rhf"
			},
			{
				"type": "occ",
				"energy": -0.26971,
				"method": "rhf"
			},
			{
				"type": "occ",
				"energy": -0.2482,
				"method": "rhf"
			},
			{
				"type": "occ",
				"energy": -0.22114,
				"method": "rhf"
			},
			{
				"type": "unocc",
				"energy": -0.04368,
				"method": "rhf"
			},
			{
				"type": "unocc",
				"energy": -0.03185,
				"method": "rhf"
			},
			{
				"type": "unocc",
				"energy": 0.02453,
				"method": "rhf"
			},
			{
				"type": "unocc",
				"energy": 0.07855,
				"method": "rhf"
			},
			{
				"type": "unocc",
				"energy": 0.09182,
				"method": "rhf"
			}
		],
		"cosmo_sigma_profile": { 
			"-0.025": 0.0,
			"-0.024": 0.0,
			"-0.023": 0.0,
			"-0.022": 0.0,
			"-0.021": 0.0,
			"-0.02": 0.0,
			"-0.019": 0.0,
			"-0.018": 0.484210393957,
			"-0.017": 1.02479639633,
			"-0.016": 0.793411675334,
			"-0.015": 0.662976960522,
			"-0.014": 0.619410369711,
			"-0.013": 0.646189242479,
			"-0.012": 0.927660013911,
			"-0.011": 1.01081473326,
			"-0.01": 0.543894135882,
			"-0.009": 0.308611763456,
			"-0.008": 2.05269925888,
			"-0.007": 8.21739001356,
			"-0.006": 8.4335861994,
			"-0.005": 10.6098068595,
			"-0.004": 9.72557327723,
			"-0.003": 11.8219246917,
			"-0.002": 16.3975694846,
			"-0.001": 23.7992784031,
			"0.0": 21.3957874708,
			"0.001": 17.7572747918,
			"0.002": 15.6317084365,
			"0.003": 10.9170704663,
			"0.004": 5.23991022036,
			"0.005": 4.87319999878,
			"0.006": 4.655347035,
			"0.007": 3.84707941304,
			"0.008": 3.01203226756,
			"0.009": 2.54290811881,
			"0.01": 1.99866276874,
			"0.011": 3.67873279644,
			"0.012": 4.14849186825,
			"0.013": 1.30418071198,
			"0.014": 0.727399194107,
			"0.015": 1.31017236727,
			"0.016": 0.554363013272,
			"0.017": 0.58438093127,
			"0.018": 0.0205247919063,
			"0.019": 0.0,
			"0.02": 0.0,
			"0.021": 0.0,
			"0.022": 0.0,
			"0.023": 0.0,
			"0.024": 0.0,
			"0.025": 0.0
		}
	}
}
