{
	 "smiles": "CCOC(=O)C(CC)N1N=C2C=CC=CC2=N1", 
	 "Tm": 321.65, 
	 "num_atms": 32, 
	 "gaussian": { 
		 "optdone": 1, 
		 "sigma_profile": "yes", 
		 "theory": "DFT", 
		 "functional": "B3LYP", 
		 "basiset": "6-31G**", 
		 "properties": { 
			 "R2extent": 5075.5272, 
			 "electric_dipole_moment_norm": 2.16083709011, 
			 "electric_quadrupole_moment_norm": 15.7186381474, 
			 "total_energy": -781.004992072, 
			 "HOMO_LUMO_gap": 0.17882, 
			 "cosmo_polarized_energy": -11.67, 
			 "cosmo_cavitation_energy": 35.75, 
			 "cosmo_dispersion_energy": -24.96, 
			 "cosmo_repulsion_energy": 1.96, 
			 "cosmo_total_nonelectrostatic_energy": 12.75, 
			 "SMD_solvation_energy": 5.07 
		},
		"coords": [
			{
				"x": -1.4009208105,
				"y": -0.3318544334,
				"z": -5.11794086,
				"element": "C" 
			},
			{
				"x": -0.1144253026,
				"y": -0.9206030581,
				"z": -4.5610799367,
				"element": "C" 
			},
			{
				"x": -0.316441229,
				"y": -1.4848105552,
				"z": -3.2384735802,
				"element": "O" 
			},
			{
				"x": -0.2237341825,
				"y": -0.6289323257,
				"z": -2.1996248522,
				"element": "C" 
			},
			{
				"x": 0.0031146692,
				"y": 0.553133551,
				"z": -2.2911879372,
				"element": "O" 
			},
			{
				"x": -0.4138393626,
				"y": -1.4078534254,
				"z": -0.8895007257,
				"element": "C" 
			},
			{
				"x": -1.7564339446,
				"y": -2.170099137,
				"z": -0.8175530896,
				"element": "C" 
			},
			{
				"x": -3.0170841134,
				"y": -1.3608480768,
				"z": -1.1392108739,
				"element": "C" 
			},
			{
				"x": -0.1757304012,
				"y": -0.5254009441,
				"z": 0.2487840312,
				"element": "N" 
			},
			{
				"x": 1.0101229967,
				"y": -0.5432354348,
				"z": 0.8552427547,
				"element": "N" 
			},
			{
				"x": 0.8775047201,
				"y": 0.4172599362,
				"z": 1.796639975,
				"element": "C" 
			},
			{
				"x": 1.788333774,
				"y": 0.8784349799,
				"z": 2.7760650324,
				"element": "C" 
			},
			{
				"x": 1.3527255792,
				"y": 1.8854175444,
				"z": 3.6089449092,
				"element": "C" 
			},
			{
				"x": 0.0428746842,
				"y": 2.4444460849,
				"z": 3.4989367515,
				"element": "C" 
			},
			{
				"x": -0.8593899249,
				"y": 2.0080779651,
				"z": 2.5539259542,
				"element": "C" 
			},
			{
				"x": -0.4308342302,
				"y": 0.9751543269,
				"z": 1.687718694,
				"element": "C" 
			},
			{
				"x": -1.07788111,
				"y": 0.3483740245,
				"z": 0.6800091581,
				"element": "N" 
			},
			{
				"x": -1.7279084858,
				"y": 0.5187381633,
				"z": -4.5150311217,
				"element": "H" 
			},
			{
				"x": -2.1972168436,
				"y": -1.0817418659,
				"z": -5.1394729028,
				"element": "H" 
			},
			{
				"x": -1.2330637144,
				"y": 0.0188035403,
				"z": -6.1417229406,
				"element": "H" 
			},
			{
				"x": 0.672393771,
				"y": -0.1652129061,
				"z": -4.5001023287,
				"element": "H" 
			},
			{
				"x": 0.2356318967,
				"y": -1.763759775,
				"z": -5.1608587969,
				"element": "H" 
			},
			{
				"x": 0.4003023211,
				"y": -2.1353920058,
				"z": -0.8365685544,
				"element": "H" 
			},
			{
				"x": -1.8281048431,
				"y": -2.6037914595,
				"z": 0.1858801688,
				"element": "H" 
			},
			{
				"x": -1.667960369,
				"y": -3.0058392606,
				"z": -1.5187260391,
				"element": "H" 
			},
			{
				"x": -3.8991043579,
				"y": -2.0042599226,
				"z": -1.0596288396,
				"element": "H" 
			},
			{
				"x": -2.9868465961,
				"y": -0.9706871488,
				"z": -2.1619062235,
				"element": "H" 
			},
			{
				"x": -3.13280146,
				"y": -0.5196036351,
				"z": -0.4546292644,
				"element": "H" 
			},
			{
				"x": 2.7827584036,
				"y": 0.4527169476,
				"z": 2.8569063254,
				"element": "H" 
			},
			{
				"x": 2.0189777379,
				"y": 2.272493319,
				"z": 4.3743783063,
				"element": "H" 
			},
			{
				"x": -0.2416004921,
				"y": 3.2375024934,
				"z": 4.1842966259,
				"element": "H" 
			},
			{
				"x": -1.8541187801,
				"y": 2.4318724935,
				"z": 2.4670901805,
				"element": "H" 
			}
		],
		 "valence_orbital": [ 
			{
				"type": "occ",
				"energy": -0.30435,
				"method": "rhf"
			},
			{
				"type": "occ",
				"energy": -0.29106,
				"method": "rhf"
			},
			{
				"type": "occ",
				"energy": -0.28,
				"method": "rhf"
			},
			{
				"type": "occ",
				"energy": -0.24695,
				"method": "rhf"
			},
			{
				"type": "occ",
				"energy": -0.22379,
				"method": "rhf"
			},
			{
				"type": "unocc",
				"energy": -0.04497,
				"method": "rhf"
			},
			{
				"type": "unocc",
				"energy": 0.00239,
				"method": "rhf"
			},
			{
				"type": "unocc",
				"energy": 0.02759,
				"method": "rhf"
			},
			{
				"type": "unocc",
				"energy": 0.0359,
				"method": "rhf"
			},
			{
				"type": "unocc",
				"energy": 0.08588,
				"method": "rhf"
			}
		],
		"cosmo_sigma_profile": { 
			"-0.025": 0.0,
			"-0.024": 0.0,
			"-0.023": 0.0,
			"-0.022": 0.0,
			"-0.021": 0.0,
			"-0.02": 0.0,
			"-0.019": 0.0,
			"-0.018": 0.0,
			"-0.017": 0.0,
			"-0.016": 0.0,
			"-0.015": 0.0,
			"-0.014": 0.0,
			"-0.013": 0.0,
			"-0.012": 0.0,
			"-0.011": 0.0,
			"-0.01": 0.0,
			"-0.009": 0.893026009301,
			"-0.008": 2.19615088908,
			"-0.007": 4.54878482887,
			"-0.006": 12.9086183321,
			"-0.005": 18.5660754735,
			"-0.004": 27.3869394712,
			"-0.003": 27.7144311926,
			"-0.002": 26.3940180593,
			"-0.001": 24.1634642744,
			"0.0": 24.0679179829,
			"0.001": 20.3920882793,
			"0.002": 18.5198472184,
			"0.003": 19.9681753884,
			"0.004": 15.397760367,
			"0.005": 8.23882233909,
			"0.006": 5.38910611503,
			"0.007": 6.43038903058,
			"0.008": 2.84245086945,
			"0.009": 4.19911512284,
			"0.01": 5.18173553574,
			"0.011": 5.33549381175,
			"0.012": 1.67878305204,
			"0.013": 0.660287396117,
			"0.014": 0.105548772903,
			"0.015": 0.0,
			"0.016": 0.0,
			"0.017": 0.0,
			"0.018": 0.0,
			"0.019": 0.0,
			"0.02": 0.0,
			"0.021": 0.0,
			"0.022": 0.0,
			"0.023": 0.0,
			"0.024": 0.0,
			"0.025": 0.0
		}
	}
}
