{
	 "smiles": "O1C2=CC3=C(C=CC=C3)C=C2C2=C1C=CC=C2", 
	 "Tm": 477.15, 
	 "num_atms": 27, 
	 "gaussian": { 
		 "optdone": 1, 
		 "sigma_profile": "yes", 
		 "theory": "DFT", 
		 "functional": "B3LYP", 
		 "basiset": "6-31G**", 
		 "properties": { 
			 "R2extent": 4741.5867, 
			 "electric_dipole_moment_norm": 0.829126389642, 
			 "electric_quadrupole_moment_norm": 13.3198575203, 
			 "total_energy": -690.973177812, 
			 "HOMO_LUMO_gap": 0.15131, 
			 "cosmo_polarized_energy": -6.55, 
			 "cosmo_cavitation_energy": 30.92, 
			 "cosmo_dispersion_energy": -23.27, 
			 "cosmo_repulsion_energy": 1.72, 
			 "cosmo_total_nonelectrostatic_energy": 9.38, 
			 "SMD_solvation_energy": 4.8 
		},
		"coords": [
			{
				"x": 1.2316125493,
				"y": 2.5032421603,
				"z": 0.6760271223,
				"element": "O" 
			},
			{
				"x": 0.9746077688,
				"y": 1.1486617413,
				"z": 0.6878730757,
				"element": "C" 
			},
			{
				"x": 1.8786298575,
				"y": 0.1754335723,
				"z": 1.0202268943,
				"element": "C" 
			},
			{
				"x": 1.4399907332,
				"y": -1.1758055177,
				"z": 0.9778549829,
				"element": "C" 
			},
			{
				"x": 0.0832413306,
				"y": -1.4813484102,
				"z": 0.5942060613,
				"element": "C" 
			},
			{
				"x": -0.325097312,
				"y": -2.8449080929,
				"z": 0.5617029744,
				"element": "C" 
			},
			{
				"x": 0.5463917234,
				"y": -3.8574488635,
				"z": 0.886974804,
				"element": "C" 
			},
			{
				"x": 1.8796648201,
				"y": -3.5558100651,
				"z": 1.2638714113,
				"element": "C" 
			},
			{
				"x": 2.3118278838,
				"y": -2.2504554751,
				"z": 1.3072619191,
				"element": "C" 
			},
			{
				"x": -0.8105909557,
				"y": -0.4316497848,
				"z": 0.259847456,
				"element": "C" 
			},
			{
				"x": -0.3719289269,
				"y": 0.876467115,
				"z": 0.3050180802,
				"element": "C" 
			},
			{
				"x": -0.9644997874,
				"y": 2.1786013037,
				"z": 0.0437914658,
				"element": "C" 
			},
			{
				"x": 0.0588632478,
				"y": 3.1137529378,
				"z": 0.2872995963,
				"element": "C" 
			},
			{
				"x": -0.1135827038,
				"y": 4.4830315889,
				"z": 0.1467172007,
				"element": "C" 
			},
			{
				"x": -1.3782525115,
				"y": 4.918675829,
				"z": -0.2579834432,
				"element": "C" 
			},
			{
				"x": -2.4185141212,
				"y": 4.0097450313,
				"z": -0.5082435049,
				"element": "C" 
			},
			{
				"x": -2.2225794283,
				"y": 2.6364379463,
				"z": -0.3603938188,
				"element": "C" 
			},
			{
				"x": 2.8957862961,
				"y": 0.4212876268,
				"z": 1.3067566415,
				"element": "H" 
			},
			{
				"x": -1.3481533406,
				"y": -3.0719382787,
				"z": 0.2722118369,
				"element": "H" 
			},
			{
				"x": 0.2167042389,
				"y": -4.8917842443,
				"z": 0.8563904024,
				"element": "H" 
			},
			{
				"x": 2.5612240409,
				"y": -4.362088544,
				"z": 1.5191852924,
				"element": "H" 
			},
			{
				"x": 3.3339347974,
				"y": -2.0194303444,
				"z": 1.5962093337,
				"element": "H" 
			},
			{
				"x": -1.8303906067,
				"y": -0.6728364828,
				"z": -0.0277956592,
				"element": "H" 
			},
			{
				"x": 0.698763295,
				"y": 5.1739223597,
				"z": 0.3433752125,
				"element": "H" 
			},
			{
				"x": -1.5575150545,
				"y": 5.9826131449,
				"z": -0.3806923765,
				"element": "H" 
			},
			{
				"x": -3.3887992249,
				"y": 4.382894557,
				"z": -0.8212583591,
				"element": "H" 
			},
			{
				"x": -3.0311386093,
				"y": 1.9381371892,
				"z": -0.5554346021,
				"element": "H" 
			}
		],
		 "valence_orbital": [ 
			{
				"type": "occ",
				"energy": -0.28993,
				"method": "rhf"
			},
			{
				"type": "occ",
				"energy": -0.26952,
				"method": "rhf"
			},
			{
				"type": "occ",
				"energy": -0.24573,
				"method": "rhf"
			},
			{
				"type": "occ",
				"energy": -0.22425,
				"method": "rhf"
			},
			{
				"type": "occ",
				"energy": -0.20355,
				"method": "rhf"
			},
			{
				"type": "unocc",
				"energy": -0.05224,
				"method": "rhf"
			},
			{
				"type": "unocc",
				"energy": -0.01392,
				"method": "rhf"
			},
			{
				"type": "unocc",
				"energy": 0.00765,
				"method": "rhf"
			},
			{
				"type": "unocc",
				"energy": 0.01561,
				"method": "rhf"
			},
			{
				"type": "unocc",
				"energy": 0.03808,
				"method": "rhf"
			}
		],
		"cosmo_sigma_profile": { 
			"-0.025": 0.0,
			"-0.024": 0.0,
			"-0.023": 0.0,
			"-0.022": 0.0,
			"-0.021": 0.0,
			"-0.02": 0.0,
			"-0.019": 0.0,
			"-0.018": 0.0,
			"-0.017": 0.0,
			"-0.016": 0.0,
			"-0.015": 0.0,
			"-0.014": 0.0,
			"-0.013": 0.0,
			"-0.012": 0.0,
			"-0.011": 0.0,
			"-0.01": 0.0,
			"-0.009": 0.0,
			"-0.008": 0.0976217585288,
			"-0.007": 5.06388328807,
			"-0.006": 18.7546529262,
			"-0.005": 19.6411872506,
			"-0.004": 20.6839185909,
			"-0.003": 15.9107487327,
			"-0.002": 13.8648518961,
			"-0.001": 13.8984792682,
			"0.0": 15.2744762769,
			"0.001": 17.0002461593,
			"0.002": 24.8798762949,
			"0.003": 29.716165739,
			"0.004": 29.2060544209,
			"0.005": 17.5591178147,
			"0.006": 4.47800236382,
			"0.007": 1.44742320238,
			"0.008": 1.44613731751,
			"0.009": 0.871976254302,
			"0.01": 0.0,
			"0.011": 0.0,
			"0.012": 0.0,
			"0.013": 0.0,
			"0.014": 0.0,
			"0.015": 0.0,
			"0.016": 0.0,
			"0.017": 0.0,
			"0.018": 0.0,
			"0.019": 0.0,
			"0.02": 0.0,
			"0.021": 0.0,
			"0.022": 0.0,
			"0.023": 0.0,
			"0.024": 0.0,
			"0.025": 0.0
		}
	}
}
