{
	 "smiles": "[O-][N+](=O)C1=CC(=CC=C1C=CC1=CC=CC(C=CC2=C(C=C(C=C2)C#N)[N+]([O-])=O)=C1)C#N", 
	 "Tm": 571.15, 
	 "num_atms": 46, 
	 "gaussian": { 
		 "optdone": 1, 
		 "sigma_profile": "yes", 
		 "theory": "DFT", 
		 "functional": "B3LYP", 
		 "basiset": "6-31G**", 
		 "properties": { 
			 "R2extent": 13099.3936, 
			 "electric_dipole_moment_norm": 6.48666140476, 
			 "electric_quadrupole_moment_norm": 39.5236974942, 
			 "total_energy": -1442.61307741, 
			 "HOMO_LUMO_gap": 0.12538, 
			 "cosmo_polarized_energy": -24.41, 
			 "cosmo_cavitation_energy": 55.36, 
			 "cosmo_dispersion_energy": -33.29, 
			 "cosmo_repulsion_energy": 2.49, 
			 "cosmo_total_nonelectrostatic_energy": 24.57, 
			 "SMD_solvation_energy": 15.55 
		},
		"coords": [
			{
				"x": -0.5845717343,
				"y": 2.307612696,
				"z": -4.0242598856,
				"element": "O" 
			},
			{
				"x": 0.4611939359,
				"y": 2.6313505839,
				"z": -3.4663844427,
				"element": "N" 
			},
			{
				"x": 0.9274651345,
				"y": 3.7691259516,
				"z": -3.4459131475,
				"element": "O" 
			},
			{
				"x": 1.2341170801,
				"y": 1.570867689,
				"z": -2.7917629403,
				"element": "C" 
			},
			{
				"x": 2.6052374857,
				"y": 1.7827768518,
				"z": -2.68616944,
				"element": "C" 
			},
			{
				"x": 3.4073257713,
				"y": 0.799220176,
				"z": -2.0979665247,
				"element": "C" 
			},
			{
				"x": 2.8153700231,
				"y": -0.3796406678,
				"z": -1.6146835532,
				"element": "C" 
			},
			{
				"x": 1.4385989378,
				"y": -0.5536008061,
				"z": -1.7188413338,
				"element": "C" 
			},
			{
				"x": 0.6010026736,
				"y": 0.4152727439,
				"z": -2.2981282928,
				"element": "C" 
			},
			{
				"x": -0.8668714457,
				"y": 0.1763216682,
				"z": -2.3918788398,
				"element": "C" 
			},
			{
				"x": -1.8072938712,
				"y": 0.4459936108,
				"z": -1.4710626326,
				"element": "C" 
			},
			{
				"x": -1.6818576333,
				"y": 1.0845504959,
				"z": -0.1445173239,
				"element": "C" 
			},
			{
				"x": -2.6975225588,
				"y": 1.9625576716,
				"z": 0.2765269261,
				"element": "C" 
			},
			{
				"x": -2.6018176624,
				"y": 2.6319005453,
				"z": 1.4956012128,
				"element": "C" 
			},
			{
				"x": -1.5084996508,
				"y": 2.4170864595,
				"z": 2.3335201875,
				"element": "C" 
			},
			{
				"x": -0.5122905469,
				"y": 1.4963225188,
				"z": 1.9690565396,
				"element": "C" 
			},
			{
				"x": 0.6407318399,
				"y": 1.2428030993,
				"z": 2.8571066666,
				"element": "C" 
			},
			{
				"x": 1.1988768781,
				"y": 0.0516688591,
				"z": 3.1402700645,
				"element": "C" 
			},
			{
				"x": 0.6095691172,
				"y": -1.269679687,
				"z": 2.8209374149,
				"element": "C" 
			},
			{
				"x": 1.2514179012,
				"y": -2.3069541795,
				"z": 2.1131620717,
				"element": "C" 
			},
			{
				"x": 0.6694595846,
				"y": -3.5575467957,
				"z": 1.910849703,
				"element": "C" 
			},
			{
				"x": -0.599536255,
				"y": -3.816746057,
				"z": 2.4333556769,
				"element": "C" 
			},
			{
				"x": -1.279818989,
				"y": -2.798842709,
				"z": 3.1274921929,
				"element": "C" 
			},
			{
				"x": -0.6817640814,
				"y": -1.5605888625,
				"z": 3.3061640577,
				"element": "C" 
			},
			{
				"x": -1.2051683958,
				"y": -5.1035402392,
				"z": 2.2526291017,
				"element": "C" 
			},
			{
				"x": -1.7040453304,
				"y": -6.1440707117,
				"z": 2.1091691415,
				"element": "N" 
			},
			{
				"x": 2.5537682066,
				"y": -2.0857024693,
				"z": 1.4681009399,
				"element": "N" 
			},
			{
				"x": 2.8726618408,
				"y": -2.8580445015,
				"z": 0.5581470393,
				"element": "O" 
			},
			{
				"x": 3.2391954447,
				"y": -1.1377372489,
				"z": 1.842239444,
				"element": "O" 
			},
			{
				"x": -0.6071470784,
				"y": 0.853482848,
				"z": 0.7253875632,
				"element": "C" 
			},
			{
				"x": 4.824139996,
				"y": 0.9990697872,
				"z": -1.9958120569,
				"element": "C" 
			},
			{
				"x": 5.9725828166,
				"y": 1.1622924204,
				"z": -1.9167634835,
				"element": "N" 
			},
			{
				"x": 3.029199496,
				"y": 2.7054990036,
				"z": -3.0613832592,
				"element": "H" 
			},
			{
				"x": 3.4243088128,
				"y": -1.143710981,
				"z": -1.1434187895,
				"element": "H" 
			},
			{
				"x": 0.9917141391,
				"y": -1.4666263962,
				"z": -1.3388892049,
				"element": "H" 
			},
			{
				"x": -1.2001703666,
				"y": -0.2362674884,
				"z": -3.3412295542,
				"element": "H" 
			},
			{
				"x": -2.8331489695,
				"y": 0.2341650281,
				"z": -1.7692726705,
				"element": "H" 
			},
			{
				"x": -3.5485712522,
				"y": 2.1433557429,
				"z": -0.3743609676,
				"element": "H" 
			},
			{
				"x": -3.3819502462,
				"y": 3.3268978135,
				"z": 1.7917797591,
				"element": "H" 
			},
			{
				"x": -1.4357179839,
				"y": 2.9429411116,
				"z": 3.2816719074,
				"element": "H" 
			},
			{
				"x": 1.1098310283,
				"y": 2.1248621552,
				"z": 3.2909666087,
				"element": "H" 
			},
			{
				"x": 2.1258959501,
				"y": 0.0330521886,
				"z": 3.7038899944,
				"element": "H" 
			},
			{
				"x": 1.2067259098,
				"y": -4.3064766783,
				"z": 1.3437184972,
				"element": "H" 
			},
			{
				"x": -2.2697055046,
				"y": -2.9911842006,
				"z": 3.5270977001,
				"element": "H" 
			},
			{
				"x": -1.2076052488,
				"y": -0.7841482132,
				"z": 3.84964629,
				"element": "H" 
			},
			{
				"x": 0.1818848015,
				"y": 0.1742591731,
				"z": 0.4321116421,
				"element": "H" 
			}
		],
		 "valence_orbital": [ 
			{
				"type": "occ",
				"energy": -0.29272,
				"method": "rhf"
			},
			{
				"type": "occ",
				"energy": -0.29152,
				"method": "rhf"
			},
			{
				"type": "occ",
				"energy": -0.28193,
				"method": "rhf"
			},
			{
				"type": "occ",
				"energy": -0.25559,
				"method": "rhf"
			},
			{
				"type": "occ",
				"energy": -0.24544,
				"method": "rhf"
			},
			{
				"type": "unocc",
				"energy": -0.12006,
				"method": "rhf"
			},
			{
				"type": "unocc",
				"energy": -0.10067,
				"method": "rhf"
			},
			{
				"type": "unocc",
				"energy": -0.08409,
				"method": "rhf"
			},
			{
				"type": "unocc",
				"energy": -0.06961,
				"method": "rhf"
			},
			{
				"type": "unocc",
				"energy": -0.05153,
				"method": "rhf"
			}
		],
		"cosmo_sigma_profile": { 
			"-0.025": 0.0,
			"-0.024": 0.0,
			"-0.023": 0.0,
			"-0.022": 0.0,
			"-0.021": 0.0,
			"-0.02": 0.0,
			"-0.019": 0.0,
			"-0.018": 0.0,
			"-0.017": 0.0,
			"-0.016": 0.0,
			"-0.015": 0.0,
			"-0.014": 0.0,
			"-0.013": 0.0,
			"-0.012": 0.0,
			"-0.011": 0.0,
			"-0.01": 1.23091103613,
			"-0.009": 5.32406734799,
			"-0.008": 9.95571606488,
			"-0.007": 16.1072203423,
			"-0.006": 31.2499275705,
			"-0.005": 31.0431949932,
			"-0.004": 30.7181174133,
			"-0.003": 35.7492063504,
			"-0.002": 43.8270867613,
			"-0.001": 34.459389646,
			"0.0": 27.5644978429,
			"0.001": 21.1774008776,
			"0.002": 23.0272981799,
			"0.003": 19.275422082,
			"0.004": 19.8634368044,
			"0.005": 17.4037322892,
			"0.006": 15.3190324581,
			"0.007": 22.1350501353,
			"0.008": 15.4483257316,
			"0.009": 11.0444997206,
			"0.01": 6.60186039649,
			"0.011": 5.07533107737,
			"0.012": 4.34392919236,
			"0.013": 0.763057481287,
			"0.014": 0.0,
			"0.015": 0.0,
			"0.016": 0.0,
			"0.017": 0.0,
			"0.018": 0.0,
			"0.019": 0.0,
			"0.02": 0.0,
			"0.021": 0.0,
			"0.022": 0.0,
			"0.023": 0.0,
			"0.024": 0.0,
			"0.025": 0.0
		}
	}
}
