{
	 "smiles": "COC1=CC=C(C=C1)C1CCCCC(O)C1", 
	 "Tm": 323.15, 
	 "num_atms": 36, 
	 "gaussian": { 
		 "optdone": 1, 
		 "sigma_profile": "yes", 
		 "theory": "DFT", 
		 "functional": "B3LYP", 
		 "basiset": "6-31G**", 
		 "properties": { 
			 "R2extent": 5899.2777, 
			 "electric_dipole_moment_norm": 2.64572815308, 
			 "electric_quadrupole_moment_norm": 11.5782758548, 
			 "total_energy": -695.983213459, 
			 "HOMO_LUMO_gap": 0.21091, 
			 "cosmo_polarized_energy": -10.47, 
			 "cosmo_cavitation_energy": 36.17, 
			 "cosmo_dispersion_energy": -26.03, 
			 "cosmo_repulsion_energy": 2.03, 
			 "cosmo_total_nonelectrostatic_energy": 12.17, 
			 "SMD_solvation_energy": 5.81 
		},
		"coords": [
			{
				"x": -0.4844281634,
				"y": -2.490404364,
				"z": -5.8618076899,
				"element": "C" 
			},
			{
				"x": -1.2649159494,
				"y": -2.9139855518,
				"z": -4.7572690577,
				"element": "O" 
			},
			{
				"x": -0.955168764,
				"y": -2.4190239366,
				"z": -3.5211721784,
				"element": "C" 
			},
			{
				"x": 0.0829816053,
				"y": -1.5177162637,
				"z": -3.2591528197,
				"element": "C" 
			},
			{
				"x": 0.3047693269,
				"y": -1.0805989681,
				"z": -1.9502182128,
				"element": "C" 
			},
			{
				"x": -0.4824379664,
				"y": -1.519068431,
				"z": -0.8797838172,
				"element": "C" 
			},
			{
				"x": -1.51680309,
				"y": -2.4229430698,
				"z": -1.1688334278,
				"element": "C" 
			},
			{
				"x": -1.7561938691,
				"y": -2.8694661527,
				"z": -2.4633641683,
				"element": "C" 
			},
			{
				"x": -0.2378059794,
				"y": -1.0415445556,
				"z": 0.5463204154,
				"element": "C" 
			},
			{
				"x": 1.1833408825,
				"y": -1.4146166721,
				"z": 1.0362558275,
				"element": "C" 
			},
			{
				"x": 1.3667725533,
				"y": -1.2962948383,
				"z": 2.5607633139,
				"element": "C" 
			},
			{
				"x": 1.7503435458,
				"y": 0.0962379243,
				"z": 3.0997267481,
				"element": "C" 
			},
			{
				"x": 1.0608973384,
				"y": 1.3091231893,
				"z": 2.441790324,
				"element": "C" 
			},
			{
				"x": -0.4148324893,
				"y": 1.1289300668,
				"z": 2.0449308845,
				"element": "C" 
			},
			{
				"x": -1.0867237991,
				"y": 2.3941581049,
				"z": 2.0404763259,
				"element": "O" 
			},
			{
				"x": -0.5980008594,
				"y": 0.4565949435,
				"z": 0.6733832994,
				"element": "C" 
			},
			{
				"x": 0.5706929831,
				"y": -2.7717534196,
				"z": -5.7464374168,
				"element": "H" 
			},
			{
				"x": -0.5488859338,
				"y": -1.4047678403,
				"z": -6.013344353,
				"element": "H" 
			},
			{
				"x": -0.8959741563,
				"y": -2.9980913633,
				"z": -6.735778927,
				"element": "H" 
			},
			{
				"x": 0.7199489018,
				"y": -1.152266303,
				"z": -4.0562400161,
				"element": "H" 
			},
			{
				"x": 1.1173392092,
				"y": -0.3807607669,
				"z": -1.7717967204,
				"element": "H" 
			},
			{
				"x": -2.1486743638,
				"y": -2.7849171876,
				"z": -0.3610489841,
				"element": "H" 
			},
			{
				"x": -2.5575221135,
				"y": -3.5685069077,
				"z": -2.6803523722,
				"element": "H" 
			},
			{
				"x": -0.9374477758,
				"y": -1.5951162852,
				"z": 1.1891316067,
				"element": "H" 
			},
			{
				"x": 1.9398648651,
				"y": -0.8155000587,
				"z": 0.511132548,
				"element": "H" 
			},
			{
				"x": 1.3665248359,
				"y": -2.4536176324,
				"z": 0.7394310276,
				"element": "H" 
			},
			{
				"x": 0.4393773781,
				"y": -1.6333079753,
				"z": 3.0431597669,
				"element": "H" 
			},
			{
				"x": 2.1369965406,
				"y": -2.005626398,
				"z": 2.8868545268,
				"element": "H" 
			},
			{
				"x": 2.834788106,
				"y": 0.2324542056,
				"z": 3.0036421794,
				"element": "H" 
			},
			{
				"x": 1.5441441431,
				"y": 0.1093675565,
				"z": 4.1772235017,
				"element": "H" 
			},
			{
				"x": 1.1087040803,
				"y": 2.1566468192,
				"z": 3.1342553496,
				"element": "H" 
			},
			{
				"x": 1.6193388565,
				"y": 1.6136701767,
				"z": 1.5446508479,
				"element": "H" 
			},
			{
				"x": -0.939555937,
				"y": 0.5516596821,
				"z": 2.8170434137,
				"element": "H" 
			},
			{
				"x": -0.6711622313,
				"y": 2.9367623923,
				"z": 1.3558986805,
				"element": "H" 
			},
			{
				"x": -1.6479228424,
				"y": 0.5814463658,
				"z": 0.386056215,
				"element": "H" 
			},
			{
				"x": -0.0083688686,
				"y": 1.0289435148,
				"z": -0.059526641,
				"element": "H" 
			}
		],
		 "valence_orbital": [ 
			{
				"type": "occ",
				"energy": -0.30175,
				"method": "rhf"
			},
			{
				"type": "occ",
				"energy": -0.29815,
				"method": "rhf"
			},
			{
				"type": "occ",
				"energy": -0.25718,
				"method": "rhf"
			},
			{
				"type": "occ",
				"energy": -0.24657,
				"method": "rhf"
			},
			{
				"type": "occ",
				"energy": -0.20986,
				"method": "rhf"
			},
			{
				"type": "unocc",
				"energy": 0.00105,
				"method": "rhf"
			},
			{
				"type": "unocc",
				"energy": 0.01743,
				"method": "rhf"
			},
			{
				"type": "unocc",
				"energy": 0.07936,
				"method": "rhf"
			},
			{
				"type": "unocc",
				"energy": 0.0838,
				"method": "rhf"
			},
			{
				"type": "unocc",
				"energy": 0.0927,
				"method": "rhf"
			}
		],
		"cosmo_sigma_profile": { 
			"-0.025": 0.0,
			"-0.024": 0.0,
			"-0.023": 0.0,
			"-0.022": 0.0,
			"-0.021": 0.0,
			"-0.02": 0.0,
			"-0.019": 0.0,
			"-0.018": 0.0,
			"-0.017": 0.0,
			"-0.016": 0.0,
			"-0.015": 0.152464589142,
			"-0.014": 0.743874096048,
			"-0.013": 1.29096697274,
			"-0.012": 0.432451825194,
			"-0.011": 0.890815214251,
			"-0.01": 0.975020995243,
			"-0.009": 0.671468682334,
			"-0.008": 1.03074896129,
			"-0.007": 1.31482518481,
			"-0.006": 4.91661425649,
			"-0.005": 15.5628625861,
			"-0.004": 20.5255135939,
			"-0.003": 29.8838887228,
			"-0.002": 37.7391385546,
			"-0.001": 33.6831544981,
			"0.0": 30.0521793137,
			"0.001": 23.1618349386,
			"0.002": 11.4158811258,
			"0.003": 10.7499842158,
			"0.004": 11.5642114588,
			"0.005": 11.5333098113,
			"0.006": 11.4308493334,
			"0.007": 4.28119133707,
			"0.008": 2.86142460626,
			"0.009": 2.35752430087,
			"0.01": 2.95125702702,
			"0.011": 1.73997148359,
			"0.012": 1.49223650286,
			"0.013": 1.39226268313,
			"0.014": 1.79538895512,
			"0.015": 2.08100829334,
			"0.016": 0.00792695839204,
			"0.017": 0.0,
			"0.018": 0.0,
			"0.019": 0.0,
			"0.02": 0.0,
			"0.021": 0.0,
			"0.022": 0.0,
			"0.023": 0.0,
			"0.024": 0.0,
			"0.025": 0.0
		}
	}
}
