{
	 "smiles": "CCCCCCC=CCCCCCCCC(O)=O", 
	 "Tm": 273.35, 
	 "num_atms": 48, 
	 "gaussian": { 
		 "optdone": 1, 
		 "sigma_profile": "yes", 
		 "theory": "DFT", 
		 "functional": "B3LYP", 
		 "basiset": "6-31G**", 
		 "properties": { 
			 "R2extent": 12032.2787, 
			 "electric_dipole_moment_norm": 1.45650065568, 
			 "electric_quadrupole_moment_norm": 8.12485356914, 
			 "total_energy": -778.262167799, 
			 "HOMO_LUMO_gap": 0.23928, 
			 "cosmo_polarized_energy": -8.75, 
			 "cosmo_cavitation_energy": 47.98, 
			 "cosmo_dispersion_energy": -32.43, 
			 "cosmo_repulsion_energy": 2.63, 
			 "cosmo_total_nonelectrostatic_energy": 18.17, 
			 "SMD_solvation_energy": 7.58 
		},
		"coords": [
			{
				"x": -0.7157092348,
				"y": 5.8341578453,
				"z": -2.0456944739,
				"element": "C" 
			},
			{
				"x": -1.327045431,
				"y": 5.7744210583,
				"z": -3.4502601695,
				"element": "C" 
			},
			{
				"x": -2.5163697833,
				"y": 4.8122864433,
				"z": -3.6243169296,
				"element": "C" 
			},
			{
				"x": -2.2109488947,
				"y": 3.3153488228,
				"z": -3.3906063216,
				"element": "C" 
			},
			{
				"x": -2.4715181869,
				"y": 2.8204755807,
				"z": -1.9588643109,
				"element": "C" 
			},
			{
				"x": -2.1991187715,
				"y": 1.3137064764,
				"z": -1.7466366917,
				"element": "C" 
			},
			{
				"x": -0.7556744273,
				"y": 0.9180188418,
				"z": -1.9301734196,
				"element": "C" 
			},
			{
				"x": 0.1191376336,
				"y": 0.5514998732,
				"z": -0.983420812,
				"element": "C" 
			},
			{
				"x": -0.1253891269,
				"y": 0.4226616269,
				"z": 0.4983123402,
				"element": "C" 
			},
			{
				"x": -0.1027470279,
				"y": -1.0328446892,
				"z": 1.0181915758,
				"element": "C" 
			},
			{
				"x": 1.2456337874,
				"y": -1.7481041982,
				"z": 0.8576976463,
				"element": "C" 
			},
			{
				"x": 1.2352679423,
				"y": -3.1655037275,
				"z": 1.4470307925,
				"element": "C" 
			},
			{
				"x": 2.5401149444,
				"y": -3.9558855883,
				"z": 1.2467959608,
				"element": "C" 
			},
			{
				"x": 3.7885143332,
				"y": -3.4343775821,
				"z": 1.9824423369,
				"element": "C" 
			},
			{
				"x": 3.6978653043,
				"y": -3.4899629599,
				"z": 3.5161707714,
				"element": "C" 
			},
			{
				"x": 3.0016433929,
				"y": -2.2980687882,
				"z": 4.1389816631,
				"element": "C" 
			},
			{
				"x": 2.3890665326,
				"y": -2.621489975,
				"z": 5.3042277495,
				"element": "O" 
			},
			{
				"x": 3.0048807109,
				"y": -1.1653662408,
				"z": 3.7047760699,
				"element": "O" 
			},
			{
				"x": -0.2607273683,
				"y": 4.8812486309,
				"z": -1.758016618,
				"element": "H" 
			},
			{
				"x": -1.4717722687,
				"y": 6.0838785657,
				"z": -1.2921131307,
				"element": "H" 
			},
			{
				"x": 0.0676974175,
				"y": 6.5980682261,
				"z": -1.994172304,
				"element": "H" 
			},
			{
				"x": -0.5441328391,
				"y": 5.499982634,
				"z": -4.1708875183,
				"element": "H" 
			},
			{
				"x": -1.6573911199,
				"y": 6.7819298067,
				"z": -3.735773982,
				"element": "H" 
			},
			{
				"x": -2.8936051956,
				"y": 4.939748679,
				"z": -4.6468373936,
				"element": "H" 
			},
			{
				"x": -3.3378628724,
				"y": 5.1241028545,
				"z": -2.9633260044,
				"element": "H" 
			},
			{
				"x": -1.1700692207,
				"y": 3.1122598301,
				"z": -3.6752641934,
				"element": "H" 
			},
			{
				"x": -2.8291720191,
				"y": 2.7136219117,
				"z": -4.0708112419,
				"element": "H" 
			},
			{
				"x": -1.8701493713,
				"y": 3.39103224,
				"z": -1.2424089914,
				"element": "H" 
			},
			{
				"x": -3.5222851437,
				"y": 3.0213709845,
				"z": -1.708084961,
				"element": "H" 
			},
			{
				"x": -2.8153718934,
				"y": 0.7447661277,
				"z": -2.4586080783,
				"element": "H" 
			},
			{
				"x": -2.5488349923,
				"y": 1.0315121803,
				"z": -0.7483187453,
				"element": "H" 
			},
			{
				"x": -0.3913902553,
				"y": 0.9487062403,
				"z": -2.9570669065,
				"element": "H" 
			},
			{
				"x": 1.1297415711,
				"y": 0.3064850339,
				"z": -1.3100822242,
				"element": "H" 
			},
			{
				"x": -1.0835381016,
				"y": 0.8779018042,
				"z": 0.7693270594,
				"element": "H" 
			},
			{
				"x": 0.64732487,
				"y": 0.9921894659,
				"z": 1.0347881847,
				"element": "H" 
			},
			{
				"x": -0.8877145032,
				"y": -1.6064968922,
				"z": 0.5069145671,
				"element": "H" 
			},
			{
				"x": -0.3704870754,
				"y": -1.0204856646,
				"z": 2.0836788012,
				"element": "H" 
			},
			{
				"x": 2.024778543,
				"y": -1.1508191053,
				"z": 1.345378268,
				"element": "H" 
			},
			{
				"x": 1.5089299427,
				"y": -1.8104134908,
				"z": -0.2068493773,
				"element": "H" 
			},
			{
				"x": 0.9837527833,
				"y": -3.1166126078,
				"z": 2.5160289358,
				"element": "H" 
			},
			{
				"x": 0.419190738,
				"y": -3.736029088,
				"z": 0.9826375192,
				"element": "H" 
			},
			{
				"x": 2.7665051415,
				"y": -3.9908346856,
				"z": 0.1725309354,
				"element": "H" 
			},
			{
				"x": 2.3714030697,
				"y": -4.9980483043,
				"z": 1.5519814036,
				"element": "H" 
			},
			{
				"x": 4.6438620654,
				"y": -4.0445646237,
				"z": 1.6703033574,
				"element": "H" 
			},
			{
				"x": 4.0157542552,
				"y": -2.4053893167,
				"z": 1.6852574992,
				"element": "H" 
			},
			{
				"x": 4.708499044,
				"y": -3.4910759079,
				"z": 3.9470584874,
				"element": "H" 
			},
			{
				"x": 3.2173308843,
				"y": -4.409719438,
				"z": 3.8645532809,
				"element": "H" 
			},
			{
				"x": 2.0167302172,
				"y": -1.7927889104,
				"z": 5.6509295933,
				"element": "H" 
			}
		],
		 "valence_orbital": [ 
			{
				"type": "occ",
				"energy": -0.30476,
				"method": "rhf"
			},
			{
				"type": "occ",
				"energy": -0.30249,
				"method": "rhf"
			},
			{
				"type": "occ",
				"energy": -0.29501,
				"method": "rhf"
			},
			{
				"type": "occ",
				"energy": -0.27541,
				"method": "rhf"
			},
			{
				"type": "occ",
				"energy": -0.23101,
				"method": "rhf"
			},
			{
				"type": "unocc",
				"energy": 0.00827,
				"method": "rhf"
			},
			{
				"type": "unocc",
				"energy": 0.02867,
				"method": "rhf"
			},
			{
				"type": "unocc",
				"energy": 0.07443,
				"method": "rhf"
			},
			{
				"type": "unocc",
				"energy": 0.0906,
				"method": "rhf"
			},
			{
				"type": "unocc",
				"energy": 0.09511,
				"method": "rhf"
			}
		],
		"cosmo_sigma_profile": { 
			"-0.025": 0.0,
			"-0.024": 0.0,
			"-0.023": 0.0,
			"-0.022": 0.0,
			"-0.021": 0.0,
			"-0.02": 0.0,
			"-0.019": 0.0,
			"-0.018": 0.3478524217,
			"-0.017": 0.871715467012,
			"-0.016": 1.18929633471,
			"-0.015": 0.66043004958,
			"-0.014": 0.379175803115,
			"-0.013": 0.911539802099,
			"-0.012": 0.599554708646,
			"-0.011": 0.479413942987,
			"-0.01": 1.29085461655,
			"-0.009": 0.381911182721,
			"-0.008": 0.706623383324,
			"-0.007": 1.30389115882,
			"-0.006": 3.73702601553,
			"-0.005": 3.93871464674,
			"-0.004": 6.49540341457,
			"-0.003": 19.5465231375,
			"-0.002": 52.0475947468,
			"-0.001": 72.7760990704,
			"0.0": 73.6910462879,
			"0.001": 57.1045637635,
			"0.002": 24.0977555632,
			"0.003": 7.69469821658,
			"0.004": 6.92534755347,
			"0.005": 5.39765923,
			"0.006": 5.69496503375,
			"0.007": 5.43652287485,
			"0.008": 2.8404281993,
			"0.009": 3.21597517255,
			"0.01": 2.68287943026,
			"0.011": 2.56171093693,
			"0.012": 3.29560772498,
			"0.013": 0.852115196881,
			"0.014": 0.0,
			"0.015": 0.0,
			"0.016": 0.0,
			"0.017": 0.0,
			"0.018": 0.0,
			"0.019": 0.0,
			"0.02": 0.0,
			"0.021": 0.0,
			"0.022": 0.0,
			"0.023": 0.0,
			"0.024": 0.0,
			"0.025": 0.0
		}
	}
}
