{
	 "smiles": "NC1=CC=C(Cl)N=N1", 
	 "Tm": 483.15, 
	 "num_atms": 12, 
	 "gaussian": { 
		 "optdone": 1, 
		 "sigma_profile": "yes", 
		 "theory": "DFT", 
		 "functional": "B3LYP", 
		 "basiset": "6-31G**", 
		 "properties": { 
			 "R2extent": 1345.3245, 
			 "electric_dipole_moment_norm": 5.38403177832, 
			 "electric_quadrupole_moment_norm": 9.28731162878, 
			 "total_energy": -779.245214512, 
			 "HOMO_LUMO_gap": 0.17981, 
			 "cosmo_polarized_energy": -14.98, 
			 "cosmo_cavitation_energy": 18.43, 
			 "cosmo_dispersion_energy": -14.22, 
			 "cosmo_repulsion_energy": 1.2, 
			 "cosmo_total_nonelectrostatic_energy": 5.41, 
			 "SMD_solvation_energy": 1.29 
		},
		"coords": [
			{
				"x": 2.1094559785,
				"y": 1.4401683378,
				"z": 1.1614983238,
				"element": "N" 
			},
			{
				"x": 1.3382693293,
				"y": 0.5187850175,
				"z": 0.491210551,
				"element": "C" 
			},
			{
				"x": 1.0256844582,
				"y": 0.6637013708,
				"z": -0.8810622405,
				"element": "C" 
			},
			{
				"x": 0.2029356871,
				"y": -0.2824274686,
				"z": -1.4448967874,
				"element": "C" 
			},
			{
				"x": -0.257443949,
				"y": -1.3050200953,
				"z": -0.5976791826,
				"element": "C" 
			},
			{
				"x": -1.3156826362,
				"y": -2.5463044457,
				"z": -1.2460009064,
				"element": "Cl" 
			},
			{
				"x": 0.0589973862,
				"y": -1.4049046096,
				"z": 0.6776043866,
				"element": "N" 
			},
			{
				"x": 0.8666369629,
				"y": -0.4976424067,
				"z": 1.2305957263,
				"element": "N" 
			},
			{
				"x": 2.4134271978,
				"y": 1.1371702753,
				"z": 2.0768297947,
				"element": "H" 
			},
			{
				"x": 2.7910102775,
				"y": 1.9608584067,
				"z": 0.6309531596,
				"element": "H" 
			},
			{
				"x": 1.4172629499,
				"y": 1.4947644163,
				"z": -1.4601385462,
				"element": "H" 
			},
			{
				"x": -0.0861536423,
				"y": -0.2496487983,
				"z": -2.4890142787,
				"element": "H" 
			}
		],
		 "valence_orbital": [ 
			{
				"type": "occ",
				"energy": -0.32437,
				"method": "rhf"
			},
			{
				"type": "occ",
				"energy": -0.31382,
				"method": "rhf"
			},
			{
				"type": "occ",
				"energy": -0.30562,
				"method": "rhf"
			},
			{
				"type": "occ",
				"energy": -0.2415,
				"method": "rhf"
			},
			{
				"type": "occ",
				"energy": -0.23559,
				"method": "rhf"
			},
			{
				"type": "unocc",
				"energy": -0.05578,
				"method": "rhf"
			},
			{
				"type": "unocc",
				"energy": -0.01556,
				"method": "rhf"
			},
			{
				"type": "unocc",
				"energy": 0.03,
				"method": "rhf"
			},
			{
				"type": "unocc",
				"energy": 0.07273,
				"method": "rhf"
			},
			{
				"type": "unocc",
				"energy": 0.09949,
				"method": "rhf"
			}
		],
		"cosmo_sigma_profile": { 
			"-0.025": 0.0,
			"-0.024": 0.0,
			"-0.023": 0.0,
			"-0.022": 0.0,
			"-0.021": 0.0,
			"-0.02": 0.0,
			"-0.019": 0.0,
			"-0.018": 0.0,
			"-0.017": 0.0,
			"-0.016": 0.0,
			"-0.015": 0.0758448651643,
			"-0.014": 1.71523567144,
			"-0.013": 2.84690850081,
			"-0.012": 2.59920559443,
			"-0.011": 2.96543134148,
			"-0.01": 3.29205257675,
			"-0.009": 5.90528271771,
			"-0.008": 5.13372773609,
			"-0.007": 5.57679558743,
			"-0.006": 3.74131540802,
			"-0.005": 4.80059278152,
			"-0.004": 3.19391913048,
			"-0.003": 5.27534345875,
			"-0.002": 9.52018773023,
			"-0.001": 13.2711893516,
			"0.0": 11.9069760663,
			"0.001": 8.15212870819,
			"0.002": 6.58862771678,
			"0.003": 8.39124020169,
			"0.004": 11.8594027677,
			"0.005": 6.91138344553,
			"0.006": 3.03045028903,
			"0.007": 3.1490193521,
			"0.008": 3.18064865623,
			"0.009": 2.74112047075,
			"0.01": 2.4377432466,
			"0.011": 2.43524988318,
			"0.012": 2.44471743231,
			"0.013": 3.03483539219,
			"0.014": 2.07587932118,
			"0.015": 1.85703387423,
			"0.016": 0.0527927530519,
			"0.017": 0.0,
			"0.018": 0.0,
			"0.019": 0.0,
			"0.02": 0.0,
			"0.021": 0.0,
			"0.022": 0.0,
			"0.023": 0.0,
			"0.024": 0.0,
			"0.025": 0.0
		}
	}
}
