{
	 "smiles": "OCNC(=O)NS(=O)(=O)C1=CC=C(NC(=O)C2=C(C=CC=C2)C(O)=O)C=C1", 
	 "Tm": 435.15, 
	 "num_atms": 42, 
	 "gaussian": { 
		 "optdone": 1, 
		 "sigma_profile": "yes", 
		 "theory": "DFT", 
		 "functional": "B3LYP", 
		 "basiset": "6-31G**", 
		 "properties": { 
			 "R2extent": 17293.5259, 
			 "electric_dipole_moment_norm": 6.0563661605, 
			 "electric_quadrupole_moment_norm": 21.6673738159, 
			 "total_energy": -1707.73183229, 
			 "HOMO_LUMO_gap": 0.17985, 
			 "cosmo_polarized_energy": -31.94, 
			 "cosmo_cavitation_energy": 49.29, 
			 "cosmo_dispersion_energy": -34.83, 
			 "cosmo_repulsion_energy": 2.58, 
			 "cosmo_total_nonelectrostatic_energy": 17.03, 
			 "SMD_solvation_energy": 9.1 
		},
		"coords": [
			{
				"x": -2.2329515615,
				"y": -3.9605910518,
				"z": 0.8150031988,
				"element": "O" 
			},
			{
				"x": -1.6624811339,
				"y": -5.231225031,
				"z": 1.0446959347,
				"element": "C" 
			},
			{
				"x": -0.2434598446,
				"y": -5.1661738504,
				"z": 1.3577034349,
				"element": "N" 
			},
			{
				"x": 0.1254600234,
				"y": -4.4550013263,
				"z": 2.454772079,
				"element": "C" 
			},
			{
				"x": -0.6548152741,
				"y": -4.0834776109,
				"z": 3.3249999157,
				"element": "O" 
			},
			{
				"x": 1.5115769795,
				"y": -4.1699241977,
				"z": 2.5814473036,
				"element": "N" 
			},
			{
				"x": 2.5784605046,
				"y": -3.7500033886,
				"z": 1.3186319477,
				"element": "S" 
			},
			{
				"x": 3.8997951309,
				"y": -3.6906818487,
				"z": 1.9339265809,
				"element": "O" 
			},
			{
				"x": 2.2774648866,
				"y": -4.6729767676,
				"z": 0.2172418343,
				"element": "O" 
			},
			{
				"x": 2.1120948131,
				"y": -2.0965835438,
				"z": 0.8247320479,
				"element": "C" 
			},
			{
				"x": 0.8514731647,
				"y": -1.8529723203,
				"z": 0.2644856906,
				"element": "C" 
			},
			{
				"x": 0.5266906261,
				"y": -0.5603456102,
				"z": -0.1185731333,
				"element": "C" 
			},
			{
				"x": 1.4468261257,
				"y": 0.4939362221,
				"z": 0.0388450699,
				"element": "C" 
			},
			{
				"x": 1.0423751134,
				"y": 1.7673893412,
				"z": -0.3882743975,
				"element": "N" 
			},
			{
				"x": 1.7175265273,
				"y": 2.9704338884,
				"z": -0.2806455852,
				"element": "C" 
			},
			{
				"x": 2.8252757197,
				"y": 3.0989943166,
				"z": 0.2133003951,
				"element": "O" 
			},
			{
				"x": 0.9796889053,
				"y": 4.1289941026,
				"z": -0.9112157618,
				"element": "C" 
			},
			{
				"x": 0.7069155826,
				"y": 5.3191759633,
				"z": -0.2069263146,
				"element": "C" 
			},
			{
				"x": 0.184171766,
				"y": 6.4223877419,
				"z": -0.8905332609,
				"element": "C" 
			},
			{
				"x": -0.0948892898,
				"y": 6.3507650462,
				"z": -2.2541189014,
				"element": "C" 
			},
			{
				"x": 0.1539258879,
				"y": 5.1680373956,
				"z": -2.9494636454,
				"element": "C" 
			},
			{
				"x": 0.6923123664,
				"y": 4.0671542687,
				"z": -2.2803638787,
				"element": "C" 
			},
			{
				"x": 0.9004947383,
				"y": 5.4839031849,
				"z": 1.2662060758,
				"element": "C" 
			},
			{
				"x": 0.7868143717,
				"y": 4.3218670181,
				"z": 1.9474246292,
				"element": "O" 
			},
			{
				"x": 1.0795562391,
				"y": 6.5510170223,
				"z": 1.8144369961,
				"element": "O" 
			},
			{
				"x": 2.7086540217,
				"y": 0.2359615025,
				"z": 0.600154792,
				"element": "C" 
			},
			{
				"x": 3.0321397761,
				"y": -1.0606781313,
				"z": 0.9924107221,
				"element": "C" 
			},
			{
				"x": -2.2662631606,
				"y": -3.5311023524,
				"z": 1.6835745371,
				"element": "H" 
			},
			{
				"x": -2.1749298531,
				"y": -5.7492207559,
				"z": 1.8624402555,
				"element": "H" 
			},
			{
				"x": -1.7722739602,
				"y": -5.8088530208,
				"z": 0.1254912111,
				"element": "H" 
			},
			{
				"x": 0.4544891184,
				"y": -5.3416983712,
				"z": 0.6422744466,
				"element": "H" 
			},
			{
				"x": 1.7058587226,
				"y": -3.6591688385,
				"z": 3.4381789692,
				"element": "H" 
			},
			{
				"x": 0.1177967678,
				"y": -2.643480657,
				"z": 0.1415814924,
				"element": "H" 
			},
			{
				"x": -0.4523324703,
				"y": -0.3633451567,
				"z": -0.5479709341,
				"element": "H" 
			},
			{
				"x": 0.1025116974,
				"y": 1.8275346455,
				"z": -0.7548256086,
				"element": "H" 
			},
			{
				"x": -0.0055426466,
				"y": 7.3297424704,
				"z": -0.3272673645,
				"element": "H" 
			},
			{
				"x": -0.5048043505,
				"y": 7.2137496122,
				"z": -2.7695271405,
				"element": "H" 
			},
			{
				"x": -0.0557004277,
				"y": 5.1027013653,
				"z": -4.0129075668,
				"element": "H" 
			},
			{
				"x": 0.9252883395,
				"y": 3.1614750595,
				"z": -2.8332881663,
				"element": "H" 
			},
			{
				"x": 0.9620850824,
				"y": 4.5331274865,
				"z": 2.8795822033,
				"element": "H" 
			},
			{
				"x": 3.4120383187,
				"y": 1.0463527536,
				"z": 0.7250476989,
				"element": "H" 
			},
			{
				"x": 4.002882656,
				"y": -1.2735965764,
				"z": 1.4259121972,
				"element": "H" 
			}
		],
		 "valence_orbital": [ 
			{
				"type": "occ",
				"energy": -0.2806,
				"method": "rhf"
			},
			{
				"type": "occ",
				"energy": -0.27773,
				"method": "rhf"
			},
			{
				"type": "occ",
				"energy": -0.27634,
				"method": "rhf"
			},
			{
				"type": "occ",
				"energy": -0.2696,
				"method": "rhf"
			},
			{
				"type": "occ",
				"energy": -0.24871,
				"method": "rhf"
			},
			{
				"type": "unocc",
				"energy": -0.06886,
				"method": "rhf"
			},
			{
				"type": "unocc",
				"energy": -0.05412,
				"method": "rhf"
			},
			{
				"type": "unocc",
				"energy": -0.03466,
				"method": "rhf"
			},
			{
				"type": "unocc",
				"energy": -0.03043,
				"method": "rhf"
			},
			{
				"type": "unocc",
				"energy": 0.00387,
				"method": "rhf"
			}
		],
		"cosmo_sigma_profile": { 
			"-0.025": 0.0,
			"-0.024": 0.0,
			"-0.023": 0.0,
			"-0.022": 0.0,
			"-0.021": 0.0,
			"-0.02": 0.0,
			"-0.019": 0.381384277598,
			"-0.018": 0.805719455162,
			"-0.017": 1.41949009712,
			"-0.016": 2.42414277226,
			"-0.015": 3.0122475287,
			"-0.014": 2.49109482379,
			"-0.013": 2.7324187165,
			"-0.012": 4.70641525778,
			"-0.011": 3.90828393381,
			"-0.01": 4.04308332999,
			"-0.009": 5.9817727066,
			"-0.008": 7.90177784288,
			"-0.007": 15.9494165226,
			"-0.006": 19.7084668653,
			"-0.005": 22.9689496841,
			"-0.004": 19.8352858137,
			"-0.003": 19.8609728207,
			"-0.002": 20.8194055151,
			"-0.001": 21.7068584185,
			"0.0": 25.4499176036,
			"0.001": 30.5968986216,
			"0.002": 36.9782824757,
			"0.003": 18.8269633204,
			"0.004": 11.4897106793,
			"0.005": 10.2222281496,
			"0.006": 9.48681166593,
			"0.007": 9.59643665063,
			"0.008": 9.54511880765,
			"0.009": 11.5597563444,
			"0.01": 14.5579755065,
			"0.011": 11.3033605174,
			"0.012": 10.1469773578,
			"0.013": 3.5426000504,
			"0.014": 0.253342551934,
			"0.015": 0.0,
			"0.016": 0.0,
			"0.017": 0.0,
			"0.018": 0.0,
			"0.019": 0.0,
			"0.02": 0.0,
			"0.021": 0.0,
			"0.022": 0.0,
			"0.023": 0.0,
			"0.024": 0.0,
			"0.025": 0.0
		}
	}
}
