{
	 "smiles": "CNC1=CC=C(OCC#C)C=C1", 
	 "Tm": 320.15, 
	 "num_atms": 23, 
	 "gaussian": { 
		 "optdone": 1, 
		 "sigma_profile": "yes", 
		 "theory": "DFT", 
		 "functional": "B3LYP", 
		 "basiset": "6-31G**", 
		 "properties": { 
			 "R2extent": 2895.1774, 
			 "electric_dipole_moment_norm": 1.659365906, 
			 "electric_quadrupole_moment_norm": 10.055269876, 
			 "total_energy": -517.571790619, 
			 "HOMO_LUMO_gap": 0.18504, 
			 "cosmo_polarized_energy": -10.4, 
			 "cosmo_cavitation_energy": 27.53, 
			 "cosmo_dispersion_energy": -19.61, 
			 "cosmo_repulsion_energy": 1.56, 
			 "cosmo_total_nonelectrostatic_energy": 9.48, 
			 "SMD_solvation_energy": 5.55 
		},
		"coords": [
			{
				"x": -1.1340226055,
				"y": 2.4745685544,
				"z": 2.5683367362,
				"element": "C" 
			},
			{
				"x": -0.7541312293,
				"y": 2.8839759452,
				"z": 1.2301553852,
				"element": "N" 
			},
			{
				"x": -0.3616688741,
				"y": 1.9382453192,
				"z": 0.2773236266,
				"element": "C" 
			},
			{
				"x": -0.2943291104,
				"y": 2.308596906,
				"z": -1.0819109587,
				"element": "C" 
			},
			{
				"x": 0.1328028584,
				"y": 1.4130715853,
				"z": -2.0497713351,
				"element": "C" 
			},
			{
				"x": 0.5126897405,
				"y": 0.110990252,
				"z": -1.6958388028,
				"element": "C" 
			},
			{
				"x": 0.9321568597,
				"y": -0.6881172315,
				"z": -2.7393010707,
				"element": "O" 
			},
			{
				"x": 1.5088891411,
				"y": -1.9507711304,
				"z": -2.4341590056,
				"element": "C" 
			},
			{
				"x": 0.5322933857,
				"y": -2.9897035556,
				"z": -2.0842694979,
				"element": "C" 
			},
			{
				"x": -0.2585214996,
				"y": -3.8592361748,
				"z": -1.8076337102,
				"element": "C" 
			},
			{
				"x": 0.4446547343,
				"y": -0.2764128342,
				"z": -0.3583692534,
				"element": "C" 
			},
			{
				"x": 0.0089218419,
				"y": 0.6296653337,
				"z": 0.6164933631,
				"element": "C" 
			},
			{
				"x": -1.4913434506,
				"y": 3.3497083164,
				"z": 3.1164075009,
				"element": "H" 
			},
			{
				"x": -1.9218257019,
				"y": 1.7033258909,
				"z": 2.590467247,
				"element": "H" 
			},
			{
				"x": -0.2661885213,
				"y": 2.0816839098,
				"z": 3.1100152338,
				"element": "H" 
			},
			{
				"x": -1.3355780054,
				"y": 3.6159519248,
				"z": 0.8469409376,
				"element": "H" 
			},
			{
				"x": -0.5742297075,
				"y": 3.3184189454,
				"z": -1.3736109592,
				"element": "H" 
			},
			{
				"x": 0.1849033746,
				"y": 1.7049379672,
				"z": -3.0938169454,
				"element": "H" 
			},
			{
				"x": 2.0424475745,
				"y": -2.2454909308,
				"z": -3.3437040092,
				"element": "H" 
			},
			{
				"x": 2.2534552706,
				"y": -1.8496273708,
				"z": -1.6310165776,
				"element": "H" 
			},
			{
				"x": -0.9645794299,
				"y": -4.6192916532,
				"z": -1.5643880269,
				"element": "H" 
			},
			{
				"x": 0.6949780267,
				"y": -1.2862283844,
				"z": -0.0550818515,
				"element": "H" 
			},
			{
				"x": -0.0415746728,
				"y": 0.2960384154,
				"z": 1.6469319739,
				"element": "H" 
			}
		],
		 "valence_orbital": [ 
			{
				"type": "occ",
				"energy": -0.2772,
				"method": "rhf"
			},
			{
				"type": "occ",
				"energy": -0.27042,
				"method": "rhf"
			},
			{
				"type": "occ",
				"energy": -0.26356,
				"method": "rhf"
			},
			{
				"type": "occ",
				"energy": -0.24096,
				"method": "rhf"
			},
			{
				"type": "occ",
				"energy": -0.17884,
				"method": "rhf"
			},
			{
				"type": "unocc",
				"energy": 0.0062,
				"method": "rhf"
			},
			{
				"type": "unocc",
				"energy": 0.03111,
				"method": "rhf"
			},
			{
				"type": "unocc",
				"energy": 0.03388,
				"method": "rhf"
			},
			{
				"type": "unocc",
				"energy": 0.05252,
				"method": "rhf"
			},
			{
				"type": "unocc",
				"energy": 0.0876,
				"method": "rhf"
			}
		],
		"cosmo_sigma_profile": { 
			"-0.025": 0.0,
			"-0.024": 0.0,
			"-0.023": 0.0,
			"-0.022": 0.0,
			"-0.021": 0.0,
			"-0.02": 0.0,
			"-0.019": 0.0,
			"-0.018": 0.0,
			"-0.017": 0.0,
			"-0.016": 0.0,
			"-0.015": 0.0,
			"-0.014": 0.0,
			"-0.013": 0.0571315949295,
			"-0.012": 1.82317545442,
			"-0.011": 2.96609743535,
			"-0.01": 2.11403147391,
			"-0.009": 2.26775276007,
			"-0.008": 4.75047932979,
			"-0.007": 6.74910325705,
			"-0.006": 10.1145500297,
			"-0.005": 15.1032233397,
			"-0.004": 15.3248528179,
			"-0.003": 16.5752408261,
			"-0.002": 15.1118255998,
			"-0.001": 17.727432588,
			"0.0": 9.47026601189,
			"0.001": 9.49064597166,
			"0.002": 10.3704279083,
			"0.003": 10.1881998631,
			"0.004": 12.9449552298,
			"0.005": 18.2811906783,
			"0.006": 20.3618532844,
			"0.007": 9.01196232212,
			"0.008": 3.17642711049,
			"0.009": 1.57005022004,
			"0.01": 2.24876415848,
			"0.011": 1.02980932763,
			"0.012": 0.418444380625,
			"0.013": 0.497160662877,
			"0.014": 0.0137960606225,
			"0.015": 0.0,
			"0.016": 0.0,
			"0.017": 0.0,
			"0.018": 0.0,
			"0.019": 0.0,
			"0.02": 0.0,
			"0.021": 0.0,
			"0.022": 0.0,
			"0.023": 0.0,
			"0.024": 0.0,
			"0.025": 0.0
		}
	}
}
