{
	 "smiles": "CCC1=CC=C(O)C=C1", 
	 "Tm": 318.15, 
	 "num_atms": 19, 
	 "gaussian": { 
		 "optdone": 1, 
		 "sigma_profile": "yes", 
		 "theory": "DFT", 
		 "functional": "B3LYP", 
		 "basiset": "6-31G**", 
		 "properties": { 
			 "R2extent": 1623.1956, 
			 "electric_dipole_moment_norm": 1.32873638093, 
			 "electric_quadrupole_moment_norm": 9.78655145186, 
			 "total_energy": -386.107318373, 
			 "HOMO_LUMO_gap": 0.21313, 
			 "cosmo_polarized_energy": -7.56, 
			 "cosmo_cavitation_energy": 22.24, 
			 "cosmo_dispersion_energy": -16.33, 
			 "cosmo_repulsion_energy": 1.35, 
			 "cosmo_total_nonelectrostatic_energy": 7.26, 
			 "SMD_solvation_energy": 4.14 
		},
		"coords": [
			{
				"x": -0.9465209065,
				"y": 3.5534162262,
				"z": -1.2666145414,
				"element": "C" 
			},
			{
				"x": -0.5578342074,
				"y": 2.9087370201,
				"z": 0.0760411733,
				"element": "C" 
			},
			{
				"x": 0.0783374009,
				"y": 1.5434090594,
				"z": -0.081581272,
				"element": "C" 
			},
			{
				"x": -0.705094807,
				"y": 0.3811725187,
				"z": -0.1464744164,
				"element": "C" 
			},
			{
				"x": -0.1358830963,
				"y": -0.8759342371,
				"z": -0.3291826682,
				"element": "C" 
			},
			{
				"x": 1.2523280465,
				"y": -0.9971473596,
				"z": -0.4523672118,
				"element": "C" 
			},
			{
				"x": 1.7650602036,
				"y": -2.2538839234,
				"z": -0.6270051541,
				"element": "O" 
			},
			{
				"x": 2.0536728914,
				"y": 0.1464497878,
				"z": -0.3885196762,
				"element": "C" 
			},
			{
				"x": 1.4648517885,
				"y": 1.3983520422,
				"z": -0.204882546,
				"element": "C" 
			},
			{
				"x": -1.6610527434,
				"y": 2.9264102093,
				"z": -1.8100219266,
				"element": "H" 
			},
			{
				"x": -1.4047349678,
				"y": 4.5366929241,
				"z": -1.1143803715,
				"element": "H" 
			},
			{
				"x": -0.0680914042,
				"y": 3.6832639869,
				"z": -1.9073361831,
				"element": "H" 
			},
			{
				"x": -1.4518676262,
				"y": 2.8251577131,
				"z": 0.7061625545,
				"element": "H" 
			},
			{
				"x": 0.1323687149,
				"y": 3.5746882195,
				"z": 0.6081835565,
				"element": "H" 
			},
			{
				"x": -1.7853235888,
				"y": 0.4611275983,
				"z": -0.0473483117,
				"element": "H" 
			},
			{
				"x": -0.746699368,
				"y": -1.7717989423,
				"z": -0.3735257697,
				"element": "H" 
			},
			{
				"x": 2.7265886765,
				"y": -2.1939584571,
				"z": -0.6952413267,
				"element": "H" 
			},
			{
				"x": 3.1351205503,
				"y": 0.0595528,
				"z": -0.476607307,
				"element": "H" 
			},
			{
				"x": 2.1019744429,
				"y": 2.2782928139,
				"z": -0.1529986021,
				"element": "H" 
			}
		],
		 "valence_orbital": [ 
			{
				"type": "occ",
				"energy": -0.33222,
				"method": "rhf"
			},
			{
				"type": "occ",
				"energy": -0.32719,
				"method": "rhf"
			},
			{
				"type": "occ",
				"energy": -0.31834,
				"method": "rhf"
			},
			{
				"type": "occ",
				"energy": -0.24684,
				"method": "rhf"
			},
			{
				"type": "occ",
				"energy": -0.21147,
				"method": "rhf"
			},
			{
				"type": "unocc",
				"energy": 0.00166,
				"method": "rhf"
			},
			{
				"type": "unocc",
				"energy": 0.0179,
				"method": "rhf"
			},
			{
				"type": "unocc",
				"energy": 0.07367,
				"method": "rhf"
			},
			{
				"type": "unocc",
				"energy": 0.09499,
				"method": "rhf"
			},
			{
				"type": "unocc",
				"energy": 0.11899,
				"method": "rhf"
			}
		],
		"cosmo_sigma_profile": { 
			"-0.025": 0.0,
			"-0.024": 0.0,
			"-0.023": 0.0,
			"-0.022": 0.0,
			"-0.021": 0.0,
			"-0.02": 0.0,
			"-0.019": 0.0,
			"-0.018": 0.144316164883,
			"-0.017": 1.07310133289,
			"-0.016": 0.914191527265,
			"-0.015": 0.757856685392,
			"-0.014": 1.39878476388,
			"-0.013": 1.13368686701,
			"-0.012": 0.749302249257,
			"-0.011": 0.369421027378,
			"-0.01": 1.33779212768,
			"-0.009": 1.33187758465,
			"-0.008": 1.22784686041,
			"-0.007": 1.089567147,
			"-0.006": 2.63106357694,
			"-0.005": 6.16695110575,
			"-0.004": 9.1333145263,
			"-0.003": 16.8036083816,
			"-0.002": 16.9277988153,
			"-0.001": 18.2654187529,
			"0.0": 17.4069883297,
			"0.001": 15.516371976,
			"0.002": 10.5311270463,
			"0.003": 8.2393671411,
			"0.004": 9.45661080822,
			"0.005": 10.2304221651,
			"0.006": 10.3906989763,
			"0.007": 4.18701435112,
			"0.008": 1.35891206534,
			"0.009": 1.38947456578,
			"0.01": 1.68299743661,
			"0.011": 1.81433993435,
			"0.012": 1.50499966538,
			"0.013": 0.000683345300376,
			"0.014": 0.0,
			"0.015": 0.0,
			"0.016": 0.0,
			"0.017": 0.0,
			"0.018": 0.0,
			"0.019": 0.0,
			"0.02": 0.0,
			"0.021": 0.0,
			"0.022": 0.0,
			"0.023": 0.0,
			"0.024": 0.0,
			"0.025": 0.0
		}
	}
}
