{
	 "smiles": "CC1(NC(=O)NC1=O)C1=CC=C(O)C=C1", 
	 "Tm": 514.15, 
	 "num_atms": 25, 
	 "gaussian": { 
		 "optdone": 1, 
		 "sigma_profile": "yes", 
		 "theory": "DFT", 
		 "functional": "B3LYP", 
		 "basiset": "6-31G**", 
		 "properties": { 
			 "R2extent": 3832.3444, 
			 "electric_dipole_moment_norm": 3.01785331154, 
			 "electric_quadrupole_moment_norm": 5.49769235589, 
			 "total_energy": -722.30480353, 
			 "HOMO_LUMO_gap": 0.20847, 
			 "cosmo_polarized_energy": -20.44, 
			 "cosmo_cavitation_energy": 29.26, 
			 "cosmo_dispersion_energy": -21.02, 
			 "cosmo_repulsion_energy": 1.65, 
			 "cosmo_total_nonelectrostatic_energy": 9.88, 
			 "SMD_solvation_energy": 7.07 
		},
		"coords": [
			{
				"x": 0.5334399505,
				"y": 1.244296533,
				"z": 2.0228547493,
				"element": "C" 
			},
			{
				"x": -0.3263863646,
				"y": 0.458942956,
				"z": 1.0106219407,
				"element": "C" 
			},
			{
				"x": 0.2348688395,
				"y": -0.8662544685,
				"z": 0.7514869829,
				"element": "N" 
			},
			{
				"x": -0.5280706225,
				"y": -1.9008846934,
				"z": 1.2345236587,
				"element": "C" 
			},
			{
				"x": -0.2723705065,
				"y": -3.0862379836,
				"z": 1.2521204795,
				"element": "O" 
			},
			{
				"x": -1.7053085662,
				"y": -1.2981341427,
				"z": 1.7253975831,
				"element": "N" 
			},
			{
				"x": -1.6759195724,
				"y": 0.0772256709,
				"z": 1.6800554109,
				"element": "C" 
			},
			{
				"x": -2.5198830002,
				"y": 0.8420986645,
				"z": 2.0976035679,
				"element": "O" 
			},
			{
				"x": -0.5715654459,
				"y": 1.2665429231,
				"z": -0.2691321166,
				"element": "C" 
			},
			{
				"x": -1.2318242121,
				"y": 2.5014263296,
				"z": -0.2031086519,
				"element": "C" 
			},
			{
				"x": -1.4446335253,
				"y": 3.2617471024,
				"z": -1.3504250029,
				"element": "C" 
			},
			{
				"x": -0.9947373704,
				"y": 2.7998351567,
				"z": -2.5924595482,
				"element": "C" 
			},
			{
				"x": -1.1670602036,
				"y": 3.5023705685,
				"z": -3.750092884,
				"element": "O" 
			},
			{
				"x": -0.3431619373,
				"y": 1.5659489803,
				"z": -2.6738410469,
				"element": "C" 
			},
			{
				"x": -0.1416402261,
				"y": 0.8105951407,
				"z": -1.5213546688,
				"element": "C" 
			},
			{
				"x": 0.0347254732,
				"y": 2.1738140924,
				"z": 2.3040434048,
				"element": "H" 
			},
			{
				"x": 1.5010131003,
				"y": 1.4930865727,
				"z": 1.5764036268,
				"element": "H" 
			},
			{
				"x": 0.7012656959,
				"y": 0.6521635213,
				"z": 2.9277861204,
				"element": "H" 
			},
			{
				"x": 1.2104015044,
				"y": -1.0283059731,
				"z": 0.5528677694,
				"element": "H" 
			},
			{
				"x": -2.4579029332,
				"y": -1.8373388346,
				"z": 2.1291059122,
				"element": "H" 
			},
			{
				"x": -1.6142283614,
				"y": 2.8583664191,
				"z": 0.7467846795,
				"element": "H" 
			},
			{
				"x": -1.9662902105,
				"y": 4.2140488891,
				"z": -1.2795538145,
				"element": "H" 
			},
			{
				"x": -1.6401300656,
				"y": 4.3220866401,
				"z": -3.5566100348,
				"element": "H" 
			},
			{
				"x": -0.007728588,
				"y": 1.2111916123,
				"z": -3.642702453,
				"element": "H" 
			},
			{
				"x": 0.347027148,
				"y": -0.1542316769,
				"z": -1.6032756647,
				"element": "H" 
			}
		],
		 "valence_orbital": [ 
			{
				"type": "occ",
				"energy": -0.28935,
				"method": "rhf"
			},
			{
				"type": "occ",
				"energy": -0.27238,
				"method": "rhf"
			},
			{
				"type": "occ",
				"energy": -0.2645,
				"method": "rhf"
			},
			{
				"type": "occ",
				"energy": -0.25737,
				"method": "rhf"
			},
			{
				"type": "occ",
				"energy": -0.2249,
				"method": "rhf"
			},
			{
				"type": "unocc",
				"energy": -0.01643,
				"method": "rhf"
			},
			{
				"type": "unocc",
				"energy": -0.00889,
				"method": "rhf"
			},
			{
				"type": "unocc",
				"energy": 0.01021,
				"method": "rhf"
			},
			{
				"type": "unocc",
				"energy": 0.05884,
				"method": "rhf"
			},
			{
				"type": "unocc",
				"energy": 0.06623,
				"method": "rhf"
			}
		],
		"cosmo_sigma_profile": { 
			"-0.025": 0.0,
			"-0.024": 0.0,
			"-0.023": 0.0,
			"-0.022": 0.0,
			"-0.021": 0.0,
			"-0.02": 0.0,
			"-0.019": 0.0,
			"-0.018": 0.283231842738,
			"-0.017": 1.50351305261,
			"-0.016": 2.83816853348,
			"-0.015": 2.61173390206,
			"-0.014": 3.36301422486,
			"-0.013": 3.1630236201,
			"-0.012": 2.08245024447,
			"-0.011": 3.1202622842,
			"-0.01": 3.44785848601,
			"-0.009": 3.5954422513,
			"-0.008": 2.97252137209,
			"-0.007": 3.82767930115,
			"-0.006": 9.07019451527,
			"-0.005": 13.7608552782,
			"-0.004": 14.4675558075,
			"-0.003": 15.0985226566,
			"-0.002": 15.3608924731,
			"-0.001": 16.7059018722,
			"0.0": 10.3740695487,
			"0.001": 9.51586904713,
			"0.002": 9.44582077889,
			"0.003": 12.146658603,
			"0.004": 12.1668094724,
			"0.005": 14.3068866981,
			"0.006": 6.36626312342,
			"0.007": 3.9105033744,
			"0.008": 3.90687420504,
			"0.009": 4.2503236557,
			"0.01": 5.29455756189,
			"0.011": 7.40916376095,
			"0.012": 8.79939474021,
			"0.013": 6.27569132388,
			"0.014": 0.640305504241,
			"0.015": 0.0,
			"0.016": 0.0,
			"0.017": 0.0,
			"0.018": 0.0,
			"0.019": 0.0,
			"0.02": 0.0,
			"0.021": 0.0,
			"0.022": 0.0,
			"0.023": 0.0,
			"0.024": 0.0,
			"0.025": 0.0
		}
	}
}
