{
	 "smiles": "[O-][N+](=O)C1=CC=C(C=C1)C1=NN=C2SCN(CN12)C1=CC=CC=C1", 
	 "Tm": 593.15, 
	 "num_atms": 37, 
	 "gaussian": { 
		 "optdone": 1, 
		 "sigma_profile": "yes", 
		 "theory": "DFT", 
		 "functional": "B3LYP", 
		 "basiset": "6-31G**", 
		 "properties": { 
			 "R2extent": 11203.3669, 
			 "electric_dipole_moment_norm": 7.06381484327, 
			 "electric_quadrupole_moment_norm": 30.9175862169, 
			 "total_energy": -1439.79101051, 
			 "HOMO_LUMO_gap": 0.13112, 
			 "cosmo_polarized_energy": -25.09, 
			 "cosmo_cavitation_energy": 42.94, 
			 "cosmo_dispersion_energy": -30.5, 
			 "cosmo_repulsion_energy": 2.22, 
			 "cosmo_total_nonelectrostatic_energy": 14.65, 
			 "SMD_solvation_energy": 5.33 
		},
		"coords": [
			{
				"x": -2.1968203444,
				"y": -2.2924929494,
				"z": -5.4467374688,
				"element": "O" 
			},
			{
				"x": -2.5759820809,
				"y": -1.1245179883,
				"z": -5.5358642015,
				"element": "N" 
			},
			{
				"x": -3.2251419526,
				"y": -0.6666197637,
				"z": -6.4753991395,
				"element": "O" 
			},
			{
				"x": -2.2297797903,
				"y": -0.2105769204,
				"z": -4.4372889544,
				"element": "C" 
			},
			{
				"x": -1.4835728278,
				"y": -0.6969487112,
				"z": -3.3660742874,
				"element": "C" 
			},
			{
				"x": -1.1625714091,
				"y": 0.168278146,
				"z": -2.3253180563,
				"element": "C" 
			},
			{
				"x": -1.5973092859,
				"y": 1.5064599557,
				"z": -2.3468213699,
				"element": "C" 
			},
			{
				"x": -2.3307570738,
				"y": 1.9723645932,
				"z": -3.4533925979,
				"element": "C" 
			},
			{
				"x": -2.6486330196,
				"y": 1.1182172323,
				"z": -4.501958691,
				"element": "C" 
			},
			{
				"x": -1.2585942558,
				"y": 2.458361985,
				"z": -1.2824305728,
				"element": "C" 
			},
			{
				"x": -0.9257787355,
				"y": 3.7138219767,
				"z": -1.5007379089,
				"element": "N" 
			},
			{
				"x": -0.6446059792,
				"y": 4.304060631,
				"z": -0.2902311563,
				"element": "N" 
			},
			{
				"x": -0.8254961582,
				"y": 3.3869158093,
				"z": 0.6339395505,
				"element": "C" 
			},
			{
				"x": -0.521704952,
				"y": 3.6432520765,
				"z": 2.3503156265,
				"element": "S" 
			},
			{
				"x": -1.1728630269,
				"y": 1.9781438298,
				"z": 2.9817539485,
				"element": "C" 
			},
			{
				"x": -1.0235167345,
				"y": 0.8702676415,
				"z": 2.0867868704,
				"element": "N" 
			},
			{
				"x": -1.7514729713,
				"y": 1.055743462,
				"z": 0.8552264539,
				"element": "C" 
			},
			{
				"x": -1.2030762827,
				"y": 2.1874939356,
				"z": 0.076699702,
				"element": "N" 
			},
			{
				"x": 0.2101103161,
				"y": 0.1465498844,
				"z": 2.0301553967,
				"element": "C" 
			},
			{
				"x": 0.1988251736,
				"y": -1.1546488278,
				"z": 1.5002857623,
				"element": "C" 
			},
			{
				"x": 1.3700756881,
				"y": -1.9066138238,
				"z": 1.4501885292,
				"element": "C" 
			},
			{
				"x": 2.5671386604,
				"y": -1.3856371569,
				"z": 1.9475013406,
				"element": "C" 
			},
			{
				"x": 2.5767191098,
				"y": -0.1020386963,
				"z": 2.4900174379,
				"element": "C" 
			},
			{
				"x": 1.4116827226,
				"y": 0.6679902042,
				"z": 2.5265025175,
				"element": "C" 
			},
			{
				"x": -1.1545699915,
				"y": -1.7284194838,
				"z": -3.3720221894,
				"element": "H" 
			},
			{
				"x": -0.5314486363,
				"y": -0.188723689,
				"z": -1.5176872484,
				"element": "H" 
			},
			{
				"x": -2.6405546097,
				"y": 3.0109682903,
				"z": -3.4749454029,
				"element": "H" 
			},
			{
				"x": -3.2168089782,
				"y": 1.456174546,
				"z": -5.3594602569,
				"element": "H" 
			},
			{
				"x": -2.2331323656,
				"y": 2.1218471265,
				"z": 3.2000131157,
				"element": "H" 
			},
			{
				"x": -0.6365884815,
				"y": 1.7948514874,
				"z": 3.9125768818,
				"element": "H" 
			},
			{
				"x": -2.800081286,
				"y": 1.2705298829,
				"z": 1.0896507503,
				"element": "H" 
			},
			{
				"x": -1.7138613447,
				"y": 0.1619474014,
				"z": 0.2402307209,
				"element": "H" 
			},
			{
				"x": -0.7357608926,
				"y": -1.5918406407,
				"z": 1.1608441594,
				"element": "H" 
			},
			{
				"x": 1.3404526191,
				"y": -2.9118949087,
				"z": 1.0401546225,
				"element": "H" 
			},
			{
				"x": 3.4776980434,
				"y": -1.9754530377,
				"z": 1.9147765472,
				"element": "H" 
			},
			{
				"x": 3.5000116745,
				"y": 0.3195681259,
				"z": 2.8763316494,
				"element": "H" 
			},
			{
				"x": 1.4525694588,
				"y": 1.6800183741,
				"z": 2.912317919,
				"element": "H" 
			}
		],
		 "valence_orbital": [ 
			{
				"type": "occ",
				"energy": -0.28429,
				"method": "rhf"
			},
			{
				"type": "occ",
				"energy": -0.27149,
				"method": "rhf"
			},
			{
				"type": "occ",
				"energy": -0.26346,
				"method": "rhf"
			},
			{
				"type": "occ",
				"energy": -0.24002,
				"method": "rhf"
			},
			{
				"type": "occ",
				"energy": -0.22857,
				"method": "rhf"
			},
			{
				"type": "unocc",
				"energy": -0.09745,
				"method": "rhf"
			},
			{
				"type": "unocc",
				"energy": -0.03717,
				"method": "rhf"
			},
			{
				"type": "unocc",
				"energy": -0.02905,
				"method": "rhf"
			},
			{
				"type": "unocc",
				"energy": -0.02571,
				"method": "rhf"
			},
			{
				"type": "unocc",
				"energy": -0.02036,
				"method": "rhf"
			}
		],
		"cosmo_sigma_profile": { 
			"-0.025": 0.0,
			"-0.024": 0.0,
			"-0.023": 0.0,
			"-0.022": 0.0,
			"-0.021": 0.0,
			"-0.02": 0.0,
			"-0.019": 0.0,
			"-0.018": 0.0,
			"-0.017": 0.0,
			"-0.016": 0.0,
			"-0.015": 0.0,
			"-0.014": 0.0,
			"-0.013": 0.0,
			"-0.012": 0.0,
			"-0.011": 0.534071851533,
			"-0.01": 3.17115534911,
			"-0.009": 8.23215420944,
			"-0.008": 12.8954429538,
			"-0.007": 15.8822642706,
			"-0.006": 23.4606958317,
			"-0.005": 22.0638197567,
			"-0.004": 23.6366501642,
			"-0.003": 19.791742599,
			"-0.002": 20.5475308872,
			"-0.001": 22.0412800547,
			"0.0": 23.6116673531,
			"0.001": 23.9815537036,
			"0.002": 17.2429570071,
			"0.003": 16.8124465355,
			"0.004": 19.0431539175,
			"0.005": 17.2989638824,
			"0.006": 10.9679180533,
			"0.007": 11.2768108536,
			"0.008": 9.34239076826,
			"0.009": 6.34718721476,
			"0.01": 4.6142981416,
			"0.011": 2.20244037865,
			"0.012": 2.65389589197,
			"0.013": 3.67868217738,
			"0.014": 2.68563919052,
			"0.015": 2.1102388091,
			"0.016": 1.53301013877,
			"0.017": 0.00799500275547,
			"0.018": 0.0,
			"0.019": 0.0,
			"0.02": 0.0,
			"0.021": 0.0,
			"0.022": 0.0,
			"0.023": 0.0,
			"0.024": 0.0,
			"0.025": 0.0
		}
	}
}
