{
	 "smiles": "CCCCCCOC(=O)C1=CC=CC=C1C(=O)OCCCCCC", 
	 "Tm": 215.15, 
	 "num_atms": 54, 
	 "gaussian": { 
		 "optdone": 1, 
		 "sigma_profile": "yes", 
		 "theory": "DFT", 
		 "functional": "B3LYP", 
		 "basiset": "6-31G**", 
		 "properties": { 
			 "R2extent": 10326.9277, 
			 "electric_dipole_moment_norm": 0.14680429149, 
			 "electric_quadrupole_moment_norm": 17.6842004736, 
			 "total_energy": -1081.15878909, 
			 "HOMO_LUMO_gap": 0.20576, 
			 "cosmo_polarized_energy": -11.69, 
			 "cosmo_cavitation_energy": 55.25, 
			 "cosmo_dispersion_energy": -34.96, 
			 "cosmo_repulsion_energy": 2.76, 
			 "cosmo_total_nonelectrostatic_energy": 23.05, 
			 "SMD_solvation_energy": 9.64 
		},
		"coords": [
			{
				"x": -2.5454986429,
				"y": -2.8850130337,
				"z": -3.4346139939,
				"element": "C" 
			},
			{
				"x": -1.8901061274,
				"y": -2.1507088873,
				"z": -2.2585556898,
				"element": "C" 
			},
			{
				"x": -1.8026581716,
				"y": -0.6242597312,
				"z": -2.4200845646,
				"element": "C" 
			},
			{
				"x": -0.8775732131,
				"y": -0.1614445848,
				"z": -3.556704675,
				"element": "C" 
			},
			{
				"x": -0.7434701695,
				"y": 1.3659213043,
				"z": -3.7085904934,
				"element": "C" 
			},
			{
				"x": 0.2301276316,
				"y": 2.0635784443,
				"z": -2.7677205729,
				"element": "C" 
			},
			{
				"x": -0.2487150933,
				"y": 1.9828750465,
				"z": -1.4031835576,
				"element": "O" 
			},
			{
				"x": 0.2220271451,
				"y": 2.9144731886,
				"z": -0.5465336952,
				"element": "C" 
			},
			{
				"x": 0.9488452362,
				"y": 3.8322408793,
				"z": -0.8662747045,
				"element": "O" 
			},
			{
				"x": -0.3537983224,
				"y": 2.7484348034,
				"z": 0.8280067159,
				"element": "C" 
			},
			{
				"x": -0.8246738598,
				"y": 3.9121681212,
				"z": 1.4462984112,
				"element": "C" 
			},
			{
				"x": -1.4699662984,
				"y": 3.8521290743,
				"z": 2.6805467743,
				"element": "C" 
			},
			{
				"x": -1.6528236326,
				"y": 2.6202196847,
				"z": 3.3104094602,
				"element": "C" 
			},
			{
				"x": -1.1655024548,
				"y": 1.4584544631,
				"z": 2.7147204915,
				"element": "C" 
			},
			{
				"x": -0.4975420283,
				"y": 1.5107679311,
				"z": 1.4854877508,
				"element": "C" 
			},
			{
				"x": 0.0890304619,
				"y": 0.2234022239,
				"z": 0.9945837864,
				"element": "C" 
			},
			{
				"x": -0.4311884477,
				"y": -0.8613823743,
				"z": 1.1729150046,
				"element": "O" 
			},
			{
				"x": 1.2904359698,
				"y": 0.4138471727,
				"z": 0.4121101631,
				"element": "O" 
			},
			{
				"x": 1.99154692,
				"y": -0.7454497693,
				"z": -0.1042242791,
				"element": "C" 
			},
			{
				"x": 3.3280475962,
				"y": -0.9071162225,
				"z": 0.6141312438,
				"element": "C" 
			},
			{
				"x": 3.2360414752,
				"y": -1.196521654,
				"z": 2.1214068715,
				"element": "C" 
			},
			{
				"x": 2.5497877358,
				"y": -2.5235322655,
				"z": 2.4794830039,
				"element": "C" 
			},
			{
				"x": 2.524968666,
				"y": -2.832044303,
				"z": 3.9867037896,
				"element": "C" 
			},
			{
				"x": 3.9003599024,
				"y": -3.1019293915,
				"z": 4.60893348,
				"element": "C" 
			},
			{
				"x": -1.9754840766,
				"y": -2.7694635848,
				"z": -4.3626638741,
				"element": "H" 
			},
			{
				"x": -3.5579338037,
				"y": -2.5068021225,
				"z": -3.6200633759,
				"element": "H" 
			},
			{
				"x": -2.6255193543,
				"y": -3.9586099634,
				"z": -3.2337251261,
				"element": "H" 
			},
			{
				"x": -0.8813504513,
				"y": -2.5535893326,
				"z": -2.0917229085,
				"element": "H" 
			},
			{
				"x": -2.4514507763,
				"y": -2.368773999,
				"z": -1.3420230716,
				"element": "H" 
			},
			{
				"x": -2.8105823971,
				"y": -0.2213980816,
				"z": -2.5984351274,
				"element": "H" 
			},
			{
				"x": -1.466103955,
				"y": -0.1905176558,
				"z": -1.475004217,
				"element": "H" 
			},
			{
				"x": -1.2484293177,
				"y": -0.5633291222,
				"z": -4.5074314484,
				"element": "H" 
			},
			{
				"x": 0.1228355517,
				"y": -0.5984900701,
				"z": -3.4182811802,
				"element": "H" 
			},
			{
				"x": -1.7285415622,
				"y": 1.8417123505,
				"z": -3.6192506003,
				"element": "H" 
			},
			{
				"x": -0.3856879927,
				"y": 1.5936583695,
				"z": -4.7215394327,
				"element": "H" 
			},
			{
				"x": 1.2225986984,
				"y": 1.5975056328,
				"z": -2.8040578638,
				"element": "H" 
			},
			{
				"x": 0.3481921606,
				"y": 3.1181473437,
				"z": -3.028684942,
				"element": "H" 
			},
			{
				"x": -0.6881946978,
				"y": 4.860006157,
				"z": 0.9363680777,
				"element": "H" 
			},
			{
				"x": -1.835489593,
				"y": 4.7636976122,
				"z": 3.1438193846,
				"element": "H" 
			},
			{
				"x": -2.1635745316,
				"y": 2.5643192541,
				"z": 4.2669970815,
				"element": "H" 
			},
			{
				"x": -1.2804386633,
				"y": 0.4938267582,
				"z": 3.1975043401,
				"element": "H" 
			},
			{
				"x": 2.1492590111,
				"y": -0.5484819936,
				"z": -1.1690996405,
				"element": "H" 
			},
			{
				"x": 1.3488211951,
				"y": -1.6197613974,
				"z": 0.0046094975,
				"element": "H" 
			},
			{
				"x": 3.9204135507,
				"y": 0.0016779991,
				"z": 0.4532837813,
				"element": "H" 
			},
			{
				"x": 3.8659801731,
				"y": -1.7230467019,
				"z": 0.1116242362,
				"element": "H" 
			},
			{
				"x": 4.2559902522,
				"y": -1.1850782967,
				"z": 2.5237041508,
				"element": "H" 
			},
			{
				"x": 2.7088067673,
				"y": -0.3687666164,
				"z": 2.6141265041,
				"element": "H" 
			},
			{
				"x": 3.054168246,
				"y": -3.3473019843,
				"z": 1.9523853892,
				"element": "H" 
			},
			{
				"x": 1.516347958,
				"y": -2.5054255956,
				"z": 2.1145961462,
				"element": "H" 
			},
			{
				"x": 1.8836547133,
				"y": -3.7070215943,
				"z": 4.1517446324,
				"element": "H" 
			},
			{
				"x": 2.0402860349,
				"y": -1.9998888841,
				"z": 4.5157331698,
				"element": "H" 
			},
			{
				"x": 3.8084199777,
				"y": -3.3646399509,
				"z": 5.6680732346,
				"element": "H" 
			},
			{
				"x": 4.4045981157,
				"y": -3.9343031884,
				"z": 4.1038089263,
				"element": "H" 
			},
			{
				"x": 4.5592064885,
				"y": -2.2296714616,
				"z": 4.5461535353,
				"element": "H" 
			}
		],
		 "valence_orbital": [ 
			{
				"type": "occ",
				"energy": -0.29032,
				"method": "rhf"
			},
			{
				"type": "occ",
				"energy": -0.28416,
				"method": "rhf"
			},
			{
				"type": "occ",
				"energy": -0.28051,
				"method": "rhf"
			},
			{
				"type": "occ",
				"energy": -0.26151,
				"method": "rhf"
			},
			{
				"type": "occ",
				"energy": -0.25854,
				"method": "rhf"
			},
			{
				"type": "unocc",
				"energy": -0.05278,
				"method": "rhf"
			},
			{
				"type": "unocc",
				"energy": -0.02615,
				"method": "rhf"
			},
			{
				"type": "unocc",
				"energy": 0.02916,
				"method": "rhf"
			},
			{
				"type": "unocc",
				"energy": 0.04351,
				"method": "rhf"
			},
			{
				"type": "unocc",
				"energy": 0.0683,
				"method": "rhf"
			}
		],
		"cosmo_sigma_profile": { 
			"-0.025": 0.0,
			"-0.024": 0.0,
			"-0.023": 0.0,
			"-0.022": 0.0,
			"-0.021": 0.0,
			"-0.02": 0.0,
			"-0.019": 0.0,
			"-0.018": 0.0,
			"-0.017": 0.0,
			"-0.016": 0.0,
			"-0.015": 0.0,
			"-0.014": 0.0,
			"-0.013": 0.0,
			"-0.012": 0.0,
			"-0.011": 0.0,
			"-0.01": 0.0,
			"-0.009": 0.0,
			"-0.008": 0.0955375868408,
			"-0.007": 5.0183588647,
			"-0.006": 9.10979653677,
			"-0.005": 14.6594305905,
			"-0.004": 22.7012327966,
			"-0.003": 38.031698163,
			"-0.002": 56.8928549574,
			"-0.001": 59.4376278582,
			"0.0": 61.741156278,
			"0.001": 58.9286192999,
			"0.002": 38.6404453292,
			"0.003": 19.2599133676,
			"0.004": 8.92634619678,
			"0.005": 7.59574588056,
			"0.006": 5.01932437923,
			"0.007": 3.96639900479,
			"0.008": 2.98950524142,
			"0.009": 2.88556722533,
			"0.01": 4.16902916904,
			"0.011": 5.17917354956,
			"0.012": 5.26026244849,
			"0.013": 0.413205995023,
			"0.014": 0.0,
			"0.015": 0.0,
			"0.016": 0.0,
			"0.017": 0.0,
			"0.018": 0.0,
			"0.019": 0.0,
			"0.02": 0.0,
			"0.021": 0.0,
			"0.022": 0.0,
			"0.023": 0.0,
			"0.024": 0.0,
			"0.025": 0.0
		}
	}
}
