{
	 "smiles": "ClC1=NN=C(C=C1)C(=O)NC1CCCC1", 
	 "Tm": 413.15, 
	 "num_atms": 27, 
	 "gaussian": { 
		 "optdone": 1, 
		 "sigma_profile": "yes", 
		 "theory": "DFT", 
		 "functional": "B3LYP", 
		 "basiset": "6-31G**", 
		 "properties": { 
			 "R2extent": 6574.4579, 
			 "electric_dipole_moment_norm": 1.07677730288, 
			 "electric_quadrupole_moment_norm": 16.295681195, 
			 "total_energy": -1087.94090149, 
			 "HOMO_LUMO_gap": 0.17911, 
			 "cosmo_polarized_energy": -12.11, 
			 "cosmo_cavitation_energy": 31.85, 
			 "cosmo_dispersion_energy": -23.41, 
			 "cosmo_repulsion_energy": 1.85, 
			 "cosmo_total_nonelectrostatic_energy": 10.29, 
			 "SMD_solvation_energy": 3.63 
		},
		"coords": [
			{
				"x": -6.5295253749,
				"y": -0.4942179677,
				"z": -1.0017554546,
				"element": "Cl" 
			},
			{
				"x": -5.0565496673,
				"y": -0.2366881197,
				"z": -0.0963390062,
				"element": "C" 
			},
			{
				"x": -3.9338556156,
				"y": -0.2516845403,
				"z": -0.797538755,
				"element": "N" 
			},
			{
				"x": -2.774186126,
				"y": -0.0631433188,
				"z": -0.1603253573,
				"element": "N" 
			},
			{
				"x": -2.7549193241,
				"y": 0.1348324496,
				"z": 1.1584588963,
				"element": "C" 
			},
			{
				"x": -3.9279592014,
				"y": 0.1651714409,
				"z": 1.9357914988,
				"element": "C" 
			},
			{
				"x": -5.128718201,
				"y": -0.0306378847,
				"z": 1.2892181025,
				"element": "C" 
			},
			{
				"x": -1.4481687078,
				"y": 0.3768042509,
				"z": 1.885256448,
				"element": "C" 
			},
			{
				"x": -1.5045507955,
				"y": 0.7379980824,
				"z": 3.0628982486,
				"element": "O" 
			},
			{
				"x": -0.25145551,
				"y": 0.1868139276,
				"z": 1.2678737737,
				"element": "N" 
			},
			{
				"x": 0.1314230447,
				"y": -0.2523029258,
				"z": -0.085398035,
				"element": "C" 
			},
			{
				"x": 1.5771654598,
				"y": -0.7872781084,
				"z": -0.0485314627,
				"element": "C" 
			},
			{
				"x": 2.4917405337,
				"y": 0.4630461065,
				"z": -0.1715062474,
				"element": "C" 
			},
			{
				"x": 1.5826395208,
				"y": 1.5998126746,
				"z": -0.7286214032,
				"element": "C" 
			},
			{
				"x": 0.2399196848,
				"y": 0.9230485597,
				"z": -1.0769892472,
				"element": "C" 
			},
			{
				"x": -3.8462235983,
				"y": 0.3448252757,
				"z": 3.0011434626,
				"element": "H" 
			},
			{
				"x": -6.0819049986,
				"y": -0.0263482959,
				"z": 1.8051606169,
				"element": "H" 
			},
			{
				"x": 0.5062177415,
				"y": 0.4084182506,
				"z": 1.9030467076,
				"element": "H" 
			},
			{
				"x": -0.583853687,
				"y": -1.0007094532,
				"z": -0.4206778898,
				"element": "H" 
			},
			{
				"x": 1.777444152,
				"y": -1.391211147,
				"z": 0.8423059436,
				"element": "H" 
			},
			{
				"x": 1.7157499651,
				"y": -1.4419438623,
				"z": -0.9150301907,
				"element": "H" 
			},
			{
				"x": 2.9169678604,
				"y": 0.7435321765,
				"z": 0.7982539201,
				"element": "H" 
			},
			{
				"x": 3.3420250885,
				"y": 0.2594531199,
				"z": -0.8289139228,
				"element": "H" 
			},
			{
				"x": 1.4267001594,
				"y": 2.3680820677,
				"z": 0.0361168889,
				"element": "H" 
			},
			{
				"x": 2.0258557549,
				"y": 2.1028350197,
				"z": -1.5927004175,
				"element": "H" 
			},
			{
				"x": 0.2682118081,
				"y": 0.510544198,
				"z": -2.0929019073,
				"element": "H" 
			},
			{
				"x": -0.6208899661,
				"y": 1.5922480235,
				"z": -1.0216952108,
				"element": "H" 
			}
		],
		 "valence_orbital": [ 
			{
				"type": "occ",
				"energy": -0.32155,
				"method": "rhf"
			},
			{
				"type": "occ",
				"energy": -0.28705,
				"method": "rhf"
			},
			{
				"type": "occ",
				"energy": -0.26134,
				"method": "rhf"
			},
			{
				"type": "occ",
				"energy": -0.25666,
				"method": "rhf"
			},
			{
				"type": "occ",
				"energy": -0.25065,
				"method": "rhf"
			},
			{
				"type": "unocc",
				"energy": -0.07154,
				"method": "rhf"
			},
			{
				"type": "unocc",
				"energy": -0.06351,
				"method": "rhf"
			},
			{
				"type": "unocc",
				"energy": 0.01888,
				"method": "rhf"
			},
			{
				"type": "unocc",
				"energy": 0.03847,
				"method": "rhf"
			},
			{
				"type": "unocc",
				"energy": 0.065,
				"method": "rhf"
			}
		],
		"cosmo_sigma_profile": { 
			"-0.025": 0.0,
			"-0.024": 0.0,
			"-0.023": 0.0,
			"-0.022": 0.0,
			"-0.021": 0.0,
			"-0.02": 0.0,
			"-0.019": 0.0,
			"-0.018": 0.0,
			"-0.017": 0.0,
			"-0.016": 0.0,
			"-0.015": 0.0,
			"-0.014": 0.0,
			"-0.013": 0.0916105496793,
			"-0.012": 0.719829860617,
			"-0.011": 0.814641732081,
			"-0.01": 2.59313629212,
			"-0.009": 3.88937081668,
			"-0.008": 4.55292747848,
			"-0.007": 4.86193725883,
			"-0.006": 4.07623134166,
			"-0.005": 5.37720409007,
			"-0.004": 13.3816855314,
			"-0.003": 34.1896431152,
			"-0.002": 33.6457581939,
			"-0.001": 29.3594184418,
			"0.0": 25.1577271448,
			"0.001": 23.5078627291,
			"0.002": 13.4609469333,
			"0.003": 12.6073155338,
			"0.004": 6.54140086704,
			"0.005": 3.63783705997,
			"0.006": 3.52738440312,
			"0.007": 3.82471877362,
			"0.008": 3.18904039159,
			"0.009": 3.68961077767,
			"0.01": 2.63583683306,
			"0.011": 2.71598864624,
			"0.012": 3.9164951568,
			"0.013": 5.69913765045,
			"0.014": 2.6789456442,
			"0.015": 0.0762279656272,
			"0.016": 0.0,
			"0.017": 0.0,
			"0.018": 0.0,
			"0.019": 0.0,
			"0.02": 0.0,
			"0.021": 0.0,
			"0.022": 0.0,
			"0.023": 0.0,
			"0.024": 0.0,
			"0.025": 0.0
		}
	}
}
