{
	 "smiles": "CS(=O)(=O)CCC1=CC=C(N)C=C1", 
	 "Tm": 367.15, 
	 "num_atms": 26, 
	 "gaussian": { 
		 "optdone": 1, 
		 "sigma_profile": "yes", 
		 "theory": "DFT", 
		 "functional": "B3LYP", 
		 "basiset": "6-31G**", 
		 "properties": { 
			 "R2extent": 3919.9464, 
			 "electric_dipole_moment_norm": 3.66135960266, 
			 "electric_quadrupole_moment_norm": 25.0985438496, 
			 "total_energy": -954.125870337, 
			 "HOMO_LUMO_gap": 0.2026, 
			 "cosmo_polarized_energy": -20.79, 
			 "cosmo_cavitation_energy": 30.32, 
			 "cosmo_dispersion_energy": -22.44, 
			 "cosmo_repulsion_energy": 1.73, 
			 "cosmo_total_nonelectrostatic_energy": 9.61, 
			 "SMD_solvation_energy": 4.66 
		},
		"coords": [
			{
				"x": 1.5862566547,
				"y": -3.8148821504,
				"z": 0.4794089004,
				"element": "C" 
			},
			{
				"x": 1.3100630902,
				"y": -2.0502956905,
				"z": 0.766249053,
				"element": "S" 
			},
			{
				"x": 2.1744523114,
				"y": -1.3145220119,
				"z": -0.1739636198,
				"element": "O" 
			},
			{
				"x": 1.4217838568,
				"y": -1.8013327837,
				"z": 2.2134674755,
				"element": "O" 
			},
			{
				"x": -0.440220786,
				"y": -1.8283614839,
				"z": 0.3011338595,
				"element": "C" 
			},
			{
				"x": -0.9544642068,
				"y": -0.3980973191,
				"z": 0.6030853616,
				"element": "C" 
			},
			{
				"x": -1.0241587597,
				"y": 0.5289058981,
				"z": -0.5943338562,
				"element": "C" 
			},
			{
				"x": 0.1291763053,
				"y": 0.9995900283,
				"z": -1.2407235895,
				"element": "C" 
			},
			{
				"x": 0.042461206,
				"y": 1.8556269482,
				"z": -2.3337930036,
				"element": "C" 
			},
			{
				"x": -1.2056736784,
				"y": 2.2790366455,
				"z": -2.8233284869,
				"element": "C" 
			},
			{
				"x": -1.2916720188,
				"y": 3.0949523537,
				"z": -3.9550434761,
				"element": "N" 
			},
			{
				"x": -2.3626233086,
				"y": 1.8124258067,
				"z": -2.1798860124,
				"element": "C" 
			},
			{
				"x": -2.2639835404,
				"y": 0.9533378041,
				"z": -1.087483567,
				"element": "C" 
			},
			{
				"x": 0.9343070564,
				"y": -4.3994992556,
				"z": 1.1300177359,
				"element": "H" 
			},
			{
				"x": 1.4098205042,
				"y": -4.0438003687,
				"z": -0.5728238096,
				"element": "H" 
			},
			{
				"x": 2.6322307484,
				"y": -3.9982840815,
				"z": 0.7320340497,
				"element": "H" 
			},
			{
				"x": -0.5304077896,
				"y": -2.0811770286,
				"z": -0.7584894904,
				"element": "H" 
			},
			{
				"x": -0.977033475,
				"y": -2.5736641269,
				"z": 0.8957521111,
				"element": "H" 
			},
			{
				"x": -1.9588603836,
				"y": -0.5013695268,
				"z": 1.0256116241,
				"element": "H" 
			},
			{
				"x": -0.342381881,
				"y": 0.0319910777,
				"z": 1.4052969572,
				"element": "H" 
			},
			{
				"x": 1.1070107866,
				"y": 0.6822318491,
				"z": -0.8911588431,
				"element": "H" 
			},
			{
				"x": 0.9520098975,
				"y": 2.2021941196,
				"z": -2.8191037946,
				"element": "H" 
			},
			{
				"x": -2.1412704476,
				"y": 3.6383235336,
				"z": -4.0254476765,
				"element": "H" 
			},
			{
				"x": -0.4726914667,
				"y": 3.6598472078,
				"z": -4.1346152482,
				"element": "H" 
			},
			{
				"x": -3.3408364159,
				"y": 2.1224796732,
				"z": -2.539972729,
				"element": "H" 
			},
			{
				"x": -3.1774942594,
				"y": 0.6121428819,
				"z": -0.6047899253,
				"element": "H" 
			}
		],
		 "valence_orbital": [ 
			{
				"type": "occ",
				"energy": -0.29817,
				"method": "rhf"
			},
			{
				"type": "occ",
				"energy": -0.28954,
				"method": "rhf"
			},
			{
				"type": "occ",
				"energy": -0.28269,
				"method": "rhf"
			},
			{
				"type": "occ",
				"energy": -0.24115,
				"method": "rhf"
			},
			{
				"type": "occ",
				"energy": -0.19653,
				"method": "rhf"
			},
			{
				"type": "unocc",
				"energy": 0.00607,
				"method": "rhf"
			},
			{
				"type": "unocc",
				"energy": 0.01884,
				"method": "rhf"
			},
			{
				"type": "unocc",
				"energy": 0.05552,
				"method": "rhf"
			},
			{
				"type": "unocc",
				"energy": 0.07464,
				"method": "rhf"
			},
			{
				"type": "unocc",
				"energy": 0.0829,
				"method": "rhf"
			}
		],
		"cosmo_sigma_profile": { 
			"-0.025": 0.0,
			"-0.024": 0.0,
			"-0.023": 0.0,
			"-0.022": 0.0,
			"-0.021": 0.0,
			"-0.02": 0.0,
			"-0.019": 0.0,
			"-0.018": 0.0,
			"-0.017": 0.0,
			"-0.016": 0.0,
			"-0.015": 0.0,
			"-0.014": 0.0,
			"-0.013": 0.0598370324981,
			"-0.012": 1.84823543132,
			"-0.011": 3.12789772531,
			"-0.01": 4.88563924657,
			"-0.009": 7.48651618373,
			"-0.008": 13.034383883,
			"-0.007": 11.1849061194,
			"-0.006": 12.2652513288,
			"-0.005": 17.0841688471,
			"-0.004": 18.3562885294,
			"-0.003": 15.9289342146,
			"-0.002": 12.4308576369,
			"-0.001": 10.1789958496,
			"0.0": 9.31454923684,
			"0.001": 8.83665246446,
			"0.002": 8.01295792203,
			"0.003": 8.42945619221,
			"0.004": 9.3899430708,
			"0.005": 8.51818010272,
			"0.006": 11.5231724519,
			"0.007": 11.2871318636,
			"0.008": 5.22769302847,
			"0.009": 3.53601385008,
			"0.01": 3.68041003607,
			"0.011": 8.34895309424,
			"0.012": 10.5974137435,
			"0.013": 3.2836817696,
			"0.014": 0.813209190171,
			"0.015": 0.376255683985,
			"0.016": 0.0,
			"0.017": 0.0,
			"0.018": 0.0,
			"0.019": 0.0,
			"0.02": 0.0,
			"0.021": 0.0,
			"0.022": 0.0,
			"0.023": 0.0,
			"0.024": 0.0,
			"0.025": 0.0
		}
	}
}
