{
	 "smiles": "ClS(=O)(=O)N=C=O", 
	 "Tm": 229.15, 
	 "num_atms": 7, 
	 "gaussian": { 
		 "optdone": 1, 
		 "sigma_profile": "yes", 
		 "theory": "DFT", 
		 "functional": "B3LYP", 
		 "basiset": "6-31G**", 
		 "properties": { 
			 "R2extent": 1279.7055, 
			 "electric_dipole_moment_norm": 1.83040153791, 
			 "electric_quadrupole_moment_norm": 4.21636441618, 
			 "total_energy": -1176.81111945, 
			 "HOMO_LUMO_gap": 0.22427, 
			 "cosmo_polarized_energy": -5.56, 
			 "cosmo_cavitation_energy": 16.62, 
			 "cosmo_dispersion_energy": -12.83, 
			 "cosmo_repulsion_energy": 1.06, 
			 "cosmo_total_nonelectrostatic_energy": 4.84, 
			 "SMD_solvation_energy": 4.24 
		},
		"coords": [
			{
				"x": 0.7070047956,
				"y": 0.3768355421,
				"z": 1.8328121659,
				"element": "Cl" 
			},
			{
				"x": -0.018079097,
				"y": 0.6430938201,
				"z": -0.1060503833,
				"element": "S" 
			},
			{
				"x": -0.8781545958,
				"y": -0.4870029012,
				"z": -0.4059602331,
				"element": "O" 
			},
			{
				"x": 1.095299655,
				"y": 1.0364358544,
				"z": -0.9379574936,
				"element": "O" 
			},
			{
				"x": -0.9541830451,
				"y": 2.0285354211,
				"z": 0.132058378,
				"element": "N" 
			},
			{
				"x": -2.1719416729,
				"y": 2.0300288879,
				"z": 0.3340315167,
				"element": "C" 
			},
			{
				"x": -3.3109460398,
				"y": 2.1665733755,
				"z": 0.5226660495,
				"element": "O" 
			}
		],
		 "valence_orbital": [ 
			{
				"type": "occ",
				"energy": -0.38642,
				"method": "rhf"
			},
			{
				"type": "occ",
				"energy": -0.38121,
				"method": "rhf"
			},
			{
				"type": "occ",
				"energy": -0.35367,
				"method": "rhf"
			},
			{
				"type": "occ",
				"energy": -0.34546,
				"method": "rhf"
			},
			{
				"type": "occ",
				"energy": -0.34305,
				"method": "rhf"
			},
			{
				"type": "unocc",
				"energy": -0.11878,
				"method": "rhf"
			},
			{
				"type": "unocc",
				"energy": -0.06278,
				"method": "rhf"
			},
			{
				"type": "unocc",
				"energy": -0.01827,
				"method": "rhf"
			},
			{
				"type": "unocc",
				"energy": 0.03905,
				"method": "rhf"
			},
			{
				"type": "unocc",
				"energy": 0.06206,
				"method": "rhf"
			}
		],
		"cosmo_sigma_profile": { 
			"-0.025": 0.0,
			"-0.024": 0.0,
			"-0.023": 0.0,
			"-0.022": 0.0,
			"-0.021": 0.0,
			"-0.02": 0.0,
			"-0.019": 0.0,
			"-0.018": 0.0,
			"-0.017": 0.0,
			"-0.016": 0.0,
			"-0.015": 0.0,
			"-0.014": 0.0,
			"-0.013": 0.0,
			"-0.012": 0.150023444488,
			"-0.011": 0.657094512231,
			"-0.01": 1.84593770605,
			"-0.009": 1.7393159642,
			"-0.008": 3.54881131784,
			"-0.007": 6.04125615453,
			"-0.006": 5.05535815172,
			"-0.005": 6.65922745188,
			"-0.004": 7.44957306508,
			"-0.003": 7.32251598095,
			"-0.002": 7.80148015451,
			"-0.001": 8.80697318278,
			"0.0": 11.8964858978,
			"0.001": 17.200330934,
			"0.002": 10.3775156448,
			"0.003": 9.49802240037,
			"0.004": 7.97759541492,
			"0.005": 4.17586368079,
			"0.006": 9.9032140336,
			"0.007": 9.94801362481,
			"0.008": 0.200316071668,
			"0.009": 0.0,
			"0.01": 0.0,
			"0.011": 0.0,
			"0.012": 0.0,
			"0.013": 0.0,
			"0.014": 0.0,
			"0.015": 0.0,
			"0.016": 0.0,
			"0.017": 0.0,
			"0.018": 0.0,
			"0.019": 0.0,
			"0.02": 0.0,
			"0.021": 0.0,
			"0.022": 0.0,
			"0.023": 0.0,
			"0.024": 0.0,
			"0.025": 0.0
		}
	}
}
