{
	 "smiles": "CC1=C(C=CC(=N1)C1=CC(Br)=CC=C1)C(O)=O", 
	 "Tm": 455.15, 
	 "num_atms": 27, 
	 "gaussian": { 
		 "optdone": 1, 
		 "sigma_profile": "yes", 
		 "theory": "DFT", 
		 "functional": "B3LYP", 
		 "basiset": "6-31G**", 
		 "properties": { 
			 "R2extent": 10036.4219, 
			 "electric_dipole_moment_norm": 1.14908983983, 
			 "electric_quadrupole_moment_norm": 16.269919722, 
			 "total_energy": -3278.04458999, 
			 "HOMO_LUMO_gap": 0.1653, 
			 "cosmo_polarized_energy": -10.94, 
			 "cosmo_cavitation_energy": 34.09, 
			 "cosmo_dispersion_energy": -25.37, 
			 "cosmo_repulsion_energy": 1.94, 
			 "cosmo_total_nonelectrostatic_energy": 10.67, 
			 "SMD_solvation_energy": 4.81 
		},
		"coords": [
			{
				"x": -2.6927064606,
				"y": -0.3274658943,
				"z": -0.4043569249,
				"element": "C" 
			},
			{
				"x": -1.6965129231,
				"y": 0.3418814687,
				"z": 0.5067587309,
				"element": "C" 
			},
			{
				"x": -2.0468141394,
				"y": 1.3257610039,
				"z": 1.4660477482,
				"element": "C" 
			},
			{
				"x": -1.0203003623,
				"y": 1.8838590536,
				"z": 2.2399253697,
				"element": "C" 
			},
			{
				"x": 0.2891677351,
				"y": 1.4645917043,
				"z": 2.0662313348,
				"element": "C" 
			},
			{
				"x": 0.5541545458,
				"y": 0.4698241416,
				"z": 1.1124091286,
				"element": "C" 
			},
			{
				"x": -0.4274826766,
				"y": -0.0560727099,
				"z": 0.3573863685,
				"element": "N" 
			},
			{
				"x": 1.9246027386,
				"y": -0.0526238718,
				"z": 0.8633626134,
				"element": "C" 
			},
			{
				"x": 2.9676444282,
				"y": 0.1581436751,
				"z": 1.7803669482,
				"element": "C" 
			},
			{
				"x": 4.2382778047,
				"y": -0.3395475367,
				"z": 1.5095035716,
				"element": "C" 
			},
			{
				"x": 5.6416827418,
				"y": -0.0480331037,
				"z": 2.7772530516,
				"element": "Br" 
			},
			{
				"x": 4.5101787762,
				"y": -1.0500164516,
				"z": 0.3420574342,
				"element": "C" 
			},
			{
				"x": 3.4700092808,
				"y": -1.2652297054,
				"z": -0.5645407902,
				"element": "C" 
			},
			{
				"x": 2.1912541158,
				"y": -0.7779739543,
				"z": -0.3096328843,
				"element": "C" 
			},
			{
				"x": -3.4496379878,
				"y": 1.7709694255,
				"z": 1.6550491444,
				"element": "C" 
			},
			{
				"x": -3.567843438,
				"y": 2.725865554,
				"z": 2.6164424895,
				"element": "O" 
			},
			{
				"x": -4.4218115951,
				"y": 1.3630414776,
				"z": 1.048381695,
				"element": "O" 
			},
			{
				"x": -3.4611320538,
				"y": -0.85568809,
				"z": 0.1667986715,
				"element": "H" 
			},
			{
				"x": -2.1578055727,
				"y": -1.0301829234,
				"z": -1.0444936661,
				"element": "H" 
			},
			{
				"x": -3.2268651105,
				"y": 0.4041388247,
				"z": -1.0167661591,
				"element": "H" 
			},
			{
				"x": -1.2601234577,
				"y": 2.6492300653,
				"z": 2.9686944455,
				"element": "H" 
			},
			{
				"x": 1.0844372407,
				"y": 1.9165838158,
				"z": 2.6468258107,
				"element": "H" 
			},
			{
				"x": 2.7970217963,
				"y": 0.6846368776,
				"z": 2.7111643744,
				"element": "H" 
			},
			{
				"x": 5.5076818365,
				"y": -1.4282655304,
				"z": 0.1503178667,
				"element": "H" 
			},
			{
				"x": 3.6655356938,
				"y": -1.8191949069,
				"z": -1.4779548034,
				"element": "H" 
			},
			{
				"x": 1.3788918072,
				"y": -0.9478024724,
				"z": -1.0057991957,
				"element": "H" 
			},
			{
				"x": -4.5145047638,
				"y": 2.9388700635,
				"z": 2.6544676262,
				"element": "H" 
			}
		],
		 "valence_orbital": [ 
			{
				"type": "occ",
				"energy": -0.28442,
				"method": "rhf"
			},
			{
				"type": "occ",
				"energy": -0.28151,
				"method": "rhf"
			},
			{
				"type": "occ",
				"energy": -0.2641,
				"method": "rhf"
			},
			{
				"type": "occ",
				"energy": -0.25201,
				"method": "rhf"
			},
			{
				"type": "occ",
				"energy": -0.23973,
				"method": "rhf"
			},
			{
				"type": "unocc",
				"energy": -0.07443,
				"method": "rhf"
			},
			{
				"type": "unocc",
				"energy": -0.03115,
				"method": "rhf"
			},
			{
				"type": "unocc",
				"energy": -0.01309,
				"method": "rhf"
			},
			{
				"type": "unocc",
				"energy": -0.00969,
				"method": "rhf"
			},
			{
				"type": "unocc",
				"energy": 0.004,
				"method": "rhf"
			}
		],
		"cosmo_sigma_profile": { 
			"-0.025": 0.0,
			"-0.024": 0.0,
			"-0.023": 0.0,
			"-0.022": 0.0,
			"-0.021": 0.0,
			"-0.02": 0.0,
			"-0.019": 0.0186859146486,
			"-0.018": 0.600579531645,
			"-0.017": 1.08636987105,
			"-0.016": 0.781717488136,
			"-0.015": 0.690360150413,
			"-0.014": 0.474473233073,
			"-0.013": 1.16282069705,
			"-0.012": 0.492326622423,
			"-0.011": 1.05736107471,
			"-0.01": 0.979002237286,
			"-0.009": 2.09359542151,
			"-0.008": 3.29283232375,
			"-0.007": 7.12725019094,
			"-0.006": 9.46475980909,
			"-0.005": 10.7649302431,
			"-0.004": 14.2724472082,
			"-0.003": 17.5653899269,
			"-0.002": 19.0771433077,
			"-0.001": 22.5622333299,
			"0.0": 32.6712802565,
			"0.001": 27.8020563891,
			"0.002": 26.2160893999,
			"0.003": 25.1701116074,
			"0.004": 17.8823552039,
			"0.005": 9.91020738999,
			"0.006": 5.70689041621,
			"0.007": 4.61886544793,
			"0.008": 2.75406038556,
			"0.009": 2.42046979167,
			"0.01": 2.32618613147,
			"0.011": 3.57765304799,
			"0.012": 2.29757287337,
			"0.013": 0.0289334083646,
			"0.014": 0.0,
			"0.015": 0.0,
			"0.016": 0.0,
			"0.017": 0.0,
			"0.018": 0.0,
			"0.019": 0.0,
			"0.02": 0.0,
			"0.021": 0.0,
			"0.022": 0.0,
			"0.023": 0.0,
			"0.024": 0.0,
			"0.025": 0.0
		}
	}
}
