{
	 "smiles": "CC(=O)OC1=NC(=NN1C1=CC=CC=C1)C1CCCCC1", 
	 "Tm": 381.15, 
	 "num_atms": 40, 
	 "gaussian": { 
		 "optdone": 1, 
		 "sigma_profile": "yes", 
		 "theory": "DFT", 
		 "functional": "B3LYP", 
		 "basiset": "6-31G**", 
		 "properties": { 
			 "R2extent": 8240.4644, 
			 "electric_dipole_moment_norm": 3.09833232078, 
			 "electric_quadrupole_moment_norm": 19.8084717649, 
			 "total_energy": -935.86561257, 
			 "HOMO_LUMO_gap": 0.20554, 
			 "cosmo_polarized_energy": -12.56, 
			 "cosmo_cavitation_energy": 42.95, 
			 "cosmo_dispersion_energy": -29.82, 
			 "cosmo_repulsion_energy": 2.33, 
			 "cosmo_total_nonelectrostatic_energy": 15.47, 
			 "SMD_solvation_energy": 5.14 
		},
		"coords": [
			{
				"x": 3.0915085646,
				"y": -1.2099570785,
				"z": 3.8635171191,
				"element": "C" 
			},
			{
				"x": 2.6693803593,
				"y": -1.0595510993,
				"z": 2.4288935465,
				"element": "C" 
			},
			{
				"x": 3.3711583157,
				"y": -0.9917361073,
				"z": 1.4595217535,
				"element": "O" 
			},
			{
				"x": 1.2743417333,
				"y": -1.014008705,
				"z": 2.3571340815,
				"element": "O" 
			},
			{
				"x": 0.7275200872,
				"y": -0.7578398882,
				"z": 1.134384341,
				"element": "C" 
			},
			{
				"x": 0.5547367888,
				"y": 0.4293815039,
				"z": 0.6120731527,
				"element": "N" 
			},
			{
				"x": -0.0507870284,
				"y": 0.1429532286,
				"z": -0.5855967918,
				"element": "C" 
			},
			{
				"x": -0.2550012649,
				"y": -1.1479238442,
				"z": -0.8042879749,
				"element": "N" 
			},
			{
				"x": 0.2483867654,
				"y": -1.7409507765,
				"z": 0.3256557343,
				"element": "N" 
			},
			{
				"x": 0.2607289998,
				"y": -3.1564534387,
				"z": 0.4656155849,
				"element": "C" 
			},
			{
				"x": 0.1497539267,
				"y": -3.7515729735,
				"z": 1.7269235869,
				"element": "C" 
			},
			{
				"x": 0.1684951882,
				"y": -5.142753636,
				"z": 1.8290489533,
				"element": "C" 
			},
			{
				"x": 0.2777006001,
				"y": -5.9366731132,
				"z": 0.6866524168,
				"element": "C" 
			},
			{
				"x": 0.3686568384,
				"y": -5.3308946245,
				"z": -0.5687289342,
				"element": "C" 
			},
			{
				"x": 0.3647237819,
				"y": -3.9428787471,
				"z": -0.686548392,
				"element": "C" 
			},
			{
				"x": -0.4717710464,
				"y": 1.2004453482,
				"z": -1.5607269782,
				"element": "C" 
			},
			{
				"x": 0.7402400984,
				"y": 2.0611324627,
				"z": -2.0209923484,
				"element": "C" 
			},
			{
				"x": 0.3199174016,
				"y": 3.4672235641,
				"z": -2.5085720748,
				"element": "C" 
			},
			{
				"x": -1.0848628389,
				"y": 3.4471555925,
				"z": -3.1239141478,
				"element": "C" 
			},
			{
				"x": -2.1445810508,
				"y": 3.0567893627,
				"z": -2.0661794244,
				"element": "C" 
			},
			{
				"x": -1.5781760342,
				"y": 2.1091159803,
				"z": -0.9822680849,
				"element": "C" 
			},
			{
				"x": 4.1777765744,
				"y": -1.2702789929,
				"z": 3.9148921313,
				"element": "H" 
			},
			{
				"x": 2.7336251207,
				"y": -0.3557971152,
				"z": 4.4456006369,
				"element": "H" 
			},
			{
				"x": 2.6441564712,
				"y": -2.1111244144,
				"z": 4.2928749315,
				"element": "H" 
			},
			{
				"x": 0.0376776446,
				"y": -3.1361411637,
				"z": 2.611294801,
				"element": "H" 
			},
			{
				"x": 0.08205245,
				"y": -5.604818926,
				"z": 2.8080675402,
				"element": "H" 
			},
			{
				"x": 0.2860090063,
				"y": -7.018945127,
				"z": 0.772940817,
				"element": "H" 
			},
			{
				"x": 0.4488839235,
				"y": -5.940695151,
				"z": -1.4636674027,
				"element": "H" 
			},
			{
				"x": 0.4328149191,
				"y": -3.4558997551,
				"z": -1.6516957248,
				"element": "H" 
			},
			{
				"x": -0.8869136308,
				"y": 0.6661260502,
				"z": -2.4235333698,
				"element": "H" 
			},
			{
				"x": 1.2658840957,
				"y": 1.5251205766,
				"z": -2.8199884186,
				"element": "H" 
			},
			{
				"x": 1.4456996722,
				"y": 2.1543506149,
				"z": -1.1890993621,
				"element": "H" 
			},
			{
				"x": 1.0546639701,
				"y": 3.8456386645,
				"z": -3.2281009511,
				"element": "H" 
			},
			{
				"x": 0.327954905,
				"y": 4.1712229863,
				"z": -1.6662845007,
				"element": "H" 
			},
			{
				"x": -1.0995301374,
				"y": 2.7257054129,
				"z": -3.9516624712,
				"element": "H" 
			},
			{
				"x": -1.3314471599,
				"y": 4.4197833866,
				"z": -3.5643423631,
				"element": "H" 
			},
			{
				"x": -2.9990242433,
				"y": 2.5830683396,
				"z": -2.5640438935,
				"element": "H" 
			},
			{
				"x": -2.5348066487,
				"y": 3.9590343441,
				"z": -1.5802138836,
				"element": "H" 
			},
			{
				"x": -1.1508048397,
				"y": 2.6835690683,
				"z": -0.1520528393,
				"element": "H" 
			},
			{
				"x": -2.3821422786,
				"y": 1.5008781903,
				"z": -0.5537907966,
				"element": "H" 
			}
		],
		 "valence_orbital": [ 
			{
				"type": "occ",
				"energy": -0.29071,
				"method": "rhf"
			},
			{
				"type": "occ",
				"energy": -0.27562,
				"method": "rhf"
			},
			{
				"type": "occ",
				"energy": -0.26473,
				"method": "rhf"
			},
			{
				"type": "occ",
				"energy": -0.26062,
				"method": "rhf"
			},
			{
				"type": "occ",
				"energy": -0.23327,
				"method": "rhf"
			},
			{
				"type": "unocc",
				"energy": -0.02773,
				"method": "rhf"
			},
			{
				"type": "unocc",
				"energy": -0.01206,
				"method": "rhf"
			},
			{
				"type": "unocc",
				"energy": -0.01093,
				"method": "rhf"
			},
			{
				"type": "unocc",
				"energy": 0.03047,
				"method": "rhf"
			},
			{
				"type": "unocc",
				"energy": 0.05318,
				"method": "rhf"
			}
		],
		"cosmo_sigma_profile": { 
			"-0.025": 0.0,
			"-0.024": 0.0,
			"-0.023": 0.0,
			"-0.022": 0.0,
			"-0.021": 0.0,
			"-0.02": 0.0,
			"-0.019": 0.0,
			"-0.018": 0.0,
			"-0.017": 0.0,
			"-0.016": 0.0,
			"-0.015": 0.0,
			"-0.014": 0.0,
			"-0.013": 0.0,
			"-0.012": 0.0,
			"-0.011": 0.0,
			"-0.01": 0.0,
			"-0.009": 0.0,
			"-0.008": 1.38534351187,
			"-0.007": 6.90167084168,
			"-0.006": 16.0344345603,
			"-0.005": 19.1616388653,
			"-0.004": 19.1432897412,
			"-0.003": 27.4021638676,
			"-0.002": 41.4008258658,
			"-0.001": 44.2247287466,
			"0.0": 34.9001548927,
			"0.001": 34.5836718591,
			"0.002": 16.8253987581,
			"0.003": 16.8386135196,
			"0.004": 17.3650660293,
			"0.005": 8.37345209801,
			"0.006": 5.76969098396,
			"0.007": 5.23203207067,
			"0.008": 4.63904259518,
			"0.009": 4.87913053539,
			"0.01": 6.70866388881,
			"0.011": 3.36517295619,
			"0.012": 1.15285623567,
			"0.013": 1.65557462295,
			"0.014": 0.735598004353,
			"0.015": 0.374337463778,
			"0.016": 0.0,
			"0.017": 0.0,
			"0.018": 0.0,
			"0.019": 0.0,
			"0.02": 0.0,
			"0.021": 0.0,
			"0.022": 0.0,
			"0.023": 0.0,
			"0.024": 0.0,
			"0.025": 0.0
		}
	}
}
