{
	 "smiles": "CCN(CC)C1=CC=C(C=C1)N(=O)=O", 
	 "Tm": 350.65, 
	 "num_atms": 28, 
	 "gaussian": { 
		 "optdone": 1, 
		 "sigma_profile": "yes", 
		 "theory": "DFT", 
		 "functional": "B3LYP", 
		 "basiset": "6-31G**", 
		 "properties": { 
			 "R2extent": 4351.8912, 
			 "electric_dipole_moment_norm": 8.07234160947, 
			 "electric_quadrupole_moment_norm": 23.6292948873, 
			 "total_energy": -649.357689726, 
			 "HOMO_LUMO_gap": 0.14572, 
			 "cosmo_polarized_energy": -12.47, 
			 "cosmo_cavitation_energy": 30.48, 
			 "cosmo_dispersion_energy": -22.2, 
			 "cosmo_repulsion_energy": 1.73, 
			 "cosmo_total_nonelectrostatic_energy": 10.01, 
			 "SMD_solvation_energy": 7.08 
		},
		"coords": [
			{
				"x": 1.0738431043,
				"y": 0.4342627607,
				"z": 3.208289992,
				"element": "C" 
			},
			{
				"x": 0.1920084657,
				"y": 1.0443638933,
				"z": 2.1111710804,
				"element": "C" 
			},
			{
				"x": -0.2154768964,
				"y": 0.109372103,
				"z": 1.0543298623,
				"element": "N" 
			},
			{
				"x": -1.582154474,
				"y": -0.4143060876,
				"z": 1.1314591789,
				"element": "C" 
			},
			{
				"x": -1.9377522057,
				"y": -1.0341045929,
				"z": 2.4862216261,
				"element": "C" 
			},
			{
				"x": 0.5190683462,
				"y": 0.0331505792,
				"z": -0.1158484961,
				"element": "C" 
			},
			{
				"x": 1.8697928651,
				"y": 0.4762799215,
				"z": -0.1517275625,
				"element": "C" 
			},
			{
				"x": 2.6278983619,
				"y": 0.3973349187,
				"z": -1.3069811499,
				"element": "C" 
			},
			{
				"x": 2.0658222472,
				"y": -0.1281343335,
				"z": -2.4718042015,
				"element": "C" 
			},
			{
				"x": 0.7408075826,
				"y": -0.5651437185,
				"z": -2.4783820351,
				"element": "C" 
			},
			{
				"x": -0.0214020842,
				"y": -0.4816082611,
				"z": -1.3246606122,
				"element": "C" 
			},
			{
				"x": 2.861902031,
				"y": -0.2145773659,
				"z": -3.6836786134,
				"element": "N" 
			},
			{
				"x": 2.330496459,
				"y": -0.6903962332,
				"z": -4.6920717913,
				"element": "O" 
			},
			{
				"x": 4.0272608875,
				"y": 0.1925493358,
				"z": -3.6399873432,
				"element": "O" 
			},
			{
				"x": 1.3520129224,
				"y": 1.2039768562,
				"z": 3.9364929041,
				"element": "H" 
			},
			{
				"x": 0.5520246619,
				"y": -0.3647690049,
				"z": 3.7407387639,
				"element": "H" 
			},
			{
				"x": 1.9928781741,
				"y": 0.010420922,
				"z": 2.7942451073,
				"element": "H" 
			},
			{
				"x": -0.7192472112,
				"y": 1.4544471342,
				"z": 2.5600648618,
				"element": "H" 
			},
			{
				"x": 0.7041327177,
				"y": 1.8949042195,
				"z": 1.6490389925,
				"element": "H" 
			},
			{
				"x": -2.3111748525,
				"y": 0.3744863294,
				"z": 0.8829283262,
				"element": "H" 
			},
			{
				"x": -1.6900405623,
				"y": -1.1954119543,
				"z": 0.3793618115,
				"element": "H" 
			},
			{
				"x": -2.9550166291,
				"y": -1.4354411354,
				"z": 2.438816561,
				"element": "H" 
			},
			{
				"x": -1.9123646614,
				"y": -0.3088541115,
				"z": 3.3040908429,
				"element": "H" 
			},
			{
				"x": -1.2578729881,
				"y": -1.8552711899,
				"z": 2.7313558636,
				"element": "H" 
			},
			{
				"x": 2.3403029293,
				"y": 0.8633067394,
				"z": 0.7424340646,
				"element": "H" 
			},
			{
				"x": 3.6589297911,
				"y": 0.7287582819,
				"z": -1.320921958,
				"element": "H" 
			},
			{
				"x": 0.3175457463,
				"y": -0.951833779,
				"z": -3.3973262389,
				"element": "H" 
			},
			{
				"x": -1.0562247285,
				"y": -0.7917622269,
				"z": -1.3801498369,
				"element": "H" 
			}
		],
		 "valence_orbital": [ 
			{
				"type": "occ",
				"energy": -0.28829,
				"method": "rhf"
			},
			{
				"type": "occ",
				"energy": -0.28722,
				"method": "rhf"
			},
			{
				"type": "occ",
				"energy": -0.26878,
				"method": "rhf"
			},
			{
				"type": "occ",
				"energy": -0.26649,
				"method": "rhf"
			},
			{
				"type": "occ",
				"energy": -0.21252,
				"method": "rhf"
			},
			{
				"type": "unocc",
				"energy": -0.0668,
				"method": "rhf"
			},
			{
				"type": "unocc",
				"energy": -0.01548,
				"method": "rhf"
			},
			{
				"type": "unocc",
				"energy": 0.02491,
				"method": "rhf"
			},
			{
				"type": "unocc",
				"energy": 0.06742,
				"method": "rhf"
			},
			{
				"type": "unocc",
				"energy": 0.08963,
				"method": "rhf"
			}
		],
		"cosmo_sigma_profile": { 
			"-0.025": 0.0,
			"-0.024": 0.0,
			"-0.023": 0.0,
			"-0.022": 0.0,
			"-0.021": 0.0,
			"-0.02": 0.0,
			"-0.019": 0.0,
			"-0.018": 0.0,
			"-0.017": 0.0,
			"-0.016": 0.0,
			"-0.015": 0.0,
			"-0.014": 0.0,
			"-0.013": 0.0,
			"-0.012": 0.0,
			"-0.011": 0.0,
			"-0.01": 0.0,
			"-0.009": 0.0,
			"-0.008": 1.05671095055,
			"-0.007": 3.86415567379,
			"-0.006": 9.37528233791,
			"-0.005": 13.7811606168,
			"-0.004": 22.0887101695,
			"-0.003": 30.8570579002,
			"-0.002": 27.7446367162,
			"-0.001": 20.5265677827,
			"0.0": 22.6422918492,
			"0.001": 18.3601513408,
			"0.002": 13.1794009385,
			"0.003": 15.3025166404,
			"0.004": 7.70110359488,
			"0.005": 2.8880928381,
			"0.006": 2.15732617054,
			"0.007": 3.64837031778,
			"0.008": 5.34708173188,
			"0.009": 10.8561916395,
			"0.01": 4.45024664749,
			"0.011": 4.18896855756,
			"0.012": 0.824225372763,
			"0.013": 0.0,
			"0.014": 0.0,
			"0.015": 0.0,
			"0.016": 0.0,
			"0.017": 0.0,
			"0.018": 0.0,
			"0.019": 0.0,
			"0.02": 0.0,
			"0.021": 0.0,
			"0.022": 0.0,
			"0.023": 0.0,
			"0.024": 0.0,
			"0.025": 0.0
		}
	}
}
