{
	 "smiles": "CCCC(=O)C1=CC2=CC(Br)=CC(Br)=C2OC1=O", 
	 "Tm": 474.15, 
	 "num_atms": 28, 
	 "gaussian": { 
		 "optdone": 1, 
		 "sigma_profile": "yes", 
		 "theory": "DFT", 
		 "functional": "B3LYP", 
		 "basiset": "6-31G**", 
		 "properties": { 
			 "R2extent": 13437.1368, 
			 "electric_dipole_moment_norm": 2.0361018172, 
			 "electric_quadrupole_moment_norm": 8.72028577055, 
			 "total_energy": -5869.89535234, 
			 "HOMO_LUMO_gap": 0.14622, 
			 "cosmo_polarized_energy": -11.68, 
			 "cosmo_cavitation_energy": 37.43, 
			 "cosmo_dispersion_energy": -27.62, 
			 "cosmo_repulsion_energy": 2.14, 
			 "cosmo_total_nonelectrostatic_energy": 11.95, 
			 "SMD_solvation_energy": 5.37 
		},
		"coords": [
			{
				"x": -3.2994105802,
				"y": -1.8029964649,
				"z": -2.4557806721,
				"element": "C" 
			},
			{
				"x": -2.6664896212,
				"y": -1.2210550047,
				"z": -1.1888203715,
				"element": "C" 
			},
			{
				"x": -2.3161040536,
				"y": 0.2754600158,
				"z": -1.3550695004,
				"element": "C" 
			},
			{
				"x": -1.7348537143,
				"y": 0.8587929751,
				"z": -0.085486903,
				"element": "C" 
			},
			{
				"x": -2.4406181016,
				"y": 1.4712233828,
				"z": 0.7032076151,
				"element": "O" 
			},
			{
				"x": -0.2695516872,
				"y": 0.680623376,
				"z": 0.263179612,
				"element": "C" 
			},
			{
				"x": 0.1604206252,
				"y": 1.2227386776,
				"z": 1.4363841536,
				"element": "C" 
			},
			{
				"x": 1.523005106,
				"y": 1.138086449,
				"z": 1.8711058665,
				"element": "C" 
			},
			{
				"x": 1.9807293352,
				"y": 1.6930994208,
				"z": 3.0813791156,
				"element": "C" 
			},
			{
				"x": 3.3161905619,
				"y": 1.5672216897,
				"z": 3.4225235951,
				"element": "C" 
			},
			{
				"x": 3.9557042887,
				"y": 2.311354155,
				"z": 5.0554043725,
				"element": "Br" 
			},
			{
				"x": 4.2169915116,
				"y": 0.8973458836,
				"z": 2.5831186787,
				"element": "C" 
			},
			{
				"x": 3.7730347042,
				"y": 0.346387716,
				"z": 1.3862668671,
				"element": "C" 
			},
			{
				"x": 4.9935113546,
				"y": -0.5588215022,
				"z": 0.2543995965,
				"element": "Br" 
			},
			{
				"x": 2.4230455939,
				"y": 0.4633077257,
				"z": 1.0230950399,
				"element": "C" 
			},
			{
				"x": 2.0090851005,
				"y": -0.079028552,
				"z": -0.14383581,
				"element": "O" 
			},
			{
				"x": 0.6822645919,
				"y": -0.0280821688,
				"z": -0.601864055,
				"element": "C" 
			},
			{
				"x": 0.4641130514,
				"y": -0.5741203706,
				"z": -1.6561155204,
				"element": "O" 
			},
			{
				"x": -3.5549548633,
				"y": -2.8583716975,
				"z": -2.3166205796,
				"element": "H" 
			},
			{
				"x": -4.217874301,
				"y": -1.268863324,
				"z": -2.723644085,
				"element": "H" 
			},
			{
				"x": -2.6107758813,
				"y": -1.7344192919,
				"z": -3.3045560262,
				"element": "H" 
			},
			{
				"x": -1.7576668403,
				"y": -1.7816185731,
				"z": -0.9465283414,
				"element": "H" 
			},
			{
				"x": -3.3536121006,
				"y": -1.3317976719,
				"z": -0.3410745865,
				"element": "H" 
			},
			{
				"x": -1.6163010096,
				"y": 0.3861256973,
				"z": -2.1866628707,
				"element": "H" 
			},
			{
				"x": -3.2274245863,
				"y": 0.84387148,
				"z": -1.5640221793,
				"element": "H" 
			},
			{
				"x": -0.5745500736,
				"y": 1.7372300613,
				"z": 2.0502699947,
				"element": "H" 
			},
			{
				"x": 1.2856326988,
				"y": 2.2118691022,
				"z": 3.7315354045,
				"element": "H" 
			},
			{
				"x": 5.2591588902,
				"y": 0.8061368135,
				"z": 2.8619115892,
				"element": "H" 
			}
		],
		 "valence_orbital": [ 
			{
				"type": "occ",
				"energy": -0.2987,
				"method": "rhf"
			},
			{
				"type": "occ",
				"energy": -0.29657,
				"method": "rhf"
			},
			{
				"type": "occ",
				"energy": -0.26803,
				"method": "rhf"
			},
			{
				"type": "occ",
				"energy": -0.26128,
				"method": "rhf"
			},
			{
				"type": "occ",
				"energy": -0.25368,
				"method": "rhf"
			},
			{
				"type": "unocc",
				"energy": -0.10746,
				"method": "rhf"
			},
			{
				"type": "unocc",
				"energy": -0.0457,
				"method": "rhf"
			},
			{
				"type": "unocc",
				"energy": -0.03101,
				"method": "rhf"
			},
			{
				"type": "unocc",
				"energy": -0.02521,
				"method": "rhf"
			},
			{
				"type": "unocc",
				"energy": -0.01778,
				"method": "rhf"
			}
		],
		"cosmo_sigma_profile": { 
			"-0.025": 0.0,
			"-0.024": 0.0,
			"-0.023": 0.0,
			"-0.022": 0.0,
			"-0.021": 0.0,
			"-0.02": 0.0,
			"-0.019": 0.0,
			"-0.018": 0.0,
			"-0.017": 0.0,
			"-0.016": 0.0,
			"-0.015": 0.0,
			"-0.014": 0.0,
			"-0.013": 0.0,
			"-0.012": 0.0,
			"-0.011": 0.263865341109,
			"-0.01": 2.19534733937,
			"-0.009": 4.05027199859,
			"-0.008": 4.68558770377,
			"-0.007": 4.26320813848,
			"-0.006": 7.67759466138,
			"-0.005": 12.4870637264,
			"-0.004": 17.2004844089,
			"-0.003": 30.4615593462,
			"-0.002": 38.0157207693,
			"-0.001": 36.29531983,
			"0.0": 33.4983948812,
			"0.001": 23.6826367456,
			"0.002": 15.9753433176,
			"0.003": 21.7828672195,
			"0.004": 16.161518091,
			"0.005": 4.35472608453,
			"0.006": 4.81273877681,
			"0.007": 4.50076551349,
			"0.008": 3.59861044944,
			"0.009": 4.70477116137,
			"0.01": 4.59658477273,
			"0.011": 6.6304208404,
			"0.012": 3.54405432659,
			"0.013": 0.670198616228,
			"0.014": 0.0,
			"0.015": 0.0,
			"0.016": 0.0,
			"0.017": 0.0,
			"0.018": 0.0,
			"0.019": 0.0,
			"0.02": 0.0,
			"0.021": 0.0,
			"0.022": 0.0,
			"0.023": 0.0,
			"0.024": 0.0,
			"0.025": 0.0
		}
	}
}
