{
	 "smiles": "CCC1=CC=CC=C1C(=O)N(NC(=O)C1=CC=CC=C1)C(C)(C)C", 
	 "Tm": 451.15, 
	 "num_atms": 48, 
	 "gaussian": { 
		 "optdone": 1, 
		 "sigma_profile": "yes", 
		 "theory": "DFT", 
		 "functional": "B3LYP", 
		 "basiset": "6-31G**", 
		 "properties": { 
			 "R2extent": 8142.1089, 
			 "electric_dipole_moment_norm": 5.45522571669, 
			 "electric_quadrupole_moment_norm": 25.275398987, 
			 "total_energy": -1036.53884146, 
			 "HOMO_LUMO_gap": 0.20849, 
			 "cosmo_polarized_energy": -18.24, 
			 "cosmo_cavitation_energy": 47.75, 
			 "cosmo_dispersion_energy": -30.35, 
			 "cosmo_repulsion_energy": 2.26, 
			 "cosmo_total_nonelectrostatic_energy": 19.67, 
			 "SMD_solvation_energy": 9.36 
		},
		"coords": [
			{
				"x": -1.0470583282,
				"y": 2.2757530467,
				"z": -2.2859345827,
				"element": "C" 
			},
			{
				"x": -0.0058181799,
				"y": 1.7969657137,
				"z": -1.2722781032,
				"element": "C" 
			},
			{
				"x": 1.4463145681,
				"y": 1.8516997367,
				"z": -1.7159961028,
				"element": "C" 
			},
			{
				"x": 1.8259790551,
				"y": 2.3243327417,
				"z": -2.9774346902,
				"element": "C" 
			},
			{
				"x": 3.1684943814,
				"y": 2.4204502137,
				"z": -3.3516057867,
				"element": "C" 
			},
			{
				"x": 4.1696349611,
				"y": 2.062178998,
				"z": -2.4521554441,
				"element": "C" 
			},
			{
				"x": 3.8145550479,
				"y": 1.5856539198,
				"z": -1.1896904419,
				"element": "C" 
			},
			{
				"x": 2.469718522,
				"y": 1.4445647375,
				"z": -0.8320160462,
				"element": "C" 
			},
			{
				"x": 2.146332156,
				"y": 1.034378925,
				"z": 0.5834690784,
				"element": "C" 
			},
			{
				"x": 2.088012845,
				"y": 1.9027304076,
				"z": 1.4438828535,
				"element": "O" 
			},
			{
				"x": 1.8568350528,
				"y": -0.3029021331,
				"z": 0.9140563597,
				"element": "N" 
			},
			{
				"x": 1.7162003432,
				"y": -0.493548991,
				"z": 2.3044797316,
				"element": "N" 
			},
			{
				"x": 0.7156020151,
				"y": 0.1501493245,
				"z": 3.0468519455,
				"element": "C" 
			},
			{
				"x": 0.9369104724,
				"y": 0.3982207365,
				"z": 4.221428222,
				"element": "O" 
			},
			{
				"x": -0.6103371837,
				"y": 0.4517895346,
				"z": 2.4199256942,
				"element": "C" 
			},
			{
				"x": -1.2443657002,
				"y": 1.6350486517,
				"z": 2.8251496645,
				"element": "C" 
			},
			{
				"x": -2.5061320134,
				"y": 1.9607760542,
				"z": 2.3331811668,
				"element": "C" 
			},
			{
				"x": -3.1611136205,
				"y": 1.0927044796,
				"z": 1.4548172238,
				"element": "C" 
			},
			{
				"x": -2.5463466157,
				"y": -0.1001140529,
				"z": 1.0695694883,
				"element": "C" 
			},
			{
				"x": -1.2716814281,
				"y": -0.4162148762,
				"z": 1.5432880199,
				"element": "C" 
			},
			{
				"x": 2.3335122694,
				"y": -1.5500754742,
				"z": 0.1911958264,
				"element": "C" 
			},
			{
				"x": 2.0201843133,
				"y": -1.5002172756,
				"z": -1.3154964179,
				"element": "C" 
			},
			{
				"x": 3.8487745205,
				"y": -1.7248199609,
				"z": 0.4206819837,
				"element": "C" 
			},
			{
				"x": 1.5969147268,
				"y": -2.7747896004,
				"z": 0.7674138485,
				"element": "C" 
			},
			{
				"x": -2.0477051889,
				"y": 2.1940795247,
				"z": -1.8518844138,
				"element": "H" 
			},
			{
				"x": -1.0326632216,
				"y": 1.6762712864,
				"z": -3.202720394,
				"element": "H" 
			},
			{
				"x": -0.8920397237,
				"y": 3.3230118375,
				"z": -2.5658003897,
				"element": "H" 
			},
			{
				"x": -0.2504094474,
				"y": 0.772029409,
				"z": -0.9688983001,
				"element": "H" 
			},
			{
				"x": -0.1004018715,
				"y": 2.3887997112,
				"z": -0.3533557208,
				"element": "H" 
			},
			{
				"x": 1.0614971869,
				"y": 2.6349997844,
				"z": -3.6814462134,
				"element": "H" 
			},
			{
				"x": 3.4270715748,
				"y": 2.7910026508,
				"z": -4.3394455513,
				"element": "H" 
			},
			{
				"x": 5.2169388917,
				"y": 2.1593162634,
				"z": -2.7220091214,
				"element": "H" 
			},
			{
				"x": 4.5892523064,
				"y": 1.3304111377,
				"z": -0.4724064744,
				"element": "H" 
			},
			{
				"x": 2.5909086412,
				"y": -0.3926838703,
				"z": 2.8175742758,
				"element": "H" 
			},
			{
				"x": -0.7308270764,
				"y": 2.2864240897,
				"z": 3.5237848884,
				"element": "H" 
			},
			{
				"x": -2.9838402028,
				"y": 2.8860784576,
				"z": 2.6417854916,
				"element": "H" 
			},
			{
				"x": -4.1506600576,
				"y": 1.3403138827,
				"z": 1.0809245855,
				"element": "H" 
			},
			{
				"x": -3.0601925233,
				"y": -0.7878747902,
				"z": 0.4039047929,
				"element": "H" 
			},
			{
				"x": -0.804331834,
				"y": -1.3487432396,
				"z": 1.2533457695,
				"element": "H" 
			},
			{
				"x": 0.9694011285,
				"y": -1.2523165957,
				"z": -1.4883200884,
				"element": "H" 
			},
			{
				"x": 2.6406708054,
				"y": -0.7938902035,
				"z": -1.8630007605,
				"element": "H" 
			},
			{
				"x": 2.2016824736,
				"y": -2.4951758824,
				"z": -1.7338992502,
				"element": "H" 
			},
			{
				"x": 4.0837886786,
				"y": -1.7996703101,
				"z": 1.4876452902,
				"element": "H" 
			},
			{
				"x": 4.413593673,
				"y": -0.8911773524,
				"z": -0.0035493336,
				"element": "H" 
			},
			{
				"x": 4.2000930367,
				"y": -2.644488191,
				"z": -0.0578192042,
				"element": "H" 
			},
			{
				"x": 1.9898443236,
				"y": -3.673011502,
				"z": 0.2821961901,
				"element": "H" 
			},
			{
				"x": 0.5253182147,
				"y": -2.729832206,
				"z": 0.556122956,
				"element": "H" 
			},
			{
				"x": 1.7335880317,
				"y": -2.8742887494,
				"z": 1.8438874847,
				"element": "H" 
			}
		],
		 "valence_orbital": [ 
			{
				"type": "occ",
				"energy": -0.25713,
				"method": "rhf"
			},
			{
				"type": "occ",
				"energy": -0.25143,
				"method": "rhf"
			},
			{
				"type": "occ",
				"energy": -0.24842,
				"method": "rhf"
			},
			{
				"type": "occ",
				"energy": -0.2423,
				"method": "rhf"
			},
			{
				"type": "occ",
				"energy": -0.23879,
				"method": "rhf"
			},
			{
				"type": "unocc",
				"energy": -0.0303,
				"method": "rhf"
			},
			{
				"type": "unocc",
				"energy": -0.01388,
				"method": "rhf"
			},
			{
				"type": "unocc",
				"energy": -0.00671,
				"method": "rhf"
			},
			{
				"type": "unocc",
				"energy": -0.00311,
				"method": "rhf"
			},
			{
				"type": "unocc",
				"energy": 0.00187,
				"method": "rhf"
			}
		],
		"cosmo_sigma_profile": { 
			"-0.025": 0.0,
			"-0.024": 0.0,
			"-0.023": 0.0,
			"-0.022": 0.0,
			"-0.021": 0.0,
			"-0.02": 0.0,
			"-0.019": 0.0,
			"-0.018": 0.0,
			"-0.017": 0.0,
			"-0.016": 0.0,
			"-0.015": 0.0,
			"-0.014": 0.0,
			"-0.013": 0.247845965727,
			"-0.012": 0.580057714366,
			"-0.011": 1.07701917667,
			"-0.01": 1.47404408322,
			"-0.009": 1.18749286547,
			"-0.008": 1.72435526236,
			"-0.007": 3.94374879641,
			"-0.006": 15.5370463685,
			"-0.005": 22.1488766333,
			"-0.004": 33.1686162757,
			"-0.003": 34.6813908546,
			"-0.002": 35.4197772396,
			"-0.001": 39.0481155848,
			"0.0": 42.9284738059,
			"0.001": 34.0710451743,
			"0.002": 23.8812247982,
			"0.003": 19.8429755932,
			"0.004": 17.2348495626,
			"0.005": 11.3550959967,
			"0.006": 4.3928917171,
			"0.007": 2.83019860833,
			"0.008": 3.81000889935,
			"0.009": 3.4743715282,
			"0.01": 3.76397112071,
			"0.011": 3.83877768026,
			"0.012": 7.62983975969,
			"0.013": 6.13654142409,
			"0.014": 0.949266627599,
			"0.015": 0.0,
			"0.016": 0.0,
			"0.017": 0.0,
			"0.018": 0.0,
			"0.019": 0.0,
			"0.02": 0.0,
			"0.021": 0.0,
			"0.022": 0.0,
			"0.023": 0.0,
			"0.024": 0.0,
			"0.025": 0.0
		}
	}
}
