{
	 "smiles": "CCCCCCCCCCCCCN", 
	 "Tm": 300.55, 
	 "num_atms": 43, 
	 "gaussian": { 
		 "optdone": 1, 
		 "sigma_profile": "yes", 
		 "theory": "DFT", 
		 "functional": "B3LYP", 
		 "basiset": "6-31G**", 
		 "properties": { 
			 "R2extent": 6675.1077, 
			 "electric_dipole_moment_norm": 1.43174490046, 
			 "electric_quadrupole_moment_norm": 10.1013573202, 
			 "total_energy": -567.638332694, 
			 "HOMO_LUMO_gap": 0.29772, 
			 "cosmo_polarized_energy": -5.14, 
			 "cosmo_cavitation_energy": 41.42, 
			 "cosmo_dispersion_energy": -28.58, 
			 "cosmo_repulsion_energy": 2.35, 
			 "cosmo_total_nonelectrostatic_energy": 15.19, 
			 "SMD_solvation_energy": 4.16 
		},
		"coords": [
			{
				"x": 1.1140292187,
				"y": 5.0607935954,
				"z": 3.246731235,
				"element": "C" 
			},
			{
				"x": 1.0359236753,
				"y": 4.1731348001,
				"z": 2.0000208395,
				"element": "C" 
			},
			{
				"x": -0.234039536,
				"y": 4.4151176301,
				"z": 1.1723839811,
				"element": "C" 
			},
			{
				"x": -0.3116569461,
				"y": 3.6110033228,
				"z": -0.1376668497,
				"element": "C" 
			},
			{
				"x": -0.3628366556,
				"y": 2.0781984892,
				"z": 0.0062871045,
				"element": "C" 
			},
			{
				"x": -1.621341588,
				"y": 1.5530065633,
				"z": 0.7118508285,
				"element": "C" 
			},
			{
				"x": -1.7035621575,
				"y": 0.0235298517,
				"z": 0.873305618,
				"element": "C" 
			},
			{
				"x": -1.7705569479,
				"y": -0.7752791361,
				"z": -0.4508854992,
				"element": "C" 
			},
			{
				"x": -0.4228503212,
				"y": -1.28976075,
				"z": -1.0113471409,
				"element": "C" 
			},
			{
				"x": -0.0390550787,
				"y": -2.7181397673,
				"z": -0.5840565036,
				"element": "C" 
			},
			{
				"x": 0.1898662621,
				"y": -2.9268642564,
				"z": 0.922316253,
				"element": "C" 
			},
			{
				"x": 0.6448434829,
				"y": -4.3507506624,
				"z": 1.3105145861,
				"element": "C" 
			},
			{
				"x": 2.1688582429,
				"y": -4.5856773035,
				"z": 1.3248389796,
				"element": "C" 
			},
			{
				"x": 2.9115261798,
				"y": -4.4342646099,
				"z": 0.0703493995,
				"element": "N" 
			},
			{
				"x": 0.2618284989,
				"y": 4.8837068621,
				"z": 3.9130601592,
				"element": "H" 
			},
			{
				"x": 1.1052868269,
				"y": 6.1233832924,
				"z": 2.9778265781,
				"element": "H" 
			},
			{
				"x": 2.0278005686,
				"y": 4.8701768349,
				"z": 3.8192417724,
				"element": "H" 
			},
			{
				"x": 1.0891400832,
				"y": 3.1201862836,
				"z": 2.30464618,
				"element": "H" 
			},
			{
				"x": 1.9171250046,
				"y": 4.3505686702,
				"z": 1.3677990612,
				"element": "H" 
			},
			{
				"x": -1.1154070578,
				"y": 4.2091225027,
				"z": 1.7946166623,
				"element": "H" 
			},
			{
				"x": -0.2918100019,
				"y": 5.483724039,
				"z": 0.9234423805,
				"element": "H" 
			},
			{
				"x": 0.5543399274,
				"y": 3.8747233197,
				"z": -0.7603278496,
				"element": "H" 
			},
			{
				"x": -1.1970960662,
				"y": 3.9391651962,
				"z": -0.699467496,
				"element": "H" 
			},
			{
				"x": -0.3026038225,
				"y": 1.6438517425,
				"z": -0.9992756258,
				"element": "H" 
			},
			{
				"x": 0.5292957922,
				"y": 1.7228460191,
				"z": 0.5398624854,
				"element": "H" 
			},
			{
				"x": -2.5080294626,
				"y": 1.899294341,
				"z": 0.1603568334,
				"element": "H" 
			},
			{
				"x": -1.6936226793,
				"y": 2.0041347104,
				"z": 1.709827583,
				"element": "H" 
			},
			{
				"x": -2.5992014629,
				"y": -0.1972672784,
				"z": 1.4677488958,
				"element": "H" 
			},
			{
				"x": -0.853854019,
				"y": -0.3208919536,
				"z": 1.4759124658,
				"element": "H" 
			},
			{
				"x": -2.4382380216,
				"y": -1.6372699522,
				"z": -0.3206180971,
				"element": "H" 
			},
			{
				"x": -2.2581308585,
				"y": -0.1452857216,
				"z": -1.2064479564,
				"element": "H" 
			},
			{
				"x": -0.4654361016,
				"y": -1.2755628356,
				"z": -2.1078858058,
				"element": "H" 
			},
			{
				"x": 0.3846840181,
				"y": -0.6000464462,
				"z": -0.735160605,
				"element": "H" 
			},
			{
				"x": -0.8268292468,
				"y": -3.410297801,
				"z": -0.9157868918,
				"element": "H" 
			},
			{
				"x": 0.863659394,
				"y": -3.0143048684,
				"z": -1.1324315524,
				"element": "H" 
			},
			{
				"x": 0.9280892408,
				"y": -2.1973978037,
				"z": 1.2886041588,
				"element": "H" 
			},
			{
				"x": -0.7415601279,
				"y": -2.6974954758,
				"z": 1.4528910077,
				"element": "H" 
			},
			{
				"x": 0.2749934116,
				"y": -4.5843276301,
				"z": 2.3181591506,
				"element": "H" 
			},
			{
				"x": 0.1693674216,
				"y": -5.0830560096,
				"z": 0.6413815246,
				"element": "H" 
			},
			{
				"x": 2.3590223591,
				"y": -5.5998321104,
				"z": 1.6993037031,
				"element": "H" 
			},
			{
				"x": 2.6244197763,
				"y": -3.9041521395,
				"z": 2.0554850314,
				"element": "H" 
			},
			{
				"x": 2.854555189,
				"y": -3.476093311,
				"z": -0.2636385418,
				"element": "H" 
			},
			{
				"x": 2.4995635858,
				"y": -5.0166502438,
				"z": -0.6555680428,
				"element": "H" 
			}
		],
		 "valence_orbital": [ 
			{
				"type": "occ",
				"energy": -0.30659,
				"method": "rhf"
			},
			{
				"type": "occ",
				"energy": -0.30599,
				"method": "rhf"
			},
			{
				"type": "occ",
				"energy": -0.29777,
				"method": "rhf"
			},
			{
				"type": "occ",
				"energy": -0.29559,
				"method": "rhf"
			},
			{
				"type": "occ",
				"energy": -0.22556,
				"method": "rhf"
			},
			{
				"type": "unocc",
				"energy": 0.07216,
				"method": "rhf"
			},
			{
				"type": "unocc",
				"energy": 0.08324,
				"method": "rhf"
			},
			{
				"type": "unocc",
				"energy": 0.10066,
				"method": "rhf"
			},
			{
				"type": "unocc",
				"energy": 0.10387,
				"method": "rhf"
			},
			{
				"type": "unocc",
				"energy": 0.10504,
				"method": "rhf"
			}
		],
		"cosmo_sigma_profile": { 
			"-0.025": 0.0,
			"-0.024": 0.0,
			"-0.023": 0.0,
			"-0.022": 0.0,
			"-0.021": 0.0,
			"-0.02": 0.0,
			"-0.019": 0.0,
			"-0.018": 0.0,
			"-0.017": 0.0,
			"-0.016": 0.0,
			"-0.015": 0.0,
			"-0.014": 0.0,
			"-0.013": 0.0,
			"-0.012": 0.0,
			"-0.011": 0.0,
			"-0.01": 0.000192024442263,
			"-0.009": 0.740623282241,
			"-0.008": 2.34384224014,
			"-0.007": 2.76915603463,
			"-0.006": 2.86507261012,
			"-0.005": 3.77547718695,
			"-0.004": 3.4865689482,
			"-0.003": 6.60928056056,
			"-0.002": 36.7582957096,
			"-0.001": 70.12647091,
			"0.0": 84.8996877397,
			"0.001": 60.6703101687,
			"0.002": 26.702302544,
			"0.003": 1.49388816434,
			"0.004": 1.27663458604,
			"0.005": 0.968555211447,
			"0.006": 0.687794806086,
			"0.007": 0.497749943054,
			"0.008": 0.625545027825,
			"0.009": 0.855810733607,
			"0.01": 1.25427692274,
			"0.011": 0.604952957598,
			"0.012": 0.36339214401,
			"0.013": 0.953216910556,
			"0.014": 0.515838001337,
			"0.015": 0.459830098526,
			"0.016": 1.05112833675,
			"0.017": 0.517474614824,
			"0.018": 0.742136148337,
			"0.019": 0.632746661091,
			"0.02": 0.447780048476,
			"0.021": 0.0,
			"0.022": 0.0,
			"0.023": 0.0,
			"0.024": 0.0,
			"0.025": 0.0
		}
	}
}
