{
	 "smiles": "[O-][N+](=O)C1=CC(F)=C(CBr)C=C1", 
	 "Tm": 333.15, 
	 "num_atms": 17, 
	 "gaussian": { 
		 "optdone": 1, 
		 "sigma_profile": "yes", 
		 "theory": "DFT", 
		 "functional": "B3LYP", 
		 "basiset": "6-31G**", 
		 "properties": { 
			 "R2extent": 5114.6238, 
			 "electric_dipole_moment_norm": 3.4786796935, 
			 "electric_quadrupole_moment_norm": 12.0641635218, 
			 "total_energy": -3146.09767771, 
			 "HOMO_LUMO_gap": 0.17193, 
			 "cosmo_polarized_energy": -9.84, 
			 "cosmo_cavitation_energy": 25.24, 
			 "cosmo_dispersion_energy": -18.48, 
			 "cosmo_repulsion_energy": 1.46, 
			 "cosmo_total_nonelectrostatic_energy": 8.22, 
			 "SMD_solvation_energy": 5.86 
		},
		"coords": [
			{
				"x": -0.8598427539,
				"y": 1.2152323333,
				"z": 2.9621540816,
				"element": "O" 
			},
			{
				"x": -0.1260972072,
				"y": 1.1500856619,
				"z": 1.9777566164,
				"element": "N" 
			},
			{
				"x": 0.8734731166,
				"y": 1.8422489169,
				"z": 1.7947934887,
				"element": "O" 
			},
			{
				"x": -0.4713234335,
				"y": 0.1667299078,
				"z": 0.9355149567,
				"element": "C" 
			},
			{
				"x": -1.6010288805,
				"y": -0.6260130271,
				"z": 1.1202036213,
				"element": "C" 
			},
			{
				"x": -1.9045992709,
				"y": -1.5417105983,
				"z": 0.1253779838,
				"element": "C" 
			},
			{
				"x": -2.9934031754,
				"y": -2.3178660929,
				"z": 0.2739458081,
				"element": "F" 
			},
			{
				"x": -1.1329157354,
				"y": -1.6865464372,
				"z": -1.0350102109,
				"element": "C" 
			},
			{
				"x": -1.5154194978,
				"y": -2.6839751273,
				"z": -2.0767650179,
				"element": "C" 
			},
			{
				"x": -0.6788904182,
				"y": -4.4643197381,
				"z": -1.7276984648,
				"element": "Br" 
			},
			{
				"x": -0.0052090981,
				"y": -0.8648461007,
				"z": -1.171716067,
				"element": "C" 
			},
			{
				"x": 0.3362456835,
				"y": 0.0662007441,
				"z": -0.1952687686,
				"element": "C" 
			},
			{
				"x": -2.2156225847,
				"y": -0.5288697691,
				"z": 2.0052942141,
				"element": "H" 
			},
			{
				"x": -1.1644099862,
				"y": -2.3995680863,
				"z": -3.0663548618,
				"element": "H" 
			},
			{
				"x": -2.5845875252,
				"y": -2.8793087508,
				"z": -2.0905031777,
				"element": "H" 
			},
			{
				"x": 0.612968558,
				"y": -0.963616601,
				"z": -2.0588965171,
				"element": "H" 
			},
			{
				"x": 1.2030622089,
				"y": 0.7067427647,
				"z": -0.2917276848,
				"element": "H" 
			}
		],
		 "valence_orbital": [ 
			{
				"type": "occ",
				"energy": -0.30205,
				"method": "rhf"
			},
			{
				"type": "occ",
				"energy": -0.29915,
				"method": "rhf"
			},
			{
				"type": "occ",
				"energy": -0.28813,
				"method": "rhf"
			},
			{
				"type": "occ",
				"energy": -0.28458,
				"method": "rhf"
			},
			{
				"type": "occ",
				"energy": -0.27723,
				"method": "rhf"
			},
			{
				"type": "unocc",
				"energy": -0.1053,
				"method": "rhf"
			},
			{
				"type": "unocc",
				"energy": -0.04219,
				"method": "rhf"
			},
			{
				"type": "unocc",
				"energy": -0.03512,
				"method": "rhf"
			},
			{
				"type": "unocc",
				"energy": 0.01488,
				"method": "rhf"
			},
			{
				"type": "unocc",
				"energy": 0.0659,
				"method": "rhf"
			}
		],
		"cosmo_sigma_profile": { 
			"-0.025": 0.0,
			"-0.024": 0.0,
			"-0.023": 0.0,
			"-0.022": 0.0,
			"-0.021": 0.0,
			"-0.02": 0.0,
			"-0.019": 0.0,
			"-0.018": 0.0,
			"-0.017": 0.0,
			"-0.016": 0.0,
			"-0.015": 0.0,
			"-0.014": 0.0,
			"-0.013": 0.0,
			"-0.012": 0.0,
			"-0.011": 0.0,
			"-0.01": 0.318782393557,
			"-0.009": 4.16505830309,
			"-0.008": 8.60784749406,
			"-0.007": 10.0195750321,
			"-0.006": 8.95626753362,
			"-0.005": 11.7662750606,
			"-0.004": 8.28366391562,
			"-0.003": 10.1932661445,
			"-0.002": 17.7271083047,
			"-0.001": 19.5502453088,
			"0.0": 13.9939003648,
			"0.001": 12.8620426311,
			"0.002": 10.3822299683,
			"0.003": 15.5017394209,
			"0.004": 9.82182633852,
			"0.005": 12.1928367682,
			"0.006": 11.9279505683,
			"0.007": 8.93762841649,
			"0.008": 5.63983388886,
			"0.009": 4.11556523821,
			"0.01": 1.27783275973,
			"0.011": 0.0,
			"0.012": 0.0,
			"0.013": 0.0,
			"0.014": 0.0,
			"0.015": 0.0,
			"0.016": 0.0,
			"0.017": 0.0,
			"0.018": 0.0,
			"0.019": 0.0,
			"0.02": 0.0,
			"0.021": 0.0,
			"0.022": 0.0,
			"0.023": 0.0,
			"0.024": 0.0,
			"0.025": 0.0
		}
	}
}
