{
	 "smiles": "CC1=C(NC(=O)C2=C(I)C=CC=C2)C=C(N)C=C1", 
	 "Tm": 464.15, 
	 "num_atms": 31, 
	 "gaussian": { 
		 "optdone": 1, 
		 "sigma_profile": "yes", 
		 "theory": "DFT", 
		 "functional": "B3LYP", 
		 "basiset": "6-31G**", 
		 "properties": { 
			 "R2extent": 4908.0175, 
			 "electric_dipole_moment_norm": 5.26196470627, 
			 "electric_quadrupole_moment_norm": 16.6871737403, 
			 "total_energy": -737.454385309, 
			 "HOMO_LUMO_gap": 0.16492, 
			 "cosmo_polarized_energy": -17.76, 
			 "cosmo_cavitation_energy": 38.15, 
			 "cosmo_dispersion_energy": -26.81, 
			 "cosmo_repulsion_energy": 2.07, 
			 "cosmo_total_nonelectrostatic_energy": 13.41, 
			 "SMD_solvation_energy": 6.14 
		},
		"coords": [
			{
				"x": -1.1000762838,
				"y": 3.9825882864,
				"z": 1.5083382018,
				"element": "C" 
			},
			{
				"x": -0.5274615383,
				"y": 3.0856524321,
				"z": 0.4378010377,
				"element": "C" 
			},
			{
				"x": 0.0157343425,
				"y": 1.821971311,
				"z": 0.7483774271,
				"element": "C" 
			},
			{
				"x": 0.0356286984,
				"y": 1.4145939725,
				"z": 2.1095973255,
				"element": "N" 
			},
			{
				"x": -0.1221529292,
				"y": 0.1709009958,
				"z": 2.6824314017,
				"element": "C" 
			},
			{
				"x": 0.175306686,
				"y": -0.0215092589,
				"z": 3.8528977233,
				"element": "O" 
			},
			{
				"x": -0.7876729847,
				"y": -0.905610731,
				"z": 1.8597916856,
				"element": "C" 
			},
			{
				"x": -0.2452687438,
				"y": -2.1874856165,
				"z": 1.6893007667,
				"element": "C" 
			},
			{
				"x": 1.7204828913,
				"y": -2.6709307597,
				"z": 2.3342170783,
				"element": "I" 
			},
			{
				"x": -0.9660068642,
				"y": -3.1868526931,
				"z": 1.0303362748,
				"element": "C" 
			},
			{
				"x": -2.2493390586,
				"y": -2.9197611211,
				"z": 0.5521511549,
				"element": "C" 
			},
			{
				"x": -2.8061212262,
				"y": -1.6513318063,
				"z": 0.7155709963,
				"element": "C" 
			},
			{
				"x": -2.0746826917,
				"y": -0.6559508508,
				"z": 1.3578087756,
				"element": "C" 
			},
			{
				"x": 0.5600914124,
				"y": 1.0048328618,
				"z": -0.245074585,
				"element": "C" 
			},
			{
				"x": 0.5424108813,
				"y": 1.4022157839,
				"z": -1.5904733023,
				"element": "C" 
			},
			{
				"x": 1.1265891185,
				"y": 0.5992972713,
				"z": -2.570842147,
				"element": "N" 
			},
			{
				"x": -0.002593747,
				"y": 2.6557169962,
				"z": -1.9112387198,
				"element": "C" 
			},
			{
				"x": -0.5127701732,
				"y": 3.4721010361,
				"z": -0.9061859055,
				"element": "C" 
			},
			{
				"x": -1.8337681366,
				"y": 3.4585363952,
				"z": 2.1316882914,
				"element": "H" 
			},
			{
				"x": -0.3273990724,
				"y": 4.3714179624,
				"z": 2.1865416689,
				"element": "H" 
			},
			{
				"x": -1.5953298416,
				"y": 4.8487196925,
				"z": 1.0616890301,
				"element": "H" 
			},
			{
				"x": 0.3295287996,
				"y": 2.1036648695,
				"z": 2.7922769475,
				"element": "H" 
			},
			{
				"x": -0.5282389008,
				"y": -4.1694897716,
				"z": 0.8951306848,
				"element": "H" 
			},
			{
				"x": -2.8070329162,
				"y": -3.7058465727,
				"z": 0.051558926,
				"element": "H" 
			},
			{
				"x": -3.8036463253,
				"y": -1.4368350603,
				"z": 0.3446824092,
				"element": "H" 
			},
			{
				"x": -2.500035293,
				"y": 0.3345922275,
				"z": 1.4854688847,
				"element": "H" 
			},
			{
				"x": 1.0180772631,
				"y": 0.0603419348,
				"z": 0.0289792957,
				"element": "H" 
			},
			{
				"x": 1.1695181096,
				"y": -0.3866155851,
				"z": -2.3530966221,
				"element": "H" 
			},
			{
				"x": 0.8015132688,
				"y": 0.7655551114,
				"z": -3.5129623169,
				"element": "H" 
			},
			{
				"x": -0.015082664,
				"y": 2.9911341345,
				"z": -2.9449709686,
				"element": "H" 
			},
			{
				"x": -0.9276020807,
				"y": 4.4403865522,
				"z": -1.1752914205,
				"element": "H" 
			}
		],
		 "valence_orbital": [ 
			{
				"type": "occ",
				"energy": -0.25968,
				"method": "rhf"
			},
			{
				"type": "occ",
				"energy": -0.25008,
				"method": "rhf"
			},
			{
				"type": "occ",
				"energy": -0.23931,
				"method": "rhf"
			},
			{
				"type": "occ",
				"energy": -0.22936,
				"method": "rhf"
			},
			{
				"type": "occ",
				"energy": -0.20184,
				"method": "rhf"
			},
			{
				"type": "unocc",
				"energy": -0.03692,
				"method": "rhf"
			},
			{
				"type": "unocc",
				"energy": -0.03558,
				"method": "rhf"
			},
			{
				"type": "unocc",
				"energy": -0.02112,
				"method": "rhf"
			},
			{
				"type": "unocc",
				"energy": -0.0066,
				"method": "rhf"
			},
			{
				"type": "unocc",
				"energy": 0.0133,
				"method": "rhf"
			}
		],
		"cosmo_sigma_profile": { 
			"-0.025": 0.0,
			"-0.024": 0.0,
			"-0.023": 0.0,
			"-0.022": 0.0,
			"-0.021": 0.0,
			"-0.02": 0.0,
			"-0.019": 0.0,
			"-0.018": 0.0,
			"-0.017": 0.0,
			"-0.016": 0.0,
			"-0.015": 0.0,
			"-0.014": 0.0349987359318,
			"-0.013": 0.915977088762,
			"-0.012": 2.75657412269,
			"-0.011": 4.32079721214,
			"-0.01": 3.05810885281,
			"-0.009": 5.56067186841,
			"-0.008": 3.62668286544,
			"-0.007": 9.33727420308,
			"-0.006": 15.6776854773,
			"-0.005": 17.7401605875,
			"-0.004": 22.9232331562,
			"-0.003": 19.6796547759,
			"-0.002": 21.2427311442,
			"-0.001": 19.8300973583,
			"0.0": 21.2955507412,
			"0.001": 20.2812422886,
			"0.002": 19.8583594315,
			"0.003": 26.2526178523,
			"0.004": 20.6229654718,
			"0.005": 13.4702222083,
			"0.006": 11.4838086544,
			"0.007": 5.46411481846,
			"0.008": 2.41031994431,
			"0.009": 1.91731983073,
			"0.01": 3.10087772431,
			"0.011": 3.03273248786,
			"0.012": 3.36501796161,
			"0.013": 5.59693773798,
			"0.014": 3.10699076793,
			"0.015": 0.382212226192,
			"0.016": 0.0,
			"0.017": 0.0,
			"0.018": 0.0,
			"0.019": 0.0,
			"0.02": 0.0,
			"0.021": 0.0,
			"0.022": 0.0,
			"0.023": 0.0,
			"0.024": 0.0,
			"0.025": 0.0
		}
	}
}
