{
	 "smiles": "O=C1NN=C(C2=CC=CC=C2)C2=C1C=CC=C2", 
	 "Tm": 513.15, 
	 "num_atms": 27, 
	 "gaussian": { 
		 "optdone": 1, 
		 "sigma_profile": "yes", 
		 "theory": "DFT", 
		 "functional": "B3LYP", 
		 "basiset": "6-31G**", 
		 "properties": { 
			 "R2extent": 4392.8744, 
			 "electric_dipole_moment_norm": 3.64727090987, 
			 "electric_quadrupole_moment_norm": 10.6956556816, 
			 "total_energy": -724.245938723, 
			 "HOMO_LUMO_gap": 0.16837, 
			 "cosmo_polarized_energy": -12.4, 
			 "cosmo_cavitation_energy": 31.22, 
			 "cosmo_dispersion_energy": -23.06, 
			 "cosmo_repulsion_energy": 1.76, 
			 "cosmo_total_nonelectrostatic_energy": 9.91, 
			 "SMD_solvation_energy": 4.96 
		},
		"coords": [
			{
				"x": 0.0497008232,
				"y": -3.4171337973,
				"z": -2.8463263924,
				"element": "O" 
			},
			{
				"x": -0.0946428558,
				"y": -2.341056996,
				"z": -2.2755485276,
				"element": "C" 
			},
			{
				"x": -0.5618733611,
				"y": -1.2259612388,
				"z": -2.9573463128,
				"element": "N" 
			},
			{
				"x": -0.8383997148,
				"y": 0.0055919622,
				"z": -2.4742773332,
				"element": "N" 
			},
			{
				"x": -0.6016276604,
				"y": 0.2412948108,
				"z": -1.2120365063,
				"element": "C" 
			},
			{
				"x": -0.9488495334,
				"y": 1.6153534814,
				"z": -0.7515606121,
				"element": "C" 
			},
			{
				"x": -0.5581911347,
				"y": 2.7240168341,
				"z": -1.5183774388,
				"element": "C" 
			},
			{
				"x": -0.9075351443,
				"y": 4.0156379727,
				"z": -1.1286992757,
				"element": "C" 
			},
			{
				"x": -1.6576998325,
				"y": 4.2211568696,
				"z": 0.0313915426,
				"element": "C" 
			},
			{
				"x": -2.0626234844,
				"y": 3.1251890257,
				"z": 0.7948865202,
				"element": "C" 
			},
			{
				"x": -1.7120919656,
				"y": 1.8315191191,
				"z": 0.4072014923,
				"element": "C" 
			},
			{
				"x": -0.0218034229,
				"y": -0.7716238279,
				"z": -0.3309063085,
				"element": "C" 
			},
			{
				"x": 0.2098873669,
				"y": -2.0624941003,
				"z": -0.8634677868,
				"element": "C" 
			},
			{
				"x": 0.7619620953,
				"y": -3.0804762635,
				"z": -0.0735426529,
				"element": "C" 
			},
			{
				"x": 1.1050115181,
				"y": -2.8230975328,
				"z": 1.2451376282,
				"element": "C" 
			},
			{
				"x": 0.9113226093,
				"y": -1.5380956613,
				"z": 1.7772595606,
				"element": "C" 
			},
			{
				"x": 0.3600737476,
				"y": -0.5251243765,
				"z": 1.0051063599,
				"element": "C" 
			},
			{
				"x": -0.7843491234,
				"y": -1.3579561986,
				"z": -3.936210035,
				"element": "H" 
			},
			{
				"x": 0.0193835467,
				"y": 2.5590863734,
				"z": -2.4219625969,
				"element": "H" 
			},
			{
				"x": -0.592167074,
				"y": 4.8631546131,
				"z": -1.7305159733,
				"element": "H" 
			},
			{
				"x": -1.9285062093,
				"y": 5.2280543444,
				"z": 0.3355908436,
				"element": "H" 
			},
			{
				"x": -2.660716718,
				"y": 3.2745629627,
				"z": 1.6892446193,
				"element": "H" 
			},
			{
				"x": -2.0547494091,
				"y": 0.9839504509,
				"z": 0.9928516478,
				"element": "H" 
			},
			{
				"x": 0.9159623311,
				"y": -4.0526295803,
				"z": -0.529491865,
				"element": "H" 
			},
			{
				"x": 1.5343890744,
				"y": -3.6071210157,
				"z": 1.8615566935,
				"element": "H" 
			},
			{
				"x": 1.2010159088,
				"y": -1.3298748492,
				"z": 2.8031870243,
				"element": "H" 
			},
			{
				"x": 0.2334176222,
				"y": 0.4654766182,
				"z": 1.4249556849,
				"element": "H" 
			}
		],
		 "valence_orbital": [ 
			{
				"type": "occ",
				"energy": -0.26712,
				"method": "rhf"
			},
			{
				"type": "occ",
				"energy": -0.26109,
				"method": "rhf"
			},
			{
				"type": "occ",
				"energy": -0.25739,
				"method": "rhf"
			},
			{
				"type": "occ",
				"energy": -0.25035,
				"method": "rhf"
			},
			{
				"type": "occ",
				"energy": -0.22425,
				"method": "rhf"
			},
			{
				"type": "unocc",
				"energy": -0.05588,
				"method": "rhf"
			},
			{
				"type": "unocc",
				"energy": -0.04475,
				"method": "rhf"
			},
			{
				"type": "unocc",
				"energy": -0.01615,
				"method": "rhf"
			},
			{
				"type": "unocc",
				"energy": -0.00765,
				"method": "rhf"
			},
			{
				"type": "unocc",
				"energy": 0.03904,
				"method": "rhf"
			}
		],
		"cosmo_sigma_profile": { 
			"-0.025": 0.0,
			"-0.024": 0.0,
			"-0.023": 0.0,
			"-0.022": 0.0,
			"-0.021": 0.0,
			"-0.02": 0.0,
			"-0.019": 0.0,
			"-0.018": 0.0,
			"-0.017": 0.0,
			"-0.016": 0.484958974239,
			"-0.015": 0.990173963999,
			"-0.014": 1.19221624869,
			"-0.013": 0.649117650271,
			"-0.012": 0.883347870438,
			"-0.011": 0.400565728019,
			"-0.01": 1.05543526206,
			"-0.009": 0.812882500893,
			"-0.008": 0.646096555577,
			"-0.007": 4.6877946667,
			"-0.006": 14.3818727662,
			"-0.005": 19.7092875657,
			"-0.004": 21.8160048348,
			"-0.003": 18.2717091454,
			"-0.002": 17.0606245949,
			"-0.001": 19.1641503631,
			"0.0": 19.28506774,
			"0.001": 20.3741287996,
			"0.002": 20.1389884338,
			"0.003": 19.0505722584,
			"0.004": 11.4141344926,
			"0.005": 11.936720596,
			"0.006": 3.40743512777,
			"0.007": 2.75111766256,
			"0.008": 2.49579040003,
			"0.009": 2.5890146539,
			"0.01": 2.2462508848,
			"0.011": 2.26518853621,
			"0.012": 3.09305841828,
			"0.013": 6.00620482984,
			"0.014": 2.14318786816,
			"0.015": 0.0,
			"0.016": 0.0,
			"0.017": 0.0,
			"0.018": 0.0,
			"0.019": 0.0,
			"0.02": 0.0,
			"0.021": 0.0,
			"0.022": 0.0,
			"0.023": 0.0,
			"0.024": 0.0,
			"0.025": 0.0
		}
	}
}
