{
	 "smiles": "CCOC1=C(OCC)C=C(C=C1)C(=O)NCC(O)=O", 
	 "Tm": 393.15, 
	 "num_atms": 36, 
	 "gaussian": { 
		 "optdone": 1, 
		 "sigma_profile": "yes", 
		 "theory": "DFT", 
		 "functional": "B3LYP", 
		 "basiset": "6-31G**", 
		 "properties": { 
			 "R2extent": 7841.3815, 
			 "electric_dipole_moment_norm": 6.77475452692, 
			 "electric_quadrupole_moment_norm": 30.4740744081, 
			 "total_energy": -936.497648104, 
			 "HOMO_LUMO_gap": 0.19646, 
			 "cosmo_polarized_energy": -24.99, 
			 "cosmo_cavitation_energy": 40.41, 
			 "cosmo_dispersion_energy": -27.58, 
			 "cosmo_repulsion_energy": 2.2, 
			 "cosmo_total_nonelectrostatic_energy": 15.03, 
			 "SMD_solvation_energy": 8.48 
		},
		"coords": [
			{
				"x": 2.4988712831,
				"y": 1.7085477001,
				"z": 3.738588342,
				"element": "C" 
			},
			{
				"x": 1.331039176,
				"y": 1.6122876525,
				"z": 2.7743963572,
				"element": "C" 
			},
			{
				"x": 1.0297561692,
				"y": 0.2127418473,
				"z": 2.5988864788,
				"element": "O" 
			},
			{
				"x": -0.0153845518,
				"y": -0.0936034701,
				"z": 1.7712728302,
				"element": "C" 
			},
			{
				"x": 0.0156765262,
				"y": 0.1756010525,
				"z": 0.3884655778,
				"element": "C" 
			},
			{
				"x": 1.09398884,
				"y": 0.8372549171,
				"z": -0.1578087786,
				"element": "O" 
			},
			{
				"x": 1.9857231284,
				"y": 0.0396212837,
				"z": -0.9620764271,
				"element": "C" 
			},
			{
				"x": 2.8862631188,
				"y": -0.8608559848,
				"z": -0.1277488914,
				"element": "C" 
			},
			{
				"x": -1.0669100927,
				"y": -0.1941605849,
				"z": -0.4116376017,
				"element": "C" 
			},
			{
				"x": -2.1723428737,
				"y": -0.8615621612,
				"z": 0.1325738229,
				"element": "C" 
			},
			{
				"x": -2.1747746046,
				"y": -1.1677062169,
				"z": 1.5004942594,
				"element": "C" 
			},
			{
				"x": -1.11869784,
				"y": -0.7658040836,
				"z": 2.310665942,
				"element": "C" 
			},
			{
				"x": -3.3268250341,
				"y": -1.3469241318,
				"z": -0.6935183704,
				"element": "C" 
			},
			{
				"x": -3.903865937,
				"y": -2.393363966,
				"z": -0.4245403314,
				"element": "O" 
			},
			{
				"x": -3.7063702751,
				"y": -0.5980935236,
				"z": -1.7934696989,
				"element": "N" 
			},
			{
				"x": -3.5685572927,
				"y": 0.8326819796,
				"z": -1.949652997,
				"element": "C" 
			},
			{
				"x": -4.8472802459,
				"y": 1.4146964168,
				"z": -2.5573731437,
				"element": "C" 
			},
			{
				"x": -4.8509058826,
				"y": 2.7583552103,
				"z": -2.7154247147,
				"element": "O" 
			},
			{
				"x": -5.7868329769,
				"y": 0.7465000602,
				"z": -2.9059091919,
				"element": "O" 
			},
			{
				"x": 2.753472549,
				"y": 2.7581453642,
				"z": 3.9163859107,
				"element": "H" 
			},
			{
				"x": 3.3792238515,
				"y": 1.2037474686,
				"z": 3.3300715745,
				"element": "H" 
			},
			{
				"x": 2.2509164605,
				"y": 1.2437698375,
				"z": 4.6970920973,
				"element": "H" 
			},
			{
				"x": 1.5731700738,
				"y": 2.0621659096,
				"z": 1.8069395242,
				"element": "H" 
			},
			{
				"x": 0.4440016049,
				"y": 2.1179992687,
				"z": 3.1812082115,
				"element": "H" 
			},
			{
				"x": 2.5748030218,
				"y": 0.7683309046,
				"z": -1.526375909,
				"element": "H" 
			},
			{
				"x": 1.4020740462,
				"y": -0.5516758028,
				"z": -1.6801700393,
				"element": "H" 
			},
			{
				"x": 2.3005901847,
				"y": -1.5821574143,
				"z": 0.4487685751,
				"element": "H" 
			},
			{
				"x": 3.4853147334,
				"y": -0.2712006822,
				"z": 0.571177977,
				"element": "H" 
			},
			{
				"x": 3.5638658462,
				"y": -1.4182587497,
				"z": -0.7836328687,
				"element": "H" 
			},
			{
				"x": -1.0127833797,
				"y": 0.018849935,
				"z": -1.4745126703,
				"element": "H" 
			},
			{
				"x": -3.0153651179,
				"y": -1.7168910361,
				"z": 1.9101956205,
				"element": "H" 
			},
			{
				"x": -1.1122217644,
				"y": -0.980017031,
				"z": 3.3745809974,
				"element": "H" 
			},
			{
				"x": -4.5401361518,
				"y": -0.9681058819,
				"z": -2.2426334688,
				"element": "H" 
			},
			{
				"x": -2.7385069519,
				"y": 1.1089828036,
				"z": -2.619831117,
				"element": "H" 
			},
			{
				"x": -3.370877969,
				"y": 1.3231783098,
				"z": -0.9886505303,
				"element": "H" 
			},
			{
				"x": -4.0303116718,
				"y": 3.1483227988,
				"z": -2.3798973483,
				"element": "H" 
			}
		],
		 "valence_orbital": [ 
			{
				"type": "occ",
				"energy": -0.2789,
				"method": "rhf"
			},
			{
				"type": "occ",
				"energy": -0.26459,
				"method": "rhf"
			},
			{
				"type": "occ",
				"energy": -0.25582,
				"method": "rhf"
			},
			{
				"type": "occ",
				"energy": -0.25167,
				"method": "rhf"
			},
			{
				"type": "occ",
				"energy": -0.23224,
				"method": "rhf"
			},
			{
				"type": "unocc",
				"energy": -0.03578,
				"method": "rhf"
			},
			{
				"type": "unocc",
				"energy": -0.01328,
				"method": "rhf"
			},
			{
				"type": "unocc",
				"energy": -0.00795,
				"method": "rhf"
			},
			{
				"type": "unocc",
				"energy": 0.03449,
				"method": "rhf"
			},
			{
				"type": "unocc",
				"energy": 0.05171,
				"method": "rhf"
			}
		],
		"cosmo_sigma_profile": { 
			"-0.025": 0.0,
			"-0.024": 0.0,
			"-0.023": 0.0,
			"-0.022": 0.0,
			"-0.021": 0.0,
			"-0.02": 1.07657874905,
			"-0.019": 1.00955670921,
			"-0.018": 1.77519215597,
			"-0.017": 1.24935645832,
			"-0.016": 0.942717173651,
			"-0.015": 1.20970089373,
			"-0.014": 0.702823757072,
			"-0.013": 1.10590191484,
			"-0.012": 1.77504046467,
			"-0.011": 1.67586657237,
			"-0.01": 1.47038523637,
			"-0.009": 4.34054572496,
			"-0.008": 6.02000437218,
			"-0.007": 4.95833423402,
			"-0.006": 8.65667811465,
			"-0.005": 13.3768508131,
			"-0.004": 24.1064056518,
			"-0.003": 32.9395069052,
			"-0.002": 31.1882705604,
			"-0.001": 25.4299423314,
			"0.0": 26.9990294336,
			"0.001": 18.5262255792,
			"0.002": 15.8065651715,
			"0.003": 14.9276473693,
			"0.004": 13.1097117207,
			"0.005": 8.2365435536,
			"0.006": 6.747665214,
			"0.007": 7.07092617925,
			"0.008": 5.89646110761,
			"0.009": 8.38778068414,
			"0.01": 8.59537201701,
			"0.011": 6.54825662717,
			"0.012": 4.21480690192,
			"0.013": 5.0173790504,
			"0.014": 3.33705762197,
			"0.015": 0.0738773268133,
			"0.016": 0.0,
			"0.017": 0.0,
			"0.018": 0.0,
			"0.019": 0.0,
			"0.02": 0.0,
			"0.021": 0.0,
			"0.022": 0.0,
			"0.023": 0.0,
			"0.024": 0.0,
			"0.0": 0.0
		}
	}
}
