{
	 "smiles": "NNC(=O)C1=C2C=CC=CC2=NC(=C1)C1=CC=C(Cl)C=C1", 
	 "Tm": 512.15, 
	 "num_atms": 33, 
	 "gaussian": { 
		 "optdone": 1, 
		 "sigma_profile": "yes", 
		 "theory": "DFT", 
		 "functional": "B3LYP", 
		 "basiset": "6-31G**", 
		 "properties": { 
			 "R2extent": 9328.0464, 
			 "electric_dipole_moment_norm": 1.76042234137, 
			 "electric_quadrupole_moment_norm": 16.9003835427, 
			 "total_energy": -1316.60494682, 
			 "HOMO_LUMO_gap": 0.15177, 
			 "cosmo_polarized_energy": -15.64, 
			 "cosmo_cavitation_energy": 39.64, 
			 "cosmo_dispersion_energy": -28.95, 
			 "cosmo_repulsion_energy": 2.2, 
			 "cosmo_total_nonelectrostatic_energy": 12.88, 
			 "SMD_solvation_energy": 5.98 
		},
		"coords": [
			{
				"x": 3.1546389012,
				"y": 0.1928012347,
				"z": 3.3983472996,
				"element": "N" 
			},
			{
				"x": 2.3063641528,
				"y": -0.0177438479,
				"z": 2.2909815838,
				"element": "N" 
			},
			{
				"x": 2.5271278956,
				"y": 0.6472525491,
				"z": 1.1093378237,
				"element": "C" 
			},
			{
				"x": 3.3846174582,
				"y": 1.5204216354,
				"z": 1.0165549992,
				"element": "O" 
			},
			{
				"x": 1.6320091182,
				"y": 0.223164458,
				"z": -0.0245133963,
				"element": "C" 
			},
			{
				"x": 2.125217776,
				"y": 0.1153840999,
				"z": -1.3630313459,
				"element": "C" 
			},
			{
				"x": 3.4625983198,
				"y": 0.3875192459,
				"z": -1.7571165426,
				"element": "C" 
			},
			{
				"x": 3.8486680937,
				"y": 0.2170958556,
				"z": -3.0689230911,
				"element": "C" 
			},
			{
				"x": 2.9251315999,
				"y": -0.228747221,
				"z": -4.0453594187,
				"element": "C" 
			},
			{
				"x": 1.6218372036,
				"y": -0.4954842387,
				"z": -3.6958080363,
				"element": "C" 
			},
			{
				"x": 1.1874323365,
				"y": -0.3302540495,
				"z": -2.3529263749,
				"element": "C" 
			},
			{
				"x": -0.1163973293,
				"y": -0.602247767,
				"z": -2.0747395865,
				"element": "N" 
			},
			{
				"x": -0.5598873754,
				"y": -0.4582484651,
				"z": -0.8358253912,
				"element": "C" 
			},
			{
				"x": 0.304884127,
				"y": -0.0585577981,
				"z": 0.2238198412,
				"element": "C" 
			},
			{
				"x": -1.9970706248,
				"y": -0.7547248933,
				"z": -0.5923665583,
				"element": "C" 
			},
			{
				"x": -2.7186238175,
				"y": -1.5022343972,
				"z": -1.5385895787,
				"element": "C" 
			},
			{
				"x": -4.062252483,
				"y": -1.8048986764,
				"z": -1.3453539546,
				"element": "C" 
			},
			{
				"x": -4.7046788403,
				"y": -1.3503403785,
				"z": -0.1925135607,
				"element": "C" 
			},
			{
				"x": -6.4010456774,
				"y": -1.7288015525,
				"z": 0.0611154597,
				"element": "Cl" 
			},
			{
				"x": -4.0198230989,
				"y": -0.5962896493,
				"z": 0.7586231186,
				"element": "C" 
			},
			{
				"x": -2.672611805,
				"y": -0.304313723,
				"z": 0.5529709355,
				"element": "C" 
			},
			{
				"x": 2.8386229214,
				"y": 1.0414087128,
				"z": 3.8671123582,
				"element": "H" 
			},
			{
				"x": 4.0755181243,
				"y": 0.4228496016,
				"z": 3.020706626,
				"element": "H" 
			},
			{
				"x": 1.8513316066,
				"y": -0.9195483271,
				"z": 2.277020343,
				"element": "H" 
			},
			{
				"x": 4.1632459486,
				"y": 0.7496616838,
				"z": -1.0156095012,
				"element": "H" 
			},
			{
				"x": 4.8729745124,
				"y": 0.4315758746,
				"z": -3.3591883112,
				"element": "H" 
			},
			{
				"x": 3.2501406915,
				"y": -0.3561047066,
				"z": -5.0738960284,
				"element": "H" 
			},
			{
				"x": 0.8886873274,
				"y": -0.8341821081,
				"z": -4.4202498748,
				"element": "H" 
			},
			{
				"x": -0.0783889297,
				"y": 0.0281665113,
				"z": 1.2335129867,
				"element": "H" 
			},
			{
				"x": -2.20358454,
				"y": -1.8402149314,
				"z": -2.4304205137,
				"element": "H" 
			},
			{
				"x": -4.6093709978,
				"y": -2.388481744,
				"z": -2.0775561504,
				"element": "H" 
			},
			{
				"x": -4.5348086626,
				"y": -0.2370838948,
				"z": 1.6425943987,
				"element": "H" 
			},
			{
				"x": -2.1614039328,
				"y": 0.3057009063,
				"z": 1.2904894414,
				"element": "H" 
			}
		],
		 "valence_orbital": [ 
			{
				"type": "occ",
				"energy": -0.26742,
				"method": "rhf"
			},
			{
				"type": "occ",
				"energy": -0.26669,
				"method": "rhf"
			},
			{
				"type": "occ",
				"energy": -0.25886,
				"method": "rhf"
			},
			{
				"type": "occ",
				"energy": -0.24523,
				"method": "rhf"
			},
			{
				"type": "occ",
				"energy": -0.22868,
				"method": "rhf"
			},
			{
				"type": "unocc",
				"energy": -0.07691,
				"method": "rhf"
			},
			{
				"type": "unocc",
				"energy": -0.04466,
				"method": "rhf"
			},
			{
				"type": "unocc",
				"energy": -0.01621,
				"method": "rhf"
			},
			{
				"type": "unocc",
				"energy": -0.0065,
				"method": "rhf"
			},
			{
				"type": "unocc",
				"energy": 0.00369,
				"method": "rhf"
			}
		],
		"cosmo_sigma_profile": { 
			"-0.025": 0.0,
			"-0.024": 0.0,
			"-0.023": 0.0,
			"-0.022": 0.0,
			"-0.021": 0.0,
			"-0.02": 0.0,
			"-0.019": 0.0,
			"-0.018": 0.0,
			"-0.017": 0.0,
			"-0.016": 0.0,
			"-0.015": 0.257649551681,
			"-0.014": 0.866202002835,
			"-0.013": 1.16809020568,
			"-0.012": 1.7332202656,
			"-0.011": 2.42357471986,
			"-0.01": 4.47796555538,
			"-0.009": 4.65079986448,
			"-0.008": 6.54263624971,
			"-0.007": 9.46678351508,
			"-0.006": 15.0059711543,
			"-0.005": 16.5100690047,
			"-0.004": 19.0350961384,
			"-0.003": 16.1726260369,
			"-0.002": 17.7131819894,
			"-0.001": 20.4064089502,
			"0.0": 24.9350767191,
			"0.001": 28.4669650378,
			"0.002": 30.2150199541,
			"0.003": 35.2323290244,
			"0.004": 26.8651158524,
			"0.005": 8.50642267679,
			"0.006": 4.40303157349,
			"0.007": 4.74107840457,
			"0.008": 3.52805224539,
			"0.009": 2.27410089538,
			"0.01": 3.34845164507,
			"0.011": 2.51171214291,
			"0.012": 4.05801006376,
			"0.013": 3.17135198391,
			"0.014": 0.989414106365,
			"0.015": 0.454412008416,
			"0.016": 0.57801714299,
			"0.017": 0.0796436399549,
			"0.018": 0.0,
			"0.019": 0.0,
			"0.02": 0.0,
			"0.021": 0.0,
			"0.022": 0.0,
			"0.023": 0.0,
			"0.024": 0.0,
			"0.025": 0.0
		}
	}
}
