{
	 "smiles": "COC1=CC=C(C=C1)C1=CC=C(C=C1)C#N", 
	 "Tm": 376.15, 
	 "num_atms": 27, 
	 "gaussian": { 
		 "optdone": 1, 
		 "sigma_profile": "yes", 
		 "theory": "DFT", 
		 "functional": "B3LYP", 
		 "basiset": "6-31G**", 
		 "properties": { 
			 "R2extent": 5569.5972, 
			 "electric_dipole_moment_norm": 6.49789639961, 
			 "electric_quadrupole_moment_norm": 18.6476410795, 
			 "total_energy": -670.075698553, 
			 "HOMO_LUMO_gap": 0.16368, 
			 "cosmo_polarized_energy": -12.0, 
			 "cosmo_cavitation_energy": 32.45, 
			 "cosmo_dispersion_energy": -23.17, 
			 "cosmo_repulsion_energy": 1.78, 
			 "cosmo_total_nonelectrostatic_energy": 11.05, 
			 "SMD_solvation_energy": 7.51 
		},
		"coords": [
			{
				"x": -1.9367261559,
				"y": -4.4771897001,
				"z": 3.358136117,
				"element": "C" 
			},
			{
				"x": -2.6219834847,
				"y": -3.4276359475,
				"z": 2.6910905847,
				"element": "O" 
			},
			{
				"x": -1.8870594868,
				"y": -2.5063613048,
				"z": 2.0093051999,
				"element": "C" 
			},
			{
				"x": -2.6180879381,
				"y": -1.4889255705,
				"z": 1.3759828705,
				"element": "C" 
			},
			{
				"x": -1.9622078016,
				"y": -0.5031115219,
				"z": 0.6547023127,
				"element": "C" 
			},
			{
				"x": -0.5578513885,
				"y": -0.4898722033,
				"z": 0.5391354621,
				"element": "C" 
			},
			{
				"x": 0.1544719434,
				"y": -1.5135635007,
				"z": 1.1799311157,
				"element": "C" 
			},
			{
				"x": -0.4905411167,
				"y": -2.514670569,
				"z": 1.9069631844,
				"element": "C" 
			},
			{
				"x": 0.1386852391,
				"y": 0.5651683693,
				"z": -0.2322946,
				"element": "C" 
			},
			{
				"x": 1.3867587413,
				"y": 1.0657503475,
				"z": 0.1840529433,
				"element": "C" 
			},
			{
				"x": 2.0470900449,
				"y": 2.0520736006,
				"z": -0.5378707858,
				"element": "C" 
			},
			{
				"x": 1.4679157939,
				"y": 2.5755486874,
				"z": -1.7063775932,
				"element": "C" 
			},
			{
				"x": 0.2206552502,
				"y": 2.0894137727,
				"z": -2.1339078935,
				"element": "C" 
			},
			{
				"x": -0.426635528,
				"y": 1.0989201921,
				"z": -1.4057853823,
				"element": "C" 
			},
			{
				"x": 2.1423080264,
				"y": 3.5948859897,
				"z": -2.4539550941,
				"element": "C" 
			},
			{
				"x": 2.6903690908,
				"y": 4.4226669474,
				"z": -3.0611946198,
				"element": "N" 
			},
			{
				"x": -1.2552447561,
				"y": -4.0906583788,
				"z": 4.1265960059,
				"element": "H" 
			},
			{
				"x": -1.3695940424,
				"y": -5.1006380777,
				"z": 2.6552508798,
				"element": "H" 
			},
			{
				"x": -2.7074932615,
				"y": -5.084509254,
				"z": 3.8346401866,
				"element": "H" 
			},
			{
				"x": -3.698634042,
				"y": -1.4901505471,
				"z": 1.4743495214,
				"element": "H" 
			},
			{
				"x": -2.5458137017,
				"y": 0.2891130718,
				"z": 0.1954284833,
				"element": "H" 
			},
			{
				"x": 1.235914725,
				"y": -1.5522431919,
				"z": 1.0883130734,
				"element": "H" 
			},
			{
				"x": 0.0994222895,
				"y": -3.2934572086,
				"z": 2.3752943355,
				"element": "H" 
			},
			{
				"x": 1.8319491225,
				"y": 0.6939936942,
				"z": 1.1014079454,
				"element": "H" 
			},
			{
				"x": 3.0052234341,
				"y": 2.4317553741,
				"z": -0.1986385979,
				"element": "H" 
			},
			{
				"x": -0.2259634158,
				"y": 2.4843341722,
				"z": -3.0404459162,
				"element": "H" 
			},
			{
				"x": -1.3748275812,
				"y": 0.7123627569,
				"z": -1.7655097388,
				"element": "H" 
			}
		],
		 "valence_orbital": [ 
			{
				"type": "occ",
				"energy": -0.32401,
				"method": "rhf"
			},
			{
				"type": "occ",
				"energy": -0.27182,
				"method": "rhf"
			},
			{
				"type": "occ",
				"energy": -0.26914,
				"method": "rhf"
			},
			{
				"type": "occ",
				"energy": -0.26315,
				"method": "rhf"
			},
			{
				"type": "occ",
				"energy": -0.21987,
				"method": "rhf"
			},
			{
				"type": "unocc",
				"energy": -0.05619,
				"method": "rhf"
			},
			{
				"type": "unocc",
				"energy": -0.02192,
				"method": "rhf"
			},
			{
				"type": "unocc",
				"energy": -0.01337,
				"method": "rhf"
			},
			{
				"type": "unocc",
				"energy": 0.00959,
				"method": "rhf"
			},
			{
				"type": "unocc",
				"energy": 0.04186,
				"method": "rhf"
			}
		],
		"cosmo_sigma_profile": { 
			"-0.025": 0.0,
			"-0.024": 0.0,
			"-0.023": 0.0,
			"-0.022": 0.0,
			"-0.021": 0.0,
			"-0.02": 0.0,
			"-0.019": 0.0,
			"-0.018": 0.0,
			"-0.017": 0.0,
			"-0.016": 0.0,
			"-0.015": 0.0,
			"-0.014": 0.0,
			"-0.013": 0.0,
			"-0.012": 0.0,
			"-0.011": 0.0,
			"-0.01": 0.0,
			"-0.009": 0.0,
			"-0.008": 2.03540620953,
			"-0.007": 7.69872664647,
			"-0.006": 22.6499985793,
			"-0.005": 24.6313648584,
			"-0.004": 21.3622541801,
			"-0.003": 20.1754735242,
			"-0.002": 13.6719237935,
			"-0.001": 16.4725025542,
			"0.0": 15.9216690258,
			"0.001": 15.8018048461,
			"0.002": 23.5460312492,
			"0.003": 21.9562760091,
			"0.004": 13.3692135489,
			"0.005": 11.8762202266,
			"0.006": 4.43520060291,
			"0.007": 4.00709924271,
			"0.008": 4.31423092107,
			"0.009": 5.19498347059,
			"0.01": 4.6139955221,
			"0.011": 3.23631297258,
			"0.012": 2.24567556927,
			"0.013": 1.95923495368,
			"0.014": 0.199750214613,
			"0.015": 0.0,
			"0.016": 0.0,
			"0.017": 0.0,
			"0.018": 0.0,
			"0.019": 0.0,
			"0.02": 0.0,
			"0.021": 0.0,
			"0.022": 0.0,
			"0.023": 0.0,
			"0.024": 0.0,
			"0.025": 0.0
		}
	}
}
