{
	 "smiles": "CCSC1=NN=NN1", 
	 "Tm": 361.65, 
	 "num_atms": 14, 
	 "gaussian": { 
		 "optdone": 1, 
		 "sigma_profile": "yes", 
		 "theory": "DFT", 
		 "functional": "B3LYP", 
		 "basiset": "6-31G**", 
		 "properties": { 
			 "R2extent": 2030.0963, 
			 "electric_dipole_moment_norm": 4.60302847373, 
			 "electric_quadrupole_moment_norm": 17.8774965437, 
			 "total_energy": -735.070173846, 
			 "HOMO_LUMO_gap": 0.23354, 
			 "cosmo_polarized_energy": -14.93, 
			 "cosmo_cavitation_energy": 19.99, 
			 "cosmo_dispersion_energy": -15.51, 
			 "cosmo_repulsion_energy": 1.26, 
			 "cosmo_total_nonelectrostatic_energy": 5.75, 
			 "SMD_solvation_energy": 1.7 
		},
		"coords": [
			{
				"x": -2.9398064543,
				"y": 0.6973883164,
				"z": 0.8393128503,
				"element": "C" 
			},
			{
				"x": -1.7123744347,
				"y": 1.3516560673,
				"z": 0.2112557364,
				"element": "C" 
			},
			{
				"x": -1.0159259661,
				"y": 0.2169599117,
				"z": -1.0709043437,
				"element": "S" 
			},
			{
				"x": 0.3359416661,
				"y": 1.191184793,
				"z": -1.6077001717,
				"element": "C" 
			},
			{
				"x": 0.6969705614,
				"y": 2.3884309351,
				"z": -1.1754075288,
				"element": "N" 
			},
			{
				"x": 1.8052491443,
				"y": 2.7270574591,
				"z": -1.8984335096,
				"element": "N" 
			},
			{
				"x": 2.1274595595,
				"y": 1.8038534547,
				"z": -2.735360533,
				"element": "N" 
			},
			{
				"x": 1.2081474958,
				"y": 0.8151760931,
				"z": -2.5710372315,
				"element": "N" 
			},
			{
				"x": -3.3545536749,
				"y": 1.3668638926,
				"z": 1.5989802156,
				"element": "H" 
			},
			{
				"x": -2.6887699919,
				"y": -0.2492376576,
				"z": 1.3271342932,
				"element": "H" 
			},
			{
				"x": -3.7209870546,
				"y": 0.5067409388,
				"z": 0.0973591489,
				"element": "H" 
			},
			{
				"x": -0.9278316473,
				"y": 1.5418457234,
				"z": 0.9455538137,
				"element": "H" 
			},
			{
				"x": -1.9563513961,
				"y": 2.2951481842,
				"z": -0.2798329544,
				"element": "H" 
			},
			{
				"x": 1.2531321929,
				"y": -0.0269681117,
				"z": -3.1260197853,
				"element": "H" 
			}
		],
		 "valence_orbital": [ 
			{
				"type": "occ",
				"energy": -0.33539,
				"method": "rhf"
			},
			{
				"type": "occ",
				"energy": -0.3233,
				"method": "rhf"
			},
			{
				"type": "occ",
				"energy": -0.29811,
				"method": "rhf"
			},
			{
				"type": "occ",
				"energy": -0.28705,
				"method": "rhf"
			},
			{
				"type": "occ",
				"energy": -0.24882,
				"method": "rhf"
			},
			{
				"type": "unocc",
				"energy": -0.01528,
				"method": "rhf"
			},
			{
				"type": "unocc",
				"energy": -0.00242,
				"method": "rhf"
			},
			{
				"type": "unocc",
				"energy": 0.02301,
				"method": "rhf"
			},
			{
				"type": "unocc",
				"energy": 0.05498,
				"method": "rhf"
			},
			{
				"type": "unocc",
				"energy": 0.06986,
				"method": "rhf"
			}
		],
		"cosmo_sigma_profile": { 
			"-0.025": 0.0,
			"-0.024": 0.0,
			"-0.023": 0.0,
			"-0.022": 0.0,
			"-0.021": 0.0,
			"-0.02": 0.136346087696,
			"-0.019": 1.68063344521,
			"-0.018": 1.82189153675,
			"-0.017": 1.06901011101,
			"-0.016": 1.14229715663,
			"-0.015": 0.981254798894,
			"-0.014": 1.45000794786,
			"-0.013": 0.675854961562,
			"-0.012": 0.794826489598,
			"-0.011": 0.70718638553,
			"-0.01": 1.04270461298,
			"-0.009": 1.13860760212,
			"-0.008": 1.08132636634,
			"-0.007": 0.856791815905,
			"-0.006": 3.4172064774,
			"-0.005": 8.21353611565,
			"-0.004": 13.4570149038,
			"-0.003": 18.8272207346,
			"-0.002": 14.7491927899,
			"-0.001": 13.2093237943,
			"0.0": 11.6790208572,
			"0.001": 5.34024009897,
			"0.002": 5.97982662375,
			"0.003": 5.42668202191,
			"0.004": 4.48154229363,
			"0.005": 5.91997853402,
			"0.006": 5.4127800187,
			"0.007": 4.25050437493,
			"0.008": 5.13611707597,
			"0.009": 4.76231075969,
			"0.01": 5.04634040692,
			"0.011": 4.1880563047,
			"0.012": 3.53046347853,
			"0.013": 2.37407745035,
			"0.014": 0.972743369547,
			"0.015": 0.0329532754638,
			"0.016": 0.0,
			"0.017": 0.0,
			"0.018": 0.0,
			"0.019": 0.0,
			"0.02": 0.0,
			"0.021": 0.0,
			"0.022": 0.0,
			"0.023": 0.0,
			"0.024": 0.0,
			"0.025": 0.0
		}
	}
}
