{
	 "smiles": "CN(C(=O)CN(CCO)CC(=O)N(C)C(C)(C)CC1=CC=CC=C1)C(C)(C)CC1=CC=CC=C1", 
	 "Tm": 377.15, 
	 "num_atms": 75, 
	 "gaussian": { 
		 "optdone": 1, 
		 "sigma_profile": "yes", 
		 "theory": "DFT", 
		 "functional": "B3LYP", 
		 "basiset": "6-31G**", 
		 "properties": { 
			 "R2extent": 22333.0934, 
			 "electric_dipole_moment_norm": 5.60834787972, 
			 "electric_quadrupole_moment_norm": 8.89115531244, 
			 "total_energy": -1481.61200967, 
			 "HOMO_LUMO_gap": 0.19993, 
			 "cosmo_polarized_energy": -21.27, 
			 "cosmo_cavitation_energy": 69.0, 
			 "cosmo_dispersion_energy": -43.63, 
			 "cosmo_repulsion_energy": 3.24, 
			 "cosmo_total_nonelectrostatic_energy": 28.61, 
			 "SMD_solvation_energy": 11.44 
		},
		"coords": [
			{
				"x": -2.6213949143,
				"y": -0.4635387932,
				"z": -4.9051118505,
				"element": "C" 
			},
			{
				"x": -2.4148589096,
				"y": -0.6933586128,
				"z": -3.466833452,
				"element": "N" 
			},
			{
				"x": -1.0921452441,
				"y": -0.8919312625,
				"z": -3.1059832231,
				"element": "C" 
			},
			{
				"x": -0.2151598804,
				"y": -1.0152859722,
				"z": -3.9632263548,
				"element": "O" 
			},
			{
				"x": -0.6226872866,
				"y": -0.8839262955,
				"z": -1.6406561394,
				"element": "C" 
			},
			{
				"x": 0.1607317613,
				"y": 0.3333792942,
				"z": -1.3667470507,
				"element": "N" 
			},
			{
				"x": 1.5186229467,
				"y": 0.2830246182,
				"z": -1.9459499361,
				"element": "C" 
			},
			{
				"x": 2.4366261177,
				"y": 1.43934776,
				"z": -1.5689064708,
				"element": "C" 
			},
			{
				"x": 2.8730364807,
				"y": 1.4329080508,
				"z": -0.211757916,
				"element": "O" 
			},
			{
				"x": 0.0244698412,
				"y": 0.7931988588,
				"z": 0.0099205204,
				"element": "C" 
			},
			{
				"x": 0.6087701821,
				"y": -0.1527645998,
				"z": 1.091697885,
				"element": "C" 
			},
			{
				"x": 1.4114748231,
				"y": -1.0273283895,
				"z": 0.7457239196,
				"element": "O" 
			},
			{
				"x": 0.1900640908,
				"y": 0.0016494247,
				"z": 2.3905920294,
				"element": "N" 
			},
			{
				"x": -0.4281162023,
				"y": 1.25902917,
				"z": 2.8201564048,
				"element": "C" 
			},
			{
				"x": 0.6609218151,
				"y": -0.9518623013,
				"z": 3.4654225936,
				"element": "C" 
			},
			{
				"x": -0.1313163994,
				"y": -0.7040235799,
				"z": 4.7629175184,
				"element": "C" 
			},
			{
				"x": 0.3731500585,
				"y": -2.4051980378,
				"z": 3.0388725331,
				"element": "C" 
			},
			{
				"x": 2.1859468937,
				"y": -0.6872572864,
				"z": 3.6961623788,
				"element": "C" 
			},
			{
				"x": 2.8600945618,
				"y": -1.5199710816,
				"z": 4.7670878216,
				"element": "C" 
			},
			{
				"x": 3.4161147292,
				"y": -2.7713708291,
				"z": 4.4591881378,
				"element": "C" 
			},
			{
				"x": 4.0430249352,
				"y": -3.5418360908,
				"z": 5.439212916,
				"element": "C" 
			},
			{
				"x": 4.1334282553,
				"y": -3.0717192278,
				"z": 6.7507760307,
				"element": "C" 
			},
			{
				"x": 3.5969964953,
				"y": -1.8235907407,
				"z": 7.0710090648,
				"element": "C" 
			},
			{
				"x": 2.969815943,
				"y": -1.0575387598,
				"z": 6.0870784167,
				"element": "C" 
			},
			{
				"x": -3.6176763594,
				"y": -0.803665071,
				"z": -2.5737920238,
				"element": "C" 
			},
			{
				"x": -4.9089306847,
				"y": -0.8416154873,
				"z": -3.4224294621,
				"element": "C" 
			},
			{
				"x": -3.5990979277,
				"y": -2.1409459011,
				"z": -1.7952306181,
				"element": "C" 
			},
			{
				"x": -3.7306516757,
				"y": 0.4058512632,
				"z": -1.5845091677,
				"element": "C" 
			},
			{
				"x": -3.7714758413,
				"y": 1.7810923733,
				"z": -2.2190569045,
				"element": "C" 
			},
			{
				"x": -2.5863850558,
				"y": 2.4385118528,
				"z": -2.586752078,
				"element": "C" 
			},
			{
				"x": -2.6292604274,
				"y": 3.7033784607,
				"z": -3.1757186307,
				"element": "C" 
			},
			{
				"x": -3.8527700672,
				"y": 4.3373429689,
				"z": -3.40222906,
				"element": "C" 
			},
			{
				"x": -5.0367681943,
				"y": 3.6994717964,
				"z": -3.0297018095,
				"element": "C" 
			},
			{
				"x": -4.9929096984,
				"y": 2.433794104,
				"z": -2.4421751104,
				"element": "C" 
			},
			{
				"x": -1.6462492161,
				"y": -0.2893567404,
				"z": -5.3517377522,
				"element": "H" 
			},
			{
				"x": -3.0722527326,
				"y": -1.3286774506,
				"z": -5.4028932733,
				"element": "H" 
			},
			{
				"x": -3.2535885536,
				"y": 0.4117977859,
				"z": -5.0634021866,
				"element": "H" 
			},
			{
				"x": -1.4399837852,
				"y": -0.9108753709,
				"z": -0.9266867261,
				"element": "H" 
			},
			{
				"x": -0.0256589154,
				"y": -1.7960548496,
				"z": -1.4910817042,
				"element": "H" 
			},
			{
				"x": 2.0197375741,
				"y": -0.660957421,
				"z": -1.6783499493,
				"element": "H" 
			},
			{
				"x": 1.4032410169,
				"y": 0.2747566937,
				"z": -3.0316831568,
				"element": "H" 
			},
			{
				"x": 1.9374878055,
				"y": 2.4018174805,
				"z": -1.7375061933,
				"element": "H" 
			},
			{
				"x": 3.3018782846,
				"y": 1.4011525175,
				"z": -2.2494794513,
				"element": "H" 
			},
			{
				"x": 2.9394499208,
				"y": 0.5055985949,
				"z": 0.0602339171,
				"element": "H" 
			},
			{
				"x": 0.5236852736,
				"y": 1.7599963762,
				"z": 0.108141415,
				"element": "H" 
			},
			{
				"x": -1.0414414854,
				"y": 0.961005189,
				"z": 0.1987956535,
				"element": "H" 
			},
			{
				"x": 0.2275532506,
				"y": 1.7998155271,
				"z": 3.5124295547,
				"element": "H" 
			},
			{
				"x": -1.3880476545,
				"y": 1.0917426758,
				"z": 3.3161799929,
				"element": "H" 
			},
			{
				"x": -0.5995045264,
				"y": 1.9138142165,
				"z": 1.9710338798,
				"element": "H" 
			},
			{
				"x": 0.1913646985,
				"y": -1.4333154342,
				"z": 5.5085105634,
				"element": "H" 
			},
			{
				"x": -1.2053073185,
				"y": -0.8429672626,
				"z": 4.604798477,
				"element": "H" 
			},
			{
				"x": 0.0330040354,
				"y": 0.2887468144,
				"z": 5.1894766098,
				"element": "H" 
			},
			{
				"x": 0.6318173914,
				"y": -3.0820834503,
				"z": 3.8571723678,
				"element": "H" 
			},
			{
				"x": 0.9351338007,
				"y": -2.6881348171,
				"z": 2.1515715192,
				"element": "H" 
			},
			{
				"x": -0.6951021555,
				"y": -2.5227222454,
				"z": 2.8280527035,
				"element": "H" 
			},
			{
				"x": 2.6845410546,
				"y": -0.8523659982,
				"z": 2.7389167815,
				"element": "H" 
			},
			{
				"x": 2.3005736911,
				"y": 0.3754619547,
				"z": 3.9431946194,
				"element": "H" 
			},
			{
				"x": 3.363349361,
				"y": -3.1391007139,
				"z": 3.4379235942,
				"element": "H" 
			},
			{
				"x": 4.4683681173,
				"y": -4.5063520176,
				"z": 5.1758480393,
				"element": "H" 
			},
			{
				"x": 4.6255104483,
				"y": -3.6682129362,
				"z": 7.5136507592,
				"element": "H" 
			},
			{
				"x": 3.6726023832,
				"y": -1.4417076488,
				"z": 8.0854654171,
				"element": "H" 
			},
			{
				"x": 2.5679166692,
				"y": -0.0804843904,
				"z": 6.3444479963,
				"element": "H" 
			},
			{
				"x": -5.7574701683,
				"y": -0.9754268931,
				"z": -2.7451588912,
				"element": "H" 
			},
			{
				"x": -5.0792339603,
				"y": 0.0785535497,
				"z": -3.9816753139,
				"element": "H" 
			},
			{
				"x": -4.9098654622,
				"y": -1.6835136864,
				"z": -4.1187130375,
				"element": "H" 
			},
			{
				"x": -4.521756943,
				"y": -2.245059709,
				"z": -1.215271826,
				"element": "H" 
			},
			{
				"x": -3.5466148735,
				"y": -2.9772603739,
				"z": -2.498893952,
				"element": "H" 
			},
			{
				"x": -2.7663391939,
				"y": -2.2403941446,
				"z": -1.0989189226,
				"element": "H" 
			},
			{
				"x": -2.90384192,
				"y": 0.3668448199,
				"z": -0.8718130314,
				"element": "H" 
			},
			{
				"x": -4.6434928055,
				"y": 0.2497133445,
				"z": -0.9973418067,
				"element": "H" 
			},
			{
				"x": -1.6274746807,
				"y": 1.9596514489,
				"z": -2.4021786812,
				"element": "H" 
			},
			{
				"x": -1.7020227133,
				"y": 4.197108349,
				"z": -3.4535622345,
				"element": "H" 
			},
			{
				"x": -3.8826005351,
				"y": 5.3231727107,
				"z": -3.8576602953,
				"element": "H" 
			},
			{
				"x": -5.9942382437,
				"y": 4.1873646268,
				"z": -3.1904317443,
				"element": "H" 
			},
			{
				"x": -5.9198120962,
				"y": 1.9487572025,
				"z": -2.1448546431,
				"element": "H" 
			}
		],
		 "valence_orbital": [ 
			{
				"type": "occ",
				"energy": -0.24274,
				"method": "rhf"
			},
			{
				"type": "occ",
				"energy": -0.23929,
				"method": "rhf"
			},
			{
				"type": "occ",
				"energy": -0.23172,
				"method": "rhf"
			},
			{
				"type": "occ",
				"energy": -0.2278,
				"method": "rhf"
			},
			{
				"type": "occ",
				"energy": -0.20199,
				"method": "rhf"
			},
			{
				"type": "unocc",
				"energy": -0.00206,
				"method": "rhf"
			},
			{
				"type": "unocc",
				"energy": -0.00131,
				"method": "rhf"
			},
			{
				"type": "unocc",
				"energy": 0.00031,
				"method": "rhf"
			},
			{
				"type": "unocc",
				"energy": 0.00055,
				"method": "rhf"
			},
			{
				"type": "unocc",
				"energy": 0.01526,
				"method": "rhf"
			}
		],
		"cosmo_sigma_profile": { 
			"-0.025": 0.0,
			"-0.024": 0.0,
			"-0.023": 0.0,
			"-0.022": 0.0,
			"-0.021": 0.0,
			"-0.02": 0.0,
			"-0.019": 0.0,
			"-0.018": 0.0,
			"-0.017": 0.0,
			"-0.016": 0.0,
			"-0.015": 0.0,
			"-0.014": 0.0,
			"-0.013": 0.0,
			"-0.012": 0.0,
			"-0.011": 0.0,
			"-0.01": 0.000410549556665,
			"-0.009": 0.580323318344,
			"-0.008": 1.85642561237,
			"-0.007": 4.31125172607,
			"-0.006": 8.877277973,
			"-0.005": 32.4848120494,
			"-0.004": 58.7987508199,
			"-0.003": 66.3792114904,
			"-0.002": 63.9353165698,
			"-0.001": 55.8211552641,
			"0.0": 51.6366090499,
			"0.001": 39.915141181,
			"0.002": 29.2396366818,
			"0.003": 23.3819155353,
			"0.004": 21.3156135331,
			"0.005": 21.39230928,
			"0.006": 20.4104356699,
			"0.007": 9.23942978899,
			"0.008": 4.01064897108,
			"0.009": 3.99545234564,
			"0.01": 3.91607130562,
			"0.011": 3.18096693084,
			"0.012": 3.18260786373,
			"0.013": 4.61731368735,
			"0.014": 5.37140889416,
			"0.015": 1.29594461961,
			"0.016": 0.0105938870101,
			"0.017": 0.0,
			"0.018": 0.0,
			"0.019": 0.0,
			"0.02": 0.0,
			"0.021": 0.0,
			"0.022": 0.0,
			"0.023": 0.0,
			"0.024": 0.0,
			"0.025": 0.0
		}
	}
}
