{
	 "smiles": "CCOC(=O)C1=CC(=NN1)C1=CC=CS1", 
	 "Tm": 411.15, 
	 "num_atms": 25, 
	 "gaussian": { 
		 "optdone": 1, 
		 "sigma_profile": "yes", 
		 "theory": "DFT", 
		 "functional": "B3LYP", 
		 "basiset": "6-31G**", 
		 "properties": { 
			 "R2extent": 6267.8373, 
			 "electric_dipole_moment_norm": 2.92892761604, 
			 "electric_quadrupole_moment_norm": 11.2446170855, 
			 "total_energy": -1045.21720436, 
			 "HOMO_LUMO_gap": 0.16594, 
			 "cosmo_polarized_energy": -11.8, 
			 "cosmo_cavitation_energy": 31.92, 
			 "cosmo_dispersion_energy": -23.86, 
			 "cosmo_repulsion_energy": 1.83, 
			 "cosmo_total_nonelectrostatic_energy": 9.9, 
			 "SMD_solvation_energy": 5.6 
		},
		"coords": [
			{
				"x": 0.1806493351,
				"y": -4.3408388526,
				"z": -1.7088736252,
				"element": "C" 
			},
			{
				"x": -0.9749324988,
				"y": -3.7972593392,
				"z": -0.8829047786,
				"element": "C" 
			},
			{
				"x": -0.8805455122,
				"y": -2.3578090257,
				"z": -0.7292616538,
				"element": "O" 
			},
			{
				"x": -1.4065185288,
				"y": -1.6147981789,
				"z": -1.7192922512,
				"element": "C" 
			},
			{
				"x": -1.9534307027,
				"y": -2.0569218979,
				"z": -2.7154994322,
				"element": "O" 
			},
			{
				"x": -1.2553029031,
				"y": -0.1759899689,
				"z": -1.4680253232,
				"element": "C" 
			},
			{
				"x": -0.6950431368,
				"y": 0.5804206115,
				"z": -0.4519501543,
				"element": "C" 
			},
			{
				"x": -0.8969051828,
				"y": 1.9258329347,
				"z": -0.8501592391,
				"element": "C" 
			},
			{
				"x": -1.5381460166,
				"y": 1.9846492337,
				"z": -2.0330230853,
				"element": "N" 
			},
			{
				"x": -1.7404523392,
				"y": 0.711708146,
				"z": -2.3796237916,
				"element": "N" 
			},
			{
				"x": -0.5059161975,
				"y": 3.1428308919,
				"z": -0.1552456439,
				"element": "C" 
			},
			{
				"x": 0.1472800031,
				"y": 3.2668886632,
				"z": 1.0493541948,
				"element": "C" 
			},
			{
				"x": 0.3712102699,
				"y": 4.6211198654,
				"z": 1.4320502464,
				"element": "C" 
			},
			{
				"x": -0.1135742202,
				"y": 5.5136718619,
				"z": 0.5152848128,
				"element": "C" 
			},
			{
				"x": -0.8537202574,
				"y": 4.7163073635,
				"z": -0.834812592,
				"element": "S" 
			},
			{
				"x": 1.1415039158,
				"y": -4.0568161956,
				"z": -1.2700730018,
				"element": "H" 
			},
			{
				"x": 0.1277688459,
				"y": -5.4340472834,
				"z": -1.7431432606,
				"element": "H" 
			},
			{
				"x": 0.1326775496,
				"y": -3.9636986206,
				"z": -2.7332821284,
				"element": "H" 
			},
			{
				"x": -1.9373177622,
				"y": -4.0383185522,
				"z": -1.3400492583,
				"element": "H" 
			},
			{
				"x": -0.952438525,
				"y": -4.1772893062,
				"z": 0.1408141019,
				"element": "H" 
			},
			{
				"x": -0.2152048498,
				"y": 0.2066782662,
				"z": 0.4385711551,
				"element": "H" 
			},
			{
				"x": -2.2120867175,
				"y": 0.4719001829,
				"z": -3.2399842408,
				"element": "H" 
			},
			{
				"x": 0.4579425985,
				"y": 2.4149531243,
				"z": 1.643791862,
				"element": "H" 
			},
			{
				"x": 0.8705277573,
				"y": 4.9142325517,
				"z": 2.3485137119,
				"element": "H" 
			},
			{
				"x": -0.0811249248,
				"y": 6.5938935244,
				"z": 0.5505233756,
				"element": "H" 
			}
		],
		 "valence_orbital": [ 
			{
				"type": "occ",
				"energy": -0.29283,
				"method": "rhf"
			},
			{
				"type": "occ",
				"energy": -0.28927,
				"method": "rhf"
			},
			{
				"type": "occ",
				"energy": -0.26449,
				"method": "rhf"
			},
			{
				"type": "occ",
				"energy": -0.24701,
				"method": "rhf"
			},
			{
				"type": "occ",
				"energy": -0.21141,
				"method": "rhf"
			},
			{
				"type": "unocc",
				"energy": -0.04547,
				"method": "rhf"
			},
			{
				"type": "unocc",
				"energy": -0.02842,
				"method": "rhf"
			},
			{
				"type": "unocc",
				"energy": 0.04025,
				"method": "rhf"
			},
			{
				"type": "unocc",
				"energy": 0.05005,
				"method": "rhf"
			},
			{
				"type": "unocc",
				"energy": 0.08755,
				"method": "rhf"
			}
		],
		"cosmo_sigma_profile": { 
			"-0.025": 0.0,
			"-0.024": 0.0,
			"-0.023": 0.0,
			"-0.022": 0.0,
			"-0.021": 0.0,
			"-0.02": 0.0,
			"-0.019": 0.0,
			"-0.018": 0.0,
			"-0.017": 0.440907898284,
			"-0.016": 0.801607811818,
			"-0.015": 1.04701341662,
			"-0.014": 0.758343695528,
			"-0.013": 0.817519179379,
			"-0.012": 0.547793539494,
			"-0.011": 0.736767818673,
			"-0.01": 0.620260048551,
			"-0.009": 1.3554679663,
			"-0.008": 4.70768901624,
			"-0.007": 7.98766447467,
			"-0.006": 9.56102735136,
			"-0.005": 13.3137400301,
			"-0.004": 18.7866549011,
			"-0.003": 22.3399442145,
			"-0.002": 20.9798735787,
			"-0.001": 15.971570004,
			"0.0": 18.0122007207,
			"0.001": 16.1213011719,
			"0.002": 17.8300716315,
			"0.003": 22.059597168,
			"0.004": 20.9848741219,
			"0.005": 15.9748953684,
			"0.006": 5.31454127274,
			"0.007": 4.3597802915,
			"0.008": 2.7805608335,
			"0.009": 2.20894992995,
			"0.01": 3.18208864491,
			"0.011": 4.86173963361,
			"0.012": 2.07214036777,
			"0.013": 0.745275454091,
			"0.014": 0.0,
			"0.015": 0.0,
			"0.016": 0.0,
			"0.017": 0.0,
			"0.018": 0.0,
			"0.019": 0.0,
			"0.02": 0.0,
			"0.021": 0.0,
			"0.022": 0.0,
			"0.023": 0.0,
			"0.024": 0.0,
			"0.025": 0.0
		}
	}
}
