{
	 "smiles": "NC1=C2N=C(OC2=CC=C1)C(F)(F)F", 
	 "Tm": 323.15, 
	 "num_atms": 19, 
	 "gaussian": { 
		 "optdone": 1, 
		 "sigma_profile": "yes", 
		 "theory": "DFT", 
		 "functional": "B3LYP", 
		 "basiset": "6-31G**", 
		 "properties": { 
			 "R2extent": 5541.0024, 
			 "electric_dipole_moment_norm": 3.49044680378, 
			 "electric_quadrupole_moment_norm": 11.7370033024, 
			 "total_energy": -792.108957009, 
			 "HOMO_LUMO_gap": 0.17201, 
			 "cosmo_polarized_energy": -8.07, 
			 "cosmo_cavitation_energy": 25.6, 
			 "cosmo_dispersion_energy": -18.71, 
			 "cosmo_repulsion_energy": 1.42, 
			 "cosmo_total_nonelectrostatic_energy": 8.31, 
			 "SMD_solvation_energy": 4.32 
		},
		"coords": [
			{
				"x": 1.1038468344,
				"y": 2.7160448804,
				"z": -2.0579566216,
				"element": "N" 
			},
			{
				"x": 1.2426051329,
				"y": 1.5274360351,
				"z": -1.3734386399,
				"element": "C" 
			},
			{
				"x": 1.6347864417,
				"y": 1.5210064799,
				"z": -0.0195960756,
				"element": "C" 
			},
			{
				"x": 1.8726297681,
				"y": 2.5908253357,
				"z": 0.842000578,
				"element": "N" 
			},
			{
				"x": 2.1915755194,
				"y": 2.0172549948,
				"z": 1.9525929175,
				"element": "C" 
			},
			{
				"x": 2.1987074481,
				"y": 0.6503275897,
				"z": 1.952899903,
				"element": "O" 
			},
			{
				"x": 1.8328539049,
				"y": 0.3199156147,
				"z": 0.6668650538,
				"element": "C" 
			},
			{
				"x": 1.6641884751,
				"y": -0.9394299758,
				"z": 0.107508016,
				"element": "C" 
			},
			{
				"x": 1.2686411734,
				"y": -0.923440008,
				"z": -1.2329897158,
				"element": "C" 
			},
			{
				"x": 1.0618957153,
				"y": 0.2622965183,
				"z": -1.9564047801,
				"element": "C" 
			},
			{
				"x": 2.55557044,
				"y": 2.6785211941,
				"z": 3.2510067806,
				"element": "C" 
			},
			{
				"x": 3.7970865915,
				"y": 2.3242993093,
				"z": 3.6381698243,
				"element": "F" 
			},
			{
				"x": 2.51007444,
				"y": 4.0091735398,
				"z": 3.1288256047,
				"element": "F" 
			},
			{
				"x": 1.7075370036,
				"y": 2.3078811983,
				"z": 4.2314700002,
				"element": "F" 
			},
			{
				"x": 1.0240736616,
				"y": 3.545766674,
				"z": -1.4875902564,
				"element": "H" 
			},
			{
				"x": 0.5182749914,
				"y": 2.7105646916,
				"z": -2.8792548028,
				"element": "H" 
			},
			{
				"x": 1.8226433448,
				"y": -1.8551185176,
				"z": 0.6629145914,
				"element": "H" 
			},
			{
				"x": 1.1124691733,
				"y": -1.8692104731,
				"z": -1.7434292555,
				"element": "H" 
			},
			{
				"x": 0.7607399405,
				"y": 0.2014849188,
				"z": -2.9984931218,
				"element": "H" 
			}
		],
		 "valence_orbital": [ 
			{
				"type": "occ",
				"energy": -0.34369,
				"method": "rhf"
			},
			{
				"type": "occ",
				"energy": -0.31475,
				"method": "rhf"
			},
			{
				"type": "occ",
				"energy": -0.3115,
				"method": "rhf"
			},
			{
				"type": "occ",
				"energy": -0.25119,
				"method": "rhf"
			},
			{
				"type": "occ",
				"energy": -0.21124,
				"method": "rhf"
			},
			{
				"type": "unocc",
				"energy": -0.03923,
				"method": "rhf"
			},
			{
				"type": "unocc",
				"energy": 0.00611,
				"method": "rhf"
			},
			{
				"type": "unocc",
				"energy": 0.02582,
				"method": "rhf"
			},
			{
				"type": "unocc",
				"energy": 0.07804,
				"method": "rhf"
			},
			{
				"type": "unocc",
				"energy": 0.09012,
				"method": "rhf"
			}
		],
		"cosmo_sigma_profile": { 
			"-0.025": 0.0,
			"-0.024": 0.0,
			"-0.023": 0.0,
			"-0.022": 0.0,
			"-0.021": 0.0,
			"-0.02": 0.0,
			"-0.019": 0.0,
			"-0.018": 0.0,
			"-0.017": 0.0,
			"-0.016": 0.0,
			"-0.015": 0.0,
			"-0.014": 0.243460620304,
			"-0.013": 1.4800246221,
			"-0.012": 2.27320191399,
			"-0.011": 2.2712829857,
			"-0.01": 2.59767543748,
			"-0.009": 2.36614890493,
			"-0.008": 2.45902345585,
			"-0.007": 4.17718948119,
			"-0.006": 7.22305765873,
			"-0.005": 6.83845857377,
			"-0.004": 11.998352138,
			"-0.003": 9.79484878174,
			"-0.002": 10.2444393348,
			"-0.001": 13.2604893307,
			"0.0": 13.6037060948,
			"0.001": 25.5585074227,
			"0.002": 40.7710097768,
			"0.003": 13.9264911535,
			"0.004": 11.3097913884,
			"0.005": 10.3894238531,
			"0.006": 3.77982040647,
			"0.007": 2.29316215226,
			"0.008": 1.45952837151,
			"0.009": 1.91343328356,
			"0.01": 1.5862739621,
			"0.011": 1.44082946289,
			"0.012": 0.738273710629,
			"0.013": 0.0704597529551,
			"0.014": 0.0,
			"0.015": 0.0,
			"0.016": 0.0,
			"0.017": 0.0,
			"0.018": 0.0,
			"0.019": 0.0,
			"0.02": 0.0,
			"0.021": 0.0,
			"0.022": 0.0,
			"0.023": 0.0,
			"0.024": 0.0,
			"0.025": 0.0
		}
	}
}
