{
	 "smiles": "COC1=CC=C(OC)C2=C1C=CC=C2", 
	 "Tm": 358.65, 
	 "num_atms": 26, 
	 "gaussian": { 
		 "optdone": 1, 
		 "sigma_profile": "yes", 
		 "theory": "DFT", 
		 "functional": "B3LYP", 
		 "basiset": "6-31G**", 
		 "properties": { 
			 "R2extent": 3034.3743, 
			 "electric_dipole_moment_norm": 2.27439001713, 
			 "electric_quadrupole_moment_norm": 10.2716654239, 
			 "total_energy": -614.942610638, 
			 "HOMO_LUMO_gap": 0.16373, 
			 "cosmo_polarized_energy": -7.86, 
			 "cosmo_cavitation_energy": 28.88, 
			 "cosmo_dispersion_energy": -21.6, 
			 "cosmo_repulsion_energy": 1.67, 
			 "cosmo_total_nonelectrostatic_energy": 8.95, 
			 "SMD_solvation_energy": 6.22 
		},
		"coords": [
			{
				"x": -3.6204685737,
				"y": -0.8770108688,
				"z": 1.3330298372,
				"element": "C" 
			},
			{
				"x": -2.8521995401,
				"y": -0.8263845551,
				"z": 0.1449740577,
				"element": "O" 
			},
			{
				"x": -1.6143593743,
				"y": -0.2445944724,
				"z": 0.2055169927,
				"element": "C" 
			},
			{
				"x": -1.0547747725,
				"y": 0.2991165861,
				"z": 1.339334744,
				"element": "C" 
			},
			{
				"x": 0.2400648967,
				"y": 0.8822360026,
				"z": 1.3021233993,
				"element": "C" 
			},
			{
				"x": 0.9630597024,
				"y": 0.9160187802,
				"z": 0.1314692397,
				"element": "C" 
			},
			{
				"x": 2.2144420745,
				"y": 1.455414784,
				"z": -0.0006814191,
				"element": "O" 
			},
			{
				"x": 2.816710646,
				"y": 2.0239288907,
				"z": 1.1475152753,
				"element": "C" 
			},
			{
				"x": 0.4120501685,
				"y": 0.3589323245,
				"z": -1.0699647125,
				"element": "C" 
			},
			{
				"x": -0.8903295678,
				"y": -0.2274054558,
				"z": -1.0325720766,
				"element": "C" 
			},
			{
				"x": -1.4314393944,
				"y": -0.7767677702,
				"z": -2.2225088251,
				"element": "C" 
			},
			{
				"x": -0.7151672147,
				"y": -0.7478869294,
				"z": -3.4003952122,
				"element": "C" 
			},
			{
				"x": 0.5725479471,
				"y": -0.1682416578,
				"z": -3.43734893,
				"element": "C" 
			},
			{
				"x": 1.1244150775,
				"y": 0.3737856759,
				"z": -2.29587816,
				"element": "C" 
			},
			{
				"x": -4.5565272718,
				"y": -1.372330529,
				"z": 1.0694993042,
				"element": "H" 
			},
			{
				"x": -3.8391141689,
				"y": 0.1284845267,
				"z": 1.7167046332,
				"element": "H" 
			},
			{
				"x": -3.114287125,
				"y": -1.4547312461,
				"z": 2.1179195796,
				"element": "H" 
			},
			{
				"x": -1.5880630894,
				"y": 0.294312257,
				"z": 2.2822007162,
				"element": "H" 
			},
			{
				"x": 0.6414559918,
				"y": 1.2984553623,
				"z": 2.2181207529,
				"element": "H" 
			},
			{
				"x": 3.7937993774,
				"y": 2.3909241446,
				"z": 0.8287551371,
				"element": "H" 
			},
			{
				"x": 2.9522571622,
				"y": 1.2799445685,
				"z": 1.9438501002,
				"element": "H" 
			},
			{
				"x": 2.2264199268,
				"y": 2.8622617298,
				"z": 1.5409430269,
				"element": "H" 
			},
			{
				"x": -2.4199630818,
				"y": -1.2194236117,
				"z": -2.1848336946,
				"element": "H" 
			},
			{
				"x": -1.1422115393,
				"y": -1.1725550877,
				"z": -4.3045519609,
				"element": "H" 
			},
			{
				"x": 1.1297709408,
				"y": -0.1498618653,
				"z": -4.3697515475,
				"element": "H" 
			},
			{
				"x": 2.1116108019,
				"y": 0.8205784165,
				"z": -2.3149702579,
				"element": "H" 
			}
		],
		 "valence_orbital": [ 
			{
				"type": "occ",
				"energy": -0.31551,
				"method": "rhf"
			},
			{
				"type": "occ",
				"energy": -0.2821,
				"method": "rhf"
			},
			{
				"type": "occ",
				"energy": -0.2469,
				"method": "rhf"
			},
			{
				"type": "occ",
				"energy": -0.23613,
				"method": "rhf"
			},
			{
				"type": "occ",
				"energy": -0.18371,
				"method": "rhf"
			},
			{
				"type": "unocc",
				"energy": -0.01998,
				"method": "rhf"
			},
			{
				"type": "unocc",
				"energy": -0.00217,
				"method": "rhf"
			},
			{
				"type": "unocc",
				"energy": 0.05717,
				"method": "rhf"
			},
			{
				"type": "unocc",
				"energy": 0.09561,
				"method": "rhf"
			},
			{
				"type": "unocc",
				"energy": 0.10495,
				"method": "rhf"
			}
		],
		"cosmo_sigma_profile": { 
			"-0.025": 0.0,
			"-0.024": 0.0,
			"-0.023": 0.0,
			"-0.022": 0.0,
			"-0.021": 0.0,
			"-0.02": 0.0,
			"-0.019": 0.0,
			"-0.018": 0.0,
			"-0.017": 0.0,
			"-0.016": 0.0,
			"-0.015": 0.0,
			"-0.014": 0.0,
			"-0.013": 0.0,
			"-0.012": 0.0,
			"-0.011": 0.0,
			"-0.01": 0.0,
			"-0.009": 0.0,
			"-0.008": 0.0,
			"-0.007": 0.300956415646,
			"-0.006": 8.84451856002,
			"-0.005": 26.4207116956,
			"-0.004": 25.5795802404,
			"-0.003": 27.4870549186,
			"-0.002": 15.5829680343,
			"-0.001": 11.9317116488,
			"0.0": 9.66412258569,
			"0.001": 10.2313143797,
			"0.002": 10.3410546891,
			"0.003": 18.4175043495,
			"0.004": 26.778111842,
			"0.005": 20.5321174958,
			"0.006": 10.3834334299,
			"0.007": 4.54670625823,
			"0.008": 2.38375780407,
			"0.009": 0.71203452376,
			"0.01": 0.0,
			"0.011": 0.0,
			"0.012": 0.0,
			"0.013": 0.0,
			"0.014": 0.0,
			"0.015": 0.0,
			"0.016": 0.0,
			"0.017": 0.0,
			"0.018": 0.0,
			"0.019": 0.0,
			"0.02": 0.0,
			"0.021": 0.0,
			"0.022": 0.0,
			"0.023": 0.0,
			"0.024": 0.0,
			"0.025": 0.0
		}
	}
}
