{
	 "smiles": "NNC(=O)CC1CCCCC1", 
	 "Tm": 393.15, 
	 "num_atms": 27, 
	 "gaussian": { 
		 "optdone": 1, 
		 "sigma_profile": "yes", 
		 "theory": "DFT", 
		 "functional": "B3LYP", 
		 "basiset": "6-31G**", 
		 "properties": { 
			 "R2extent": 2273.024, 
			 "electric_dipole_moment_norm": 3.27076538749, 
			 "electric_quadrupole_moment_norm": 10.0894941632, 
			 "total_energy": -499.219492472, 
			 "HOMO_LUMO_gap": 0.25712, 
			 "cosmo_polarized_energy": -12.79, 
			 "cosmo_cavitation_energy": 27.18, 
			 "cosmo_dispersion_energy": -19.94, 
			 "cosmo_repulsion_energy": 1.62, 
			 "cosmo_total_nonelectrostatic_energy": 8.87, 
			 "SMD_solvation_energy": 4.63 
		},
		"coords": [
			{
				"x": -0.0834369022,
				"y": 2.6542592738,
				"z": -2.7016186578,
				"element": "N" 
			},
			{
				"x": -1.2532190637,
				"y": 2.4596184928,
				"z": -1.9532699211,
				"element": "N" 
			},
			{
				"x": -1.3967713481,
				"y": 2.1952587319,
				"z": -0.61001297,
				"element": "C" 
			},
			{
				"x": -2.5166276723,
				"y": 2.0064240719,
				"z": -0.1473358531,
				"element": "O" 
			},
			{
				"x": -0.1397434651,
				"y": 2.1493409736,
				"z": 0.2501769416,
				"element": "C" 
			},
			{
				"x": 0.274018109,
				"y": 0.7205938088,
				"z": 0.6885919833,
				"element": "C" 
			},
			{
				"x": 0.6105050381,
				"y": -0.1903141841,
				"z": -0.5089223112,
				"element": "C" 
			},
			{
				"x": 1.0609141762,
				"y": -1.5899778937,
				"z": -0.0608927874,
				"element": "C" 
			},
			{
				"x": 0.0199679394,
				"y": -2.2472268869,
				"z": 0.856988704,
				"element": "C" 
			},
			{
				"x": -0.3069867614,
				"y": -1.3464787035,
				"z": 2.0572368109,
				"element": "C" 
			},
			{
				"x": -0.7645247778,
				"y": 0.0500215767,
				"z": 1.6085388898,
				"element": "C" 
			},
			{
				"x": 0.5327074803,
				"y": 1.8507668922,
				"z": -2.6161932171,
				"element": "H" 
			},
			{
				"x": 0.4094109881,
				"y": 3.4861088774,
				"z": -2.3875146392,
				"element": "H" 
			},
			{
				"x": -2.1150560002,
				"y": 2.4679440282,
				"z": -2.4837063242,
				"element": "H" 
			},
			{
				"x": 0.7041530736,
				"y": 2.6276797896,
				"z": -0.2573853999,
				"element": "H" 
			},
			{
				"x": -0.3667011889,
				"y": 2.7410842306,
				"z": 1.1430282153,
				"element": "H" 
			},
			{
				"x": 1.1990579112,
				"y": 0.8445977598,
				"z": 1.2728174793,
				"element": "H" 
			},
			{
				"x": -0.2774349995,
				"y": -0.2880579504,
				"z": -1.1501560162,
				"element": "H" 
			},
			{
				"x": 1.3982141542,
				"y": 0.2718209619,
				"z": -1.121066904,
				"element": "H" 
			},
			{
				"x": 2.0156817712,
				"y": -1.5055205087,
				"z": 0.4775804089,
				"element": "H" 
			},
			{
				"x": 1.2530271892,
				"y": -2.2205933606,
				"z": -0.9372800382,
				"element": "H" 
			},
			{
				"x": -0.8994798269,
				"y": -2.434743085,
				"z": 0.2845820212,
				"element": "H" 
			},
			{
				"x": 0.3804977893,
				"y": -3.2249217379,
				"z": 1.1986502169,
				"element": "H" 
			},
			{
				"x": 0.5873919792,
				"y": -1.2531936201,
				"z": 2.6906107802,
				"element": "H" 
			},
			{
				"x": -1.0809097749,
				"y": -1.8098708709,
				"z": 2.6805145402,
				"element": "H" 
			},
			{
				"x": -0.9456992905,
				"y": 0.6880876925,
				"z": 2.4823399041,
				"element": "H" 
			},
			{
				"x": -1.7224565275,
				"y": -0.0197083599,
				"z": 1.0811981437,
				"element": "H" 
			}
		],
		 "valence_orbital": [ 
			{
				"type": "occ",
				"energy": -0.29935,
				"method": "rhf"
			},
			{
				"type": "occ",
				"energy": -0.29585,
				"method": "rhf"
			},
			{
				"type": "occ",
				"energy": -0.28588,
				"method": "rhf"
			},
			{
				"type": "occ",
				"energy": -0.25304,
				"method": "rhf"
			},
			{
				"type": "occ",
				"energy": -0.23723,
				"method": "rhf"
			},
			{
				"type": "unocc",
				"energy": 0.01989,
				"method": "rhf"
			},
			{
				"type": "unocc",
				"energy": 0.06008,
				"method": "rhf"
			},
			{
				"type": "unocc",
				"energy": 0.09297,
				"method": "rhf"
			},
			{
				"type": "unocc",
				"energy": 0.10446,
				"method": "rhf"
			},
			{
				"type": "unocc",
				"energy": 0.1092,
				"method": "rhf"
			}
		],
		"cosmo_sigma_profile": { 
			"-0.025": 0.0,
			"-0.024": 0.0,
			"-0.023": 0.0,
			"-0.022": 0.0,
			"-0.021": 0.0,
			"-0.02": 0.0,
			"-0.019": 0.0,
			"-0.018": 0.0,
			"-0.017": 0.0,
			"-0.016": 0.0,
			"-0.015": 0.0,
			"-0.014": 0.0,
			"-0.013": 0.563961202808,
			"-0.012": 1.47931930039,
			"-0.011": 2.6269079699,
			"-0.01": 2.93153496158,
			"-0.009": 4.98457530738,
			"-0.008": 4.72645262309,
			"-0.007": 4.17063153089,
			"-0.006": 3.46733576567,
			"-0.005": 3.92857889214,
			"-0.004": 5.838329641,
			"-0.003": 9.89204942007,
			"-0.002": 28.2311875577,
			"-0.001": 37.0720127765,
			"0.0": 30.2793939634,
			"0.001": 23.1834907807,
			"0.002": 10.1386158482,
			"0.003": 3.72632053884,
			"0.004": 2.31400449764,
			"0.005": 1.97447160987,
			"0.006": 2.28652857926,
			"0.007": 1.97387102022,
			"0.008": 2.30747705979,
			"0.009": 2.0830500687,
			"0.01": 2.14070665993,
			"0.011": 2.11969332338,
			"0.012": 2.32507928821,
			"0.013": 2.74531209881,
			"0.014": 5.85526489256,
			"0.015": 3.021862738,
			"0.016": 0.448768194532,
			"0.017": 0.00616843974246,
			"0.018": 0.0,
			"0.019": 0.0,
			"0.02": 0.0,
			"0.021": 0.0,
			"0.022": 0.0,
			"0.023": 0.0,
			"0.024": 0.0,
			"0.025": 0.0
		}
	}
}
