{
	 "smiles": "NC1=C(F)C=CC(=C1)N1CCCC1=O", 
	 "Tm": 380.15, 
	 "num_atms": 25, 
	 "gaussian": { 
		 "optdone": 1, 
		 "sigma_profile": "yes", 
		 "theory": "DFT", 
		 "functional": "B3LYP", 
		 "basiset": "6-31G**", 
		 "properties": { 
			 "R2extent": 3490.8536, 
			 "electric_dipole_moment_norm": 4.6474542569, 
			 "electric_quadrupole_moment_norm": 10.8942119201, 
			 "total_energy": -672.276715957, 
			 "HOMO_LUMO_gap": 0.19192, 
			 "cosmo_polarized_energy": -14.2, 
			 "cosmo_cavitation_energy": 28.17, 
			 "cosmo_dispersion_energy": -21.11, 
			 "cosmo_repulsion_energy": 1.64, 
			 "cosmo_total_nonelectrostatic_energy": 8.69, 
			 "SMD_solvation_energy": 5.06 
		},
		"coords": [
			{
				"x": 2.0921447658,
				"y": 0.728824431,
				"z": -3.1587232851,
				"element": "N" 
			},
			{
				"x": 1.3869759916,
				"y": 1.1971727726,
				"z": -2.0502915249,
				"element": "C" 
			},
			{
				"x": 1.3395065191,
				"y": 2.5696892105,
				"z": -1.7818632946,
				"element": "C" 
			},
			{
				"x": 1.9398125817,
				"y": 3.4047482977,
				"z": -2.6744654007,
				"element": "F" 
			},
			{
				"x": 0.6978036979,
				"y": 3.0788479374,
				"z": -0.6684269664,
				"element": "C" 
			},
			{
				"x": 0.0725785306,
				"y": 2.2208017137,
				"z": 0.236106288,
				"element": "C" 
			},
			{
				"x": 0.0986736897,
				"y": 0.8354390436,
				"z": -0.0017810749,
				"element": "C" 
			},
			{
				"x": 0.7539459801,
				"y": 0.3385295853,
				"z": -1.1418432251,
				"element": "C" 
			},
			{
				"x": -0.5075027333,
				"y": -0.0813134708,
				"z": 0.8941640085,
				"element": "N" 
			},
			{
				"x": -0.2843000049,
				"y": -1.527059729,
				"z": 0.7777270042,
				"element": "C" 
			},
			{
				"x": -0.8499315212,
				"y": -2.0990590143,
				"z": 2.0894115898,
				"element": "C" 
			},
			{
				"x": -1.9308939131,
				"y": -1.087522288,
				"z": 2.4803941865,
				"element": "C" 
			},
			{
				"x": -1.4612020796,
				"y": 0.2262942561,
				"z": 1.8587784464,
				"element": "C" 
			},
			{
				"x": -1.8726938353,
				"y": 1.3362019937,
				"z": 2.1518713432,
				"element": "O" 
			},
			{
				"x": 2.2550095243,
				"y": 1.4364651163,
				"z": -3.8620838997,
				"element": "H" 
			},
			{
				"x": 1.7449546972,
				"y": -0.13406557,
				"z": -3.5536790998,
				"element": "H" 
			},
			{
				"x": 0.6877351683,
				"y": 4.1525855715,
				"z": -0.5129381489,
				"element": "H" 
			},
			{
				"x": -0.4415014792,
				"y": 2.6095732343,
				"z": 1.1014338544,
				"element": "H" 
			},
			{
				"x": 0.7821541008,
				"y": -0.7255487869,
				"z": -1.3468055032,
				"element": "H" 
			},
			{
				"x": -0.8111728834,
				"y": -1.9305366599,
				"z": -0.0992678733,
				"element": "H" 
			},
			{
				"x": 0.7818865936,
				"y": -1.7388158308,
				"z": 0.6543187534,
				"element": "H" 
			},
			{
				"x": -1.222250152,
				"y": -3.118451853,
				"z": 1.9632741527,
				"element": "H" 
			},
			{
				"x": -0.0629150438,
				"y": -2.1214079833,
				"z": 2.8497933731,
				"element": "H" 
			},
			{
				"x": -2.0767674562,
				"y": -0.9635307745,
				"z": 3.5552509023,
				"element": "H" 
			},
			{
				"x": -2.9062507387,
				"y": -1.3364612032,
				"z": 2.0432453941,
				"element": "H" 
			}
		],
		 "valence_orbital": [ 
			{
				"type": "occ",
				"energy": -0.31849,
				"method": "rhf"
			},
			{
				"type": "occ",
				"energy": -0.27738,
				"method": "rhf"
			},
			{
				"type": "occ",
				"energy": -0.2468,
				"method": "rhf"
			},
			{
				"type": "occ",
				"energy": -0.22443,
				"method": "rhf"
			},
			{
				"type": "occ",
				"energy": -0.19691,
				"method": "rhf"
			},
			{
				"type": "unocc",
				"energy": -0.00499,
				"method": "rhf"
			},
			{
				"type": "unocc",
				"energy": 0.00922,
				"method": "rhf"
			},
			{
				"type": "unocc",
				"energy": 0.05,
				"method": "rhf"
			},
			{
				"type": "unocc",
				"energy": 0.0787,
				"method": "rhf"
			},
			{
				"type": "unocc",
				"energy": 0.08188,
				"method": "rhf"
			}
		],
		"cosmo_sigma_profile": { 
			"-0.025": 0.0,
			"-0.024": 0.0,
			"-0.023": 0.0,
			"-0.022": 0.0,
			"-0.021": 0.0,
			"-0.02": 0.0,
			"-0.019": 0.0,
			"-0.018": 0.0,
			"-0.017": 0.0,
			"-0.016": 0.0,
			"-0.015": 0.0,
			"-0.014": 0.0,
			"-0.013": 0.639157871245,
			"-0.012": 2.02324905664,
			"-0.011": 2.22014073906,
			"-0.01": 2.61302027745,
			"-0.009": 2.70316990536,
			"-0.008": 2.49139017144,
			"-0.007": 4.64621319753,
			"-0.006": 9.23241169428,
			"-0.005": 17.265770479,
			"-0.004": 24.0506790142,
			"-0.003": 21.0288297559,
			"-0.002": 14.6266639308,
			"-0.001": 14.4137263264,
			"0.0": 8.59085788334,
			"0.001": 8.99777159688,
			"0.002": 13.6438618418,
			"0.003": 12.1582083897,
			"0.004": 16.9878108009,
			"0.005": 16.797064097,
			"0.006": 4.98188625252,
			"0.007": 3.36209413744,
			"0.008": 2.79375514943,
			"0.009": 1.7920944008,
			"0.01": 1.97694524181,
			"0.011": 3.14376916356,
			"0.012": 3.17879463554,
			"0.013": 4.10355243748,
			"0.014": 2.50279174782,
			"0.015": 0.301220905645,
			"0.016": 0.0,
			"0.017": 0.0,
			"0.018": 0.0,
			"0.019": 0.0,
			"0.02": 0.0,
			"0.021": 0.0,
			"0.022": 0.0,
			"0.023": 0.0,
			"0.024": 0.0,
			"0.025": 0.0
		}
	}
}
