{
	 "smiles": "CC1=CC=C(C=C1)C1=NNC(NN=C2C(=O)NC3=C(C=CC=C3)N=C2C)=C1", 
	 "Tm": 441.15, 
	 "num_atms": 45, 
	 "gaussian": { 
		 "optdone": 1, 
		 "sigma_profile": "yes", 
		 "theory": "DFT", 
		 "functional": "B3LYP", 
		 "basiset": "6-31G**", 
		 "properties": { 
			 "R2extent": 11710.715, 
			 "electric_dipole_moment_norm": 2.00642114722, 
			 "electric_quadrupole_moment_norm": 21.7331091126, 
			 "total_energy": -1176.653083, 
			 "HOMO_LUMO_gap": 0.15625, 
			 "cosmo_polarized_energy": -25.26, 
			 "cosmo_cavitation_energy": 49.65, 
			 "cosmo_dispersion_energy": -32.74, 
			 "cosmo_repulsion_energy": 2.44, 
			 "cosmo_total_nonelectrostatic_energy": 19.35, 
			 "SMD_solvation_energy": 5.72 
		},
		"coords": [
			{
				"x": 4.0735988907,
				"y": -3.7853531733,
				"z": -1.9746855881,
				"element": "C" 
			},
			{
				"x": 2.7580293927,
				"y": -3.3467616829,
				"z": -1.3765449677,
				"element": "C" 
			},
			{
				"x": 1.5390386819,
				"y": -3.7453388229,
				"z": -1.9470470478,
				"element": "C" 
			},
			{
				"x": 0.3225241203,
				"y": -3.3349941974,
				"z": -1.4139073663,
				"element": "C" 
			},
			{
				"x": 0.2794021219,
				"y": -2.5034239772,
				"z": -0.2818429371,
				"element": "C" 
			},
			{
				"x": 1.4939425771,
				"y": -2.1001880726,
				"z": 0.2902554802,
				"element": "C" 
			},
			{
				"x": 2.7099498244,
				"y": -2.5187426445,
				"z": -0.2494946297,
				"element": "C" 
			},
			{
				"x": -1.011136386,
				"y": -2.0734701969,
				"z": 0.2817089258,
				"element": "C" 
			},
			{
				"x": -2.1552350844,
				"y": -2.2904746863,
				"z": -0.3847528336,
				"element": "N" 
			},
			{
				"x": -3.1152528015,
				"y": -1.7735463121,
				"z": 0.402247397,
				"element": "N" 
			},
			{
				"x": -2.6285815658,
				"y": -1.2472131299,
				"z": 1.5617306633,
				"element": "C" 
			},
			{
				"x": -3.5128320553,
				"y": -0.7269008337,
				"z": 2.5376760827,
				"element": "N" 
			},
			{
				"x": -3.2666684466,
				"y": 0.4214209696,
				"z": 3.2495867527,
				"element": "N" 
			},
			{
				"x": -2.7186610199,
				"y": 1.4527523736,
				"z": 2.7111862426,
				"element": "C" 
			},
			{
				"x": -2.5523416232,
				"y": 2.6256202607,
				"z": 3.6489545747,
				"element": "C" 
			},
			{
				"x": -3.4147640142,
				"y": 3.0159453152,
				"z": 4.4143384338,
				"element": "O" 
			},
			{
				"x": -1.3265504112,
				"y": 3.2657390162,
				"z": 3.5493730288,
				"element": "N" 
			},
			{
				"x": -0.1326064759,
				"y": 2.7937463841,
				"z": 2.9660491059,
				"element": "C" 
			},
			{
				"x": -0.1004736512,
				"y": 2.1893647895,
				"z": 1.6848266727,
				"element": "C" 
			},
			{
				"x": 1.1476216421,
				"y": 1.809479406,
				"z": 1.1547470344,
				"element": "C" 
			},
			{
				"x": 2.3276533284,
				"y": 1.997618137,
				"z": 1.8615465095,
				"element": "C" 
			},
			{
				"x": 2.2894581029,
				"y": 2.6140880097,
				"z": 3.1174853589,
				"element": "C" 
			},
			{
				"x": 1.0712052974,
				"y": 3.0085961179,
				"z": 3.6565949124,
				"element": "C" 
			},
			{
				"x": -1.2087861189,
				"y": 2.03869094,
				"z": 0.8470926096,
				"element": "N" 
			},
			{
				"x": -2.3732147433,
				"y": 1.7143384129,
				"z": 1.2749171843,
				"element": "C" 
			},
			{
				"x": -3.5326243499,
				"y": 1.7213447798,
				"z": 0.3076664231,
				"element": "C" 
			},
			{
				"x": -1.2594129354,
				"y": -1.4284887212,
				"z": 1.5232406795,
				"element": "C" 
			},
			{
				"x": 4.0750342275,
				"y": -4.8581727319,
				"z": -2.1958958143,
				"element": "H" 
			},
			{
				"x": 4.9089351866,
				"y": -3.5797959246,
				"z": -1.2992601994,
				"element": "H" 
			},
			{
				"x": 4.2760959429,
				"y": -3.2633437054,
				"z": -2.9182268703,
				"element": "H" 
			},
			{
				"x": 1.545687096,
				"y": -4.392148533,
				"z": -2.8215049338,
				"element": "H" 
			},
			{
				"x": -0.6109424499,
				"y": -3.6555463334,
				"z": -1.8641692341,
				"element": "H" 
			},
			{
				"x": 1.4961625895,
				"y": -1.4442078827,
				"z": 1.155750366,
				"element": "H" 
			},
			{
				"x": 3.6382376651,
				"y": -2.1933515248,
				"z": 0.2139927719,
				"element": "H" 
			},
			{
				"x": -4.0806494571,
				"y": -1.8076379206,
				"z": 0.1112592339,
				"element": "H" 
			},
			{
				"x": -3.8370637618,
				"y": -1.4279030764,
				"z": 3.1941186629,
				"element": "H" 
			},
			{
				"x": -1.227438337,
				"y": 3.9946063861,
				"z": 4.2466252145,
				"element": "H" 
			},
			{
				"x": 1.1503846934,
				"y": 1.3689117717,
				"z": 0.1631989197,
				"element": "H" 
			},
			{
				"x": 3.2743570905,
				"y": 1.6878373633,
				"z": 1.4300012029,
				"element": "H" 
			},
			{
				"x": 3.2051031164,
				"y": 2.7871312107,
				"z": 3.6745895616,
				"element": "H" 
			},
			{
				"x": 1.0345899533,
				"y": 3.4811675711,
				"z": 4.6349859533,
				"element": "H" 
			},
			{
				"x": -3.1555332351,
				"y": 1.6939501436,
				"z": -0.7159272166,
				"element": "H" 
			},
			{
				"x": -4.2151272752,
				"y": 0.8860801545,
				"z": 0.4822592251,
				"element": "H" 
			},
			{
				"x": -4.1137177053,
				"y": 2.6420929604,
				"z": 0.444665789,
				"element": "H" 
			},
			{
				"x": -0.5515976371,
				"y": -1.1346183897,
				"z": 2.282188666,
				"element": "H" 
			}
		],
		 "valence_orbital": [ 
			{
				"type": "occ",
				"energy": -0.24697,
				"method": "rhf"
			},
			{
				"type": "occ",
				"energy": -0.24135,
				"method": "rhf"
			},
			{
				"type": "occ",
				"energy": -0.23282,
				"method": "rhf"
			},
			{
				"type": "occ",
				"energy": -0.22146,
				"method": "rhf"
			},
			{
				"type": "occ",
				"energy": -0.21556,
				"method": "rhf"
			},
			{
				"type": "unocc",
				"energy": -0.05931,
				"method": "rhf"
			},
			{
				"type": "unocc",
				"energy": -0.02966,
				"method": "rhf"
			},
			{
				"type": "unocc",
				"energy": -0.01946,
				"method": "rhf"
			},
			{
				"type": "unocc",
				"energy": -0.01281,
				"method": "rhf"
			},
			{
				"type": "unocc",
				"energy": -6e-05,
				"method": "rhf"
			}
		],
		"cosmo_sigma_profile": { 
			"-0.025": 0.0,
			"-0.024": 0.0,
			"-0.023": 0.0,
			"-0.022": 0.0,
			"-0.021": 0.0,
			"-0.02": 0.0,
			"-0.019": 0.0,
			"-0.018": 0.0,
			"-0.017": 0.705002306255,
			"-0.016": 1.31756987565,
			"-0.015": 3.03012896744,
			"-0.014": 3.77393019188,
			"-0.013": 2.67755459798,
			"-0.012": 3.23219242842,
			"-0.011": 3.36821947598,
			"-0.01": 4.04877449808,
			"-0.009": 2.98366841223,
			"-0.008": 3.22711503159,
			"-0.007": 7.22442408548,
			"-0.006": 13.4131520537,
			"-0.005": 21.2701925677,
			"-0.004": 29.2421431004,
			"-0.003": 28.8356072311,
			"-0.002": 32.4484411101,
			"-0.001": 32.0723354987,
			"0.0": 30.0895133262,
			"0.001": 23.4872652534,
			"0.002": 22.4065693902,
			"0.003": 24.6462706582,
			"0.004": 26.680813646,
			"0.005": 22.4599669513,
			"0.006": 14.0140620933,
			"0.007": 3.726899012,
			"0.008": 4.75768348423,
			"0.009": 4.29723774657,
			"0.01": 3.99105578599,
			"0.011": 5.21692077301,
			"0.012": 8.50450002598,
			"0.013": 5.70719643748,
			"0.014": 3.23856398349,
			"0.015": 0.140688416034,
			"0.016": 0.0,
			"0.017": 0.0,
			"0.018": 0.0,
			"0.019": 0.0,
			"0.02": 0.0,
			"0.021": 0.0,
			"0.022": 0.0,
			"0.023": 0.0,
			"0.024": 0.0,
			"0.025": 0.0
		}
	}
}
