{
	 "smiles": "OC(C1=CC=CC=C1)C1=C(Cl)C(Cl)=CC=C1", 
	 "Tm": 353.15, 
	 "num_atms": 26, 
	 "gaussian": { 
		 "optdone": 1, 
		 "sigma_profile": "yes", 
		 "theory": "DFT", 
		 "functional": "B3LYP", 
		 "basiset": "6-31G**", 
		 "properties": { 
			 "R2extent": 4912.9198, 
			 "electric_dipole_moment_norm": 2.19110553374, 
			 "electric_quadrupole_moment_norm": 14.8336649116, 
			 "total_energy": -1497.00709792, 
			 "HOMO_LUMO_gap": 0.2119, 
			 "cosmo_polarized_energy": -8.92, 
			 "cosmo_cavitation_energy": 32.73, 
			 "cosmo_dispersion_energy": -23.54, 
			 "cosmo_repulsion_energy": 1.83, 
			 "cosmo_total_nonelectrostatic_energy": 11.02, 
			 "SMD_solvation_energy": 4.82 
		},
		"coords": [
			{
				"x": -0.097747364,
				"y": 0.254033996,
				"z": 3.0495888063,
				"element": "O" 
			},
			{
				"x": 0.2520378379,
				"y": 0.8771850387,
				"z": 1.821863763,
				"element": "C" 
			},
			{
				"x": -0.9074222109,
				"y": 0.9178847449,
				"z": 0.8203599453,
				"element": "C" 
			},
			{
				"x": -0.6905370627,
				"y": 1.1365249727,
				"z": -0.5459021398,
				"element": "C" 
			},
			{
				"x": -1.7670817762,
				"y": 1.2346264503,
				"z": -1.4284168645,
				"element": "C" 
			},
			{
				"x": -3.0756877617,
				"y": 1.1173488703,
				"z": -0.9571033933,
				"element": "C" 
			},
			{
				"x": -3.2993908346,
				"y": 0.9067351197,
				"z": 0.4043779641,
				"element": "C" 
			},
			{
				"x": -2.2230180803,
				"y": 0.8113888867,
				"z": 1.2873117471,
				"element": "C" 
			},
			{
				"x": 1.5592911354,
				"y": 0.3277190394,
				"z": 1.2429699695,
				"element": "C" 
			},
			{
				"x": 1.7409836791,
				"y": -1.0167760914,
				"z": 0.8725105906,
				"element": "C" 
			},
			{
				"x": 0.4250819049,
				"y": -2.1657560278,
				"z": 1.0515307253,
				"element": "Cl" 
			},
			{
				"x": 2.9705727784,
				"y": -1.4573969731,
				"z": 0.3632349961,
				"element": "C" 
			},
			{
				"x": 3.2217192346,
				"y": -3.1248482981,
				"z": -0.0981285367,
				"element": "Cl" 
			},
			{
				"x": 4.0315573363,
				"y": -0.5624665998,
				"z": 0.210684236,
				"element": "C" 
			},
			{
				"x": 3.8624487348,
				"y": 0.7697854075,
				"z": 0.5711981942,
				"element": "C" 
			},
			{
				"x": 2.6404259264,
				"y": 1.2014224724,
				"z": 1.0839973541,
				"element": "C" 
			},
			{
				"x": -0.3505423308,
				"y": -0.6594160659,
				"z": 2.8518006877,
				"element": "H" 
			},
			{
				"x": 0.4657613126,
				"y": 1.9135644754,
				"z": 2.1105753207,
				"element": "H" 
			},
			{
				"x": 0.3228767271,
				"y": 1.2246351849,
				"z": -0.9264003078,
				"element": "H" 
			},
			{
				"x": -1.5813190946,
				"y": 1.3981105086,
				"z": -2.4862941736,
				"element": "H" 
			},
			{
				"x": -3.9132045276,
				"y": 1.1900892898,
				"z": -1.6449621935,
				"element": "H" 
			},
			{
				"x": -4.314166966,
				"y": 0.8174560594,
				"z": 0.7822688331,
				"element": "H" 
			},
			{
				"x": -2.3942541332,
				"y": 0.6562298921,
				"z": 2.34729118,
				"element": "H" 
			},
			{
				"x": 4.9741631139,
				"y": -0.9233886039,
				"z": -0.1847734226,
				"element": "H" 
			},
			{
				"x": 4.685245912,
				"y": 1.4684799491,
				"z": 0.4576122492,
				"element": "H" 
			},
			{
				"x": 2.5148065093,
				"y": 2.2406283023,
				"z": 1.3739044695,
				"element": "H" 
			}
		],
		 "valence_orbital": [ 
			{
				"type": "occ",
				"energy": -0.28371,
				"method": "rhf"
			},
			{
				"type": "occ",
				"energy": -0.26342,
				"method": "rhf"
			},
			{
				"type": "occ",
				"energy": -0.25607,
				"method": "rhf"
			},
			{
				"type": "occ",
				"energy": -0.24937,
				"method": "rhf"
			},
			{
				"type": "occ",
				"energy": -0.24342,
				"method": "rhf"
			},
			{
				"type": "unocc",
				"energy": -0.03152,
				"method": "rhf"
			},
			{
				"type": "unocc",
				"energy": -0.02828,
				"method": "rhf"
			},
			{
				"type": "unocc",
				"energy": -0.00859,
				"method": "rhf"
			},
			{
				"type": "unocc",
				"energy": -0.00059,
				"method": "rhf"
			},
			{
				"type": "unocc",
				"energy": 0.0017,
				"method": "rhf"
			}
		],
		"cosmo_sigma_profile": { 
			"-0.025": 0.0,
			"-0.024": 0.0,
			"-0.023": 0.0,
			"-0.022": 0.0,
			"-0.021": 0.0,
			"-0.02": 0.0,
			"-0.019": 0.0,
			"-0.018": 0.0,
			"-0.017": 0.0,
			"-0.016": 0.0,
			"-0.015": 0.0,
			"-0.014": 0.0,
			"-0.013": 0.0,
			"-0.012": 0.118988052368,
			"-0.011": 0.759653837133,
			"-0.01": 0.670635764352,
			"-0.009": 0.770313506667,
			"-0.008": 3.91871200615,
			"-0.007": 8.93788752817,
			"-0.006": 12.4759201499,
			"-0.005": 15.6269046228,
			"-0.004": 17.0586095146,
			"-0.003": 20.9538646847,
			"-0.002": 18.3600880891,
			"-0.001": 18.2153432016,
			"0.0": 21.2103055419,
			"0.001": 25.1071210145,
			"0.002": 24.1584093006,
			"0.003": 22.8058134853,
			"0.004": 21.9428497123,
			"0.005": 14.5271022373,
			"0.006": 9.47140639859,
			"0.007": 1.21414326722,
			"0.008": 0.655136678127,
			"0.009": 1.28574627351,
			"0.01": 1.45339354592,
			"0.011": 0.954138827042,
			"0.012": 1.38369801456,
			"0.013": 1.95382326858,
			"0.014": 0.332982566162,
			"0.015": 0.0,
			"0.016": 0.0,
			"0.017": 0.0,
			"0.018": 0.0,
			"0.019": 0.0,
			"0.02": 0.0,
			"0.021": 0.0,
			"0.022": 0.0,
			"0.023": 0.0,
			"0.024": 0.0,
			"0.025": 0.0
		}
	}
}
