{
	 "smiles": "C[C@@H](CCC(O)=O)[C@H]1CCC2C3C(CC(=O)[C@]12C)[C@@]1(C)CCCC[C@H]1CC3=O", 
	 "Tm": 449.15, 
	 "num_atms": 64, 
	 "gaussian": { 
		 "optdone": 1, 
		 "sigma_profile": "yes", 
		 "theory": "DFT", 
		 "functional": "B3LYP", 
		 "basiset": "6-31G**", 
		 "properties": { 
			 "R2extent": 10590.5614, 
			 "electric_dipole_moment_norm": 5.1959069218, 
			 "electric_quadrupole_moment_norm": 17.0536669837, 
			 "total_energy": -1237.17400179, 
			 "HOMO_LUMO_gap": 0.21457, 
			 "cosmo_polarized_energy": -18.93, 
			 "cosmo_cavitation_energy": 55.35, 
			 "cosmo_dispersion_energy": -35.79, 
			 "cosmo_repulsion_energy": 2.62, 
			 "cosmo_total_nonelectrostatic_energy": 22.18, 
			 "SMD_solvation_energy": 9.53 
		},
		"coords": [
			{
				"x": 2.719293391,
				"y": -3.2919765844,
				"z": -2.358052214,
				"element": "C" 
			},
			{
				"x": 1.8795380441,
				"y": -3.3679330361,
				"z": -1.0648941963,
				"element": "C" 
			},
			{
				"x": 2.7649308336,
				"y": -3.0529596217,
				"z": 0.162712098,
				"element": "C" 
			},
			{
				"x": 3.2722330192,
				"y": -1.6090491269,
				"z": 0.2540293523,
				"element": "C" 
			},
			{
				"x": 4.2798303,
				"y": -1.4194629243,
				"z": 1.3668956176,
				"element": "C" 
			},
			{
				"x": 4.3681112397,
				"y": -0.1166071412,
				"z": 1.7446016173,
				"element": "O" 
			},
			{
				"x": 4.9643358368,
				"y": -2.2826336515,
				"z": 1.8702082146,
				"element": "O" 
			},
			{
				"x": 0.5908197469,
				"y": -2.5174769508,
				"z": -1.215448997,
				"element": "C" 
			},
			{
				"x": -0.2106323933,
				"y": -2.8964797779,
				"z": -2.4988562841,
				"element": "C" 
			},
			{
				"x": -1.6974672994,
				"y": -2.5629299383,
				"z": -2.2280470314,
				"element": "C" 
			},
			{
				"x": -1.7286144726,
				"y": -1.8895808837,
				"z": -0.8343652612,
				"element": "C" 
			},
			{
				"x": -1.7482639361,
				"y": -0.3182640675,
				"z": -0.8487199743,
				"element": "C" 
			},
			{
				"x": -0.8711557626,
				"y": 0.3583001254,
				"z": 0.2542804342,
				"element": "C" 
			},
			{
				"x": -0.8788133833,
				"y": -0.5225777946,
				"z": 1.5081124349,
				"element": "C" 
			},
			{
				"x": -0.2227956971,
				"y": -1.8696999449,
				"z": 1.2431178473,
				"element": "C" 
			},
			{
				"x": 0.4571469357,
				"y": -2.3892221345,
				"z": 2.1121752792,
				"element": "O" 
			},
			{
				"x": -0.5271871073,
				"y": -2.5661482905,
				"z": -0.0963131712,
				"element": "C" 
			},
			{
				"x": -0.8786316998,
				"y": -4.0312299126,
				"z": 0.2617612716,
				"element": "C" 
			},
			{
				"x": -1.2265549767,
				"y": 1.8626142034,
				"z": 0.5027496543,
				"element": "C" 
			},
			{
				"x": -2.6326813223,
				"y": 2.0338684226,
				"z": 1.1133065901,
				"element": "C" 
			},
			{
				"x": -0.1737724042,
				"y": 2.4565384201,
				"z": 1.4986008288,
				"element": "C" 
			},
			{
				"x": 0.1367482261,
				"y": 3.9337635403,
				"z": 1.2313178038,
				"element": "C" 
			},
			{
				"x": 0.8119852667,
				"y": 4.1110907022,
				"z": -0.1458650362,
				"element": "C" 
			},
			{
				"x": 0.289822203,
				"y": 3.0810141308,
				"z": -1.1757080607,
				"element": "C" 
			},
			{
				"x": -1.1551236407,
				"y": 2.6571110399,
				"z": -0.8527325739,
				"element": "C" 
			},
			{
				"x": -1.8224368853,
				"y": 1.9049808676,
				"z": -2.0370254271,
				"element": "C" 
			},
			{
				"x": -1.370982047,
				"y": 0.455665719,
				"z": -2.1088752671,
				"element": "C" 
			},
			{
				"x": -0.6928076351,
				"y": 0.034960214,
				"z": -3.0290860505,
				"element": "O" 
			},
			{
				"x": 3.6555160996,
				"y": -3.8473305649,
				"z": -2.2367898044,
				"element": "H" 
			},
			{
				"x": 2.1927679984,
				"y": -3.7157088221,
				"z": -3.2166376523,
				"element": "H" 
			},
			{
				"x": 2.9769663657,
				"y": -2.2579500627,
				"z": -2.6156527017,
				"element": "H" 
			},
			{
				"x": 1.567251759,
				"y": -4.4154921198,
				"z": -0.9506483426,
				"element": "H" 
			},
			{
				"x": 3.6370711901,
				"y": -3.7152139337,
				"z": 0.1347762165,
				"element": "H" 
			},
			{
				"x": 2.2268745413,
				"y": -3.2873343734,
				"z": 1.0825268563,
				"element": "H" 
			},
			{
				"x": 3.7746074726,
				"y": -1.2998985826,
				"z": -0.6727194755,
				"element": "H" 
			},
			{
				"x": 2.4615457482,
				"y": -0.8912267092,
				"z": 0.4095628534,
				"element": "H" 
			},
			{
				"x": 5.0517458337,
				"y": -0.0887044867,
				"z": 2.4351908525,
				"element": "H" 
			},
			{
				"x": 0.8919870423,
				"y": -1.4682337565,
				"z": -1.3288178915,
				"element": "H" 
			},
			{
				"x": 0.1648675065,
				"y": -2.3412534276,
				"z": -3.3582721781,
				"element": "H" 
			},
			{
				"x": -0.0883218899,
				"y": -3.96420254,
				"z": -2.7148617696,
				"element": "H" 
			},
			{
				"x": -2.2971430057,
				"y": -3.4777774529,
				"z": -2.1926379594,
				"element": "H" 
			},
			{
				"x": -2.126454015,
				"y": -1.9345817143,
				"z": -3.0087569484,
				"element": "H" 
			},
			{
				"x": -2.6491442605,
				"y": -2.1769173962,
				"z": -0.312740196,
				"element": "H" 
			},
			{
				"x": -2.7852355115,
				"y": -0.0353541488,
				"z": -0.6304773922,
				"element": "H" 
			},
			{
				"x": 0.1645488013,
				"y": 0.3608669955,
				"z": -0.1152387595,
				"element": "H" 
			},
			{
				"x": -1.9123718234,
				"y": -0.716411608,
				"z": 1.8304775117,
				"element": "H" 
			},
			{
				"x": -0.3565666245,
				"y": -0.0683804326,
				"z": 2.3528650649,
				"element": "H" 
			},
			{
				"x": -1.7889030482,
				"y": -4.071697967,
				"z": 0.8704106675,
				"element": "H" 
			},
			{
				"x": -1.0443124244,
				"y": -4.6413337795,
				"z": -0.6285245835,
				"element": "H" 
			},
			{
				"x": -0.0739848007,
				"y": -4.4791333823,
				"z": 0.8466792327,
				"element": "H" 
			},
			{
				"x": -2.8009927233,
				"y": 3.0838515802,
				"z": 1.375887731,
				"element": "H" 
			},
			{
				"x": -2.7507690195,
				"y": 1.4479432505,
				"z": 2.0302778446,
				"element": "H" 
			},
			{
				"x": -3.4338795779,
				"y": 1.7428891413,
				"z": 0.4262684746,
				"element": "H" 
			},
			{
				"x": -0.5285512005,
				"y": 2.3242386729,
				"z": 2.5268742014,
				"element": "H" 
			},
			{
				"x": 0.7654826062,
				"y": 1.8921296598,
				"z": 1.4269918959,
				"element": "H" 
			},
			{
				"x": 0.7799135655,
				"y": 4.3318543657,
				"z": 2.0236908763,
				"element": "H" 
			},
			{
				"x": -0.7912484312,
				"y": 4.5179503059,
				"z": 1.2760243828,
				"element": "H" 
			},
			{
				"x": 1.8980383232,
				"y": 4.0047612755,
				"z": -0.0436726139,
				"element": "H" 
			},
			{
				"x": 0.6356646935,
				"y": 5.1293025234,
				"z": -0.5118688939,
				"element": "H" 
			},
			{
				"x": 0.3358240618,
				"y": 3.500894613,
				"z": -2.1864320673,
				"element": "H" 
			},
			{
				"x": 0.9400580373,
				"y": 2.1977022006,
				"z": -1.1939171533,
				"element": "H" 
			},
			{
				"x": -1.7325737475,
				"y": 3.5814329359,
				"z": -0.7172113618,
				"element": "H" 
			},
			{
				"x": -1.5812593515,
				"y": 2.3972178542,
				"z": -2.9829791195,
				"element": "H" 
			},
			{
				"x": -2.9124945711,
				"y": 1.9229262828,
				"z": -1.9135272967,
				"element": "H" 
			}
		],
		 "valence_orbital": [ 
			{
				"type": "occ",
				"energy": -0.29488,
				"method": "rhf"
			},
			{
				"type": "occ",
				"energy": -0.29048,
				"method": "rhf"
			},
			{
				"type": "occ",
				"energy": -0.26484,
				"method": "rhf"
			},
			{
				"type": "occ",
				"energy": -0.24274,
				"method": "rhf"
			},
			{
				"type": "occ",
				"energy": -0.23732,
				"method": "rhf"
			},
			{
				"type": "unocc",
				"energy": -0.02275,
				"method": "rhf"
			},
			{
				"type": "unocc",
				"energy": -0.01892,
				"method": "rhf"
			},
			{
				"type": "unocc",
				"energy": 0.02045,
				"method": "rhf"
			},
			{
				"type": "unocc",
				"energy": 0.05575,
				"method": "rhf"
			},
			{
				"type": "unocc",
				"energy": 0.06103,
				"method": "rhf"
			}
		],
		"cosmo_sigma_profile": { 
			"-0.025": 0.0,
			"-0.024": 0.0,
			"-0.023": 0.0,
			"-0.022": 0.0,
			"-0.021": 0.0,
			"-0.02": 0.0,
			"-0.019": 0.0,
			"-0.018": 0.30284097125,
			"-0.017": 0.917859598432,
			"-0.016": 1.19819687541,
			"-0.015": 0.636055557429,
			"-0.014": 0.395128919566,
			"-0.013": 0.406079300302,
			"-0.012": 0.628139562065,
			"-0.011": 1.03165375512,
			"-0.01": 1.12401027491,
			"-0.009": 0.506647021142,
			"-0.008": 0.905027641843,
			"-0.007": 2.71763897956,
			"-0.006": 8.84713649624,
			"-0.005": 15.9841081285,
			"-0.004": 25.204093161,
			"-0.003": 44.2398344294,
			"-0.002": 62.3621340387,
			"-0.001": 63.1699171497,
			"0.0": 53.3401004142,
			"0.001": 45.0544477016,
			"0.002": 21.8283620461,
			"0.003": 8.33444390347,
			"0.004": 6.09012830654,
			"0.005": 6.15399318236,
			"0.006": 7.83115558131,
			"0.007": 6.68908612967,
			"0.008": 4.62019952845,
			"0.009": 6.87769833877,
			"0.01": 5.92215116723,
			"0.011": 6.89869804555,
			"0.012": 9.72200278011,
			"0.013": 3.97966433037,
			"0.014": 0.708241876575,
			"0.015": 0.0,
			"0.016": 0.0,
			"0.017": 0.0,
			"0.018": 0.0,
			"0.019": 0.0,
			"0.02": 0.0,
			"0.021": 0.0,
			"0.022": 0.0,
			"0.023": 0.0,
			"0.024": 0.0,
			"0.025": 0.0
		}
	}
}
