{
	 "smiles": "CC1=CC(=O)C(=NN1C1=C(Cl)C=CC=C1)C(O)=O", 
	 "Tm": 489.15, 
	 "num_atms": 27, 
	 "gaussian": { 
		 "optdone": 1, 
		 "sigma_profile": "yes", 
		 "theory": "DFT", 
		 "functional": "B3LYP", 
		 "basiset": "6-31G**", 
		 "properties": { 
			 "R2extent": 6525.4143, 
			 "electric_dipole_moment_norm": 11.6515636037, 
			 "electric_quadrupole_moment_norm": 52.6359067846, 
			 "total_energy": -1258.03343122, 
			 "HOMO_LUMO_gap": 0.15394, 
			 "cosmo_polarized_energy": -26.69, 
			 "cosmo_cavitation_energy": 34.21, 
			 "cosmo_dispersion_energy": -23.65, 
			 "cosmo_repulsion_energy": 1.83, 
			 "cosmo_total_nonelectrostatic_energy": 12.4, 
			 "SMD_solvation_energy": 7.4 
		},
		"coords": [
			{
				"x": -0.5989320882,
				"y": -1.8641044576,
				"z": 0.8800009157,
				"element": "C" 
			},
			{
				"x": 0.8347846963,
				"y": -1.9311900819,
				"z": 0.4348642541,
				"element": "C" 
			},
			{
				"x": 1.7223114602,
				"y": -2.8573349088,
				"z": 0.8857879844,
				"element": "C" 
			},
			{
				"x": 3.1111981026,
				"y": -2.9105387763,
				"z": 0.4418997635,
				"element": "C" 
			},
			{
				"x": 3.9218539596,
				"y": -3.7317755988,
				"z": 0.852441484,
				"element": "O" 
			},
			{
				"x": 3.4066866087,
				"y": -1.8503492127,
				"z": -0.5643820663,
				"element": "C" 
			},
			{
				"x": 2.524294065,
				"y": -0.9775534438,
				"z": -0.9708698328,
				"element": "N" 
			},
			{
				"x": 1.2696818288,
				"y": -0.9936499708,
				"z": -0.4943597511,
				"element": "N" 
			},
			{
				"x": 0.413243927,
				"y": 0.018099599,
				"z": -1.0528875571,
				"element": "C" 
			},
			{
				"x": 0.1947687977,
				"y": 1.232756731,
				"z": -0.3885280045,
				"element": "C" 
			},
			{
				"x": 0.9485811913,
				"y": 1.5447763825,
				"z": 1.1583016683,
				"element": "Cl" 
			},
			{
				"x": -0.6212868896,
				"y": 2.2095692857,
				"z": -0.9607779842,
				"element": "C" 
			},
			{
				"x": -1.2134091779,
				"y": 1.9752346598,
				"z": -2.2013372529,
				"element": "C" 
			},
			{
				"x": -0.9929458412,
				"y": 0.7720434887,
				"z": -2.8740819356,
				"element": "C" 
			},
			{
				"x": -0.1802857086,
				"y": -0.2022912181,
				"z": -2.2981697073,
				"element": "C" 
			},
			{
				"x": 4.7651435681,
				"y": -1.6889451907,
				"z": -1.2168639258,
				"element": "C" 
			},
			{
				"x": 4.8472717317,
				"y": -0.6399676599,
				"z": -2.0669911191,
				"element": "O" 
			},
			{
				"x": 5.6994924078,
				"y": -2.4210656633,
				"z": -1.0147085028,
				"element": "O" 
			},
			{
				"x": -0.8113266578,
				"y": -0.9250486783,
				"z": 1.4006612147,
				"element": "H" 
			},
			{
				"x": -1.2876425238,
				"y": -1.9368662602,
				"z": 0.0324104611,
				"element": "H" 
			},
			{
				"x": -0.802887213,
				"y": -2.6891419696,
				"z": 1.5639232425,
				"element": "H" 
			},
			{
				"x": 1.4057762449,
				"y": -3.6004041267,
				"z": 1.6090078035,
				"element": "H" 
			},
			{
				"x": -0.7797255718,
				"y": 3.1444585804,
				"z": -0.4351392221,
				"element": "H" 
			},
			{
				"x": -1.8448321306,
				"y": 2.7401324563,
				"z": -2.6424123074,
				"element": "H" 
			},
			{
				"x": -1.4487580209,
				"y": 0.5927532314,
				"z": -3.8422271854,
				"element": "H" 
			},
			{
				"x": 0.0112600029,
				"y": -1.142113139,
				"z": -2.8060739368,
				"element": "H" 
			},
			{
				"x": 3.9791832308,
				"y": -0.1972840585,
				"z": -2.0751885003,
				"element": "H" 
			}
		],
		 "valence_orbital": [ 
			{
				"type": "occ",
				"energy": -0.29995,
				"method": "rhf"
			},
			{
				"type": "occ",
				"energy": -0.28237,
				"method": "rhf"
			},
			{
				"type": "occ",
				"energy": -0.2722,
				"method": "rhf"
			},
			{
				"type": "occ",
				"energy": -0.24539,
				"method": "rhf"
			},
			{
				"type": "occ",
				"energy": -0.22763,
				"method": "rhf"
			},
			{
				"type": "unocc",
				"energy": -0.07369,
				"method": "rhf"
			},
			{
				"type": "unocc",
				"energy": -0.0547,
				"method": "rhf"
			},
			{
				"type": "unocc",
				"energy": -0.04778,
				"method": "rhf"
			},
			{
				"type": "unocc",
				"energy": -0.04025,
				"method": "rhf"
			},
			{
				"type": "unocc",
				"energy": -0.0013,
				"method": "rhf"
			}
		],
		"cosmo_sigma_profile": { 
			"-0.025": 0.0,
			"-0.024": 0.0,
			"-0.023": 0.0,
			"-0.022": 0.0,
			"-0.021": 0.0,
			"-0.02": 0.0,
			"-0.019": 0.0,
			"-0.018": 0.0,
			"-0.017": 0.0,
			"-0.016": 0.0,
			"-0.015": 0.0,
			"-0.014": 0.350935116071,
			"-0.013": 0.826192641019,
			"-0.012": 0.16313964491,
			"-0.011": 0.813886680994,
			"-0.01": 1.1747438896,
			"-0.009": 0.791138562439,
			"-0.008": 8.50649915368,
			"-0.007": 16.0027526612,
			"-0.006": 18.9457349686,
			"-0.005": 18.8814888237,
			"-0.004": 21.8675244161,
			"-0.003": 21.5779688496,
			"-0.002": 20.738926428,
			"-0.001": 18.5458030279,
			"0.0": 21.6686133508,
			"0.001": 21.0319123328,
			"0.002": 18.7211431977,
			"0.003": 10.4388298598,
			"0.004": 5.49788575212,
			"0.005": 3.3530860637,
			"0.006": 2.60880207937,
			"0.007": 2.93580785532,
			"0.008": 3.92162425322,
			"0.009": 4.01744578706,
			"0.01": 6.64498620869,
			"0.011": 6.96154565572,
			"0.012": 5.29772011065,
			"0.013": 5.95663491152,
			"0.014": 4.4158003686,
			"0.015": 1.35837673986,
			"0.016": 1.83164583935,
			"0.017": 0.878844416241,
			"0.018": 0.325921560603,
			"0.019": 0.0,
			"0.02": 0.0,
			"0.021": 0.0,
			"0.022": 0.0,
			"0.023": 0.0,
			"0.024": 0.0,
			"0.025": 0.0
		}
	}
}
