{
	 "smiles": "COC1=CC2=C(C3CCOC3O2)C2=C1C1=C(C(=O)OCC1)C(=O)O2", 
	 "Tm": 511.15, 
	 "num_atms": 38, 
	 "gaussian": { 
		 "optdone": 1, 
		 "sigma_profile": "yes", 
		 "theory": "DFT", 
		 "functional": "B3LYP", 
		 "basiset": "6-31G**", 
		 "properties": { 
			 "R2extent": 8626.2132, 
			 "electric_dipole_moment_norm": 8.68015555736, 
			 "electric_quadrupole_moment_norm": 47.792791163, 
			 "total_energy": -1182.79521264, 
			 "HOMO_LUMO_gap": 0.15059, 
			 "cosmo_polarized_energy": -27.72, 
			 "cosmo_cavitation_energy": 40.58, 
			 "cosmo_dispersion_energy": -29.91, 
			 "cosmo_repulsion_energy": 2.24, 
			 "cosmo_total_nonelectrostatic_energy": 12.91, 
			 "SMD_solvation_energy": 9.17 
		},
		"coords": [
			{
				"x": 0.6171748165,
				"y": -0.3722183341,
				"z": 4.3268417556,
				"element": "C" 
			},
			{
				"x": -0.196291368,
				"y": 0.0250754199,
				"z": 3.2274330582,
				"element": "O" 
			},
			{
				"x": 0.3865664427,
				"y": 0.2606771431,
				"z": 2.0228010337,
				"element": "C" 
			},
			{
				"x": 1.7619401472,
				"y": 0.1246878851,
				"z": 1.8348880516,
				"element": "C" 
			},
			{
				"x": 2.2810327519,
				"y": 0.4399174016,
				"z": 0.5780085268,
				"element": "C" 
			},
			{
				"x": 1.4921947299,
				"y": 0.8824609536,
				"z": -0.4773350889,
				"element": "C" 
			},
			{
				"x": 2.3586603728,
				"y": 1.0726333206,
				"z": -1.6886600506,
				"element": "C" 
			},
			{
				"x": 2.2654760003,
				"y": -0.0476892656,
				"z": -2.7571685925,
				"element": "C" 
			},
			{
				"x": 3.7353218475,
				"y": -0.3366229621,
				"z": -3.0683826489,
				"element": "C" 
			},
			{
				"x": 4.4530740293,
				"y": -0.0873828696,
				"z": -1.8468181685,
				"element": "O" 
			},
			{
				"x": 3.7806372973,
				"y": 0.8630885178,
				"z": -1.0861476195,
				"element": "C" 
			},
			{
				"x": 3.596667533,
				"y": 0.3676463519,
				"z": 0.275188863,
				"element": "O" 
			},
			{
				"x": 0.1252418568,
				"y": 0.999613417,
				"z": -0.28228983,
				"element": "C" 
			},
			{
				"x": -0.4841491717,
				"y": 0.6853942451,
				"z": 0.9629457843,
				"element": "C" 
			},
			{
				"x": -1.9181781091,
				"y": 0.8488789348,
				"z": 1.0430647373,
				"element": "C" 
			},
			{
				"x": -2.6187853856,
				"y": 1.385088919,
				"z": -0.0187694891,
				"element": "C" 
			},
			{
				"x": -4.0417472564,
				"y": 1.8196220635,
				"z": 0.1316914262,
				"element": "C" 
			},
			{
				"x": -4.566448979,
				"y": 2.6723922469,
				"z": -0.5410417752,
				"element": "O" 
			},
			{
				"x": -4.7500363169,
				"y": 1.2603991574,
				"z": 1.1577261272,
				"element": "O" 
			},
			{
				"x": -4.1616094858,
				"y": 0.1435240549,
				"z": 1.8290572989,
				"element": "C" 
			},
			{
				"x": -2.7323009708,
				"y": 0.4395972408,
				"z": 2.2506996236,
				"element": "C" 
			},
			{
				"x": -1.9845912528,
				"y": 1.6500610854,
				"z": -1.3112638205,
				"element": "C" 
			},
			{
				"x": -2.4941834391,
				"y": 1.9925217552,
				"z": -2.3443869508,
				"element": "O" 
			},
			{
				"x": -0.5970917853,
				"y": 1.4140702596,
				"z": -1.3493291627,
				"element": "O" 
			},
			{
				"x": -0.0647004704,
				"y": -0.4933028526,
				"z": 5.1691611157,
				"element": "H" 
			},
			{
				"x": 1.1234892371,
				"y": -1.3236542525,
				"z": 4.1275426635,
				"element": "H" 
			},
			{
				"x": 1.3618448571,
				"y": 0.3949180622,
				"z": 4.567647205,
				"element": "H" 
			},
			{
				"x": 2.4267472322,
				"y": -0.1906713802,
				"z": 2.6260373404,
				"element": "H" 
			},
			{
				"x": 2.2555830695,
				"y": 2.0615316393,
				"z": -2.1438354542,
				"element": "H" 
			},
			{
				"x": 1.7862176531,
				"y": -0.9321047781,
				"z": -2.3282349927,
				"element": "H" 
			},
			{
				"x": 1.694466341,
				"y": 0.2579016396,
				"z": -3.6363467327,
				"element": "H" 
			},
			{
				"x": 3.9303643451,
				"y": -1.3714797549,
				"z": -3.3601400281,
				"element": "H" 
			},
			{
				"x": 4.1183749973,
				"y": 0.3249825302,
				"z": -3.858264898,
				"element": "H" 
			},
			{
				"x": 4.3848611926,
				"y": 1.7717467132,
				"z": -0.9848994372,
				"element": "H" 
			},
			{
				"x": -4.1894341024,
				"y": -0.7360739174,
				"z": 1.1717284049,
				"element": "H" 
			},
			{
				"x": -4.8003224494,
				"y": -0.052420826,
				"z": 2.6930317666,
				"element": "H" 
			},
			{
				"x": -2.7095115627,
				"y": 1.2344377456,
				"z": 3.0074124619,
				"element": "H" 
			},
			{
				"x": -2.2999546446,
				"y": -0.4436475104,
				"z": 2.7203074954,
				"element": "H" 
			}
		],
		 "valence_orbital": [ 
			{
				"type": "occ",
				"energy": -0.28443,
				"method": "rhf"
			},
			{
				"type": "occ",
				"energy": -0.27843,
				"method": "rhf"
			},
			{
				"type": "occ",
				"energy": -0.25121,
				"method": "rhf"
			},
			{
				"type": "occ",
				"energy": -0.24483,
				"method": "rhf"
			},
			{
				"type": "occ",
				"energy": -0.22596,
				"method": "rhf"
			},
			{
				"type": "unocc",
				"energy": -0.07537,
				"method": "rhf"
			},
			{
				"type": "unocc",
				"energy": -0.01884,
				"method": "rhf"
			},
			{
				"type": "unocc",
				"energy": 0.00161,
				"method": "rhf"
			},
			{
				"type": "unocc",
				"energy": 0.02197,
				"method": "rhf"
			},
			{
				"type": "unocc",
				"energy": 0.06942,
				"method": "rhf"
			}
		],
		"cosmo_sigma_profile": { 
			"-0.025": 0.0,
			"-0.024": 0.0,
			"-0.023": 0.0,
			"-0.022": 0.0,
			"-0.021": 0.0,
			"-0.02": 0.0,
			"-0.019": 0.0,
			"-0.018": 0.0,
			"-0.017": 0.0,
			"-0.016": 0.0,
			"-0.015": 0.0,
			"-0.014": 0.0,
			"-0.013": 0.0,
			"-0.012": 0.0,
			"-0.011": 0.0,
			"-0.01": 0.0,
			"-0.009": 0.0847908387076,
			"-0.008": 2.08425707238,
			"-0.007": 12.2863849897,
			"-0.006": 33.3962047204,
			"-0.005": 35.0199226064,
			"-0.004": 36.7143085698,
			"-0.003": 27.3653387892,
			"-0.002": 22.8189219946,
			"-0.001": 20.7139407113,
			"0.0": 22.1344548473,
			"0.001": 14.6936110456,
			"0.002": 11.2381949585,
			"0.003": 7.54169117349,
			"0.004": 6.91316294879,
			"0.005": 5.17719969947,
			"0.006": 5.19106434564,
			"0.007": 6.25993289738,
			"0.008": 5.07461844654,
			"0.009": 7.04871641345,
			"0.01": 8.67641838575,
			"0.011": 10.0983697684,
			"0.012": 12.8562074672,
			"0.013": 5.31061374746,
			"0.014": 2.28538280923,
			"0.015": 1.29011747344,
			"0.016": 0.740925127147,
			"0.017": 0.00197708094467,
			"0.018": 0.0,
			"0.019": 0.0,
			"0.02": 0.0,
			"0.021": 0.0,
			"0.022": 0.0,
			"0.023": 0.0,
			"0.024": 0.0,
			"0.025": 0.0
		}
	}
}
