{
	 "smiles": "OC1=C(Br)C=C(C=NOC2=CC=C(C=C2[N+]([O-])=O)[N+]([O-])=O)C=C1Br", 
	 "Tm": 469.15, 
	 "num_atms": 31, 
	 "gaussian": { 
		 "optdone": 1, 
		 "sigma_profile": "yes", 
		 "theory": "DFT", 
		 "functional": "B3LYP", 
		 "basiset": "6-31G**", 
		 "properties": { 
			 "R2extent": 21161.768, 
			 "electric_dipole_moment_norm": 7.04304127561, 
			 "electric_quadrupole_moment_norm": 11.0339275288, 
			 "total_energy": -6257.72609414, 
			 "HOMO_LUMO_gap": 0.1389, 
			 "cosmo_polarized_energy": -18.32, 
			 "cosmo_cavitation_energy": 44.41, 
			 "cosmo_dispersion_energy": -31.74, 
			 "cosmo_repulsion_energy": 2.4, 
			 "cosmo_total_nonelectrostatic_energy": 15.07, 
			 "SMD_solvation_energy": 10.83 
		},
		"coords": [
			{
				"x": -3.9098571458,
				"y": -4.0705389545,
				"z": 3.8265542135,
				"element": "O" 
			},
			{
				"x": -3.3016393927,
				"y": -3.2194503962,
				"z": 2.984723976,
				"element": "C" 
			},
			{
				"x": -3.9926357577,
				"y": -2.3205375287,
				"z": 2.1552605492,
				"element": "C" 
			},
			{
				"x": -5.9054449311,
				"y": -2.3142983793,
				"z": 2.2335871174,
				"element": "Br" 
			},
			{
				"x": -3.3312198122,
				"y": -1.4536945222,
				"z": 1.2967409499,
				"element": "C" 
			},
			{
				"x": -1.9312962436,
				"y": -1.4603901817,
				"z": 1.2427871245,
				"element": "C" 
			},
			{
				"x": -1.2582266058,
				"y": -0.5367573036,
				"z": 0.3327332062,
				"element": "C" 
			},
			{
				"x": 0.0204384018,
				"y": -0.4678597016,
				"z": 0.2838676349,
				"element": "N" 
			},
			{
				"x": 0.4041457157,
				"y": 0.5344611147,
				"z": -0.6509798329,
				"element": "O" 
			},
			{
				"x": 1.7416363336,
				"y": 0.5595811685,
				"z": -0.8836321165,
				"element": "C" 
			},
			{
				"x": 2.3027106941,
				"y": 1.8331868908,
				"z": -1.0549463275,
				"element": "C" 
			},
			{
				"x": 3.6629738111,
				"y": 1.989109997,
				"z": -1.2751107716,
				"element": "C" 
			},
			{
				"x": 4.4783083763,
				"y": 0.8560866345,
				"z": -1.2924236119,
				"element": "C" 
			},
			{
				"x": 3.9565947088,
				"y": -0.4204801814,
				"z": -1.1294481219,
				"element": "C" 
			},
			{
				"x": 2.5841469122,
				"y": -0.5666976897,
				"z": -0.95929952,
				"element": "C" 
			},
			{
				"x": 2.0665122636,
				"y": -1.9435749095,
				"z": -0.9707601798,
				"element": "N" 
			},
			{
				"x": 2.7313233954,
				"y": -2.7981215884,
				"z": -0.3912026621,
				"element": "O" 
			},
			{
				"x": 1.0392906264,
				"y": -2.1468252256,
				"z": -1.6111636842,
				"element": "O" 
			},
			{
				"x": 5.9240778394,
				"y": 1.012891122,
				"z": -1.4947335692,
				"element": "N" 
			},
			{
				"x": 6.3526847024,
				"y": 2.1566945186,
				"z": -1.643711741,
				"element": "O" 
			},
			{
				"x": 6.6115050651,
				"y": -0.0065656913,
				"z": -1.5021595742,
				"element": "O" 
			},
			{
				"x": -1.2188150673,
				"y": -2.3551584879,
				"z": 2.0623278172,
				"element": "C" 
			},
			{
				"x": -1.892479161,
				"y": -3.2133982972,
				"z": 2.9141718716,
				"element": "C" 
			},
			{
				"x": -0.9136202202,
				"y": -4.4133325927,
				"z": 4.0136181374,
				"element": "Br" 
			},
			{
				"x": -4.8718155653,
				"y": -3.9526821847,
				"z": 3.7511787597,
				"element": "H" 
			},
			{
				"x": -3.9038344859,
				"y": -0.7762087149,
				"z": 0.6729554394,
				"element": "H" 
			},
			{
				"x": -1.8717943192,
				"y": 0.1011075573,
				"z": -0.3062028183,
				"element": "H" 
			},
			{
				"x": 1.6435391057,
				"y": 2.691176571,
				"z": -0.9860203576,
				"element": "H" 
			},
			{
				"x": 4.1082341572,
				"y": 2.9674069054,
				"z": -1.4049201886,
				"element": "H" 
			},
			{
				"x": 4.5999234544,
				"y": -1.2901385342,
				"z": -1.158507324,
				"element": "H" 
			},
			{
				"x": -0.1366668553,
				"y": -2.3757914145,
				"z": 2.0223156045,
				"element": "H" 
			}
		],
		 "valence_orbital": [ 
			{
				"type": "occ",
				"energy": -0.29574,
				"method": "rhf"
			},
			{
				"type": "occ",
				"energy": -0.29173,
				"method": "rhf"
			},
			{
				"type": "occ",
				"energy": -0.27846,
				"method": "rhf"
			},
			{
				"type": "occ",
				"energy": -0.264,
				"method": "rhf"
			},
			{
				"type": "occ",
				"energy": -0.2427,
				"method": "rhf"
			},
			{
				"type": "unocc",
				"energy": -0.1038,
				"method": "rhf"
			},
			{
				"type": "unocc",
				"energy": -0.0919,
				"method": "rhf"
			},
			{
				"type": "unocc",
				"energy": -0.07247,
				"method": "rhf"
			},
			{
				"type": "unocc",
				"energy": -0.04263,
				"method": "rhf"
			},
			{
				"type": "unocc",
				"energy": -0.03841,
				"method": "rhf"
			}
		],
		"cosmo_sigma_profile": { 
			"-0.025": 0.0,
			"-0.024": 0.0,
			"-0.023": 0.0,
			"-0.022": 0.0,
			"-0.021": 0.0,
			"-0.02": 0.0,
			"-0.019": 0.0,
			"-0.018": 0.0,
			"-0.017": 0.0,
			"-0.016": 0.0684166897851,
			"-0.015": 0.896062507755,
			"-0.014": 0.547648903785,
			"-0.013": 0.803140149641,
			"-0.012": 0.726176309017,
			"-0.011": 1.74662619399,
			"-0.01": 3.59455949286,
			"-0.009": 7.87207041345,
			"-0.008": 10.7272311057,
			"-0.007": 11.191212517,
			"-0.006": 10.9251769408,
			"-0.005": 14.930142478,
			"-0.004": 17.6112234536,
			"-0.003": 26.6567202977,
			"-0.002": 28.3189674315,
			"-0.001": 30.8823785781,
			"0.0": 36.1745174478,
			"0.001": 28.457074299,
			"0.002": 22.5457036582,
			"0.003": 21.8361041164,
			"0.004": 17.5918662648,
			"0.005": 13.1681125134,
			"0.006": 13.0410973946,
			"0.007": 21.2393060065,
			"0.008": 12.3329402085,
			"0.009": 9.36623251506,
			"0.01": 1.90179958288,
			"0.011": 0.0,
			"0.012": 0.0,
			"0.013": 0.0,
			"0.014": 0.0,
			"0.015": 0.0,
			"0.016": 0.0,
			"0.017": 0.0,
			"0.018": 0.0,
			"0.019": 0.0,
			"0.02": 0.0,
			"0.021": 0.0,
			"0.022": 0.0,
			"0.023": 0.0,
			"0.024": 0.0,
			"0.025": 0.0
		}
	}
}
