{
	 "smiles": "CN(C)S(=O)(=O)C1=CC(=CC=C1)C(=O)NCC(O)=O", 
	 "Tm": 447.15, 
	 "num_atms": 33, 
	 "gaussian": { 
		 "optdone": 1, 
		 "sigma_profile": "yes", 
		 "theory": "DFT", 
		 "functional": "B3LYP", 
		 "basiset": "6-31G**", 
		 "properties": { 
			 "R2extent": 7345.8719, 
			 "electric_dipole_moment_norm": 3.66536127551, 
			 "electric_quadrupole_moment_norm": 30.7452809449, 
			 "total_energy": -1311.37571899, 
			 "HOMO_LUMO_gap": 0.2002, 
			 "cosmo_polarized_energy": -24.03, 
			 "cosmo_cavitation_energy": 38.96, 
			 "cosmo_dispersion_energy": -27.49, 
			 "cosmo_repulsion_energy": 2.1, 
			 "cosmo_total_nonelectrostatic_energy": 13.57, 
			 "SMD_solvation_energy": 6.22 
		},
		"coords": [
			{
				"x": 1.5275481326,
				"y": -0.5400122808,
				"z": -4.1706333535,
				"element": "C" 
			},
			{
				"x": 0.210974302,
				"y": -0.4728079604,
				"z": -3.5330036671,
				"element": "N" 
			},
			{
				"x": -0.1827007655,
				"y": -1.6723710092,
				"z": -2.7906431337,
				"element": "C" 
			},
			{
				"x": -0.2150656044,
				"y": 1.0094547255,
				"z": -2.8445352304,
				"element": "S" 
			},
			{
				"x": 0.1791710135,
				"y": 2.0386441237,
				"z": -3.8078524958,
				"element": "O" 
			},
			{
				"x": -1.5943464748,
				"y": 0.8623041677,
				"z": -2.3755427598,
				"element": "O" 
			},
			{
				"x": 0.8208204325,
				"y": 1.2208081425,
				"z": -1.386017132,
				"element": "C" 
			},
			{
				"x": 0.3635041598,
				"y": 0.752604298,
				"z": -0.1524880247,
				"element": "C" 
			},
			{
				"x": 1.1850000043,
				"y": 0.8689763656,
				"z": 0.9749475744,
				"element": "C" 
			},
			{
				"x": 2.4597185967,
				"y": 1.436553659,
				"z": 0.8428779616,
				"element": "C" 
			},
			{
				"x": 2.8982714742,
				"y": 1.9168157524,
				"z": -0.389215318,
				"element": "C" 
			},
			{
				"x": 2.0790516365,
				"y": 1.8149536218,
				"z": -1.5150647325,
				"element": "C" 
			},
			{
				"x": 0.7840963832,
				"y": 0.3912007123,
				"z": 2.3446434941,
				"element": "C" 
			},
			{
				"x": 1.6191508878,
				"y": 0.1746118185,
				"z": 3.2197426484,
				"element": "O" 
			},
			{
				"x": -0.5510520313,
				"y": 0.2066822462,
				"z": 2.5618969157,
				"element": "N" 
			},
			{
				"x": -1.0231964709,
				"y": -0.1700169519,
				"z": 3.8742596581,
				"element": "C" 
			},
			{
				"x": -2.5101922962,
				"y": 0.095323426,
				"z": 3.9609137742,
				"element": "C" 
			},
			{
				"x": -3.0104263951,
				"y": -0.279396791,
				"z": 5.1522860443,
				"element": "O" 
			},
			{
				"x": -3.1769176208,
				"y": 0.5833010943,
				"z": 3.0735415153,
				"element": "O" 
			},
			{
				"x": 1.6908404213,
				"y": 0.3626732322,
				"z": -4.7586169041,
				"element": "H" 
			},
			{
				"x": 2.3467938635,
				"y": -0.6633511284,
				"z": -3.4453690492,
				"element": "H" 
			},
			{
				"x": 1.5317712738,
				"y": -1.3999395625,
				"z": -4.8466562851,
				"element": "H" 
			},
			{
				"x": -1.2027897578,
				"y": -1.55355571,
				"z": -2.4266652762,
				"element": "H" 
			},
			{
				"x": 0.4892116602,
				"y": -1.8912196401,
				"z": -1.9463125768,
				"element": "H" 
			},
			{
				"x": -0.1574307476,
				"y": -2.5200946268,
				"z": -3.4814342675,
				"element": "H" 
			},
			{
				"x": -0.6232261468,
				"y": 0.3060606715,
				"z": -0.0965648427,
				"element": "H" 
			},
			{
				"x": 3.0854289917,
				"y": 1.4942809601,
				"z": 1.7269286061,
				"element": "H" 
			},
			{
				"x": 3.8778923126,
				"y": 2.3769338751,
				"z": -0.4751149056,
				"element": "H" 
			},
			{
				"x": 2.3930009239,
				"y": 2.2063273399,
				"z": -2.4764238538,
				"element": "H" 
			},
			{
				"x": -1.2508928516,
				"y": 0.5953699947,
				"z": 1.9422525662,
				"element": "H" 
			},
			{
				"x": -0.5014091828,
				"y": 0.3919512204,
				"z": 4.6591244979,
				"element": "H" 
			},
			{
				"x": -0.8375693057,
				"y": -1.2302056102,
				"z": 4.0887979641,
				"element": "H" 
			},
			{
				"x": -3.9609308188,
				"y": -0.075860176,
				"z": 5.1343405882,
				"element": "H" 
			}
		],
		 "valence_orbital": [ 
			{
				"type": "occ",
				"energy": -0.28355,
				"method": "rhf"
			},
			{
				"type": "occ",
				"energy": -0.27844,
				"method": "rhf"
			},
			{
				"type": "occ",
				"energy": -0.26876,
				"method": "rhf"
			},
			{
				"type": "occ",
				"energy": -0.26443,
				"method": "rhf"
			},
			{
				"type": "occ",
				"energy": -0.25558,
				"method": "rhf"
			},
			{
				"type": "unocc",
				"energy": -0.05538,
				"method": "rhf"
			},
			{
				"type": "unocc",
				"energy": -0.04082,
				"method": "rhf"
			},
			{
				"type": "unocc",
				"energy": -0.01225,
				"method": "rhf"
			},
			{
				"type": "unocc",
				"energy": 0.03831,
				"method": "rhf"
			},
			{
				"type": "unocc",
				"energy": 0.05711,
				"method": "rhf"
			}
		],
		"cosmo_sigma_profile": { 
			"-0.025": 0.0,
			"-0.024": 0.0,
			"-0.023": 0.0,
			"-0.022": 0.0,
			"-0.021": 0.0,
			"-0.02": 0.0,
			"-0.019": 0.624206976898,
			"-0.018": 1.02799714727,
			"-0.017": 0.801278890414,
			"-0.016": 0.728271668808,
			"-0.015": 0.809038673969,
			"-0.014": 1.19686046919,
			"-0.013": 0.762458018618,
			"-0.012": 1.26303529014,
			"-0.011": 1.47655244787,
			"-0.01": 1.2995892274,
			"-0.009": 2.64617880216,
			"-0.008": 5.86280425709,
			"-0.007": 11.4107800188,
			"-0.006": 17.7336555471,
			"-0.005": 21.7084306537,
			"-0.004": 27.258980173,
			"-0.003": 31.7042391496,
			"-0.002": 26.3736656664,
			"-0.001": 14.617709369,
			"0.0": 15.1035983598,
			"0.001": 18.1638666867,
			"0.002": 16.5187558366,
			"0.003": 8.21553910664,
			"0.004": 7.45546080503,
			"0.005": 7.09177488928,
			"0.006": 7.85872003668,
			"0.007": 8.90703041384,
			"0.008": 8.69229267892,
			"0.009": 7.31126595785,
			"0.01": 11.7148715505,
			"0.011": 11.9009969296,
			"0.012": 5.21313112293,
			"0.013": 4.86467749898,
			"0.014": 0.990426699184,
			"0.015": 0.0,
			"0.016": 0.0,
			"0.017": 0.0,
			"0.018": 0.0,
			"0.019": 0.0,
			"0.02": 0.0,
			"0.021": 0.0,
			"0.022": 0.0,
			"0.023": 0.0,
			"0.024": 0.0,
			"0.025": 0.0
		}
	}
}
