{
	 "smiles": "CC1=C(SC2=C1C(=O)NC(CSC1=C(C)C=CC(C)=C1)=N2)C(O)=O", 
	 "Tm": 569.15, 
	 "num_atms": 40, 
	 "gaussian": { 
		 "optdone": 1, 
		 "sigma_profile": "yes", 
		 "theory": "DFT", 
		 "functional": "B3LYP", 
		 "basiset": "6-31G**", 
		 "properties": { 
			 "R2extent": 11879.3882, 
			 "electric_dipole_moment_norm": 7.69752204998, 
			 "electric_quadrupole_moment_norm": 27.2031509997, 
			 "total_energy": -1789.05016443, 
			 "HOMO_LUMO_gap": 0.15894, 
			 "cosmo_polarized_energy": -21.96, 
			 "cosmo_cavitation_energy": 46.6, 
			 "cosmo_dispersion_energy": -33.16, 
			 "cosmo_repulsion_energy": 2.38, 
			 "cosmo_total_nonelectrostatic_energy": 15.82, 
			 "SMD_solvation_energy": 6.84 
		},
		"coords": [
			{
				"x": 1.8032645267,
				"y": -3.7416669044,
				"z": -1.5850454673,
				"element": "C" 
			},
			{
				"x": 0.8739484096,
				"y": -3.4429932226,
				"z": -0.4315924833,
				"element": "C" 
			},
			{
				"x": 0.209012908,
				"y": -4.3733902793,
				"z": 0.3462237018,
				"element": "C" 
			},
			{
				"x": -0.788179643,
				"y": -3.6461829728,
				"z": 1.5957759287,
				"element": "S" 
			},
			{
				"x": -0.3113268632,
				"y": -2.0612034947,
				"z": 1.081515169,
				"element": "C" 
			},
			{
				"x": 0.5735862564,
				"y": -2.1091745292,
				"z": -0.0031309421,
				"element": "C" 
			},
			{
				"x": 1.0510213748,
				"y": -0.8479220084,
				"z": -0.5460987035,
				"element": "C" 
			},
			{
				"x": 1.7918149412,
				"y": -0.6554426096,
				"z": -1.5062813866,
				"element": "O" 
			},
			{
				"x": 0.5515217169,
				"y": 0.2526545608,
				"z": 0.1821205463,
				"element": "N" 
			},
			{
				"x": -0.3378735163,
				"y": 0.1875801416,
				"z": 1.221110486,
				"element": "C" 
			},
			{
				"x": -0.8038799742,
				"y": 1.4810304045,
				"z": 1.8284887999,
				"element": "C" 
			},
			{
				"x": -1.8537879731,
				"y": 2.5219711633,
				"z": 0.7046220876,
				"element": "S" 
			},
			{
				"x": -0.6003447264,
				"y": 3.3630496542,
				"z": -0.280658481,
				"element": "C" 
			},
			{
				"x": 0.0485706263,
				"y": 4.5274270705,
				"z": 0.1900274243,
				"element": "C" 
			},
			{
				"x": -0.2609064222,
				"y": 5.1474294117,
				"z": 1.5312359137,
				"element": "C" 
			},
			{
				"x": 1.0085664612,
				"y": 5.1057799627,
				"z": -0.6486911294,
				"element": "C" 
			},
			{
				"x": 1.3249123312,
				"y": 4.5650250941,
				"z": -1.8961100807,
				"element": "C" 
			},
			{
				"x": 0.6753711334,
				"y": 3.4226052177,
				"z": -2.3718485292,
				"element": "C" 
			},
			{
				"x": 1.0194029671,
				"y": 2.7950522433,
				"z": -3.70134951,
				"element": "C" 
			},
			{
				"x": -0.3026836781,
				"y": 2.8466203323,
				"z": -1.5490996765,
				"element": "C" 
			},
			{
				"x": -0.7852868433,
				"y": -0.9431066103,
				"z": 1.6977073919,
				"element": "N" 
			},
			{
				"x": 0.1785691293,
				"y": -5.8544019681,
				"z": 0.3245132808,
				"element": "C" 
			},
			{
				"x": 0.9281263946,
				"y": -6.4956721041,
				"z": -0.6057883927,
				"element": "O" 
			},
			{
				"x": -0.4907807135,
				"y": -6.4920530603,
				"z": 1.1081932092,
				"element": "O" 
			},
			{
				"x": 2.680286916,
				"y": -4.3168247137,
				"z": -1.2603030677,
				"element": "H" 
			},
			{
				"x": 1.2926499005,
				"y": -4.2959110226,
				"z": -2.3831914054,
				"element": "H" 
			},
			{
				"x": 2.1664770557,
				"y": -2.8087285233,
				"z": -2.0163904721,
				"element": "H" 
			},
			{
				"x": 0.8234529599,
				"y": 1.158600428,
				"z": -0.1876543579,
				"element": "H" 
			},
			{
				"x": 0.0417880099,
				"y": 2.0848153988,
				"z": 2.1700495096,
				"element": "H" 
			},
			{
				"x": -1.4311885535,
				"y": 1.2343834224,
				"z": 2.6855453428,
				"element": "H" 
			},
			{
				"x": 0.2673853955,
				"y": 6.0973606282,
				"z": 1.6465089637,
				"element": "H" 
			},
			{
				"x": 0.0396985683,
				"y": 4.5003956447,
				"z": 2.3636923922,
				"element": "H" 
			},
			{
				"x": -1.3329533499,
				"y": 5.3298525247,
				"z": 1.6495291498,
				"element": "H" 
			},
			{
				"x": 1.523650729,
				"y": 6.0024840521,
				"z": -0.3137848686,
				"element": "H" 
			},
			{
				"x": 2.0873814235,
				"y": 5.0416347385,
				"z": -2.5067692571,
				"element": "H" 
			},
			{
				"x": 1.777487527,
				"y": 3.3761939933,
				"z": -4.2329109151,
				"element": "H" 
			},
			{
				"x": 1.4077490631,
				"y": 1.7800998727,
				"z": -3.5578555763,
				"element": "H" 
			},
			{
				"x": 0.1379389894,
				"y": 2.7188575153,
				"z": -4.3476433802,
				"element": "H" 
			},
			{
				"x": -0.8410069519,
				"y": 1.9678819843,
				"z": -1.8933217584,
				"element": "H" 
			},
			{
				"x": 1.4138634942,
				"y": -5.8704114365,
				"z": -1.1598394564,
				"element": "H" 
			}
		],
		 "valence_orbital": [ 
			{
				"type": "occ",
				"energy": -0.27004,
				"method": "rhf"
			},
			{
				"type": "occ",
				"energy": -0.26967,
				"method": "rhf"
			},
			{
				"type": "occ",
				"energy": -0.25433,
				"method": "rhf"
			},
			{
				"type": "occ",
				"energy": -0.24986,
				"method": "rhf"
			},
			{
				"type": "occ",
				"energy": -0.23519,
				"method": "rhf"
			},
			{
				"type": "unocc",
				"energy": -0.07625,
				"method": "rhf"
			},
			{
				"type": "unocc",
				"energy": -0.03923,
				"method": "rhf"
			},
			{
				"type": "unocc",
				"energy": -0.03422,
				"method": "rhf"
			},
			{
				"type": "unocc",
				"energy": -0.02041,
				"method": "rhf"
			},
			{
				"type": "unocc",
				"energy": -0.00865,
				"method": "rhf"
			}
		],
		"cosmo_sigma_profile": { 
			"-0.025": 0.0,
			"-0.024": 0.0,
			"-0.023": 0.0,
			"-0.022": 0.0,
			"-0.021": 0.0,
			"-0.02": 0.0,
			"-0.019": 0.0,
			"-0.018": 0.0,
			"-0.017": 0.0,
			"-0.016": 0.0,
			"-0.015": 0.857621027772,
			"-0.014": 1.03920574769,
			"-0.013": 1.23182427418,
			"-0.012": 3.08474356291,
			"-0.011": 3.2149834123,
			"-0.01": 2.09147323717,
			"-0.009": 3.59132620756,
			"-0.008": 6.65916664512,
			"-0.007": 7.91588796316,
			"-0.006": 12.1302462266,
			"-0.005": 20.3493832308,
			"-0.004": 26.0929569515,
			"-0.003": 26.2053984067,
			"-0.002": 33.095527258,
			"-0.001": 37.4845699766,
			"0.0": 39.0423582718,
			"0.001": 28.0643239134,
			"0.002": 23.5782951251,
			"0.003": 19.1715946784,
			"0.004": 16.6110652141,
			"0.005": 12.4404303425,
			"0.006": 7.91034570862,
			"0.007": 6.63459509421,
			"0.008": 6.6867930371,
			"0.009": 6.13762296114,
			"0.01": 7.61714959574,
			"0.011": 8.9424506983,
			"0.012": 6.32056226924,
			"0.013": 1.64104343033,
			"0.014": 0.0379879249356,
			"0.015": 0.0,
			"0.016": 0.0,
			"0.017": 0.0,
			"0.018": 0.0,
			"0.019": 0.0,
			"0.02": 0.0,
			"0.021": 0.0,
			"0.022": 0.0,
			"0.023": 0.0,
			"0.024": 0.0,
			"0.025": 0.0
		}
	}
}
