{
	 "smiles": "NC1=CC(=CC=C1)S(=O)(=O)NC1=CC=CC=C1", 
	 "Tm": 401.15, 
	 "num_atms": 29, 
	 "gaussian": { 
		 "optdone": 1, 
		 "sigma_profile": "yes", 
		 "theory": "DFT", 
		 "functional": "B3LYP", 
		 "basiset": "6-31G**", 
		 "properties": { 
			 "R2extent": 4459.9707, 
			 "electric_dipole_moment_norm": 6.91935658642, 
			 "electric_quadrupole_moment_norm": 11.4750117691, 
			 "total_energy": -1122.58150222, 
			 "HOMO_LUMO_gap": 0.18263, 
			 "cosmo_polarized_energy": -19.97, 
			 "cosmo_cavitation_energy": 34.52, 
			 "cosmo_dispersion_energy": -24.34, 
			 "cosmo_repulsion_energy": 1.86, 
			 "cosmo_total_nonelectrostatic_energy": 12.04, 
			 "SMD_solvation_energy": 4.95 
		},
		"coords": [
			{
				"x": -1.463188646,
				"y": 2.708217865,
				"z": -1.9010125403,
				"element": "N" 
			},
			{
				"x": -1.0335728634,
				"y": 2.1295604494,
				"z": -0.7127602385,
				"element": "C" 
			},
			{
				"x": -0.0100415312,
				"y": 1.1659708608,
				"z": -0.7176610597,
				"element": "C" 
			},
			{
				"x": 0.4429077855,
				"y": 0.6422083457,
				"z": 0.4908612094,
				"element": "C" 
			},
			{
				"x": -0.0776777578,
				"y": 1.0427908515,
				"z": 1.7233436241,
				"element": "C" 
			},
			{
				"x": -1.0900849832,
				"y": 2.0034627849,
				"z": 1.7186044314,
				"element": "C" 
			},
			{
				"x": -1.5675382728,
				"y": 2.5370823402,
				"z": 0.5243663425,
				"element": "C" 
			},
			{
				"x": 1.7042076493,
				"y": -0.6355565832,
				"z": 0.4561985655,
				"element": "S" 
			},
			{
				"x": 2.3292446488,
				"y": -0.6995250321,
				"z": 1.7772862621,
				"element": "O" 
			},
			{
				"x": 2.4791366808,
				"y": -0.4712989857,
				"z": -0.7733109836,
				"element": "O" 
			},
			{
				"x": 0.8763570915,
				"y": -2.1194425261,
				"z": 0.3301355409,
				"element": "N" 
			},
			{
				"x": 0.0322112688,
				"y": -2.4531026748,
				"z": -0.7645641825,
				"element": "C" 
			},
			{
				"x": 0.5263497305,
				"y": -2.4464907887,
				"z": -2.0772904357,
				"element": "C" 
			},
			{
				"x": -0.3110604881,
				"y": -2.8155582621,
				"z": -3.1290765865,
				"element": "C" 
			},
			{
				"x": -1.626374583,
				"y": -3.2206653145,
				"z": -2.8892443533,
				"element": "C" 
			},
			{
				"x": -2.1088423609,
				"y": -3.2438441077,
				"z": -1.5797882148,
				"element": "C" 
			},
			{
				"x": -1.2903829962,
				"y": -2.8489509236,
				"z": -0.5222523485,
				"element": "C" 
			},
			{
				"x": -1.2914636939,
				"y": 2.1741803346,
				"z": -2.7408383684,
				"element": "H" 
			},
			{
				"x": -2.3830791189,
				"y": 3.1245064749,
				"z": -1.884308092,
				"element": "H" 
			},
			{
				"x": 0.4431878554,
				"y": 0.8459908202,
				"z": -1.649656442,
				"element": "H" 
			},
			{
				"x": 0.3181288048,
				"y": 0.6342716612,
				"z": 2.6454562113,
				"element": "H" 
			},
			{
				"x": -1.5113164732,
				"y": 2.3452016382,
				"z": 2.6595530732,
				"element": "H" 
			},
			{
				"x": -2.3535537901,
				"y": 3.2878013797,
				"z": 0.5424764992,
				"element": "H" 
			},
			{
				"x": 0.5092209693,
				"y": -2.3699325443,
				"z": 1.2429657863,
				"element": "H" 
			},
			{
				"x": 1.5552303866,
				"y": -2.1582377198,
				"z": -2.2549894247,
				"element": "H" 
			},
			{
				"x": 0.0777104058,
				"y": -2.8066152409,
				"z": -4.1434424565,
				"element": "H" 
			},
			{
				"x": -2.2658502528,
				"y": -3.5221828644,
				"z": -3.7133467237,
				"element": "H" 
			},
			{
				"x": -3.1284675843,
				"y": -3.5590135748,
				"z": -1.3776004618,
				"element": "H" 
			},
			{
				"x": -1.6741978814,
				"y": -2.8487286636,
				"z": 0.4949953667,
				"element": "H" 
			}
		],
		 "valence_orbital": [ 
			{
				"type": "occ",
				"energy": -0.30099,
				"method": "rhf"
			},
			{
				"type": "occ",
				"energy": -0.26689,
				"method": "rhf"
			},
			{
				"type": "occ",
				"energy": -0.25807,
				"method": "rhf"
			},
			{
				"type": "occ",
				"energy": -0.23301,
				"method": "rhf"
			},
			{
				"type": "occ",
				"energy": -0.21874,
				"method": "rhf"
			},
			{
				"type": "unocc",
				"energy": -0.03611,
				"method": "rhf"
			},
			{
				"type": "unocc",
				"energy": -0.00981,
				"method": "rhf"
			},
			{
				"type": "unocc",
				"energy": -0.00633,
				"method": "rhf"
			},
			{
				"type": "unocc",
				"energy": -0.00347,
				"method": "rhf"
			},
			{
				"type": "unocc",
				"energy": 0.06384,
				"method": "rhf"
			}
		],
		"cosmo_sigma_profile": { 
			"-0.025": 0.0,
			"-0.024": 0.0,
			"-0.023": 0.0,
			"-0.022": 0.0,
			"-0.021": 0.0,
			"-0.02": 0.0,
			"-0.019": 0.0,
			"-0.018": 0.0,
			"-0.017": 0.0,
			"-0.016": 0.0714394524513,
			"-0.015": 1.22012637473,
			"-0.014": 0.771816847772,
			"-0.013": 2.86802456024,
			"-0.012": 4.51599243008,
			"-0.011": 4.59317463706,
			"-0.01": 4.47957141043,
			"-0.009": 4.37544606699,
			"-0.008": 4.5000323247,
			"-0.007": 7.28441941991,
			"-0.006": 13.9374235414,
			"-0.005": 17.3002077801,
			"-0.004": 17.5517002694,
			"-0.003": 14.9206004163,
			"-0.002": 13.3930637613,
			"-0.001": 13.6365321226,
			"0.0": 11.6565832676,
			"0.001": 16.0114986419,
			"0.002": 17.2868483236,
			"0.003": 22.2078859818,
			"0.004": 26.0262628515,
			"0.005": 17.3745331843,
			"0.006": 6.37391763655,
			"0.007": 4.15461106865,
			"0.008": 4.95699713587,
			"0.009": 5.54223363566,
			"0.01": 7.24235580729,
			"0.011": 8.65188072665,
			"0.012": 2.23047467503,
			"0.013": 0.535472837493,
			"0.014": 0.0518069106747,
			"0.015": 0.0,
			"0.016": 0.0,
			"0.017": 0.0,
			"0.018": 0.0,
			"0.019": 0.0,
			"0.02": 0.0,
			"0.021": 0.0,
			"0.022": 0.0,
			"0.023": 0.0,
			"0.024": 0.0,
			"0.025": 0.0
		}
	}
}
