{
	 "smiles": "CC1=NC(=CC(NC2=NC=C(S2)C(=O)NC2=C(Cl)C=CC=C2C)=N1)N1CCN(CCO)CC1", 
	 "Tm": 556.15, 
	 "num_atms": 59, 
	 "gaussian": { 
		 "optdone": 1, 
		 "sigma_profile": "yes", 
		 "theory": "DFT", 
		 "functional": "B3LYP", 
		 "basiset": "6-31G**", 
		 "properties": { 
			 "R2extent": 28730.4257, 
			 "electric_dipole_moment_norm": 1.96021602126, 
			 "electric_quadrupole_moment_norm": 44.946037424, 
			 "total_energy": -2246.11305172, 
			 "HOMO_LUMO_gap": 0.14739, 
			 "cosmo_polarized_energy": -25.23, 
			 "cosmo_cavitation_energy": 64.07, 
			 "cosmo_dispersion_energy": -44.84, 
			 "cosmo_repulsion_energy": 3.35, 
			 "cosmo_total_nonelectrostatic_energy": 22.58, 
			 "SMD_solvation_energy": 4.83 
		},
		"coords": [
			{
				"x": 3.8739896155,
				"y": -3.2067495676,
				"z": 2.2401518379,
				"element": "C" 
			},
			{
				"x": 2.5947600123,
				"y": -2.4487865411,
				"z": 1.9939392873,
				"element": "C" 
			},
			{
				"x": 1.6552728346,
				"y": -2.5415702419,
				"z": 2.9385458931,
				"element": "N" 
			},
			{
				"x": 0.4942425143,
				"y": -1.8810649578,
				"z": 2.7370661142,
				"element": "C" 
			},
			{
				"x": 0.2992245963,
				"y": -1.0956057094,
				"z": 1.5761847774,
				"element": "C" 
			},
			{
				"x": 1.3519881892,
				"y": -1.0847108993,
				"z": 0.673963887,
				"element": "C" 
			},
			{
				"x": 1.3501136413,
				"y": -0.3721057911,
				"z": -0.5307007632,
				"element": "N" 
			},
			{
				"x": 0.381427761,
				"y": 0.4152421773,
				"z": -1.0841990968,
				"element": "C" 
			},
			{
				"x": -0.7936844942,
				"y": 0.6740514804,
				"z": -0.5612247694,
				"element": "N" 
			},
			{
				"x": -1.5060699655,
				"y": 1.4981727256,
				"z": -1.3843023782,
				"element": "C" 
			},
			{
				"x": -0.925165254,
				"y": 1.8871850305,
				"z": -2.5649945128,
				"element": "C" 
			},
			{
				"x": 0.6846551174,
				"y": 1.1676124878,
				"z": -2.6568717236,
				"element": "S" 
			},
			{
				"x": -1.5787618636,
				"y": 2.8475621033,
				"z": -3.4810656359,
				"element": "C" 
			},
			{
				"x": -2.6006058159,
				"y": 3.4304918753,
				"z": -3.1303979754,
				"element": "O" 
			},
			{
				"x": -1.0356023317,
				"y": 3.1111786106,
				"z": -4.7263411113,
				"element": "N" 
			},
			{
				"x": 0.0402578902,
				"y": 2.4901195455,
				"z": -5.4111970383,
				"element": "C" 
			},
			{
				"x": 1.2341320981,
				"y": 3.1982562854,
				"z": -5.6410078355,
				"element": "C" 
			},
			{
				"x": 1.399541827,
				"y": 4.8376284609,
				"z": -5.0380418446,
				"element": "Cl" 
			},
			{
				"x": 2.2940785872,
				"y": 2.6330918881,
				"z": -6.3462395699,
				"element": "C" 
			},
			{
				"x": 2.162017613,
				"y": 1.3344377158,
				"z": -6.8331119015,
				"element": "C" 
			},
			{
				"x": 0.97842687,
				"y": 0.6255369519,
				"z": -6.6338508677,
				"element": "C" 
			},
			{
				"x": -0.0998677897,
				"y": 1.1874975087,
				"z": -5.9417068088,
				"element": "C" 
			},
			{
				"x": -1.388979908,
				"y": 0.4213841683,
				"z": -5.7762529239,
				"element": "C" 
			},
			{
				"x": 2.5084468721,
				"y": -1.7545198799,
				"z": 0.8555752569,
				"element": "N" 
			},
			{
				"x": -0.4751897266,
				"y": -2.0269071601,
				"z": 3.6991513714,
				"element": "N" 
			},
			{
				"x": -1.7231689387,
				"y": -1.2665430292,
				"z": 3.6707530862,
				"element": "C" 
			},
			{
				"x": -2.8618438228,
				"y": -2.0863173481,
				"z": 4.3069213906,
				"element": "C" 
			},
			{
				"x": -2.5715742494,
				"y": -2.60685329,
				"z": 5.6407086179,
				"element": "N" 
			},
			{
				"x": -2.6678553339,
				"y": -1.617105038,
				"z": 6.712910127,
				"element": "C" 
			},
			{
				"x": -2.8540388548,
				"y": -2.2331955537,
				"z": 8.1034289142,
				"element": "C" 
			},
			{
				"x": -1.6823804817,
				"y": -2.8329423587,
				"z": 8.6508940758,
				"element": "O" 
			},
			{
				"x": -1.3210001482,
				"y": -3.3789923187,
				"z": 5.5930604745,
				"element": "C" 
			},
			{
				"x": -0.1360574025,
				"y": -2.5985412782,
				"z": 5.0091133823,
				"element": "C" 
			},
			{
				"x": 4.3055967141,
				"y": -2.9177899636,
				"z": 3.2033825151,
				"element": "H" 
			},
			{
				"x": 3.6716262395,
				"y": -4.2818926827,
				"z": 2.2898706326,
				"element": "H" 
			},
			{
				"x": 4.5922536588,
				"y": -3.0123749535,
				"z": 1.4428304166,
				"element": "H" 
			},
			{
				"x": -0.5860268404,
				"y": -0.5162843235,
				"z": 1.3736471074,
				"element": "H" 
			},
			{
				"x": 2.220268761,
				"y": -0.4889403677,
				"z": -1.033996622,
				"element": "H" 
			},
			{
				"x": -2.494022966,
				"y": 1.831808945,
				"z": -1.0920769398,
				"element": "H" 
			},
			{
				"x": -1.4679673527,
				"y": 3.920056556,
				"z": -5.1571809454,
				"element": "H" 
			},
			{
				"x": 3.2016694064,
				"y": 3.2046038171,
				"z": -6.5033445496,
				"element": "H" 
			},
			{
				"x": 2.9828648088,
				"y": 0.8806787558,
				"z": -7.3801932069,
				"element": "H" 
			},
			{
				"x": 0.877550775,
				"y": -0.37791152,
				"z": -7.037104875,
				"element": "H" 
			},
			{
				"x": -1.4048372417,
				"y": -0.449959123,
				"z": -6.4353827215,
				"element": "H" 
			},
			{
				"x": -1.5184111583,
				"y": 0.0658934769,
				"z": -4.7481136951,
				"element": "H" 
			},
			{
				"x": -2.2545650044,
				"y": 1.0495469447,
				"z": -6.0067910493,
				"element": "H" 
			},
			{
				"x": -1.599380089,
				"y": -0.3041800041,
				"z": 4.1943950444,
				"element": "H" 
			},
			{
				"x": -1.9984168107,
				"y": -1.0429450689,
				"z": 2.6394225458,
				"element": "H" 
			},
			{
				"x": -3.7693945806,
				"y": -1.4734823281,
				"z": 4.3426926969,
				"element": "H" 
			},
			{
				"x": -3.0685257196,
				"y": -2.9435003131,
				"z": 3.6525506911,
				"element": "H" 
			},
			{
				"x": -3.5559537496,
				"y": -1.0057411474,
				"z": 6.5089206617,
				"element": "H" 
			},
			{
				"x": -1.8160564424,
				"y": -0.9083365696,
				"z": 6.7563739366,
				"element": "H" 
			},
			{
				"x": -3.2427412224,
				"y": -1.4562997271,
				"z": 8.7811821446,
				"element": "H" 
			},
			{
				"x": -3.5988157471,
				"y": -3.0316768049,
				"z": 8.0418608032,
				"element": "H" 
			},
			{
				"x": -1.031143767,
				"y": -2.1326567303,
				"z": 8.7899138065,
				"element": "H" 
			},
			{
				"x": -1.5022999797,
				"y": -4.2631116329,
				"z": 4.9682929958,
				"element": "H" 
			},
			{
				"x": -1.0750980577,
				"y": -3.71898609,
				"z": 6.6002669861,
				"element": "H" 
			},
			{
				"x": 0.7294836194,
				"y": -3.2463273316,
				"z": 4.8800287785,
				"element": "H" 
			},
			{
				"x": 0.1617130881,
				"y": -1.787429866,
				"z": 5.6941911048,
				"element": "H" 
			}
		],
		 "valence_orbital": [ 
			{
				"type": "occ",
				"energy": -0.24768,
				"method": "rhf"
			},
			{
				"type": "occ",
				"energy": -0.24621,
				"method": "rhf"
			},
			{
				"type": "occ",
				"energy": -0.22587,
				"method": "rhf"
			},
			{
				"type": "occ",
				"energy": -0.21494,
				"method": "rhf"
			},
			{
				"type": "occ",
				"energy": -0.19952,
				"method": "rhf"
			},
			{
				"type": "unocc",
				"energy": -0.05213,
				"method": "rhf"
			},
			{
				"type": "unocc",
				"energy": -0.03001,
				"method": "rhf"
			},
			{
				"type": "unocc",
				"energy": -0.02099,
				"method": "rhf"
			},
			{
				"type": "unocc",
				"energy": -0.00304,
				"method": "rhf"
			},
			{
				"type": "unocc",
				"energy": 0.00077,
				"method": "rhf"
			}
		],
		"cosmo_sigma_profile": { 
			"-0.025": 0.0,
			"-0.024": 0.0,
			"-0.023": 0.0,
			"-0.022": 0.0,
			"-0.021": 0.0,
			"-0.02": 0.0,
			"-0.019": 0.0,
			"-0.018": 0.0,
			"-0.017": 0.0,
			"-0.016": 0.581315141292,
			"-0.015": 1.87065470725,
			"-0.014": 2.92298353005,
			"-0.013": 2.93951517226,
			"-0.012": 2.92548927489,
			"-0.011": 1.50630371589,
			"-0.01": 2.67405682507,
			"-0.009": 2.896769976,
			"-0.008": 3.68234546618,
			"-0.007": 7.96376575105,
			"-0.006": 14.1205523962,
			"-0.005": 21.3368474039,
			"-0.004": 39.4744247846,
			"-0.003": 48.802209461,
			"-0.002": 49.7783194383,
			"-0.001": 47.5069059022,
			"0.0": 46.6482051322,
			"0.001": 43.2055759181,
			"0.002": 40.2856487719,
			"0.003": 35.0708736856,
			"0.004": 23.3662301409,
			"0.005": 12.735533712,
			"0.006": 8.61795575786,
			"0.007": 8.42029384361,
			"0.008": 7.49956337585,
			"0.009": 6.47672747239,
			"0.01": 5.0021877958,
			"0.011": 4.30803650358,
			"0.012": 5.54143990343,
			"0.013": 8.14900920045,
			"0.014": 3.6221443983,
			"0.015": 0.741871375843,
			"0.016": 0.103509732951,
			"0.017": 0.0,
			"0.018": 0.0,
			"0.019": 0.0,
			"0.02": 0.0,
			"0.021": 0.0,
			"0.022": 0.0,
			"0.023": 0.0,
			"0.024": 0.0,
			"0.025": 0.0
		}
	}
}
