{
	 "smiles": "CCCC(=O)C(O)=O", 
	 "Tm": 279.65, 
	 "num_atms": 16, 
	 "gaussian": { 
		 "optdone": 1, 
		 "sigma_profile": "yes", 
		 "theory": "DFT", 
		 "functional": "B3LYP", 
		 "basiset": "6-31G**", 
		 "properties": { 
			 "R2extent": 1588.3291, 
			 "electric_dipole_moment_norm": 2.52090180888, 
			 "electric_quadrupole_moment_norm": 11.6488311323, 
			 "total_energy": -421.034621152, 
			 "HOMO_LUMO_gap": 0.17719, 
			 "cosmo_polarized_energy": -8.95, 
			 "cosmo_cavitation_energy": 20.17, 
			 "cosmo_dispersion_energy": -14.61, 
			 "cosmo_repulsion_energy": 1.25, 
			 "cosmo_total_nonelectrostatic_energy": 6.81, 
			 "SMD_solvation_energy": 5.5 
		},
		"coords": [
			{
				"x": 0.3540886578,
				"y": -2.2809673676,
				"z": -0.153337689,
				"element": "C" 
			},
			{
				"x": -0.0325702182,
				"y": -0.8072903923,
				"z": -0.3044938709,
				"element": "C" 
			},
			{
				"x": 1.213036369,
				"y": 0.1127393698,
				"z": -0.3457907495,
				"element": "C" 
			},
			{
				"x": 0.8259847639,
				"y": 1.5566880509,
				"z": -0.4782023327,
				"element": "C" 
			},
			{
				"x": 0.827359869,
				"y": 2.3712006338,
				"z": 0.4314272007,
				"element": "O" 
			},
			{
				"x": 0.3574214444,
				"y": 2.0539285208,
				"z": -1.8697964741,
				"element": "C" 
			},
			{
				"x": 0.0100066116,
				"y": 3.3440549412,
				"z": -1.8522071955,
				"element": "O" 
			},
			{
				"x": 0.3166934137,
				"y": 1.3472479444,
				"z": -2.8488870069,
				"element": "O" 
			},
			{
				"x": 0.9185485546,
				"y": -2.4527535093,
				"z": 0.7696382258,
				"element": "H" 
			},
			{
				"x": -0.5376870239,
				"y": -2.914529707,
				"z": -0.1228929089,
				"element": "H" 
			},
			{
				"x": 0.9731549702,
				"y": -2.615165445,
				"z": -0.992787585,
				"element": "H" 
			},
			{
				"x": -0.6076402263,
				"y": -0.6645936828,
				"z": -1.2250299101,
				"element": "H" 
			},
			{
				"x": -0.6744690148,
				"y": -0.5025459824,
				"z": 0.5307744926,
				"element": "H" 
			},
			{
				"x": 1.7997287853,
				"y": 0.0022778334,
				"z": 0.5707449385,
				"element": "H" 
			},
			{
				"x": 1.828361964,
				"y": -0.1661987828,
				"z": -1.208120771,
				"element": "H" 
			},
			{
				"x": 0.1502810799,
				"y": 3.645707575,
				"z": -0.9305383642,
				"element": "H" 
			}
		],
		 "valence_orbital": [ 
			{
				"type": "occ",
				"energy": -0.35564,
				"method": "rhf"
			},
			{
				"type": "occ",
				"energy": -0.35232,
				"method": "rhf"
			},
			{
				"type": "occ",
				"energy": -0.33285,
				"method": "rhf"
			},
			{
				"type": "occ",
				"energy": -0.32906,
				"method": "rhf"
			},
			{
				"type": "occ",
				"energy": -0.26611,
				"method": "rhf"
			},
			{
				"type": "unocc",
				"energy": -0.08892,
				"method": "rhf"
			},
			{
				"type": "unocc",
				"energy": 0.04955,
				"method": "rhf"
			},
			{
				"type": "unocc",
				"energy": 0.08666,
				"method": "rhf"
			},
			{
				"type": "unocc",
				"energy": 0.09834,
				"method": "rhf"
			},
			{
				"type": "unocc",
				"energy": 0.12451,
				"method": "rhf"
			}
		],
		"cosmo_sigma_profile": { 
			"-0.025": 0.0,
			"-0.024": 0.0,
			"-0.023": 0.0,
			"-0.022": 0.0,
			"-0.021": 0.0,
			"-0.02": 0.0,
			"-0.019": 0.0,
			"-0.018": 0.0,
			"-0.017": 0.0,
			"-0.016": 0.0878521811002,
			"-0.015": 0.396688091964,
			"-0.014": 0.626346794124,
			"-0.013": 0.753305959302,
			"-0.012": 0.710318131474,
			"-0.011": 0.581979515815,
			"-0.01": 1.06125748112,
			"-0.009": 2.07256391005,
			"-0.008": 3.97613270159,
			"-0.007": 4.01404102514,
			"-0.006": 4.69915883912,
			"-0.005": 6.87482463593,
			"-0.004": 13.0987879613,
			"-0.003": 18.4014377158,
			"-0.002": 16.3295323932,
			"-0.001": 15.0200308305,
			"0.0": 12.939824789,
			"0.001": 9.16450022911,
			"0.002": 3.44089277779,
			"0.003": 3.59866496117,
			"0.004": 3.90633926817,
			"0.005": 4.17183441383,
			"0.006": 3.69366942186,
			"0.007": 4.85654052054,
			"0.008": 6.38279555037,
			"0.009": 6.82149090925,
			"0.01": 5.88750552162,
			"0.011": 4.0826688998,
			"0.012": 0.833317653948,
			"0.013": 0.0,
			"0.014": 0.0,
			"0.015": 0.0,
			"0.016": 0.0,
			"0.017": 0.0,
			"0.018": 0.0,
			"0.019": 0.0,
			"0.02": 0.0,
			"0.021": 0.0,
			"0.022": 0.0,
			"0.023": 0.0,
			"0.024": 0.0,
			"0.025": 0.0
		}
	}
}
