{
	 "smiles": "CCCN1N=C(C)C(C(O)=O)=C1C", 
	 "Tm": 387.15, 
	 "num_atms": 27, 
	 "gaussian": { 
		 "optdone": 1, 
		 "sigma_profile": "yes", 
		 "theory": "DFT", 
		 "functional": "B3LYP", 
		 "basiset": "6-31G**", 
		 "properties": { 
			 "R2extent": 3197.5127, 
			 "electric_dipole_moment_norm": 6.14735143375, 
			 "electric_quadrupole_moment_norm": 21.5293709102, 
			 "total_energy": -611.361018138, 
			 "HOMO_LUMO_gap": 0.22762, 
			 "cosmo_polarized_energy": -17.24, 
			 "cosmo_cavitation_energy": 30.15, 
			 "cosmo_dispersion_energy": -20.91, 
			 "cosmo_repulsion_energy": 1.68, 
			 "cosmo_total_nonelectrostatic_energy": 10.91, 
			 "SMD_solvation_energy": 5.19 
		},
		"coords": [
			{
				"x": 2.0234076687,
				"y": 1.7921535757,
				"z": 0.786412887,
				"element": "C" 
			},
			{
				"x": 2.123370271,
				"y": 0.2679629439,
				"z": 0.8870541297,
				"element": "C" 
			},
			{
				"x": 1.4745426914,
				"y": -0.4784435612,
				"z": -0.2864711862,
				"element": "C" 
			},
			{
				"x": 0.0297958246,
				"y": -0.2766165319,
				"z": -0.3542877649,
				"element": "N" 
			},
			{
				"x": -0.7325708256,
				"y": -0.815681131,
				"z": 0.6378562384,
				"element": "N" 
			},
			{
				"x": -1.9847997062,
				"y": -0.4929964753,
				"z": 0.3429585739,
				"element": "C" 
			},
			{
				"x": -3.1179145201,
				"y": -0.9368597363,
				"z": 1.2128295005,
				"element": "C" 
			},
			{
				"x": -2.0363134482,
				"y": 0.2908955445,
				"z": -0.8489703847,
				"element": "C" 
			},
			{
				"x": -3.2750825458,
				"y": 0.7891873972,
				"z": -1.4699168088,
				"element": "C" 
			},
			{
				"x": -3.1606867939,
				"y": 1.8879442906,
				"z": -2.2836263258,
				"element": "O" 
			},
			{
				"x": -4.3663105317,
				"y": 0.2941169733,
				"z": -1.2993741384,
				"element": "O" 
			},
			{
				"x": -0.7065450592,
				"y": 0.3976119196,
				"z": -1.2750833787,
				"element": "C" 
			},
			{
				"x": -0.1078667854,
				"y": 1.0227062503,
				"z": -2.500474618,
				"element": "C" 
			},
			{
				"x": 0.9793657134,
				"y": 2.1210415491,
				"z": 0.7644260278,
				"element": "H" 
			},
			{
				"x": 2.5006491788,
				"y": 2.271775926,
				"z": 1.6462296933,
				"element": "H" 
			},
			{
				"x": 2.5172477928,
				"y": 2.1679184598,
				"z": -0.1177226014,
				"element": "H" 
			},
			{
				"x": 1.6524480713,
				"y": -0.0816819532,
				"z": 1.8115018398,
				"element": "H" 
			},
			{
				"x": 3.176067777,
				"y": -0.0379881873,
				"z": 0.929077298,
				"element": "H" 
			},
			{
				"x": 1.6490136271,
				"y": -1.5542840454,
				"z": -0.1898382328,
				"element": "H" 
			},
			{
				"x": 1.9040902854,
				"y": -0.151719017,
				"z": -1.2371976885,
				"element": "H" 
			},
			{
				"x": -3.6851743998,
				"y": -0.0808710155,
				"z": 1.5924147488,
				"element": "H" 
			},
			{
				"x": -2.7283486655,
				"y": -1.5089154477,
				"z": 2.0575377239,
				"element": "H" 
			},
			{
				"x": -3.8232707085,
				"y": -1.5505707646,
				"z": 0.6465607613,
				"element": "H" 
			},
			{
				"x": -2.3046042263,
				"y": 2.31107523,
				"z": -2.1350383451,
				"element": "H" 
			},
			{
				"x": 0.5932922822,
				"y": 0.3422084719,
				"z": -2.9936907392,
				"element": "H" 
			},
			{
				"x": -0.8899020116,
				"y": 1.2543948161,
				"z": -3.2260043405,
				"element": "H" 
			},
			{
				"x": 0.4388990441,
				"y": 1.9462345184,
				"z": -2.2740628694,
				"element": "H" 
			}
		],
		 "valence_orbital": [ 
			{
				"type": "occ",
				"energy": -0.30827,
				"method": "rhf"
			},
			{
				"type": "occ",
				"energy": -0.29055,
				"method": "rhf"
			},
			{
				"type": "occ",
				"energy": -0.26641,
				"method": "rhf"
			},
			{
				"type": "occ",
				"energy": -0.25006,
				"method": "rhf"
			},
			{
				"type": "occ",
				"energy": -0.24584,
				"method": "rhf"
			},
			{
				"type": "unocc",
				"energy": -0.01822,
				"method": "rhf"
			},
			{
				"type": "unocc",
				"energy": 0.01744,
				"method": "rhf"
			},
			{
				"type": "unocc",
				"energy": 0.05383,
				"method": "rhf"
			},
			{
				"type": "unocc",
				"energy": 0.08816,
				"method": "rhf"
			},
			{
				"type": "unocc",
				"energy": 0.09847,
				"method": "rhf"
			}
		],
		"cosmo_sigma_profile": { 
			"-0.025": 0.0,
			"-0.024": 0.0,
			"-0.023": 0.0,
			"-0.022": 0.0,
			"-0.021": 0.0,
			"-0.02": 0.0,
			"-0.019": 0.0,
			"-0.018": 0.0,
			"-0.017": 0.688054411156,
			"-0.016": 0.663808472209,
			"-0.015": 0.788659811535,
			"-0.014": 0.914558340763,
			"-0.013": 0.717896124358,
			"-0.012": 0.921132154364,
			"-0.011": 1.37819786355,
			"-0.01": 0.908317061094,
			"-0.009": 0.657770228688,
			"-0.008": 1.30685833265,
			"-0.007": 4.46010234599,
			"-0.006": 8.57214946668,
			"-0.005": 10.7943045463,
			"-0.004": 20.5808485664,
			"-0.003": 30.1295112494,
			"-0.002": 26.2417704475,
			"-0.001": 23.6968759521,
			"0.0": 21.9027968094,
			"0.001": 16.0715378183,
			"0.002": 9.44179467006,
			"0.003": 6.58202892374,
			"0.004": 5.21829647661,
			"0.005": 4.83042572561,
			"0.006": 4.40254966202,
			"0.007": 4.16383414863,
			"0.008": 4.31791622195,
			"0.009": 3.9966027934,
			"0.01": 5.1528481351,
			"0.011": 5.61901090427,
			"0.012": 6.03296801806,
			"0.013": 3.60644277984,
			"0.014": 1.62709413864,
			"0.015": 0.503851609708,
			"0.016": 0.0259246779881,
			"0.017": 0.0,
			"0.018": 0.0,
			"0.019": 0.0,
			"0.02": 0.0,
			"0.021": 0.0,
			"0.022": 0.0,
			"0.023": 0.0,
			"0.024": 0.0,
			"0.025": 0.0
		}
	}
}
