{
	 "smiles": "NC1=NN=C(S1)C1=CC=CO1", 
	 "Tm": 524.15, 
	 "num_atms": 16, 
	 "gaussian": { 
		 "optdone": 1, 
		 "sigma_profile": "yes", 
		 "theory": "DFT", 
		 "functional": "B3LYP", 
		 "basiset": "6-31G**", 
		 "properties": { 
			 "R2extent": 2275.6188, 
			 "electric_dipole_moment_norm": 3.63614939325, 
			 "electric_quadrupole_moment_norm": 17.4044503794, 
			 "total_energy": -869.257507001, 
			 "HOMO_LUMO_gap": 0.16271, 
			 "cosmo_polarized_energy": -17.0, 
			 "cosmo_cavitation_energy": 23.02, 
			 "cosmo_dispersion_energy": -17.83, 
			 "cosmo_repulsion_energy": 1.38, 
			 "cosmo_total_nonelectrostatic_energy": 6.57, 
			 "SMD_solvation_energy": 2.84 
		},
		"coords": [
			{
				"x": -2.1878021745,
				"y": -0.9428280824,
				"z": 2.5698396902,
				"element": "N" 
			},
			{
				"x": -1.4665378227,
				"y": -0.2894459351,
				"z": 1.6004160185,
				"element": "C" 
			},
			{
				"x": -1.8635502217,
				"y": 0.8181287233,
				"z": 1.0322763358,
				"element": "N" 
			},
			{
				"x": -0.9439326423,
				"y": 1.3315743128,
				"z": 0.1650691788,
				"element": "N" 
			},
			{
				"x": 0.1393623087,
				"y": 0.6162113659,
				"z": 0.0584250724,
				"element": "C" 
			},
			{
				"x": 0.1351920498,
				"y": -0.8274319015,
				"z": 1.0971002034,
				"element": "S" 
			},
			{
				"x": 1.2584117952,
				"y": 0.9174328807,
				"z": -0.8051772172,
				"element": "C" 
			},
			{
				"x": 2.4629043193,
				"y": 0.2953094972,
				"z": -1.0230578412,
				"element": "C" 
			},
			{
				"x": 3.1486750281,
				"y": 1.0769796799,
				"z": -2.0014265697,
				"element": "C" 
			},
			{
				"x": 2.3162549571,
				"y": 2.1133215153,
				"z": -2.3057411129,
				"element": "C" 
			},
			{
				"x": 1.1643584255,
				"y": 2.0319533519,
				"z": -1.5895358116,
				"element": "O" 
			},
			{
				"x": -2.1188949662,
				"y": -1.9502031838,
				"z": 2.5927384082,
				"element": "H" 
			},
			{
				"x": -3.1353528878,
				"y": -0.594535748,
				"z": 2.647267847,
				"element": "H" 
			},
			{
				"x": 2.8154917779,
				"y": -0.6064784847,
				"z": -0.5431525096,
				"element": "H" 
			},
			{
				"x": 4.1275634076,
				"y": 0.8917694427,
				"z": -2.4188657618,
				"element": "H" 
			},
			{
				"x": 2.3899566459,
				"y": 2.953942566,
				"z": -2.9779759303,
				"element": "H" 
			}
		],
		 "valence_orbital": [ 
			{
				"type": "occ",
				"energy": -0.29731,
				"method": "rhf"
			},
			{
				"type": "occ",
				"energy": -0.2843,
				"method": "rhf"
			},
			{
				"type": "occ",
				"energy": -0.26233,
				"method": "rhf"
			},
			{
				"type": "occ",
				"energy": -0.25648,
				"method": "rhf"
			},
			{
				"type": "occ",
				"energy": -0.20883,
				"method": "rhf"
			},
			{
				"type": "unocc",
				"energy": -0.04612,
				"method": "rhf"
			},
			{
				"type": "unocc",
				"energy": -0.0061,
				"method": "rhf"
			},
			{
				"type": "unocc",
				"energy": 0.02145,
				"method": "rhf"
			},
			{
				"type": "unocc",
				"energy": 0.0511,
				"method": "rhf"
			},
			{
				"type": "unocc",
				"energy": 0.05975,
				"method": "rhf"
			}
		],
		"cosmo_sigma_profile": { 
			"-0.025": 0.0,
			"-0.024": 0.0,
			"-0.023": 0.0,
			"-0.022": 0.0,
			"-0.021": 0.0,
			"-0.02": 0.0,
			"-0.019": 0.0,
			"-0.018": 0.0,
			"-0.017": 0.0,
			"-0.016": 0.129397393122,
			"-0.015": 1.50143175571,
			"-0.014": 2.62082826982,
			"-0.013": 3.13486023688,
			"-0.012": 2.83720265212,
			"-0.011": 1.96171966079,
			"-0.01": 2.64534006707,
			"-0.009": 4.43238399452,
			"-0.008": 5.95006353189,
			"-0.007": 7.44042904052,
			"-0.006": 6.61791940222,
			"-0.005": 6.80567921815,
			"-0.004": 8.19056803339,
			"-0.003": 7.78405176631,
			"-0.002": 7.24925299379,
			"-0.001": 11.8637286474,
			"0.0": 16.6543887125,
			"0.001": 16.0873299224,
			"0.002": 15.3770266237,
			"0.003": 12.1993063545,
			"0.004": 9.22003045232,
			"0.005": 4.07370097743,
			"0.006": 3.75366475816,
			"0.007": 3.64198226853,
			"0.008": 3.40324626742,
			"0.009": 3.08080493635,
			"0.01": 3.94043417935,
			"0.011": 3.64988473725,
			"0.012": 3.92835130031,
			"0.013": 3.42148225144,
			"0.014": 2.3383122057,
			"0.015": 1.79996401808,
			"0.016": 0.044990591782,
			"0.017": 0.0,
			"0.018": 0.0,
			"0.019": 0.0,
			"0.02": 0.0,
			"0.021": 0.0,
			"0.022": 0.0,
			"0.023": 0.0,
			"0.024": 0.0,
			"0.025": 0.0
		}
	}
}
