{
	 "smiles": "N=C1C=C(NC(=O)C2=CC=CC=C2)C(C=C1NC(=O)C1=CC=CC=C1)=NC(=O)C1=CC=CC=C1", 
	 "Tm": 603.15, 
	 "num_atms": 54, 
	 "gaussian": { 
		 "optdone": 1, 
		 "sigma_profile": "yes", 
		 "theory": "DFT", 
		 "functional": "B3LYP", 
		 "basiset": "6-31G**", 
		 "properties": { 
			 "R2extent": 19939.9793, 
			 "electric_dipole_moment_norm": 5.80929597972, 
			 "electric_quadrupole_moment_norm": 15.4750433108, 
			 "total_energy": -1485.60638664, 
			 "HOMO_LUMO_gap": 0.11854, 
			 "cosmo_polarized_energy": -26.23, 
			 "cosmo_cavitation_energy": 60.44, 
			 "cosmo_dispersion_energy": -40.51, 
			 "cosmo_repulsion_energy": 3.0, 
			 "cosmo_total_nonelectrostatic_energy": 22.92, 
			 "SMD_solvation_energy": 9.92 
		},
		"coords": [
			{
				"x": 3.333882771,
				"y": 0.6878804672,
				"z": 1.5396985619,
				"element": "N" 
			},
			{
				"x": 2.388705799,
				"y": -0.0088045518,
				"z": 1.0110876608,
				"element": "C" 
			},
			{
				"x": 1.0250515018,
				"y": 0.2371437563,
				"z": 1.4692501202,
				"element": "C" 
			},
			{
				"x": 0.0029666535,
				"y": -0.5999227423,
				"z": 1.1591246413,
				"element": "C" 
			},
			{
				"x": -1.3139697918,
				"y": -0.4897661133,
				"z": 1.5880073844,
				"element": "N" 
			},
			{
				"x": -1.8579005626,
				"y": 0.4742751667,
				"z": 2.4143639248,
				"element": "C" 
			},
			{
				"x": -1.1956611214,
				"y": 1.3892244747,
				"z": 2.890872469,
				"element": "O" 
			},
			{
				"x": -3.3239085506,
				"y": 0.3252705609,
				"z": 2.7077487349,
				"element": "C" 
			},
			{
				"x": -4.1971328071,
				"y": -0.4901868476,
				"z": 1.9718035721,
				"element": "C" 
			},
			{
				"x": -5.5472880238,
				"y": -0.5637280505,
				"z": 2.3134284965,
				"element": "C" 
			},
			{
				"x": -6.0389984654,
				"y": 0.1748087398,
				"z": 3.3912901828,
				"element": "C" 
			},
			{
				"x": -5.1772544581,
				"y": 0.9963798942,
				"z": 4.1223246699,
				"element": "C" 
			},
			{
				"x": -3.8301159983,
				"y": 1.0747919933,
				"z": 3.779457178,
				"element": "C" 
			},
			{
				"x": 0.2411660815,
				"y": -1.7821668322,
				"z": 0.2921993388,
				"element": "C" 
			},
			{
				"x": 1.5739908748,
				"y": -1.9638139769,
				"z": -0.2586412398,
				"element": "C" 
			},
			{
				"x": 2.5910808151,
				"y": -1.1115081827,
				"z": 0.0189025706,
				"element": "C" 
			},
			{
				"x": 3.86892864,
				"y": -1.3588723817,
				"z": -0.5056645115,
				"element": "N" 
			},
			{
				"x": 4.8247441532,
				"y": -0.520409717,
				"z": -1.0932118078,
				"element": "C" 
			},
			{
				"x": 5.9546296924,
				"y": -0.956029477,
				"z": -1.2618272574,
				"element": "O" 
			},
			{
				"x": 4.4326740933,
				"y": 0.8516905521,
				"z": -1.5431278982,
				"element": "C" 
			},
			{
				"x": 5.4450128869,
				"y": 1.8223684429,
				"z": -1.5774308295,
				"element": "C" 
			},
			{
				"x": 5.1705018389,
				"y": 3.1068981955,
				"z": -2.0380588139,
				"element": "C" 
			},
			{
				"x": 3.8893944146,
				"y": 3.4263702947,
				"z": -2.495892195,
				"element": "C" 
			},
			{
				"x": 2.885575498,
				"y": 2.4563989987,
				"z": -2.4932209166,
				"element": "C" 
			},
			{
				"x": 3.1521157274,
				"y": 1.1735832245,
				"z": -2.0155986501,
				"element": "C" 
			},
			{
				"x": -0.79053544,
				"y": -2.5272222675,
				"z": 0.0256765179,
				"element": "N" 
			},
			{
				"x": -0.6968853649,
				"y": -3.7530625475,
				"z": -0.6551273604,
				"element": "C" 
			},
			{
				"x": 0.18095884,
				"y": -4.5772383783,
				"z": -0.424662123,
				"element": "O" 
			},
			{
				"x": -1.7981574285,
				"y": -4.0183728022,
				"z": -1.6289721014,
				"element": "C" 
			},
			{
				"x": -2.7858111016,
				"y": -3.0669580709,
				"z": -1.9236297823,
				"element": "C" 
			},
			{
				"x": -3.7764695925,
				"y": -3.3537275027,
				"z": -2.8617047437,
				"element": "C" 
			},
			{
				"x": -3.7909614805,
				"y": -4.5929259676,
				"z": -3.5063131716,
				"element": "C" 
			},
			{
				"x": -2.8093505895,
				"y": -5.5454859275,
				"z": -3.2158160793,
				"element": "C" 
			},
			{
				"x": -1.8156117951,
				"y": -5.2589781548,
				"z": -2.2843100579,
				"element": "C" 
			},
			{
				"x": 4.2489906777,
				"y": 0.4025733029,
				"z": 1.1821276163,
				"element": "H" 
			},
			{
				"x": 0.8746671569,
				"y": 1.081288338,
				"z": 2.1259620775,
				"element": "H" 
			},
			{
				"x": -1.8828198722,
				"y": -1.2722406831,
				"z": 1.2827519557,
				"element": "H" 
			},
			{
				"x": -3.8484677647,
				"y": -1.0555951436,
				"z": 1.1121962396,
				"element": "H" 
			},
			{
				"x": -6.2151928742,
				"y": -1.194322211,
				"z": 1.7342240468,
				"element": "H" 
			},
			{
				"x": -7.0904108141,
				"y": 0.1137104284,
				"z": 3.6568958893,
				"element": "H" 
			},
			{
				"x": -5.5564373821,
				"y": 1.5759418487,
				"z": 4.95881715,
				"element": "H" 
			},
			{
				"x": -3.1443467037,
				"y": 1.7119092063,
				"z": 4.3270636777,
				"element": "H" 
			},
			{
				"x": 1.7315863525,
				"y": -2.8088736873,
				"z": -0.9175669217,
				"element": "H" 
			},
			{
				"x": 4.1830910034,
				"y": -2.3226731003,
				"z": -0.4985875243,
				"element": "H" 
			},
			{
				"x": 6.4396460357,
				"y": 1.5483943067,
				"z": -1.2422933452,
				"element": "H" 
			},
			{
				"x": 5.9551960836,
				"y": 3.8573809988,
				"z": -2.0464440515,
				"element": "H" 
			},
			{
				"x": 3.6758958243,
				"y": 4.4271426958,
				"z": -2.8599130637,
				"element": "H" 
			},
			{
				"x": 1.8941700397,
				"y": 2.6969583762,
				"z": -2.8649989144,
				"element": "H" 
			},
			{
				"x": 2.3683301807,
				"y": 0.4241786597,
				"z": -2.0327987834,
				"element": "H" 
			},
			{
				"x": -2.767360201,
				"y": -2.1070408958,
				"z": -1.4191999961,
				"element": "H" 
			},
			{
				"x": -4.5377422126,
				"y": -2.6131696487,
				"z": -3.0889117543,
				"element": "H" 
			},
			{
				"x": -4.5656553314,
				"y": -4.8164535104,
				"z": -4.2343628991,
				"element": "H" 
			},
			{
				"x": -2.8208351673,
				"y": -6.508590713,
				"z": -3.7175602124,
				"element": "H" 
			},
			{
				"x": -1.0409727409,
				"y": -5.9795228378,
				"z": -2.0446276714,
				"element": "H" 
			}
		],
		 "valence_orbital": [ 
			{
				"type": "occ",
				"energy": -0.26062,
				"method": "rhf"
			},
			{
				"type": "occ",
				"energy": -0.25941,
				"method": "rhf"
			},
			{
				"type": "occ",
				"energy": -0.25825,
				"method": "rhf"
			},
			{
				"type": "occ",
				"energy": -0.25523,
				"method": "rhf"
			},
			{
				"type": "occ",
				"energy": -0.23587,
				"method": "rhf"
			},
			{
				"type": "unocc",
				"energy": -0.11733,
				"method": "rhf"
			},
			{
				"type": "unocc",
				"energy": -0.05627,
				"method": "rhf"
			},
			{
				"type": "unocc",
				"energy": -0.05583,
				"method": "rhf"
			},
			{
				"type": "unocc",
				"energy": -0.04643,
				"method": "rhf"
			},
			{
				"type": "unocc",
				"energy": -0.01718,
				"method": "rhf"
			}
		],
		"cosmo_sigma_profile": { 
			"-0.025": 0.0,
			"-0.024": 0.0,
			"-0.023": 0.0,
			"-0.022": 0.0,
			"-0.021": 0.0,
			"-0.02": 0.0,
			"-0.019": 0.0,
			"-0.018": 0.0,
			"-0.017": 0.0,
			"-0.016": 0.362969444824,
			"-0.015": 1.30144750182,
			"-0.014": 0.753982012896,
			"-0.013": 1.16339493407,
			"-0.012": 1.11536542876,
			"-0.011": 1.50861074131,
			"-0.01": 2.4359191863,
			"-0.009": 3.53176568871,
			"-0.008": 3.89809453571,
			"-0.007": 9.99874250554,
			"-0.006": 33.0946744765,
			"-0.005": 41.4715982172,
			"-0.004": 38.9581847721,
			"-0.003": 33.884373434,
			"-0.002": 35.1892972247,
			"-0.001": 31.4721519414,
			"0.0": 31.0298705484,
			"0.001": 34.2281855439,
			"0.002": 35.4423828273,
			"0.003": 37.8229356572,
			"0.004": 41.4442146756,
			"0.005": 10.4488296634,
			"0.006": 7.09010918592,
			"0.007": 5.42335922317,
			"0.008": 4.18659253212,
			"0.009": 6.3597160911,
			"0.01": 7.46074637463,
			"0.011": 8.26672590252,
			"0.012": 11.4978988025,
			"0.013": 3.94632232839,
			"0.014": 0.540263060187,
			"0.015": 1.33985397079,
			"0.016": 0.46706740757,
			"0.017": 0.00414944059611,
			"0.018": 0.0,
			"0.019": 0.0,
			"0.02": 0.0,
			"0.021": 0.0,
			"0.022": 0.0,
			"0.023": 0.0,
			"0.024": 0.0,
			"0.025": 0.0
		}
	}
}
