{
	 "smiles": "O=C1NC(=NC2=C1CCC2)C1=NC=CC=C1", 
	 "Tm": 452.15, 
	 "num_atms": 27, 
	 "gaussian": { 
		 "optdone": 1, 
		 "sigma_profile": "yes", 
		 "theory": "DFT", 
		 "functional": "B3LYP", 
		 "basiset": "6-31G**", 
		 "properties": { 
			 "R2extent": 4495.9679, 
			 "electric_dipole_moment_norm": 4.86953562262, 
			 "electric_quadrupole_moment_norm": 18.5819495482, 
			 "total_energy": -703.417109285, 
			 "HOMO_LUMO_gap": 0.15028, 
			 "cosmo_polarized_energy": -12.44, 
			 "cosmo_cavitation_energy": 30.72, 
			 "cosmo_dispersion_energy": -23.15, 
			 "cosmo_repulsion_energy": 1.8, 
			 "cosmo_total_nonelectrostatic_energy": 9.37, 
			 "SMD_solvation_energy": 3.08 
		},
		"coords": [
			{
				"x": -1.351386719,
				"y": 3.657690931,
				"z": 1.3941418339,
				"element": "O" 
			},
			{
				"x": -0.5819894349,
				"y": 2.7583266472,
				"z": 1.0798565014,
				"element": "C" 
			},
			{
				"x": -1.0195878427,
				"y": 1.6692185918,
				"z": 0.2851729718,
				"element": "N" 
			},
			{
				"x": -0.2344795065,
				"y": 0.6387240839,
				"z": -0.1275731229,
				"element": "C" 
			},
			{
				"x": 1.0366306062,
				"y": 0.5271223012,
				"z": 0.1766409718,
				"element": "N" 
			},
			{
				"x": 1.5299370678,
				"y": 1.5343721241,
				"z": 0.9595498919,
				"element": "C" 
			},
			{
				"x": 0.8149243871,
				"y": 2.6101869963,
				"z": 1.4170410861,
				"element": "C" 
			},
			{
				"x": 1.661733001,
				"y": 3.5499091447,
				"z": 2.2282708823,
				"element": "C" 
			},
			{
				"x": 2.9452751519,
				"y": 2.7110340078,
				"z": 2.4969172967,
				"element": "C" 
			},
			{
				"x": 2.9712653622,
				"y": 1.6088530051,
				"z": 1.4044684472,
				"element": "C" 
			},
			{
				"x": -0.897768235,
				"y": -0.3931035573,
				"z": -0.9669903907,
				"element": "C" 
			},
			{
				"x": -2.2002601657,
				"y": -0.1934491165,
				"z": -1.228987412,
				"element": "N" 
			},
			{
				"x": -2.8333963408,
				"y": -1.0980972903,
				"z": -1.9805632409,
				"element": "C" 
			},
			{
				"x": -2.2075243423,
				"y": -2.2322373886,
				"z": -2.5016248084,
				"element": "C" 
			},
			{
				"x": -0.8541525753,
				"y": -2.4310464812,
				"z": -2.2238764288,
				"element": "C" 
			},
			{
				"x": -0.180719686,
				"y": -1.4970589004,
				"z": -1.4418992118,
				"element": "C" 
			},
			{
				"x": -1.9916827276,
				"y": 1.6530252279,
				"z": -0.0144493642,
				"element": "H" 
			},
			{
				"x": 1.8802681306,
				"y": 4.4621334354,
				"z": 1.6557124297,
				"element": "H" 
			},
			{
				"x": 1.1643677794,
				"y": 3.8767971258,
				"z": 3.1471409874,
				"element": "H" 
			},
			{
				"x": 2.8679120134,
				"y": 2.2399866061,
				"z": 3.4824405838,
				"element": "H" 
			},
			{
				"x": 3.8521331757,
				"y": 3.3212433626,
				"z": 2.5008191537,
				"element": "H" 
			},
			{
				"x": 3.3411983035,
				"y": 0.6441856271,
				"z": 1.7663636665,
				"element": "H" 
			},
			{
				"x": 3.6043835853,
				"y": 1.8875513342,
				"z": 0.5506844338,
				"element": "H" 
			},
			{
				"x": -3.8868750911,
				"y": -0.9080940557,
				"z": -2.1747524414,
				"element": "H" 
			},
			{
				"x": -2.7688435794,
				"y": -2.9364597928,
				"z": -3.1069697577,
				"element": "H" 
			},
			{
				"x": -0.3321008581,
				"y": -3.3010665318,
				"z": -2.6110332525,
				"element": "H" 
			},
			{
				"x": 0.8685385404,
				"y": -1.5934474376,
				"z": -1.1903017068,
				"element": "H" 
			}
		],
		 "valence_orbital": [ 
			{
				"type": "occ",
				"energy": -0.28685,
				"method": "rhf"
			},
			{
				"type": "occ",
				"energy": -0.27723,
				"method": "rhf"
			},
			{
				"type": "occ",
				"energy": -0.27233,
				"method": "rhf"
			},
			{
				"type": "occ",
				"energy": -0.24705,
				"method": "rhf"
			},
			{
				"type": "occ",
				"energy": -0.22007,
				"method": "rhf"
			},
			{
				"type": "unocc",
				"energy": -0.06979,
				"method": "rhf"
			},
			{
				"type": "unocc",
				"energy": -0.03657,
				"method": "rhf"
			},
			{
				"type": "unocc",
				"energy": -0.00886,
				"method": "rhf"
			},
			{
				"type": "unocc",
				"energy": 0.02887,
				"method": "rhf"
			},
			{
				"type": "unocc",
				"energy": 0.08712,
				"method": "rhf"
			}
		],
		"cosmo_sigma_profile": { 
			"-0.025": 0.0,
			"-0.024": 0.0,
			"-0.023": 0.0,
			"-0.022": 0.0,
			"-0.021": 0.0,
			"-0.02": 0.0,
			"-0.019": 0.0,
			"-0.018": 0.0,
			"-0.017": 0.0,
			"-0.016": 0.0,
			"-0.015": 0.0,
			"-0.014": 0.0,
			"-0.013": 0.0,
			"-0.012": 0.0465686099547,
			"-0.011": 0.402664353725,
			"-0.01": 0.992288567409,
			"-0.009": 0.328298674209,
			"-0.008": 2.49971597806,
			"-0.007": 7.71542734856,
			"-0.006": 11.1818559447,
			"-0.005": 9.77754770382,
			"-0.004": 15.7126937637,
			"-0.003": 22.9732508937,
			"-0.002": 32.9479077358,
			"-0.001": 27.5444463078,
			"0.0": 29.5292884299,
			"0.001": 23.930250428,
			"0.002": 13.1079142666,
			"0.003": 5.7156533333,
			"0.004": 4.50781401806,
			"0.005": 4.54328735337,
			"0.006": 4.29439719957,
			"0.007": 3.51230268359,
			"0.008": 4.26985869318,
			"0.009": 2.66895696044,
			"0.01": 1.76536260047,
			"0.011": 3.15246863282,
			"0.012": 1.5639650164,
			"0.013": 4.35748142907,
			"0.014": 5.57450361837,
			"0.015": 0.799018525433,
			"0.016": 0.0,
			"0.017": 0.0,
			"0.018": 0.0,
			"0.019": 0.0,
			"0.02": 0.0,
			"0.021": 0.0,
			"0.022": 0.0,
			"0.023": 0.0,
			"0.024": 0.0,
			"0.025": 0.0
		}
	}
}
