{
	 "smiles": "CC1=CC=C(C=C1)C1=CC=C(C)C=C1", 
	 "Tm": 393.15, 
	 "num_atms": 28, 
	 "gaussian": { 
		 "optdone": 1, 
		 "sigma_profile": "yes", 
		 "theory": "DFT", 
		 "functional": "B3LYP", 
		 "basiset": "6-31G**", 
		 "properties": { 
			 "R2extent": 4618.6388, 
			 "electric_dipole_moment_norm": 0.0802737192361, 
			 "electric_quadrupole_moment_norm": 9.76655055585, 
			 "total_energy": -541.951738966, 
			 "HOMO_LUMO_gap": 0.19036, 
			 "cosmo_polarized_energy": -5.17, 
			 "cosmo_cavitation_energy": 31.05, 
			 "cosmo_dispersion_energy": -22.65, 
			 "cosmo_repulsion_energy": 1.77, 
			 "cosmo_total_nonelectrostatic_energy": 10.16, 
			 "SMD_solvation_energy": 5.16 
		},
		"coords": [
			{
				"x": -4.5854755919,
				"y": 0.1510778415,
				"z": -0.1034006305,
				"element": "C" 
			},
			{
				"x": -3.1319779536,
				"y": 0.3013283355,
				"z": 0.2786227464,
				"element": "C" 
			},
			{
				"x": -2.2114004662,
				"y": -0.7292150284,
				"z": 0.0474195172,
				"element": "C" 
			},
			{
				"x": -0.864818033,
				"y": -0.5823071522,
				"z": 0.3727343818,
				"element": "C" 
			},
			{
				"x": -0.3814060058,
				"y": 0.6061098805,
				"z": 0.9451977565,
				"element": "C" 
			},
			{
				"x": -1.3061850741,
				"y": 1.6374801714,
				"z": 1.1789543454,
				"element": "C" 
			},
			{
				"x": -2.6522767652,
				"y": 1.4852249773,
				"z": 0.8540583662,
				"element": "C" 
			},
			{
				"x": 1.0525641165,
				"y": 0.7648324229,
				"z": 1.2939899481,
				"element": "C" 
			},
			{
				"x": 1.4490793576,
				"y": 1.4591515078,
				"z": 2.4491677005,
				"element": "C" 
			},
			{
				"x": 2.7956415947,
				"y": 1.60547205,
				"z": 2.7748672188,
				"element": "C" 
			},
			{
				"x": 3.8027625895,
				"y": 1.0665322243,
				"z": 1.9635800747,
				"element": "C" 
			},
			{
				"x": 5.2627443159,
				"y": 1.2530841479,
				"z": 2.3024516133,
				"element": "C" 
			},
			{
				"x": 3.4086933578,
				"y": 0.3695299912,
				"z": 0.8139111065,
				"element": "C" 
			},
			{
				"x": 2.0634717424,
				"y": 0.2226052866,
				"z": 0.4830264184,
				"element": "C" 
			},
			{
				"x": -4.9088159661,
				"y": -0.8928492077,
				"z": -0.0461561047,
				"element": "H" 
			},
			{
				"x": -4.7637160851,
				"y": 0.4897210792,
				"z": -1.1321130957,
				"element": "H" 
			},
			{
				"x": -5.2349157478,
				"y": 0.7428315339,
				"z": 0.5490074832,
				"element": "H" 
			},
			{
				"x": -2.5561389138,
				"y": -1.6662964838,
				"z": -0.383753442,
				"element": "H" 
			},
			{
				"x": -0.1828777657,
				"y": -1.4116060387,
				"z": 0.2082238233,
				"element": "H" 
			},
			{
				"x": -0.9622766635,
				"y": 2.5776174027,
				"z": 1.6005420892,
				"element": "H" 
			},
			{
				"x": -3.3421172608,
				"y": 2.3043860555,
				"z": 1.0437590337,
				"element": "H" 
			},
			{
				"x": 0.6923231263,
				"y": 1.8632298632,
				"z": 3.1154158127,
				"element": "H" 
			},
			{
				"x": 3.0693160142,
				"y": 2.1385465454,
				"z": 3.6825056785,
				"element": "H" 
			},
			{
				"x": 5.4161662503,
				"y": 1.332454122,
				"z": 3.3830872299,
				"element": "H" 
			},
			{
				"x": 5.662360073,
				"y": 2.1697994844,
				"z": 1.8500870762,
				"element": "H" 
			},
			{
				"x": 5.8695040986,
				"y": 0.4198932489,
				"z": 1.9347312008,
				"element": "H" 
			},
			{
				"x": 4.167364962,
				"y": -0.0585464382,
				"z": 0.1627122823,
				"element": "H" 
			},
			{
				"x": 1.7927066937,
				"y": -0.3018878228,
				"z": -0.4288296306,
				"element": "H" 
			}
		],
		 "valence_orbital": [ 
			{
				"type": "occ",
				"energy": -0.32372,
				"method": "rhf"
			},
			{
				"type": "occ",
				"energy": -0.25834,
				"method": "rhf"
			},
			{
				"type": "occ",
				"energy": -0.24533,
				"method": "rhf"
			},
			{
				"type": "occ",
				"energy": -0.2446,
				"method": "rhf"
			},
			{
				"type": "occ",
				"energy": -0.21088,
				"method": "rhf"
			},
			{
				"type": "unocc",
				"energy": -0.02052,
				"method": "rhf"
			},
			{
				"type": "unocc",
				"energy": 0.0005,
				"method": "rhf"
			},
			{
				"type": "unocc",
				"energy": 0.00495,
				"method": "rhf"
			},
			{
				"type": "unocc",
				"energy": 0.03463,
				"method": "rhf"
			},
			{
				"type": "unocc",
				"energy": 0.10347,
				"method": "rhf"
			}
		],
		"cosmo_sigma_profile": { 
			"-0.025": 0.0,
			"-0.024": 0.0,
			"-0.023": 0.0,
			"-0.022": 0.0,
			"-0.021": 0.0,
			"-0.02": 0.0,
			"-0.019": 0.0,
			"-0.018": 0.0,
			"-0.017": 0.0,
			"-0.016": 0.0,
			"-0.015": 0.0,
			"-0.014": 0.0,
			"-0.013": 0.0,
			"-0.012": 0.0,
			"-0.011": 0.0,
			"-0.01": 0.0,
			"-0.009": 0.0,
			"-0.008": 0.0,
			"-0.007": 0.0,
			"-0.006": 1.01388206918,
			"-0.005": 14.6140272671,
			"-0.004": 29.3387647199,
			"-0.003": 29.2885316459,
			"-0.002": 23.3622893329,
			"-0.001": 23.5865542049,
			"0.0": 28.5136125857,
			"0.001": 16.1522663987,
			"0.002": 14.6480299919,
			"0.003": 15.0562341852,
			"0.004": 15.6357978007,
			"0.005": 16.1187202275,
			"0.006": 16.8918264387,
			"0.007": 2.39459361075,
			"0.008": 0.0,
			"0.009": 0.0,
			"0.01": 0.0,
			"0.011": 0.0,
			"0.012": 0.0,
			"0.013": 0.0,
			"0.014": 0.0,
			"0.015": 0.0,
			"0.016": 0.0,
			"0.017": 0.0,
			"0.018": 0.0,
			"0.019": 0.0,
			"0.02": 0.0,
			"0.021": 0.0,
			"0.022": 0.0,
			"0.023": 0.0,
			"0.024": 0.0,
			"0.025": 0.0
		}
	}
}
