{
	 "smiles": "CC(C)(C)C1=CC(=C2OC(=CC(=O)C2=C1)C(O)=O)C(C)(C)C", 
	 "Tm": 505.15, 
	 "num_atms": 44, 
	 "gaussian": { 
		 "optdone": 1, 
		 "sigma_profile": "yes", 
		 "theory": "DFT", 
		 "functional": "B3LYP", 
		 "basiset": "6-31G**", 
		 "properties": { 
			 "R2extent": 9893.5023, 
			 "electric_dipole_moment_norm": 4.71862578512, 
			 "electric_quadrupole_moment_norm": 25.6679007248, 
			 "total_energy": -1000.1006349, 
			 "HOMO_LUMO_gap": 0.15256, 
			 "cosmo_polarized_energy": -14.3, 
			 "cosmo_cavitation_energy": 44.98, 
			 "cosmo_dispersion_energy": -29.89, 
			 "cosmo_repulsion_energy": 2.25, 
			 "cosmo_total_nonelectrostatic_energy": 17.35, 
			 "SMD_solvation_energy": 10.04 
		},
		"coords": [
			{
				"x": -3.3728895088,
				"y": -2.243948735,
				"z": 2.9140292837,
				"element": "C" 
			},
			{
				"x": -3.0764758965,
				"y": -1.7583348116,
				"z": 1.4749910153,
				"element": "C" 
			},
			{
				"x": -2.5379331739,
				"y": -2.9530274444,
				"z": 0.6650559502,
				"element": "C" 
			},
			{
				"x": -4.3920365818,
				"y": -1.2802780805,
				"z": 0.8152083389,
				"element": "C" 
			},
			{
				"x": -2.0813188471,
				"y": -0.5835935493,
				"z": 1.5308024294,
				"element": "C" 
			},
			{
				"x": -0.8221210334,
				"y": -0.6237665016,
				"z": 0.897283244,
				"element": "C" 
			},
			{
				"x": 0.110600807,
				"y": 0.4186699971,
				"z": 0.9215620335,
				"element": "C" 
			},
			{
				"x": -0.281306723,
				"y": 1.5679387294,
				"z": 1.6423203015,
				"element": "C" 
			},
			{
				"x": 0.6057090826,
				"y": 2.6222352723,
				"z": 1.6943266994,
				"element": "O" 
			},
			{
				"x": 0.2796059222,
				"y": 3.7452459962,
				"z": 2.3712212558,
				"element": "C" 
			},
			{
				"x": -0.8875363438,
				"y": 3.9279031105,
				"z": 3.0257390226,
				"element": "C" 
			},
			{
				"x": -1.9054903715,
				"y": 2.8776780245,
				"z": 3.0391770006,
				"element": "C" 
			},
			{
				"x": -2.9821666995,
				"y": 2.9980565991,
				"z": 3.6205839333,
				"element": "O" 
			},
			{
				"x": -1.5238651841,
				"y": 1.6561642567,
				"z": 2.2900645711,
				"element": "C" 
			},
			{
				"x": -2.4102364326,
				"y": 0.5754019727,
				"z": 2.2252106496,
				"element": "C" 
			},
			{
				"x": 1.3360713078,
				"y": 4.8024513925,
				"z": 2.3423280512,
				"element": "C" 
			},
			{
				"x": 2.4263194158,
				"y": 4.4336290904,
				"z": 1.639684232,
				"element": "O" 
			},
			{
				"x": 1.2211018561,
				"y": 5.875361104,
				"z": 2.8930295355,
				"element": "O" 
			},
			{
				"x": 1.4749111688,
				"y": 0.3104510606,
				"z": 0.2044989037,
				"element": "C" 
			},
			{
				"x": 1.6393901151,
				"y": -1.050972504,
				"z": -0.5020125464,
				"element": "C" 
			},
			{
				"x": 2.6307157356,
				"y": 0.443899511,
				"z": 1.2279191617,
				"element": "C" 
			},
			{
				"x": 1.6000607258,
				"y": 1.4122384687,
				"z": -0.8779025186,
				"element": "C" 
			},
			{
				"x": -2.4598030265,
				"y": -2.595514565,
				"z": 3.4058008161,
				"element": "H" 
			},
			{
				"x": -3.7998935913,
				"y": -1.4484065473,
				"z": 3.5312999117,
				"element": "H" 
			},
			{
				"x": -4.0891416727,
				"y": -3.0729727417,
				"z": 2.8953118652,
				"element": "H" 
			},
			{
				"x": -3.2820052782,
				"y": -3.7558139185,
				"z": 0.6585969075,
				"element": "H" 
			},
			{
				"x": -2.3367885863,
				"y": -2.6848568595,
				"z": -0.3776028988,
				"element": "H" 
			},
			{
				"x": -1.6189858479,
				"y": -3.3618840638,
				"z": 1.0985127364,
				"element": "H" 
			},
			{
				"x": -5.117793644,
				"y": -2.100317534,
				"z": 0.7768915614,
				"element": "H" 
			},
			{
				"x": -4.2150489304,
				"y": -0.9356915402,
				"z": -0.209046874,
				"element": "H" 
			},
			{
				"x": -4.8489111517,
				"y": -0.4563497833,
				"z": 1.3708162544,
				"element": "H" 
			},
			{
				"x": -0.5567398931,
				"y": -1.5192893324,
				"z": 0.355357621,
				"element": "H" 
			},
			{
				"x": -1.0671122466,
				"y": 4.8613693611,
				"z": 3.5437192687,
				"element": "H" 
			},
			{
				"x": -3.3562417898,
				"y": 0.6952875901,
				"z": 2.742415048,
				"element": "H" 
			},
			{
				"x": 3.0418342852,
				"y": 5.1846138528,
				"z": 1.6851548387,
				"element": "H" 
			},
			{
				"x": 0.8794069104,
				"y": -1.2111313046,
				"z": -1.273878045,
				"element": "H" 
			},
			{
				"x": 2.6163563634,
				"y": -1.0815497615,
				"z": -0.9940124467,
				"element": "H" 
			},
			{
				"x": 1.6009401757,
				"y": -1.8894730686,
				"z": 0.2011656755,
				"element": "H" 
			},
			{
				"x": 2.6396888124,
				"y": 1.4215212668,
				"z": 1.7111142208,
				"element": "H" 
			},
			{
				"x": 3.5913856741,
				"y": 0.3125415612,
				"z": 0.7174777002,
				"element": "H" 
			},
			{
				"x": 2.555174818,
				"y": -0.3267864553,
				"z": 2.0025261918,
				"element": "H" 
			},
			{
				"x": 0.7878962345,
				"y": 1.3336637831,
				"z": -1.6085835272,
				"element": "H" 
			},
			{
				"x": 1.583161007,
				"y": 2.4139712417,
				"z": -0.4470971082,
				"element": "H" 
			},
			{
				"x": 2.547212037,
				"y": 1.2938658596,
				"z": -1.4160602655,
				"element": "H" 
			}
		],
		 "valence_orbital": [ 
			{
				"type": "occ",
				"energy": -0.30039,
				"method": "rhf"
			},
			{
				"type": "occ",
				"energy": -0.2795,
				"method": "rhf"
			},
			{
				"type": "occ",
				"energy": -0.25787,
				"method": "rhf"
			},
			{
				"type": "occ",
				"energy": -0.24691,
				"method": "rhf"
			},
			{
				"type": "occ",
				"energy": -0.23527,
				"method": "rhf"
			},
			{
				"type": "unocc",
				"energy": -0.08271,
				"method": "rhf"
			},
			{
				"type": "unocc",
				"energy": -0.03312,
				"method": "rhf"
			},
			{
				"type": "unocc",
				"energy": -0.0082,
				"method": "rhf"
			},
			{
				"type": "unocc",
				"energy": 0.04247,
				"method": "rhf"
			},
			{
				"type": "unocc",
				"energy": 0.0585,
				"method": "rhf"
			}
		],
		"cosmo_sigma_profile": { 
			"-0.025": 0.0,
			"-0.024": 0.0,
			"-0.023": 0.0,
			"-0.022": 0.0,
			"-0.021": 0.0,
			"-0.02": 0.0330906427578,
			"-0.019": 0.950494916828,
			"-0.018": 0.873341835108,
			"-0.017": 1.37814997816,
			"-0.016": 0.672803617812,
			"-0.015": 0.441928874898,
			"-0.014": 0.472033189618,
			"-0.013": 0.650370020162,
			"-0.012": 1.33540049513,
			"-0.011": 0.626963328458,
			"-0.01": 0.399054507218,
			"-0.009": 1.01350618761,
			"-0.008": 1.29839190667,
			"-0.007": 1.68164665062,
			"-0.006": 3.15635508355,
			"-0.005": 8.14215088955,
			"-0.004": 17.2487142002,
			"-0.003": 41.050961808,
			"-0.002": 46.5700014607,
			"-0.001": 40.9042307057,
			"0.0": 44.7380354383,
			"0.001": 52.8295633915,
			"0.002": 23.6442467885,
			"0.003": 15.0416501885,
			"0.004": 8.30793665825,
			"0.005": 6.00932949001,
			"0.006": 3.76755019126,
			"0.007": 3.3182772172,
			"0.008": 2.60458742418,
			"0.009": 3.8052329738,
			"0.01": 6.29573482751,
			"0.011": 4.19945948578,
			"0.012": 3.40802600314,
			"0.013": 4.82332556377,
			"0.014": 0.985798444481,
			"0.015": 0.0,
			"0.016": 0.0,
			"0.017": 0.0,
			"0.018": 0.0,
			"0.019": 0.0,
			"0.02": 0.0,
			"0.021": 0.0,
			"0.022": 0.0,
			"0.023": 0.0,
			"0.024": 0.0,
			"0.025": 0.0
		}
	}
}
