{
	 "smiles": "CNP(=O)(NC)OC1=CC=CC=C1", 
	 "Tm": 375.15, 
	 "num_atms": 26, 
	 "gaussian": { 
		 "optdone": 1, 
		 "sigma_profile": "yes", 
		 "theory": "DFT", 
		 "functional": "B3LYP", 
		 "basiset": "6-31G**", 
		 "properties": { 
			 "R2extent": 3197.8143, 
			 "electric_dipole_moment_norm": 4.26830793641, 
			 "electric_quadrupole_moment_norm": 15.4020323136, 
			 "total_energy": -914.04788975, 
			 "HOMO_LUMO_gap": 0.22823, 
			 "cosmo_polarized_energy": -15.97, 
			 "cosmo_cavitation_energy": 30.85, 
			 "cosmo_dispersion_energy": -21.72, 
			 "cosmo_repulsion_energy": 1.73, 
			 "cosmo_total_nonelectrostatic_energy": 10.86, 
			 "SMD_solvation_energy": 7.27 
		},
		"coords": [
			{
				"x": 0.8615988683,
				"y": -3.4629219976,
				"z": 0.7637579342,
				"element": "C" 
			},
			{
				"x": -0.2861293064,
				"y": -2.5541585093,
				"z": 0.7403761252,
				"element": "N" 
			},
			{
				"x": -0.8250856321,
				"y": -1.867043098,
				"z": -0.6764761329,
				"element": "P" 
			},
			{
				"x": -0.6051879534,
				"y": -2.7293734044,
				"z": -1.8624406291,
				"element": "O" 
			},
			{
				"x": -2.3805732921,
				"y": -1.3728299556,
				"z": -0.2555203833,
				"element": "N" 
			},
			{
				"x": -3.429187706,
				"y": -2.3940810233,
				"z": -0.1169122097,
				"element": "C" 
			},
			{
				"x": -0.1261745709,
				"y": -0.3879598096,
				"z": -0.9111777678,
				"element": "O" 
			},
			{
				"x": 0.4004798455,
				"y": 0.4196388222,
				"z": 0.0848622919,
				"element": "C" 
			},
			{
				"x": -0.3436279575,
				"y": 0.8076276881,
				"z": 1.2032312818,
				"element": "C" 
			},
			{
				"x": 0.2370678306,
				"y": 1.65729179,
				"z": 2.1481168724,
				"element": "C" 
			},
			{
				"x": 1.5404707659,
				"y": 2.1257523922,
				"z": 1.9771337355,
				"element": "C" 
			},
			{
				"x": 2.2689859512,
				"y": 1.7394334584,
				"z": 0.8490673574,
				"element": "C" 
			},
			{
				"x": 1.7050579309,
				"y": 0.8847005809,
				"z": -0.0973771349,
				"element": "C" 
			},
			{
				"x": 1.8146973849,
				"y": -2.9399076208,
				"z": 0.9146337695,
				"element": "H" 
			},
			{
				"x": 0.7347532856,
				"y": -4.1997202015,
				"z": 1.5630931812,
				"element": "H" 
			},
			{
				"x": 0.9002569388,
				"y": -3.9898913482,
				"z": -0.1908438182,
				"element": "H" 
			},
			{
				"x": -0.431259071,
				"y": -2.0125846614,
				"z": 1.5832717384,
				"element": "H" 
			},
			{
				"x": -2.6715866854,
				"y": -0.5797047164,
				"z": -0.8189377411,
				"element": "H" 
			},
			{
				"x": -3.0696569402,
				"y": -3.1732611644,
				"z": 0.5588341999,
				"element": "H" 
			},
			{
				"x": -4.3177715622,
				"y": -1.9389895334,
				"z": 0.3295873127,
				"element": "H" 
			},
			{
				"x": -3.7064685504,
				"y": -2.8626122226,
				"z": -1.0689772472,
				"element": "H" 
			},
			{
				"x": -1.3639267749,
				"y": 0.4559185317,
				"z": 1.3166372059,
				"element": "H" 
			},
			{
				"x": -0.3403666915,
				"y": 1.9595197315,
				"z": 3.0173510916,
				"element": "H" 
			},
			{
				"x": 1.9837478096,
				"y": 2.7894386131,
				"z": 2.7131878665,
				"element": "H" 
			},
			{
				"x": 3.2826522768,
				"y": 2.1019500296,
				"z": 0.704466852,
				"element": "H" 
			},
			{
				"x": 2.252733806,
				"y": 0.5720676287,
				"z": -0.980145752,
				"element": "H" 
			}
		],
		 "valence_orbital": [ 
			{
				"type": "occ",
				"energy": -0.28661,
				"method": "rhf"
			},
			{
				"type": "occ",
				"energy": -0.26187,
				"method": "rhf"
			},
			{
				"type": "occ",
				"energy": -0.25772,
				"method": "rhf"
			},
			{
				"type": "occ",
				"energy": -0.2503,
				"method": "rhf"
			},
			{
				"type": "occ",
				"energy": -0.23919,
				"method": "rhf"
			},
			{
				"type": "unocc",
				"energy": -0.01096,
				"method": "rhf"
			},
			{
				"type": "unocc",
				"energy": -0.00224,
				"method": "rhf"
			},
			{
				"type": "unocc",
				"energy": 0.06492,
				"method": "rhf"
			},
			{
				"type": "unocc",
				"energy": 0.08034,
				"method": "rhf"
			},
			{
				"type": "unocc",
				"energy": 0.09061,
				"method": "rhf"
			}
		],
		"cosmo_sigma_profile": { 
			"-0.025": 0.0,
			"-0.024": 0.0,
			"-0.023": 0.0,
			"-0.022": 0.0,
			"-0.021": 0.0,
			"-0.02": 0.0,
			"-0.019": 0.0,
			"-0.018": 0.0,
			"-0.017": 0.0,
			"-0.016": 0.0,
			"-0.015": 0.0,
			"-0.014": 0.0917363771887,
			"-0.013": 1.0200375063,
			"-0.012": 2.02460780548,
			"-0.011": 1.65339473903,
			"-0.01": 2.07514760461,
			"-0.009": 1.8934239648,
			"-0.008": 1.63912083428,
			"-0.007": 2.86156612365,
			"-0.006": 9.96178379403,
			"-0.005": 15.7916657045,
			"-0.004": 25.4584443636,
			"-0.003": 25.1901351865,
			"-0.002": 25.351298203,
			"-0.001": 23.0188319779,
			"0.0": 12.1111608964,
			"0.001": 11.1635501634,
			"0.002": 12.1130611212,
			"0.003": 13.1667838559,
			"0.004": 13.2528505156,
			"0.005": 12.6521754932,
			"0.006": 4.43940297801,
			"0.007": 2.31816502835,
			"0.008": 1.53761683894,
			"0.009": 2.23270263924,
			"0.01": 2.35308770072,
			"0.011": 1.97350147118,
			"0.012": 1.5695493123,
			"0.013": 1.24422220189,
			"0.014": 2.80135448211,
			"0.015": 6.11732314765,
			"0.016": 2.71215953199,
			"0.017": 0.0,
			"0.018": 0.0,
			"0.019": 0.0,
			"0.02": 0.0,
			"0.021": 0.0,
			"0.022": 0.0,
			"0.023": 0.0,
			"0.024": 0.0,
			"0.025": 0.0
		}
	}
}
