{
	 "smiles": "CN1CCCC1C1=CN=CC=C1", 
	 "Tm": 194.15, 
	 "num_atms": 26, 
	 "gaussian": { 
		 "optdone": 1, 
		 "sigma_profile": "yes", 
		 "theory": "DFT", 
		 "functional": "B3LYP", 
		 "basiset": "6-31G**", 
		 "properties": { 
			 "R2extent": 2872.0488, 
			 "electric_dipole_moment_norm": 2.78009098053, 
			 "electric_quadrupole_moment_norm": 9.93526958769, 
			 "total_energy": -498.994260573, 
			 "HOMO_LUMO_gap": 0.19868, 
			 "cosmo_polarized_energy": -7.01, 
			 "cosmo_cavitation_energy": 27.51, 
			 "cosmo_dispersion_energy": -19.89, 
			 "cosmo_repulsion_energy": 1.59, 
			 "cosmo_total_nonelectrostatic_energy": 9.21, 
			 "SMD_solvation_energy": 1.53 
		},
		"coords": [
			{
				"x": 0.5243251476,
				"y": -0.8056038935,
				"z": 0.6439722156,
				"element": "C" 
			},
			{
				"x": -0.843188826,
				"y": -0.4525997825,
				"z": 0.3018574194,
				"element": "N" 
			},
			{
				"x": -1.7453867213,
				"y": -1.6005504989,
				"z": 0.2274619427,
				"element": "C" 
			},
			{
				"x": -3.0233909986,
				"y": -1.0278028121,
				"z": -0.4072366199,
				"element": "C" 
			},
			{
				"x": -2.5226045707,
				"y": 0.1809913923,
				"z": -1.2426770139,
				"element": "C" 
			},
			{
				"x": -0.9905655671,
				"y": 0.2414282829,
				"z": -0.982914754,
				"element": "C" 
			},
			{
				"x": -0.4278515653,
				"y": 1.6474504851,
				"z": -0.9701346152,
				"element": "C" 
			},
			{
				"x": -0.6090671788,
				"y": 2.4929942204,
				"z": 0.1353145537,
				"element": "C" 
			},
			{
				"x": -0.1777974817,
				"y": 3.7577272532,
				"z": 0.1954310742,
				"element": "N" 
			},
			{
				"x": 0.4663471544,
				"y": 4.2403521407,
				"z": -0.8759104206,
				"element": "C" 
			},
			{
				"x": 0.7097387566,
				"y": 3.4911745062,
				"z": -2.0266446495,
				"element": "C" 
			},
			{
				"x": 0.2570006492,
				"y": 2.1728938725,
				"z": -2.0682876481,
				"element": "C" 
			},
			{
				"x": 1.1415773764,
				"y": 0.0950671137,
				"z": 0.7024306668,
				"element": "H" 
			},
			{
				"x": 0.5447741476,
				"y": -1.2934341423,
				"z": 1.6236405563,
				"element": "H" 
			},
			{
				"x": 0.9860736579,
				"y": -1.4937342066,
				"z": -0.0909148318,
				"element": "H" 
			},
			{
				"x": -1.3251254012,
				"y": -2.4021447852,
				"z": -0.4130583266,
				"element": "H" 
			},
			{
				"x": -1.9052418006,
				"y": -2.0284287109,
				"z": 1.2231668902,
				"element": "H" 
			},
			{
				"x": -3.5417611712,
				"y": -1.7749016916,
				"z": -1.0143765865,
				"element": "H" 
			},
			{
				"x": -3.7194685915,
				"y": -0.6938482235,
				"z": 0.3669237901,
				"element": "H" 
			},
			{
				"x": -2.7298098782,
				"y": 0.0763720642,
				"z": -2.3112734422,
				"element": "H" 
			},
			{
				"x": -2.9952257401,
				"y": 1.1087687116,
				"z": -0.9100556541,
				"element": "H" 
			},
			{
				"x": -0.4768291019,
				"y": -0.323996974,
				"z": -1.7884579786,
				"element": "H" 
			},
			{
				"x": -1.1195139211,
				"y": 2.1087310835,
				"z": 1.0159137278,
				"element": "H" 
			},
			{
				"x": 0.8061540789,
				"y": 5.2725484101,
				"z": -0.8075719113,
				"element": "H" 
			},
			{
				"x": 1.2447454169,
				"y": 3.927996782,
				"z": -2.8644344539,
				"element": "H" 
			},
			{
				"x": 0.43459213,
				"y": 1.5543494027,
				"z": -2.9453639307,
				"element": "H" 
			}
		],
		 "valence_orbital": [ 
			{
				"type": "occ",
				"energy": -0.32482,
				"method": "rhf"
			},
			{
				"type": "occ",
				"energy": -0.27826,
				"method": "rhf"
			},
			{
				"type": "occ",
				"energy": -0.24938,
				"method": "rhf"
			},
			{
				"type": "occ",
				"energy": -0.24664,
				"method": "rhf"
			},
			{
				"type": "occ",
				"energy": -0.21672,
				"method": "rhf"
			},
			{
				"type": "unocc",
				"energy": -0.01804,
				"method": "rhf"
			},
			{
				"type": "unocc",
				"energy": -0.00799,
				"method": "rhf"
			},
			{
				"type": "unocc",
				"energy": 0.08206,
				"method": "rhf"
			},
			{
				"type": "unocc",
				"energy": 0.09593,
				"method": "rhf"
			},
			{
				"type": "unocc",
				"energy": 0.11372,
				"method": "rhf"
			}
		],
		"cosmo_sigma_profile": { 
			"-0.025": 0.0,
			"-0.024": 0.0,
			"-0.023": 0.0,
			"-0.022": 0.0,
			"-0.021": 0.0,
			"-0.02": 0.0,
			"-0.019": 0.0,
			"-0.018": 0.0,
			"-0.017": 0.0,
			"-0.016": 0.0,
			"-0.015": 0.0,
			"-0.014": 0.0,
			"-0.013": 0.0,
			"-0.012": 0.0,
			"-0.011": 0.0,
			"-0.01": 0.0,
			"-0.009": 0.0,
			"-0.008": 0.0,
			"-0.007": 1.08852219975,
			"-0.006": 6.29282400624,
			"-0.005": 8.47713200397,
			"-0.004": 10.853748781,
			"-0.003": 22.2446163749,
			"-0.002": 33.1478877437,
			"-0.001": 35.4676591986,
			"0.0": 30.1856412388,
			"0.001": 17.1399706342,
			"0.002": 11.2685747106,
			"0.003": 12.6159979963,
			"0.004": 6.07621703995,
			"0.005": 2.66448235956,
			"0.006": 2.92466591601,
			"0.007": 2.04047818238,
			"0.008": 2.12588663335,
			"0.009": 2.14575878668,
			"0.01": 1.77246180611,
			"0.011": 1.40389854888,
			"0.012": 1.30220332518,
			"0.013": 1.26056665479,
			"0.014": 0.660256653507,
			"0.015": 0.920105392502,
			"0.016": 0.954224394635,
			"0.017": 0.662825327035,
			"0.018": 0.11102751224,
			"0.019": 0.0,
			"0.02": 0.0,
			"0.021": 0.0,
			"0.022": 0.0,
			"0.023": 0.0,
			"0.024": 0.0,
			"0.025": 0.0
		}
	}
}
