{
	 "smiles": "NS(=O)(=O)C1CCCCC1", 
	 "Tm": 365.15, 
	 "num_atms": 23, 
	 "gaussian": { 
		 "optdone": 1, 
		 "sigma_profile": "yes", 
		 "theory": "DFT", 
		 "functional": "B3LYP", 
		 "basiset": "6-31G**", 
		 "properties": { 
			 "R2extent": 2663.0873, 
			 "electric_dipole_moment_norm": 3.44789925172, 
			 "electric_quadrupole_moment_norm": 12.6765558118, 
			 "total_energy": -839.819391578, 
			 "HOMO_LUMO_gap": 0.33645, 
			 "cosmo_polarized_energy": -13.61, 
			 "cosmo_cavitation_energy": 25.18, 
			 "cosmo_dispersion_energy": -19.32, 
			 "cosmo_repulsion_energy": 1.53, 
			 "cosmo_total_nonelectrostatic_energy": 7.39, 
			 "SMD_solvation_energy": 3.01 
		},
		"coords": [
			{
				"x": 1.1126593816,
				"y": -3.2575051,
				"z": -2.5360741436,
				"element": "N" 
			},
			{
				"x": -0.0391375222,
				"y": -2.6176202797,
				"z": -1.4583769782,
				"element": "S" 
			},
			{
				"x": -1.3079538277,
				"y": -2.5124888467,
				"z": -2.1906852448,
				"element": "O" 
			},
			{
				"x": 0.0609417831,
				"y": -3.3779315619,
				"z": -0.2049937609,
				"element": "O" 
			},
			{
				"x": 0.5852124052,
				"y": -0.9290662318,
				"z": -1.1715902522,
				"element": "C" 
			},
			{
				"x": 1.9696316242,
				"y": -0.9430203053,
				"z": -0.5107873938,
				"element": "C" 
			},
			{
				"x": 2.4516823844,
				"y": 0.4943486557,
				"z": -0.2473237489,
				"element": "C" 
			},
			{
				"x": 1.4342331294,
				"y": 1.291854123,
				"z": 0.5816448756,
				"element": "C" 
			},
			{
				"x": 0.0478912384,
				"y": 1.2823602026,
				"z": -0.0789126644,
				"element": "C" 
			},
			{
				"x": -0.4480066617,
				"y": -0.1494622757,
				"z": -0.3408393115,
				"element": "C" 
			},
			{
				"x": 1.5440374995,
				"y": -4.073531165,
				"z": -2.1093297168,
				"element": "H" 
			},
			{
				"x": 0.6410579426,
				"y": -3.5099208874,
				"z": -3.401146246,
				"element": "H" 
			},
			{
				"x": 0.6505699471,
				"y": -0.5042220227,
				"z": -2.1806939286,
				"element": "H" 
			},
			{
				"x": 2.6824329676,
				"y": -1.4753336216,
				"z": -1.1484825914,
				"element": "H" 
			},
			{
				"x": 1.9011286657,
				"y": -1.4919167563,
				"z": 0.4359247968,
				"element": "H" 
			},
			{
				"x": 3.4218653479,
				"y": 0.4644916145,
				"z": 0.261615715,
				"element": "H" 
			},
			{
				"x": 2.618787782,
				"y": 1.0030580037,
				"z": -1.2071210785,
				"element": "H" 
			},
			{
				"x": 1.7819003486,
				"y": 2.3224734325,
				"z": 0.717924786,
				"element": "H" 
			},
			{
				"x": 1.3597464747,
				"y": 0.8502747805,
				"z": 1.585132119,
				"element": "H" 
			},
			{
				"x": -0.6796943311,
				"y": 1.8097119627,
				"z": 0.5483558472,
				"element": "H" 
			},
			{
				"x": 0.0935679217,
				"y": 1.8297998631,
				"z": -1.0308554737,
				"element": "H" 
			},
			{
				"x": -1.4109578275,
				"y": -0.1408609843,
				"z": -0.8593951322,
				"element": "H" 
			},
			{
				"x": -0.5966966736,
				"y": -0.6704925999,
				"z": 0.6133095263,
				"element": "H" 
			}
		],
		 "valence_orbital": [ 
			{
				"type": "occ",
				"energy": -0.31497,
				"method": "rhf"
			},
			{
				"type": "occ",
				"energy": -0.31112,
				"method": "rhf"
			},
			{
				"type": "occ",
				"energy": -0.29933,
				"method": "rhf"
			},
			{
				"type": "occ",
				"energy": -0.2955,
				"method": "rhf"
			},
			{
				"type": "occ",
				"energy": -0.28417,
				"method": "rhf"
			},
			{
				"type": "unocc",
				"energy": 0.05228,
				"method": "rhf"
			},
			{
				"type": "unocc",
				"energy": 0.07201,
				"method": "rhf"
			},
			{
				"type": "unocc",
				"energy": 0.0882,
				"method": "rhf"
			},
			{
				"type": "unocc",
				"energy": 0.08881,
				"method": "rhf"
			},
			{
				"type": "unocc",
				"energy": 0.09294,
				"method": "rhf"
			}
		],
		"cosmo_sigma_profile": { 
			"-0.025": 0.0,
			"-0.024": 0.0,
			"-0.023": 0.0,
			"-0.022": 0.0,
			"-0.021": 0.0,
			"-0.02": 0.0,
			"-0.019": 0.0,
			"-0.018": 0.0,
			"-0.017": 0.0,
			"-0.016": 0.0,
			"-0.015": 0.352307977739,
			"-0.014": 2.14724192033,
			"-0.013": 2.67784753112,
			"-0.012": 2.66982567247,
			"-0.011": 2.25536138138,
			"-0.01": 1.13013437948,
			"-0.009": 2.14647421424,
			"-0.008": 1.65838635161,
			"-0.007": 2.37358808369,
			"-0.006": 4.52529203353,
			"-0.005": 4.39529544073,
			"-0.004": 6.27058416481,
			"-0.003": 24.3418978799,
			"-0.002": 28.2811048881,
			"-0.001": 28.5180973338,
			"0.0": 20.0937198882,
			"0.001": 10.3125726546,
			"0.002": 4.394894257,
			"0.003": 3.21472665976,
			"0.004": 3.46352637862,
			"0.005": 2.89877200888,
			"0.006": 2.92296856217,
			"0.007": 2.16293536001,
			"0.008": 4.06511335873,
			"0.009": 3.63896892948,
			"0.01": 4.4889446681,
			"0.011": 10.6226552812,
			"0.012": 7.74920545615,
			"0.013": 0.883806306264,
			"0.014": 0.0,
			"0.015": 0.0,
			"0.016": 0.0,
			"0.017": 0.0,
			"0.018": 0.0,
			"0.019": 0.0,
			"0.02": 0.0,
			"0.021": 0.0,
			"0.022": 0.0,
			"0.023": 0.0,
			"0.024": 0.0,
			"0.025": 0.0
		}
	}
}
