{
	 "smiles": "CCOC1=C(C=CC(Cl)=C1)C(O)=O", 
	 "Tm": 393.15, 
	 "num_atms": 22, 
	 "gaussian": { 
		 "optdone": 1, 
		 "sigma_profile": "yes", 
		 "theory": "DFT", 
		 "functional": "B3LYP", 
		 "basiset": "6-31G**", 
		 "properties": { 
			 "R2extent": 3851.987, 
			 "electric_dipole_moment_norm": 0.661941606186, 
			 "electric_quadrupole_moment_norm": 14.0633715357, 
			 "total_energy": -1034.25607715, 
			 "HOMO_LUMO_gap": 0.18606, 
			 "cosmo_polarized_energy": -11.87, 
			 "cosmo_cavitation_energy": 28.3, 
			 "cosmo_dispersion_energy": -20.73, 
			 "cosmo_repulsion_energy": 1.67, 
			 "cosmo_total_nonelectrostatic_energy": 9.24, 
			 "SMD_solvation_energy": 6.18 
		},
		"coords": [
			{
				"x": 1.4513281591,
				"y": 1.9295457706,
				"z": -1.7156406923,
				"element": "C" 
			},
			{
				"x": 0.6242839203,
				"y": 1.3605250208,
				"z": -0.5769764507,
				"element": "C" 
			},
			{
				"x": 0.7518351292,
				"y": -0.0642172269,
				"z": -0.6351626715,
				"element": "O" 
			},
			{
				"x": 0.1140091548,
				"y": -0.833534917,
				"z": 0.2675563447,
				"element": "C" 
			},
			{
				"x": 0.268263983,
				"y": -2.2436925255,
				"z": 0.172063355,
				"element": "C" 
			},
			{
				"x": -0.3915363692,
				"y": -3.0546249249,
				"z": 1.1072639598,
				"element": "C" 
			},
			{
				"x": -1.1870201526,
				"y": -2.5282432491,
				"z": 2.1189398902,
				"element": "C" 
			},
			{
				"x": -1.3209912992,
				"y": -1.1438084033,
				"z": 2.1895627617,
				"element": "C" 
			},
			{
				"x": -2.3166135899,
				"y": -0.4377740617,
				"z": 3.4520940359,
				"element": "Cl" 
			},
			{
				"x": -0.687925796,
				"y": -0.294548603,
				"z": 1.286870066,
				"element": "C" 
			},
			{
				"x": 1.1040323999,
				"y": -2.869003693,
				"z": -0.8860273905,
				"element": "C" 
			},
			{
				"x": 1.1116099842,
				"y": -4.2313903246,
				"z": -0.7885980235,
				"element": "O" 
			},
			{
				"x": 1.728747568,
				"y": -2.3025797316,
				"z": -1.7583277803,
				"element": "O" 
			},
			{
				"x": 1.3862522723,
				"y": 3.0219270397,
				"z": -1.7143695497,
				"element": "H" 
			},
			{
				"x": 1.0881711212,
				"y": 1.5573110459,
				"z": -2.6769603567,
				"element": "H" 
			},
			{
				"x": 2.5000091185,
				"y": 1.6402120358,
				"z": -1.6101002587,
				"element": "H" 
			},
			{
				"x": -0.4326980346,
				"y": 1.6428954919,
				"z": -0.6767412804,
				"element": "H" 
			},
			{
				"x": 0.9847167916,
				"y": 1.7260163468,
				"z": 0.3943251079,
				"element": "H" 
			},
			{
				"x": -0.2705558006,
				"y": -4.1280086599,
				"z": 1.0297973548,
				"element": "H" 
			},
			{
				"x": -1.6889591862,
				"y": -3.1705492298,
				"z": 2.8321881594,
				"element": "H" 
			},
			{
				"x": -0.8225660815,
				"y": 0.7735049581,
				"z": 1.3830618901,
				"element": "H" 
			},
			{
				"x": 1.6789067077,
				"y": -4.5299621595,
				"z": -1.517518471,
				"element": "H" 
			}
		],
		 "valence_orbital": [ 
			{
				"type": "occ",
				"energy": -0.3177,
				"method": "rhf"
			},
			{
				"type": "occ",
				"energy": -0.31179,
				"method": "rhf"
			},
			{
				"type": "occ",
				"energy": -0.26474,
				"method": "rhf"
			},
			{
				"type": "occ",
				"energy": -0.2609,
				"method": "rhf"
			},
			{
				"type": "occ",
				"energy": -0.23673,
				"method": "rhf"
			},
			{
				"type": "unocc",
				"energy": -0.05067,
				"method": "rhf"
			},
			{
				"type": "unocc",
				"energy": -0.00717,
				"method": "rhf"
			},
			{
				"type": "unocc",
				"energy": 0.0231,
				"method": "rhf"
			},
			{
				"type": "unocc",
				"energy": 0.05225,
				"method": "rhf"
			},
			{
				"type": "unocc",
				"energy": 0.08508,
				"method": "rhf"
			}
		],
		"cosmo_sigma_profile": { 
			"-0.025": 0.0,
			"-0.024": 0.0,
			"-0.023": 0.0,
			"-0.022": 0.0,
			"-0.021": 0.0,
			"-0.02": 0.0,
			"-0.019": 0.0,
			"-0.018": 0.373249506753,
			"-0.017": 0.941163922934,
			"-0.016": 0.710018625122,
			"-0.015": 1.26752012378,
			"-0.014": 0.558488184062,
			"-0.013": 0.267017632827,
			"-0.012": 0.604428057742,
			"-0.011": 0.593584079619,
			"-0.01": 1.27045755144,
			"-0.009": 0.595321907723,
			"-0.008": 2.40686867327,
			"-0.007": 5.43048268706,
			"-0.006": 10.2746749839,
			"-0.005": 12.4335524666,
			"-0.004": 15.5173140379,
			"-0.003": 15.3414782194,
			"-0.002": 16.5702186313,
			"-0.001": 19.1521910349,
			"0.0": 20.7364031443,
			"0.001": 23.322047989,
			"0.002": 20.9566059873,
			"0.003": 14.1600448434,
			"0.004": 14.4713697035,
			"0.005": 4.80017785048,
			"0.006": 3.02578824059,
			"0.007": 3.51696939195,
			"0.008": 2.07987268355,
			"0.009": 1.7524283411,
			"0.01": 1.68682970968,
			"0.011": 2.83847949823,
			"0.012": 5.16589881535,
			"0.013": 2.68074737991,
			"0.014": 1.80084914913,
			"0.015": 0.241639805256,
			"0.016": 0.0,
			"0.017": 0.0,
			"0.018": 0.0,
			"0.019": 0.0,
			"0.02": 0.0,
			"0.021": 0.0,
			"0.022": 0.0,
			"0.023": 0.0,
			"0.024": 0.0,
			"0.025": 0.0
		}
	}
}
