{
	 "smiles": "NC1=C(C=C2C(=O)OC3=CC=CC=C3C2=N1)C#N", 
	 "Tm": 562.15, 
	 "num_atms": 25, 
	 "gaussian": { 
		 "optdone": 1, 
		 "sigma_profile": "yes", 
		 "theory": "DFT", 
		 "functional": "B3LYP", 
		 "basiset": "6-31G**", 
		 "properties": { 
			 "R2extent": 5222.8644, 
			 "electric_dipole_moment_norm": 5.99363651217, 
			 "electric_quadrupole_moment_norm": 13.260807084, 
			 "total_energy": -814.327201196, 
			 "HOMO_LUMO_gap": 0.15706, 
			 "cosmo_polarized_energy": -16.68, 
			 "cosmo_cavitation_energy": 31.25, 
			 "cosmo_dispersion_energy": -22.82, 
			 "cosmo_repulsion_energy": 1.72, 
			 "cosmo_total_nonelectrostatic_energy": 10.14, 
			 "SMD_solvation_energy": 6.34 
		},
		"coords": [
			{
				"x": 1.2714258932,
				"y": 3.7340732675,
				"z": -0.0214039901,
				"element": "N" 
			},
			{
				"x": 0.2194201238,
				"y": 2.8878774273,
				"z": -0.0887595492,
				"element": "C" 
			},
			{
				"x": -1.0534815161,
				"y": 3.3394510623,
				"z": -0.5834389469,
				"element": "C" 
			},
			{
				"x": -2.0976771502,
				"y": 2.4268297673,
				"z": -0.6299951991,
				"element": "C" 
			},
			{
				"x": -1.8832855464,
				"y": 1.1132021166,
				"z": -0.2001400129,
				"element": "C" 
			},
			{
				"x": -2.9887934068,
				"y": 0.1495599663,
				"z": -0.250294279,
				"element": "C" 
			},
			{
				"x": -4.1082476463,
				"y": 0.3861852329,
				"z": -0.6404971506,
				"element": "O" 
			},
			{
				"x": -2.7073166064,
				"y": -1.1316841304,
				"z": 0.1897810537,
				"element": "O" 
			},
			{
				"x": -1.4695872875,
				"y": -1.5024689283,
				"z": 0.6518524485,
				"element": "C" 
			},
			{
				"x": -1.3344512262,
				"y": -2.8303837959,
				"z": 1.0627810782,
				"element": "C" 
			},
			{
				"x": -0.1055931543,
				"y": -3.2705248512,
				"z": 1.5417178877,
				"element": "C" 
			},
			{
				"x": 0.9884194544,
				"y": -2.3948121589,
				"z": 1.6131972409,
				"element": "C" 
			},
			{
				"x": 0.8465314795,
				"y": -1.0771355831,
				"z": 1.2031693139,
				"element": "C" 
			},
			{
				"x": -0.3865328029,
				"y": -0.6091183872,
				"z": 0.7152005835,
				"element": "C" 
			},
			{
				"x": -0.5989690408,
				"y": 0.7619500065,
				"z": 0.269783569,
				"element": "C" 
			},
			{
				"x": 0.4208391217,
				"y": 1.6308213719,
				"z": 0.3215128075,
				"element": "N" 
			},
			{
				"x": -1.1961943677,
				"y": 4.6938593796,
				"z": -1.0040459029,
				"element": "C" 
			},
			{
				"x": -1.2359205192,
				"y": 5.8120896377,
				"z": -1.3286928272,
				"element": "N" 
			},
			{
				"x": 1.1950891344,
				"y": 4.6953207866,
				"z": -0.3130462311,
				"element": "H" 
			},
			{
				"x": 2.1465083211,
				"y": 3.3806860487,
				"z": 0.3303132851,
				"element": "H" 
			},
			{
				"x": -3.0783694651,
				"y": 2.7132601235,
				"z": -0.9939413549,
				"element": "H" 
			},
			{
				"x": -2.1943804237,
				"y": -3.4878160065,
				"z": 0.9979386981,
				"element": "H" 
			},
			{
				"x": 0.0031415594,
				"y": -4.3023336501,
				"z": 1.8621141194,
				"element": "H" 
			},
			{
				"x": 1.9435811534,
				"y": -2.7478569047,
				"z": 1.9885552457,
				"element": "H" 
			},
			{
				"x": 1.6738439187,
				"y": -0.3778317981,
				"z": 1.2468381128,
				"element": "H" 
			}
		],
		 "valence_orbital": [ 
			{
				"type": "occ",
				"energy": -0.30056,
				"method": "rhf"
			},
			{
				"type": "occ",
				"energy": -0.28025,
				"method": "rhf"
			},
			{
				"type": "occ",
				"energy": -0.27081,
				"method": "rhf"
			},
			{
				"type": "occ",
				"energy": -0.25425,
				"method": "rhf"
			},
			{
				"type": "occ",
				"energy": -0.23946,
				"method": "rhf"
			},
			{
				"type": "unocc",
				"energy": -0.0824,
				"method": "rhf"
			},
			{
				"type": "unocc",
				"energy": -0.05843,
				"method": "rhf"
			},
			{
				"type": "unocc",
				"energy": -0.01823,
				"method": "rhf"
			},
			{
				"type": "unocc",
				"energy": -0.00397,
				"method": "rhf"
			},
			{
				"type": "unocc",
				"energy": 0.0154,
				"method": "rhf"
			}
		],
		"cosmo_sigma_profile": { 
			"-0.025": 0.0,
			"-0.024": 0.0,
			"-0.023": 0.0,
			"-0.022": 0.0,
			"-0.021": 0.0,
			"-0.02": 0.0,
			"-0.019": 0.0,
			"-0.018": 0.0,
			"-0.017": 0.0,
			"-0.016": 0.0145887361526,
			"-0.015": 1.17281498477,
			"-0.014": 1.77952044863,
			"-0.013": 2.07627920851,
			"-0.012": 2.48197428398,
			"-0.011": 1.91966192207,
			"-0.01": 1.77612677409,
			"-0.009": 3.05816181158,
			"-0.008": 4.50616973251,
			"-0.007": 7.29671081653,
			"-0.006": 13.2200487173,
			"-0.005": 13.9361552083,
			"-0.004": 13.9789261065,
			"-0.003": 17.7665251246,
			"-0.002": 22.8577007162,
			"-0.001": 19.0156338834,
			"0.0": 15.4907958858,
			"0.001": 17.8678582589,
			"0.002": 17.9089277911,
			"0.003": 16.957975763,
			"0.004": 8.6582040958,
			"0.005": 5.37055851229,
			"0.006": 6.07415743387,
			"0.007": 6.049759639,
			"0.008": 6.43328051533,
			"0.009": 5.65917248866,
			"0.01": 5.9868112451,
			"0.011": 7.2745540436,
			"0.012": 5.97548490658,
			"0.013": 1.20362581572,
			"0.014": 0.0,
			"0.015": 0.0,
			"0.016": 0.0,
			"0.017": 0.0,
			"0.018": 0.0,
			"0.019": 0.0,
			"0.02": 0.0,
			"0.021": 0.0,
			"0.022": 0.0,
			"0.023": 0.0,
			"0.024": 0.0,
			"0.025": 0.0
		}
	}
}
