{
	 "smiles": "N1C(=NC(=C1C1=CC=CC=C1)C1=CC=CC=C1)C1=CC=CC=C1", 
	 "Tm": 549.15, 
	 "num_atms": 39, 
	 "gaussian": { 
		 "optdone": 1, 
		 "sigma_profile": "yes", 
		 "theory": "DFT", 
		 "functional": "B3LYP", 
		 "basiset": "6-31G**", 
		 "properties": { 
			 "R2extent": 9285.757, 
			 "electric_dipole_moment_norm": 3.15826930612, 
			 "electric_quadrupole_moment_norm": 17.8793641159, 
			 "total_energy": -919.40675023, 
			 "HOMO_LUMO_gap": 0.15194, 
			 "cosmo_polarized_energy": -14.86, 
			 "cosmo_cavitation_energy": 43.12, 
			 "cosmo_dispersion_energy": -30.6, 
			 "cosmo_repulsion_energy": 2.3, 
			 "cosmo_total_nonelectrostatic_energy": 14.82, 
			 "SMD_solvation_energy": 5.43 
		},
		"coords": [
			{
				"x": 0.8897687404,
				"y": 1.6585894661,
				"z": 0.8495968206,
				"element": "N" 
			},
			{
				"x": -0.4351771066,
				"y": 1.4374938309,
				"z": 1.1215952579,
				"element": "C" 
			},
			{
				"x": -0.7219114648,
				"y": 0.1541749527,
				"z": 0.9812197351,
				"element": "N" 
			},
			{
				"x": 0.4398242205,
				"y": -0.4775852588,
				"z": 0.5990732752,
				"element": "C" 
			},
			{
				"x": 1.4722673164,
				"y": 0.4555754029,
				"z": 0.4879689184,
				"element": "C" 
			},
			{
				"x": 2.8764494323,
				"y": 0.4088486847,
				"z": 0.0622679934,
				"element": "C" 
			},
			{
				"x": 3.2825159404,
				"y": -0.3874744379,
				"z": -1.0243822174,
				"element": "C" 
			},
			{
				"x": 4.6106013465,
				"y": -0.391314988,
				"z": -1.443708551,
				"element": "C" 
			},
			{
				"x": 5.5596252892,
				"y": 0.4072548931,
				"z": -0.7995708105,
				"element": "C" 
			},
			{
				"x": 5.169110579,
				"y": 1.206791182,
				"z": 0.2755773945,
				"element": "C" 
			},
			{
				"x": 3.8426199471,
				"y": 1.2049804846,
				"z": 0.7055987336,
				"element": "C" 
			},
			{
				"x": 0.4498672244,
				"y": -1.9397023265,
				"z": 0.4116124791,
				"element": "C" 
			},
			{
				"x": 1.5934725388,
				"y": -2.7216639523,
				"z": 0.6471538294,
				"element": "C" 
			},
			{
				"x": 1.5570189557,
				"y": -4.104818358,
				"z": 0.4749983653,
				"element": "C" 
			},
			{
				"x": 0.3770957424,
				"y": -4.7355825894,
				"z": 0.0753815845,
				"element": "C" 
			},
			{
				"x": -0.7703830906,
				"y": -3.9698084281,
				"z": -0.1438903262,
				"element": "C" 
			},
			{
				"x": -0.7362888472,
				"y": -2.5872804125,
				"z": 0.0246745844,
				"element": "C" 
			},
			{
				"x": -1.3829848717,
				"y": 2.4823962172,
				"z": 1.5143315845,
				"element": "C" 
			},
			{
				"x": -0.978385718,
				"y": 3.7986155912,
				"z": 1.7925872723,
				"element": "C" 
			},
			{
				"x": -1.9135695722,
				"y": 4.76655405,
				"z": 2.155263219,
				"element": "C" 
			},
			{
				"x": -3.2662793136,
				"y": 4.4358206523,
				"z": 2.251220588,
				"element": "C" 
			},
			{
				"x": -3.6764027662,
				"y": 3.1263993877,
				"z": 1.9835676967,
				"element": "C" 
			},
			{
				"x": -2.7469065489,
				"y": 2.1576896325,
				"z": 1.618045026,
				"element": "C" 
			},
			{
				"x": 1.3445877501,
				"y": 2.5546909496,
				"z": 0.7655408628,
				"element": "H" 
			},
			{
				"x": 2.547295582,
				"y": -0.9952121244,
				"z": -1.5408447549,
				"element": "H" 
			},
			{
				"x": 4.9036479458,
				"y": -1.0115330398,
				"z": -2.286003669,
				"element": "H" 
			},
			{
				"x": 6.5932740161,
				"y": 0.4050463109,
				"z": -1.1325904962,
				"element": "H" 
			},
			{
				"x": 5.8995925494,
				"y": 1.8254616754,
				"z": 0.7891756463,
				"element": "H" 
			},
			{
				"x": 3.5564574585,
				"y": 1.8050454178,
				"z": 1.5655863311,
				"element": "H" 
			},
			{
				"x": 2.5100323815,
				"y": -2.247307399,
				"z": 0.9813232482,
				"element": "H" 
			},
			{
				"x": 2.4509814107,
				"y": -4.692212745,
				"z": 0.6659612931,
				"element": "H" 
			},
			{
				"x": 0.3501624497,
				"y": -5.8135614854,
				"z": -0.0563012665,
				"element": "H" 
			},
			{
				"x": -1.6959827161,
				"y": -4.4513329157,
				"z": -0.4474503971,
				"element": "H" 
			},
			{
				"x": -1.6265386087,
				"y": -1.9882625703,
				"z": -0.1340129532,
				"element": "H" 
			},
			{
				"x": 0.0716300629,
				"y": 4.0761200144,
				"z": 1.7447720476,
				"element": "H" 
			},
			{
				"x": -1.5829655016,
				"y": 5.7790924689,
				"z": 2.3681469331,
				"element": "H" 
			},
			{
				"x": -3.9938788107,
				"y": 5.1904717852,
				"z": 2.5349137422,
				"element": "H" 
			},
			{
				"x": -4.7268450391,
				"y": 2.8600967049,
				"z": 2.0589692254,
				"element": "H" 
			},
			{
				"x": -3.0512989038,
				"y": 1.1383432762,
				"z": 1.4077317544,
				"element": "H" 
			}
		],
		 "valence_orbital": [ 
			{
				"type": "occ",
				"energy": -0.25552,
				"method": "rhf"
			},
			{
				"type": "occ",
				"energy": -0.2538,
				"method": "rhf"
			},
			{
				"type": "occ",
				"energy": -0.23994,
				"method": "rhf"
			},
			{
				"type": "occ",
				"energy": -0.23617,
				"method": "rhf"
			},
			{
				"type": "occ",
				"energy": -0.19104,
				"method": "rhf"
			},
			{
				"type": "unocc",
				"energy": -0.0391,
				"method": "rhf"
			},
			{
				"type": "unocc",
				"energy": -0.02232,
				"method": "rhf"
			},
			{
				"type": "unocc",
				"energy": -0.01009,
				"method": "rhf"
			},
			{
				"type": "unocc",
				"energy": -0.00311,
				"method": "rhf"
			},
			{
				"type": "unocc",
				"energy": 0.01037,
				"method": "rhf"
			}
		],
		"cosmo_sigma_profile": { 
			"-0.025": 0.0,
			"-0.024": 0.0,
			"-0.023": 0.0,
			"-0.022": 0.0,
			"-0.021": 0.0,
			"-0.02": 0.0,
			"-0.019": 0.0,
			"-0.018": 0.0,
			"-0.017": 0.0,
			"-0.016": 0.619815988278,
			"-0.015": 0.967721694236,
			"-0.014": 1.73050838465,
			"-0.013": 0.708614184078,
			"-0.012": 1.12078449293,
			"-0.011": 2.06429633985,
			"-0.01": 1.3346357255,
			"-0.009": 1.7790992962,
			"-0.008": 2.12702899857,
			"-0.007": 2.31134785876,
			"-0.006": 14.2295181872,
			"-0.005": 25.7011662462,
			"-0.004": 29.7345727227,
			"-0.003": 30.0578792218,
			"-0.002": 21.2288152191,
			"-0.001": 20.7781166649,
			"0.0": 21.2726156154,
			"0.001": 23.4487436475,
			"0.002": 28.4501068878,
			"0.003": 30.3116958048,
			"0.004": 29.9126437819,
			"0.005": 30.138821064,
			"0.006": 15.0410042506,
			"0.007": 3.00832913589,
			"0.008": 2.4306739295,
			"0.009": 1.98326445672,
			"0.01": 0.859265689918,
			"0.011": 1.51345632254,
			"0.012": 0.745792909914,
			"0.013": 0.517065264052,
			"0.014": 0.566855236916,
			"0.015": 0.181536189551,
			"0.016": 0.0,
			"0.017": 0.0,
			"0.018": 0.0,
			"0.019": 0.0,
			"0.02": 0.0,
			"0.021": 0.0,
			"0.022": 0.0,
			"0.023": 0.0,
			"0.024": 0.0,
			"0.025": 0.0
		}
	}
}
