{
	 "smiles": "NC(=O)C1=CC=C(C=C1)S(N)(=O)=O", 
	 "Tm": 517.15, 
	 "num_atms": 21, 
	 "gaussian": { 
		 "optdone": 1, 
		 "sigma_profile": "yes", 
		 "theory": "DFT", 
		 "functional": "B3LYP", 
		 "basiset": "6-31G**", 
		 "properties": { 
			 "R2extent": 3628.9539, 
			 "electric_dipole_moment_norm": 2.99406936793, 
			 "electric_quadrupole_moment_norm": 30.4189065517, 
			 "total_energy": -1004.87689305, 
			 "HOMO_LUMO_gap": 0.19731, 
			 "cosmo_polarized_energy": -22.92, 
			 "cosmo_cavitation_energy": 27.25, 
			 "cosmo_dispersion_energy": -20.67, 
			 "cosmo_repulsion_energy": 1.6, 
			 "cosmo_total_nonelectrostatic_energy": 8.18, 
			 "SMD_solvation_energy": 5.12 
		},
		"coords": [
			{
				"x": -2.2699948234,
				"y": 2.9806310313,
				"z": 1.5022573143,
				"element": "N" 
			},
			{
				"x": -1.001861712,
				"y": 2.5826414575,
				"z": 1.8469649123,
				"element": "C" 
			},
			{
				"x": -0.2696212378,
				"y": 3.2729395058,
				"z": 2.5435733109,
				"element": "O" 
			},
			{
				"x": -0.54693045,
				"y": 1.2564991789,
				"z": 1.2966823282,
				"element": "C" 
			},
			{
				"x": 0.5419775869,
				"y": 0.6416820342,
				"z": 1.9289256522,
				"element": "C" 
			},
			{
				"x": 1.018181238,
				"y": -0.5862963778,
				"z": 1.4805712581,
				"element": "C" 
			},
			{
				"x": 0.4077010938,
				"y": -1.1871016258,
				"z": 0.3774043705,
				"element": "C" 
			},
			{
				"x": -0.6706758969,
				"y": -0.5888049624,
				"z": -0.2739947765,
				"element": "C" 
			},
			{
				"x": -1.1448646921,
				"y": 0.6368638186,
				"z": 0.1906518549,
				"element": "C" 
			},
			{
				"x": 1.0168384537,
				"y": -2.7690337455,
				"z": -0.2129656188,
				"element": "S" 
			},
			{
				"x": 2.2405535888,
				"y": -2.3341494234,
				"z": -1.3005447435,
				"element": "N" 
			},
			{
				"x": 1.6623185757,
				"y": -3.4445100579,
				"z": 0.915918003,
				"element": "O" 
			},
			{
				"x": -0.0550180181,
				"y": -3.3914668186,
				"z": -0.9956106638,
				"element": "O" 
			},
			{
				"x": -2.6031157939,
				"y": 3.8138404839,
				"z": 1.9659821273,
				"element": "H" 
			},
			{
				"x": -2.9639692761,
				"y": 2.3037256045,
				"z": 1.2260750478,
				"element": "H" 
			},
			{
				"x": 0.9973186528,
				"y": 1.1453950464,
				"z": 2.7744789376,
				"element": "H" 
			},
			{
				"x": 1.8407591772,
				"y": -1.0840497409,
				"z": 1.9820934191,
				"element": "H" 
			},
			{
				"x": -1.132174176,
				"y": -1.0830849655,
				"z": -1.1215145677,
				"element": "H" 
			},
			{
				"x": -1.9643544493,
				"y": 1.1183803196,
				"z": -0.3339713443,
				"element": "H" 
			},
			{
				"x": 3.1289004052,
				"y": -2.7080811729,
				"z": -0.9772873048,
				"element": "H" 
			},
			{
				"x": 2.0063317534,
				"y": -2.6782195898,
				"z": -2.2279895169,
				"element": "H" 
			}
		],
		 "valence_orbital": [ 
			{
				"type": "occ",
				"energy": -0.30686,
				"method": "rhf"
			},
			{
				"type": "occ",
				"energy": -0.28445,
				"method": "rhf"
			},
			{
				"type": "occ",
				"energy": -0.27768,
				"method": "rhf"
			},
			{
				"type": "occ",
				"energy": -0.27356,
				"method": "rhf"
			},
			{
				"type": "occ",
				"energy": -0.26084,
				"method": "rhf"
			},
			{
				"type": "unocc",
				"energy": -0.06353,
				"method": "rhf"
			},
			{
				"type": "unocc",
				"energy": -0.02839,
				"method": "rhf"
			},
			{
				"type": "unocc",
				"energy": 0.03068,
				"method": "rhf"
			},
			{
				"type": "unocc",
				"energy": 0.04738,
				"method": "rhf"
			},
			{
				"type": "unocc",
				"energy": 0.07018,
				"method": "rhf"
			}
		],
		"cosmo_sigma_profile": { 
			"-0.025": 0.0,
			"-0.024": 0.0,
			"-0.023": 0.0,
			"-0.022": 0.0,
			"-0.021": 0.0,
			"-0.02": 0.0,
			"-0.019": 0.0,
			"-0.018": 0.0,
			"-0.017": 0.0,
			"-0.016": 0.0,
			"-0.015": 1.67224818276,
			"-0.014": 4.76241959103,
			"-0.013": 4.8516692293,
			"-0.012": 5.70322449129,
			"-0.011": 4.56216022973,
			"-0.01": 3.66727225591,
			"-0.009": 5.17040332076,
			"-0.008": 5.46638236005,
			"-0.007": 8.47440107295,
			"-0.006": 9.01956808926,
			"-0.005": 9.11130944356,
			"-0.004": 9.39735456177,
			"-0.003": 8.11014613012,
			"-0.002": 10.4556320294,
			"-0.001": 10.9674043303,
			"0.0": 10.6670845582,
			"0.001": 17.1200291657,
			"0.002": 15.6141495278,
			"0.003": 6.80120472936,
			"0.004": 7.4525090138,
			"0.005": 3.85722669763,
			"0.006": 4.97928772582,
			"0.007": 6.10248103997,
			"0.008": 5.13059275544,
			"0.009": 5.03637117807,
			"0.01": 10.6203854582,
			"0.011": 10.7072790987,
			"0.012": 4.64738833702,
			"0.013": 5.12485968601,
			"0.014": 1.97161311929,
			"0.015": 0.0165910528194,
			"0.016": 0.0,
			"0.017": 0.0,
			"0.018": 0.0,
			"0.019": 0.0,
			"0.02": 0.0,
			"0.021": 0.0,
			"0.022": 0.0,
			"0.023": 0.0,
			"0.024": 0.0,
			"0.025": 0.0
		}
	}
}
