{
	 "smiles": "CCCO", 
	 "Tm": 147.15, 
	 "num_atms": 12, 
	 "gaussian": { 
		 "optdone": 1, 
		 "sigma_profile": "yes", 
		 "theory": "DFT", 
		 "functional": "B3LYP", 
		 "basiset": "6-31G**", 
		 "properties": { 
			 "R2extent": 693.6318, 
			 "electric_dipole_moment_norm": 1.63828840257, 
			 "electric_quadrupole_moment_norm": 4.600746985, 
			 "total_energy": -194.359661762, 
			 "HOMO_LUMO_gap": 0.33252, 
			 "cosmo_polarized_energy": -5.49, 
			 "cosmo_cavitation_energy": 14.24, 
			 "cosmo_dispersion_energy": -10.82, 
			 "cosmo_repulsion_energy": 1.0, 
			 "cosmo_total_nonelectrostatic_energy": 4.42, 
			 "SMD_solvation_energy": 2.63 
		},
		"coords": [
			{
				"x": 2.5965597961,
				"y": 0.9486509635,
				"z": -0.6656201833,
				"element": "C" 
			},
			{
				"x": 1.09731373,
				"y": 0.8319702074,
				"z": -0.3710537273,
				"element": "C" 
			},
			{
				"x": 0.268414072,
				"y": 0.4036744265,
				"z": -1.5854171828,
				"element": "C" 
			},
			{
				"x": 0.5937025626,
				"y": -0.8975280739,
				"z": -2.0606923191,
				"element": "O" 
			},
			{
				"x": 3.0172368843,
				"y": -0.015175176,
				"z": -0.9747912191,
				"element": "H" 
			},
			{
				"x": 2.7919141997,
				"y": 1.6750608445,
				"z": -1.4638454774,
				"element": "H" 
			},
			{
				"x": 3.1532714344,
				"y": 1.2714163403,
				"z": 0.2193413875,
				"element": "H" 
			},
			{
				"x": 0.9334014874,
				"y": 0.1073527371,
				"z": 0.4357316838,
				"element": "H" 
			},
			{
				"x": 0.7136812064,
				"y": 1.7974155364,
				"z": -0.015116562,
				"element": "H" 
			},
			{
				"x": -0.7917478329,
				"y": 0.3605509636,
				"z": -1.3148331845,
				"element": "H" 
			},
			{
				"x": 0.3677590939,
				"y": 1.1546754115,
				"z": -2.3875298012,
				"element": "H" 
			},
			{
				"x": 1.4807933661,
				"y": -0.8611641809,
				"z": -2.4389734146,
				"element": "H" 
			}
		],
		 "valence_orbital": [ 
			{
				"type": "occ",
				"energy": -0.37117,
				"method": "rhf"
			},
			{
				"type": "occ",
				"energy": -0.35229,
				"method": "rhf"
			},
			{
				"type": "occ",
				"energy": -0.34474,
				"method": "rhf"
			},
			{
				"type": "occ",
				"energy": -0.31589,
				"method": "rhf"
			},
			{
				"type": "occ",
				"energy": -0.26176,
				"method": "rhf"
			},
			{
				"type": "unocc",
				"energy": 0.07076,
				"method": "rhf"
			},
			{
				"type": "unocc",
				"energy": 0.11593,
				"method": "rhf"
			},
			{
				"type": "unocc",
				"energy": 0.14076,
				"method": "rhf"
			},
			{
				"type": "unocc",
				"energy": 0.14276,
				"method": "rhf"
			},
			{
				"type": "unocc",
				"energy": 0.15931,
				"method": "rhf"
			}
		],
		"cosmo_sigma_profile": { 
			"-0.025": 0.0,
			"-0.024": 0.0,
			"-0.023": 0.0,
			"-0.022": 0.0,
			"-0.021": 0.0,
			"-0.02": 0.0,
			"-0.019": 0.0,
			"-0.018": 0.0,
			"-0.017": 0.0,
			"-0.016": 0.0,
			"-0.015": 0.0214724835764,
			"-0.014": 0.672539157102,
			"-0.013": 1.11631605867,
			"-0.012": 0.852073863582,
			"-0.011": 0.712490954174,
			"-0.01": 0.915258890911,
			"-0.009": 1.07163558465,
			"-0.008": 1.23502514402,
			"-0.007": 0.98173643001,
			"-0.006": 1.41872226868,
			"-0.005": 0.991109421624,
			"-0.004": 2.9967054682,
			"-0.003": 13.1205347688,
			"-0.002": 17.8707457518,
			"-0.001": 16.1075230874,
			"0.0": 14.4174785001,
			"0.001": 12.3370640633,
			"0.002": 4.77601014736,
			"0.003": 1.70928918712,
			"0.004": 1.24624296398,
			"0.005": 1.07716731901,
			"0.006": 1.24316396935,
			"0.007": 0.843421097619,
			"0.008": 1.17094257821,
			"0.009": 1.2922536203,
			"0.01": 1.17207666489,
			"0.011": 1.61191273907,
			"0.012": 1.290028436,
			"0.013": 1.47010022572,
			"0.014": 2.07896487242,
			"0.015": 1.88000389495,
			"0.016": 0.00285056757461,
			"0.017": 0.0,
			"0.018": 0.0,
			"0.019": 0.0,
			"0.02": 0.0,
			"0.021": 0.0,
			"0.022": 0.0,
			"0.023": 0.0,
			"0.024": 0.0,
			"0.025": 0.0
		}
	}
}
