{
	 "smiles": "CC1=CNC2=CC=CC=C12", 
	 "Tm": 368.15, 
	 "num_atms": 19, 
	 "gaussian": { 
		 "optdone": 1, 
		 "sigma_profile": "yes", 
		 "theory": "DFT", 
		 "functional": "B3LYP", 
		 "basiset": "6-31G**", 
		 "properties": { 
			 "R2extent": 1902.5518, 
			 "electric_dipole_moment_norm": 2.04055618399, 
			 "electric_quadrupole_moment_norm": 5.45846225965, 
			 "total_energy": -403.14290395, 
			 "HOMO_LUMO_gap": 0.19189, 
			 "cosmo_polarized_energy": -7.79, 
			 "cosmo_cavitation_energy": 22.19, 
			 "cosmo_dispersion_energy": -16.68, 
			 "cosmo_repulsion_energy": 1.34, 
			 "cosmo_total_nonelectrostatic_energy": 6.85, 
			 "SMD_solvation_energy": 3.74 
		},
		"coords": [
			{
				"x": 2.1482907233,
				"y": 1.5060591224,
				"z": -2.1952870422,
				"element": "C" 
			},
			{
				"x": 1.1096785588,
				"y": 0.938017098,
				"z": -1.2761789159,
				"element": "C" 
			},
			{
				"x": 1.2257440527,
				"y": -0.1774452714,
				"z": -0.486754005,
				"element": "C" 
			},
			{
				"x": 0.0540052296,
				"y": -0.3855638682,
				"z": 0.2227379682,
				"element": "N" 
			},
			{
				"x": -0.8505279197,
				"y": 0.6046652167,
				"z": -0.1003321754,
				"element": "C" 
			},
			{
				"x": -2.1570535738,
				"y": 0.8258534659,
				"z": 0.3479972449,
				"element": "C" 
			},
			{
				"x": -2.8347787191,
				"y": 1.9263902782,
				"z": -0.1654133408,
				"element": "C" 
			},
			{
				"x": -2.2270983279,
				"y": 2.7867548661,
				"z": -1.1028713223,
				"element": "C" 
			},
			{
				"x": -0.9289094946,
				"y": 2.5627648673,
				"z": -1.545118237,
				"element": "C" 
			},
			{
				"x": -0.2163247213,
				"y": 1.4587292488,
				"z": -1.0454483409,
				"element": "C" 
			},
			{
				"x": 1.7969758047,
				"y": 1.5371669725,
				"z": -3.234111929,
				"element": "H" 
			},
			{
				"x": 2.4168074018,
				"y": 2.5330229057,
				"z": -1.9181659975,
				"element": "H" 
			},
			{
				"x": 3.0645878384,
				"y": 0.9083704463,
				"z": -2.1745722416,
				"element": "H" 
			},
			{
				"x": 2.0633531577,
				"y": -0.8516127621,
				"z": -0.3712024986,
				"element": "H" 
			},
			{
				"x": -0.1094508089,
				"y": -1.1387641133,
				"z": 0.8696977,
				"element": "H" 
			},
			{
				"x": -2.6266772626,
				"y": 0.1637266494,
				"z": 1.0703730107,
				"element": "H" 
			},
			{
				"x": -3.8509163485,
				"y": 2.1263503075,
				"z": 0.1621453199,
				"element": "H" 
			},
			{
				"x": -2.7858992028,
				"y": 3.6371160866,
				"z": -1.4830337509,
				"element": "H" 
			},
			{
				"x": -0.4705063878,
				"y": 3.2323984837,
				"z": -2.2678614466,
				"element": "H" 
			}
		],
		 "valence_orbital": [ 
			{
				"type": "occ",
				"energy": -0.32406,
				"method": "rhf"
			},
			{
				"type": "occ",
				"energy": -0.32403,
				"method": "rhf"
			},
			{
				"type": "occ",
				"energy": -0.26237,
				"method": "rhf"
			},
			{
				"type": "occ",
				"energy": -0.21333,
				"method": "rhf"
			},
			{
				"type": "occ",
				"energy": -0.19335,
				"method": "rhf"
			},
			{
				"type": "unocc",
				"energy": -0.00146,
				"method": "rhf"
			},
			{
				"type": "unocc",
				"energy": 0.03453,
				"method": "rhf"
			},
			{
				"type": "unocc",
				"energy": 0.07738,
				"method": "rhf"
			},
			{
				"type": "unocc",
				"energy": 0.08461,
				"method": "rhf"
			},
			{
				"type": "unocc",
				"energy": 0.10456,
				"method": "rhf"
			}
		],
		"cosmo_sigma_profile": { 
			"-0.025": 0.0,
			"-0.024": 0.0,
			"-0.023": 0.0,
			"-0.022": 0.0,
			"-0.021": 0.0,
			"-0.02": 0.0,
			"-0.019": 0.0,
			"-0.018": 0.0,
			"-0.017": 0.0,
			"-0.016": 0.0690608662354,
			"-0.015": 1.24768272132,
			"-0.014": 1.64998736041,
			"-0.013": 1.16863401606,
			"-0.012": 0.958776677892,
			"-0.011": 1.16691566168,
			"-0.01": 1.02508493861,
			"-0.009": 1.71546469116,
			"-0.008": 1.52141855119,
			"-0.007": 3.53816100594,
			"-0.006": 3.9511914811,
			"-0.005": 7.60010876286,
			"-0.004": 11.4790101545,
			"-0.003": 15.4162977966,
			"-0.002": 15.9243254846,
			"-0.001": 14.693105445,
			"0.0": 13.1795549813,
			"0.001": 12.5421000976,
			"0.002": 8.65224235473,
			"0.003": 8.75672482194,
			"0.004": 9.22038491067,
			"0.005": 12.9996895505,
			"0.006": 14.3593875304,
			"0.007": 10.6071521118,
			"0.008": 3.28306662378,
			"0.009": 0.0,
			"0.01": 0.0,
			"0.011": 0.0,
			"0.012": 0.0,
			"0.013": 0.0,
			"0.014": 0.0,
			"0.015": 0.0,
			"0.016": 0.0,
			"0.017": 0.0,
			"0.018": 0.0,
			"0.019": 0.0,
			"0.02": 0.0,
			"0.021": 0.0,
			"0.022": 0.0,
			"0.023": 0.0,
			"0.024": 0.0,
			"0.025": 0.0
		}
	}
}
