{
	 "smiles": "CC1(CCS(=O)(=O)C1)NC(=O)CCl", 
	 "Tm": 370.15, 
	 "num_atms": 25, 
	 "gaussian": { 
		 "optdone": 1, 
		 "sigma_profile": "yes", 
		 "theory": "DFT", 
		 "functional": "B3LYP", 
		 "basiset": "6-31G**", 
		 "properties": { 
			 "R2extent": 4139.2571, 
			 "electric_dipole_moment_norm": 5.49911419503, 
			 "electric_quadrupole_moment_norm": 16.5739196161, 
			 "total_energy": -1412.73929277, 
			 "HOMO_LUMO_gap": 0.2669, 
			 "cosmo_polarized_energy": -20.68, 
			 "cosmo_cavitation_energy": 29.71, 
			 "cosmo_dispersion_energy": -22.23, 
			 "cosmo_repulsion_energy": 1.72, 
			 "cosmo_total_nonelectrostatic_energy": 9.2, 
			 "SMD_solvation_energy": 3.97 
		},
		"coords": [
			{
				"x": 0.6903837834,
				"y": -2.6935923537,
				"z": 0.2950119034,
				"element": "C" 
			},
			{
				"x": 0.6897386994,
				"y": -1.1950058369,
				"z": -0.043593509,
				"element": "C" 
			},
			{
				"x": 0.5403153121,
				"y": -0.9521210461,
				"z": -1.5761189245,
				"element": "C" 
			},
			{
				"x": -0.9171631001,
				"y": -1.2096006746,
				"z": -1.9849214954,
				"element": "C" 
			},
			{
				"x": -1.939169497,
				"y": -0.8241877929,
				"z": -0.5008373088,
				"element": "S" 
			},
			{
				"x": -2.5966440976,
				"y": -2.0657325699,
				"z": -0.0521322052,
				"element": "O" 
			},
			{
				"x": -2.7248010443,
				"y": 0.3989989622,
				"z": -0.7165311492,
				"element": "O" 
			},
			{
				"x": -0.519491049,
				"y": -0.4750019643,
				"z": 0.5996394033,
				"element": "C" 
			},
			{
				"x": 1.9602610195,
				"y": -0.6476337788,
				"z": 0.455406297,
				"element": "N" 
			},
			{
				"x": 2.3437598037,
				"y": 0.6482395385,
				"z": 0.379183782,
				"element": "C" 
			},
			{
				"x": 1.6861190787,
				"y": 1.5558871678,
				"z": -0.1208710866,
				"element": "O" 
			},
			{
				"x": 3.7071510064,
				"y": 1.0283967097,
				"z": 0.9672940639,
				"element": "C" 
			},
			{
				"x": 4.6926005753,
				"y": -0.311447466,
				"z": 1.6942259528,
				"element": "Cl" 
			},
			{
				"x": -0.2576493706,
				"y": -3.1592744704,
				"z": 0.0197667395,
				"element": "H" 
			},
			{
				"x": 0.8241418739,
				"y": -2.8419572065,
				"z": 1.3720580959,
				"element": "H" 
			},
			{
				"x": 1.5018849579,
				"y": -3.2067228716,
				"z": -0.2317698232,
				"element": "H" 
			},
			{
				"x": 0.8023171666,
				"y": 0.0879893678,
				"z": -1.7784911791,
				"element": "H" 
			},
			{
				"x": 1.2281856446,
				"y": -1.5954685251,
				"z": -2.1329102704,
				"element": "H" 
			},
			{
				"x": -1.2623655604,
				"y": -0.5646505641,
				"z": -2.7942558517,
				"element": "H" 
			},
			{
				"x": -1.1268697386,
				"y": -2.2524387117,
				"z": -2.2298331842,
				"element": "H" 
			},
			{
				"x": -0.7729730708,
				"y": -0.8367080123,
				"z": 1.5975358896,
				"element": "H" 
			},
			{
				"x": -0.3706185107,
				"y": 0.6055690228,
				"z": 0.5957865528,
				"element": "H" 
			},
			{
				"x": 2.5952778443,
				"y": -1.2899033929,
				"z": 0.9101795989,
				"element": "H" 
			},
			{
				"x": 4.3060204314,
				"y": 1.4769147144,
				"z": 0.174459364,
				"element": "H" 
			},
			{
				"x": 3.5455878421,
				"y": 1.7712517545,
				"z": 1.7488183443,
				"element": "H" 
			}
		],
		 "valence_orbital": [ 
			{
				"type": "occ",
				"energy": -0.30691,
				"method": "rhf"
			},
			{
				"type": "occ",
				"energy": -0.29547,
				"method": "rhf"
			},
			{
				"type": "occ",
				"energy": -0.29106,
				"method": "rhf"
			},
			{
				"type": "occ",
				"energy": -0.27704,
				"method": "rhf"
			},
			{
				"type": "occ",
				"energy": -0.27258,
				"method": "rhf"
			},
			{
				"type": "unocc",
				"energy": -0.00568,
				"method": "rhf"
			},
			{
				"type": "unocc",
				"energy": -0.00027,
				"method": "rhf"
			},
			{
				"type": "unocc",
				"energy": 0.04949,
				"method": "rhf"
			},
			{
				"type": "unocc",
				"energy": 0.06066,
				"method": "rhf"
			},
			{
				"type": "unocc",
				"energy": 0.06664,
				"method": "rhf"
			}
		],
		"cosmo_sigma_profile": { 
			"-0.025": 0.0,
			"-0.024": 0.0,
			"-0.023": 0.0,
			"-0.022": 0.0,
			"-0.021": 0.0,
			"-0.02": 0.0,
			"-0.019": 0.0,
			"-0.018": 0.0,
			"-0.017": 0.0,
			"-0.016": 0.0,
			"-0.015": 0.0,
			"-0.014": 0.0,
			"-0.013": 0.0,
			"-0.012": 0.0,
			"-0.011": 0.653497596921,
			"-0.01": 1.32893305871,
			"-0.009": 5.44067847975,
			"-0.008": 9.47563957463,
			"-0.007": 12.9732967905,
			"-0.006": 18.7717838012,
			"-0.005": 22.135487838,
			"-0.004": 18.4868420389,
			"-0.003": 17.9495507716,
			"-0.002": 15.5614257649,
			"-0.001": 14.7762257899,
			"0.0": 9.08109575446,
			"0.001": 7.59771419048,
			"0.002": 7.39626631052,
			"0.003": 6.86730641143,
			"0.004": 7.82102897243,
			"0.005": 10.8195049535,
			"0.006": 5.47647774632,
			"0.007": 2.42943357633,
			"0.008": 3.01548043088,
			"0.009": 3.64590724649,
			"0.01": 5.72230898554,
			"0.011": 11.504592232,
			"0.012": 11.8688424683,
			"0.013": 4.74399981621,
			"0.014": 0.491084599148,
			"0.015": 0.0,
			"0.016": 0.0,
			"0.017": 0.0,
			"0.018": 0.0,
			"0.019": 0.0,
			"0.02": 0.0,
			"0.021": 0.0,
			"0.022": 0.0,
			"0.023": 0.0,
			"0.024": 0.0,
			"0.025": 0.0
		}
	}
}
