{
	 "smiles": "OC(=O)CCC1=NC2=C(OC1=O)C=CC=C2", 
	 "Tm": 441.15, 
	 "num_atms": 25, 
	 "gaussian": { 
		 "optdone": 1, 
		 "sigma_profile": "yes", 
		 "theory": "DFT", 
		 "functional": "B3LYP", 
		 "basiset": "6-31G**", 
		 "properties": { 
			 "R2extent": 4900.2558, 
			 "electric_dipole_moment_norm": 6.60599893506, 
			 "electric_quadrupole_moment_norm": 19.2685233565, 
			 "total_energy": -780.257956897, 
			 "HOMO_LUMO_gap": 0.14743, 
			 "cosmo_polarized_energy": -17.91, 
			 "cosmo_cavitation_energy": 29.84, 
			 "cosmo_dispersion_energy": -21.81, 
			 "cosmo_repulsion_energy": 1.67, 
			 "cosmo_total_nonelectrostatic_energy": 9.71, 
			 "SMD_solvation_energy": 6.72 
		},
		"coords": [
			{
				"x": -2.0988163956,
				"y": -1.2862515003,
				"z": -2.6671808759,
				"element": "O" 
			},
			{
				"x": -2.5184546847,
				"y": -2.5630930223,
				"z": -2.7326583685,
				"element": "C" 
			},
			{
				"x": -3.017255957,
				"y": -3.0127774862,
				"z": -3.7379525735,
				"element": "O" 
			},
			{
				"x": -2.3414380683,
				"y": -3.3959053347,
				"z": -1.4578385088,
				"element": "C" 
			},
			{
				"x": -0.8868391437,
				"y": -3.6705347514,
				"z": -1.0262795133,
				"element": "C" 
			},
			{
				"x": -0.1796599262,
				"y": -2.5581859452,
				"z": -0.2983073239,
				"element": "C" 
			},
			{
				"x": -0.6066858216,
				"y": -1.3376497966,
				"z": -0.3329142327,
				"element": "N" 
			},
			{
				"x": 0.0791510776,
				"y": -0.3461799528,
				"z": 0.3619788053,
				"element": "C" 
			},
			{
				"x": 1.2321662934,
				"y": -0.6599440492,
				"z": 1.0993673692,
				"element": "C" 
			},
			{
				"x": 1.693331761,
				"y": -1.9500678426,
				"z": 1.1370252032,
				"element": "O" 
			},
			{
				"x": 1.0472028375,
				"y": -2.9564824601,
				"z": 0.4581385514,
				"element": "C" 
			},
			{
				"x": 1.4850708827,
				"y": -4.0797507532,
				"z": 0.5026457376,
				"element": "O" 
			},
			{
				"x": 1.9349244181,
				"y": 0.3161467754,
				"z": 1.8021052398,
				"element": "C" 
			},
			{
				"x": 1.4714499128,
				"y": 1.6284985124,
				"z": 1.7636155264,
				"element": "C" 
			},
			{
				"x": 0.3216025402,
				"y": 1.9643106274,
				"z": 1.0322099016,
				"element": "C" 
			},
			{
				"x": -0.3714197016,
				"y": 0.9838040669,
				"z": 0.3350842113,
				"element": "C" 
			},
			{
				"x": -1.6909135559,
				"y": -1.1199093356,
				"z": -1.7858275544,
				"element": "H" 
			},
			{
				"x": -2.8291465247,
				"y": -4.3513914048,
				"z": -1.6560692463,
				"element": "H" 
			},
			{
				"x": -2.8793637388,
				"y": -2.9089282814,
				"z": -0.6349603841,
				"element": "H" 
			},
			{
				"x": -0.8603670579,
				"y": -4.5472411031,
				"z": -0.3704669833,
				"element": "H" 
			},
			{
				"x": -0.2733667888,
				"y": -3.9609707837,
				"z": -1.8912652532,
				"element": "H" 
			},
			{
				"x": 2.8216970856,
				"y": 0.0339853827,
				"z": 2.3589033247,
				"element": "H" 
			},
			{
				"x": 2.0099425214,
				"y": 2.3986217644,
				"z": 2.3068823095,
				"element": "H" 
			},
			{
				"x": -0.0259773895,
				"y": 2.9918034263,
				"z": 1.0110059526,
				"element": "H" 
			},
			{
				"x": -1.2629345761,
				"y": 1.2164932477,
				"z": -0.2384413145,
				"element": "H" 
			}
		],
		 "valence_orbital": [ 
			{
				"type": "occ",
				"energy": -0.29543,
				"method": "rhf"
			},
			{
				"type": "occ",
				"energy": -0.29015,
				"method": "rhf"
			},
			{
				"type": "occ",
				"energy": -0.28088,
				"method": "rhf"
			},
			{
				"type": "occ",
				"energy": -0.26558,
				"method": "rhf"
			},
			{
				"type": "occ",
				"energy": -0.25276,
				"method": "rhf"
			},
			{
				"type": "unocc",
				"energy": -0.10533,
				"method": "rhf"
			},
			{
				"type": "unocc",
				"energy": -0.03625,
				"method": "rhf"
			},
			{
				"type": "unocc",
				"energy": -0.0302,
				"method": "rhf"
			},
			{
				"type": "unocc",
				"energy": 0.0219,
				"method": "rhf"
			},
			{
				"type": "unocc",
				"energy": 0.0486,
				"method": "rhf"
			}
		],
		"cosmo_sigma_profile": { 
			"-0.025": 0.0,
			"-0.024": 0.0,
			"-0.023": 0.0,
			"-0.022": 0.0,
			"-0.021": 0.0,
			"-0.02": 0.0,
			"-0.019": 0.0,
			"-0.018": 0.0,
			"-0.017": 0.0,
			"-0.016": 0.0,
			"-0.015": 0.0,
			"-0.014": 0.0,
			"-0.013": 0.0,
			"-0.012": 0.0,
			"-0.011": 0.0,
			"-0.01": 0.107291997774,
			"-0.009": 1.42747698367,
			"-0.008": 5.86680859103,
			"-0.007": 18.7040394961,
			"-0.006": 23.08656952,
			"-0.005": 22.1149933301,
			"-0.004": 16.7550896775,
			"-0.003": 15.9574000439,
			"-0.002": 13.4249129042,
			"-0.001": 12.9975753293,
			"0.0": 14.0048857722,
			"0.001": 14.493871332,
			"0.002": 12.9342325644,
			"0.003": 10.2004183694,
			"0.004": 4.55895366837,
			"0.005": 3.84811938273,
			"0.006": 4.71983718784,
			"0.007": 4.39712226398,
			"0.008": 4.79397844128,
			"0.009": 5.492260846,
			"0.01": 7.86570362296,
			"0.011": 8.2251162041,
			"0.012": 7.31553692875,
			"0.013": 4.71923507592,
			"0.014": 1.34103620751,
			"0.015": 0.0,
			"0.016": 0.0,
			"0.017": 0.0,
			"0.018": 0.0,
			"0.019": 0.0,
			"0.02": 0.0,
			"0.021": 0.0,
			"0.022": 0.0,
			"0.023": 0.0,
			"0.024": 0.0,
			"0.025": 0.0
		}
	}
}
