{
	 "smiles": "CCC(Br)C(=O)NC1=NOC(C)=C1", 
	 "Tm": 377.15, 
	 "num_atms": 24, 
	 "gaussian": { 
		 "optdone": 1, 
		 "sigma_profile": "yes", 
		 "theory": "DFT", 
		 "functional": "B3LYP", 
		 "basiset": "6-31G**", 
		 "properties": { 
			 "R2extent": 4779.4067, 
			 "electric_dipole_moment_norm": 1.98947700665, 
			 "electric_quadrupole_moment_norm": 13.5624333805, 
			 "total_energy": -3142.81734758, 
			 "HOMO_LUMO_gap": 0.22351, 
			 "cosmo_polarized_energy": -10.7, 
			 "cosmo_cavitation_energy": 30.13, 
			 "cosmo_dispersion_energy": -22.05, 
			 "cosmo_repulsion_energy": 1.77, 
			 "cosmo_total_nonelectrostatic_energy": 9.85, 
			 "SMD_solvation_energy": 4.56 
		},
		"coords": [
			{
				"x": 3.6568553247,
				"y": 0.5719098675,
				"z": -0.4057500682,
				"element": "C" 
			},
			{
				"x": 3.3276318029,
				"y": -0.8996577663,
				"z": -0.6635816182,
				"element": "C" 
			},
			{
				"x": 1.9764392041,
				"y": -1.1582660881,
				"z": -1.3417872005,
				"element": "C" 
			},
			{
				"x": 1.9642222359,
				"y": -0.4222358894,
				"z": -3.2057103403,
				"element": "Br" 
			},
			{
				"x": 0.8064860426,
				"y": -0.6930631138,
				"z": -0.4610948808,
				"element": "C" 
			},
			{
				"x": 0.6968833816,
				"y": -1.2180259834,
				"z": 0.6393465514,
				"element": "O" 
			},
			{
				"x": -0.0220984794,
				"y": 0.2776221767,
				"z": -0.9415490047,
				"element": "N" 
			},
			{
				"x": -1.1191142168,
				"y": 0.8090130689,
				"z": -0.2665061713,
				"element": "C" 
			},
			{
				"x": -1.824487581,
				"y": 1.7378906851,
				"z": -0.8805728623,
				"element": "N" 
			},
			{
				"x": -2.8349142224,
				"y": 2.0704008556,
				"z": 0.0249984444,
				"element": "O" 
			},
			{
				"x": -2.6989342418,
				"y": 1.3298284205,
				"z": 1.1475885035,
				"element": "C" 
			},
			{
				"x": -3.700243934,
				"y": 1.5570717712,
				"z": 2.2261419983,
				"element": "C" 
			},
			{
				"x": -1.6222217366,
				"y": 0.5019268197,
				"z": 1.0308351687,
				"element": "C" 
			},
			{
				"x": 4.6291971442,
				"y": 0.658791691,
				"z": 0.0876685065,
				"element": "H" 
			},
			{
				"x": 2.9125324815,
				"y": 1.0406200297,
				"z": 0.2461215672,
				"element": "H" 
			},
			{
				"x": 3.700282106,
				"y": 1.1392891515,
				"z": -1.3397076338,
				"element": "H" 
			},
			{
				"x": 3.2830767444,
				"y": -1.4447609339,
				"z": 0.2864530645,
				"element": "H" 
			},
			{
				"x": 4.1096542532,
				"y": -1.3667554383,
				"z": -1.2701543505,
				"element": "H" 
			},
			{
				"x": 1.8375823348,
				"y": -2.2280722896,
				"z": -1.5000769563,
				"element": "H" 
			},
			{
				"x": 0.1451950262,
				"y": 0.6362763873,
				"z": -1.8749192262,
				"element": "H" 
			},
			{
				"x": -4.7138552293,
				"y": 1.3491661836,
				"z": 1.8678052763,
				"element": "H" 
			},
			{
				"x": -3.4900083013,
				"y": 0.9054620936,
				"z": 3.0762480313,
				"element": "H" 
			},
			{
				"x": -3.6768567531,
				"y": 2.5971493937,
				"z": 2.5678606249,
				"element": "H" 
			},
			{
				"x": -1.2307033865,
				"y": -0.2156810929,
				"z": 1.7301425759,
				"element": "H" 
			}
		],
		 "valence_orbital": [ 
			{
				"type": "occ",
				"energy": -0.30372,
				"method": "rhf"
			},
			{
				"type": "occ",
				"energy": -0.28954,
				"method": "rhf"
			},
			{
				"type": "occ",
				"energy": -0.26994,
				"method": "rhf"
			},
			{
				"type": "occ",
				"energy": -0.26328,
				"method": "rhf"
			},
			{
				"type": "occ",
				"energy": -0.24798,
				"method": "rhf"
			},
			{
				"type": "unocc",
				"energy": -0.02447,
				"method": "rhf"
			},
			{
				"type": "unocc",
				"energy": -0.01673,
				"method": "rhf"
			},
			{
				"type": "unocc",
				"energy": 0.00945,
				"method": "rhf"
			},
			{
				"type": "unocc",
				"energy": 0.07939,
				"method": "rhf"
			},
			{
				"type": "unocc",
				"energy": 0.08827,
				"method": "rhf"
			}
		],
		"cosmo_sigma_profile": { 
			"-0.025": 0.0,
			"-0.024": 0.0,
			"-0.023": 0.0,
			"-0.022": 0.0,
			"-0.021": 0.0,
			"-0.02": 0.0,
			"-0.019": 0.0,
			"-0.018": 0.0,
			"-0.017": 0.0,
			"-0.016": 0.0,
			"-0.015": 0.0,
			"-0.014": 0.0,
			"-0.013": 0.0,
			"-0.012": 0.0,
			"-0.011": 0.403143398749,
			"-0.01": 0.806129417943,
			"-0.009": 2.82565267104,
			"-0.008": 3.2568949879,
			"-0.007": 4.86965794253,
			"-0.006": 10.4429373054,
			"-0.005": 14.0189064906,
			"-0.004": 18.2349579091,
			"-0.003": 23.7062138041,
			"-0.002": 26.9988855876,
			"-0.001": 22.6951592985,
			"0.0": 20.8091664961,
			"0.001": 18.6170298979,
			"0.002": 13.2657341907,
			"0.003": 10.8706562458,
			"0.004": 10.6903978545,
			"0.005": 7.99291122255,
			"0.006": 3.0666027809,
			"0.007": 4.53543685137,
			"0.008": 6.84591421445,
			"0.009": 3.64565525411,
			"0.01": 3.60829720859,
			"0.011": 3.69349797199,
			"0.012": 3.48434392239,
			"0.013": 1.60081238737,
			"0.014": 0.780636183877,
			"0.015": 0.00986184702334,
			"0.016": 0.0,
			"0.017": 0.0,
			"0.018": 0.0,
			"0.019": 0.0,
			"0.02": 0.0,
			"0.021": 0.0,
			"0.022": 0.0,
			"0.023": 0.0,
			"0.024": 0.0,
			"0.025": 0.0
		}
	}
}
