{
	 "smiles": "OC(=O)C1=CC(F)=C(C=C1)N1C=CC=C1", 
	 "Tm": 526.15, 
	 "num_atms": 23, 
	 "gaussian": { 
		 "optdone": 1, 
		 "sigma_profile": "yes", 
		 "theory": "DFT", 
		 "functional": "B3LYP", 
		 "basiset": "6-31G**", 
		 "properties": { 
			 "R2extent": 4553.4365, 
			 "electric_dipole_moment_norm": 4.25821473977, 
			 "electric_quadrupole_moment_norm": 26.0493109978, 
			 "total_energy": -729.013497234, 
			 "HOMO_LUMO_gap": 0.15857, 
			 "cosmo_polarized_energy": -15.77, 
			 "cosmo_cavitation_energy": 28.27, 
			 "cosmo_dispersion_energy": -20.74, 
			 "cosmo_repulsion_energy": 1.56, 
			 "cosmo_total_nonelectrostatic_energy": 9.09, 
			 "SMD_solvation_energy": 7.07 
		},
		"coords": [
			{
				"x": 1.9322207791,
				"y": -4.4049322804,
				"z": 1.8258734421,
				"element": "O" 
			},
			{
				"x": 0.6057076894,
				"y": -4.2517240102,
				"z": 1.5699184123,
				"element": "C" 
			},
			{
				"x": -0.1439020834,
				"y": -5.1938790459,
				"z": 1.6723307778,
				"element": "O" 
			},
			{
				"x": 0.1502321096,
				"y": -2.8828420049,
				"z": 1.1659767021,
				"element": "C" 
			},
			{
				"x": -1.095247915,
				"y": -2.7794526168,
				"z": 0.5342821223,
				"element": "C" 
			},
			{
				"x": -1.5671928429,
				"y": -1.5418176772,
				"z": 0.1393777645,
				"element": "C" 
			},
			{
				"x": -2.7540868823,
				"y": -1.4799460941,
				"z": -0.4970121179,
				"element": "F" 
			},
			{
				"x": -0.8493975614,
				"y": -0.3554010446,
				"z": 0.3765819096,
				"element": "C" 
			},
			{
				"x": 0.3806352924,
				"y": -0.4711004597,
				"z": 1.041579248,
				"element": "C" 
			},
			{
				"x": 0.8789466847,
				"y": -1.7135071925,
				"z": 1.4213279969,
				"element": "C" 
			},
			{
				"x": -1.3277233422,
				"y": 0.8995170743,
				"z": -0.0386127399,
				"element": "N" 
			},
			{
				"x": -2.6543432849,
				"y": 1.3187744627,
				"z": -0.0678677199,
				"element": "C" 
			},
			{
				"x": -2.6793159834,
				"y": 2.6327464795,
				"z": -0.4571917181,
				"element": "C" 
			},
			{
				"x": -1.3295419094,
				"y": 3.0426944552,
				"z": -0.6857571296,
				"element": "C" 
			},
			{
				"x": -0.5212986982,
				"y": 1.9688971827,
				"z": -0.4165288465,
				"element": "C" 
			},
			{
				"x": 2.4235809942,
				"y": -3.6236202065,
				"z": 1.5374017336,
				"element": "H" 
			},
			{
				"x": -1.6819376402,
				"y": -3.6700940369,
				"z": 0.3414634575,
				"element": "H" 
			},
			{
				"x": 0.9294621933,
				"y": 0.4311360592,
				"z": 1.2858012336,
				"element": "H" 
			},
			{
				"x": 1.8156816886,
				"y": -1.7465861605,
				"z": 1.9711054074,
				"element": "H" 
			},
			{
				"x": -3.4490834113,
				"y": 0.6454671544,
				"z": 0.2048056529,
				"element": "H" 
			},
			{
				"x": -3.5683556959,
				"y": 3.2371433533,
				"z": -0.5689427488,
				"element": "H" 
			},
			{
				"x": -0.9944446791,
				"y": 4.0126026328,
				"z": -1.0253038682,
				"element": "H" 
			},
			{
				"x": 0.5468044983,
				"y": 1.8476239761,
				"z": -0.5064089716,
				"element": "H" 
			}
		],
		 "valence_orbital": [ 
			{
				"type": "occ",
				"energy": -0.29878,
				"method": "rhf"
			},
			{
				"type": "occ",
				"energy": -0.28126,
				"method": "rhf"
			},
			{
				"type": "occ",
				"energy": -0.27666,
				"method": "rhf"
			},
			{
				"type": "occ",
				"energy": -0.23643,
				"method": "rhf"
			},
			{
				"type": "occ",
				"energy": -0.22324,
				"method": "rhf"
			},
			{
				"type": "unocc",
				"energy": -0.06467,
				"method": "rhf"
			},
			{
				"type": "unocc",
				"energy": -0.03192,
				"method": "rhf"
			},
			{
				"type": "unocc",
				"energy": 0.01676,
				"method": "rhf"
			},
			{
				"type": "unocc",
				"energy": 0.05052,
				"method": "rhf"
			},
			{
				"type": "unocc",
				"energy": 0.05481,
				"method": "rhf"
			}
		],
		"cosmo_sigma_profile": { 
			"-0.025": 0.0,
			"-0.024": 0.0,
			"-0.023": 0.0,
			"-0.022": 0.0,
			"-0.021": 0.0,
			"-0.02": 0.0,
			"-0.019": 0.42771700149,
			"-0.018": 1.05778201417,
			"-0.017": 0.718984715306,
			"-0.016": 1.21391699205,
			"-0.015": 0.903382684722,
			"-0.014": 0.575781384331,
			"-0.013": 1.45394955215,
			"-0.012": 1.43082588505,
			"-0.011": 1.03462310089,
			"-0.01": 0.985843152513,
			"-0.009": 2.22263538631,
			"-0.008": 6.91479192181,
			"-0.007": 7.24876565428,
			"-0.006": 10.6498886844,
			"-0.005": 10.5807364005,
			"-0.004": 11.942704355,
			"-0.003": 12.4376536344,
			"-0.002": 16.0179196893,
			"-0.001": 17.836771749,
			"0.0": 18.947609651,
			"0.001": 17.7678779009,
			"0.002": 13.9910471648,
			"0.003": 13.5436018468,
			"0.004": 11.3808461144,
			"0.005": 7.17799125729,
			"0.006": 7.55011746065,
			"0.007": 8.49559300722,
			"0.008": 4.94853713683,
			"0.009": 3.01303432356,
			"0.01": 4.95835806741,
			"0.011": 5.53570904396,
			"0.012": 3.90211851613,
			"0.013": 1.15452938753,
			"0.014": 0.0,
			"0.015": 0.0,
			"0.016": 0.0,
			"0.017": 0.0,
			"0.018": 0.0,
			"0.019": 0.0,
			"0.02": 0.0,
			"0.021": 0.0,
			"0.022": 0.0,
			"0.023": 0.0,
			"0.024": 0.0,
			"0.025": 0.0
		}
	}
}
