{
	 "smiles": "CN1N=CC(CN)=C1N", 
	 "Tm": 365.15, 
	 "num_atms": 19, 
	 "gaussian": { 
		 "optdone": 1, 
		 "sigma_profile": "yes", 
		 "theory": "DFT", 
		 "functional": "B3LYP", 
		 "basiset": "6-31G**", 
		 "properties": { 
			 "R2extent": 1574.1192, 
			 "electric_dipole_moment_norm": 2.93865406266, 
			 "electric_quadrupole_moment_norm": 10.3554193937, 
			 "total_energy": -415.534235927, 
			 "HOMO_LUMO_gap": 0.23735, 
			 "cosmo_polarized_energy": -15.31, 
			 "cosmo_cavitation_energy": 22.42, 
			 "cosmo_dispersion_energy": -16.3, 
			 "cosmo_repulsion_energy": 1.37, 
			 "cosmo_total_nonelectrostatic_energy": 7.48, 
			 "SMD_solvation_energy": 1.75 
		},
		"coords": [
			{
				"x": 1.4990035197,
				"y": -0.4106777677,
				"z": 2.4442820531,
				"element": "C" 
			},
			{
				"x": 0.6762819416,
				"y": -0.5912748049,
				"z": 1.2676406665,
				"element": "N" 
			},
			{
				"x": -0.6808045102,
				"y": -0.5572646676,
				"z": 1.3650329496,
				"element": "N" 
			},
			{
				"x": -1.1042628865,
				"y": -0.7450711823,
				"z": 0.1191272173,
				"element": "C" 
			},
			{
				"x": -0.0433726487,
				"y": -0.87829209,
				"z": -0.8110230465,
				"element": "C" 
			},
			{
				"x": -0.1117383554,
				"y": -1.1277295959,
				"z": -2.2926171955,
				"element": "C" 
			},
			{
				"x": -0.2916054907,
				"y": -2.5269114383,
				"z": -2.7318502711,
				"element": "N" 
			},
			{
				"x": 1.0961669742,
				"y": -0.7641266632,
				"z": -0.0178034813,
				"element": "C" 
			},
			{
				"x": 2.463921194,
				"y": -0.8583465054,
				"z": -0.3188530902,
				"element": "N" 
			},
			{
				"x": 1.7835579555,
				"y": 0.6391318608,
				"z": 2.5888762973,
				"element": "H" 
			},
			{
				"x": 0.9224280477,
				"y": -0.7393778395,
				"z": 3.3091606445,
				"element": "H" 
			},
			{
				"x": 2.4031834337,
				"y": -1.0172944474,
				"z": 2.3481351308,
				"element": "H" 
			},
			{
				"x": -2.1686126541,
				"y": -0.7688748694,
				"z": -0.0823960024,
				"element": "H" 
			},
			{
				"x": -0.9338725165,
				"y": -0.5466595061,
				"z": -2.7259007016,
				"element": "H" 
			},
			{
				"x": 0.8015284619,
				"y": -0.7498652681,
				"z": -2.7730057012,
				"element": "H" 
			},
			{
				"x": -1.1681545944,
				"y": -2.8758915464,
				"z": -2.3477845486,
				"element": "H" 
			},
			{
				"x": 0.4287733833,
				"y": -3.1026723362,
				"z": -2.2983193073,
				"element": "H" 
			},
			{
				"x": 2.9828597341,
				"y": -0.0133714604,
				"z": -0.0973715228,
				"element": "H" 
			},
			{
				"x": 2.6130190108,
				"y": -1.0855298719,
				"z": -1.2949300907,
				"element": "H" 
			}
		],
		 "valence_orbital": [ 
			{
				"type": "occ",
				"energy": -0.31418,
				"method": "rhf"
			},
			{
				"type": "occ",
				"energy": -0.27478,
				"method": "rhf"
			},
			{
				"type": "occ",
				"energy": -0.24664,
				"method": "rhf"
			},
			{
				"type": "occ",
				"energy": -0.22677,
				"method": "rhf"
			},
			{
				"type": "occ",
				"energy": -0.20419,
				"method": "rhf"
			},
			{
				"type": "unocc",
				"energy": 0.03316,
				"method": "rhf"
			},
			{
				"type": "unocc",
				"energy": 0.05272,
				"method": "rhf"
			},
			{
				"type": "unocc",
				"energy": 0.07294,
				"method": "rhf"
			},
			{
				"type": "unocc",
				"energy": 0.10575,
				"method": "rhf"
			},
			{
				"type": "unocc",
				"energy": 0.11824,
				"method": "rhf"
			}
		],
		"cosmo_sigma_profile": { 
			"-0.025": 0.0,
			"-0.024": 0.0,
			"-0.023": 0.0,
			"-0.022": 0.0,
			"-0.021": 0.0,
			"-0.02": 0.0,
			"-0.019": 0.0,
			"-0.018": 0.0,
			"-0.017": 0.0,
			"-0.016": 0.0,
			"-0.015": 0.0,
			"-0.014": 0.0,
			"-0.013": 0.608511983813,
			"-0.012": 2.2464645511,
			"-0.011": 3.10564001165,
			"-0.01": 3.74525379285,
			"-0.009": 5.50767318547,
			"-0.008": 6.02989858859,
			"-0.007": 4.42289778949,
			"-0.006": 9.20588113279,
			"-0.005": 12.6425777867,
			"-0.004": 14.5967728998,
			"-0.003": 16.2910344702,
			"-0.002": 12.6887264,
			"-0.001": 8.55899716217,
			"0.0": 7.75995938512,
			"0.001": 5.97951914548,
			"0.002": 5.73282442636,
			"0.003": 4.90733460573,
			"0.004": 7.00902419914,
			"0.005": 6.44800901712,
			"0.006": 6.61505343437,
			"0.007": 5.18513479338,
			"0.008": 4.05135362632,
			"0.009": 2.90816327225,
			"0.01": 2.32365078455,
			"0.011": 1.99583646231,
			"0.012": 2.9191843876,
			"0.013": 2.77327113386,
			"0.014": 2.7391328374,
			"0.015": 1.48367384365,
			"0.016": 1.59565045028,
			"0.017": 1.40337632474,
			"0.018": 0.7177122283,
			"0.019": 0.672348855075,
			"0.02": 0.576152359085,
			"0.021": 0.0691035122019,
			"0.022": 0.0,
			"0.023": 0.0,
			"0.024": 0.0,
			"0.025": 0.0
		}
	}
}
