{
	 "smiles": "OC(=O)C1CCC(F)(F)CC1", 
	 "Tm": 378.65, 
	 "num_atms": 21, 
	 "gaussian": { 
		 "optdone": 1, 
		 "sigma_profile": "yes", 
		 "theory": "DFT", 
		 "functional": "B3LYP", 
		 "basiset": "6-31G**", 
		 "properties": { 
			 "R2extent": 3608.225, 
			 "electric_dipole_moment_norm": 2.54668590329, 
			 "electric_quadrupole_moment_norm": 8.88836262143, 
			 "total_energy": -622.938879377, 
			 "HOMO_LUMO_gap": 0.28082, 
			 "cosmo_polarized_energy": -10.42, 
			 "cosmo_cavitation_energy": 23.98, 
			 "cosmo_dispersion_energy": -17.37, 
			 "cosmo_repulsion_energy": 1.36, 
			 "cosmo_total_nonelectrostatic_energy": 7.97, 
			 "SMD_solvation_energy": 5.39 
		},
		"coords": [
			{
				"x": -0.8436593131,
				"y": 0.2148370244,
				"z": -2.535139541,
				"element": "O" 
			},
			{
				"x": -0.4480570252,
				"y": 0.4333774036,
				"z": -1.2553498916,
				"element": "C" 
			},
			{
				"x": 0.6473090047,
				"y": 0.1091558095,
				"z": -0.8521963712,
				"element": "O" 
			},
			{
				"x": -1.5384106645,
				"y": 1.1046881675,
				"z": -0.4405960811,
				"element": "C" 
			},
			{
				"x": -2.7635796535,
				"y": 0.1675870526,
				"z": -0.2924127503,
				"element": "C" 
			},
			{
				"x": -3.8695948221,
				"y": 0.8342193057,
				"z": 0.5378040194,
				"element": "C" 
			},
			{
				"x": -3.3323282365,
				"y": 1.3105236669,
				"z": 1.8775446914,
				"element": "C" 
			},
			{
				"x": -4.3290911137,
				"y": 1.9546386214,
				"z": 2.5713987481,
				"element": "F" 
			},
			{
				"x": -2.9879824253,
				"y": 0.2016313978,
				"z": 2.6299025142,
				"element": "F" 
			},
			{
				"x": -2.1170503961,
				"y": 2.2157107318,
				"z": 1.7649811256,
				"element": "C" 
			},
			{
				"x": -1.0109320454,
				"y": 1.5525707194,
				"z": 0.9316361258,
				"element": "C" 
			},
			{
				"x": -0.0993222156,
				"y": -0.2291873148,
				"z": -2.9753099277,
				"element": "H" 
			},
			{
				"x": -1.8622550459,
				"y": 1.9838310162,
				"z": -1.0168160015,
				"element": "H" 
			},
			{
				"x": -2.4486484292,
				"y": -0.7558910897,
				"z": 0.2075863323,
				"element": "H" 
			},
			{
				"x": -3.1454699148,
				"y": -0.1091299663,
				"z": -1.2786086486,
				"element": "H" 
			},
			{
				"x": -4.2774581377,
				"y": 1.7033439176,
				"z": 0.0089351685,
				"element": "H" 
			},
			{
				"x": -4.6962974446,
				"y": 0.141559623,
				"z": 0.7238068574,
				"element": "H" 
			},
			{
				"x": -1.7664176933,
				"y": 2.4480647409,
				"z": 2.7752068088,
				"element": "H" 
			},
			{
				"x": -2.441189193,
				"y": 3.1561160694,
				"z": 1.303976337,
				"element": "H" 
			},
			{
				"x": -0.169153221,
				"y": 2.2398506671,
				"z": 0.8067043322,
				"element": "H" 
			},
			{
				"x": -0.6220120141,
				"y": 0.6792024359,
				"z": 1.4643461522,
				"element": "H" 
			}
		],
		 "valence_orbital": [ 
			{
				"type": "occ",
				"energy": -0.35134,
				"method": "rhf"
			},
			{
				"type": "occ",
				"energy": -0.34014,
				"method": "rhf"
			},
			{
				"type": "occ",
				"energy": -0.32344,
				"method": "rhf"
			},
			{
				"type": "occ",
				"energy": -0.30705,
				"method": "rhf"
			},
			{
				"type": "occ",
				"energy": -0.27842,
				"method": "rhf"
			},
			{
				"type": "unocc",
				"energy": 0.0024,
				"method": "rhf"
			},
			{
				"type": "unocc",
				"energy": 0.06761,
				"method": "rhf"
			},
			{
				"type": "unocc",
				"energy": 0.08061,
				"method": "rhf"
			},
			{
				"type": "unocc",
				"energy": 0.10515,
				"method": "rhf"
			},
			{
				"type": "unocc",
				"energy": 0.12614,
				"method": "rhf"
			}
		],
		"cosmo_sigma_profile": { 
			"-0.025": 0.0,
			"-0.024": 0.0,
			"-0.023": 0.0,
			"-0.022": 0.0,
			"-0.021": 0.0,
			"-0.02": 0.0,
			"-0.019": 0.0,
			"-0.018": 0.601740689479,
			"-0.017": 0.896253674753,
			"-0.016": 1.17224234165,
			"-0.015": 0.69763126779,
			"-0.014": 0.582176899211,
			"-0.013": 0.614487431887,
			"-0.012": 0.452369865562,
			"-0.011": 0.811340094835,
			"-0.01": 0.914400364541,
			"-0.009": 0.600139109884,
			"-0.008": 0.539938103866,
			"-0.007": 0.899782757661,
			"-0.006": 6.53588403558,
			"-0.005": 15.4922988283,
			"-0.004": 17.9431248232,
			"-0.003": 18.8828345203,
			"-0.002": 20.2413507894,
			"-0.001": 14.8513184021,
			"0.0": 8.3500019929,
			"0.001": 6.66615607039,
			"0.002": 6.46291382655,
			"0.003": 6.97201329629,
			"0.004": 8.55088430956,
			"0.005": 18.0207519235,
			"0.006": 9.19645172832,
			"0.007": 3.60024041974,
			"0.008": 2.64103465077,
			"0.009": 2.59176731417,
			"0.01": 2.50802213332,
			"0.011": 3.55356674458,
			"0.012": 4.47153594457,
			"0.013": 0.303136231282,
			"0.014": 0.0,
			"0.015": 0.0,
			"0.016": 0.0,
			"0.017": 0.0,
			"0.018": 0.0,
			"0.019": 0.0,
			"0.02": 0.0,
			"0.021": 0.0,
			"0.022": 0.0,
			"0.023": 0.0,
			"0.024": 0.0,
			"0.025": 0.0
		}
	}
}
