{
	 "smiles": "CCNC(=O)NC1=CC(=CC=C1)[N+]([O-])=O", 
	 "Tm": 415.15, 
	 "num_atms": 26, 
	 "gaussian": { 
		 "optdone": 1, 
		 "sigma_profile": "yes", 
		 "theory": "DFT", 
		 "functional": "B3LYP", 
		 "basiset": "6-31G**", 
		 "properties": { 
			 "R2extent": 3635.3897, 
			 "electric_dipole_moment_norm": 4.00530308216, 
			 "electric_quadrupole_moment_norm": 26.1112972577, 
			 "total_energy": -739.43787467, 
			 "HOMO_LUMO_gap": 0.14747, 
			 "cosmo_polarized_energy": -15.87, 
			 "cosmo_cavitation_energy": 30.72, 
			 "cosmo_dispersion_energy": -21.51, 
			 "cosmo_repulsion_energy": 1.69, 
			 "cosmo_total_nonelectrostatic_energy": 10.9, 
			 "SMD_solvation_energy": 8.0 
		},
		"coords": [
			{
				"x": -0.5946670809,
				"y": 0.9450085073,
				"z": -3.209548283,
				"element": "C" 
			},
			{
				"x": 0.4974742984,
				"y": 1.1011131439,
				"z": -2.1537143245,
				"element": "C" 
			},
			{
				"x": 1.3278738905,
				"y": -0.1110527096,
				"z": -2.073044849,
				"element": "N" 
			},
			{
				"x": 2.1573436923,
				"y": -0.4251506184,
				"z": -1.0145878873,
				"element": "C" 
			},
			{
				"x": 3.2798075738,
				"y": -0.8869474803,
				"z": -1.163354177,
				"element": "O" 
			},
			{
				"x": 1.6651627938,
				"y": -0.1900889965,
				"z": 0.2818177841,
				"element": "N" 
			},
			{
				"x": 0.3804384486,
				"y": -0.4008713063,
				"z": 0.8118456604,
				"element": "C" 
			},
			{
				"x": -0.6798500765,
				"y": -0.9289837375,
				"z": 0.0640736611,
				"element": "C" 
			},
			{
				"x": -1.9162175334,
				"y": -1.0950140564,
				"z": 0.6804893212,
				"element": "C" 
			},
			{
				"x": -2.1504002341,
				"y": -0.7915297032,
				"z": 2.0181803981,
				"element": "C" 
			},
			{
				"x": -1.0813335275,
				"y": -0.2863395093,
				"z": 2.7579528519,
				"element": "C" 
			},
			{
				"x": 0.1629296742,
				"y": -0.0845079262,
				"z": 2.1665794846,
				"element": "C" 
			},
			{
				"x": -3.0276369912,
				"y": -1.62347113,
				"z": -0.1328158233,
				"element": "N" 
			},
			{
				"x": -2.826199138,
				"y": -1.800799694,
				"z": -1.3349001411,
				"element": "O" 
			},
			{
				"x": -4.0929961298,
				"y": -1.8511581303,
				"z": 0.4373623439,
				"element": "O" 
			},
			{
				"x": -1.2819350406,
				"y": 0.134143768,
				"z": -2.9518877915,
				"element": "H" 
			},
			{
				"x": -0.1652391361,
				"y": 0.7302755264,
				"z": -4.1945541908,
				"element": "H" 
			},
			{
				"x": -1.1699287343,
				"y": 1.871971361,
				"z": -3.295305385,
				"element": "H" 
			},
			{
				"x": 0.0483806624,
				"y": 1.2828120189,
				"z": -1.1763924537,
				"element": "H" 
			},
			{
				"x": 1.1259913137,
				"y": 1.9738130621,
				"z": -2.3834619427,
				"element": "H" 
			},
			{
				"x": 1.8058572152,
				"y": -0.336122378,
				"z": -2.9384908667,
				"element": "H" 
			},
			{
				"x": 2.4204129712,
				"y": -0.2974271938,
				"z": 0.9468644337,
				"element": "H" 
			},
			{
				"x": -0.5527085425,
				"y": -1.2163466194,
				"z": -0.9696278106,
				"element": "H" 
			},
			{
				"x": -3.1320610944,
				"y": -0.9456061305,
				"z": 2.4458108015,
				"element": "H" 
			},
			{
				"x": -1.2215462113,
				"y": -0.0364158986,
				"z": 3.8048041471,
				"element": "H" 
			},
			{
				"x": 0.9808469366,
				"y": 0.3261958306,
				"z": 2.7524050386,
				"element": "H" 
			}
		],
		 "valence_orbital": [ 
			{
				"type": "occ",
				"energy": -0.29395,
				"method": "rhf"
			},
			{
				"type": "occ",
				"energy": -0.28478,
				"method": "rhf"
			},
			{
				"type": "occ",
				"energy": -0.28285,
				"method": "rhf"
			},
			{
				"type": "occ",
				"energy": -0.25841,
				"method": "rhf"
			},
			{
				"type": "occ",
				"energy": -0.23962,
				"method": "rhf"
			},
			{
				"type": "unocc",
				"energy": -0.09215,
				"method": "rhf"
			},
			{
				"type": "unocc",
				"energy": -0.02962,
				"method": "rhf"
			},
			{
				"type": "unocc",
				"energy": -0.00447,
				"method": "rhf"
			},
			{
				"type": "unocc",
				"energy": 0.03527,
				"method": "rhf"
			},
			{
				"type": "unocc",
				"energy": 0.07091,
				"method": "rhf"
			}
		],
		"cosmo_sigma_profile": { 
			"-0.025": 0.0,
			"-0.024": 0.0,
			"-0.023": 0.0,
			"-0.022": 0.0,
			"-0.021": 0.0,
			"-0.02": 0.0,
			"-0.019": 0.0,
			"-0.018": 0.0,
			"-0.017": 0.0,
			"-0.016": 0.0,
			"-0.015": 0.34654954287,
			"-0.014": 0.971981576176,
			"-0.013": 2.15766870023,
			"-0.012": 2.05500386983,
			"-0.011": 2.35089445792,
			"-0.01": 2.10183688292,
			"-0.009": 2.85033805704,
			"-0.008": 4.03515309068,
			"-0.007": 7.03179666668,
			"-0.006": 8.93221924902,
			"-0.005": 10.6609858995,
			"-0.004": 16.386770001,
			"-0.003": 20.1828302716,
			"-0.002": 19.678553548,
			"-0.001": 22.5376396483,
			"0.0": 25.1195757644,
			"0.001": 21.7372553018,
			"0.002": 14.3937092695,
			"0.003": 8.05650162714,
			"0.004": 5.23588996088,
			"0.005": 4.35508682555,
			"0.006": 4.85509147757,
			"0.007": 7.89436972593,
			"0.008": 8.09589278298,
			"0.009": 4.88981096724,
			"0.01": 3.88803062211,
			"0.011": 1.7773516702,
			"0.012": 2.28023827337,
			"0.013": 5.70327071813,
			"0.014": 3.20942362606,
			"0.015": 0.0361203942492,
			"0.016": 0.0,
			"0.017": 0.0,
			"0.018": 0.0,
			"0.019": 0.0,
			"0.02": 0.0,
			"0.021": 0.0,
			"0.022": 0.0,
			"0.023": 0.0,
			"0.024": 0.0,
			"0.025": 0.0
		}
	}
}
