{
	 "smiles": "CC1=NC2=C(CC3=CC=C(F)C=C3)C(N)=NN2C(C)=C1", 
	 "Tm": 482.15, 
	 "num_atms": 35, 
	 "gaussian": { 
		 "optdone": 1, 
		 "sigma_profile": "yes", 
		 "theory": "DFT", 
		 "functional": "B3LYP", 
		 "basiset": "6-31G**", 
		 "properties": { 
			 "R2extent": 8267.8456, 
			 "electric_dipole_moment_norm": 2.40571915651, 
			 "electric_quadrupole_moment_norm": 14.8755988, 
			 "total_energy": -899.486145372, 
			 "HOMO_LUMO_gap": 0.16558, 
			 "cosmo_polarized_energy": -12.7, 
			 "cosmo_cavitation_energy": 39.39, 
			 "cosmo_dispersion_energy": -27.55, 
			 "cosmo_repulsion_energy": 2.11, 
			 "cosmo_total_nonelectrostatic_energy": 13.96, 
			 "SMD_solvation_energy": 4.68 
		},
		"coords": [
			{
				"x": -3.2948345133,
				"y": -4.9276399845,
				"z": -1.323536048,
				"element": "C" 
			},
			{
				"x": -2.9386176961,
				"y": -3.463243618,
				"z": -1.3427025262,
				"element": "C" 
			},
			{
				"x": -1.8238144977,
				"y": -3.0963075198,
				"z": -0.7289213145,
				"element": "N" 
			},
			{
				"x": -1.5074687503,
				"y": -1.7845308619,
				"z": -0.7469213801,
				"element": "C" 
			},
			{
				"x": -0.4387675612,
				"y": -1.071991883,
				"z": -0.2085203152,
				"element": "C" 
			},
			{
				"x": 0.6983401438,
				"y": -1.6167777312,
				"z": 0.6063988564,
				"element": "C" 
			},
			{
				"x": 2.076691603,
				"y": -1.3592913132,
				"z": 0.0108727625,
				"element": "C" 
			},
			{
				"x": 3.0617803959,
				"y": -0.6759599242,
				"z": 0.7352115036,
				"element": "C" 
			},
			{
				"x": 4.3323696216,
				"y": -0.4454745102,
				"z": 0.1988664471,
				"element": "C" 
			},
			{
				"x": 4.6077514984,
				"y": -0.9121362824,
				"z": -1.0788240072,
				"element": "C" 
			},
			{
				"x": 5.8312094693,
				"y": -0.6965555876,
				"z": -1.609905282,
				"element": "F" 
			},
			{
				"x": 3.6556232562,
				"y": -1.5942747703,
				"z": -1.8312102361,
				"element": "C" 
			},
			{
				"x": 2.3943969094,
				"y": -1.8094111045,
				"z": -1.2804502861,
				"element": "C" 
			},
			{
				"x": -0.693543617,
				"y": 0.270200809,
				"z": -0.584809729,
				"element": "C" 
			},
			{
				"x": 0.0632363554,
				"y": 1.3749743536,
				"z": -0.2392080439,
				"element": "N" 
			},
			{
				"x": -1.8202871118,
				"y": 0.4251250049,
				"z": -1.3031358078,
				"element": "N" 
			},
			{
				"x": -2.3199944273,
				"y": -0.8355043192,
				"z": -1.3915972506,
				"element": "N" 
			},
			{
				"x": -3.4687777797,
				"y": -1.1912692998,
				"z": -2.0269760673,
				"element": "C" 
			},
			{
				"x": -4.2639246131,
				"y": -0.1076173796,
				"z": -2.6802901513,
				"element": "C" 
			},
			{
				"x": -3.7894896303,
				"y": -2.5315557593,
				"z": -2.0049894594,
				"element": "C" 
			},
			{
				"x": -2.5298413431,
				"y": -5.4859625909,
				"z": -0.7822240352,
				"element": "H" 
			},
			{
				"x": -3.3742209276,
				"y": -5.3279875412,
				"z": -2.3410473704,
				"element": "H" 
			},
			{
				"x": -4.2637148145,
				"y": -5.0909914744,
				"z": -0.837125587,
				"element": "H" 
			},
			{
				"x": 0.5403312603,
				"y": -2.6962976155,
				"z": 0.7151438388,
				"element": "H" 
			},
			{
				"x": 0.6733610974,
				"y": -1.1977211032,
				"z": 1.6210513679,
				"element": "H" 
			},
			{
				"x": 2.8381079104,
				"y": -0.3229327197,
				"z": 1.7390081202,
				"element": "H" 
			},
			{
				"x": 5.0990106668,
				"y": 0.0829379515,
				"z": 0.7554747534,
				"element": "H" 
			},
			{
				"x": 3.9103941647,
				"y": -1.9432744371,
				"z": -2.8263455333,
				"element": "H" 
			},
			{
				"x": 1.6393445835,
				"y": -2.3334734526,
				"z": -1.8597438696,
				"element": "H" 
			},
			{
				"x": -0.1525019087,
				"y": 2.1951188827,
				"z": -0.7911526071,
				"element": "H" 
			},
			{
				"x": 1.0570492387,
				"y": 1.1954031306,
				"z": -0.1750555845,
				"element": "H" 
			},
			{
				"x": -5.1597057097,
				"y": -0.5195693923,
				"z": -3.1480988267,
				"element": "H" 
			},
			{
				"x": -4.5514023487,
				"y": 0.6508521778,
				"z": -1.9448915619,
				"element": "H" 
			},
			{
				"x": -3.6609825418,
				"y": 0.4063781319,
				"z": -3.4360046573,
				"element": "H" 
			},
			{
				"x": -4.6949083832,
				"y": -2.8675382667,
				"z": -2.4970401125,
				"element": "H" 
			}
		],
		 "valence_orbital": [ 
			{
				"type": "occ",
				"energy": -0.2587,
				"method": "rhf"
			},
			{
				"type": "occ",
				"energy": -0.25607,
				"method": "rhf"
			},
			{
				"type": "occ",
				"energy": -0.2372,
				"method": "rhf"
			},
			{
				"type": "occ",
				"energy": -0.21456,
				"method": "rhf"
			},
			{
				"type": "occ",
				"energy": -0.19712,
				"method": "rhf"
			},
			{
				"type": "unocc",
				"energy": -0.03154,
				"method": "rhf"
			},
			{
				"type": "unocc",
				"energy": -0.01138,
				"method": "rhf"
			},
			{
				"type": "unocc",
				"energy": 0.00046,
				"method": "rhf"
			},
			{
				"type": "unocc",
				"energy": 0.0091,
				"method": "rhf"
			},
			{
				"type": "unocc",
				"energy": 0.0719,
				"method": "rhf"
			}
		],
		"cosmo_sigma_profile": { 
			"-0.025": 0.0,
			"-0.024": 0.0,
			"-0.023": 0.0,
			"-0.022": 0.0,
			"-0.021": 0.0,
			"-0.02": 0.0,
			"-0.019": 0.0,
			"-0.018": 0.0,
			"-0.017": 0.0,
			"-0.016": 0.0,
			"-0.015": 0.0,
			"-0.014": 0.0,
			"-0.013": 0.215851650738,
			"-0.012": 0.979623337376,
			"-0.011": 1.19225911857,
			"-0.01": 1.73374545942,
			"-0.009": 2.24383566956,
			"-0.008": 1.36259893439,
			"-0.007": 5.40509326285,
			"-0.006": 13.5513742801,
			"-0.005": 21.8389663724,
			"-0.004": 26.2601024229,
			"-0.003": 24.3287337385,
			"-0.002": 25.2074262212,
			"-0.001": 30.6215916821,
			"0.0": 24.679558814,
			"0.001": 24.3218421137,
			"0.002": 23.0930640553,
			"0.003": 22.1600839777,
			"0.004": 22.3431098446,
			"0.005": 13.1108546031,
			"0.006": 4.7596453232,
			"0.007": 4.18541835144,
			"0.008": 3.06954606009,
			"0.009": 4.03005629332,
			"0.01": 3.55037425201,
			"0.011": 2.23088288738,
			"0.012": 2.44659399337,
			"0.013": 3.0707922132,
			"0.014": 1.37261108239,
			"0.015": 0.12253066614,
			"0.016": 0.0,
			"0.017": 0.0,
			"0.018": 0.0,
			"0.019": 0.0,
			"0.02": 0.0,
			"0.021": 0.0,
			"0.022": 0.0,
			"0.023": 0.0,
			"0.024": 0.0,
			"0.025": 0.0
		}
	}
}
