{
	 "smiles": "CCOC1=CC=C(NC(=O)C2=CC=C(NC(=O)CCl)C=C2)C=C1", 
	 "Tm": 527.15, 
	 "num_atms": 40, 
	 "gaussian": { 
		 "optdone": 1, 
		 "sigma_profile": "yes", 
		 "theory": "DFT", 
		 "functional": "B3LYP", 
		 "basiset": "6-31G**", 
		 "properties": { 
			 "R2extent": 12572.3965, 
			 "electric_dipole_moment_norm": 5.26698281182, 
			 "electric_quadrupole_moment_norm": 20.1825272486, 
			 "total_energy": -1453.45084086, 
			 "HOMO_LUMO_gap": 0.167, 
			 "cosmo_polarized_energy": -20.52, 
			 "cosmo_cavitation_energy": 46.33, 
			 "cosmo_dispersion_energy": -32.53, 
			 "cosmo_repulsion_energy": 2.53, 
			 "cosmo_total_nonelectrostatic_energy": 16.34, 
			 "SMD_solvation_energy": 8.95 
		},
		"coords": [
			{
				"x": -1.1208688305,
				"y": 1.0937090632,
				"z": -4.3349385953,
				"element": "C" 
			},
			{
				"x": -0.6857086128,
				"y": 2.5301837799,
				"z": -4.0626777294,
				"element": "C" 
			},
			{
				"x": 0.6245914623,
				"y": 2.610047003,
				"z": -3.4953427603,
				"element": "O" 
			},
			{
				"x": 0.8044074287,
				"y": 2.3937933579,
				"z": -2.159661782,
				"element": "C" 
			},
			{
				"x": 2.1317337967,
				"y": 2.4736300523,
				"z": -1.7103158722,
				"element": "C" 
			},
			{
				"x": 2.4340434984,
				"y": 2.2758767414,
				"z": -0.3695524752,
				"element": "C" 
			},
			{
				"x": 1.4189826083,
				"y": 2.0136706203,
				"z": 0.5632025604,
				"element": "C" 
			},
			{
				"x": 1.7637154947,
				"y": 1.8638534687,
				"z": 1.9362562288,
				"element": "N" 
			},
			{
				"x": 1.2134164818,
				"y": 1.0416191681,
				"z": 2.9049582523,
				"element": "C" 
			},
			{
				"x": 1.3013641893,
				"y": 1.3535278445,
				"z": 4.0887721214,
				"element": "O" 
			},
			{
				"x": 0.5795344276,
				"y": -0.2529591513,
				"z": 2.4944927583,
				"element": "C" 
			},
			{
				"x": 0.9779460005,
				"y": -0.9959330987,
				"z": 1.3736850338,
				"element": "C" 
			},
			{
				"x": 0.4048894722,
				"y": -2.2339365219,
				"z": 1.111603848,
				"element": "C" 
			},
			{
				"x": -0.5880911294,
				"y": -2.7542158425,
				"z": 1.9573298909,
				"element": "C" 
			},
			{
				"x": -1.1278736688,
				"y": -4.0117204022,
				"z": 1.6155903263,
				"element": "N" 
			},
			{
				"x": -2.0979981633,
				"y": -4.7210169572,
				"z": 2.2574187347,
				"element": "C" 
			},
			{
				"x": -2.6929516222,
				"y": -4.3857956989,
				"z": 3.2716050052,
				"element": "O" 
			},
			{
				"x": -2.4843047876,
				"y": -6.0780717011,
				"z": 1.655576719,
				"element": "C" 
			},
			{
				"x": -1.6432763907,
				"y": -6.5816856114,
				"z": 0.1258579433,
				"element": "Cl" 
			},
			{
				"x": -0.9887594133,
				"y": -2.0241121719,
				"z": 3.0874039965,
				"element": "C" 
			},
			{
				"x": -0.3912326606,
				"y": -0.7948953123,
				"z": 3.3472576657,
				"element": "C" 
			},
			{
				"x": 0.0960317928,
				"y": 1.9569201882,
				"z": 0.1162782575,
				"element": "C" 
			},
			{
				"x": -0.2132599904,
				"y": 2.1256093751,
				"z": -1.2349957391,
				"element": "C" 
			},
			{
				"x": -0.3985279629,
				"y": 0.5977373824,
				"z": -4.9894746943,
				"element": "H" 
			},
			{
				"x": -2.097553422,
				"y": 1.0856647481,
				"z": -4.8303301035,
				"element": "H" 
			},
			{
				"x": -1.2012304801,
				"y": 0.5117984912,
				"z": -3.4128125578,
				"element": "H" 
			},
			{
				"x": -0.6087751549,
				"y": 3.0861297423,
				"z": -5.0013017424,
				"element": "H" 
			},
			{
				"x": -1.4085129542,
				"y": 3.0588945333,
				"z": -3.4283817841,
				"element": "H" 
			},
			{
				"x": 2.9109096893,
				"y": 2.6850565931,
				"z": -2.4351160024,
				"element": "H" 
			},
			{
				"x": 3.466106202,
				"y": 2.3217786183,
				"z": -0.03351182,
				"element": "H" 
			},
			{
				"x": 2.2580503945,
				"y": 2.6393447861,
				"z": 2.3629227565,
				"element": "H" 
			},
			{
				"x": 1.7466501058,
				"y": -0.6171639104,
				"z": 0.7099504109,
				"element": "H" 
			},
			{
				"x": 0.7307340002,
				"y": -2.8060386102,
				"z": 0.2460719519,
				"element": "H" 
			},
			{
				"x": -0.7458528751,
				"y": -4.4448491066,
				"z": 0.7842364653,
				"element": "H" 
			},
			{
				"x": -3.5534443045,
				"y": -6.062213631,
				"z": 1.4438341689,
				"element": "H" 
			},
			{
				"x": -2.283577364,
				"y": -6.8492429856,
				"z": 2.3997227394,
				"element": "H" 
			},
			{
				"x": -1.7460601506,
				"y": -2.4275833787,
				"z": 3.7442983184,
				"element": "H" 
			},
			{
				"x": -0.6676903909,
				"y": -0.2340229853,
				"z": 4.233696091,
				"element": "H" 
			},
			{
				"x": -0.703507922,
				"y": 1.7759640304,
				"z": 0.8268158002,
				"element": "H" 
			},
			{
				"x": -1.2495487946,
				"y": 2.0622474892,
				"z": -1.5441243865,
				"element": "H" 
			}
		],
		 "valence_orbital": [ 
			{
				"type": "occ",
				"energy": -0.2635,
				"method": "rhf"
			},
			{
				"type": "occ",
				"energy": -0.25868,
				"method": "rhf"
			},
			{
				"type": "occ",
				"energy": -0.2499,
				"method": "rhf"
			},
			{
				"type": "occ",
				"energy": -0.23135,
				"method": "rhf"
			},
			{
				"type": "occ",
				"energy": -0.21074,
				"method": "rhf"
			},
			{
				"type": "unocc",
				"energy": -0.04374,
				"method": "rhf"
			},
			{
				"type": "unocc",
				"energy": -0.01642,
				"method": "rhf"
			},
			{
				"type": "unocc",
				"energy": -0.00597,
				"method": "rhf"
			},
			{
				"type": "unocc",
				"energy": 4e-05,
				"method": "rhf"
			},
			{
				"type": "unocc",
				"energy": 0.00357,
				"method": "rhf"
			}
		],
		"cosmo_sigma_profile": { 
			"-0.025": 0.0,
			"-0.024": 0.0,
			"-0.023": 0.0,
			"-0.022": 0.0,
			"-0.021": 0.0,
			"-0.02": 0.0,
			"-0.019": 0.0,
			"-0.018": 0.0,
			"-0.017": 0.0,
			"-0.016": 0.0,
			"-0.015": 0.0,
			"-0.014": 0.855970137299,
			"-0.013": 1.95430764686,
			"-0.012": 1.8422956093,
			"-0.011": 2.13160777288,
			"-0.01": 2.83421230002,
			"-0.009": 5.86163338926,
			"-0.008": 6.56244066783,
			"-0.007": 9.45613895073,
			"-0.006": 17.2859841449,
			"-0.005": 25.8717295875,
			"-0.004": 27.4251787977,
			"-0.003": 26.643423018,
			"-0.002": 23.7985861411,
			"-0.001": 26.0346667502,
			"0.0": 29.659892482,
			"0.001": 24.7269095612,
			"0.002": 23.0767894166,
			"0.003": 26.9794655046,
			"0.004": 28.2192897717,
			"0.005": 18.2122940038,
			"0.006": 5.43255652498,
			"0.007": 3.52525293977,
			"0.008": 5.19389551554,
			"0.009": 4.2368809884,
			"0.01": 4.11548650209,
			"0.011": 5.03390288304,
			"0.012": 5.18809876089,
			"0.013": 6.24046765683,
			"0.014": 2.93741856921,
			"0.015": 0.0281744698474,
			"0.016": 0.0,
			"0.017": 0.0,
			"0.018": 0.0,
			"0.019": 0.0,
			"0.02": 0.0,
			"0.021": 0.0,
			"0.022": 0.0,
			"0.023": 0.0,
			"0.024": 0.0,
			"0.025": 0.0
		}
	}
}
