{
	 "smiles": "OC(=O)CCSC1=C(F)C=CC=C1", 
	 "Tm": 392.15, 
	 "num_atms": 22, 
	 "gaussian": { 
		 "optdone": 1, 
		 "sigma_profile": "yes", 
		 "theory": "DFT", 
		 "functional": "B3LYP", 
		 "basiset": "6-31G**", 
		 "properties": { 
			 "R2extent": 3413.2137, 
			 "electric_dipole_moment_norm": 2.283034853, 
			 "electric_quadrupole_moment_norm": 11.6040256532, 
			 "total_energy": -996.866105997, 
			 "HOMO_LUMO_gap": 0.20261, 
			 "cosmo_polarized_energy": -11.33, 
			 "cosmo_cavitation_energy": 28.51, 
			 "cosmo_dispersion_energy": -20.73, 
			 "cosmo_repulsion_energy": 1.61, 
			 "cosmo_total_nonelectrostatic_energy": 9.39, 
			 "SMD_solvation_energy": 5.95 
		},
		"coords": [
			{
				"x": -0.5792273386,
				"y": -4.5197971972,
				"z": 0.4223316934,
				"element": "O" 
			},
			{
				"x": 0.392362383,
				"y": -3.6076893386,
				"z": 0.665799908,
				"element": "C" 
			},
			{
				"x": 1.5707165925,
				"y": -3.8918660026,
				"z": 0.6599951369,
				"element": "O" 
			},
			{
				"x": -0.1889131281,
				"y": -2.2376970143,
				"z": 0.9412060434,
				"element": "C" 
			},
			{
				"x": 0.9034847727,
				"y": -1.1919797963,
				"z": 1.1578469187,
				"element": "C" 
			},
			{
				"x": 0.2851407079,
				"y": 0.48303089,
				"z": 1.6151648714,
				"element": "S" 
			},
			{
				"x": -0.1739635714,
				"y": 1.1807692363,
				"z": 0.0313401676,
				"element": "C" 
			},
			{
				"x": -1.392433821,
				"y": 0.886245644,
				"z": -0.5921082923,
				"element": "C" 
			},
			{
				"x": -2.2293471716,
				"y": -0.0120551122,
				"z": -0.0312206318,
				"element": "F" 
			},
			{
				"x": -1.7796547511,
				"y": 1.4777694236,
				"z": -1.7890317324,
				"element": "C" 
			},
			{
				"x": -0.9319720812,
				"y": 2.4095179219,
				"z": -2.3881919453,
				"element": "C" 
			},
			{
				"x": 0.2870405141,
				"y": 2.7342331591,
				"z": -1.7896243916,
				"element": "C" 
			},
			{
				"x": 0.6581102816,
				"y": 2.1233195874,
				"z": -0.5915235878,
				"element": "C" 
			},
			{
				"x": -0.1232409094,
				"y": -5.3638914397,
				"z": 0.2652722139,
				"element": "H" 
			},
			{
				"x": -0.8522725966,
				"y": -1.9671904961,
				"z": 0.1150945102,
				"element": "H" 
			},
			{
				"x": -0.8375873245,
				"y": -2.3121184629,
				"z": 1.8217060142,
				"element": "H" 
			},
			{
				"x": 1.5474219053,
				"y": -1.1016877135,
				"z": 0.2805564894,
				"element": "H" 
			},
			{
				"x": 1.5449738124,
				"y": -1.4846936968,
				"z": 1.9934441752,
				"element": "H" 
			},
			{
				"x": -2.734518478,
				"y": 1.2055114974,
				"z": -2.2258738791,
				"element": "H" 
			},
			{
				"x": -1.226926217,
				"y": 2.8794382862,
				"z": -3.321527486,
				"element": "H" 
			},
			{
				"x": 0.9475250844,
				"y": 3.4604565486,
				"z": -2.2528685533,
				"element": "H" 
			},
			{
				"x": 1.6018813346,
				"y": 2.3710740753,
				"z": -0.1163876427,
				"element": "H" 
			}
		],
		 "valence_orbital": [ 
			{
				"type": "occ",
				"energy": -0.31977,
				"method": "rhf"
			},
			{
				"type": "occ",
				"energy": -0.27929,
				"method": "rhf"
			},
			{
				"type": "occ",
				"energy": -0.26549,
				"method": "rhf"
			},
			{
				"type": "occ",
				"energy": -0.25426,
				"method": "rhf"
			},
			{
				"type": "occ",
				"energy": -0.23197,
				"method": "rhf"
			},
			{
				"type": "unocc",
				"energy": -0.02936,
				"method": "rhf"
			},
			{
				"type": "unocc",
				"energy": -0.01045,
				"method": "rhf"
			},
			{
				"type": "unocc",
				"energy": 0.00811,
				"method": "rhf"
			},
			{
				"type": "unocc",
				"energy": 0.0426,
				"method": "rhf"
			},
			{
				"type": "unocc",
				"energy": 0.06563,
				"method": "rhf"
			}
		],
		"cosmo_sigma_profile": { 
			"-0.025": 0.0,
			"-0.024": 0.0,
			"-0.023": 0.0,
			"-0.022": 0.0,
			"-0.021": 0.0,
			"-0.02": 0.0,
			"-0.019": 0.0461004968433,
			"-0.018": 0.723805169055,
			"-0.017": 0.830146139344,
			"-0.016": 0.973007951511,
			"-0.015": 0.883768502809,
			"-0.014": 0.651661183628,
			"-0.013": 0.324521264807,
			"-0.012": 0.567171216483,
			"-0.011": 1.25511153542,
			"-0.01": 0.408177389573,
			"-0.009": 0.324817875825,
			"-0.008": 1.29920714156,
			"-0.007": 6.44444182227,
			"-0.006": 15.4916266165,
			"-0.005": 19.4099883562,
			"-0.004": 14.6755530186,
			"-0.003": 13.9579879088,
			"-0.002": 14.2305518481,
			"-0.001": 13.1604506162,
			"0.0": 15.99868185,
			"0.001": 17.4144607476,
			"0.002": 15.9340824029,
			"0.003": 17.2988084242,
			"0.004": 16.310830966,
			"0.005": 8.18966790164,
			"0.006": 5.79954390202,
			"0.007": 5.37905408846,
			"0.008": 5.36272894361,
			"0.009": 4.90310262633,
			"0.01": 2.54855760836,
			"0.011": 4.01084107232,
			"0.012": 3.83121879871,
			"0.013": 0.157397298392,
			"0.014": 0.0,
			"0.015": 0.0,
			"0.016": 0.0,
			"0.017": 0.0,
			"0.018": 0.0,
			"0.019": 0.0,
			"0.02": 0.0,
			"0.021": 0.0,
			"0.022": 0.0,
			"0.023": 0.0,
			"0.024": 0.0,
			"0.025": 0.0
		}
	}
}
