{
	 "smiles": "CCCCOC1=CC=C(OCCCC)C=C1", 
	 "Tm": 318.65, 
	 "num_atms": 38, 
	 "gaussian": { 
		 "optdone": 1, 
		 "sigma_profile": "yes", 
		 "theory": "DFT", 
		 "functional": "B3LYP", 
		 "basiset": "6-31G**", 
		 "properties": { 
			 "R2extent": 7921.8874, 
			 "electric_dipole_moment_norm": 1.98940029657, 
			 "electric_quadrupole_moment_norm": 10.1120102146, 
			 "total_energy": -697.201028822, 
			 "HOMO_LUMO_gap": 0.19659, 
			 "cosmo_polarized_energy": -7.16, 
			 "cosmo_cavitation_energy": 39.8, 
			 "cosmo_dispersion_energy": -28.48, 
			 "cosmo_repulsion_energy": 2.29, 
			 "cosmo_total_nonelectrostatic_energy": 13.61, 
			 "SMD_solvation_energy": 6.65 
		},
		"coords": [
			{
				"x": -1.7828549116,
				"y": 6.3238730728,
				"z": 0.7802542558,
				"element": "C" 
			},
			{
				"x": -1.0643178874,
				"y": 6.1100728807,
				"z": -0.5583882536,
				"element": "C" 
			},
			{
				"x": -1.3972731598,
				"y": 4.7836265264,
				"z": -1.2596897226,
				"element": "C" 
			},
			{
				"x": -0.9078772892,
				"y": 3.5507569532,
				"z": -0.5085187842,
				"element": "C" 
			},
			{
				"x": -1.2161214857,
				"y": 2.4130654431,
				"z": -1.306747145,
				"element": "O" 
			},
			{
				"x": -0.8819585546,
				"y": 1.1726553782,
				"z": -0.832353624,
				"element": "C" 
			},
			{
				"x": -0.2372135423,
				"y": 0.9240903879,
				"z": 0.3796717224,
				"element": "C" 
			},
			{
				"x": 0.0593123111,
				"y": -0.391261896,
				"z": 0.7682087546,
				"element": "C" 
			},
			{
				"x": -0.2863343492,
				"y": -1.4637841804,
				"z": -0.0543709396,
				"element": "C" 
			},
			{
				"x": -0.0454962269,
				"y": -2.7820409206,
				"z": 0.2288219326,
				"element": "O" 
			},
			{
				"x": 0.6263297678,
				"y": -3.1060191096,
				"z": 1.4420424708,
				"element": "C" 
			},
			{
				"x": 0.7810676437,
				"y": -4.6218282098,
				"z": 1.5046357717,
				"element": "C" 
			},
			{
				"x": 1.6140945316,
				"y": -5.2318116424,
				"z": 0.3654115673,
				"element": "C" 
			},
			{
				"x": 3.0896374755,
				"y": -4.8159098626,
				"z": 0.3672671646,
				"element": "C" 
			},
			{
				"x": -0.9353144343,
				"y": -1.2089413711,
				"z": -1.274243457,
				"element": "C" 
			},
			{
				"x": -1.2288601509,
				"y": 0.0893228089,
				"z": -1.6572842356,
				"element": "C" 
			},
			{
				"x": -2.8700807264,
				"y": 6.256072753,
				"z": 0.6588450123,
				"element": "H" 
			},
			{
				"x": -1.4879829654,
				"y": 5.5825086366,
				"z": 1.5303385407,
				"element": "H" 
			},
			{
				"x": -1.5560682284,
				"y": 7.3121429639,
				"z": 1.193202581,
				"element": "H" 
			},
			{
				"x": 0.0217165863,
				"y": 6.1803295482,
				"z": -0.4076701087,
				"element": "H" 
			},
			{
				"x": -1.3261846455,
				"y": 6.9304979084,
				"z": -1.2372953427,
				"element": "H" 
			},
			{
				"x": -0.943801193,
				"y": 4.7701718004,
				"z": -2.2576415886,
				"element": "H" 
			},
			{
				"x": -2.4811840186,
				"y": 4.6977099294,
				"z": -1.4069814652,
				"element": "H" 
			},
			{
				"x": 0.1784209263,
				"y": 3.6113098249,
				"z": -0.3378088842,
				"element": "H" 
			},
			{
				"x": -1.3942533482,
				"y": 3.4606521268,
				"z": 0.4731007457,
				"element": "H" 
			},
			{
				"x": 0.0448882086,
				"y": 1.7367319438,
				"z": 1.0385334561,
				"element": "H" 
			},
			{
				"x": 0.5590038129,
				"y": -0.5531682343,
				"z": 1.7158839263,
				"element": "H" 
			},
			{
				"x": 0.0421357614,
				"y": -2.7486655975,
				"z": 2.3028783843,
				"element": "H" 
			},
			{
				"x": 1.6044483086,
				"y": -2.604610664,
				"z": 1.4747787594,
				"element": "H" 
			},
			{
				"x": -0.2213099748,
				"y": -5.0664172156,
				"z": 1.501898449,
				"element": "H" 
			},
			{
				"x": 1.2341518306,
				"y": -4.8702903075,
				"z": 2.4740521294,
				"element": "H" 
			},
			{
				"x": 1.1547993371,
				"y": -4.9586766744,
				"z": -0.590976334,
				"element": "H" 
			},
			{
				"x": 1.548893415,
				"y": -6.3243958968,
				"z": 0.4402770764,
				"element": "H" 
			},
			{
				"x": 3.6397069075,
				"y": -5.3230505511,
				"z": -0.4320372612,
				"element": "H" 
			},
			{
				"x": 3.5749361781,
				"y": -5.0709992563,
				"z": 1.3169926885,
				"element": "H" 
			},
			{
				"x": 3.2112518511,
				"y": -3.7389935036,
				"z": 0.2102378087,
				"element": "H" 
			},
			{
				"x": -1.1999963584,
				"y": -2.0506851036,
				"z": -1.9061038433,
				"element": "H" 
			},
			{
				"x": -1.7300114023,
				"y": 0.2942593104,
				"z": -2.597822208,
				"element": "H" 
			}
		],
		 "valence_orbital": [ 
			{
				"type": "occ",
				"energy": -0.31725,
				"method": "rhf"
			},
			{
				"type": "occ",
				"energy": -0.30772,
				"method": "rhf"
			},
			{
				"type": "occ",
				"energy": -0.27977,
				"method": "rhf"
			},
			{
				"type": "occ",
				"energy": -0.24412,
				"method": "rhf"
			},
			{
				"type": "occ",
				"energy": -0.19235,
				"method": "rhf"
			},
			{
				"type": "unocc",
				"energy": 0.00424,
				"method": "rhf"
			},
			{
				"type": "unocc",
				"energy": 0.0324,
				"method": "rhf"
			},
			{
				"type": "unocc",
				"energy": 0.08187,
				"method": "rhf"
			},
			{
				"type": "unocc",
				"energy": 0.08816,
				"method": "rhf"
			},
			{
				"type": "unocc",
				"energy": 0.09987,
				"method": "rhf"
			}
		],
		"cosmo_sigma_profile": { 
			"-0.025": 0.0,
			"-0.024": 0.0,
			"-0.023": 0.0,
			"-0.022": 0.0,
			"-0.021": 0.0,
			"-0.02": 0.0,
			"-0.019": 0.0,
			"-0.018": 0.0,
			"-0.017": 0.0,
			"-0.016": 0.0,
			"-0.015": 0.0,
			"-0.014": 0.0,
			"-0.013": 0.0,
			"-0.012": 0.0,
			"-0.011": 0.0,
			"-0.01": 0.0,
			"-0.009": 0.0,
			"-0.008": 0.0,
			"-0.007": 0.0355332302247,
			"-0.006": 3.97713894949,
			"-0.005": 10.9975985048,
			"-0.004": 20.6790580004,
			"-0.003": 36.8092325997,
			"-0.002": 42.2599924145,
			"-0.001": 42.5874768444,
			"0.0": 38.9557606677,
			"0.001": 34.8721098882,
			"0.002": 16.3541236657,
			"0.003": 10.0241605854,
			"0.004": 13.4614147924,
			"0.005": 14.8189309757,
			"0.006": 12.5845494447,
			"0.007": 3.74079178189,
			"0.008": 2.69354308895,
			"0.009": 2.23917116444,
			"0.01": 2.25482144612,
			"0.011": 0.757401731259,
			"0.012": 0.0,
			"0.013": 0.0,
			"0.014": 0.0,
			"0.015": 0.0,
			"0.016": 0.0,
			"0.017": 0.0,
			"0.018": 0.0,
			"0.019": 0.0,
			"0.02": 0.0,
			"0.021": 0.0,
			"0.022": 0.0,
			"0.023": 0.0,
			"0.024": 0.0,
			"0.025": 0.0
		}
	}
}
