{
	 "smiles": "NCC1=CC(=NO1)C(N)=O", 
	 "Tm": 423.15, 
	 "num_atms": 17, 
	 "gaussian": { 
		 "optdone": 1, 
		 "sigma_profile": "yes", 
		 "theory": "DFT", 
		 "functional": "B3LYP", 
		 "basiset": "6-31G**", 
		 "properties": { 
			 "R2extent": 2823.1948, 
			 "electric_dipole_moment_norm": 1.31457820231, 
			 "electric_quadrupole_moment_norm": 12.2053291377, 
			 "total_energy": -509.411790002, 
			 "HOMO_LUMO_gap": 0.2062, 
			 "cosmo_polarized_energy": -15.36, 
			 "cosmo_cavitation_energy": 22.17, 
			 "cosmo_dispersion_energy": -16.41, 
			 "cosmo_repulsion_energy": 1.38, 
			 "cosmo_total_nonelectrostatic_energy": 7.13, 
			 "SMD_solvation_energy": 3.4 
		},
		"coords": [
			{
				"x": 0.3320181224,
				"y": 0.1058973425,
				"z": -1.8490769262,
				"element": "N" 
			},
			{
				"x": 1.3804093881,
				"y": -0.5034117836,
				"z": -1.0257716464,
				"element": "C" 
			},
			{
				"x": 1.132760546,
				"y": -0.4879826154,
				"z": 0.4557504761,
				"element": "C" 
			},
			{
				"x": 1.7279111812,
				"y": 0.1279893345,
				"z": 1.5157678165,
				"element": "C" 
			},
			{
				"x": 0.9349469746,
				"y": -0.2671668193,
				"z": 2.6273759374,
				"element": "C" 
			},
			{
				"x": -0.0588494309,
				"y": -1.0531494983,
				"z": 2.2711507125,
				"element": "N" 
			},
			{
				"x": 0.0612596537,
				"y": -1.1998985489,
				"z": 0.8948693127,
				"element": "O" 
			},
			{
				"x": 1.1492848117,
				"y": 0.1290276652,
				"z": 4.0572431042,
				"element": "C" 
			},
			{
				"x": 0.2474015249,
				"y": -0.3924072656,
				"z": 4.9297482748,
				"element": "N" 
			},
			{
				"x": 2.0742046003,
				"y": 0.8662320923,
				"z": 4.3716119052,
				"element": "O" 
			},
			{
				"x": 0.1843617052,
				"y": 1.0706582243,
				"z": -1.5614554359,
				"element": "H" 
			},
			{
				"x": -0.5488933903,
				"y": -0.3780725496,
				"z": -1.6928557411,
				"element": "H" 
			},
			{
				"x": 2.3268050885,
				"y": 0.0115824187,
				"z": -1.2162312754,
				"element": "H" 
			},
			{
				"x": 1.5113152736,
				"y": -1.5404052368,
				"z": -1.3561340269,
				"element": "H" 
			},
			{
				"x": 2.5963851757,
				"y": 0.76665415,
				"z": 1.532792775,
				"element": "H" 
			},
			{
				"x": -0.4905065098,
				"y": -1.0009219412,
				"z": 4.6093503109,
				"element": "H" 
			},
			{
				"x": 0.3385852849,
				"y": -0.1690249689,
				"z": 5.9081644264,
				"element": "H" 
			}
		],
		 "valence_orbital": [ 
			{
				"type": "occ",
				"energy": -0.30464,
				"method": "rhf"
			},
			{
				"type": "occ",
				"energy": -0.27969,
				"method": "rhf"
			},
			{
				"type": "occ",
				"energy": -0.27183,
				"method": "rhf"
			},
			{
				"type": "occ",
				"energy": -0.26299,
				"method": "rhf"
			},
			{
				"type": "occ",
				"energy": -0.25172,
				"method": "rhf"
			},
			{
				"type": "unocc",
				"energy": -0.04552,
				"method": "rhf"
			},
			{
				"type": "unocc",
				"energy": 0.00912,
				"method": "rhf"
			},
			{
				"type": "unocc",
				"energy": 0.06856,
				"method": "rhf"
			},
			{
				"type": "unocc",
				"energy": 0.08807,
				"method": "rhf"
			},
			{
				"type": "unocc",
				"energy": 0.10658,
				"method": "rhf"
			}
		],
		"cosmo_sigma_profile": { 
			"-0.025": 0.0,
			"-0.024": 0.0,
			"-0.023": 0.0,
			"-0.022": 0.0,
			"-0.021": 0.0,
			"-0.02": 0.0,
			"-0.019": 0.0,
			"-0.018": 0.0,
			"-0.017": 0.0,
			"-0.016": 0.0,
			"-0.015": 0.63159462854,
			"-0.014": 1.46474817165,
			"-0.013": 1.41641243791,
			"-0.012": 2.11757016034,
			"-0.011": 2.35493401866,
			"-0.01": 5.05526335116,
			"-0.009": 5.06697392156,
			"-0.008": 5.51207733051,
			"-0.007": 6.71195021009,
			"-0.006": 11.7334311678,
			"-0.005": 9.32309818893,
			"-0.004": 9.14455890609,
			"-0.003": 9.97069117814,
			"-0.002": 8.61742465679,
			"-0.001": 10.1167497526,
			"0.0": 12.3729244308,
			"0.001": 10.4756071879,
			"0.002": 7.85741554557,
			"0.003": 6.00104347348,
			"0.004": 4.66336746929,
			"0.005": 4.38719936001,
			"0.006": 4.71334088667,
			"0.007": 7.07307570168,
			"0.008": 3.85491604364,
			"0.009": 3.85289305305,
			"0.01": 2.8955488963,
			"0.011": 2.97979023116,
			"0.012": 3.92274868402,
			"0.013": 6.38799884267,
			"0.014": 2.10909116381,
			"0.015": 0.925351449931,
			"0.016": 0.388212397342,
			"0.017": 0.568231212641,
			"0.018": 0.794177860539,
			"0.019": 0.0852778607399,
			"0.02": 0.0,
			"0.021": 0.0,
			"0.022": 0.0,
			"0.023": 0.0,
			"0.024": 0.0,
			"0.025": 0.0
		}
	}
}
