{
	 "smiles": "CCOC(=O)C1=C(N)SC=C1C1CC1", 
	 "Tm": 344.15, 
	 "num_atms": 27, 
	 "gaussian": { 
		 "optdone": 1, 
		 "sigma_profile": "yes", 
		 "theory": "DFT", 
		 "functional": "B3LYP", 
		 "basiset": "6-31G**", 
		 "properties": { 
			 "R2extent": 3721.3748, 
			 "electric_dipole_moment_norm": 0.789170000697, 
			 "electric_quadrupole_moment_norm": 8.57695145783, 
			 "total_energy": -992.268182179, 
			 "HOMO_LUMO_gap": 0.17928, 
			 "cosmo_polarized_energy": -9.35, 
			 "cosmo_cavitation_energy": 31.39, 
			 "cosmo_dispersion_energy": -22.82, 
			 "cosmo_repulsion_energy": 1.77, 
			 "cosmo_total_nonelectrostatic_energy": 10.34, 
			 "SMD_solvation_energy": 5.69 
		},
		"coords": [
			{
				"x": -1.1699383551,
				"y": 0.4800113229,
				"z": -2.7723100039,
				"element": "C" 
			},
			{
				"x": -1.905372892,
				"y": 0.1145530341,
				"z": -1.4910670319,
				"element": "C" 
			},
			{
				"x": -1.0491762539,
				"y": 0.2417984793,
				"z": -0.3337860246,
				"element": "O" 
			},
			{
				"x": -0.2568870231,
				"y": -0.8174483623,
				"z": -0.0448601114,
				"element": "C" 
			},
			{
				"x": -0.2767587872,
				"y": -1.8461691734,
				"z": -0.7248846057,
				"element": "O" 
			},
			{
				"x": 0.5936407774,
				"y": -0.623118762,
				"z": 1.1235966477,
				"element": "C" 
			},
			{
				"x": 1.4272256924,
				"y": -1.6691891229,
				"z": 1.5322362907,
				"element": "C" 
			},
			{
				"x": 1.4993615543,
				"y": -2.9176538306,
				"z": 1.0027884343,
				"element": "N" 
			},
			{
				"x": 2.3865851381,
				"y": -1.2183379383,
				"z": 2.9208547846,
				"element": "S" 
			},
			{
				"x": 1.6641172497,
				"y": 0.3802448475,
				"z": 2.9451782607,
				"element": "C" 
			},
			{
				"x": 0.7468061268,
				"y": 0.5632754507,
				"z": 1.9574284026,
				"element": "C" 
			},
			{
				"x": 0.0042920187,
				"y": 1.8422370177,
				"z": 1.763977841,
				"element": "C" 
			},
			{
				"x": 0.4906285626,
				"y": 3.1416231568,
				"z": 2.358307785,
				"element": "C" 
			},
			{
				"x": 0.5575569408,
				"y": 2.9301467621,
				"z": 0.866449353,
				"element": "C" 
			},
			{
				"x": -0.7454058627,
				"y": 1.4860227665,
				"z": -2.7037757105,
				"element": "H" 
			},
			{
				"x": -1.8633618963,
				"y": 0.4558070469,
				"z": -3.6198826051,
				"element": "H" 
			},
			{
				"x": -0.3644328739,
				"y": -0.2319285503,
				"z": -2.9667692797,
				"element": "H" 
			},
			{
				"x": -2.7287517512,
				"y": 0.8057884815,
				"z": -1.2938427956,
				"element": "H" 
			},
			{
				"x": -2.2921516002,
				"y": -0.9059556844,
				"z": -1.5376287027,
				"element": "H" 
			},
			{
				"x": 0.9965813943,
				"y": -3.0219882304,
				"z": 0.1250151606,
				"element": "H" 
			},
			{
				"x": 2.3125007609,
				"y": -3.4859147416,
				"z": 1.1780672129,
				"element": "H" 
			},
			{
				"x": 1.962317163,
				"y": 1.07518521,
				"z": 3.7154136316,
				"element": "H" 
			},
			{
				"x": -1.0736296747,
				"y": 1.7216266531,
				"z": 1.7096284278,
				"element": "H" 
			},
			{
				"x": -0.2561035967,
				"y": 3.8239494586,
				"z": 2.7529422821,
				"element": "H" 
			},
			{
				"x": 1.428210339,
				"y": 3.1506693576,
				"z": 2.9049430567,
				"element": "H" 
			},
			{
				"x": 1.5372562995,
				"y": 2.7645042417,
				"z": 0.428581778,
				"element": "H" 
			},
			{
				"x": -0.1378094506,
				"y": 3.4654611091,
				"z": 0.2269975215,
				"element": "H" 
			}
		],
		 "valence_orbital": [ 
			{
				"type": "occ",
				"energy": -0.28868,
				"method": "rhf"
			},
			{
				"type": "occ",
				"energy": -0.28516,
				"method": "rhf"
			},
			{
				"type": "occ",
				"energy": -0.26849,
				"method": "rhf"
			},
			{
				"type": "occ",
				"energy": -0.24026,
				"method": "rhf"
			},
			{
				"type": "occ",
				"energy": -0.19412,
				"method": "rhf"
			},
			{
				"type": "unocc",
				"energy": -0.01484,
				"method": "rhf"
			},
			{
				"type": "unocc",
				"energy": 0.01547,
				"method": "rhf"
			},
			{
				"type": "unocc",
				"energy": 0.01949,
				"method": "rhf"
			},
			{
				"type": "unocc",
				"energy": 0.09015,
				"method": "rhf"
			},
			{
				"type": "unocc",
				"energy": 0.09703,
				"method": "rhf"
			}
		],
		"cosmo_sigma_profile": { 
			"-0.025": 0.0,
			"-0.024": 0.0,
			"-0.023": 0.0,
			"-0.022": 0.0,
			"-0.021": 0.0,
			"-0.02": 0.0,
			"-0.019": 0.0,
			"-0.018": 0.0,
			"-0.017": 0.0,
			"-0.016": 0.0,
			"-0.015": 0.386955475648,
			"-0.014": 1.48541010028,
			"-0.013": 1.14357658759,
			"-0.012": 1.64947770657,
			"-0.011": 1.04802095651,
			"-0.01": 1.29279050995,
			"-0.009": 2.17462358197,
			"-0.008": 2.74949624357,
			"-0.007": 3.14032325607,
			"-0.006": 4.47575805448,
			"-0.005": 8.87991979742,
			"-0.004": 17.8026765845,
			"-0.003": 25.1420397362,
			"-0.002": 20.3359186258,
			"-0.001": 20.0600701362,
			"0.0": 24.5097397859,
			"0.001": 21.2779452646,
			"0.002": 18.4030188336,
			"0.003": 21.8413778045,
			"0.004": 18.6200921852,
			"0.005": 14.9215525048,
			"0.006": 6.07471454012,
			"0.007": 3.54116964726,
			"0.008": 2.36611068952,
			"0.009": 1.43041523063,
			"0.01": 1.91288681189,
			"0.011": 1.67436135363,
			"0.012": 1.54614871415,
			"0.013": 0.462425410503,
			"0.014": 0.0,
			"0.015": 0.0,
			"0.016": 0.0,
			"0.017": 0.0,
			"0.018": 0.0,
			"0.019": 0.0,
			"0.02": 0.0,
			"0.021": 0.0,
			"0.022": 0.0,
			"0.023": 0.0,
			"0.024": 0.0,
			"0.025": 0.0
		}
	}
}
