{
	 "smiles": "[O-][N+](=O)C1=C(Br)C=CC(=C1)S(Cl)(=O)=O", 
	 "Tm": 327.15, 
	 "num_atms": 17, 
	 "gaussian": { 
		 "optdone": 1, 
		 "sigma_profile": "yes", 
		 "theory": "DFT", 
		 "functional": "B3LYP", 
		 "basiset": "6-31G**", 
		 "properties": { 
			 "R2extent": 5443.0204, 
			 "electric_dipole_moment_norm": 4.20602391101, 
			 "electric_quadrupole_moment_norm": 11.0245147086, 
			 "total_energy": -4015.68494301, 
			 "HOMO_LUMO_gap": 0.17759, 
			 "cosmo_polarized_energy": -12.55, 
			 "cosmo_cavitation_energy": 28.75, 
			 "cosmo_dispersion_energy": -21.69, 
			 "cosmo_repulsion_energy": 1.67, 
			 "cosmo_total_nonelectrostatic_energy": 8.73, 
			 "SMD_solvation_energy": 4.83 
		},
		"coords": [
			{
				"x": -0.4022849439,
				"y": 0.1037913963,
				"z": 3.7082240573,
				"element": "O" 
			},
			{
				"x": 0.5598401821,
				"y": 0.1104028612,
				"z": 2.9508664726,
				"element": "N" 
			},
			{
				"x": 1.7408861458,
				"y": 0.1221469653,
				"z": 3.2899353423,
				"element": "O" 
			},
			{
				"x": 0.2959144355,
				"y": 0.06384515,
				"z": 1.4963602068,
				"element": "C" 
			},
			{
				"x": -0.833159312,
				"y": 0.6412470203,
				"z": 0.8943729634,
				"element": "C" 
			},
			{
				"x": -2.1333066136,
				"y": 1.6518683321,
				"z": 1.8223827887,
				"element": "Br" 
			},
			{
				"x": -0.9993433426,
				"y": 0.5154062448,
				"z": -0.4910714321,
				"element": "C" 
			},
			{
				"x": -0.0741572501,
				"y": -0.1772696874,
				"z": -1.2631268292,
				"element": "C" 
			},
			{
				"x": 1.0431016741,
				"y": -0.7297234618,
				"z": -0.6351123251,
				"element": "C" 
			},
			{
				"x": 1.2474393366,
				"y": -0.6106988282,
				"z": 0.732790173,
				"element": "C" 
			},
			{
				"x": 2.2372056251,
				"y": -1.6383106034,
				"z": -1.6126539796,
				"element": "S" 
			},
			{
				"x": 3.5611537656,
				"y": -0.0813621319,
				"z": -2.1865190066,
				"element": "Cl" 
			},
			{
				"x": 2.9902255407,
				"y": -2.5244353798,
				"z": -0.7367986264,
				"element": "O" 
			},
			{
				"x": 1.5861469148,
				"y": -2.0976914152,
				"z": -2.8319549752,
				"element": "O" 
			},
			{
				"x": -1.8668625689,
				"y": 0.9676410753,
				"z": -0.9565725411,
				"element": "H" 
			},
			{
				"x": -0.2160767859,
				"y": -0.2906610277,
				"z": -2.3319971095,
				"element": "H" 
			},
			{
				"x": 2.1187771966,
				"y": -1.0337965097,
				"z": 1.2177748207,
				"element": "H" 
			}
		],
		 "valence_orbital": [ 
			{
				"type": "occ",
				"energy": -0.33196,
				"method": "rhf"
			},
			{
				"type": "occ",
				"energy": -0.33021,
				"method": "rhf"
			},
			{
				"type": "occ",
				"energy": -0.31681,
				"method": "rhf"
			},
			{
				"type": "occ",
				"energy": -0.30271,
				"method": "rhf"
			},
			{
				"type": "occ",
				"energy": -0.29536,
				"method": "rhf"
			},
			{
				"type": "unocc",
				"energy": -0.11777,
				"method": "rhf"
			},
			{
				"type": "unocc",
				"energy": -0.10699,
				"method": "rhf"
			},
			{
				"type": "unocc",
				"energy": -0.07148,
				"method": "rhf"
			},
			{
				"type": "unocc",
				"energy": -0.04716,
				"method": "rhf"
			},
			{
				"type": "unocc",
				"energy": -0.03561,
				"method": "rhf"
			}
		],
		"cosmo_sigma_profile": { 
			"-0.025": 0.0,
			"-0.024": 0.0,
			"-0.023": 0.0,
			"-0.022": 0.0,
			"-0.021": 0.0,
			"-0.02": 0.0,
			"-0.019": 0.0,
			"-0.018": 0.0,
			"-0.017": 0.0,
			"-0.016": 0.0,
			"-0.015": 0.0,
			"-0.014": 0.0,
			"-0.013": 0.0,
			"-0.012": 0.0,
			"-0.011": 0.282911240044,
			"-0.01": 3.8516371634,
			"-0.009": 5.94855437319,
			"-0.008": 7.5638784353,
			"-0.007": 8.17680802613,
			"-0.006": 8.51015644824,
			"-0.005": 10.7205421798,
			"-0.004": 16.5473286682,
			"-0.003": 19.7392535049,
			"-0.002": 19.2021113552,
			"-0.001": 12.4859921671,
			"0.0": 12.8225311736,
			"0.001": 14.0851817885,
			"0.002": 21.5597391827,
			"0.003": 18.0004763715,
			"0.004": 7.02389413213,
			"0.005": 7.28690067987,
			"0.006": 12.3470348159,
			"0.007": 16.8698028839,
			"0.008": 12.3040156455,
			"0.009": 2.83793094367,
			"0.01": 0.0121859742244,
			"0.011": 0.0,
			"0.012": 0.0,
			"0.013": 0.0,
			"0.014": 0.0,
			"0.015": 0.0,
			"0.016": 0.0,
			"0.017": 0.0,
			"0.018": 0.0,
			"0.019": 0.0,
			"0.02": 0.0,
			"0.021": 0.0,
			"0.022": 0.0,
			"0.023": 0.0,
			"0.024": 0.0,
			"0.025": 0.0
		}
	}
}
