{
	 "smiles": "CO[Si](C)(C)OC", 
	 "Tm": 193.15, 
	 "num_atms": 19, 
	 "gaussian": { 
		 "optdone": 1, 
		 "sigma_profile": "yes", 
		 "theory": "DFT", 
		 "functional": "B3LYP", 
		 "basiset": "6-31G**", 
		 "properties": { 
			 "R2extent": 1094.2869, 
			 "electric_dipole_moment_norm": 1.68730413678, 
			 "electric_quadrupole_moment_norm": 4.39865495578, 
			 "total_energy": -599.693928845, 
			 "HOMO_LUMO_gap": 0.3308, 
			 "cosmo_polarized_energy": -6.06, 
			 "cosmo_cavitation_energy": 23.23, 
			 "cosmo_dispersion_energy": -14.44, 
			 "cosmo_repulsion_energy": 1.35, 
			 "cosmo_total_nonelectrostatic_energy": 10.14, 
			 "SMD_solvation_energy": 6.08 
		},
		"coords": [
			{
				"x": -1.0584066653,
				"y": 0.6168033342,
				"z": -2.0657904493,
				"element": "C" 
			},
			{
				"x": -1.0728125535,
				"y": -0.1718548534,
				"z": -0.8910641509,
				"element": "O" 
			},
			{
				"x": 0.2139408216,
				"y": -0.361975897,
				"z": 0.1566205093,
				"element": "Si" 
			},
			{
				"x": 1.5892875749,
				"y": -1.3769763274,
				"z": -0.6077537114,
				"element": "C" 
			},
			{
				"x": 0.821362094,
				"y": 1.3253315659,
				"z": 0.7300109709,
				"element": "C" 
			},
			{
				"x": -0.3621858662,
				"y": -1.259676626,
				"z": 1.4254616153,
				"element": "O" 
			},
			{
				"x": -1.5033164981,
				"y": -0.9149279808,
				"z": 2.1961721935,
				"element": "C" 
			},
			{
				"x": -0.3321023415,
				"y": 0.2432821238,
				"z": -2.8014752478,
				"element": "H" 
			},
			{
				"x": -2.0523458111,
				"y": 0.5755413256,
				"z": -2.5219770195,
				"element": "H" 
			},
			{
				"x": -0.8243347547,
				"y": 1.6695815594,
				"z": -1.8539942395,
				"element": "H" 
			},
			{
				"x": 2.407118898,
				"y": -1.5256008641,
				"z": 0.1050657188,
				"element": "H" 
			},
			{
				"x": 2.0073067731,
				"y": -0.8916625208,
				"z": -1.4967346019,
				"element": "H" 
			},
			{
				"x": 1.2171387975,
				"y": -2.3626227009,
				"z": -0.9034226796,
				"element": "H" 
			},
			{
				"x": 1.1958810479,
				"y": 1.9290754071,
				"z": -0.1044449549,
				"element": "H" 
			},
			{
				"x": 0.0240649454,
				"y": 1.8976177923,
				"z": 1.216304084,
				"element": "H" 
			},
			{
				"x": 1.640545184,
				"y": 1.2164408878,
				"z": 1.448956165,
				"element": "H" 
			},
			{
				"x": -2.4015277339,
				"y": -0.8434248212,
				"z": 1.5716291886,
				"element": "H" 
			},
			{
				"x": -1.3656778788,
				"y": 0.0398559069,
				"z": 2.7224546369,
				"element": "H" 
			},
			{
				"x": -1.6579360334,
				"y": -1.6977073114,
				"z": 2.9447819724,
				"element": "H" 
			}
		],
		 "valence_orbital": [ 
			{
				"type": "occ",
				"energy": -0.32512,
				"method": "rhf"
			},
			{
				"type": "occ",
				"energy": -0.29809,
				"method": "rhf"
			},
			{
				"type": "occ",
				"energy": -0.29468,
				"method": "rhf"
			},
			{
				"type": "occ",
				"energy": -0.27402,
				"method": "rhf"
			},
			{
				"type": "occ",
				"energy": -0.26239,
				"method": "rhf"
			},
			{
				"type": "unocc",
				"energy": 0.06841,
				"method": "rhf"
			},
			{
				"type": "unocc",
				"energy": 0.08508,
				"method": "rhf"
			},
			{
				"type": "unocc",
				"energy": 0.09686,
				"method": "rhf"
			},
			{
				"type": "unocc",
				"energy": 0.10229,
				"method": "rhf"
			},
			{
				"type": "unocc",
				"energy": 0.11944,
				"method": "rhf"
			}
		],
		"cosmo_sigma_profile": { 
			"-0.025": 0.0,
			"-0.024": 0.0,
			"-0.023": 0.0,
			"-0.022": 0.0,
			"-0.021": 0.0,
			"-0.02": 0.0,
			"-0.019": 0.0,
			"-0.018": 0.0,
			"-0.017": 0.0,
			"-0.016": 0.0,
			"-0.015": 0.0,
			"-0.014": 0.0,
			"-0.013": 0.0,
			"-0.012": 0.0,
			"-0.011": 0.0,
			"-0.01": 0.0,
			"-0.009": 0.0,
			"-0.008": 0.0,
			"-0.007": 0.0,
			"-0.006": 0.0,
			"-0.005": 2.46572817569,
			"-0.004": 25.5528154316,
			"-0.003": 28.2212787912,
			"-0.002": 29.0661100308,
			"-0.001": 19.5362849683,
			"0.0": 16.1229584823,
			"0.001": 14.3840618744,
			"0.002": 8.42438011975,
			"0.003": 5.78210396692,
			"0.004": 3.3784914057,
			"0.005": 3.2831526683,
			"0.006": 2.43089502996,
			"0.007": 2.69210818726,
			"0.008": 2.98247333527,
			"0.009": 3.45996044007,
			"0.01": 2.10501548145,
			"0.011": 2.40956184835,
			"0.012": 1.51350679452,
			"0.013": 2.38060543865,
			"0.014": 0.886030127441,
			"0.015": 0.0,
			"0.016": 0.0,
			"0.017": 0.0,
			"0.018": 0.0,
			"0.019": 0.0,
			"0.02": 0.0,
			"0.021": 0.0,
			"0.022": 0.0,
			"0.023": 0.0,
			"0.024": 0.0,
			"0.025": 0.0
		}
	}
}
