{
	 "smiles": "OC(=O)C1=C(OCC(F)(F)F)C=CC=N1", 
	 "Tm": 390.15, 
	 "num_atms": 21, 
	 "gaussian": { 
		 "optdone": 1, 
		 "sigma_profile": "yes", 
		 "theory": "DFT", 
		 "functional": "B3LYP", 
		 "basiset": "6-31G**", 
		 "properties": { 
			 "R2extent": 4122.4292, 
			 "electric_dipole_moment_norm": 6.76651382249, 
			 "electric_quadrupole_moment_norm": 13.8946954781, 
			 "total_energy": -888.39729434, 
			 "HOMO_LUMO_gap": 0.19832, 
			 "cosmo_polarized_energy": -21.19, 
			 "cosmo_cavitation_energy": 27.45, 
			 "cosmo_dispersion_energy": -19.54, 
			 "cosmo_repulsion_energy": 1.47, 
			 "cosmo_total_nonelectrostatic_energy": 9.37, 
			 "SMD_solvation_energy": 6.27 
		},
		"coords": [
			{
				"x": -0.9323739181,
				"y": 1.7674113882,
				"z": 0.4838083298,
				"element": "O" 
			},
			{
				"x": -1.4387113282,
				"y": 0.546892652,
				"z": 0.7572526446,
				"element": "C" 
			},
			{
				"x": -2.2786571168,
				"y": 0.397022148,
				"z": 1.6067478634,
				"element": "O" 
			},
			{
				"x": -0.9018315061,
				"y": -0.6307293721,
				"z": -0.0568359646,
				"element": "C" 
			},
			{
				"x": 0.1900613867,
				"y": -0.5755133994,
				"z": -0.9477754306,
				"element": "C" 
			},
			{
				"x": 0.8192891054,
				"y": 0.6441123666,
				"z": -1.1529785071,
				"element": "O" 
			},
			{
				"x": 2.2381820963,
				"y": 0.6989143718,
				"z": -1.2477426853,
				"element": "C" 
			},
			{
				"x": 2.6771292983,
				"y": 1.0389578823,
				"z": -2.6653042517,
				"element": "C" 
			},
			{
				"x": 4.0183571902,
				"y": 1.1701823502,
				"z": -2.6863002493,
				"element": "F" 
			},
			{
				"x": 2.1291522053,
				"y": 2.1871819549,
				"z": -3.087403754,
				"element": "F" 
			},
			{
				"x": 2.3405794805,
				"y": 0.0722810087,
				"z": -3.5466124331,
				"element": "F" 
			},
			{
				"x": 0.5848461808,
				"y": -1.7272363901,
				"z": -1.6304664203,
				"element": "C" 
			},
			{
				"x": -0.1089153951,
				"y": -2.9079596103,
				"z": -1.3927303,
				"element": "C" 
			},
			{
				"x": -1.1760167759,
				"y": -2.8812696447,
				"z": -0.491456825,
				"element": "C" 
			},
			{
				"x": -1.5587852235,
				"y": -1.7796030775,
				"z": 0.1491911433,
				"element": "N" 
			},
			{
				"x": -0.2571097075,
				"y": 1.700805671,
				"z": -0.2145530104,
				"element": "H" 
			},
			{
				"x": 2.7003603596,
				"y": -0.243717215,
				"z": -0.9438162828,
				"element": "H" 
			},
			{
				"x": 2.5885978346,
				"y": 1.4986585096,
				"z": -0.5892923133,
				"element": "H" 
			},
			{
				"x": 1.3953601392,
				"y": -1.6878903085,
				"z": -2.3482295674,
				"element": "H" 
			},
			{
				"x": 0.1640841142,
				"y": -3.8248796502,
				"z": -1.9052356531,
				"element": "H" 
			},
			{
				"x": -1.74529842,
				"y": -3.7837216353,
				"z": -0.2792663334,
				"element": "H" 
			}
		],
		 "valence_orbital": [ 
			{
				"type": "occ",
				"energy": -0.31296,
				"method": "rhf"
			},
			{
				"type": "occ",
				"energy": -0.30112,
				"method": "rhf"
			},
			{
				"type": "occ",
				"energy": -0.27676,
				"method": "rhf"
			},
			{
				"type": "occ",
				"energy": -0.26994,
				"method": "rhf"
			},
			{
				"type": "occ",
				"energy": -0.26509,
				"method": "rhf"
			},
			{
				"type": "unocc",
				"energy": -0.06677,
				"method": "rhf"
			},
			{
				"type": "unocc",
				"energy": -0.04024,
				"method": "rhf"
			},
			{
				"type": "unocc",
				"energy": 0.03808,
				"method": "rhf"
			},
			{
				"type": "unocc",
				"energy": 0.05017,
				"method": "rhf"
			},
			{
				"type": "unocc",
				"energy": 0.07247,
				"method": "rhf"
			}
		],
		"cosmo_sigma_profile": { 
			"-0.025": 0.0,
			"-0.024": 0.0,
			"-0.023": 0.0,
			"-0.022": 0.0,
			"-0.021": 0.0,
			"-0.02": 0.0,
			"-0.019": 0.0,
			"-0.018": 0.0,
			"-0.017": 0.0,
			"-0.016": 0.0,
			"-0.015": 0.0,
			"-0.014": 0.0,
			"-0.013": 0.0,
			"-0.012": 0.0180488900017,
			"-0.011": 1.87652447089,
			"-0.01": 6.48337332095,
			"-0.009": 7.83753039986,
			"-0.008": 10.4778394246,
			"-0.007": 14.5940288336,
			"-0.006": 11.185304193,
			"-0.005": 7.5956855555,
			"-0.004": 7.8951404034,
			"-0.003": 8.76317574612,
			"-0.002": 11.1798439567,
			"-0.001": 16.0532822774,
			"0.0": 14.6857667675,
			"0.001": 18.3103486725,
			"0.002": 29.2520644444,
			"0.003": 11.3719406683,
			"0.004": 3.2046419068,
			"0.005": 2.50672077218,
			"0.006": 2.73357370899,
			"0.007": 2.25478512937,
			"0.008": 3.75970594443,
			"0.009": 4.05961956118,
			"0.01": 4.02711926767,
			"0.011": 6.64316298257,
			"0.012": 5.66061897168,
			"0.013": 3.63390203818,
			"0.014": 1.03726878113,
			"0.015": 1.31351670087,
			"0.016": 0.995928320069,
			"0.017": 0.904171363304,
			"0.018": 0.671415605861,
			"0.019": 0.052411731975,
			"0.02": 0.0,
			"0.021": 0.0,
			"0.022": 0.0,
			"0.023": 0.0,
			"0.024": 0.0,
			"0.025": 0.0
		}
	}
}
