{
	 "smiles": "NC1=CC(=CC=C1)C1=NOC(=N1)C1CC1", 
	 "Tm": 343.15, 
	 "num_atms": 26, 
	 "gaussian": { 
		 "optdone": 1, 
		 "sigma_profile": "yes", 
		 "theory": "DFT", 
		 "functional": "B3LYP", 
		 "basiset": "6-31G**", 
		 "properties": { 
			 "R2extent": 4352.8257, 
			 "electric_dipole_moment_norm": 1.37023400556, 
			 "electric_quadrupole_moment_norm": 20.9190540572, 
			 "total_energy": -665.223615886, 
			 "HOMO_LUMO_gap": 0.16852, 
			 "cosmo_polarized_energy": -12.98, 
			 "cosmo_cavitation_energy": 30.64, 
			 "cosmo_dispersion_energy": -22.58, 
			 "cosmo_repulsion_energy": 1.77, 
			 "cosmo_total_nonelectrostatic_energy": 9.83, 
			 "SMD_solvation_energy": 3.56 
		},
		"coords": [
			{
				"x": 0.6885135607,
				"y": 2.2278609073,
				"z": 3.7846318515,
				"element": "N" 
			},
			{
				"x": 0.686532283,
				"y": 1.0277624909,
				"z": 3.0716274237,
				"element": "C" 
			},
			{
				"x": 0.2109496763,
				"y": 0.9803587224,
				"z": 1.7543273107,
				"element": "C" 
			},
			{
				"x": 0.1555071536,
				"y": -0.2346614566,
				"z": 1.0602616519,
				"element": "C" 
			},
			{
				"x": 0.5766088159,
				"y": -1.4217443295,
				"z": 1.6744515049,
				"element": "C" 
			},
			{
				"x": 1.0505102965,
				"y": -1.3728920039,
				"z": 2.9850155077,
				"element": "C" 
			},
			{
				"x": 1.108087274,
				"y": -0.1688906073,
				"z": 3.6814790652,
				"element": "C" 
			},
			{
				"x": -0.341716803,
				"y": -0.2704881486,
				"z": -0.3231643113,
				"element": "C" 
			},
			{
				"x": -0.7394812395,
				"y": 0.807320156,
				"z": -0.9650266225,
				"element": "N" 
			},
			{
				"x": -1.1216750844,
				"y": 0.3114436416,
				"z": -2.2258038241,
				"element": "O" 
			},
			{
				"x": -0.9082245797,
				"y": -1.0158602594,
				"z": -2.1971604763,
				"element": "C" 
			},
			{
				"x": -0.430653387,
				"y": -1.4355142596,
				"z": -1.0602420412,
				"element": "N" 
			},
			{
				"x": -1.2277048511,
				"y": -1.7908100435,
				"z": -3.3999666322,
				"element": "C" 
			},
			{
				"x": -0.3670840722,
				"y": -2.9983845451,
				"z": -3.7394191284,
				"element": "C" 
			},
			{
				"x": -1.7587805275,
				"y": -3.207022763,
				"z": -3.2352478669,
				"element": "C" 
			},
			{
				"x": 0.698053304,
				"y": 3.0641258502,
				"z": 3.2171561702,
				"element": "H" 
			},
			{
				"x": 1.3553781373,
				"y": 2.277762985,
				"z": 4.5422902998,
				"element": "H" 
			},
			{
				"x": -0.1222747795,
				"y": 1.8895367084,
				"z": 1.2628204013,
				"element": "H" 
			},
			{
				"x": 0.5296578736,
				"y": -2.3541771946,
				"z": 1.1248073458,
				"element": "H" 
			},
			{
				"x": 1.3819711206,
				"y": -2.2854222458,
				"z": 3.4724701436,
				"element": "H" 
			},
			{
				"x": 1.4750007836,
				"y": -0.1467045161,
				"z": 4.7048206796,
				"element": "H" 
			},
			{
				"x": -1.6142684765,
				"y": -1.1947446589,
				"z": -4.2193638124,
				"element": "H" 
			},
			{
				"x": 0.4537438985,
				"y": -3.2085718012,
				"z": -3.0619817176,
				"element": "H" 
			},
			{
				"x": -0.1572826613,
				"y": -3.1705705223,
				"z": -4.7903010755,
				"element": "H" 
			},
			{
				"x": -1.8810689874,
				"y": -3.5584948565,
				"z": -2.21626596,
				"element": "H" 
			},
			{
				"x": -2.5277987286,
				"y": -3.5254172498,
				"z": -3.9318158875,
				"element": "H" 
			}
		],
		 "valence_orbital": [ 
			{
				"type": "occ",
				"energy": -0.29926,
				"method": "rhf"
			},
			{
				"type": "occ",
				"energy": -0.28684,
				"method": "rhf"
			},
			{
				"type": "occ",
				"energy": -0.2693,
				"method": "rhf"
			},
			{
				"type": "occ",
				"energy": -0.2345,
				"method": "rhf"
			},
			{
				"type": "occ",
				"energy": -0.20311,
				"method": "rhf"
			},
			{
				"type": "unocc",
				"energy": -0.03459,
				"method": "rhf"
			},
			{
				"type": "unocc",
				"energy": 0.00314,
				"method": "rhf"
			},
			{
				"type": "unocc",
				"energy": 0.01585,
				"method": "rhf"
			},
			{
				"type": "unocc",
				"energy": 0.07562,
				"method": "rhf"
			},
			{
				"type": "unocc",
				"energy": 0.08493,
				"method": "rhf"
			}
		],
		"cosmo_sigma_profile": { 
			"-0.025": 0.0,
			"-0.024": 0.0,
			"-0.023": 0.0,
			"-0.022": 0.0,
			"-0.021": 0.0,
			"-0.02": 0.0,
			"-0.019": 0.0,
			"-0.018": 0.0,
			"-0.017": 0.0,
			"-0.016": 0.0,
			"-0.015": 0.0,
			"-0.014": 0.0,
			"-0.013": 0.489733266555,
			"-0.012": 2.86938742553,
			"-0.011": 2.85663230826,
			"-0.01": 3.12805643455,
			"-0.009": 3.41380374018,
			"-0.008": 3.52337526967,
			"-0.007": 5.66227976022,
			"-0.006": 11.6821264135,
			"-0.005": 16.5121556273,
			"-0.004": 13.753084035,
			"-0.003": 15.735772492,
			"-0.002": 17.4519469517,
			"-0.001": 18.4363990899,
			"0.0": 17.0899197969,
			"0.001": 15.8956118675,
			"0.002": 15.6805512519,
			"0.003": 16.6704591832,
			"0.004": 13.84471499,
			"0.005": 15.9376237935,
			"0.006": 10.0942465893,
			"0.007": 7.03171318625,
			"0.008": 4.56575926945,
			"0.009": 3.41109159539,
			"0.01": 3.23935547395,
			"0.011": 1.82777154915,
			"0.012": 1.97170395697,
			"0.013": 1.1394355115,
			"0.014": 0.524377612489,
			"0.015": 0.0869629952288,
			"0.016": 0.0,
			"0.017": 0.0,
			"0.018": 0.0,
			"0.019": 0.0,
			"0.02": 0.0,
			"0.021": 0.0,
			"0.022": 0.0,
			"0.023": 0.0,
			"0.024": 0.0,
			"0.025": 0.0
		}
	}
}
