{
	 "smiles": "COC(=O)C1=C(C)NC(=O)N1", 
	 "Tm": 503.15, 
	 "num_atms": 19, 
	 "gaussian": { 
		 "optdone": 1, 
		 "sigma_profile": "yes", 
		 "theory": "DFT", 
		 "functional": "B3LYP", 
		 "basiset": "6-31G**", 
		 "properties": { 
			 "R2extent": 2963.6546, 
			 "electric_dipole_moment_norm": 5.21678965457, 
			 "electric_quadrupole_moment_norm": 19.6743570838, 
			 "total_energy": -568.668111743, 
			 "HOMO_LUMO_gap": 0.17204, 
			 "cosmo_polarized_energy": -16.48, 
			 "cosmo_cavitation_energy": 23.71, 
			 "cosmo_dispersion_energy": -17.57, 
			 "cosmo_repulsion_energy": 1.44, 
			 "cosmo_total_nonelectrostatic_energy": 7.58, 
			 "SMD_solvation_energy": 6.72 
		},
		"coords": [
			{
				"x": -2.8786563276,
				"y": -1.0853265247,
				"z": 0.4339354025,
				"element": "C" 
			},
			{
				"x": -1.5812230762,
				"y": -0.4982633454,
				"z": 0.6273245564,
				"element": "O" 
			},
			{
				"x": -0.9854030069,
				"y": -0.8072215098,
				"z": 1.8045145446,
				"element": "C" 
			},
			{
				"x": -1.4925435785,
				"y": -1.526337306,
				"z": 2.6495249622,
				"element": "O" 
			},
			{
				"x": 0.3268003214,
				"y": -0.1978424269,
				"z": 1.9719131414,
				"element": "C" 
			},
			{
				"x": 1.1036120626,
				"y": 0.6269090442,
				"z": 1.2010429189,
				"element": "C" 
			},
			{
				"x": 0.8873017,
				"y": 1.22891629,
				"z": -0.1454566335,
				"element": "C" 
			},
			{
				"x": 2.2584752287,
				"y": 0.855753782,
				"z": 1.9270473212,
				"element": "N" 
			},
			{
				"x": 2.2510861111,
				"y": 0.1911431895,
				"z": 3.1681853929,
				"element": "C" 
			},
			{
				"x": 3.1231853812,
				"y": 0.2032348163,
				"z": 4.019833798,
				"element": "O" 
			},
			{
				"x": 1.0316648223,
				"y": -0.4527032457,
				"z": 3.1553245642,
				"element": "N" 
			},
			{
				"x": -3.210930484,
				"y": -0.7433987708,
				"z": -0.5461563578,
				"element": "H" 
			},
			{
				"x": -2.8161935434,
				"y": -2.1759604527,
				"z": 0.4588369643,
				"element": "H" 
			},
			{
				"x": -3.5717488028,
				"y": -0.7538705916,
				"z": 1.210996227,
				"element": "H" 
			},
			{
				"x": -0.0796431147,
				"y": 0.9239637626,
				"z": -0.5420581473,
				"element": "H" 
			},
			{
				"x": 0.9157802677,
				"y": 2.3240770238,
				"z": -0.0934468597,
				"element": "H" 
			},
			{
				"x": 1.6697200947,
				"y": 0.9123952644,
				"z": -0.8457943162,
				"element": "H" 
			},
			{
				"x": 3.0390413622,
				"y": 1.425845566,
				"z": 1.6406519847,
				"element": "H" 
			},
			{
				"x": 0.681874582,
				"y": -1.034014565,
				"z": 3.9005805361,
				"element": "H" 
			}
		],
		 "valence_orbital": [ 
			{
				"type": "occ",
				"energy": -0.31463,
				"method": "rhf"
			},
			{
				"type": "occ",
				"energy": -0.3054,
				"method": "rhf"
			},
			{
				"type": "occ",
				"energy": -0.28435,
				"method": "rhf"
			},
			{
				"type": "occ",
				"energy": -0.26141,
				"method": "rhf"
			},
			{
				"type": "occ",
				"energy": -0.20639,
				"method": "rhf"
			},
			{
				"type": "unocc",
				"energy": -0.03435,
				"method": "rhf"
			},
			{
				"type": "unocc",
				"energy": 0.06513,
				"method": "rhf"
			},
			{
				"type": "unocc",
				"energy": 0.07517,
				"method": "rhf"
			},
			{
				"type": "unocc",
				"energy": 0.09959,
				"method": "rhf"
			},
			{
				"type": "unocc",
				"energy": 0.10103,
				"method": "rhf"
			}
		],
		"cosmo_sigma_profile": { 
			"-0.025": 0.0,
			"-0.024": 0.0,
			"-0.023": 0.0,
			"-0.022": 0.0,
			"-0.021": 0.0,
			"-0.02": 0.0,
			"-0.019": 0.0,
			"-0.018": 0.0,
			"-0.017": 0.0889897140723,
			"-0.016": 1.24753503916,
			"-0.015": 1.99327833725,
			"-0.014": 1.51391235656,
			"-0.013": 1.62968032304,
			"-0.012": 1.43580270091,
			"-0.011": 1.41949421327,
			"-0.01": 2.93994983205,
			"-0.009": 1.93193709993,
			"-0.008": 1.25938986235,
			"-0.007": 2.48799231242,
			"-0.006": 10.7326848818,
			"-0.005": 13.0045219068,
			"-0.004": 13.6010021768,
			"-0.003": 14.3403044054,
			"-0.002": 15.0197484243,
			"-0.001": 14.7128048997,
			"0.0": 18.2448688655,
			"0.001": 14.9500171223,
			"0.002": 8.03733509973,
			"0.003": 4.81164542346,
			"0.004": 3.71586930908,
			"0.005": 4.20380870883,
			"0.006": 2.73057906976,
			"0.007": 1.66890275027,
			"0.008": 2.94172355175,
			"0.009": 2.4417841716,
			"0.01": 2.37168918234,
			"0.011": 3.6209927317,
			"0.012": 5.75532363416,
			"0.013": 3.84014907623,
			"0.014": 7.43770850176,
			"0.015": 2.01479399566,
			"0.016": 0.0,
			"0.017": 0.0,
			"0.018": 0.0,
			"0.019": 0.0,
			"0.02": 0.0,
			"0.021": 0.0,
			"0.022": 0.0,
			"0.023": 0.0,
			"0.024": 0.0,
			"0.025": 0.0
		}
	}
}
