{
	 "smiles": "CC1=CC=C(C=C1)S(=O)(=O)OC1CCC2C3CCC4CC(=O)CCC4(C)C3CCC12C", 
	 "Tm": 453.15, 
	 "num_atms": 67, 
	 "gaussian": { 
		 "optdone": 1, 
		 "sigma_profile": "yes", 
		 "theory": "DFT", 
		 "functional": "B3LYP", 
		 "basiset": "6-31G**", 
		 "properties": { 
			 "R2extent": 16842.9924, 
			 "electric_dipole_moment_norm": 6.23342801515, 
			 "electric_quadrupole_moment_norm": 41.6242035274, 
			 "total_energy": -1711.49507445, 
			 "HOMO_LUMO_gap": 0.19405, 
			 "cosmo_polarized_energy": -19.09, 
			 "cosmo_cavitation_energy": 61.04, 
			 "cosmo_dispersion_energy": -40.52, 
			 "cosmo_repulsion_energy": 2.97, 
			 "cosmo_total_nonelectrostatic_energy": 23.49, 
			 "SMD_solvation_energy": 8.15 
		},
		"coords": [
			{
				"x": 1.3859731277,
				"y": 5.8700310027,
				"z": 4.1487220474,
				"element": "C" 
			},
			{
				"x": 1.9776723061,
				"y": 4.5664873571,
				"z": 3.6698639902,
				"element": "C" 
			},
			{
				"x": 2.0691318902,
				"y": 3.4583923443,
				"z": 4.5208747242,
				"element": "C" 
			},
			{
				"x": 2.6357126296,
				"y": 2.2588923729,
				"z": 4.0868697746,
				"element": "C" 
			},
			{
				"x": 3.1143685877,
				"y": 2.170759569,
				"z": 2.7803938471,
				"element": "C" 
			},
			{
				"x": 3.042509865,
				"y": 3.2626578372,
				"z": 1.9091675812,
				"element": "C" 
			},
			{
				"x": 2.4722635178,
				"y": 4.448309441,
				"z": 2.3598234762,
				"element": "C" 
			},
			{
				"x": 3.8423922608,
				"y": 0.6430152605,
				"z": 2.207026401,
				"element": "S" 
			},
			{
				"x": 4.9782447571,
				"y": 0.9473180063,
				"z": 1.3480530662,
				"element": "O" 
			},
			{
				"x": 3.9592229432,
				"y": -0.2658991787,
				"z": 3.3480325132,
				"element": "O" 
			},
			{
				"x": 2.7055814711,
				"y": 0.0757772145,
				"z": 1.1741665768,
				"element": "O" 
			},
			{
				"x": 1.5602252613,
				"y": -0.6615659227,
				"z": 1.7185220571,
				"element": "C" 
			},
			{
				"x": 1.8827426334,
				"y": -2.1560586689,
				"z": 1.6809635058,
				"element": "C" 
			},
			{
				"x": 1.6667954992,
				"y": -2.5158567241,
				"z": 0.205281573,
				"element": "C" 
			},
			{
				"x": 0.3772636616,
				"y": -1.7546715778,
				"z": -0.1771057858,
				"element": "C" 
			},
			{
				"x": 0.2390635775,
				"y": -1.3916640386,
				"z": -1.6673835279,
				"element": "C" 
			},
			{
				"x": 0.1862059416,
				"y": -2.6200265425,
				"z": -2.5818226358,
				"element": "C" 
			},
			{
				"x": 0.0813010801,
				"y": -2.2400744616,
				"z": -4.0804178545,
				"element": "C" 
			},
			{
				"x": -0.5244093938,
				"y": -0.8353100451,
				"z": -4.345549842,
				"element": "C" 
			},
			{
				"x": 0.5774390683,
				"y": 0.242938992,
				"z": -4.4802961822,
				"element": "C" 
			},
			{
				"x": 0.060521464,
				"y": 1.6757829731,
				"z": -4.4658059517,
				"element": "C" 
			},
			{
				"x": 0.7984709149,
				"y": 2.6290897043,
				"z": -4.294584699,
				"element": "O" 
			},
			{
				"x": -1.4316263027,
				"y": 1.8055180973,
				"z": -4.680258348,
				"element": "C" 
			},
			{
				"x": -2.2493128088,
				"y": 0.9350062586,
				"z": -3.6914436153,
				"element": "C" 
			},
			{
				"x": -1.6096134632,
				"y": -0.4446236778,
				"z": -3.297711368,
				"element": "C" 
			},
			{
				"x": -2.7620757986,
				"y": -1.4776756937,
				"z": -3.3595986842,
				"element": "C" 
			},
			{
				"x": -1.0048615402,
				"y": -0.4713503838,
				"z": -1.8299814179,
				"element": "C" 
			},
			{
				"x": -0.7006788697,
				"y": 0.8996586368,
				"z": -1.1598886233,
				"element": "C" 
			},
			{
				"x": 0.388240402,
				"y": 0.8141403752,
				"z": -0.0652213573,
				"element": "C" 
			},
			{
				"x": 0.3313525707,
				"y": -0.4829424087,
				"z": 0.7677690173,
				"element": "C" 
			},
			{
				"x": -0.9359786293,
				"y": -0.497788499,
				"z": 1.6483413951,
				"element": "C" 
			},
			{
				"x": 0.7006710967,
				"y": 6.2928937324,
				"z": 3.4070301121,
				"element": "H" 
			},
			{
				"x": 2.1711811151,
				"y": 6.6153968438,
				"z": 4.3236779065,
				"element": "H" 
			},
			{
				"x": 0.8373288518,
				"y": 5.7417987912,
				"z": 5.0854836971,
				"element": "H" 
			},
			{
				"x": 1.6969019091,
				"y": 3.5333962919,
				"z": 5.5390098025,
				"element": "H" 
			},
			{
				"x": 2.7212275248,
				"y": 1.4050738215,
				"z": 4.7498282632,
				"element": "H" 
			},
			{
				"x": 3.436743834,
				"y": 3.1822542085,
				"z": 0.9018363186,
				"element": "H" 
			},
			{
				"x": 2.4131364162,
				"y": 5.2996595954,
				"z": 1.6868530923,
				"element": "H" 
			},
			{
				"x": 1.3552474133,
				"y": -0.281093021,
				"z": 2.7227649029,
				"element": "H" 
			},
			{
				"x": 2.8836274948,
				"y": -2.3643559677,
				"z": 2.0635379966,
				"element": "H" 
			},
			{
				"x": 1.1647300517,
				"y": -2.6917730749,
				"z": 2.3149069846,
				"element": "H" 
			},
			{
				"x": 2.5142495187,
				"y": -2.1483291356,
				"z": -0.3862283979,
				"element": "H" 
			},
			{
				"x": 1.5907363705,
				"y": -3.5941207855,
				"z": 0.0369933053,
				"element": "H" 
			},
			{
				"x": -0.4810751362,
				"y": -2.3933807471,
				"z": 0.0799498933,
				"element": "H" 
			},
			{
				"x": 1.1367515329,
				"y": -0.8236807664,
				"z": -1.9442857776,
				"element": "H" 
			},
			{
				"x": -0.6655469381,
				"y": -3.2457152618,
				"z": -2.2857102027,
				"element": "H" 
			},
			{
				"x": 1.0759310507,
				"y": -3.2393087565,
				"z": -2.4247808694,
				"element": "H" 
			},
			{
				"x": 1.0765284263,
				"y": -2.2757375479,
				"z": -4.5392923596,
				"element": "H" 
			},
			{
				"x": -0.5117246456,
				"y": -2.9995671978,
				"z": -4.6010190176,
				"element": "H" 
			},
			{
				"x": -1.0353015669,
				"y": -0.8827955143,
				"z": -5.3172187219,
				"element": "H" 
			},
			{
				"x": 1.1086942885,
				"y": 0.1019777841,
				"z": -5.4323432393,
				"element": "H" 
			},
			{
				"x": 1.3464936286,
				"y": 0.1645727283,
				"z": -3.7071649126,
				"element": "H" 
			},
			{
				"x": -1.7146117359,
				"y": 2.8593212953,
				"z": -4.6209653618,
				"element": "H" 
			},
			{
				"x": -1.6333519988,
				"y": 1.4666804564,
				"z": -5.7065617893,
				"element": "H" 
			},
			{
				"x": -2.4566122127,
				"y": 1.5197818476,
				"z": -2.7927578275,
				"element": "H" 
			},
			{
				"x": -3.2254164888,
				"y": 0.7500539963,
				"z": -4.15138761,
				"element": "H" 
			},
			{
				"x": -3.5883837191,
				"y": -1.1605696673,
				"z": -2.7128763621,
				"element": "H" 
			},
			{
				"x": -2.4596921572,
				"y": -2.4752594496,
				"z": -3.0335131035,
				"element": "H" 
			},
			{
				"x": -3.154490226,
				"y": -1.5628139587,
				"z": -4.3797151879,
				"element": "H" 
			},
			{
				"x": -1.7872145079,
				"y": -0.9397399748,
				"z": -1.2170084472,
				"element": "H" 
			},
			{
				"x": -1.6246169799,
				"y": 1.308933546,
				"z": -0.7354795317,
				"element": "H" 
			},
			{
				"x": -0.3574579599,
				"y": 1.6346726443,
				"z": -1.8944489246,
				"element": "H" 
			},
			{
				"x": 1.370873313,
				"y": 0.8840832851,
				"z": -0.5352595717,
				"element": "H" 
			},
			{
				"x": 0.3148738309,
				"y": 1.6868136809,
				"z": 0.5949802021,
				"element": "H" 
			},
			{
				"x": -1.8438250342,
				"y": -0.4981776133,
				"z": 1.0379899531,
				"element": "H" 
			},
			{
				"x": -0.9732825664,
				"y": -1.3901118059,
				"z": 2.2834645437,
				"element": "H" 
			},
			{
				"x": -0.9723624185,
				"y": 0.3820980774,
				"z": 2.3010085887,
				"element": "H" 
			}
		],
		 "valence_orbital": [ 
			{
				"type": "occ",
				"energy": -0.28073,
				"method": "rhf"
			},
			{
				"type": "occ",
				"energy": -0.27626,
				"method": "rhf"
			},
			{
				"type": "occ",
				"energy": -0.27038,
				"method": "rhf"
			},
			{
				"type": "occ",
				"energy": -0.26108,
				"method": "rhf"
			},
			{
				"type": "occ",
				"energy": -0.23239,
				"method": "rhf"
			},
			{
				"type": "unocc",
				"energy": -0.03834,
				"method": "rhf"
			},
			{
				"type": "unocc",
				"energy": -0.02167,
				"method": "rhf"
			},
			{
				"type": "unocc",
				"energy": -0.01123,
				"method": "rhf"
			},
			{
				"type": "unocc",
				"energy": 0.04636,
				"method": "rhf"
			},
			{
				"type": "unocc",
				"energy": 0.06568,
				"method": "rhf"
			}
		],
		"cosmo_sigma_profile": { 
			"-0.025": 0.0,
			"-0.024": 0.0,
			"-0.023": 0.0,
			"-0.022": 0.0,
			"-0.021": 0.0,
			"-0.02": 0.0,
			"-0.019": 0.0,
			"-0.018": 0.0,
			"-0.017": 0.0,
			"-0.016": 0.0,
			"-0.015": 0.0,
			"-0.014": 0.0,
			"-0.013": 0.0,
			"-0.012": 0.0,
			"-0.011": 0.0,
			"-0.01": 0.0,
			"-0.009": 0.0,
			"-0.008": 0.374322125752,
			"-0.007": 3.45386195044,
			"-0.006": 10.8562949753,
			"-0.005": 22.805348094,
			"-0.004": 31.2943147184,
			"-0.003": 47.9637338629,
			"-0.002": 73.3424527412,
			"-0.001": 76.2579819528,
			"0.0": 59.90185711,
			"0.001": 44.0204071965,
			"0.002": 22.7655581492,
			"0.003": 16.31065233,
			"0.004": 6.35385911958,
			"0.005": 5.12249045526,
			"0.006": 4.91493785351,
			"0.007": 5.58037584442,
			"0.008": 5.53922447787,
			"0.009": 6.97094706942,
			"0.01": 10.6622138807,
			"0.011": 9.34600419276,
			"0.012": 4.05070035398,
			"0.013": 3.90389454423,
			"0.014": 1.83689241717,
			"0.015": 0.0214495307479,
			"0.016": 0.0,
			"0.017": 0.0,
			"0.018": 0.0,
			"0.019": 0.0,
			"0.02": 0.0,
			"0.021": 0.0,
			"0.022": 0.0,
			"0.023": 0.0,
			"0.024": 0.0,
			"0.025": 0.0
		}
	}
}
