{
	 "smiles": "CC(N1CC(CC1=O)C(O)=O)C1=CC=CC=C1", 
	 "Tm": 485.15, 
	 "num_atms": 32, 
	 "gaussian": { 
		 "optdone": 1, 
		 "sigma_profile": "yes", 
		 "theory": "DFT", 
		 "functional": "B3LYP", 
		 "basiset": "6-31G**", 
		 "properties": { 
			 "R2extent": 4090.4055, 
			 "electric_dipole_moment_norm": 4.84830261432, 
			 "electric_quadrupole_moment_norm": 22.1305416716, 
			 "total_energy": -784.876916943, 
			 "HOMO_LUMO_gap": 0.22988, 
			 "cosmo_polarized_energy": -18.78, 
			 "cosmo_cavitation_energy": 34.38, 
			 "cosmo_dispersion_energy": -23.45, 
			 "cosmo_repulsion_energy": 1.82, 
			 "cosmo_total_nonelectrostatic_energy": 12.75, 
			 "SMD_solvation_energy": 7.35 
		},
		"coords": [
			{
				"x": -1.1154625999,
				"y": -1.2084002923,
				"z": 2.9986236478,
				"element": "C" 
			},
			{
				"x": -0.4788952274,
				"y": -0.2496789142,
				"z": 1.9849851622,
				"element": "C" 
			},
			{
				"x": -1.2377798168,
				"y": -0.2129686798,
				"z": 0.7227834797,
				"element": "N" 
			},
			{
				"x": -1.4742330159,
				"y": -1.3904088309,
				"z": -0.1137058055,
				"element": "C" 
			},
			{
				"x": -2.1128899668,
				"y": -0.7902420718,
				"z": -1.3909871069,
				"element": "C" 
			},
			{
				"x": -2.8439899178,
				"y": 0.4639519516,
				"z": -0.8505882484,
				"element": "C" 
			},
			{
				"x": -2.0903496477,
				"y": 0.8367164192,
				"z": 0.4253831434,
				"element": "C" 
			},
			{
				"x": -2.1985045916,
				"y": 1.8639877852,
				"z": 1.0720818153,
				"element": "O" 
			},
			{
				"x": -1.0824865272,
				"y": -0.4182039317,
				"z": -2.4607507571,
				"element": "C" 
			},
			{
				"x": 0.0434183567,
				"y": 0.2010382639,
				"z": -2.0293357475,
				"element": "O" 
			},
			{
				"x": -1.2533741923,
				"y": -0.6324425864,
				"z": -3.635432263,
				"element": "O" 
			},
			{
				"x": 0.9999779343,
				"y": -0.4929003581,
				"z": 1.6924661838,
				"element": "C" 
			},
			{
				"x": 1.7550018684,
				"y": 0.5617429206,
				"z": 1.15391144,
				"element": "C" 
			},
			{
				"x": 3.0997379179,
				"y": 0.3889051653,
				"z": 0.8303623396,
				"element": "C" 
			},
			{
				"x": 3.7168732774,
				"y": -0.8460619761,
				"z": 1.0456857851,
				"element": "C" 
			},
			{
				"x": 2.9800971935,
				"y": -1.8986854931,
				"z": 1.5869645476,
				"element": "C" 
			},
			{
				"x": 1.6307444511,
				"y": -1.7236106411,
				"z": 1.9079666912,
				"element": "C" 
			},
			{
				"x": -1.1341710067,
				"y": -2.2439643292,
				"z": 2.6451423145,
				"element": "H" 
			},
			{
				"x": -0.5608340227,
				"y": -1.185932364,
				"z": 3.9409608803,
				"element": "H" 
			},
			{
				"x": -2.1454558185,
				"y": -0.9016487654,
				"z": 3.2009097293,
				"element": "H" 
			},
			{
				"x": -0.5841915283,
				"y": 0.768799823,
				"z": 2.3724647021,
				"element": "H" 
			},
			{
				"x": -2.1653456593,
				"y": -2.0961536731,
				"z": 0.3672515713,
				"element": "H" 
			},
			{
				"x": -0.5374052839,
				"y": -1.9211097671,
				"z": -0.3108627105,
				"element": "H" 
			},
			{
				"x": -2.797392107,
				"y": -1.4921512592,
				"z": -1.8674507336,
				"element": "H" 
			},
			{
				"x": -2.8724671972,
				"y": 1.3068930692,
				"z": -1.5446347631,
				"element": "H" 
			},
			{
				"x": -3.8800785839,
				"y": 0.2298807284,
				"z": -0.5803591175,
				"element": "H" 
			},
			{
				"x": 0.0469962671,
				"y": 0.288998485,
				"z": -1.0606161397,
				"element": "H" 
			},
			{
				"x": 1.2820957457,
				"y": 1.5295598477,
				"z": 0.9996256811,
				"element": "H" 
			},
			{
				"x": 3.6666904155,
				"y": 1.2178923599,
				"z": 0.4170740864,
				"element": "H" 
			},
			{
				"x": 4.7647881836,
				"y": -0.9837459897,
				"z": 0.7963357096,
				"element": "H" 
			},
			{
				"x": 3.4529404828,
				"y": -2.8609499492,
				"z": 1.7615008061,
				"element": "H" 
			},
			{
				"x": 1.0773446169,
				"y": -2.5541069465,
				"z": 2.3349436765,
				"element": "H" 
			}
		],
		 "valence_orbital": [ 
			{
				"type": "occ",
				"energy": -0.27166,
				"method": "rhf"
			},
			{
				"type": "occ",
				"energy": -0.26983,
				"method": "rhf"
			},
			{
				"type": "occ",
				"energy": -0.26574,
				"method": "rhf"
			},
			{
				"type": "occ",
				"energy": -0.26245,
				"method": "rhf"
			},
			{
				"type": "occ",
				"energy": -0.25007,
				"method": "rhf"
			},
			{
				"type": "unocc",
				"energy": -0.02019,
				"method": "rhf"
			},
			{
				"type": "unocc",
				"energy": -0.01709,
				"method": "rhf"
			},
			{
				"type": "unocc",
				"energy": 0.0044,
				"method": "rhf"
			},
			{
				"type": "unocc",
				"energy": 0.01511,
				"method": "rhf"
			},
			{
				"type": "unocc",
				"energy": 0.06195,
				"method": "rhf"
			}
		],
		"cosmo_sigma_profile": { 
			"-0.025": 0.0,
			"-0.024": 0.0,
			"-0.023": 0.0,
			"-0.022": 0.0,
			"-0.021": 0.0,
			"-0.02": 0.0,
			"-0.019": 0.0,
			"-0.018": 0.0,
			"-0.017": 0.0,
			"-0.016": 0.0,
			"-0.015": 0.0,
			"-0.014": 0.0,
			"-0.013": 0.0,
			"-0.012": 0.0,
			"-0.011": 0.0888350112856,
			"-0.01": 0.887776586397,
			"-0.009": 0.902367343345,
			"-0.008": 2.34952111189,
			"-0.007": 12.8737072818,
			"-0.006": 23.3566584383,
			"-0.005": 25.563642269,
			"-0.004": 29.9847128575,
			"-0.003": 26.9011435096,
			"-0.002": 19.3457790787,
			"-0.001": 15.7598980899,
			"0.0": 14.2582691848,
			"0.001": 9.8996717899,
			"0.002": 9.24316392286,
			"0.003": 10.6801460067,
			"0.004": 10.0149158891,
			"0.005": 10.4585946295,
			"0.006": 6.53758480049,
			"0.007": 3.62352283876,
			"0.008": 3.8141860524,
			"0.009": 4.59274114495,
			"0.01": 5.60056167743,
			"0.011": 7.44057828496,
			"0.012": 8.66024375668,
			"0.013": 7.08250691452,
			"0.014": 1.66616008623,
			"0.015": 0.0870952430901,
			"0.016": 0.0,
			"0.017": 0.0,
			"0.018": 0.0,
			"0.019": 0.0,
			"0.02": 0.0,
			"0.021": 0.0,
			"0.022": 0.0,
			"0.023": 0.0,
			"0.024": 0.0,
			"0.025": 0.0
		}
	}
}
