{
	 "smiles": "COC1=C(C=CC=C1)C1=NOC(CCl)=N1", 
	 "Tm": 335.15, 
	 "num_atms": 24, 
	 "gaussian": { 
		 "optdone": 1, 
		 "sigma_profile": "yes", 
		 "theory": "DFT", 
		 "functional": "B3LYP", 
		 "basiset": "6-31G**", 
		 "properties": { 
			 "R2extent": 4569.9551, 
			 "electric_dipole_moment_norm": 3.53601126412, 
			 "electric_quadrupole_moment_norm": 12.9969564329, 
			 "total_energy": -1106.57292391, 
			 "HOMO_LUMO_gap": 0.18561, 
			 "cosmo_polarized_energy": -11.24, 
			 "cosmo_cavitation_energy": 30.87, 
			 "cosmo_dispersion_energy": -22.24, 
			 "cosmo_repulsion_energy": 1.77, 
			 "cosmo_total_nonelectrostatic_energy": 10.39, 
			 "SMD_solvation_energy": 4.57 
		},
		"coords": [
			{
				"x": 1.4954859201,
				"y": 1.5422077162,
				"z": -0.5812319392,
				"element": "C" 
			},
			{
				"x": 0.2432781544,
				"y": 1.6295461474,
				"z": 0.1017389258,
				"element": "O" 
			},
			{
				"x": 0.1801493545,
				"y": 1.0023127267,
				"z": 1.3192124626,
				"element": "C" 
			},
			{
				"x": -0.5498136417,
				"y": -0.1941823391,
				"z": 1.4609825117,
				"element": "C" 
			},
			{
				"x": -0.7041340483,
				"y": -0.7496552684,
				"z": 2.7425826339,
				"element": "C" 
			},
			{
				"x": -0.1237838877,
				"y": -0.1502709308,
				"z": 3.8557470543,
				"element": "C" 
			},
			{
				"x": 0.6176989408,
				"y": 1.0244285345,
				"z": 3.7024633992,
				"element": "C" 
			},
			{
				"x": 0.764476598,
				"y": 1.5982583672,
				"z": 2.441584838,
				"element": "C" 
			},
			{
				"x": -1.1659324999,
				"y": -0.8664551181,
				"z": 0.3066516914,
				"element": "C" 
			},
			{
				"x": -2.2880249348,
				"y": -1.546129117,
				"z": 0.428101498,
				"element": "N" 
			},
			{
				"x": -2.4929162915,
				"y": -2.078128431,
				"z": -0.8504885553,
				"element": "O" 
			},
			{
				"x": -1.4703149678,
				"y": -1.6497956037,
				"z": -1.6076490154,
				"element": "C" 
			},
			{
				"x": -1.4202845719,
				"y": -2.0664764946,
				"z": -3.0333489842,
				"element": "C" 
			},
			{
				"x": -2.5307208281,
				"y": -1.0683143799,
				"z": -4.068455987,
				"element": "Cl" 
			},
			{
				"x": -0.6207764766,
				"y": -0.907156642,
				"z": -0.9653793329,
				"element": "N" 
			},
			{
				"x": 1.6851198237,
				"y": 0.5130217248,
				"z": -0.9039269147,
				"element": "H" 
			},
			{
				"x": 1.4112410062,
				"y": 2.1872538712,
				"z": -1.4577688854,
				"element": "H" 
			},
			{
				"x": 2.3223947472,
				"y": 1.8940782067,
				"z": 0.0485574426,
				"element": "H" 
			},
			{
				"x": -1.2764853981,
				"y": -1.6655486303,
				"z": 2.8457928566,
				"element": "H" 
			},
			{
				"x": -0.2467864589,
				"y": -0.5970897475,
				"z": 4.8372733124,
				"element": "H" 
			},
			{
				"x": 1.0716694796,
				"y": 1.5005220745,
				"z": 4.5667934403,
				"element": "H" 
			},
			{
				"x": 1.3058027903,
				"y": 2.530201096,
				"z": 2.3115019788,
				"element": "H" 
			},
			{
				"x": -0.4100695562,
				"y": -1.926077474,
				"z": -3.4127579714,
				"element": "H" 
			},
			{
				"x": -1.7339732532,
				"y": -3.1038502888,
				"z": -3.14857646,
				"element": "H" 
			}
		],
		 "valence_orbital": [ 
			{
				"type": "occ",
				"energy": -0.30398,
				"method": "rhf"
			},
			{
				"type": "occ",
				"energy": -0.30229,
				"method": "rhf"
			},
			{
				"type": "occ",
				"energy": -0.27758,
				"method": "rhf"
			},
			{
				"type": "occ",
				"energy": -0.25458,
				"method": "rhf"
			},
			{
				"type": "occ",
				"energy": -0.24217,
				"method": "rhf"
			},
			{
				"type": "unocc",
				"energy": -0.05656,
				"method": "rhf"
			},
			{
				"type": "unocc",
				"energy": -0.03114,
				"method": "rhf"
			},
			{
				"type": "unocc",
				"energy": -0.00781,
				"method": "rhf"
			},
			{
				"type": "unocc",
				"energy": 0.03378,
				"method": "rhf"
			},
			{
				"type": "unocc",
				"energy": 0.05534,
				"method": "rhf"
			}
		],
		"cosmo_sigma_profile": { 
			"-0.025": 0.0,
			"-0.024": 0.0,
			"-0.023": 0.0,
			"-0.022": 0.0,
			"-0.021": 0.0,
			"-0.02": 0.0,
			"-0.019": 0.0,
			"-0.018": 0.0,
			"-0.017": 0.0,
			"-0.016": 0.0,
			"-0.015": 0.0,
			"-0.014": 0.0,
			"-0.013": 0.0,
			"-0.012": 0.0,
			"-0.011": 0.348149923911,
			"-0.01": 3.61875960646,
			"-0.009": 4.37015054625,
			"-0.008": 4.17067520101,
			"-0.007": 7.19741742515,
			"-0.006": 12.1124328583,
			"-0.005": 17.6068264988,
			"-0.004": 16.2432840535,
			"-0.003": 17.5353182594,
			"-0.002": 17.4984408878,
			"-0.001": 14.7667524069,
			"0.0": 16.6492551592,
			"0.001": 16.2893789786,
			"0.002": 17.2288245072,
			"0.003": 21.1939145828,
			"0.004": 20.0721774857,
			"0.005": 17.0256632509,
			"0.006": 7.01151574023,
			"0.007": 4.60491065579,
			"0.008": 3.84861334024,
			"0.009": 3.26568190584,
			"0.01": 3.08426164226,
			"0.011": 2.65072686853,
			"0.012": 1.2138580579,
			"0.013": 0.136967673251,
			"0.014": 0.0,
			"0.015": 0.0,
			"0.016": 0.0,
			"0.017": 0.0,
			"0.018": 0.0,
			"0.019": 0.0,
			"0.02": 0.0,
			"0.021": 0.0,
			"0.022": 0.0,
			"0.023": 0.0,
			"0.024": 0.0,
			"0.025": 0.0
		}
	}
}
