{
	 "smiles": "NC1=C(CSC2=NC=C(C=C2)C(F)(F)F)C=CC=C1", 
	 "Tm": 348.15, 
	 "num_atms": 30, 
	 "gaussian": { 
		 "optdone": 1, 
		 "sigma_profile": "yes", 
		 "theory": "DFT", 
		 "functional": "B3LYP", 
		 "basiset": "6-31G**", 
		 "properties": { 
			 "R2extent": 8809.8165, 
			 "electric_dipole_moment_norm": 3.00557745866, 
			 "electric_quadrupole_moment_norm": 8.80422473021, 
			 "total_energy": -1309.23257417, 
			 "HOMO_LUMO_gap": 0.16056, 
			 "cosmo_polarized_energy": -12.61, 
			 "cosmo_cavitation_energy": 37.24, 
			 "cosmo_dispersion_energy": -26.52, 
			 "cosmo_repulsion_energy": 1.94, 
			 "cosmo_total_nonelectrostatic_energy": 12.66, 
			 "SMD_solvation_energy": 6.45 
		},
		"coords": [
			{
				"x": -2.4882967033,
				"y": 4.0863243986,
				"z": 1.3741205931,
				"element": "N" 
			},
			{
				"x": -2.2964361199,
				"y": 3.7784603045,
				"z": 0.0255160754,
				"element": "C" 
			},
			{
				"x": -2.5665025841,
				"y": 2.4824338889,
				"z": -0.4740874892,
				"element": "C" 
			},
			{
				"x": -3.1378454504,
				"y": 1.4085876619,
				"z": 0.4083720379,
				"element": "C" 
			},
			{
				"x": -1.914490446,
				"y": 0.6277567019,
				"z": 1.5712703425,
				"element": "S" 
			},
			{
				"x": -1.4079046688,
				"y": -0.8182549579,
				"z": 0.6679048675,
				"element": "C" 
			},
			{
				"x": -1.9991181075,
				"y": -1.1331757694,
				"z": -0.4861611104,
				"element": "N" 
			},
			{
				"x": -1.6029536073,
				"y": -2.2435906657,
				"z": -1.1211520626,
				"element": "C" 
			},
			{
				"x": -0.6068340076,
				"y": -3.0871775735,
				"z": -0.6390295224,
				"element": "C" 
			},
			{
				"x": 0.0158696308,
				"y": -2.7492069476,
				"z": 0.5716039324,
				"element": "C" 
			},
			{
				"x": -0.3817146293,
				"y": -1.6027777923,
				"z": 1.2349029132,
				"element": "C" 
			},
			{
				"x": -0.2271163893,
				"y": -4.3442070998,
				"z": -1.3630831618,
				"element": "C" 
			},
			{
				"x": 1.1137286669,
				"y": -4.5252858991,
				"z": -1.370113458,
				"element": "F" 
			},
			{
				"x": -0.6465209546,
				"y": -4.335897033,
				"z": -2.6463869645,
				"element": "F" 
			},
			{
				"x": -0.761139107,
				"y": -5.4415991285,
				"z": -0.776693909,
				"element": "F" 
			},
			{
				"x": -2.2931640493,
				"y": 2.2036951122,
				"z": -1.8188261191,
				"element": "C" 
			},
			{
				"x": -1.7653494596,
				"y": 3.1681912503,
				"z": -2.6749284835,
				"element": "C" 
			},
			{
				"x": -1.5032231413,
				"y": 4.445650555,
				"z": -2.1757162857,
				"element": "C" 
			},
			{
				"x": -1.7684431037,
				"y": 4.7481558199,
				"z": -0.8437485111,
				"element": "C" 
			},
			{
				"x": -2.5361459728,
				"y": 5.0743058844,
				"z": 1.5813527859,
				"element": "H" 
			},
			{
				"x": -3.2071558972,
				"y": 3.5671604194,
				"z": 1.8573889923,
				"element": "H" 
			},
			{
				"x": -3.9375196698,
				"y": 1.7717903019,
				"z": 1.0622031778,
				"element": "H" 
			},
			{
				"x": -3.5379526418,
				"y": 0.5859668664,
				"z": -0.1852344062,
				"element": "H" 
			},
			{
				"x": -2.1019821589,
				"y": -2.4642760259,
				"z": -2.0607213228,
				"element": "H" 
			},
			{
				"x": 0.8065647733,
				"y": -3.3746588273,
				"z": 0.9738754893,
				"element": "H" 
			},
			{
				"x": 0.0845282513,
				"y": -1.3050030697,
				"z": 2.1681200951,
				"element": "H" 
			},
			{
				"x": -2.49634085,
				"y": 1.2015304203,
				"z": -2.1853592973,
				"element": "H" 
			},
			{
				"x": -1.5629233707,
				"y": 2.9275575764,
				"z": -3.7137644752,
				"element": "H" 
			},
			{
				"x": -1.0944802907,
				"y": 5.2145157299,
				"z": -2.8255713529,
				"element": "H" 
			},
			{
				"x": -1.5620379412,
				"y": 5.7447278979,
				"z": -0.4599533709,
				"element": "H" 
			}
		],
		 "valence_orbital": [ 
			{
				"type": "occ",
				"energy": -0.29844,
				"method": "rhf"
			},
			{
				"type": "occ",
				"energy": -0.27553,
				"method": "rhf"
			},
			{
				"type": "occ",
				"energy": -0.24193,
				"method": "rhf"
			},
			{
				"type": "occ",
				"energy": -0.22624,
				"method": "rhf"
			},
			{
				"type": "occ",
				"energy": -0.20222,
				"method": "rhf"
			},
			{
				"type": "unocc",
				"energy": -0.04166,
				"method": "rhf"
			},
			{
				"type": "unocc",
				"energy": -0.0332,
				"method": "rhf"
			},
			{
				"type": "unocc",
				"energy": -0.00528,
				"method": "rhf"
			},
			{
				"type": "unocc",
				"energy": 0.01485,
				"method": "rhf"
			},
			{
				"type": "unocc",
				"energy": 0.03558,
				"method": "rhf"
			}
		],
		"cosmo_sigma_profile": { 
			"-0.025": 0.0,
			"-0.024": 0.0,
			"-0.023": 0.0,
			"-0.022": 0.0,
			"-0.021": 0.0,
			"-0.02": 0.0,
			"-0.019": 0.0,
			"-0.018": 0.0,
			"-0.017": 0.0,
			"-0.016": 0.0,
			"-0.015": 0.0,
			"-0.014": 0.0,
			"-0.013": 1.421605261,
			"-0.012": 2.89327841423,
			"-0.011": 2.54583004497,
			"-0.01": 3.04040695053,
			"-0.009": 4.30001364613,
			"-0.008": 7.24378566018,
			"-0.007": 9.01340727436,
			"-0.006": 8.93094813549,
			"-0.005": 12.9821258514,
			"-0.004": 15.5416813296,
			"-0.003": 17.5662242732,
			"-0.002": 18.4327206683,
			"-0.001": 19.0159286857,
			"0.0": 23.8614673769,
			"0.001": 25.2675551506,
			"0.002": 32.2295015074,
			"0.003": 36.3841426764,
			"0.004": 15.01089536,
			"0.005": 11.2884733992,
			"0.006": 12.225836405,
			"0.007": 11.9416242773,
			"0.008": 3.32544892519,
			"0.009": 2.29807732768,
			"0.01": 1.148908634,
			"0.011": 0.695067336897,
			"0.012": 0.668135468609,
			"0.013": 0.53096161755,
			"0.014": 0.308109498248,
			"0.015": 0.0,
			"0.016": 0.0,
			"0.017": 0.0,
			"0.018": 0.0,
			"0.019": 0.0,
			"0.02": 0.0,
			"0.021": 0.0,
			"0.022": 0.0,
			"0.023": 0.0,
			"0.024": 0.0,
			"0.025": 0.0
		}
	}
}
