{
	 "smiles": "O=C(NC1=CC2=NN(N=C2C=C1)C1CCCCC1)C1=CC=CC=C1", 
	 "Tm": 485.15, 
	 "num_atms": 44, 
	 "gaussian": { 
		 "optdone": 1, 
		 "sigma_profile": "yes", 
		 "theory": "DFT", 
		 "functional": "B3LYP", 
		 "basiset": "6-31G**", 
		 "properties": { 
			 "R2extent": 14096.1245, 
			 "electric_dipole_moment_norm": 3.65595810425, 
			 "electric_quadrupole_moment_norm": 26.8684079193, 
			 "total_energy": -1030.31657974, 
			 "HOMO_LUMO_gap": 0.16055, 
			 "cosmo_polarized_energy": -15.37, 
			 "cosmo_cavitation_energy": 45.92, 
			 "cosmo_dispersion_energy": -33.7, 
			 "cosmo_repulsion_energy": 2.52, 
			 "cosmo_total_nonelectrostatic_energy": 14.75, 
			 "SMD_solvation_energy": 5.22 
		},
		"coords": [
			{
				"x": 0.3021897611,
				"y": -2.3509890169,
				"z": 4.4114865941,
				"element": "O" 
			},
			{
				"x": -0.1430052824,
				"y": -2.7973573511,
				"z": 3.3593078564,
				"element": "C" 
			},
			{
				"x": -0.0865027401,
				"y": -2.1334246239,
				"z": 2.1513788161,
				"element": "N" 
			},
			{
				"x": 0.4909851063,
				"y": -0.8853542098,
				"z": 1.8330585469,
				"element": "C" 
			},
			{
				"x": 0.309126053,
				"y": -0.4149472219,
				"z": 0.5408631621,
				"element": "C" 
			},
			{
				"x": 0.8940544167,
				"y": 0.823251539,
				"z": 0.2095280059,
				"element": "C" 
			},
			{
				"x": 0.8827006313,
				"y": 1.5170633103,
				"z": -0.95312355,
				"element": "N" 
			},
			{
				"x": 1.5975503499,
				"y": 2.603581684,
				"z": -0.6587137026,
				"element": "N" 
			},
			{
				"x": 2.081705983,
				"y": 2.7007340412,
				"z": 0.5752035322,
				"element": "N" 
			},
			{
				"x": 1.6446193118,
				"y": 1.5638579853,
				"z": 1.1647005638,
				"element": "C" 
			},
			{
				"x": 1.820410459,
				"y": 1.069936448,
				"z": 2.4763465045,
				"element": "C" 
			},
			{
				"x": 1.2481529598,
				"y": -0.1396118098,
				"z": 2.7983326643,
				"element": "C" 
			},
			{
				"x": 1.8730678454,
				"y": 3.6726628333,
				"z": -1.6369708368,
				"element": "C" 
			},
			{
				"x": 0.5796150615,
				"y": 4.3403650228,
				"z": -2.1474993347,
				"element": "C" 
			},
			{
				"x": -0.1601958905,
				"y": 3.5325424961,
				"z": -3.2253955713,
				"element": "C" 
			},
			{
				"x": 0.7780575729,
				"y": 3.143694457,
				"z": -4.3784575089,
				"element": "C" 
			},
			{
				"x": 2.0024907579,
				"y": 2.3719089359,
				"z": -3.8626091122,
				"element": "C" 
			},
			{
				"x": 2.7618117487,
				"y": 3.176381049,
				"z": -2.7965109718,
				"element": "C" 
			},
			{
				"x": -0.8257555884,
				"y": -4.1379301198,
				"z": 3.3087143437,
				"element": "C" 
			},
			{
				"x": -1.3738536207,
				"y": -4.6181285497,
				"z": 4.5062686924,
				"element": "C" 
			},
			{
				"x": -2.0199817609,
				"y": -5.8512183011,
				"z": 4.5415402702,
				"element": "C" 
			},
			{
				"x": -2.1114349248,
				"y": -6.6282882758,
				"z": 3.3836561282,
				"element": "C" 
			},
			{
				"x": -1.5474758279,
				"y": -6.1690497349,
				"z": 2.1922580567,
				"element": "C" 
			},
			{
				"x": -0.9074416699,
				"y": -4.9298973072,
				"z": 2.1536939862,
				"element": "C" 
			},
			{
				"x": -0.6084314818,
				"y": -2.5552166642,
				"z": 1.3975084794,
				"element": "H" 
			},
			{
				"x": -0.261067473,
				"y": -0.9740375101,
				"z": -0.1954747993,
				"element": "H" 
			},
			{
				"x": 2.3903118211,
				"y": 1.6294192564,
				"z": 3.2104382085,
				"element": "H" 
			},
			{
				"x": 1.3476681123,
				"y": -0.5535074238,
				"z": 3.7912131396,
				"element": "H" 
			},
			{
				"x": 2.4357777942,
				"y": 4.3933234147,
				"z": -1.0403021995,
				"element": "H" 
			},
			{
				"x": 0.8799344921,
				"y": 5.3095476174,
				"z": -2.5682869897,
				"element": "H" 
			},
			{
				"x": -0.0760288512,
				"y": 4.5576976571,
				"z": -1.2972469602,
				"element": "H" 
			},
			{
				"x": -1.0023474985,
				"y": 4.1252939403,
				"z": -3.6021684287,
				"element": "H" 
			},
			{
				"x": -0.5779062674,
				"y": 2.6263010138,
				"z": -2.775458746,
				"element": "H" 
			},
			{
				"x": 0.2367333905,
				"y": 2.5415809068,
				"z": -5.1175052539,
				"element": "H" 
			},
			{
				"x": 1.1125105059,
				"y": 4.0523216329,
				"z": -4.9010663032,
				"element": "H" 
			},
			{
				"x": 1.6771754404,
				"y": 1.4182198219,
				"z": -3.434099132,
				"element": "H" 
			},
			{
				"x": 2.6837650572,
				"y": 2.1391600189,
				"z": -4.6897526128,
				"element": "H" 
			},
			{
				"x": 3.6004077826,
				"y": 2.6015112777,
				"z": -2.3886261247,
				"element": "H" 
			},
			{
				"x": 3.1923931372,
				"y": 4.0734313006,
				"z": -3.2618066089,
				"element": "H" 
			},
			{
				"x": -1.2781840782,
				"y": -4.0059693498,
				"z": 5.3964943426,
				"element": "H" 
			},
			{
				"x": -2.4502762738,
				"y": -6.2091939448,
				"z": 5.4722660065,
				"element": "H" 
			},
			{
				"x": -2.6117987587,
				"y": -7.5919186762,
				"z": 3.4118656549,
				"element": "H" 
			},
			{
				"x": -1.5959478462,
				"y": -6.7788004219,
				"z": 1.2948745995,
				"element": "H" 
			},
			{
				"x": -0.4383797174,
				"y": -4.6091471477,
				"z": 1.2271765925,
				"element": "H" 
			}
		],
		 "valence_orbital": [ 
			{
				"type": "occ",
				"energy": -0.26667,
				"method": "rhf"
			},
			{
				"type": "occ",
				"energy": -0.26376,
				"method": "rhf"
			},
			{
				"type": "occ",
				"energy": -0.25277,
				"method": "rhf"
			},
			{
				"type": "occ",
				"energy": -0.23518,
				"method": "rhf"
			},
			{
				"type": "occ",
				"energy": -0.2119,
				"method": "rhf"
			},
			{
				"type": "unocc",
				"energy": -0.05135,
				"method": "rhf"
			},
			{
				"type": "unocc",
				"energy": -0.03437,
				"method": "rhf"
			},
			{
				"type": "unocc",
				"energy": -0.01414,
				"method": "rhf"
			},
			{
				"type": "unocc",
				"energy": 0.02425,
				"method": "rhf"
			},
			{
				"type": "unocc",
				"energy": 0.03496,
				"method": "rhf"
			}
		],
		"cosmo_sigma_profile": { 
			"-0.025": 0.0,
			"-0.024": 0.0,
			"-0.023": 0.0,
			"-0.022": 0.0,
			"-0.021": 0.0,
			"-0.02": 0.0,
			"-0.019": 0.0,
			"-0.018": 0.0,
			"-0.017": 0.0,
			"-0.016": 0.00898119235083,
			"-0.015": 0.762614053872,
			"-0.014": 1.48488120936,
			"-0.013": 1.28922734932,
			"-0.012": 1.46267253793,
			"-0.011": 1.22464069141,
			"-0.01": 1.4985931603,
			"-0.009": 1.97902053557,
			"-0.008": 2.9029334285,
			"-0.007": 4.33703078581,
			"-0.006": 13.3729206248,
			"-0.005": 16.8696816233,
			"-0.004": 25.0842915343,
			"-0.003": 27.123821376,
			"-0.002": 33.259779315,
			"-0.001": 36.6176291062,
			"0.0": 37.7504572277,
			"0.001": 34.1217335891,
			"0.002": 28.4977525124,
			"0.003": 29.6995987325,
			"0.004": 24.1454280187,
			"0.005": 8.89121096408,
			"0.006": 5.72759288274,
			"0.007": 5.31319487726,
			"0.008": 3.86588691884,
			"0.009": 3.37303994022,
			"0.01": 3.30549971304,
			"0.011": 3.38507882115,
			"0.012": 3.36319534358,
			"0.013": 3.23819900791,
			"0.014": 0.588044766632,
			"0.015": 0.0,
			"0.016": 0.0,
			"0.017": 0.0,
			"0.018": 0.0,
			"0.019": 0.0,
			"0.02": 0.0,
			"0.021": 0.0,
			"0.022": 0.0,
			"0.023": 0.0,
			"0.024": 0.0,
			"0.025": 0.0
		}
	}
}
