{
	 "smiles": "CC(C(O)=O)C1=CC=C(Br)C=C1", 
	 "Tm": 328.15, 
	 "num_atms": 21, 
	 "gaussian": { 
		 "optdone": 1, 
		 "sigma_profile": "yes", 
		 "theory": "DFT", 
		 "functional": "B3LYP", 
		 "basiset": "6-31G**", 
		 "properties": { 
			 "R2extent": 4803.3261, 
			 "electric_dipole_moment_norm": 2.03929669739, 
			 "electric_quadrupole_moment_norm": 12.6759679891, 
			 "total_energy": -3070.25408638, 
			 "HOMO_LUMO_gap": 0.21629, 
			 "cosmo_polarized_energy": -10.09, 
			 "cosmo_cavitation_energy": 27.5, 
			 "cosmo_dispersion_energy": -20.08, 
			 "cosmo_repulsion_energy": 1.63, 
			 "cosmo_total_nonelectrostatic_energy": 9.05, 
			 "SMD_solvation_energy": 4.85 
		},
		"coords": [
			{
				"x": 2.8687491008,
				"y": 0.5434780639,
				"z": 0.9437425352,
				"element": "C" 
			},
			{
				"x": 1.4844768383,
				"y": 1.0768575454,
				"z": 0.5245170877,
				"element": "C" 
			},
			{
				"x": 1.5723290071,
				"y": 2.431372452,
				"z": -0.1718095044,
				"element": "C" 
			},
			{
				"x": 2.5377174099,
				"y": 2.4669706191,
				"z": -1.1265723932,
				"element": "O" 
			},
			{
				"x": 0.8681704076,
				"y": 3.3850241602,
				"z": 0.0701104077,
				"element": "O" 
			},
			{
				"x": 0.7111067351,
				"y": 0.0790319613,
				"z": -0.3347257617,
				"element": "C" 
			},
			{
				"x": 1.1767502146,
				"y": -0.3257264302,
				"z": -1.5941963152,
				"element": "C" 
			},
			{
				"x": 0.4723883553,
				"y": -1.2575289191,
				"z": -2.3553248672,
				"element": "C" 
			},
			{
				"x": -0.712849844,
				"y": -1.7927128265,
				"z": -1.8529759654,
				"element": "C" 
			},
			{
				"x": -1.6822963808,
				"y": -3.0727624943,
				"z": -2.8907509282,
				"element": "Br" 
			},
			{
				"x": -1.2012771807,
				"y": -1.4063323691,
				"z": -0.6076412103,
				"element": "C" 
			},
			{
				"x": -0.4852073497,
				"y": -0.4709889643,
				"z": 0.140636739,
				"element": "C" 
			},
			{
				"x": 2.7512865986,
				"y": -0.3892466971,
				"z": 1.5023682463,
				"element": "H" 
			},
			{
				"x": 3.4986767154,
				"y": 0.3465387594,
				"z": 0.0735610743,
				"element": "H" 
			},
			{
				"x": 3.3881899488,
				"y": 1.2641783721,
				"z": 1.5831380282,
				"element": "H" 
			},
			{
				"x": 0.8905263988,
				"y": 1.2745195895,
				"z": 1.4209232674,
				"element": "H" 
			},
			{
				"x": 2.4884751123,
				"y": 3.3529811807,
				"z": -1.5239147194,
				"element": "H" 
			},
			{
				"x": 2.0922410093,
				"y": 0.0988559346,
				"z": -1.9932769252,
				"element": "H" 
			},
			{
				"x": 0.8389762873,
				"y": -1.5633493974,
				"z": -3.3286882996,
				"element": "H" 
			},
			{
				"x": -2.1257115806,
				"y": -1.826084079,
				"z": -0.2277166249,
				"element": "H" 
			},
			{
				"x": -0.8682178033,
				"y": -0.1672764612,
				"z": 1.111196129,
				"element": "H" 
			}
		],
		 "valence_orbital": [ 
			{
				"type": "occ",
				"energy": -0.31282,
				"method": "rhf"
			},
			{
				"type": "occ",
				"energy": -0.28777,
				"method": "rhf"
			},
			{
				"type": "occ",
				"energy": -0.27901,
				"method": "rhf"
			},
			{
				"type": "occ",
				"energy": -0.26601,
				"method": "rhf"
			},
			{
				"type": "occ",
				"energy": -0.24051,
				"method": "rhf"
			},
			{
				"type": "unocc",
				"energy": -0.02422,
				"method": "rhf"
			},
			{
				"type": "unocc",
				"energy": -0.01793,
				"method": "rhf"
			},
			{
				"type": "unocc",
				"energy": 0.00583,
				"method": "rhf"
			},
			{
				"type": "unocc",
				"energy": 0.01286,
				"method": "rhf"
			},
			{
				"type": "unocc",
				"energy": 0.06777,
				"method": "rhf"
			}
		],
		"cosmo_sigma_profile": { 
			"-0.025": 0.0,
			"-0.024": 0.0,
			"-0.023": 0.0,
			"-0.022": 0.0,
			"-0.021": 0.0,
			"-0.02": 0.0,
			"-0.019": 0.0283103734873,
			"-0.018": 0.748756140519,
			"-0.017": 0.97503252529,
			"-0.016": 0.938429394126,
			"-0.015": 0.593363605851,
			"-0.014": 0.749732228267,
			"-0.013": 0.464924144675,
			"-0.012": 0.683656943498,
			"-0.011": 0.978810004563,
			"-0.01": 0.847005970963,
			"-0.009": 0.661829983565,
			"-0.008": 0.819317584088,
			"-0.007": 6.09078769182,
			"-0.006": 8.76310189913,
			"-0.005": 11.9686743207,
			"-0.004": 17.0192910259,
			"-0.003": 15.8015626586,
			"-0.002": 15.5723600973,
			"-0.001": 15.8247154936,
			"0.0": 16.9192474613,
			"0.001": 16.7853734897,
			"0.002": 19.4559373282,
			"0.003": 21.7139662005,
			"0.004": 18.7583697347,
			"0.005": 9.72329978942,
			"0.006": 2.26705770716,
			"0.007": 2.11516368286,
			"0.008": 1.67460837115,
			"0.009": 1.66978190188,
			"0.01": 2.20278504937,
			"0.011": 4.06895818755,
			"0.012": 4.14067523218,
			"0.013": 0.702347891068,
			"0.014": 0.0,
			"0.015": 0.0,
			"0.016": 0.0,
			"0.017": 0.0,
			"0.018": 0.0,
			"0.019": 0.0,
			"0.02": 0.0,
			"0.021": 0.0,
			"0.022": 0.0,
			"0.023": 0.0,
			"0.024": 0.0,
			"0.025": 0.0
		}
	}
}
