{
	 "smiles": "CC1=NC(=NN1C1=NN=CN1)C(O)=O", 
	 "Tm": 499.15, 
	 "num_atms": 20, 
	 "gaussian": { 
		 "optdone": 1, 
		 "sigma_profile": "yes", 
		 "theory": "DFT", 
		 "functional": "B3LYP", 
		 "basiset": "6-31G**", 
		 "properties": { 
			 "R2extent": 4279.852, 
			 "electric_dipole_moment_norm": 5.47878705646, 
			 "electric_quadrupole_moment_norm": 20.6831556079, 
			 "total_energy": -711.180822397, 
			 "HOMO_LUMO_gap": 0.19909, 
			 "cosmo_polarized_energy": -27.11, 
			 "cosmo_cavitation_energy": 26.18, 
			 "cosmo_dispersion_energy": -19.43, 
			 "cosmo_repulsion_energy": 1.53, 
			 "cosmo_total_nonelectrostatic_energy": 8.28, 
			 "SMD_solvation_energy": 2.49 
		},
		"coords": [
			{
				"x": 3.5275588081,
				"y": -1.8396716172,
				"z": 2.1931468692,
				"element": "C" 
			},
			{
				"x": 2.4095547625,
				"y": -1.080012553,
				"z": 1.570701791,
				"element": "C" 
			},
			{
				"x": 1.9742880655,
				"y": 0.1135281106,
				"z": 1.9304244566,
				"element": "N" 
			},
			{
				"x": 0.9542240538,
				"y": 0.3677296399,
				"z": 1.0683463731,
				"element": "C" 
			},
			{
				"x": 0.7160284393,
				"y": -0.5930421481,
				"z": 0.1826039089,
				"element": "N" 
			},
			{
				"x": 1.652902691,
				"y": -1.5243953061,
				"z": 0.5066369085,
				"element": "N" 
			},
			{
				"x": 1.7263792268,
				"y": -2.7143646576,
				"z": -0.2170323073,
				"element": "C" 
			},
			{
				"x": 2.5706267553,
				"y": -3.6956071234,
				"z": -0.0203349394,
				"element": "N" 
			},
			{
				"x": 2.2757434603,
				"y": -4.6616208476,
				"z": -0.9669701478,
				"element": "N" 
			},
			{
				"x": 1.2740248648,
				"y": -4.2192050984,
				"z": -1.6843182837,
				"element": "C" 
			},
			{
				"x": 0.88009477,
				"y": -2.9782188599,
				"z": -1.2508602415,
				"element": "N" 
			},
			{
				"x": 0.1323941491,
				"y": 1.6197177961,
				"z": 1.076263172,
				"element": "C" 
			},
			{
				"x": -0.8276887538,
				"y": 1.6490234182,
				"z": 0.1224490762,
				"element": "O" 
			},
			{
				"x": 0.3000949492,
				"y": 2.5244628612,
				"z": 1.8511062417,
				"element": "O" 
			},
			{
				"x": 3.1832722824,
				"y": -2.8045214158,
				"z": 2.5759696043,
				"element": "H" 
			},
			{
				"x": 4.3111500559,
				"y": -2.0573787305,
				"z": 1.4619764731,
				"element": "H" 
			},
			{
				"x": 3.93359418,
				"y": -1.2389498673,
				"z": 3.00713024,
				"element": "H" 
			},
			{
				"x": 0.8054029764,
				"y": -4.7385546386,
				"z": -2.5071067818,
				"element": "H" 
			},
			{
				"x": 0.1456580345,
				"y": -2.3734380958,
				"z": -1.5888990849,
				"element": "H" 
			},
			{
				"x": -0.7894037711,
				"y": 0.8252191332,
				"z": -0.3909333285,
				"element": "H" 
			}
		],
		 "valence_orbital": [ 
			{
				"type": "occ",
				"energy": -0.3111,
				"method": "rhf"
			},
			{
				"type": "occ",
				"energy": -0.30706,
				"method": "rhf"
			},
			{
				"type": "occ",
				"energy": -0.28804,
				"method": "rhf"
			},
			{
				"type": "occ",
				"energy": -0.28345,
				"method": "rhf"
			},
			{
				"type": "occ",
				"energy": -0.27093,
				"method": "rhf"
			},
			{
				"type": "unocc",
				"energy": -0.07184,
				"method": "rhf"
			},
			{
				"type": "unocc",
				"energy": -0.02358,
				"method": "rhf"
			},
			{
				"type": "unocc",
				"energy": 0.00242,
				"method": "rhf"
			},
			{
				"type": "unocc",
				"energy": 0.04203,
				"method": "rhf"
			},
			{
				"type": "unocc",
				"energy": 0.0479,
				"method": "rhf"
			}
		],
		"cosmo_sigma_profile": { 
			"-0.025": 0.0,
			"-0.024": 0.0,
			"-0.023": 0.0,
			"-0.022": 0.0,
			"-0.021": 0.0,
			"-0.02": 0.0,
			"-0.019": 0.213891246225,
			"-0.018": 1.19284536576,
			"-0.017": 0.958128945883,
			"-0.016": 1.71953696733,
			"-0.015": 1.11325154348,
			"-0.014": 1.62575552369,
			"-0.013": 2.3385498374,
			"-0.012": 1.59411936783,
			"-0.011": 5.17079270224,
			"-0.01": 3.18316866044,
			"-0.009": 2.87722660592,
			"-0.008": 4.10997366053,
			"-0.007": 6.30686334832,
			"-0.006": 15.4175642758,
			"-0.005": 15.7522709414,
			"-0.004": 14.701947066,
			"-0.003": 16.7063746909,
			"-0.002": 14.9251104232,
			"-0.001": 9.17919047158,
			"0.0": 5.60581043608,
			"0.001": 7.23535515684,
			"0.002": 5.31566539625,
			"0.003": 4.70011805354,
			"0.004": 5.21630872593,
			"0.005": 4.65165718787,
			"0.006": 5.08927843801,
			"0.007": 5.07679877238,
			"0.008": 6.62837947964,
			"0.009": 8.63109332218,
			"0.01": 7.08400886279,
			"0.011": 9.92495671767,
			"0.012": 7.29946024541,
			"0.013": 4.18894920083,
			"0.014": 3.00835329531,
			"0.015": 1.43871094901,
			"0.016": 0.712183875345,
			"0.017": 0.0,
			"0.018": 0.0,
			"0.019": 0.0,
			"0.02": 0.0,
			"0.021": 0.0,
			"0.022": 0.0,
			"0.023": 0.0,
			"0.024": 0.0,
			"0.025": 0.0
		}
	}
}
