{
	 "smiles": "FC(F)(F)C1=CC(NC(=O)CCl)=C(C=C1)N1CCOCC1", 
	 "Tm": 429.15, 
	 "num_atms": 35, 
	 "gaussian": { 
		 "optdone": 1, 
		 "sigma_profile": "yes", 
		 "theory": "DFT", 
		 "functional": "B3LYP", 
		 "basiset": "6-31G**", 
		 "properties": { 
			 "R2extent": 9020.8244, 
			 "electric_dipole_moment_norm": 4.9008444354, 
			 "electric_quadrupole_moment_norm": 10.8231722351, 
			 "total_energy": -1523.47652433, 
			 "HOMO_LUMO_gap": 0.18032, 
			 "cosmo_polarized_energy": -18.14, 
			 "cosmo_cavitation_energy": 40.46, 
			 "cosmo_dispersion_energy": -27.87, 
			 "cosmo_repulsion_energy": 2.1, 
			 "cosmo_total_nonelectrostatic_energy": 14.69, 
			 "SMD_solvation_energy": 7.63 
		},
		"coords": [
			{
				"x": -0.2259155005,
				"y": -3.8351523378,
				"z": 3.3565710051,
				"element": "F" 
			},
			{
				"x": 0.9245707838,
				"y": -3.3717945194,
				"z": 2.8157788592,
				"element": "C" 
			},
			{
				"x": 1.5576986937,
				"y": -4.4183864601,
				"z": 2.2433686564,
				"element": "F" 
			},
			{
				"x": 1.6996460102,
				"y": -2.9602126207,
				"z": 3.847515557,
				"element": "F" 
			},
			{
				"x": 0.6732511671,
				"y": -2.2633889121,
				"z": 1.8330786557,
				"element": "C" 
			},
			{
				"x": -0.4044259677,
				"y": -1.3968542594,
				"z": 2.0301410755,
				"element": "C" 
			},
			{
				"x": -0.620673933,
				"y": -0.3187200127,
				"z": 1.1717692009,
				"element": "C" 
			},
			{
				"x": -1.7545155587,
				"y": 0.5108635007,
				"z": 1.2782667622,
				"element": "N" 
			},
			{
				"x": -2.4046708118,
				"y": 1.087297945,
				"z": 2.3549623155,
				"element": "C" 
			},
			{
				"x": -3.3867883282,
				"y": 1.78357629,
				"z": 2.179169783,
				"element": "O" 
			},
			{
				"x": -1.8193669485,
				"y": 0.8036765199,
				"z": 3.7424462446,
				"element": "C" 
			},
			{
				"x": -2.1637743927,
				"y": 2.1400053898,
				"z": 4.8889015829,
				"element": "Cl" 
			},
			{
				"x": 0.2527229363,
				"y": -0.1025952696,
				"z": 0.0647845947,
				"element": "C" 
			},
			{
				"x": 1.2981416795,
				"y": -1.0176430754,
				"z": -0.1338585914,
				"element": "C" 
			},
			{
				"x": 1.5150008815,
				"y": -2.0820569423,
				"z": 0.7380112654,
				"element": "C" 
			},
			{
				"x": -0.033395175,
				"y": 0.9570046536,
				"z": -0.8221009756,
				"element": "N" 
			},
			{
				"x": 0.4073859343,
				"y": 0.8745687255,
				"z": -2.220973006,
				"element": "C" 
			},
			{
				"x": 1.7611441848,
				"y": 1.5543286511,
				"z": -2.4665546443,
				"element": "C" 
			},
			{
				"x": 1.7466730674,
				"y": 2.892682415,
				"z": -1.9902276649,
				"element": "O" 
			},
			{
				"x": 1.4452091315,
				"y": 2.9404523181,
				"z": -0.6009659484,
				"element": "C" 
			},
			{
				"x": 0.0642260005,
				"y": 2.3453310698,
				"z": -0.3196743244,
				"element": "C" 
			},
			{
				"x": -1.1120167809,
				"y": -1.606272924,
				"z": 2.8228020406,
				"element": "H" 
			},
			{
				"x": -2.1241161082,
				"y": 0.835814656,
				"z": 0.3894465283,
				"element": "H" 
			},
			{
				"x": -2.2780252691,
				"y": -0.0973484008,
				"z": 4.156888722,
				"element": "H" 
			},
			{
				"x": -0.739179662,
				"y": 0.6619675196,
				"z": 3.7106578111,
				"element": "H" 
			},
			{
				"x": 1.9714276898,
				"y": -0.8850066879,
				"z": -0.9720675809,
				"element": "H" 
			},
			{
				"x": 2.339060954,
				"y": -2.7653280351,
				"z": 0.5661939154,
				"element": "H" 
			},
			{
				"x": 0.423816621,
				"y": -0.1718081508,
				"z": -2.5373532344,
				"element": "H" 
			},
			{
				"x": -0.3457938493,
				"y": 1.3931903677,
				"z": -2.8287346356,
				"element": "H" 
			},
			{
				"x": 1.9718086522,
				"y": 1.6055372484,
				"z": -3.539236183,
				"element": "H" 
			},
			{
				"x": 2.5775552238,
				"y": 0.9935657479,
				"z": -1.9827352057,
				"element": "H" 
			},
			{
				"x": 1.474029431,
				"y": 3.9951397308,
				"z": -0.3111025874,
				"element": "H" 
			},
			{
				"x": 2.2136004444,
				"y": 2.3991542264,
				"z": -0.0235921594,
				"element": "H" 
			},
			{
				"x": -0.6944672868,
				"y": 2.9513062516,
				"z": -0.8309614757,
				"element": "H" 
			},
			{
				"x": -0.1501439143,
				"y": 2.3691053813,
				"z": 0.7496836413,
				"element": "H" 
			}
		],
		 "valence_orbital": [ 
			{
				"type": "occ",
				"energy": -0.30027,
				"method": "rhf"
			},
			{
				"type": "occ",
				"energy": -0.27987,
				"method": "rhf"
			},
			{
				"type": "occ",
				"energy": -0.27264,
				"method": "rhf"
			},
			{
				"type": "occ",
				"energy": -0.25236,
				"method": "rhf"
			},
			{
				"type": "occ",
				"energy": -0.22064,
				"method": "rhf"
			},
			{
				"type": "unocc",
				"energy": -0.04032,
				"method": "rhf"
			},
			{
				"type": "unocc",
				"energy": -0.03508,
				"method": "rhf"
			},
			{
				"type": "unocc",
				"energy": -0.00049,
				"method": "rhf"
			},
			{
				"type": "unocc",
				"energy": 0.03243,
				"method": "rhf"
			},
			{
				"type": "unocc",
				"energy": 0.07136,
				"method": "rhf"
			}
		],
		"cosmo_sigma_profile": { 
			"-0.025": 0.0,
			"-0.024": 0.0,
			"-0.023": 0.0,
			"-0.022": 0.0,
			"-0.021": 0.0,
			"-0.02": 0.0,
			"-0.019": 0.0,
			"-0.018": 0.0,
			"-0.017": 0.0,
			"-0.016": 0.0,
			"-0.015": 0.0,
			"-0.014": 0.0,
			"-0.013": 0.0,
			"-0.012": 0.626672553448,
			"-0.011": 2.08834668902,
			"-0.01": 3.62370290465,
			"-0.009": 3.60813891179,
			"-0.008": 4.73273525664,
			"-0.007": 11.2358282559,
			"-0.006": 14.8844101988,
			"-0.005": 23.0402264529,
			"-0.004": 31.8433604424,
			"-0.003": 24.2764011615,
			"-0.002": 20.0845800224,
			"-0.001": 16.128607834,
			"0.0": 16.1363832622,
			"0.001": 19.82750583,
			"0.002": 28.6837264151,
			"0.003": 41.5360284581,
			"0.004": 13.7188055133,
			"0.005": 7.88437444617,
			"0.006": 8.83540056406,
			"0.007": 3.3600242449,
			"0.008": 2.85237329977,
			"0.009": 3.51879129754,
			"0.01": 2.69383229619,
			"0.011": 4.01600673702,
			"0.012": 6.18794452315,
			"0.013": 6.39141551517,
			"0.014": 1.20799479288,
			"0.015": 0.0,
			"0.016": 0.0,
			"0.017": 0.0,
			"0.018": 0.0,
			"0.019": 0.0,
			"0.02": 0.0,
			"0.021": 0.0,
			"0.022": 0.0,
			"0.023": 0.0,
			"0.024": 0.0,
			"0.025": 0.0
		}
	}
}
