{
	 "smiles": "O=C(C(=S)N1CCOCC1)C1=CC=CC=C1", 
	 "Tm": 348.15, 
	 "num_atms": 29, 
	 "gaussian": { 
		 "optdone": 1, 
		 "sigma_profile": "yes", 
		 "theory": "DFT", 
		 "functional": "B3LYP", 
		 "basiset": "6-31G**", 
		 "properties": { 
			 "R2extent": 5010.817, 
			 "electric_dipole_moment_norm": 4.26536683651, 
			 "electric_quadrupole_moment_norm": 7.27868260195, 
			 "total_energy": -1068.47148074, 
			 "HOMO_LUMO_gap": 0.14159, 
			 "cosmo_polarized_energy": -15.68, 
			 "cosmo_cavitation_energy": 33.45, 
			 "cosmo_dispersion_energy": -24.22, 
			 "cosmo_repulsion_energy": 1.86, 
			 "cosmo_total_nonelectrostatic_energy": 11.09, 
			 "SMD_solvation_energy": 4.25 
		},
		"coords": [
			{
				"x": 0.8898518048,
				"y": 1.3872162177,
				"z": -1.0452466516,
				"element": "O" 
			},
			{
				"x": 0.2462282955,
				"y": 0.7558828216,
				"z": -0.2153598262,
				"element": "C" 
			},
			{
				"x": -0.598744101,
				"y": -0.4167770793,
				"z": -0.7026788163,
				"element": "C" 
			},
			{
				"x": -0.0112142189,
				"y": -1.9388775161,
				"z": -0.3436560246,
				"element": "S" 
			},
			{
				"x": -1.676619185,
				"y": -0.1518477566,
				"z": -1.4570044888,
				"element": "N" 
			},
			{
				"x": -2.1281011302,
				"y": 1.2066702271,
				"z": -1.8129932144,
				"element": "C" 
			},
			{
				"x": -2.6312656594,
				"y": 1.2130258234,
				"z": -3.2543553005,
				"element": "C" 
			},
			{
				"x": -3.7101639469,
				"y": 0.3080774291,
				"z": -3.4786815597,
				"element": "O" 
			},
			{
				"x": -3.8132992935,
				"y": -0.7339488199,
				"z": -2.5166405423,
				"element": "C" 
			},
			{
				"x": -2.4597225407,
				"y": -1.2523262212,
				"z": -2.0451882703,
				"element": "C" 
			},
			{
				"x": 0.2851889351,
				"y": 1.0825361993,
				"z": 1.2371338294,
				"element": "C" 
			},
			{
				"x": 1.1594148262,
				"y": 2.1015107302,
				"z": 1.650199071,
				"element": "C" 
			},
			{
				"x": 1.2011399303,
				"y": 2.4921503498,
				"z": 2.9846246999,
				"element": "C" 
			},
			{
				"x": 0.3620554513,
				"y": 1.8766596615,
				"z": 3.9188453691,
				"element": "C" 
			},
			{
				"x": -0.5156679208,
				"y": 0.8680720617,
				"z": 3.5143876815,
				"element": "C" 
			},
			{
				"x": -0.5539839469,
				"y": 0.4683614803,
				"z": 2.1798608835,
				"element": "C" 
			},
			{
				"x": -1.2941787348,
				"y": 1.9004340084,
				"z": -1.7217512051,
				"element": "H" 
			},
			{
				"x": -2.9259290687,
				"y": 1.5260201423,
				"z": -1.1301236301,
				"element": "H" 
			},
			{
				"x": -2.9848569762,
				"y": 2.2183517881,
				"z": -3.5087697356,
				"element": "H" 
			},
			{
				"x": -1.7948806938,
				"y": 0.9696264421,
				"z": -3.9254290053,
				"element": "H" 
			},
			{
				"x": -4.363757347,
				"y": -1.549090214,
				"z": -2.9951698151,
				"element": "H" 
			},
			{
				"x": -4.4051206288,
				"y": -0.4026487332,
				"z": -1.6486001904,
				"element": "H" 
			},
			{
				"x": -2.5844425747,
				"y": -2.0378477164,
				"z": -1.293492182,
				"element": "H" 
			},
			{
				"x": -1.8957973029,
				"y": -1.6928442866,
				"z": -2.8767365099,
				"element": "H" 
			},
			{
				"x": 1.7943213987,
				"y": 2.5690625565,
				"z": 0.905148421,
				"element": "H" 
			},
			{
				"x": 1.8842177128,
				"y": 3.2755423859,
				"z": 3.2994774939,
				"element": "H" 
			},
			{
				"x": 0.3934011544,
				"y": 2.1822641421,
				"z": 4.960851928,
				"element": "H" 
			},
			{
				"x": -1.1652547168,
				"y": 0.3882070683,
				"z": 4.2402622432,
				"element": "H" 
			},
			{
				"x": -1.2204195221,
				"y": -0.3303631923,
				"z": 1.8732853478,
				"element": "H" 
			}
		],
		 "valence_orbital": [ 
			{
				"type": "occ",
				"energy": -0.26643,
				"method": "rhf"
			},
			{
				"type": "occ",
				"energy": -0.26598,
				"method": "rhf"
			},
			{
				"type": "occ",
				"energy": -0.26208,
				"method": "rhf"
			},
			{
				"type": "occ",
				"energy": -0.23367,
				"method": "rhf"
			},
			{
				"type": "occ",
				"energy": -0.21235,
				"method": "rhf"
			},
			{
				"type": "unocc",
				"energy": -0.07076,
				"method": "rhf"
			},
			{
				"type": "unocc",
				"energy": -0.03762,
				"method": "rhf"
			},
			{
				"type": "unocc",
				"energy": -0.01122,
				"method": "rhf"
			},
			{
				"type": "unocc",
				"energy": 0.03209,
				"method": "rhf"
			},
			{
				"type": "unocc",
				"energy": 0.07159,
				"method": "rhf"
			}
		],
		"cosmo_sigma_profile": { 
			"-0.025": 0.0,
			"-0.024": 0.0,
			"-0.023": 0.0,
			"-0.022": 0.0,
			"-0.021": 0.0,
			"-0.02": 0.0,
			"-0.019": 0.0,
			"-0.018": 0.0,
			"-0.017": 0.0,
			"-0.016": 0.0,
			"-0.015": 0.0,
			"-0.014": 0.0,
			"-0.013": 0.0,
			"-0.012": 0.0,
			"-0.011": 0.0,
			"-0.01": 0.0,
			"-0.009": 0.0,
			"-0.008": 0.0630637353989,
			"-0.007": 8.83787942712,
			"-0.006": 32.3203657095,
			"-0.005": 34.8577817999,
			"-0.004": 23.2864015051,
			"-0.003": 16.8631753178,
			"-0.002": 12.8799670528,
			"-0.001": 10.3668753768,
			"0.0": 10.8787057797,
			"0.001": 13.2235460905,
			"0.002": 13.8808208049,
			"0.003": 17.190969197,
			"0.004": 17.4789082561,
			"0.005": 7.59330619454,
			"0.006": 8.38263637594,
			"0.007": 10.151468556,
			"0.008": 8.56052167049,
			"0.009": 7.13061563743,
			"0.01": 5.77039901297,
			"0.011": 5.22539980013,
			"0.012": 1.9662584975,
			"0.013": 1.27100397672,
			"0.014": 0.0092225686525,
			"0.015": 0.0,
			"0.016": 0.0,
			"0.017": 0.0,
			"0.018": 0.0,
			"0.019": 0.0,
			"0.02": 0.0,
			"0.021": 0.0,
			"0.022": 0.0,
			"0.023": 0.0,
			"0.024": 0.0,
			"0.025": 0.0
		}
	}
}
