{
	 "smiles": "CC(=O)NC1CC2=CC=CC=C12", 
	 "Tm": 396.15, 
	 "num_atms": 23, 
	 "gaussian": { 
		 "optdone": 1, 
		 "sigma_profile": "yes", 
		 "theory": "DFT", 
		 "functional": "B3LYP", 
		 "basiset": "6-31G**", 
		 "properties": { 
			 "R2extent": 3486.3609, 
			 "electric_dipole_moment_norm": 3.44763518517, 
			 "electric_quadrupole_moment_norm": 14.9533404017, 
			 "total_energy": -517.651988615, 
			 "HOMO_LUMO_gap": 0.22453, 
			 "cosmo_polarized_energy": -12.03, 
			 "cosmo_cavitation_energy": 26.89, 
			 "cosmo_dispersion_energy": -19.46, 
			 "cosmo_repulsion_energy": 1.59, 
			 "cosmo_total_nonelectrostatic_energy": 9.02, 
			 "SMD_solvation_energy": 4.68 
		},
		"coords": [
			{
				"x": -2.0801594453,
				"y": -0.9402807683,
				"z": 4.7936693758,
				"element": "C" 
			},
			{
				"x": -1.5073889613,
				"y": 0.1334035812,
				"z": 3.880044005,
				"element": "C" 
			},
			{
				"x": -0.8258491343,
				"y": 1.0540859928,
				"z": 4.3120422453,
				"element": "O" 
			},
			{
				"x": -1.8098867494,
				"y": -0.0073278368,
				"z": 2.549232671,
				"element": "N" 
			},
			{
				"x": -1.3482537474,
				"y": 0.9184478024,
				"z": 1.5410888672,
				"element": "C" 
			},
			{
				"x": -2.4377646476,
				"y": 1.7416505211,
				"z": 0.7260051549,
				"element": "C" 
			},
			{
				"x": -1.8357551354,
				"y": 1.1120835399,
				"z": -0.5219171963,
				"element": "C" 
			},
			{
				"x": -1.9014035032,
				"y": 1.0776765115,
				"z": -1.9082471845,
				"element": "C" 
			},
			{
				"x": -1.0075999371,
				"y": 0.2017777279,
				"z": -2.5452103196,
				"element": "C" 
			},
			{
				"x": -0.0975636569,
				"y": -0.5833350619,
				"z": -1.821046534,
				"element": "C" 
			},
			{
				"x": -0.0279080327,
				"y": -0.5266397243,
				"z": -0.4202239572,
				"element": "C" 
			},
			{
				"x": -0.9184819645,
				"y": 0.343271637,
				"z": 0.1945629294,
				"element": "C" 
			},
			{
				"x": -2.6323709832,
				"y": -1.7241618183,
				"z": 4.267578426,
				"element": "H" 
			},
			{
				"x": -2.7448883787,
				"y": -0.4647304326,
				"z": 5.5203140172,
				"element": "H" 
			},
			{
				"x": -1.2597625974,
				"y": -1.3961690769,
				"z": 5.354101831,
				"element": "H" 
			},
			{
				"x": -2.3749688687,
				"y": -0.7895841192,
				"z": 2.2533013341,
				"element": "H" 
			},
			{
				"x": -0.6100036451,
				"y": 1.5590887592,
				"z": 2.0299156404,
				"element": "H" 
			},
			{
				"x": -2.3643353447,
				"y": 2.8305898961,
				"z": 0.8186013135,
				"element": "H" 
			},
			{
				"x": -3.4659277129,
				"y": 1.4399677074,
				"z": 0.9536291082,
				"element": "H" 
			},
			{
				"x": -2.6010715672,
				"y": 1.6763149595,
				"z": -2.4850073238,
				"element": "H" 
			},
			{
				"x": -1.0193006697,
				"y": 0.1247511159,
				"z": -3.6291479014,
				"element": "H" 
			},
			{
				"x": 0.5716347985,
				"y": -1.2461879835,
				"z": -2.3628267396,
				"element": "H" 
			},
			{
				"x": 0.686809884,
				"y": -1.13139293,
				"z": 0.1309402375,
				"element": "H" 
			}
		],
		 "valence_orbital": [ 
			{
				"type": "occ",
				"energy": -0.31859,
				"method": "rhf"
			},
			{
				"type": "occ",
				"energy": -0.25758,
				"method": "rhf"
			},
			{
				"type": "occ",
				"energy": -0.24891,
				"method": "rhf"
			},
			{
				"type": "occ",
				"energy": -0.24721,
				"method": "rhf"
			},
			{
				"type": "occ",
				"energy": -0.23492,
				"method": "rhf"
			},
			{
				"type": "unocc",
				"energy": -0.01039,
				"method": "rhf"
			},
			{
				"type": "unocc",
				"energy": 0.00077,
				"method": "rhf"
			},
			{
				"type": "unocc",
				"energy": 0.03115,
				"method": "rhf"
			},
			{
				"type": "unocc",
				"energy": 0.07793,
				"method": "rhf"
			},
			{
				"type": "unocc",
				"energy": 0.09878,
				"method": "rhf"
			}
		],
		"cosmo_sigma_profile": { 
			"-0.025": 0.0,
			"-0.024": 0.0,
			"-0.023": 0.0,
			"-0.022": 0.0,
			"-0.021": 0.0,
			"-0.02": 0.0,
			"-0.019": 0.0,
			"-0.018": 0.0,
			"-0.017": 0.0,
			"-0.016": 0.0,
			"-0.015": 0.0,
			"-0.014": 0.559352089572,
			"-0.013": 1.32253597846,
			"-0.012": 1.17572381525,
			"-0.011": 1.10593379176,
			"-0.01": 1.20088031688,
			"-0.009": 1.79608433723,
			"-0.008": 1.50061147078,
			"-0.007": 1.83851998499,
			"-0.006": 6.33486271298,
			"-0.005": 16.416362195,
			"-0.004": 20.4999251499,
			"-0.003": 20.8906782677,
			"-0.002": 19.5110477326,
			"-0.001": 21.9484584283,
			"0.0": 17.8634180302,
			"0.001": 12.1158328269,
			"0.002": 11.675703139,
			"0.003": 8.87876571651,
			"0.004": 8.67023587528,
			"0.005": 10.1544382128,
			"0.006": 8.10900615982,
			"0.007": 2.14683629582,
			"0.008": 1.65433892617,
			"0.009": 1.39067800024,
			"0.01": 0.907082423487,
			"0.011": 1.3804213642,
			"0.012": 2.18884410659,
			"0.013": 2.66339373625,
			"0.014": 5.58355894276,
			"0.015": 1.83994287421,
			"0.016": 0.136113882293,
			"0.017": 0.0,
			"0.018": 0.0,
			"0.019": 0.0,
			"0.02": 0.0,
			"0.021": 0.0,
			"0.022": 0.0,
			"0.023": 0.0,
			"0.024": 0.0,
			"0.025": 0.0
		}
	}
}
