{
	 "smiles": "[O-][N+](=O)C1=CC(=CC=C1)C(=O)C1=NN(C(S1)=N/NC1=CC=CC=C1)C1=CC=CC=C1", 
	 "Tm": 457.15, 
	 "num_atms": 45, 
	 "gaussian": { 
		 "optdone": 1, 
		 "sigma_profile": "yes", 
		 "theory": "DFT", 
		 "functional": "B3LYP", 
		 "basiset": "6-31G**", 
		 "properties": { 
			 "R2extent": 17319.7928, 
			 "electric_dipole_moment_norm": 7.72998735445, 
			 "electric_quadrupole_moment_norm": 32.3808732829, 
			 "total_energy": -1706.70623262, 
			 "HOMO_LUMO_gap": 0.09233, 
			 "cosmo_polarized_energy": -18.43, 
			 "cosmo_cavitation_energy": 53.06, 
			 "cosmo_dispersion_energy": -35.93, 
			 "cosmo_repulsion_energy": 2.66, 
			 "cosmo_total_nonelectrostatic_energy": 19.79, 
			 "SMD_solvation_energy": 10.22 
		},
		"coords": [
			{
				"x": 6.8775942507,
				"y": 3.2615582515,
				"z": -2.7926735733,
				"element": "O" 
			},
			{
				"x": 7.0122013701,
				"y": 2.1430067078,
				"z": -2.3027668869,
				"element": "N" 
			},
			{
				"x": 8.0287618819,
				"y": 1.454567045,
				"z": -2.3842478889,
				"element": "O" 
			},
			{
				"x": 5.8690716287,
				"y": 1.5788828707,
				"z": -1.5595193256,
				"element": "C" 
			},
			{
				"x": 4.7086245383,
				"y": 2.3296186416,
				"z": -1.4429819654,
				"element": "C" 
			},
			{
				"x": 3.6171498017,
				"y": 1.7946412507,
				"z": -0.7416415476,
				"element": "C" 
			},
			{
				"x": 3.7277846853,
				"y": 0.5165869427,
				"z": -0.1678963822,
				"element": "C" 
			},
			{
				"x": 4.9105581128,
				"y": -0.2144890949,
				"z": -0.2972508405,
				"element": "C" 
			},
			{
				"x": 5.9947294101,
				"y": 0.3084335129,
				"z": -0.9968491646,
				"element": "C" 
			},
			{
				"x": 2.4076893058,
				"y": 2.6754473943,
				"z": -0.6515605839,
				"element": "C" 
			},
			{
				"x": 2.4412600804,
				"y": 3.8296182439,
				"z": -1.066703947,
				"element": "O" 
			},
			{
				"x": 1.1160181784,
				"y": 2.2229241273,
				"z": -0.0728026351,
				"element": "C" 
			},
			{
				"x": 0.8451266147,
				"y": 1.053670059,
				"z": 0.4094440507,
				"element": "N" 
			},
			{
				"x": -0.429661206,
				"y": 0.9664194019,
				"z": 0.8712550248,
				"element": "N" 
			},
			{
				"x": -1.2305165113,
				"y": 2.1221930837,
				"z": 0.7050476688,
				"element": "C" 
			},
			{
				"x": -0.2012443323,
				"y": 3.3951616452,
				"z": -0.0063197625,
				"element": "S" 
			},
			{
				"x": -2.4738562789,
				"y": 2.3754705032,
				"z": 0.8954184047,
				"element": "N" 
			},
			{
				"x": -3.3072477187,
				"y": 1.3422801953,
				"z": 1.3869160191,
				"element": "N" 
			},
			{
				"x": -3.8234642681,
				"y": 0.3929976796,
				"z": 0.4677914017,
				"element": "C" 
			},
			{
				"x": -4.874658329,
				"y": -0.4306583391,
				"z": 0.9081663313,
				"element": "C" 
			},
			{
				"x": -5.401528487,
				"y": -1.4071924697,
				"z": 0.0702559733,
				"element": "C" 
			},
			{
				"x": -4.89108302,
				"y": -1.5894137649,
				"z": -1.2192519838,
				"element": "C" 
			},
			{
				"x": -3.8507571486,
				"y": -0.7712087898,
				"z": -1.655592726,
				"element": "C" 
			},
			{
				"x": -3.3156308884,
				"y": 0.2171828398,
				"z": -0.8256669188,
				"element": "C" 
			},
			{
				"x": -0.7465548977,
				"y": -0.218668351,
				"z": 1.6201809609,
				"element": "C" 
			},
			{
				"x": -1.2284031354,
				"y": -0.1165815539,
				"z": 2.9261822843,
				"element": "C" 
			},
			{
				"x": -1.4843980208,
				"y": -1.2810901141,
				"z": 3.6497357592,
				"element": "C" 
			},
			{
				"x": -1.2461346481,
				"y": -2.5329950334,
				"z": 3.0795472151,
				"element": "C" 
			},
			{
				"x": -0.7524919926,
				"y": -2.6227088637,
				"z": 1.7763461,
				"element": "C" 
			},
			{
				"x": -0.50539839,
				"y": -1.4655038759,
				"z": 1.0395735587,
				"element": "C" 
			},
			{
				"x": 4.641585294,
				"y": 3.3156180541,
				"z": -1.8843434695,
				"element": "H" 
			},
			{
				"x": 2.8916013032,
				"y": 0.097988339,
				"z": 0.3764003243,
				"element": "H" 
			},
			{
				"x": 4.9855588461,
				"y": -1.1991654647,
				"z": 0.1526866446,
				"element": "H" 
			},
			{
				"x": 6.9228775257,
				"y": -0.2367706285,
				"z": -1.1145108362,
				"element": "H" 
			},
			{
				"x": -4.0663894608,
				"y": 1.7993342529,
				"z": 1.8804771149,
				"element": "H" 
			},
			{
				"x": -5.2661797351,
				"y": -0.3030667925,
				"z": 1.9144860559,
				"element": "H" 
			},
			{
				"x": -6.2150560303,
				"y": -2.0323420449,
				"z": 0.4279334819,
				"element": "H" 
			},
			{
				"x": -5.3021378972,
				"y": -2.3540956936,
				"z": -1.8708785541,
				"element": "H" 
			},
			{
				"x": -3.4508645376,
				"y": -0.8894611243,
				"z": -2.6590919902,
				"element": "H" 
			},
			{
				"x": -2.5303265526,
				"y": 0.8654896528,
				"z": -1.1952856656,
				"element": "H" 
			},
			{
				"x": -1.3969244684,
				"y": 0.859604828,
				"z": 3.3649418155,
				"element": "H" 
			},
			{
				"x": -1.8615938024,
				"y": -1.2069422693,
				"z": 4.6651676848,
				"element": "H" 
			},
			{
				"x": -1.4441190415,
				"y": -3.4359822197,
				"z": 3.6491606266,
				"element": "H" 
			},
			{
				"x": -0.5698249667,
				"y": -3.5936896092,
				"z": 1.3263963611,
				"element": "H" 
			},
			{
				"x": -0.1330470622,
				"y": -1.5185694258,
				"z": 0.0225257855,
				"element": "H" 
			}
		],
		 "valence_orbital": [ 
			{
				"type": "occ",
				"energy": -0.26905,
				"method": "rhf"
			},
			{
				"type": "occ",
				"energy": -0.26169,
				"method": "rhf"
			},
			{
				"type": "occ",
				"energy": -0.24928,
				"method": "rhf"
			},
			{
				"type": "occ",
				"energy": -0.23321,
				"method": "rhf"
			},
			{
				"type": "occ",
				"energy": -0.19751,
				"method": "rhf"
			},
			{
				"type": "unocc",
				"energy": -0.10518,
				"method": "rhf"
			},
			{
				"type": "unocc",
				"energy": -0.09297,
				"method": "rhf"
			},
			{
				"type": "unocc",
				"energy": -0.03753,
				"method": "rhf"
			},
			{
				"type": "unocc",
				"energy": -0.03189,
				"method": "rhf"
			},
			{
				"type": "unocc",
				"energy": -0.01776,
				"method": "rhf"
			}
		],
		"cosmo_sigma_profile": { 
			"-0.025": 0.0,
			"-0.024": 0.0,
			"-0.023": 0.0,
			"-0.022": 0.0,
			"-0.021": 0.0,
			"-0.02": 0.0,
			"-0.019": 0.0,
			"-0.018": 0.0,
			"-0.017": 0.0,
			"-0.016": 0.0,
			"-0.015": 0.0,
			"-0.014": 0.0758289178256,
			"-0.013": 1.12669869279,
			"-0.012": 1.03706351503,
			"-0.011": 1.28997850842,
			"-0.01": 0.865311030943,
			"-0.009": 1.25746231585,
			"-0.008": 4.49490064162,
			"-0.007": 10.4892285301,
			"-0.006": 22.5225245147,
			"-0.005": 32.2396571247,
			"-0.004": 33.70394711,
			"-0.003": 33.7458396596,
			"-0.002": 32.7508719529,
			"-0.001": 35.1896221756,
			"0.0": 35.746228836,
			"0.001": 29.0800344259,
			"0.002": 25.7734334535,
			"0.003": 24.6716513561,
			"0.004": 22.6893133811,
			"0.005": 20.7749146607,
			"0.006": 19.7515235568,
			"0.007": 15.6228588871,
			"0.008": 8.94321420562,
			"0.009": 7.44307452916,
			"0.01": 5.66329235522,
			"0.011": 1.36968006394,
			"0.012": 0.615629562423,
			"0.013": 0.588483900589,
			"0.014": 0.333313295636,
			"0.015": 0.0,
			"0.016": 0.0,
			"0.017": 0.0,
			"0.018": 0.0,
			"0.019": 0.0,
			"0.02": 0.0,
			"0.021": 0.0,
			"0.022": 0.0,
			"0.023": 0.0,
			"0.024": 0.0,
			"0.025": 0.0
		}
	}
}
