{
	 "smiles": "CC1=CC(O)=C(C=C1Cl)[N+]([O-])=O", 
	 "Tm": 406.15, 
	 "num_atms": 18, 
	 "gaussian": { 
		 "optdone": 1, 
		 "sigma_profile": "yes", 
		 "theory": "DFT", 
		 "functional": "B3LYP", 
		 "basiset": "6-31G**", 
		 "properties": { 
			 "R2extent": 2742.2894, 
			 "electric_dipole_moment_norm": 6.11863666923, 
			 "electric_quadrupole_moment_norm": 17.6070573359, 
			 "total_energy": -1010.86891737, 
			 "HOMO_LUMO_gap": 0.16252, 
			 "cosmo_polarized_energy": -15.42, 
			 "cosmo_cavitation_energy": 24.71, 
			 "cosmo_dispersion_energy": -18.42, 
			 "cosmo_repulsion_energy": 1.47, 
			 "cosmo_total_nonelectrostatic_energy": 7.75, 
			 "SMD_solvation_energy": 6.69 
		},
		"coords": [
			{
				"x": -1.2727893373,
				"y": 1.9589251817,
				"z": 1.8744923515,
				"element": "C" 
			},
			{
				"x": -0.2587443306,
				"y": 1.1577271509,
				"z": 1.1040484429,
				"element": "C" 
			},
			{
				"x": 0.9357375317,
				"y": 1.7376117246,
				"z": 0.6787827194,
				"element": "C" 
			},
			{
				"x": 1.9182061288,
				"y": 1.04132503,
				"z": -0.0430212302,
				"element": "C" 
			},
			{
				"x": 3.0580602468,
				"y": 1.651726976,
				"z": -0.4290591688,
				"element": "O" 
			},
			{
				"x": 1.6674923693,
				"y": -0.3133668447,
				"z": -0.3440222736,
				"element": "C" 
			},
			{
				"x": 0.4783036857,
				"y": -0.9186990058,
				"z": 0.0715781299,
				"element": "C" 
			},
			{
				"x": -0.4656064925,
				"y": -0.1968970925,
				"z": 0.7809507116,
				"element": "C" 
			},
			{
				"x": -1.9450520088,
				"y": -1.0034724713,
				"z": 1.2796731221,
				"element": "Cl" 
			},
			{
				"x": 2.6114566451,
				"y": -1.1521304537,
				"z": -1.0919152797,
				"element": "N" 
			},
			{
				"x": 2.292575127,
				"y": -2.3298406301,
				"z": -1.2768641362,
				"element": "O" 
			},
			{
				"x": 3.655288142,
				"y": -0.6436918659,
				"z": -1.4901128855,
				"element": "O" 
			},
			{
				"x": -2.2322887521,
				"y": 1.9858812286,
				"z": 1.347580026,
				"element": "H" 
			},
			{
				"x": -1.4643768839,
				"y": 1.5090262673,
				"z": 2.8542295199,
				"element": "H" 
			},
			{
				"x": -0.9311747069,
				"y": 2.9853235507,
				"z": 2.0252219936,
				"element": "H" 
			},
			{
				"x": 1.1196783578,
				"y": 2.7834613364,
				"z": 0.9165467251,
				"element": "H" 
			},
			{
				"x": 3.0362698629,
				"y": 2.5693331361,
				"z": -0.1229709062,
				"element": "H" 
			},
			{
				"x": 0.3224644149,
				"y": -1.9598432183,
				"z": -0.1773378618,
				"element": "H" 
			}
		],
		 "valence_orbital": [ 
			{
				"type": "occ",
				"energy": -0.3023,
				"method": "rhf"
			},
			{
				"type": "occ",
				"energy": -0.30066,
				"method": "rhf"
			},
			{
				"type": "occ",
				"energy": -0.28488,
				"method": "rhf"
			},
			{
				"type": "occ",
				"energy": -0.28203,
				"method": "rhf"
			},
			{
				"type": "occ",
				"energy": -0.24782,
				"method": "rhf"
			},
			{
				"type": "unocc",
				"energy": -0.0853,
				"method": "rhf"
			},
			{
				"type": "unocc",
				"energy": -0.02641,
				"method": "rhf"
			},
			{
				"type": "unocc",
				"energy": -0.00407,
				"method": "rhf"
			},
			{
				"type": "unocc",
				"energy": 0.01562,
				"method": "rhf"
			},
			{
				"type": "unocc",
				"energy": 0.04583,
				"method": "rhf"
			}
		],
		"cosmo_sigma_profile": { 
			"-0.025": 0.0,
			"-0.024": 0.0,
			"-0.023": 0.0,
			"-0.022": 0.0,
			"-0.021": 0.0,
			"-0.02": 0.172925471108,
			"-0.019": 1.09392432517,
			"-0.018": 1.11994492145,
			"-0.017": 1.60707247449,
			"-0.016": 0.871668393345,
			"-0.015": 0.699542363347,
			"-0.014": 0.756861863379,
			"-0.013": 1.48566647289,
			"-0.012": 1.04600209305,
			"-0.011": 1.21624516977,
			"-0.01": 0.914021120778,
			"-0.009": 1.28259137043,
			"-0.008": 2.45758380581,
			"-0.007": 3.60549245979,
			"-0.006": 5.30565179856,
			"-0.005": 9.76911785557,
			"-0.004": 10.3732128582,
			"-0.003": 12.7552904269,
			"-0.002": 15.9588202227,
			"-0.001": 23.2572167771,
			"0.0": 19.3003152028,
			"0.001": 16.0971713592,
			"0.002": 8.68961331675,
			"0.003": 9.01329229209,
			"0.004": 10.6407234028,
			"0.005": 5.02006843191,
			"0.006": 3.52137677451,
			"0.007": 5.37639902153,
			"0.008": 9.18903249547,
			"0.009": 7.07047265124,
			"0.01": 4.95752566928,
			"0.011": 2.48773401871,
			"0.012": 1.59551444672,
			"0.013": 0.879243845014,
			"0.014": 0.0017728571071,
			"0.015": 0.0,
			"0.016": 0.0,
			"0.017": 0.0,
			"0.018": 0.0,
			"0.019": 0.0,
			"0.02": 0.0,
			"0.021": 0.0,
			"0.022": 0.0,
			"0.023": 0.0,
			"0.024": 0.0,
			"0.025": 0.0
		}
	}
}
