{
	 "smiles": "CCOC1=CC=CC=C1OS(=O)(=O)NC(=O)NC1=NC(OC)=CC(OC)=N1", 
	 "Tm": 423.15, 
	 "num_atms": 45, 
	 "gaussian": { 
		 "optdone": 1, 
		 "sigma_profile": "yes", 
		 "theory": "DFT", 
		 "functional": "B3LYP", 
		 "basiset": "6-31G**", 
		 "properties": { 
			 "R2extent": 14047.7014, 
			 "electric_dipole_moment_norm": 6.02734170427, 
			 "electric_quadrupole_moment_norm": 15.7910585136, 
			 "total_energy": -1726.14978382, 
			 "HOMO_LUMO_gap": 0.18491, 
			 "cosmo_polarized_energy": -21.61, 
			 "cosmo_cavitation_energy": 51.7, 
			 "cosmo_dispersion_energy": -34.35, 
			 "cosmo_repulsion_energy": 2.57, 
			 "cosmo_total_nonelectrostatic_energy": 19.92, 
			 "SMD_solvation_energy": 9.02 
		},
		"coords": [
			{
				"x": -2.8581941524,
				"y": -0.2773417764,
				"z": -0.6649396172,
				"element": "C" 
			},
			{
				"x": -2.7576433118,
				"y": 0.6865789558,
				"z": -1.8339225986,
				"element": "C" 
			},
			{
				"x": -1.7511296201,
				"y": 0.1893880686,
				"z": -2.7173575713,
				"element": "O" 
			},
			{
				"x": -1.4741275388,
				"y": 0.8984337801,
				"z": -3.8421881563,
				"element": "C" 
			},
			{
				"x": -2.151390448,
				"y": 2.0510381895,
				"z": -4.2571400437,
				"element": "C" 
			},
			{
				"x": -1.7860932424,
				"y": 2.6938622821,
				"z": -5.4431570291,
				"element": "C" 
			},
			{
				"x": -0.7509515581,
				"y": 2.2014798252,
				"z": -6.2340027348,
				"element": "C" 
			},
			{
				"x": -0.0716598488,
				"y": 1.0491396806,
				"z": -5.8330689294,
				"element": "C" 
			},
			{
				"x": -0.428432289,
				"y": 0.4163150078,
				"z": -4.6511455461,
				"element": "C" 
			},
			{
				"x": 0.1830751024,
				"y": -0.7917429087,
				"z": -4.2830687002,
				"element": "O" 
			},
			{
				"x": 1.7138868354,
				"y": -0.8128094387,
				"z": -3.6774272303,
				"element": "S" 
			},
			{
				"x": 2.165566847,
				"y": -2.1735083272,
				"z": -3.9100702074,
				"element": "O" 
			},
			{
				"x": 2.4381087275,
				"y": 0.3526268233,
				"z": -4.1408467555,
				"element": "O" 
			},
			{
				"x": 1.5091939972,
				"y": -0.7603646429,
				"z": -2.0146051502,
				"element": "N" 
			},
			{
				"x": 1.1709496495,
				"y": 0.3480954138,
				"z": -1.2590425109,
				"element": "C" 
			},
			{
				"x": 0.9103460832,
				"y": 1.4537810078,
				"z": -1.6867062349,
				"element": "O" 
			},
			{
				"x": 1.1447721417,
				"y": 0.0956104999,
				"z": 0.1238267425,
				"element": "N" 
			},
			{
				"x": 1.4185187426,
				"y": -1.0402869687,
				"z": 0.8739167903,
				"element": "C" 
			},
			{
				"x": 1.3525303642,
				"y": -0.860053245,
				"z": 2.1966529473,
				"element": "N" 
			},
			{
				"x": 1.6103925008,
				"y": -1.9424407767,
				"z": 2.9401770248,
				"element": "C" 
			},
			{
				"x": 1.5655933485,
				"y": -1.8431170823,
				"z": 4.2749524673,
				"element": "O" 
			},
			{
				"x": 1.2472301923,
				"y": -0.564457702,
				"z": 4.8418729967,
				"element": "C" 
			},
			{
				"x": 1.9299529876,
				"y": -3.1904662994,
				"z": 2.3982260326,
				"element": "C" 
			},
			{
				"x": 1.9640064834,
				"y": -3.2479601474,
				"z": 1.006768538,
				"element": "C" 
			},
			{
				"x": 2.2648024091,
				"y": -4.4161292499,
				"z": 0.4312979406,
				"element": "O" 
			},
			{
				"x": 2.2948716325,
				"y": -4.4867565999,
				"z": -1.0042453924,
				"element": "C" 
			},
			{
				"x": 1.7068575614,
				"y": -2.1800914814,
				"z": 0.2338500797,
				"element": "N" 
			},
			{
				"x": -3.1166319511,
				"y": -1.2808406794,
				"z": -1.0142149204,
				"element": "H" 
			},
			{
				"x": -3.6329336862,
				"y": 0.0584558945,
				"z": 0.03130472,
				"element": "H" 
			},
			{
				"x": -1.9084028213,
				"y": -0.3328384332,
				"z": -0.1260383981,
				"element": "H" 
			},
			{
				"x": -3.7180523557,
				"y": 0.7541291206,
				"z": -2.3636942098,
				"element": "H" 
			},
			{
				"x": -2.4837335084,
				"y": 1.6941921289,
				"z": -1.4936596016,
				"element": "H" 
			},
			{
				"x": -2.9586315675,
				"y": 2.4544885558,
				"z": -3.6584581072,
				"element": "H" 
			},
			{
				"x": -2.3227284565,
				"y": 3.5889160145,
				"z": -5.7437848477,
				"element": "H" 
			},
			{
				"x": -0.4705552815,
				"y": 2.7032500341,
				"z": -7.1541221399,
				"element": "H" 
			},
			{
				"x": 0.7401114453,
				"y": 0.6374491369,
				"z": -6.4216240768,
				"element": "H" 
			},
			{
				"x": 1.6494121707,
				"y": -1.6476650632,
				"z": -1.5105279713,
				"element": "H" 
			},
			{
				"x": 0.9368509272,
				"y": 0.9218220986,
				"z": 0.6687377196,
				"element": "H" 
			},
			{
				"x": 1.2723846534,
				"y": -0.7174229705,
				"z": 5.9208888831,
				"element": "H" 
			},
			{
				"x": 0.2542543248,
				"y": -0.2328916272,
				"z": 4.5275236559,
				"element": "H" 
			},
			{
				"x": 1.9822888262,
				"y": 0.1886372368,
				"z": 4.5466896947,
				"element": "H" 
			},
			{
				"x": 2.1377427512,
				"y": -4.0528369133,
				"z": 3.0153064538,
				"element": "H" 
			},
			{
				"x": 2.5697589995,
				"y": -5.5164593072,
				"z": -1.2311467859,
				"element": "H" 
			},
			{
				"x": 1.3139708465,
				"y": -4.2596973755,
				"z": -1.4298867484,
				"element": "H" 
			},
			{
				"x": 3.0364610863,
				"y": -3.8011107391,
				"z": -1.4214004716,
				"element": "H" 
			}
		],
		 "valence_orbital": [ 
			{
				"type": "occ",
				"energy": -0.28656,
				"method": "rhf"
			},
			{
				"type": "occ",
				"energy": -0.28234,
				"method": "rhf"
			},
			{
				"type": "occ",
				"energy": -0.24741,
				"method": "rhf"
			},
			{
				"type": "occ",
				"energy": -0.24504,
				"method": "rhf"
			},
			{
				"type": "occ",
				"energy": -0.21963,
				"method": "rhf"
			},
			{
				"type": "unocc",
				"energy": -0.03472,
				"method": "rhf"
			},
			{
				"type": "unocc",
				"energy": -0.02276,
				"method": "rhf"
			},
			{
				"type": "unocc",
				"energy": -0.0093,
				"method": "rhf"
			},
			{
				"type": "unocc",
				"energy": 0.00984,
				"method": "rhf"
			},
			{
				"type": "unocc",
				"energy": 0.03599,
				"method": "rhf"
			}
		],
		"cosmo_sigma_profile": { 
			"-0.025": 0.0,
			"-0.024": 0.0,
			"-0.023": 0.0,
			"-0.022": 0.0,
			"-0.021": 0.0,
			"-0.02": 0.0,
			"-0.019": 0.0,
			"-0.018": 0.0,
			"-0.017": 0.0,
			"-0.016": 0.0727762558571,
			"-0.015": 0.525918187966,
			"-0.014": 0.845144785303,
			"-0.013": 0.489226861391,
			"-0.012": 0.821959050044,
			"-0.011": 0.812277431676,
			"-0.01": 0.709372127702,
			"-0.009": 0.609866350489,
			"-0.008": 1.96636929323,
			"-0.007": 8.19399126321,
			"-0.006": 21.2583428543,
			"-0.005": 31.9945040976,
			"-0.004": 40.2827830818,
			"-0.003": 41.9170046711,
			"-0.002": 38.188458792,
			"-0.001": 30.8082714989,
			"0.0": 27.9173453802,
			"0.001": 25.6962994538,
			"0.002": 22.1430964303,
			"0.003": 16.964519918,
			"0.004": 19.1429206317,
			"0.005": 14.77147855,
			"0.006": 11.6983750186,
			"0.007": 12.6677850769,
			"0.008": 13.9026778228,
			"0.009": 13.4959428603,
			"0.01": 6.70222796889,
			"0.011": 4.28423502245,
			"0.012": 3.14497561923,
			"0.013": 0.0635071782523,
			"0.014": 0.0,
			"0.015": 0.0,
			"0.016": 0.0,
			"0.017": 0.0,
			"0.018": 0.0,
			"0.019": 0.0,
			"0.02": 0.0,
			"0.021": 0.0,
			"0.022": 0.0,
			"0.023": 0.0,
			"0.024": 0.0,
			"0.025": 0.0
		}
	}
}
