{
	 "smiles": "CC(=O)NC1=CC2=C(C=C1)C(=O)CCC2", 
	 "Tm": 401.15, 
	 "num_atms": 28, 
	 "gaussian": { 
		 "optdone": 1, 
		 "sigma_profile": "yes", 
		 "theory": "DFT", 
		 "functional": "B3LYP", 
		 "basiset": "6-31G**", 
		 "properties": { 
			 "R2extent": 4528.3807, 
			 "electric_dipole_moment_norm": 3.05572980808, 
			 "electric_quadrupole_moment_norm": 22.6840294168, 
			 "total_energy": -670.345707517, 
			 "HOMO_LUMO_gap": 0.17428, 
			 "cosmo_polarized_energy": -15.97, 
			 "cosmo_cavitation_energy": 30.87, 
			 "cosmo_dispersion_energy": -22.57, 
			 "cosmo_repulsion_energy": 1.76, 
			 "cosmo_total_nonelectrostatic_energy": 10.07, 
			 "SMD_solvation_energy": 5.99 
		},
		"coords": [
			{
				"x": 3.8027132247,
				"y": -0.6325129684,
				"z": 2.8023434469,
				"element": "C" 
			},
			{
				"x": 4.5482647575,
				"y": 0.1362934674,
				"z": 1.7304945516,
				"element": "C" 
			},
			{
				"x": 5.7564339859,
				"y": 0.3083473196,
				"z": 1.7806633107,
				"element": "O" 
			},
			{
				"x": 3.8474739923,
				"y": 0.6407787185,
				"z": 0.6398389158,
				"element": "N" 
			},
			{
				"x": 2.4949746882,
				"y": 0.6126759518,
				"z": 0.2627419941,
				"element": "C" 
			},
			{
				"x": 1.4356540453,
				"y": 0.6359939377,
				"z": 1.1809964762,
				"element": "C" 
			},
			{
				"x": 0.1058489722,
				"y": 0.6216365071,
				"z": 0.7498030663,
				"element": "C" 
			},
			{
				"x": -0.1738519965,
				"y": 0.6032741071,
				"z": -0.6311400546,
				"element": "C" 
			},
			{
				"x": 0.8898033115,
				"y": 0.6037051665,
				"z": -1.5490400501,
				"element": "C" 
			},
			{
				"x": 2.2032141649,
				"y": 0.6085494984,
				"z": -1.116914297,
				"element": "C" 
			},
			{
				"x": -1.5692381709,
				"y": 0.5906503261,
				"z": -1.1521281275,
				"element": "C" 
			},
			{
				"x": -1.8074980835,
				"y": 0.5711863759,
				"z": -2.3518218972,
				"element": "O" 
			},
			{
				"x": -2.6941194604,
				"y": 0.6288824662,
				"z": -0.1246307086,
				"element": "C" 
			},
			{
				"x": -2.2976880447,
				"y": 0.002550731,
				"z": 1.2173922115,
				"element": "C" 
			},
			{
				"x": -1.0231108296,
				"y": 0.661382011,
				"z": 1.7594783986,
				"element": "C" 
			},
			{
				"x": 4.5328968869,
				"y": -1.262083374,
				"z": 3.3115392841,
				"element": "H" 
			},
			{
				"x": 2.9926503234,
				"y": -1.2449795539,
				"z": 2.4001080402,
				"element": "H" 
			},
			{
				"x": 3.3781166934,
				"y": 0.0559361751,
				"z": 3.5408392444,
				"element": "H" 
			},
			{
				"x": 4.4900556988,
				"y": 1.0074590263,
				"z": -0.0527732257,
				"element": "H" 
			},
			{
				"x": 1.6380184982,
				"y": 0.6922571228,
				"z": 2.2435343893,
				"element": "H" 
			},
			{
				"x": 0.6476586669,
				"y": 0.5917324931,
				"z": -2.6067384933,
				"element": "H" 
			},
			{
				"x": 3.0191924121,
				"y": 0.5920869733,
				"z": -1.8344787469,
				"element": "H" 
			},
			{
				"x": -2.9534082183,
				"y": 1.6880111861,
				"z": 0.0260684176,
				"element": "H" 
			},
			{
				"x": -3.5713963988,
				"y": 0.1520765242,
				"z": -0.5705567124,
				"element": "H" 
			},
			{
				"x": -2.1232251474,
				"y": -1.072644335,
				"z": 1.0842590535,
				"element": "H" 
			},
			{
				"x": -3.1137617464,
				"y": 0.1044346051,
				"z": 1.9406665484,
				"element": "H" 
			},
			{
				"x": -1.2410912451,
				"y": 1.7103073607,
				"z": 2.0114684307,
				"element": "H" 
			},
			{
				"x": -0.7044809806,
				"y": 0.1838121803,
				"z": 2.6925865334,
				"element": "H" 
			}
		],
		 "valence_orbital": [ 
			{
				"type": "occ",
				"energy": -0.30381,
				"method": "rhf"
			},
			{
				"type": "occ",
				"energy": -0.26307,
				"method": "rhf"
			},
			{
				"type": "occ",
				"energy": -0.26225,
				"method": "rhf"
			},
			{
				"type": "occ",
				"energy": -0.24294,
				"method": "rhf"
			},
			{
				"type": "occ",
				"energy": -0.23262,
				"method": "rhf"
			},
			{
				"type": "unocc",
				"energy": -0.05834,
				"method": "rhf"
			},
			{
				"type": "unocc",
				"energy": -0.01921,
				"method": "rhf"
			},
			{
				"type": "unocc",
				"energy": 0.0089,
				"method": "rhf"
			},
			{
				"type": "unocc",
				"energy": 0.04605,
				"method": "rhf"
			},
			{
				"type": "unocc",
				"energy": 0.07765,
				"method": "rhf"
			}
		],
		"cosmo_sigma_profile": { 
			"-0.025": 0.0,
			"-0.024": 0.0,
			"-0.023": 0.0,
			"-0.022": 0.0,
			"-0.021": 0.0,
			"-0.02": 0.0,
			"-0.019": 0.0,
			"-0.018": 0.0,
			"-0.017": 0.0,
			"-0.016": 0.0,
			"-0.015": 0.032550560801,
			"-0.014": 1.11053129637,
			"-0.013": 0.954013712998,
			"-0.012": 1.28913785084,
			"-0.011": 1.283151912,
			"-0.01": 0.997775726013,
			"-0.009": 1.46148671404,
			"-0.008": 2.82831835543,
			"-0.007": 5.05040480521,
			"-0.006": 8.29217239707,
			"-0.005": 16.8373730345,
			"-0.004": 25.1215437019,
			"-0.003": 26.2149661853,
			"-0.002": 28.5143087346,
			"-0.001": 23.6331066616,
			"0.0": 13.6663472796,
			"0.001": 11.1336409135,
			"0.002": 11.4374406661,
			"0.003": 14.1455754631,
			"0.004": 10.2505017085,
			"0.005": 2.05441165593,
			"0.006": 3.07708472517,
			"0.007": 3.59972616424,
			"0.008": 2.04022290628,
			"0.009": 2.58611538098,
			"0.01": 3.67556611619,
			"0.011": 4.11849325755,
			"0.012": 6.44710589244,
			"0.013": 9.10582997857,
			"0.014": 2.91616146762,
			"0.015": 0.12106421156,
			"0.016": 0.0,
			"0.017": 0.0,
			"0.018": 0.0,
			"0.019": 0.0,
			"0.02": 0.0,
			"0.021": 0.0,
			"0.022": 0.0,
			"0.023": 0.0,
			"0.024": 0.0,
			"0.025": 0.0
		}
	}
}
