{
	 "smiles": "ClCC(=O)NC1=CC(=CC=C1)C(=O)N1CCSCC1", 
	 "Tm": 426.15, 
	 "num_atms": 34, 
	 "gaussian": { 
		 "optdone": 1, 
		 "sigma_profile": "yes", 
		 "theory": "DFT", 
		 "functional": "B3LYP", 
		 "basiset": "6-31G**", 
		 "properties": { 
			 "R2extent": 9034.116, 
			 "electric_dipole_moment_norm": 5.96275450694, 
			 "electric_quadrupole_moment_norm": 24.3128042243, 
			 "total_energy": -1622.7692197, 
			 "HOMO_LUMO_gap": 0.18075, 
			 "cosmo_polarized_energy": -23.89, 
			 "cosmo_cavitation_energy": 40.16, 
			 "cosmo_dispersion_energy": -29.06, 
			 "cosmo_repulsion_energy": 2.23, 
			 "cosmo_total_nonelectrostatic_energy": 13.33, 
			 "SMD_solvation_energy": 6.05 
		},
		"coords": [
			{
				"x": 2.8900816434,
				"y": 1.2291643726,
				"z": 4.1917686515,
				"element": "Cl" 
			},
			{
				"x": 2.3716916094,
				"y": 1.7615690115,
				"z": 2.5596185271,
				"element": "C" 
			},
			{
				"x": 2.3240772821,
				"y": 3.2888318268,
				"z": 2.4518576582,
				"element": "C" 
			},
			{
				"x": 2.9936000354,
				"y": 4.0257944322,
				"z": 3.1499734177,
				"element": "O" 
			},
			{
				"x": 1.4660741583,
				"y": 3.8200841598,
				"z": 1.5025097443,
				"element": "N" 
			},
			{
				"x": 0.5562466516,
				"y": 3.2222717709,
				"z": 0.6004849239,
				"element": "C" 
			},
			{
				"x": 0.8747470138,
				"y": 2.0810836617,
				"z": -0.1415309431,
				"element": "C" 
			},
			{
				"x": -0.0595510812,
				"y": 1.5174753094,
				"z": -1.0200026529,
				"element": "C" 
			},
			{
				"x": -1.2946056585,
				"y": 2.1469410453,
				"z": -1.2162153367,
				"element": "C" 
			},
			{
				"x": -1.5944783302,
				"y": 3.3167444927,
				"z": -0.5149644211,
				"element": "C" 
			},
			{
				"x": -0.6886849142,
				"y": 3.842792325,
				"z": 0.4007143606,
				"element": "C" 
			},
			{
				"x": 0.4074776008,
				"y": 0.3324404138,
				"z": -1.8283395185,
				"element": "C" 
			},
			{
				"x": 1.5681270643,
				"y": 0.2969550621,
				"z": -2.2355214847,
				"element": "O" 
			},
			{
				"x": -0.4832832676,
				"y": -0.6714745531,
				"z": -2.1306726715,
				"element": "N" 
			},
			{
				"x": -1.7199932968,
				"y": -0.9421760693,
				"z": -1.3843013942,
				"element": "C" 
			},
			{
				"x": -1.8138561641,
				"y": -2.4045135891,
				"z": -0.9443666932,
				"element": "C" 
			},
			{
				"x": -1.9963823523,
				"y": -3.5535854482,
				"z": -2.3732329912,
				"element": "S" 
			},
			{
				"x": -1.09614785,
				"y": -2.5510590264,
				"z": -3.6328223693,
				"element": "C" 
			},
			{
				"x": 0.030268317,
				"y": -1.719099254,
				"z": -3.0311143459,
				"element": "C" 
			},
			{
				"x": 1.4018644433,
				"y": 1.3094819965,
				"z": 2.3530042253,
				"element": "H" 
			},
			{
				"x": 3.0997309405,
				"y": 1.3660165678,
				"z": 1.8477365664,
				"element": "H" 
			},
			{
				"x": 1.4399981662,
				"y": 4.8309554087,
				"z": 1.5680476082,
				"element": "H" 
			},
			{
				"x": 1.8605941996,
				"y": 1.6350266979,
				"z": -0.0926893567,
				"element": "H" 
			},
			{
				"x": -2.0038247936,
				"y": 1.750280879,
				"z": -1.9347990022,
				"element": "H" 
			},
			{
				"x": -2.5442256396,
				"y": 3.8172877221,
				"z": -0.6775129711,
				"element": "H" 
			},
			{
				"x": -0.9370157622,
				"y": 4.7361612251,
				"z": 0.9669396055,
				"element": "H" 
			},
			{
				"x": -1.7345896759,
				"y": -0.3044413041,
				"z": -0.499026551,
				"element": "H" 
			},
			{
				"x": -2.6048690839,
				"y": -0.6907303514,
				"z": -1.9841445931,
				"element": "H" 
			},
			{
				"x": -2.7012619544,
				"y": -2.5411269025,
				"z": -0.3209139414,
				"element": "H" 
			},
			{
				"x": -0.9359223636,
				"y": -2.6794479522,
				"z": -0.3524981622,
				"element": "H" 
			},
			{
				"x": -1.8020008982,
				"y": -1.9129304082,
				"z": -4.1728193173,
				"element": "H" 
			},
			{
				"x": -0.6764660825,
				"y": -3.264856564,
				"z": -4.3456025389,
				"element": "H" 
			},
			{
				"x": 0.7395729532,
				"y": -2.3683646739,
				"z": -2.5016559817,
				"element": "H" 
			},
			{
				"x": 0.5958070898,
				"y": -1.2199522844,
				"z": -3.8220080507,
				"element": "H" 
			}
		],
		 "valence_orbital": [ 
			{
				"type": "occ",
				"energy": -0.27142,
				"method": "rhf"
			},
			{
				"type": "occ",
				"energy": -0.26129,
				"method": "rhf"
			},
			{
				"type": "occ",
				"energy": -0.25048,
				"method": "rhf"
			},
			{
				"type": "occ",
				"energy": -0.24479,
				"method": "rhf"
			},
			{
				"type": "occ",
				"energy": -0.2323,
				"method": "rhf"
			},
			{
				"type": "unocc",
				"energy": -0.05155,
				"method": "rhf"
			},
			{
				"type": "unocc",
				"energy": -0.032,
				"method": "rhf"
			},
			{
				"type": "unocc",
				"energy": 0.00069,
				"method": "rhf"
			},
			{
				"type": "unocc",
				"energy": 0.02402,
				"method": "rhf"
			},
			{
				"type": "unocc",
				"energy": 0.03297,
				"method": "rhf"
			}
		],
		"cosmo_sigma_profile": { 
			"-0.025": 0.0,
			"-0.024": 0.0,
			"-0.023": 0.0,
			"-0.022": 0.0,
			"-0.021": 0.0,
			"-0.02": 0.0,
			"-0.019": 0.0,
			"-0.018": 0.0,
			"-0.017": 0.0,
			"-0.016": 0.0427614631707,
			"-0.015": 0.717759276412,
			"-0.014": 0.732275220057,
			"-0.013": 1.32231446265,
			"-0.012": 1.33143051638,
			"-0.011": 2.25927713947,
			"-0.01": 3.55538076196,
			"-0.009": 3.56374489467,
			"-0.008": 5.27180220863,
			"-0.007": 10.3130285385,
			"-0.006": 20.8774640526,
			"-0.005": 31.9775057652,
			"-0.004": 29.2488951566,
			"-0.003": 24.345068927,
			"-0.002": 20.5444191396,
			"-0.001": 16.8622474758,
			"0.0": 15.8413414388,
			"0.001": 15.7612787221,
			"0.002": 14.9499263967,
			"0.003": 16.374990314,
			"0.004": 13.2413751204,
			"0.005": 12.4383885029,
			"0.006": 13.0810721775,
			"0.007": 5.60541345807,
			"0.008": 5.74329763187,
			"0.009": 5.48555472427,
			"0.01": 5.4024516183,
			"0.011": 5.89401401461,
			"0.012": 7.005417937,
			"0.013": 7.90320381732,
			"0.014": 4.33904252996,
			"0.015": 0.187490870634,
			"0.016": 0.0,
			"0.017": 0.0,
			"0.018": 0.0,
			"0.019": 0.0,
			"0.02": 0.0,
			"0.021": 0.0,
			"0.022": 0.0,
			"0.023": 0.0,
			"0.024": 0.0,
			"0.025": 0.0
		}
	}
}
