{
	 "smiles": "NN1C2=C(C=CC=C2)N=C1S(O)(=O)=O", 
	 "Tm": 525.15, 
	 "num_atms": 21, 
	 "gaussian": { 
		 "optdone": 1, 
		 "sigma_profile": "yes", 
		 "theory": "DFT", 
		 "functional": "B3LYP", 
		 "basiset": "6-31G**", 
		 "properties": { 
			 "R2extent": 3357.5223, 
			 "electric_dipole_moment_norm": 4.63573763818, 
			 "electric_quadrupole_moment_norm": 12.3213911532, 
			 "total_energy": -1058.97259312, 
			 "HOMO_LUMO_gap": 0.19684, 
			 "cosmo_polarized_energy": -14.49, 
			 "cosmo_cavitation_energy": 27.04, 
			 "cosmo_dispersion_energy": -20.85, 
			 "cosmo_repulsion_energy": 1.58, 
			 "cosmo_total_nonelectrostatic_energy": 7.78, 
			 "SMD_solvation_energy": 2.42 
		},
		"coords": [
			{
				"x": -1.5848293092,
				"y": 1.7023061899,
				"z": -0.4680215023,
				"element": "N" 
			},
			{
				"x": -0.5477603525,
				"y": 0.854723925,
				"z": -0.0572118471,
				"element": "N" 
			},
			{
				"x": -0.5922284333,
				"y": -0.5332951703,
				"z": -0.059003635,
				"element": "C" 
			},
			{
				"x": 0.6696129291,
				"y": -0.943664258,
				"z": 0.4336440317,
				"element": "C" 
			},
			{
				"x": 0.9616236452,
				"y": -2.3086742707,
				"z": 0.5616562277,
				"element": "C" 
			},
			{
				"x": -0.0240939784,
				"y": -3.2137406904,
				"z": 0.1903132152,
				"element": "C" 
			},
			{
				"x": -1.2777208829,
				"y": -2.7834860789,
				"z": -0.299335943,
				"element": "C" 
			},
			{
				"x": -1.5887126684,
				"y": -1.4352880382,
				"z": -0.4344818196,
				"element": "C" 
			},
			{
				"x": 1.4512265239,
				"y": 0.1713623939,
				"z": 0.7237301662,
				"element": "N" 
			},
			{
				"x": 0.6890174712,
				"y": 1.1888140067,
				"z": 0.4176403102,
				"element": "C" 
			},
			{
				"x": 1.2440855231,
				"y": 2.8740369385,
				"z": 0.6125198037,
				"element": "S" 
			},
			{
				"x": 2.71363482,
				"y": 2.5384835285,
				"z": 1.1899183856,
				"element": "O" 
			},
			{
				"x": 1.3505173308,
				"y": 3.4879656117,
				"z": -0.7067374302,
				"element": "O" 
			},
			{
				"x": 0.4356124433,
				"y": 3.5182730596,
				"z": 1.6420956797,
				"element": "O" 
			},
			{
				"x": -1.2442136459,
				"y": 2.2860893122,
				"z": -1.2299250124,
				"element": "H" 
			},
			{
				"x": -1.8389843912,
				"y": 2.305665234,
				"z": 0.3121486054,
				"element": "H" 
			},
			{
				"x": 1.9259599035,
				"y": -2.6326219602,
				"z": 0.9382663412,
				"element": "H" 
			},
			{
				"x": 0.1689836901,
				"y": -4.2784729803,
				"z": 0.2767202217,
				"element": "H" 
			},
			{
				"x": -2.0178784352,
				"y": -3.527541503,
				"z": -0.5774174076,
				"element": "H" 
			},
			{
				"x": -2.5461267738,
				"y": -1.0914387864,
				"z": -0.8085931686,
				"element": "H" 
			},
			{
				"x": 2.7871745906,
				"y": 1.5526035364,
				"z": 1.2261747776,
				"element": "H" 
			}
		],
		 "valence_orbital": [ 
			{
				"type": "occ",
				"energy": -0.33229,
				"method": "rhf"
			},
			{
				"type": "occ",
				"energy": -0.30842,
				"method": "rhf"
			},
			{
				"type": "occ",
				"energy": -0.30335,
				"method": "rhf"
			},
			{
				"type": "occ",
				"energy": -0.25613,
				"method": "rhf"
			},
			{
				"type": "occ",
				"energy": -0.25249,
				"method": "rhf"
			},
			{
				"type": "unocc",
				"energy": -0.05565,
				"method": "rhf"
			},
			{
				"type": "unocc",
				"energy": -0.00455,
				"method": "rhf"
			},
			{
				"type": "unocc",
				"energy": 0.00979,
				"method": "rhf"
			},
			{
				"type": "unocc",
				"energy": 0.03045,
				"method": "rhf"
			},
			{
				"type": "unocc",
				"energy": 0.0348,
				"method": "rhf"
			}
		],
		"cosmo_sigma_profile": { 
			"-0.025": 0.0,
			"-0.024": 0.0,
			"-0.023": 0.0,
			"-0.022": 0.0,
			"-0.021": 0.0,
			"-0.02": 0.0,
			"-0.019": 0.0,
			"-0.018": 0.0,
			"-0.017": 0.0,
			"-0.016": 0.0,
			"-0.015": 0.0846461352089,
			"-0.014": 0.645988772786,
			"-0.013": 3.66822180748,
			"-0.012": 3.0145736522,
			"-0.011": 3.20047063452,
			"-0.01": 2.99115650403,
			"-0.009": 4.40196477524,
			"-0.008": 4.28457787927,
			"-0.007": 6.36258496633,
			"-0.006": 11.2279002253,
			"-0.005": 11.2663623103,
			"-0.004": 13.0666493033,
			"-0.003": 12.2559633202,
			"-0.002": 11.844613223,
			"-0.001": 10.5589077066,
			"0.0": 11.280059775,
			"0.001": 12.5237667603,
			"0.002": 14.5377310192,
			"0.003": 15.8835653193,
			"0.004": 14.3884920963,
			"0.005": 8.1895471961,
			"0.006": 6.84007789948,
			"0.007": 8.30301947396,
			"0.008": 7.22361783591,
			"0.009": 11.390423483,
			"0.01": 6.99376414737,
			"0.011": 0.578619841052,
			"0.012": 0.110285765406,
			"0.013": 0.0,
			"0.014": 0.0,
			"0.015": 0.0,
			"0.016": 0.0,
			"0.017": 0.0,
			"0.018": 0.0,
			"0.019": 0.0,
			"0.02": 0.0,
			"0.021": 0.0,
			"0.022": 0.0,
			"0.023": 0.0,
			"0.024": 0.0,
			"0.025": 0.0
		}
	}
}
