{
	 "smiles": "NC1=C(Br)N=CC=C1", 
	 "Tm": 350.15, 
	 "num_atms": 13, 
	 "gaussian": { 
		 "optdone": 1, 
		 "sigma_profile": "yes", 
		 "theory": "DFT", 
		 "functional": "B3LYP", 
		 "basiset": "6-31G**", 
		 "properties": { 
			 "R2extent": 2116.0407, 
			 "electric_dipole_moment_norm": 3.84939095832, 
			 "electric_quadrupole_moment_norm": 9.46566579328, 
			 "total_energy": -2874.45051688, 
			 "HOMO_LUMO_gap": 0.19206, 
			 "cosmo_polarized_energy": -10.12, 
			 "cosmo_cavitation_energy": 19.15, 
			 "cosmo_dispersion_energy": -15.11, 
			 "cosmo_repulsion_energy": 1.25, 
			 "cosmo_total_nonelectrostatic_energy": 5.29, 
			 "SMD_solvation_energy": 0.91 
		},
		"coords": [
			{
				"x": 1.2036529297,
				"y": -0.5658272796,
				"z": 0.5630600892,
				"element": "N" 
			},
			{
				"x": 0.2384568779,
				"y": 0.3854677729,
				"z": 0.8184931616,
				"element": "C" 
			},
			{
				"x": -1.0321003488,
				"y": 0.0671690275,
				"z": 1.3511410273,
				"element": "C" 
			},
			{
				"x": -1.3850728633,
				"y": -1.7806837169,
				"z": 1.8186004819,
				"element": "Br" 
			},
			{
				"x": -2.0021201173,
				"y": 0.9210526911,
				"z": 1.5652238142,
				"element": "N" 
			},
			{
				"x": -1.79939431,
				"y": 2.2123549863,
				"z": 1.2668143328,
				"element": "C" 
			},
			{
				"x": -0.5896875458,
				"y": 2.6624612241,
				"z": 0.7419378637,
				"element": "C" 
			},
			{
				"x": 0.4318220061,
				"y": 1.7447079137,
				"z": 0.5181589079,
				"element": "C" 
			},
			{
				"x": 1.0826968668,
				"y": -1.4537405439,
				"z": 1.0302276512,
				"element": "H" 
			},
			{
				"x": 2.157554247,
				"y": -0.2395486965,
				"z": 0.5182740553,
				"element": "H" 
			},
			{
				"x": -2.6267474,
				"y": 2.8898014103,
				"z": 1.4586455052,
				"element": "H" 
			},
			{
				"x": -0.4461584658,
				"y": 3.7132614744,
				"z": 0.5111890314,
				"element": "H" 
			},
			{
				"x": 1.3842981236,
				"y": 2.0655237366,
				"z": 0.1039340783,
				"element": "H" 
			}
		],
		 "valence_orbital": [ 
			{
				"type": "occ",
				"energy": -0.31358,
				"method": "rhf"
			},
			{
				"type": "occ",
				"energy": -0.28877,
				"method": "rhf"
			},
			{
				"type": "occ",
				"energy": -0.26857,
				"method": "rhf"
			},
			{
				"type": "occ",
				"energy": -0.26465,
				"method": "rhf"
			},
			{
				"type": "occ",
				"energy": -0.21873,
				"method": "rhf"
			},
			{
				"type": "unocc",
				"energy": -0.02667,
				"method": "rhf"
			},
			{
				"type": "unocc",
				"energy": -0.00378,
				"method": "rhf"
			},
			{
				"type": "unocc",
				"energy": 0.01116,
				"method": "rhf"
			},
			{
				"type": "unocc",
				"energy": 0.07756,
				"method": "rhf"
			},
			{
				"type": "unocc",
				"energy": 0.10319,
				"method": "rhf"
			}
		],
		"cosmo_sigma_profile": { 
			"-0.025": 0.0,
			"-0.024": 0.0,
			"-0.023": 0.0,
			"-0.022": 0.0,
			"-0.021": 0.0,
			"-0.02": 0.0,
			"-0.019": 0.0,
			"-0.018": 0.0,
			"-0.017": 0.0,
			"-0.016": 0.0,
			"-0.015": 0.0,
			"-0.014": 0.61871728888,
			"-0.013": 1.69635870896,
			"-0.012": 1.72128316506,
			"-0.011": 2.33703504637,
			"-0.01": 3.002654873,
			"-0.009": 2.08294555842,
			"-0.008": 2.72330365153,
			"-0.007": 6.10489094506,
			"-0.006": 7.81109181551,
			"-0.005": 7.9160741139,
			"-0.004": 7.13212515399,
			"-0.003": 7.33049300753,
			"-0.002": 6.55930283908,
			"-0.001": 7.68096331189,
			"0.0": 9.05652583509,
			"0.001": 13.5827026773,
			"0.002": 14.6783349376,
			"0.003": 16.7522457139,
			"0.004": 10.0393451396,
			"0.005": 9.60591364864,
			"0.006": 4.12139501517,
			"0.007": 2.29435620839,
			"0.008": 2.53254470132,
			"0.009": 1.95830658026,
			"0.01": 2.26809163009,
			"0.011": 1.59299535695,
			"0.012": 1.45910898512,
			"0.013": 0.862541888148,
			"0.014": 0.863291363599,
			"0.015": 0.326486270668,
			"0.016": 0.0,
			"0.017": 0.0,
			"0.018": 0.0,
			"0.019": 0.0,
			"0.02": 0.0,
			"0.021": 0.0,
			"0.022": 0.0,
			"0.023": 0.0,
			"0.024": 0.0,
			"0.025": 0.0
		}
	}
}
