{
	 "smiles": "[O-][N+](=O)C1=CC=C(C=C1)S(=O)(=O)C(F)(F)F", 
	 "Tm": 355.15, 
	 "num_atms": 20, 
	 "gaussian": { 
		 "optdone": 1, 
		 "sigma_profile": "yes", 
		 "theory": "DFT", 
		 "functional": "B3LYP", 
		 "basiset": "6-31G**", 
		 "properties": { 
			 "R2extent": 5775.0475, 
			 "electric_dipole_moment_norm": 1.48746282306, 
			 "electric_quadrupole_moment_norm": 18.8435371473, 
			 "total_energy": -1322.31778717, 
			 "HOMO_LUMO_gap": 0.18889, 
			 "cosmo_polarized_energy": -12.16, 
			 "cosmo_cavitation_energy": 29.0, 
			 "cosmo_dispersion_energy": -20.71, 
			 "cosmo_repulsion_energy": 1.5, 
			 "cosmo_total_nonelectrostatic_energy": 9.79, 
			 "SMD_solvation_energy": 7.73 
		},
		"coords": [
			{
				"x": -1.5519354263,
				"y": 2.4702189307,
				"z": -1.3169261978,
				"element": "O" 
			},
			{
				"x": -1.986929946,
				"y": 1.3288370977,
				"z": -1.4459337582,
				"element": "N" 
			},
			{
				"x": -2.9339372291,
				"y": 1.006184407,
				"z": -2.1584537883,
				"element": "O" 
			},
			{
				"x": -1.3145202672,
				"y": 0.25492138,
				"z": -0.6818770882,
				"element": "C" 
			},
			{
				"x": -1.7888848091,
				"y": -1.0491166566,
				"z": -0.8079395744,
				"element": "C" 
			},
			{
				"x": -1.154703301,
				"y": -2.0601132483,
				"z": -0.0900270655,
				"element": "C" 
			},
			{
				"x": -0.070612689,
				"y": -1.728747564,
				"z": 0.7264563496,
				"element": "C" 
			},
			{
				"x": 0.3956982754,
				"y": -0.4179872623,
				"z": 0.8535596666,
				"element": "C" 
			},
			{
				"x": -0.2382534101,
				"y": 0.5932623755,
				"z": 0.135803771,
				"element": "C" 
			},
			{
				"x": 0.7399238557,
				"y": -3.0318596906,
				"z": 1.6624676875,
				"element": "S" 
			},
			{
				"x": -0.184732401,
				"y": -4.1580108806,
				"z": 1.8040214174,
				"element": "O" 
			},
			{
				"x": 1.4454381592,
				"y": -2.4315584963,
				"z": 2.7960999248,
				"element": "O" 
			},
			{
				"x": 2.0681382324,
				"y": -3.5934211461,
				"z": 0.4570571865,
				"element": "C" 
			},
			{
				"x": 2.8757104491,
				"y": -2.568097531,
				"z": 0.1727723299,
				"element": "F" 
			},
			{
				"x": 1.4948407465,
				"y": -4.0292623616,
				"z": -0.6679575061,
				"element": "F" 
			},
			{
				"x": 2.7658880165,
				"y": -4.5751672474,
				"z": 1.0172503753,
				"element": "F" 
			},
			{
				"x": -2.6352716376,
				"y": -1.2504864839,
				"z": -1.4521950544,
				"element": "H" 
			},
			{
				"x": -1.5005845308,
				"y": -3.0860860994,
				"z": -0.145415873,
				"element": "H" 
			},
			{
				"x": 1.2264620859,
				"y": -0.1976727564,
				"z": 1.5143260436,
				"element": "H" 
			},
			{
				"x": 0.0803658268,
				"y": 1.6258632334,
				"z": 0.2006111537,
				"element": "H" 
			}
		],
		 "valence_orbital": [ 
			{
				"type": "occ",
				"energy": -0.33022,
				"method": "rhf"
			},
			{
				"type": "occ",
				"energy": -0.32574,
				"method": "rhf"
			},
			{
				"type": "occ",
				"energy": -0.31907,
				"method": "rhf"
			},
			{
				"type": "occ",
				"energy": -0.3149,
				"method": "rhf"
			},
			{
				"type": "occ",
				"energy": -0.31007,
				"method": "rhf"
			},
			{
				"type": "unocc",
				"energy": -0.12118,
				"method": "rhf"
			},
			{
				"type": "unocc",
				"energy": -0.05983,
				"method": "rhf"
			},
			{
				"type": "unocc",
				"energy": -0.04874,
				"method": "rhf"
			},
			{
				"type": "unocc",
				"energy": 0.02334,
				"method": "rhf"
			},
			{
				"type": "unocc",
				"energy": 0.04205,
				"method": "rhf"
			}
		],
		"cosmo_sigma_profile": { 
			"-0.025": 0.0,
			"-0.024": 0.0,
			"-0.023": 0.0,
			"-0.022": 0.0,
			"-0.021": 0.0,
			"-0.02": 0.0,
			"-0.019": 0.0,
			"-0.018": 0.0,
			"-0.017": 0.0,
			"-0.016": 0.0,
			"-0.015": 0.0,
			"-0.014": 0.0,
			"-0.013": 0.0,
			"-0.012": 0.0,
			"-0.011": 0.0,
			"-0.01": 1.00637786975,
			"-0.009": 6.00417009064,
			"-0.008": 8.58887940082,
			"-0.007": 6.63249162893,
			"-0.006": 7.08335223082,
			"-0.005": 10.8903230846,
			"-0.004": 11.3404525861,
			"-0.003": 18.8848120462,
			"-0.002": 25.9376075961,
			"-0.001": 24.8595705618,
			"0.0": 27.0894120393,
			"0.001": 17.6857662917,
			"0.002": 3.97751338154,
			"0.003": 5.89995076061,
			"0.004": 6.09059929557,
			"0.005": 5.45406587006,
			"0.006": 10.3867287914,
			"0.007": 10.8207064394,
			"0.008": 10.896761437,
			"0.009": 12.0388328246,
			"0.01": 2.781810105,
			"0.011": 0.0,
			"0.012": 0.0,
			"0.013": 0.0,
			"0.014": 0.0,
			"0.015": 0.0,
			"0.016": 0.0,
			"0.017": 0.0,
			"0.018": 0.0,
			"0.019": 0.0,
			"0.02": 0.0,
			"0.021": 0.0,
			"0.022": 0.0,
			"0.023": 0.0,
			"0.024": 0.0,
			"0.025": 0.0
		}
	}
}
