{
	 "smiles": "NC(=O)C1(CCN(CCC(C#N)(C2=CC=CC=C2)C2=CC=CC=C2)CC1)N1CCCCC1", 
	 "Tm": 423.15, 
	 "num_atms": 66, 
	 "gaussian": { 
		 "optdone": 1, 
		 "sigma_profile": "yes", 
		 "theory": "DFT", 
		 "functional": "B3LYP", 
		 "basiset": "6-31G**", 
		 "properties": { 
			 "R2extent": 17509.5421, 
			 "electric_dipole_moment_norm": 1.14557424028, 
			 "electric_quadrupole_moment_norm": 30.5561859392, 
			 "total_energy": -1343.56759208, 
			 "HOMO_LUMO_gap": 0.17991, 
			 "cosmo_polarized_energy": -20.0, 
			 "cosmo_cavitation_energy": 61.92, 
			 "cosmo_dispersion_energy": -40.34, 
			 "cosmo_repulsion_energy": 3.02, 
			 "cosmo_total_nonelectrostatic_energy": 24.6, 
			 "SMD_solvation_energy": 9.92 
		},
		"coords": [
			{
				"x": 2.248288881,
				"y": 2.7427922447,
				"z": -4.4556030826,
				"element": "N" 
			},
			{
				"x": 0.9916537336,
				"y": 2.553396693,
				"z": -3.9598031327,
				"element": "C" 
			},
			{
				"x": 0.0148301328,
				"y": 2.3955342426,
				"z": -4.6806180604,
				"element": "O" 
			},
			{
				"x": 0.9404783427,
				"y": 2.4345505037,
				"z": -2.4019789834,
				"element": "C" 
			},
			{
				"x": 1.4711891791,
				"y": 0.9939548563,
				"z": -2.1083588545,
				"element": "C" 
			},
			{
				"x": 0.3529392608,
				"y": -0.0369169072,
				"z": -2.2671195168,
				"element": "C" 
			},
			{
				"x": -0.6157032367,
				"y": 0.1135051754,
				"z": -1.1757352803,
				"element": "N" 
			},
			{
				"x": -1.7998237396,
				"y": -0.7110109593,
				"z": -1.3484697839,
				"element": "C" 
			},
			{
				"x": -2.5109237594,
				"y": -1.0615354391,
				"z": -0.0332787036,
				"element": "C" 
			},
			{
				"x": -1.6340022586,
				"y": -1.7808357134,
				"z": 1.0444775304,
				"element": "C" 
			},
			{
				"x": -0.66921216,
				"y": -0.8079743282,
				"z": 1.6072935998,
				"element": "C" 
			},
			{
				"x": 0.0454776828,
				"y": -0.0588150226,
				"z": 2.1350795619,
				"element": "N" 
			},
			{
				"x": -0.8966541048,
				"y": -2.9778523073,
				"z": 0.4072006406,
				"element": "C" 
			},
			{
				"x": -1.6425718671,
				"y": -4.0980186907,
				"z": 0.0121187487,
				"element": "C" 
			},
			{
				"x": -1.0235362043,
				"y": -5.1832510413,
				"z": -0.605830393,
				"element": "C" 
			},
			{
				"x": 0.3548563373,
				"y": -5.1704427727,
				"z": -0.8330338474,
				"element": "C" 
			},
			{
				"x": 1.1042298665,
				"y": -4.0634193163,
				"z": -0.4373299023,
				"element": "C" 
			},
			{
				"x": 0.4829736976,
				"y": -2.9718645205,
				"z": 0.1763652791,
				"element": "C" 
			},
			{
				"x": -2.4789721544,
				"y": -2.2634579167,
				"z": 2.2574903711,
				"element": "C" 
			},
			{
				"x": -3.8409282769,
				"y": -1.9797472999,
				"z": 2.4013032801,
				"element": "C" 
			},
			{
				"x": -4.549110956,
				"y": -2.4331351233,
				"z": 3.5192688036,
				"element": "C" 
			},
			{
				"x": -3.9056056236,
				"y": -3.1693372453,
				"z": 4.5107839816,
				"element": "C" 
			},
			{
				"x": -2.5428678815,
				"y": -3.4506535102,
				"z": 4.3800408362,
				"element": "C" 
			},
			{
				"x": -1.8396448131,
				"y": -3.0020775468,
				"z": 3.265837226,
				"element": "C" 
			},
			{
				"x": -0.8660026764,
				"y": 1.5195651465,
				"z": -0.8025755355,
				"element": "C" 
			},
			{
				"x": -0.5361318714,
				"y": 2.5229705263,
				"z": -1.9182922739,
				"element": "C" 
			},
			{
				"x": 1.8611950932,
				"y": 3.4643551502,
				"z": -1.8465952435,
				"element": "N" 
			},
			{
				"x": 2.1057974869,
				"y": 3.4411633152,
				"z": -0.3944594417,
				"element": "C" 
			},
			{
				"x": 3.4628350304,
				"y": 4.1143775673,
				"z": -0.0977239759,
				"element": "C" 
			},
			{
				"x": 3.7315755518,
				"y": 5.2729869575,
				"z": -1.0817604752,
				"element": "C" 
			},
			{
				"x": 2.4003212343,
				"y": 5.8888202295,
				"z": -1.5218636016,
				"element": "C" 
			},
			{
				"x": 1.5169220712,
				"y": 4.8472639599,
				"z": -2.25009337,
				"element": "C" 
			},
			{
				"x": 2.9835406005,
				"y": 3.0113217366,
				"z": -3.8175383819,
				"element": "H" 
			},
			{
				"x": 2.3563223781,
				"y": 2.8630399292,
				"z": -5.4506086168,
				"element": "H" 
			},
			{
				"x": 1.8443259732,
				"y": 0.9205718723,
				"z": -1.0841231556,
				"element": "H" 
			},
			{
				"x": 2.3069238525,
				"y": 0.7598655145,
				"z": -2.7725657669,
				"element": "H" 
			},
			{
				"x": 0.7707883975,
				"y": -1.0497912962,
				"z": -2.2191191954,
				"element": "H" 
			},
			{
				"x": -0.1107329647,
				"y": 0.0745738003,
				"z": -3.2635442441,
				"element": "H" 
			},
			{
				"x": -2.5496108377,
				"y": -0.2513116641,
				"z": -2.0223639437,
				"element": "H" 
			},
			{
				"x": -1.4856914006,
				"y": -1.6418615644,
				"z": -1.8314922119,
				"element": "H" 
			},
			{
				"x": -2.9416573161,
				"y": -0.160836124,
				"z": 0.4167106505,
				"element": "H" 
			},
			{
				"x": -3.3484474702,
				"y": -1.7235330952,
				"z": -0.2782783498,
				"element": "H" 
			},
			{
				"x": -2.7114926984,
				"y": -4.1280079207,
				"z": 0.2030514934,
				"element": "H" 
			},
			{
				"x": -1.6178490563,
				"y": -6.0424157916,
				"z": -0.9036646907,
				"element": "H" 
			},
			{
				"x": 0.8384522668,
				"y": -6.0179341742,
				"z": -1.3100213434,
				"element": "H" 
			},
			{
				"x": 2.1777010969,
				"y": -4.04368221,
				"z": -0.6029140356,
				"element": "H" 
			},
			{
				"x": 1.0733148502,
				"y": -2.1125377903,
				"z": 0.4761633322,
				"element": "H" 
			},
			{
				"x": -4.3692334968,
				"y": -1.4024114307,
				"z": 1.6519809758,
				"element": "H" 
			},
			{
				"x": -5.6070485435,
				"y": -2.2034597702,
				"z": 3.609100989,
				"element": "H" 
			},
			{
				"x": -4.4567572142,
				"y": -3.5197504227,
				"z": 5.3785552961,
				"element": "H" 
			},
			{
				"x": -2.0266364017,
				"y": -4.0203843686,
				"z": 5.1473103795,
				"element": "H" 
			},
			{
				"x": -0.7813225008,
				"y": -3.226533078,
				"z": 3.1723899477,
				"element": "H" 
			},
			{
				"x": -0.2987347044,
				"y": 1.7552666305,
				"z": 0.1070339556,
				"element": "H" 
			},
			{
				"x": -1.9223711212,
				"y": 1.6341963849,
				"z": -0.5335019481,
				"element": "H" 
			},
			{
				"x": -0.7586279842,
				"y": 3.5327756277,
				"z": -1.5580910812,
				"element": "H" 
			},
			{
				"x": -1.1850029646,
				"y": 2.3508666275,
				"z": -2.7813154532,
				"element": "H" 
			},
			{
				"x": 1.2975058425,
				"y": 3.9573085783,
				"z": 0.1527694081,
				"element": "H" 
			},
			{
				"x": 2.1159681523,
				"y": 2.4186765646,
				"z": -0.0194393693,
				"element": "H" 
			},
			{
				"x": 4.2676376484,
				"y": 3.3739801304,
				"z": -0.1644695034,
				"element": "H" 
			},
			{
				"x": 3.4542280806,
				"y": 4.4820540579,
				"z": 0.9354277295,
				"element": "H" 
			},
			{
				"x": 4.3774332764,
				"y": 6.029715799,
				"z": -0.623203252,
				"element": "H" 
			},
			{
				"x": 4.2658927687,
				"y": 4.8979632765,
				"z": -1.9624467182,
				"element": "H" 
			},
			{
				"x": 2.5572381346,
				"y": 6.7507404083,
				"z": -2.1793549539,
				"element": "H" 
			},
			{
				"x": 1.8767815645,
				"y": 6.2704148667,
				"z": -0.6367168049,
				"element": "H" 
			},
			{
				"x": 1.6607483407,
				"y": 4.9343627733,
				"z": -3.3310517706,
				"element": "H" 
			},
			{
				"x": 0.4574414528,
				"y": 5.0811652147,
				"z": -2.0526057679,
				"element": "H" 
			}
		],
		 "valence_orbital": [ 
			{
				"type": "occ",
				"energy": -0.25358,
				"method": "rhf"
			},
			{
				"type": "occ",
				"energy": -0.2424,
				"method": "rhf"
			},
			{
				"type": "occ",
				"energy": -0.24073,
				"method": "rhf"
			},
			{
				"type": "occ",
				"energy": -0.2111,
				"method": "rhf"
			},
			{
				"type": "occ",
				"energy": -0.19467,
				"method": "rhf"
			},
			{
				"type": "unocc",
				"energy": -0.01476,
				"method": "rhf"
			},
			{
				"type": "unocc",
				"energy": -0.01063,
				"method": "rhf"
			},
			{
				"type": "unocc",
				"energy": -0.00919,
				"method": "rhf"
			},
			{
				"type": "unocc",
				"energy": 0.00184,
				"method": "rhf"
			},
			{
				"type": "unocc",
				"energy": 0.02901,
				"method": "rhf"
			}
		],
		"cosmo_sigma_profile": { 
			"-0.025": 0.0,
			"-0.024": 0.0,
			"-0.023": 0.0,
			"-0.022": 0.0,
			"-0.021": 0.0,
			"-0.02": 0.0,
			"-0.019": 0.0,
			"-0.018": 0.0,
			"-0.017": 0.0,
			"-0.016": 0.0,
			"-0.015": 0.0,
			"-0.014": 0.38141342265,
			"-0.013": 1.0746319951,
			"-0.012": 0.984425598028,
			"-0.011": 1.24546732924,
			"-0.01": 1.68906603795,
			"-0.009": 2.15036436309,
			"-0.008": 2.08450828375,
			"-0.007": 1.23344632358,
			"-0.006": 14.9960782122,
			"-0.005": 29.135712996,
			"-0.004": 33.5819955826,
			"-0.003": 39.6106480408,
			"-0.002": 64.5005614271,
			"-0.001": 69.9922454933,
			"0.0": 55.1456611471,
			"0.001": 32.8774808205,
			"0.002": 21.7582671603,
			"0.003": 21.0843690845,
			"0.004": 23.9248787559,
			"0.005": 21.8805901062,
			"0.006": 8.57898421257,
			"0.007": 4.78504848896,
			"0.008": 4.54322666592,
			"0.009": 4.26398177548,
			"0.01": 4.69839066402,
			"0.011": 3.18577722864,
			"0.012": 3.74729925105,
			"0.013": 5.59444644295,
			"0.014": 5.58982930406,
			"0.015": 0.520550586442,
			"0.016": 0.0,
			"0.017": 0.0,
			"0.018": 0.0,
			"0.019": 0.0,
			"0.02": 0.0,
			"0.021": 0.0,
			"0.022": 0.0,
			"0.023": 0.0,
			"0.024": 0.0,
			"0.025": 0.0
		}
	}
}
