{
	 "smiles": "COC1=CC=C2C(OC)=C3C=COC3=NC2=C1OC", 
	 "Tm": 450.15, 
	 "num_atms": 32, 
	 "gaussian": { 
		 "optdone": 1, 
		 "sigma_profile": "yes", 
		 "theory": "DFT", 
		 "functional": "B3LYP", 
		 "basiset": "6-31G**", 
		 "properties": { 
			 "R2extent": 5320.681, 
			 "electric_dipole_moment_norm": 3.56768112645, 
			 "electric_quadrupole_moment_norm": 17.3673771958, 
			 "total_energy": -896.91608454, 
			 "HOMO_LUMO_gap": 0.1523, 
			 "cosmo_polarized_energy": -13.01, 
			 "cosmo_cavitation_energy": 35.3, 
			 "cosmo_dispersion_energy": -25.84, 
			 "cosmo_repulsion_energy": 1.95, 
			 "cosmo_total_nonelectrostatic_energy": 11.4, 
			 "SMD_solvation_energy": 7.89 
		},
		"coords": [
			{
				"x": -2.5916215691,
				"y": -3.5056733068,
				"z": 1.4075036111,
				"element": "C" 
			},
			{
				"x": -2.6158038714,
				"y": -2.7048530629,
				"z": 0.2231646249,
				"element": "O" 
			},
			{
				"x": -1.6170364513,
				"y": -1.8121378042,
				"z": -0.0300655022,
				"element": "C" 
			},
			{
				"x": -1.3147488781,
				"y": -1.6428302731,
				"z": -1.4078939281,
				"element": "C" 
			},
			{
				"x": -0.3475307715,
				"y": -0.7652146453,
				"z": -1.8237778506,
				"element": "C" 
			},
			{
				"x": 0.3946113967,
				"y": -0.0114406238,
				"z": -0.8759547568,
				"element": "C" 
			},
			{
				"x": 1.4286016566,
				"y": 0.8912950836,
				"z": -1.2745822772,
				"element": "C" 
			},
			{
				"x": 1.6355116181,
				"y": 0.9694286419,
				"z": -2.61049582,
				"element": "O" 
			},
			{
				"x": 2.6451300104,
				"y": 1.8279438294,
				"z": -3.1259970147,
				"element": "C" 
			},
			{
				"x": 2.1126664099,
				"y": 1.5895621145,
				"z": -0.2810784634,
				"element": "C" 
			},
			{
				"x": 3.1784447565,
				"y": 2.5668280997,
				"z": -0.152779311,
				"element": "C" 
			},
			{
				"x": 3.3129750741,
				"y": 2.8017730544,
				"z": 1.1718689192,
				"element": "C" 
			},
			{
				"x": 2.4359786819,
				"y": 2.0723860477,
				"z": 1.9339230109,
				"element": "O" 
			},
			{
				"x": 1.6918660288,
				"y": 1.3215572026,
				"z": 1.0591779837,
				"element": "C" 
			},
			{
				"x": 0.767390587,
				"y": 0.5187471811,
				"z": 1.4973546913,
				"element": "N" 
			},
			{
				"x": 0.1027060198,
				"y": -0.1655609866,
				"z": 0.5211712381,
				"element": "C" 
			},
			{
				"x": -0.9339372241,
				"y": -1.0664897296,
				"z": 0.92498673,
				"element": "C" 
			},
			{
				"x": -1.2211539539,
				"y": -1.2318493691,
				"z": 2.258354966,
				"element": "O" 
			},
			{
				"x": -1.8561831193,
				"y": -0.1189134205,
				"z": 2.8985432398,
				"element": "C" 
			},
			{
				"x": -1.5783609415,
				"y": -3.8549216394,
				"z": 1.6292293046,
				"element": "H" 
			},
			{
				"x": -3.2350004625,
				"y": -4.362171857,
				"z": 1.1905757389,
				"element": "H" 
			},
			{
				"x": -2.9737772763,
				"y": -2.9654891922,
				"z": 2.2760060296,
				"element": "H" 
			},
			{
				"x": -1.8819298707,
				"y": -2.2376746687,
				"z": -2.1161450197,
				"element": "H" 
			},
			{
				"x": -0.1267422109,
				"y": -0.6482091468,
				"z": -2.8777544642,
				"element": "H" 
			},
			{
				"x": 2.4440868599,
				"y": 2.8753823296,
				"z": -2.8762060811,
				"element": "H" 
			},
			{
				"x": 2.6136996556,
				"y": 1.7047610145,
				"z": -4.2093976535,
				"element": "H" 
			},
			{
				"x": 3.63701414,
				"y": 1.5426659194,
				"z": -2.7590203471,
				"element": "H" 
			},
			{
				"x": 3.7658819155,
				"y": 3.0327715999,
				"z": -0.9272838971,
				"element": "H" 
			},
			{
				"x": 3.9759729534,
				"y": 3.4490242911,
				"z": 1.7257259714,
				"element": "H" 
			},
			{
				"x": -1.1837774949,
				"y": 0.741238718,
				"z": 2.9403667938,
				"element": "H" 
			},
			{
				"x": -2.7847592976,
				"y": 0.1537921084,
				"z": 2.3803289129,
				"element": "H" 
			},
			{
				"x": -2.0930743712,
				"y": -0.4499275098,
				"z": 3.9123506204,
				"element": "H" 
			}
		],
		 "valence_orbital": [ 
			{
				"type": "occ",
				"energy": -0.27167,
				"method": "rhf"
			},
			{
				"type": "occ",
				"energy": -0.25848,
				"method": "rhf"
			},
			{
				"type": "occ",
				"energy": -0.23539,
				"method": "rhf"
			},
			{
				"type": "occ",
				"energy": -0.22248,
				"method": "rhf"
			},
			{
				"type": "occ",
				"energy": -0.19375,
				"method": "rhf"
			},
			{
				"type": "unocc",
				"energy": -0.04145,
				"method": "rhf"
			},
			{
				"type": "unocc",
				"energy": -0.00161,
				"method": "rhf"
			},
			{
				"type": "unocc",
				"energy": 0.03121,
				"method": "rhf"
			},
			{
				"type": "unocc",
				"energy": 0.04218,
				"method": "rhf"
			},
			{
				"type": "unocc",
				"energy": 0.08953,
				"method": "rhf"
			}
		],
		"cosmo_sigma_profile": { 
			"-0.025": 0.0,
			"-0.024": 0.0,
			"-0.023": 0.0,
			"-0.022": 0.0,
			"-0.021": 0.0,
			"-0.02": 0.0,
			"-0.019": 0.0,
			"-0.018": 0.0,
			"-0.017": 0.0,
			"-0.016": 0.0,
			"-0.015": 0.0,
			"-0.014": 0.0,
			"-0.013": 0.0,
			"-0.012": 0.0,
			"-0.011": 0.0,
			"-0.01": 0.46475193815,
			"-0.009": 2.30227514957,
			"-0.008": 4.32088439547,
			"-0.007": 6.66761101465,
			"-0.006": 12.4293383428,
			"-0.005": 20.4691287253,
			"-0.004": 23.1863234178,
			"-0.003": 25.2134845167,
			"-0.002": 24.4353736,
			"-0.001": 19.6296172754,
			"0.0": 20.1553758313,
			"0.001": 21.0191930052,
			"0.002": 23.2038367337,
			"0.003": 22.9176046667,
			"0.004": 15.3622974832,
			"0.005": 9.07848866949,
			"0.006": 5.70489378821,
			"0.007": 5.29858075569,
			"0.008": 4.3583624439,
			"0.009": 5.06898165886,
			"0.01": 3.62526345501,
			"0.011": 2.75842536543,
			"0.012": 2.2290980987,
			"0.013": 0.909211220388,
			"0.014": 1.36021100987,
			"0.015": 0.134917179335,
			"0.016": 0.0,
			"0.017": 0.0,
			"0.018": 0.0,
			"0.019": 0.0,
			"0.02": 0.0,
			"0.021": 0.0,
			"0.022": 0.0,
			"0.023": 0.0,
			"0.024": 0.0,
			"0.025": 0.0
		}
	}
}
