{
	 "smiles": "NC1=CC=C(Cl)C=C1C(=O)C1=CC=CC(O)=C1", 
	 "Tm": 464.15, 
	 "num_atms": 27, 
	 "gaussian": { 
		 "optdone": 1, 
		 "sigma_profile": "yes", 
		 "theory": "DFT", 
		 "functional": "B3LYP", 
		 "basiset": "6-31G**", 
		 "properties": { 
			 "R2extent": 5384.1609, 
			 "electric_dipole_moment_norm": 4.82924711834, 
			 "electric_quadrupole_moment_norm": 10.644714162, 
			 "total_energy": -1166.80002738, 
			 "HOMO_LUMO_gap": 0.14549, 
			 "cosmo_polarized_energy": -17.51, 
			 "cosmo_cavitation_energy": 33.37, 
			 "cosmo_dispersion_energy": -24.06, 
			 "cosmo_repulsion_energy": 1.87, 
			 "cosmo_total_nonelectrostatic_energy": 11.18, 
			 "SMD_solvation_energy": 6.15 
		},
		"coords": [
			{
				"x": 0.9209125267,
				"y": 0.4321716661,
				"z": -1.7830046655,
				"element": "N" 
			},
			{
				"x": 1.5212785068,
				"y": 0.2539438626,
				"z": -0.5433653276,
				"element": "C" 
			},
			{
				"x": 2.7192776795,
				"y": 0.9478398652,
				"z": -0.2727777667,
				"element": "C" 
			},
			{
				"x": 3.3732899782,
				"y": 0.8297263462,
				"z": 0.9441343774,
				"element": "C" 
			},
			{
				"x": 2.8458091107,
				"y": -0.0097999608,
				"z": 1.9291792698,
				"element": "C" 
			},
			{
				"x": 3.6758229309,
				"y": -0.1736520338,
				"z": 3.4717404123,
				"element": "Cl" 
			},
			{
				"x": 1.6789061719,
				"y": -0.7159287659,
				"z": 1.6883516624,
				"element": "C" 
			},
			{
				"x": 0.9843819312,
				"y": -0.5775474299,
				"z": 0.4736291508,
				"element": "C" 
			},
			{
				"x": -0.2381048975,
				"y": -1.4422505422,
				"z": 0.3300601041,
				"element": "C" 
			},
			{
				"x": -0.2315956726,
				"y": -2.5758857073,
				"z": 0.7963121766,
				"element": "O" 
			},
			{
				"x": -1.4847283176,
				"y": -0.9194460255,
				"z": -0.3226253245,
				"element": "C" 
			},
			{
				"x": -2.4013065001,
				"y": -1.8441405216,
				"z": -0.844080377,
				"element": "C" 
			},
			{
				"x": -3.5968573304,
				"y": -1.391502134,
				"z": -1.3998221094,
				"element": "C" 
			},
			{
				"x": -3.9010146097,
				"y": -0.0311011641,
				"z": -1.4223482509,
				"element": "C" 
			},
			{
				"x": -2.9952925859,
				"y": 0.8922140598,
				"z": -0.8854052751,
				"element": "C" 
			},
			{
				"x": -3.3480472339,
				"y": 2.2103384215,
				"z": -0.9219875641,
				"element": "O" 
			},
			{
				"x": -1.7865352607,
				"y": 0.4504595562,
				"z": -0.3426701529,
				"element": "C" 
			},
			{
				"x": 0.2283420135,
				"y": -0.2430773677,
				"z": -2.0685854716,
				"element": "H" 
			},
			{
				"x": 1.5409633367,
				"y": 0.7099406517,
				"z": -2.5298234836,
				"element": "H" 
			},
			{
				"x": 3.1388157506,
				"y": 1.5892052148,
				"z": -1.0437299095,
				"element": "H" 
			},
			{
				"x": 4.2907955448,
				"y": 1.3780380116,
				"z": 1.1285273522,
				"element": "H" 
			},
			{
				"x": 1.2780011543,
				"y": -1.3938883992,
				"z": 2.4328413372,
				"element": "H" 
			},
			{
				"x": -2.1624399357,
				"y": -2.9004284618,
				"z": -0.7949085932,
				"element": "H" 
			},
			{
				"x": -4.3052985836,
				"y": -2.102704229,
				"z": -1.8142576761,
				"element": "H" 
			},
			{
				"x": -4.8308150896,
				"y": 0.3351399727,
				"z": -1.8451206166,
				"element": "H" 
			},
			{
				"x": -2.6402340414,
				"y": 2.7406142795,
				"z": -0.5330824688,
				"element": "H" 
			},
			{
				"x": -1.082726577,
				"y": 1.1665208348,
				"z": 0.0729191902,
				"element": "H" 
			}
		],
		 "valence_orbital": [ 
			{
				"type": "occ",
				"energy": -0.27036,
				"method": "rhf"
			},
			{
				"type": "occ",
				"energy": -0.26564,
				"method": "rhf"
			},
			{
				"type": "occ",
				"energy": -0.25143,
				"method": "rhf"
			},
			{
				"type": "occ",
				"energy": -0.23328,
				"method": "rhf"
			},
			{
				"type": "occ",
				"energy": -0.21406,
				"method": "rhf"
			},
			{
				"type": "unocc",
				"energy": -0.06857,
				"method": "rhf"
			},
			{
				"type": "unocc",
				"energy": -0.01964,
				"method": "rhf"
			},
			{
				"type": "unocc",
				"energy": -0.00493,
				"method": "rhf"
			},
			{
				"type": "unocc",
				"energy": 0.0007,
				"method": "rhf"
			},
			{
				"type": "unocc",
				"energy": 0.03294,
				"method": "rhf"
			}
		],
		"cosmo_sigma_profile": { 
			"-0.025": 0.0,
			"-0.024": 0.0,
			"-0.023": 0.0,
			"-0.022": 0.0,
			"-0.021": 0.0,
			"-0.02": 0.0,
			"-0.019": 0.0,
			"-0.018": 0.755745727693,
			"-0.017": 1.23026701648,
			"-0.016": 1.21189589307,
			"-0.015": 0.851818028527,
			"-0.014": 1.36314241711,
			"-0.013": 1.86047456817,
			"-0.012": 3.09982322009,
			"-0.011": 3.43541195074,
			"-0.01": 4.66622426428,
			"-0.009": 3.78900296181,
			"-0.008": 3.9845150918,
			"-0.007": 7.10954677099,
			"-0.006": 12.0014546114,
			"-0.005": 12.1197407934,
			"-0.004": 13.6533386356,
			"-0.003": 13.18093322,
			"-0.002": 14.4019592903,
			"-0.001": 13.7618364689,
			"0.0": 13.8567664253,
			"0.001": 17.3872538643,
			"0.002": 24.9030226496,
			"0.003": 29.4389918331,
			"0.004": 24.3327881783,
			"0.005": 16.2298405214,
			"0.006": 4.73925459208,
			"0.007": 3.78960602198,
			"0.008": 3.82370048447,
			"0.009": 4.40281647549,
			"0.01": 4.3719534374,
			"0.011": 4.57362845881,
			"0.012": 4.38819135119,
			"0.013": 0.563380189207,
			"0.014": 0.0,
			"0.015": 0.0,
			"0.016": 0.0,
			"0.017": 0.0,
			"0.018": 0.0,
			"0.019": 0.0,
			"0.02": 0.0,
			"0.021": 0.0,
			"0.022": 0.0,
			"0.023": 0.0,
			"0.024": 0.0,
			"0.025": 0.0
		}
	}
}
