{
	 "smiles": "NC1=C(C=C(Cl)C(Cl)=N1)[N+]([O-])=O", 
	 "Tm": 400.15, 
	 "num_atms": 15, 
	 "gaussian": { 
		 "optdone": 1, 
		 "sigma_profile": "yes", 
		 "theory": "DFT", 
		 "functional": "B3LYP", 
		 "basiset": "6-31G**", 
		 "properties": { 
			 "R2extent": 3348.2698, 
			 "electric_dipole_moment_norm": 2.10190737427, 
			 "electric_quadrupole_moment_norm": 11.4635170183, 
			 "total_energy": -1427.33094825, 
			 "HOMO_LUMO_gap": 0.14136, 
			 "cosmo_polarized_energy": -9.84, 
			 "cosmo_cavitation_energy": 23.98, 
			 "cosmo_dispersion_energy": -18.48, 
			 "cosmo_repulsion_energy": 1.48, 
			 "cosmo_total_nonelectrostatic_energy": 6.98, 
			 "SMD_solvation_energy": 4.36 
		},
		"coords": [
			{
				"x": -0.2173362131,
				"y": 1.5875116213,
				"z": 1.2191097605,
				"element": "N" 
			},
			{
				"x": -0.5324036516,
				"y": 0.5235308765,
				"z": 0.4607111798,
				"element": "C" 
			},
			{
				"x": 0.0040905377,
				"y": -0.7847719438,
				"z": 0.6387329909,
				"element": "C" 
			},
			{
				"x": -0.4016721048,
				"y": -1.8119866587,
				"z": -0.2144699613,
				"element": "C" 
			},
			{
				"x": -1.3155182739,
				"y": -1.5570094189,
				"z": -1.2212328171,
				"element": "C" 
			},
			{
				"x": -1.8251144318,
				"y": -2.8345423216,
				"z": -2.2875754326,
				"element": "Cl" 
			},
			{
				"x": -1.7953035393,
				"y": -0.2314439489,
				"z": -1.3261191146,
				"element": "C" 
			},
			{
				"x": -2.9501352857,
				"y": 0.184672895,
				"z": -2.5659424717,
				"element": "Cl" 
			},
			{
				"x": -1.4234532248,
				"y": 0.7436067314,
				"z": -0.531728027,
				"element": "N" 
			},
			{
				"x": 0.962082833,
				"y": -1.1053028637,
				"z": 1.6745284863,
				"element": "N" 
			},
			{
				"x": 1.3292225848,
				"y": -0.1958928911,
				"z": 2.4392592105,
				"element": "O" 
			},
			{
				"x": 1.3705653686,
				"y": -2.2630780727,
				"z": 1.7526537848,
				"element": "O" 
			},
			{
				"x": -0.6610667453,
				"y": 2.4657783582,
				"z": 1.0011087956,
				"element": "H" 
			},
			{
				"x": 0.4434792411,
				"y": 1.473285632,
				"z": 1.9737190345,
				"element": "H" 
			},
			{
				"x": 0.0127629052,
				"y": -2.8015579951,
				"z": -0.0693554186,
				"element": "H" 
			}
		],
		 "valence_orbital": [ 
			{
				"type": "occ",
				"energy": -0.31991,
				"method": "rhf"
			},
			{
				"type": "occ",
				"energy": -0.31018,
				"method": "rhf"
			},
			{
				"type": "occ",
				"energy": -0.30958,
				"method": "rhf"
			},
			{
				"type": "occ",
				"energy": -0.30006,
				"method": "rhf"
			},
			{
				"type": "occ",
				"energy": -0.24782,
				"method": "rhf"
			},
			{
				"type": "unocc",
				"energy": -0.10646,
				"method": "rhf"
			},
			{
				"type": "unocc",
				"energy": -0.04434,
				"method": "rhf"
			},
			{
				"type": "unocc",
				"energy": -0.02138,
				"method": "rhf"
			},
			{
				"type": "unocc",
				"energy": -0.00567,
				"method": "rhf"
			},
			{
				"type": "unocc",
				"energy": 0.03946,
				"method": "rhf"
			}
		],
		"cosmo_sigma_profile": { 
			"-0.025": 0.0,
			"-0.024": 0.0,
			"-0.023": 0.0,
			"-0.022": 0.0,
			"-0.021": 0.0,
			"-0.02": 0.0,
			"-0.019": 0.0,
			"-0.018": 0.0,
			"-0.017": 0.0,
			"-0.016": 0.181014769622,
			"-0.015": 0.891788638947,
			"-0.014": 1.05968080838,
			"-0.013": 1.45837002243,
			"-0.012": 1.89350172513,
			"-0.011": 1.99923288274,
			"-0.01": 1.34567131246,
			"-0.009": 2.04533640921,
			"-0.008": 3.12347244555,
			"-0.007": 3.48965634031,
			"-0.006": 5.65192964472,
			"-0.005": 7.3570155227,
			"-0.004": 12.6713778474,
			"-0.003": 17.5092498926,
			"-0.002": 16.8840716074,
			"-0.001": 13.5200804778,
			"0.0": 12.8995941958,
			"0.001": 13.5210672319,
			"0.002": 16.144008142,
			"0.003": 19.0131104954,
			"0.004": 12.128219772,
			"0.005": 6.1310785032,
			"0.006": 4.62926886998,
			"0.007": 6.92535655808,
			"0.008": 6.43828385489,
			"0.009": 4.78530466561,
			"0.01": 3.79791609913,
			"0.011": 0.396129033519,
			"0.012": 0.0,
			"0.013": 0.0,
			"0.014": 0.0,
			"0.015": 0.0,
			"0.016": 0.0,
			"0.017": 0.0,
			"0.018": 0.0,
			"0.019": 0.0,
			"0.02": 0.0,
			"0.021": 0.0,
			"0.022": 0.0,
			"0.023": 0.0,
			"0.024": 0.0,
			"0.025": 0.0
		}
	}
}
