{
	 "smiles": "FC1=CC=C(C=C1)N1C(=O)C(Cl)=C(Cl)C1=O", 
	 "Tm": 514.15, 
	 "num_atms": 20, 
	 "gaussian": { 
		 "optdone": 1, 
		 "sigma_profile": "yes", 
		 "theory": "DFT", 
		 "functional": "B3LYP", 
		 "basiset": "6-31G**", 
		 "properties": { 
			 "R2extent": 5515.9982, 
			 "electric_dipole_moment_norm": 0.599263714904, 
			 "electric_quadrupole_moment_norm": 9.03328228663, 
			 "total_energy": -1608.88212584, 
			 "HOMO_LUMO_gap": 0.1306, 
			 "cosmo_polarized_energy": -8.83, 
			 "cosmo_cavitation_energy": 30.36, 
			 "cosmo_dispersion_energy": -21.91, 
			 "cosmo_repulsion_energy": 1.68, 
			 "cosmo_total_nonelectrostatic_energy": 10.12, 
			 "SMD_solvation_energy": 6.67 
		},
		"coords": [
			{
				"x": -3.0330167447,
				"y": -3.0578941753,
				"z": -2.032864826,
				"element": "F" 
			},
			{
				"x": -2.1557553725,
				"y": -2.2238157361,
				"z": -1.4416943134,
				"element": "C" 
			},
			{
				"x": -2.5339113053,
				"y": -1.5586486337,
				"z": -0.2809226598,
				"element": "C" 
			},
			{
				"x": -1.6294466124,
				"y": -0.6889292661,
				"z": 0.324030098,
				"element": "C" 
			},
			{
				"x": -0.3560707135,
				"y": -0.5127812619,
				"z": -0.2288839157,
				"element": "C" 
			},
			{
				"x": 0.0112815815,
				"y": -1.1979698286,
				"z": -1.3923781022,
				"element": "C" 
			},
			{
				"x": -0.8985139865,
				"y": -2.0531579114,
				"z": -2.0100205228,
				"element": "C" 
			},
			{
				"x": 0.5752761162,
				"y": 0.3729444643,
				"z": 0.3990862582,
				"element": "N" 
			},
			{
				"x": 1.4108563673,
				"y": 1.2771485102,
				"z": -0.2848799344,
				"element": "C" 
			},
			{
				"x": 1.4778136514,
				"y": 1.4426659996,
				"z": -1.4791614753,
				"element": "O" 
			},
			{
				"x": 2.2087319886,
				"y": 1.9905259762,
				"z": 0.7778813132,
				"element": "C" 
			},
			{
				"x": 3.3538271956,
				"y": 3.1866278329,
				"z": 0.3741838203,
				"element": "Cl" 
			},
			{
				"x": 1.8476134166,
				"y": 1.5176464427,
				"z": 1.9798975566,
				"element": "C" 
			},
			{
				"x": 2.4064182244,
				"y": 1.9422208564,
				"z": 3.5330553003,
				"element": "Cl" 
			},
			{
				"x": 0.7862876811,
				"y": 0.4631471509,
				"z": 1.7885959266,
				"element": "C" 
			},
			{
				"x": 0.2265746715,
				"y": -0.1708457744,
				"z": 2.6506238965,
				"element": "O" 
			},
			{
				"x": -3.5235613223,
				"y": -1.7184956649,
				"z": 0.1319932914,
				"element": "H" 
			},
			{
				"x": -1.9064632252,
				"y": -0.1627213333,
				"z": 1.2288134907,
				"element": "H" 
			},
			{
				"x": 0.9947620633,
				"y": -1.0525394007,
				"z": -1.8211618155,
				"element": "H" 
			},
			{
				"x": -0.6411036751,
				"y": -2.589528247,
				"z": -2.9163933868,
				"element": "H" 
			}
		],
		 "valence_orbital": [ 
			{
				"type": "occ",
				"energy": -0.31668,
				"method": "rhf"
			},
			{
				"type": "occ",
				"energy": -0.29713,
				"method": "rhf"
			},
			{
				"type": "occ",
				"energy": -0.28983,
				"method": "rhf"
			},
			{
				"type": "occ",
				"energy": -0.27391,
				"method": "rhf"
			},
			{
				"type": "occ",
				"energy": -0.24629,
				"method": "rhf"
			},
			{
				"type": "unocc",
				"energy": -0.11569,
				"method": "rhf"
			},
			{
				"type": "unocc",
				"energy": -0.02402,
				"method": "rhf"
			},
			{
				"type": "unocc",
				"energy": -0.02334,
				"method": "rhf"
			},
			{
				"type": "unocc",
				"energy": -0.00654,
				"method": "rhf"
			},
			{
				"type": "unocc",
				"energy": 0.03493,
				"method": "rhf"
			}
		],
		"cosmo_sigma_profile": { 
			"-0.025": 0.0,
			"-0.024": 0.0,
			"-0.023": 0.0,
			"-0.022": 0.0,
			"-0.021": 0.0,
			"-0.02": 0.0,
			"-0.019": 0.0,
			"-0.018": 0.0,
			"-0.017": 0.0,
			"-0.016": 0.0,
			"-0.015": 0.0,
			"-0.014": 0.0,
			"-0.013": 0.0,
			"-0.012": 0.0,
			"-0.011": 0.0,
			"-0.01": 0.0284874136744,
			"-0.009": 1.3210180835,
			"-0.008": 5.29288769389,
			"-0.007": 12.7635714804,
			"-0.006": 12.6913326338,
			"-0.005": 14.5629917591,
			"-0.004": 14.654472444,
			"-0.003": 15.5090800215,
			"-0.002": 13.8951748472,
			"-0.001": 15.9666918233,
			"0.0": 22.9258086081,
			"0.001": 29.8616825142,
			"0.002": 27.6261652788,
			"0.003": 16.516515205,
			"0.004": 14.7907073701,
			"0.005": 5.272146859,
			"0.006": 4.86511855394,
			"0.007": 4.26684426178,
			"0.008": 4.9640116608,
			"0.009": 8.1960522651,
			"0.01": 4.78726963474,
			"0.011": 0.144245518958,
			"0.012": 0.0,
			"0.013": 0.0,
			"0.014": 0.0,
			"0.015": 0.0,
			"0.016": 0.0,
			"0.017": 0.0,
			"0.018": 0.0,
			"0.019": 0.0,
			"0.02": 0.0,
			"0.021": 0.0,
			"0.022": 0.0,
			"0.023": 0.0,
			"0.024": 0.0,
			"0.025": 0.0
		}
	}
}
