{
	 "smiles": "CC1=CC=CN=C1N", 
	 "Tm": 305.35, 
	 "num_atms": 16, 
	 "gaussian": { 
		 "optdone": 1, 
		 "sigma_profile": "yes", 
		 "theory": "DFT", 
		 "functional": "B3LYP", 
		 "basiset": "6-31G**", 
		 "properties": { 
			 "R2extent": 1117.0865, 
			 "electric_dipole_moment_norm": 2.13569803343, 
			 "electric_quadrupole_moment_norm": 7.38622554692, 
			 "total_energy": -342.974997589, 
			 "HOMO_LUMO_gap": 0.20124, 
			 "cosmo_polarized_energy": -8.83, 
			 "cosmo_cavitation_energy": 19.2, 
			 "cosmo_dispersion_energy": -14.57, 
			 "cosmo_repulsion_energy": 1.21, 
			 "cosmo_total_nonelectrostatic_energy": 5.84, 
			 "SMD_solvation_energy": 2.02 
		},
		"coords": [
			{
				"x": 1.1819387631,
				"y": -0.3296998096,
				"z": 0.6050035768,
				"element": "C" 
			},
			{
				"x": -0.2186216001,
				"y": -0.3846455267,
				"z": 0.0532144823,
				"element": "C" 
			},
			{
				"x": -0.5973803971,
				"y": -1.2832542739,
				"z": -0.9377757546,
				"element": "C" 
			},
			{
				"x": -1.9046339058,
				"y": -1.2849288787,
				"z": -1.4359027745,
				"element": "C" 
			},
			{
				"x": -2.7980095473,
				"y": -0.3630111104,
				"z": -0.9021654471,
				"element": "C" 
			},
			{
				"x": -2.4772077636,
				"y": 0.5113516499,
				"z": 0.059681669,
				"element": "N" 
			},
			{
				"x": -1.2202710457,
				"y": 0.5040653573,
				"z": 0.5228815605,
				"element": "C" 
			},
			{
				"x": -0.9197852568,
				"y": 1.4679906739,
				"z": 1.474401358,
				"element": "N" 
			},
			{
				"x": 1.837325675,
				"y": -1.0338669545,
				"z": 0.0856099745,
				"element": "H" 
			},
			{
				"x": 1.2142548599,
				"y": -0.5842942572,
				"z": 1.6740685971,
				"element": "H" 
			},
			{
				"x": 1.6124676972,
				"y": 0.6740201367,
				"z": 0.501774119,
				"element": "H" 
			},
			{
				"x": 0.1383051573,
				"y": -1.983567839,
				"z": -1.3270611404,
				"element": "H" 
			},
			{
				"x": -2.2146107219,
				"y": -1.9779948869,
				"z": -2.2105774948,
				"element": "H" 
			},
			{
				"x": -3.8275087073,
				"y": -0.3209143538,
				"z": -1.2546614799,
				"element": "H" 
			},
			{
				"x": -0.2055316919,
				"y": 1.2414885651,
				"z": 2.1507094216,
				"element": "H" 
			},
			{
				"x": -1.7440315149,
				"y": 1.9000615078,
				"z": 1.8696993324,
				"element": "H" 
			}
		],
		 "valence_orbital": [ 
			{
				"type": "occ",
				"energy": -0.35553,
				"method": "rhf"
			},
			{
				"type": "occ",
				"energy": -0.31052,
				"method": "rhf"
			},
			{
				"type": "occ",
				"energy": -0.26475,
				"method": "rhf"
			},
			{
				"type": "occ",
				"energy": -0.2481,
				"method": "rhf"
			},
			{
				"type": "occ",
				"energy": -0.20721,
				"method": "rhf"
			},
			{
				"type": "unocc",
				"energy": -0.00597,
				"method": "rhf"
			},
			{
				"type": "unocc",
				"energy": 0.01529,
				"method": "rhf"
			},
			{
				"type": "unocc",
				"energy": 0.07933,
				"method": "rhf"
			},
			{
				"type": "unocc",
				"energy": 0.10929,
				"method": "rhf"
			},
			{
				"type": "unocc",
				"energy": 0.12786,
				"method": "rhf"
			}
		],
		"cosmo_sigma_profile": { 
			"-0.025": 0.0,
			"-0.024": 0.0,
			"-0.023": 0.0,
			"-0.022": 0.0,
			"-0.021": 0.0,
			"-0.02": 0.0,
			"-0.019": 0.0,
			"-0.018": 0.0,
			"-0.017": 0.0,
			"-0.016": 0.0,
			"-0.015": 0.0,
			"-0.014": 0.0715964796914,
			"-0.013": 0.315279726204,
			"-0.012": 1.62509274797,
			"-0.011": 2.66666943759,
			"-0.01": 2.71382442039,
			"-0.009": 2.42747965603,
			"-0.008": 2.28954078271,
			"-0.007": 2.5404340371,
			"-0.006": 4.40197988468,
			"-0.005": 10.2117043081,
			"-0.004": 11.8635221701,
			"-0.003": 12.1051713743,
			"-0.002": 10.9735606649,
			"-0.001": 10.2256010251,
			"0.0": 10.9369332038,
			"0.001": 10.2088883292,
			"0.002": 7.26663584094,
			"0.003": 8.41427198713,
			"0.004": 11.4961993002,
			"0.005": 9.41065311664,
			"0.006": 3.84614038186,
			"0.007": 2.01993132409,
			"0.008": 2.53521355445,
			"0.009": 2.7023606053,
			"0.01": 1.2357213001,
			"0.011": 2.03593513809,
			"0.012": 1.74756103493,
			"0.013": 0.946311571655,
			"0.014": 1.29144699449,
			"0.015": 0.778812061853,
			"0.016": 0.518369259404,
			"0.017": 0.143602156997,
			"0.018": 0.0,
			"0.019": 0.0,
			"0.02": 0.0,
			"0.021": 0.0,
			"0.022": 0.0,
			"0.023": 0.0,
			"0.024": 0.0,
			"0.025": 0.0
		}
	}
}
