{
	 "smiles": "NC1=NC(=CS1)C1=CC2=C(OCO2)C=C1", 
	 "Tm": 451.15, 
	 "num_atms": 23, 
	 "gaussian": { 
		 "optdone": 1, 
		 "sigma_profile": "yes", 
		 "theory": "DFT", 
		 "functional": "B3LYP", 
		 "basiset": "6-31G**", 
		 "properties": { 
			 "R2extent": 5122.2025, 
			 "electric_dipole_moment_norm": 1.45788095879, 
			 "electric_quadrupole_moment_norm": 15.8444542572, 
			 "total_energy": -1043.99556376, 
			 "HOMO_LUMO_gap": 0.1647, 
			 "cosmo_polarized_energy": -13.43, 
			 "cosmo_cavitation_energy": 29.11, 
			 "cosmo_dispersion_energy": -22.85, 
			 "cosmo_repulsion_energy": 1.73, 
			 "cosmo_total_nonelectrostatic_energy": 7.99, 
			 "SMD_solvation_energy": 4.2 
		},
		"coords": [
			{
				"x": 0.5830377547,
				"y": 3.6092979295,
				"z": 1.2907084219,
				"element": "N" 
			},
			{
				"x": 1.0464674296,
				"y": 2.7397648471,
				"z": 0.3280883422,
				"element": "C" 
			},
			{
				"x": 0.4564992826,
				"y": 1.6287267476,
				"z": 0.0072959528,
				"element": "N" 
			},
			{
				"x": 1.1898784913,
				"y": 0.9136282366,
				"z": -0.9324995884,
				"element": "C" 
			},
			{
				"x": 2.352998926,
				"y": 1.514397408,
				"z": -1.3335368911,
				"element": "C" 
			},
			{
				"x": 2.5838741449,
				"y": 3.0291573793,
				"z": -0.4981333851,
				"element": "S" 
			},
			{
				"x": 0.6551306848,
				"y": -0.3767798351,
				"z": -1.4093289952,
				"element": "C" 
			},
			{
				"x": -0.6283167065,
				"y": -0.7833132375,
				"z": -0.9704695661,
				"element": "C" 
			},
			{
				"x": -1.1037301039,
				"y": -1.9906711208,
				"z": -1.4327283571,
				"element": "C" 
			},
			{
				"x": -0.3712925049,
				"y": -2.7978484498,
				"z": -2.2989808657,
				"element": "C" 
			},
			{
				"x": -1.0937215758,
				"y": -3.9245250833,
				"z": -2.6106406992,
				"element": "O" 
			},
			{
				"x": -2.258598021,
				"y": -3.8769371168,
				"z": -1.7767661544,
				"element": "C" 
			},
			{
				"x": -2.3188911544,
				"y": -2.5831648961,
				"z": -1.1698149715,
				"element": "O" 
			},
			{
				"x": 0.8839214349,
				"y": -2.4269426795,
				"z": -2.7422947598,
				"element": "C" 
			},
			{
				"x": 1.3861071831,
				"y": -1.2012980017,
				"z": -2.2791218401,
				"element": "C" 
			},
			{
				"x": 0.7934289193,
				"y": 4.5883138519,
				"z": 1.1581387364,
				"element": "H" 
			},
			{
				"x": -0.3789993613,
				"y": 3.4301474853,
				"z": 1.5481151338,
				"element": "H" 
			},
			{
				"x": 3.074870812,
				"y": 1.1875700332,
				"z": -2.066076142,
				"element": "H" 
			},
			{
				"x": -1.199118746,
				"y": -0.1568326318,
				"z": -0.2976736615,
				"element": "H" 
			},
			{
				"x": -3.1513179173,
				"y": -4.035332837,
				"z": -2.3901654325,
				"element": "H" 
			},
			{
				"x": -2.1808014792,
				"y": -4.6478589904,
				"z": -0.9961239547,
				"element": "H" 
			},
			{
				"x": 1.4545427747,
				"y": -3.0577470856,
				"z": -3.4143981268,
				"element": "H" 
			},
			{
				"x": 2.3762297322,
				"y": -0.897751953,
				"z": -2.6020931957,
				"element": "H" 
			}
		],
		 "valence_orbital": [ 
			{
				"type": "occ",
				"energy": -0.27523,
				"method": "rhf"
			},
			{
				"type": "occ",
				"energy": -0.27198,
				"method": "rhf"
			},
			{
				"type": "occ",
				"energy": -0.24131,
				"method": "rhf"
			},
			{
				"type": "occ",
				"energy": -0.22061,
				"method": "rhf"
			},
			{
				"type": "occ",
				"energy": -0.1876,
				"method": "rhf"
			},
			{
				"type": "unocc",
				"energy": -0.0229,
				"method": "rhf"
			},
			{
				"type": "unocc",
				"energy": 0.00388,
				"method": "rhf"
			},
			{
				"type": "unocc",
				"energy": 0.01182,
				"method": "rhf"
			},
			{
				"type": "unocc",
				"energy": 0.02375,
				"method": "rhf"
			},
			{
				"type": "unocc",
				"energy": 0.07074,
				"method": "rhf"
			}
		],
		"cosmo_sigma_profile": { 
			"-0.025": 0.0,
			"-0.024": 0.0,
			"-0.023": 0.0,
			"-0.022": 0.0,
			"-0.021": 0.0,
			"-0.02": 0.0,
			"-0.019": 0.0,
			"-0.018": 0.0,
			"-0.017": 0.0,
			"-0.016": 0.0,
			"-0.015": 0.395863746086,
			"-0.014": 1.86244224606,
			"-0.013": 2.30756755007,
			"-0.012": 2.30131928733,
			"-0.011": 3.31843521145,
			"-0.01": 2.870791523,
			"-0.009": 2.85429799247,
			"-0.008": 6.23664110143,
			"-0.007": 11.5926615598,
			"-0.006": 13.306462826,
			"-0.005": 11.3704527338,
			"-0.004": 9.74485034705,
			"-0.003": 9.60785213465,
			"-0.002": 9.85159269396,
			"-0.001": 9.85478317483,
			"0.0": 10.032603264,
			"0.001": 13.6757582475,
			"0.002": 21.3515776097,
			"0.003": 21.1040730066,
			"0.004": 28.4975035867,
			"0.005": 16.020152095,
			"0.006": 5.69506654068,
			"0.007": 4.92332927896,
			"0.008": 5.38956567712,
			"0.009": 6.19932337706,
			"0.01": 3.61381274399,
			"0.011": 1.39606792127,
			"0.012": 0.636859725428,
			"0.013": 0.0,
			"0.014": 0.0,
			"0.015": 0.0,
			"0.016": 0.0,
			"0.017": 0.0,
			"0.018": 0.0,
			"0.019": 0.0,
			"0.02": 0.0,
			"0.021": 0.0,
			"0.022": 0.0,
			"0.023": 0.0,
			"0.024": 0.0,
			"0.025": 0.0
		}
	}
}
