{
	 "smiles": "CC(C)(C)OC(=O)NCC(N)=S", 
	 "Tm": 403.15, 
	 "num_atms": 26, 
	 "gaussian": { 
		 "optdone": 1, 
		 "sigma_profile": "yes", 
		 "theory": "DFT", 
		 "functional": "B3LYP", 
		 "basiset": "6-31G**", 
		 "properties": { 
			 "R2extent": 4581.0785, 
			 "electric_dipole_moment_norm": 6.02405692619, 
			 "electric_quadrupole_moment_norm": 29.2781190817, 
			 "total_energy": -933.368706946, 
			 "HOMO_LUMO_gap": 0.17906, 
			 "cosmo_polarized_energy": -19.11, 
			 "cosmo_cavitation_energy": 30.77, 
			 "cosmo_dispersion_energy": -22.22, 
			 "cosmo_repulsion_energy": 1.78, 
			 "cosmo_total_nonelectrostatic_energy": 10.33, 
			 "SMD_solvation_energy": 5.57 
		},
		"coords": [
			{
				"x": -1.0481488671,
				"y": 1.2619997882,
				"z": -2.1991808196,
				"element": "C" 
			},
			{
				"x": -0.4629798757,
				"y": 0.0091576839,
				"z": -1.5433958501,
				"element": "C" 
			},
			{
				"x": -1.3772365892,
				"y": -1.2002543791,
				"z": -1.7622629885,
				"element": "C" 
			},
			{
				"x": 0.9670292349,
				"y": -0.2455969723,
				"z": -2.0298966733,
				"element": "C" 
			},
			{
				"x": -0.4490730089,
				"y": 0.3756207651,
				"z": -0.1132481466,
				"element": "O" 
			},
			{
				"x": 0.0103401257,
				"y": -0.4851825579,
				"z": 0.8198635831,
				"element": "C" 
			},
			{
				"x": 0.4433381238,
				"y": -1.6079187563,
				"z": 0.6320520911,
				"element": "O" 
			},
			{
				"x": -0.0546464591,
				"y": 0.1224986056,
				"z": 2.0605375754,
				"element": "N" 
			},
			{
				"x": 0.1050393631,
				"y": -0.6561698203,
				"z": 3.2788301351,
				"element": "C" 
			},
			{
				"x": 1.2111437499,
				"y": -0.161512434,
				"z": 4.2098508178,
				"element": "C" 
			},
			{
				"x": 2.1186341287,
				"y": 0.6322498002,
				"z": 3.6266744319,
				"element": "N" 
			},
			{
				"x": 1.2674331267,
				"y": -0.6364818083,
				"z": 5.8020170328,
				"element": "S" 
			},
			{
				"x": -1.1150801804,
				"y": 1.1210819708,
				"z": -3.2818588875,
				"element": "H" 
			},
			{
				"x": -0.4169737279,
				"y": 2.1334191983,
				"z": -2.002027313,
				"element": "H" 
			},
			{
				"x": -2.0512323565,
				"y": 1.4676979665,
				"z": -1.8144590233,
				"element": "H" 
			},
			{
				"x": -1.4739554096,
				"y": -1.3960468147,
				"z": -2.8349464974,
				"element": "H" 
			},
			{
				"x": -2.3764858873,
				"y": -0.9992225975,
				"z": -1.3632687472,
				"element": "H" 
			},
			{
				"x": -0.9742793274,
				"y": -2.0899899161,
				"z": -1.2778691122,
				"element": "H" 
			},
			{
				"x": 1.6010604556,
				"y": 0.6218348075,
				"z": -1.8200180504,
				"element": "H" 
			},
			{
				"x": 0.9620187054,
				"y": -0.4062857794,
				"z": -3.1126893456,
				"element": "H" 
			},
			{
				"x": 1.3951744727,
				"y": -1.1243814513,
				"z": -1.5469424448,
				"element": "H" 
			},
			{
				"x": -0.6093351863,
				"y": 0.9666695988,
				"z": 2.1000997502,
				"element": "H" 
			},
			{
				"x": 0.3565108287,
				"y": -1.6769766346,
				"z": 2.975285193,
				"element": "H" 
			},
			{
				"x": -0.8239942576,
				"y": -0.7011509566,
				"z": 3.8531152856,
				"element": "H" 
			},
			{
				"x": 2.0194862745,
				"y": 0.879519808,
				"z": 2.6509513604,
				"element": "H" 
			},
			{
				"x": 2.907212543,
				"y": 0.9624208855,
				"z": 4.1625866429,
				"element": "H" 
			}
		],
		 "valence_orbital": [ 
			{
				"type": "occ",
				"energy": -0.30248,
				"method": "rhf"
			},
			{
				"type": "occ",
				"energy": -0.28257,
				"method": "rhf"
			},
			{
				"type": "occ",
				"energy": -0.27791,
				"method": "rhf"
			},
			{
				"type": "occ",
				"energy": -0.22902,
				"method": "rhf"
			},
			{
				"type": "occ",
				"energy": -0.20646,
				"method": "rhf"
			},
			{
				"type": "unocc",
				"energy": -0.0274,
				"method": "rhf"
			},
			{
				"type": "unocc",
				"energy": 0.03562,
				"method": "rhf"
			},
			{
				"type": "unocc",
				"energy": 0.06353,
				"method": "rhf"
			},
			{
				"type": "unocc",
				"energy": 0.08174,
				"method": "rhf"
			},
			{
				"type": "unocc",
				"energy": 0.09111,
				"method": "rhf"
			}
		],
		"cosmo_sigma_profile": { 
			"-0.025": 0.0,
			"-0.024": 0.0,
			"-0.023": 0.0,
			"-0.022": 0.0,
			"-0.021": 0.0,
			"-0.02": 0.0,
			"-0.019": 0.0,
			"-0.018": 0.0,
			"-0.017": 0.0,
			"-0.016": 0.0538311835792,
			"-0.015": 1.5524637884,
			"-0.014": 2.92412048564,
			"-0.013": 3.57869348943,
			"-0.012": 2.8205232044,
			"-0.011": 3.24373723293,
			"-0.01": 2.78530620826,
			"-0.009": 2.88510553955,
			"-0.008": 3.02150467494,
			"-0.007": 5.29153134319,
			"-0.006": 5.53006499853,
			"-0.005": 7.30447188164,
			"-0.004": 16.8859197164,
			"-0.003": 21.2052017314,
			"-0.002": 20.2526766966,
			"-0.001": 21.4280829281,
			"0.0": 28.3726248652,
			"0.001": 17.8408906056,
			"0.002": 7.25365717559,
			"0.003": 6.76607602058,
			"0.004": 6.41095526397,
			"0.005": 7.57948375618,
			"0.006": 5.99658024574,
			"0.007": 6.68696791499,
			"0.008": 6.93069488654,
			"0.009": 7.62043234873,
			"0.01": 6.99448767322,
			"0.011": 6.12032418662,
			"0.012": 5.31784300743,
			"0.013": 2.58935981257,
			"0.014": 0.0,
			"0.015": 0.0,
			"0.016": 0.0,
			"0.017": 0.0,
			"0.018": 0.0,
			"0.019": 0.0,
			"0.02": 0.0,
			"0.021": 0.0,
			"0.022": 0.0,
			"0.023": 0.0,
			"0.024": 0.0,
			"0.025": 0.0
		}
	}
}
