{
	 "smiles": "CC(C)(C)C1=CC2=C(C=C(N2)C(O)=O)C=C1", 
	 "Tm": 431.15, 
	 "num_atms": 31, 
	 "gaussian": { 
		 "optdone": 1, 
		 "sigma_profile": "yes", 
		 "theory": "DFT", 
		 "functional": "B3LYP", 
		 "basiset": "6-31G**", 
		 "properties": { 
			 "R2extent": 5913.8125, 
			 "electric_dipole_moment_norm": 3.6925095098, 
			 "electric_quadrupole_moment_norm": 27.7156975083, 
			 "total_energy": -709.655039189, 
			 "HOMO_LUMO_gap": 0.16416, 
			 "cosmo_polarized_energy": -15.0, 
			 "cosmo_cavitation_energy": 33.52, 
			 "cosmo_dispersion_energy": -24.17, 
			 "cosmo_repulsion_energy": 1.86, 
			 "cosmo_total_nonelectrostatic_energy": 11.21, 
			 "SMD_solvation_energy": 6.59 
		},
		"coords": [
			{
				"x": 2.0990057403,
				"y": 1.2514794514,
				"z": -2.2327678545,
				"element": "C" 
			},
			{
				"x": 1.8803465869,
				"y": 1.0062671829,
				"z": -0.7204769155,
				"element": "C" 
			},
			{
				"x": 1.2502601871,
				"y": 2.2679001954,
				"z": -0.0831550521,
				"element": "C" 
			},
			{
				"x": 3.2591116871,
				"y": 0.7824100377,
				"z": -0.0700097581,
				"element": "C" 
			},
			{
				"x": 0.9328020064,
				"y": -0.1955018188,
				"z": -0.5266895534,
				"element": "C" 
			},
			{
				"x": -0.3558071325,
				"y": -0.1407401374,
				"z": -1.0597491445,
				"element": "C" 
			},
			{
				"x": -1.2113190725,
				"y": -1.2332743234,
				"z": -0.8815170688,
				"element": "C" 
			},
			{
				"x": -0.81396272,
				"y": -2.4047208811,
				"z": -0.1729438624,
				"element": "C" 
			},
			{
				"x": -1.9277910831,
				"y": -3.3002095666,
				"z": -0.1892093518,
				"element": "C" 
			},
			{
				"x": -2.9422247518,
				"y": -2.6702177817,
				"z": -0.8853813977,
				"element": "C" 
			},
			{
				"x": -2.5038708942,
				"y": -1.4268768911,
				"z": -1.2989635461,
				"element": "N" 
			},
			{
				"x": -4.3167193755,
				"y": -3.0539422843,
				"z": -1.2453478936,
				"element": "C" 
			},
			{
				"x": -4.7450083465,
				"y": -4.2742422304,
				"z": -0.8394124141,
				"element": "O" 
			},
			{
				"x": -5.0478825714,
				"y": -2.3208373945,
				"z": -1.878644095,
				"element": "O" 
			},
			{
				"x": 0.4863765916,
				"y": -2.4489112227,
				"z": 0.3597083449,
				"element": "C" 
			},
			{
				"x": 1.3291584226,
				"y": -1.3631954573,
				"z": 0.1796956497,
				"element": "C" 
			},
			{
				"x": 2.7694305212,
				"y": 2.1043812393,
				"z": -2.3880969535,
				"element": "H" 
			},
			{
				"x": 2.5482175946,
				"y": 0.3747631994,
				"z": -2.7107184543,
				"element": "H" 
			},
			{
				"x": 1.1600658138,
				"y": 1.4686382774,
				"z": -2.7506032402,
				"element": "H" 
			},
			{
				"x": 0.2858534599,
				"y": 2.5156468833,
				"z": -0.536417629,
				"element": "H" 
			},
			{
				"x": 1.9111311242,
				"y": 3.1322222795,
				"z": -0.214402965,
				"element": "H" 
			},
			{
				"x": 1.0872424757,
				"y": 2.1247213672,
				"z": 0.9900594436,
				"element": "H" 
			},
			{
				"x": 3.1813582414,
				"y": 0.6328397708,
				"z": 1.0118118042,
				"element": "H" 
			},
			{
				"x": 3.8895281702,
				"y": 1.6619552569,
				"z": -0.2358853452,
				"element": "H" 
			},
			{
				"x": 3.7787830601,
				"y": -0.0802807857,
				"z": -0.4995143658,
				"element": "H" 
			},
			{
				"x": -0.6995391155,
				"y": 0.7320235683,
				"z": -1.6064003319,
				"element": "H" 
			},
			{
				"x": -1.9591355226,
				"y": -4.2837041389,
				"z": 0.2621030537,
				"element": "H" 
			},
			{
				"x": -3.0954956539,
				"y": -0.8018317128,
				"z": -1.8263072842,
				"element": "H" 
			},
			{
				"x": -4.0465505546,
				"y": -4.7308388125,
				"z": -0.3498301049,
				"element": "H" 
			},
			{
				"x": 0.8297170673,
				"y": -3.3225794104,
				"z": 0.9066825558,
				"element": "H" 
			},
			{
				"x": 2.3267180438,
				"y": -1.4170438601,
				"z": 0.5977837297,
				"element": "H" 
			}
		],
		 "valence_orbital": [ 
			{
				"type": "occ",
				"energy": -0.31525,
				"method": "rhf"
			},
			{
				"type": "occ",
				"energy": -0.28798,
				"method": "rhf"
			},
			{
				"type": "occ",
				"energy": -0.27993,
				"method": "rhf"
			},
			{
				"type": "occ",
				"energy": -0.23129,
				"method": "rhf"
			},
			{
				"type": "occ",
				"energy": -0.21666,
				"method": "rhf"
			},
			{
				"type": "unocc",
				"energy": -0.0525,
				"method": "rhf"
			},
			{
				"type": "unocc",
				"energy": 0.01165,
				"method": "rhf"
			},
			{
				"type": "unocc",
				"energy": 0.02356,
				"method": "rhf"
			},
			{
				"type": "unocc",
				"energy": 0.05307,
				"method": "rhf"
			},
			{
				"type": "unocc",
				"energy": 0.07843,
				"method": "rhf"
			}
		],
		"cosmo_sigma_profile": { 
			"-0.025": 0.0,
			"-0.024": 0.0,
			"-0.023": 0.0,
			"-0.022": 0.0,
			"-0.021": 0.0,
			"-0.02": 0.0,
			"-0.019": 0.104424498517,
			"-0.018": 1.06871215696,
			"-0.017": 0.992168159892,
			"-0.016": 1.16920828708,
			"-0.015": 1.58502669149,
			"-0.014": 1.63264432989,
			"-0.013": 1.6397354767,
			"-0.012": 2.16092414871,
			"-0.011": 2.26187853908,
			"-0.01": 1.71292361283,
			"-0.009": 2.78793746566,
			"-0.008": 3.18015268438,
			"-0.007": 4.54877062103,
			"-0.006": 5.81736922853,
			"-0.005": 7.20533703733,
			"-0.004": 8.18944122037,
			"-0.003": 20.6617473148,
			"-0.002": 28.4340367663,
			"-0.001": 25.1065954324,
			"0.0": 23.1348963628,
			"0.001": 29.8905936045,
			"0.002": 17.9873259706,
			"0.003": 14.5329284794,
			"0.004": 13.0628930069,
			"0.005": 13.34780812,
			"0.006": 7.60509827541,
			"0.007": 2.98404821183,
			"0.008": 2.39323211339,
			"0.009": 3.78226988449,
			"0.01": 4.22806020067,
			"0.011": 4.83064885056,
			"0.012": 4.20458919438,
			"0.013": 1.85568011547,
			"0.014": 0.130397121524,
			"0.015": 0.0,
			"0.016": 0.0,
			"0.017": 0.0,
			"0.018": 0.0,
			"0.019": 0.0,
			"0.02": 0.0,
			"0.021": 0.0,
			"0.022": 0.0,
			"0.023": 0.0,
			"0.024": 0.0,
			"0.025": 0.0
		}
	}
}
