{
	 "smiles": "NC1=CC=CC=C1NC1=CC=CC=C1", 
	 "Tm": 352.35, 
	 "num_atms": 26, 
	 "gaussian": { 
		 "optdone": 1, 
		 "sigma_profile": "yes", 
		 "theory": "DFT", 
		 "functional": "B3LYP", 
		 "basiset": "6-31G**", 
		 "properties": { 
			 "R2extent": 3276.6775, 
			 "electric_dipole_moment_norm": 0.409309980333, 
			 "electric_quadrupole_moment_norm": 10.1459409056, 
			 "total_energy": -574.016175397, 
			 "HOMO_LUMO_gap": 0.18828, 
			 "cosmo_polarized_energy": -10.21, 
			 "cosmo_cavitation_energy": 29.15, 
			 "cosmo_dispersion_energy": -21.25, 
			 "cosmo_repulsion_energy": 1.67, 
			 "cosmo_total_nonelectrostatic_energy": 9.57, 
			 "SMD_solvation_energy": 4.68 
		},
		"coords": [
			{
				"x": -1.49114547,
				"y": 1.1949004611,
				"z": -1.4780256475,
				"element": "N" 
			},
			{
				"x": -1.641024053,
				"y": -0.1730380683,
				"z": -1.2862650953,
				"element": "C" 
			},
			{
				"x": -2.7238221794,
				"y": -0.8659683331,
				"z": -1.8558750173,
				"element": "C" 
			},
			{
				"x": -2.8264332401,
				"y": -2.2503672089,
				"z": -1.7527576154,
				"element": "C" 
			},
			{
				"x": -1.8549504304,
				"y": -2.9834207418,
				"z": -1.0678871301,
				"element": "C" 
			},
			{
				"x": -0.7929855908,
				"y": -2.3043744597,
				"z": -0.4716296912,
				"element": "C" 
			},
			{
				"x": -0.6719649844,
				"y": -0.9149047017,
				"z": -0.5671667328,
				"element": "C" 
			},
			{
				"x": 0.4510447953,
				"y": -0.2421073016,
				"z": -0.0063194397,
				"element": "N" 
			},
			{
				"x": 0.4102236293,
				"y": 0.5448183779,
				"z": 1.1506176091,
				"element": "C" 
			},
			{
				"x": 1.6134215696,
				"y": 1.0613931646,
				"z": 1.6705311324,
				"element": "C" 
			},
			{
				"x": 1.6058813127,
				"y": 1.8746221874,
				"z": 2.7988391601,
				"element": "C" 
			},
			{
				"x": 0.4045532721,
				"y": 2.2047587559,
				"z": 3.4337329649,
				"element": "C" 
			},
			{
				"x": -0.7886176414,
				"y": 1.6952746627,
				"z": 2.9215890993,
				"element": "C" 
			},
			{
				"x": -0.7965223286,
				"y": 0.8706914608,
				"z": 1.7956063793,
				"element": "C" 
			},
			{
				"x": -0.8813955866,
				"y": 1.6679398157,
				"z": -0.8273139795,
				"element": "H" 
			},
			{
				"x": -2.3417336044,
				"y": 1.7049084117,
				"z": -1.6671867753,
				"element": "H" 
			},
			{
				"x": -3.4727969051,
				"y": -0.3040215742,
				"z": -2.4089159214,
				"element": "H" 
			},
			{
				"x": -3.6692507055,
				"y": -2.7575033735,
				"z": -2.2139611558,
				"element": "H" 
			},
			{
				"x": -1.9293545748,
				"y": -4.0630531565,
				"z": -0.986280074,
				"element": "H" 
			},
			{
				"x": -0.0379332805,
				"y": -2.8496390919,
				"z": 0.0892778778,
				"element": "H" 
			},
			{
				"x": 1.3433599764,
				"y": -0.6819025961,
				"z": -0.1817868812,
				"element": "H" 
			},
			{
				"x": 2.5527052328,
				"y": 0.8198674753,
				"z": 1.1779192428,
				"element": "H" 
			},
			{
				"x": 2.5478677588,
				"y": 2.2562101731,
				"z": 3.1835273117,
				"element": "H" 
			},
			{
				"x": 0.4017167382,
				"y": 2.8429133826,
				"z": 4.3117059813,
				"element": "H" 
			},
			{
				"x": -1.7319937921,
				"y": 1.9302446035,
				"z": 3.4074841114,
				"element": "H" 
			},
			{
				"x": -1.7293499183,
				"y": 0.4556576751,
				"z": 1.4294402862,
				"element": "H" 
			}
		],
		 "valence_orbital": [ 
			{
				"type": "occ",
				"energy": -0.30309,
				"method": "rhf"
			},
			{
				"type": "occ",
				"energy": -0.24541,
				"method": "rhf"
			},
			{
				"type": "occ",
				"energy": -0.2437,
				"method": "rhf"
			},
			{
				"type": "occ",
				"energy": -0.20477,
				"method": "rhf"
			},
			{
				"type": "occ",
				"energy": -0.18969,
				"method": "rhf"
			},
			{
				"type": "unocc",
				"energy": -0.00141,
				"method": "rhf"
			},
			{
				"type": "unocc",
				"energy": 0.00383,
				"method": "rhf"
			},
			{
				"type": "unocc",
				"energy": 0.01894,
				"method": "rhf"
			},
			{
				"type": "unocc",
				"energy": 0.02504,
				"method": "rhf"
			},
			{
				"type": "unocc",
				"energy": 0.09007,
				"method": "rhf"
			}
		],
		"cosmo_sigma_profile": { 
			"-0.025": 0.0,
			"-0.024": 0.0,
			"-0.023": 0.0,
			"-0.022": 0.0,
			"-0.021": 0.0,
			"-0.02": 0.0,
			"-0.019": 0.0,
			"-0.018": 0.0,
			"-0.017": 0.0,
			"-0.016": 0.0,
			"-0.015": 0.0,
			"-0.014": 0.0162457729696,
			"-0.013": 1.02894185438,
			"-0.012": 2.51386487318,
			"-0.011": 2.42365929693,
			"-0.01": 2.56583873733,
			"-0.009": 4.10554488947,
			"-0.008": 3.31898519465,
			"-0.007": 4.44522133371,
			"-0.006": 6.81604039484,
			"-0.005": 15.5302938357,
			"-0.004": 17.3559768073,
			"-0.003": 20.8985861242,
			"-0.002": 16.3828652164,
			"-0.001": 14.6725760975,
			"0.0": 12.7272535759,
			"0.001": 12.7684235238,
			"0.002": 12.6753892511,
			"0.003": 13.6901805967,
			"0.004": 14.6557687639,
			"0.005": 15.911833539,
			"0.006": 17.2144854413,
			"0.007": 13.2906049881,
			"0.008": 2.61041493735,
			"0.009": 0.770362404438,
			"0.01": 1.15002532391,
			"0.011": 0.75298838192,
			"0.012": 0.770978032345,
			"0.013": 0.609454066742,
			"0.014": 0.513088275987,
			"0.015": 0.0268332530141,
			"0.016": 0.0,
			"0.017": 0.0,
			"0.018": 0.0,
			"0.019": 0.0,
			"0.02": 0.0,
			"0.021": 0.0,
			"0.022": 0.0,
			"0.023": 0.0,
			"0.024": 0.0,
			"0.025": 0.0
		}
	}
}
