{
	 "smiles": "CCCC(C)C", 
	 "Tm": 119.15, 
	 "num_atms": 20, 
	 "gaussian": { 
		 "optdone": 1, 
		 "sigma_profile": "yes", 
		 "theory": "DFT", 
		 "functional": "B3LYP", 
		 "basiset": "6-31G**", 
		 "properties": { 
			 "R2extent": 1308.1116, 
			 "electric_dipole_moment_norm": 0.0670553502712, 
			 "electric_quadrupole_moment_norm": 0.366284233895, 
			 "total_energy": -237.098636926, 
			 "HOMO_LUMO_gap": 0.3834, 
			 "cosmo_polarized_energy": -0.57, 
			 "cosmo_cavitation_energy": 20.79, 
			 "cosmo_dispersion_energy": -15.06, 
			 "cosmo_repulsion_energy": 1.3, 
			 "cosmo_total_nonelectrostatic_energy": 7.04, 
			 "SMD_solvation_energy": 3.63 
		},
		"coords": [
			{
				"x": 0.5444981383,
				"y": 1.0883151718,
				"z": -3.2969927855,
				"element": "C" 
			},
			{
				"x": -0.3096229392,
				"y": 2.096954518,
				"z": -2.5194242556,
				"element": "C" 
			},
			{
				"x": -0.1414615734,
				"y": 2.0292508321,
				"z": -0.9916470202,
				"element": "C" 
			},
			{
				"x": -0.5555339824,
				"y": 0.7086815951,
				"z": -0.309669622,
				"element": "C" 
			},
			{
				"x": -0.2164621616,
				"y": 0.756814882,
				"z": 1.1879564912,
				"element": "C" 
			},
			{
				"x": -2.042992238,
				"y": 0.3844836557,
				"z": -0.5152744969,
				"element": "C" 
			},
			{
				"x": 0.2601564882,
				"y": 0.0542204859,
				"z": -3.0759675097,
				"element": "H" 
			},
			{
				"x": 1.6072077518,
				"y": 1.197651693,
				"z": -3.0502077519,
				"element": "H" 
			},
			{
				"x": 0.4385455969,
				"y": 1.2325077547,
				"z": -4.3773503582,
				"element": "H" 
			},
			{
				"x": -1.3656358945,
				"y": 1.9645482562,
				"z": -2.7866473103,
				"element": "H" 
			},
			{
				"x": -0.046646296,
				"y": 3.1111930254,
				"z": -2.8464450954,
				"element": "H" 
			},
			{
				"x": -0.7176433932,
				"y": 2.8477700342,
				"z": -0.5359993578,
				"element": "H" 
			},
			{
				"x": 0.911737635,
				"y": 2.2300592429,
				"z": -0.7481961387,
				"element": "H" 
			},
			{
				"x": 0.0322181859,
				"y": -0.1069790171,
				"z": -0.7545439707,
				"element": "H" 
			},
			{
				"x": -0.4671882287,
				"y": -0.1870722608,
				"z": 1.6843866469,
				"element": "H" 
			},
			{
				"x": 0.8499301045,
				"y": 0.9484706048,
				"z": 1.350946497,
				"element": "H" 
			},
			{
				"x": -0.7772941797,
				"y": 1.5545867652,
				"z": 1.6907990358,
				"element": "H" 
			},
			{
				"x": -2.6759578656,
				"y": 1.1830111427,
				"z": -0.1079814793,
				"element": "H" 
			},
			{
				"x": -2.3155093481,
				"y": -0.5458931885,
				"z": -0.0050372747,
				"element": "H" 
			},
			{
				"x": -2.2979458003,
				"y": 0.2657248064,
				"z": -1.573004244,
				"element": "H" 
			}
		],
		 "valence_orbital": [ 
			{
				"type": "occ",
				"energy": -0.34215,
				"method": "rhf"
			},
			{
				"type": "occ",
				"energy": -0.33651,
				"method": "rhf"
			},
			{
				"type": "occ",
				"energy": -0.31312,
				"method": "rhf"
			},
			{
				"type": "occ",
				"energy": -0.30907,
				"method": "rhf"
			},
			{
				"type": "occ",
				"energy": -0.30189,
				"method": "rhf"
			},
			{
				"type": "unocc",
				"energy": 0.08151,
				"method": "rhf"
			},
			{
				"type": "unocc",
				"energy": 0.11765,
				"method": "rhf"
			},
			{
				"type": "unocc",
				"energy": 0.12382,
				"method": "rhf"
			},
			{
				"type": "unocc",
				"energy": 0.13237,
				"method": "rhf"
			},
			{
				"type": "unocc",
				"energy": 0.14995,
				"method": "rhf"
			}
		],
		"cosmo_sigma_profile": { 
			"-0.025": 0.0,
			"-0.024": 0.0,
			"-0.023": 0.0,
			"-0.022": 0.0,
			"-0.021": 0.0,
			"-0.02": 0.0,
			"-0.019": 0.0,
			"-0.018": 0.0,
			"-0.017": 0.0,
			"-0.016": 0.0,
			"-0.015": 0.0,
			"-0.014": 0.0,
			"-0.013": 0.0,
			"-0.012": 0.0,
			"-0.011": 0.0,
			"-0.01": 0.0,
			"-0.009": 0.0,
			"-0.008": 0.0,
			"-0.007": 0.0,
			"-0.006": 0.0,
			"-0.005": 0.0,
			"-0.004": 0.0,
			"-0.003": 2.93935280488,
			"-0.002": 22.9209708255,
			"-0.001": 33.8611848549,
			"0.0": 36.8316223482,
			"0.001": 37.6623498486,
			"0.002": 23.3784285687,
			"0.003": 1.6085706962,
			"0.004": 0.0,
			"0.005": 0.0,
			"0.006": 0.0,
			"0.007": 0.0,
			"0.008": 0.0,
			"0.009": 0.0,
			"0.01": 0.0,
			"0.011": 0.0,
			"0.012": 0.0,
			"0.013": 0.0,
			"0.014": 0.0,
			"0.015": 0.0,
			"0.016": 0.0,
			"0.017": 0.0,
			"0.018": 0.0,
			"0.019": 0.0,
			"0.02": 0.0,
			"0.021": 0.0,
			"0.022": 0.0,
			"0.023": 0.0,
			"0.024": 0.0,
			"0.025": 0.0
		}
	}
}
