{
	 "smiles": "ClCN1C(=O)C2=C(C=CC=C2)S1(=O)=O", 
	 "Tm": 419.15, 
	 "num_atms": 20, 
	 "gaussian": { 
		 "optdone": 1, 
		 "sigma_profile": "yes", 
		 "theory": "DFT", 
		 "functional": "B3LYP", 
		 "basiset": "6-31G**", 
		 "properties": { 
			 "R2extent": 3221.6278, 
			 "electric_dipole_moment_norm": 5.6310362652, 
			 "electric_quadrupole_moment_norm": 17.5063201776, 
			 "total_energy": -1447.20197604, 
			 "HOMO_LUMO_gap": 0.20357, 
			 "cosmo_polarized_energy": -15.98, 
			 "cosmo_cavitation_energy": 28.19, 
			 "cosmo_dispersion_energy": -20.76, 
			 "cosmo_repulsion_energy": 1.57, 
			 "cosmo_total_nonelectrostatic_energy": 9.0, 
			 "SMD_solvation_energy": 4.2 
		},
		"coords": [
			{
				"x": 2.1752050845,
				"y": -2.1766103326,
				"z": -1.4499870033,
				"element": "Cl" 
			},
			{
				"x": 2.3415706879,
				"y": -0.7354379451,
				"z": -0.3439559616,
				"element": "C" 
			},
			{
				"x": 1.0953819249,
				"y": -0.2172208921,
				"z": 0.1199612429,
				"element": "N" 
			},
			{
				"x": 0.5354078351,
				"y": -0.574811345,
				"z": 1.3541953343,
				"element": "C" 
			},
			{
				"x": 1.0347991216,
				"y": -1.3719706902,
				"z": 2.1219306788,
				"element": "O" 
			},
			{
				"x": -0.7154658357,
				"y": 0.2044682366,
				"z": 1.559576176,
				"element": "C" 
			},
			{
				"x": -1.0154239149,
				"y": 1.0853436631,
				"z": 0.5220210526,
				"element": "C" 
			},
			{
				"x": -2.1366678321,
				"y": 1.9036455186,
				"z": 0.5379918528,
				"element": "C" 
			},
			{
				"x": -2.9729892952,
				"y": 1.8185291698,
				"z": 1.6563234356,
				"element": "C" 
			},
			{
				"x": -2.6845300119,
				"y": 0.9398561961,
				"z": 2.7082628427,
				"element": "C" 
			},
			{
				"x": -1.5517061275,
				"y": 0.1240943619,
				"z": 2.670127928,
				"element": "C" 
			},
			{
				"x": 0.1994292735,
				"y": 0.9721285417,
				"z": -0.7818140907,
				"element": "S" 
			},
			{
				"x": 1.0258082879,
				"y": 2.1737872325,
				"z": -0.8869523377,
				"element": "O" 
			},
			{
				"x": -0.3749925756,
				"y": 0.3801557702,
				"z": -1.9851756313,
				"element": "O" 
			},
			{
				"x": 2.9062163548,
				"y": -1.0747928907,
				"z": 0.5229683811,
				"element": "H" 
			},
			{
				"x": 2.8832884186,
				"y": 0.0282943445,
				"z": -0.9008163368,
				"element": "H" 
			},
			{
				"x": -2.3569876296,
				"y": 2.5808906113,
				"z": -0.2800998641,
				"element": "H" 
			},
			{
				"x": -3.858954267,
				"y": 2.4436875572,
				"z": 1.7062109834,
				"element": "H" 
			},
			{
				"x": -3.3514669911,
				"y": 0.8935528718,
				"z": 3.5633513877,
				"element": "H" 
			},
			{
				"x": -1.3103225082,
				"y": -0.5624899796,
				"z": 3.4745799297,
				"element": "H" 
			}
		],
		 "valence_orbital": [ 
			{
				"type": "occ",
				"energy": -0.30143,
				"method": "rhf"
			},
			{
				"type": "occ",
				"energy": -0.30007,
				"method": "rhf"
			},
			{
				"type": "occ",
				"energy": -0.29693,
				"method": "rhf"
			},
			{
				"type": "occ",
				"energy": -0.29568,
				"method": "rhf"
			},
			{
				"type": "occ",
				"energy": -0.29031,
				"method": "rhf"
			},
			{
				"type": "unocc",
				"energy": -0.08674,
				"method": "rhf"
			},
			{
				"type": "unocc",
				"energy": -0.05941,
				"method": "rhf"
			},
			{
				"type": "unocc",
				"energy": 0.00417,
				"method": "rhf"
			},
			{
				"type": "unocc",
				"energy": 0.02221,
				"method": "rhf"
			},
			{
				"type": "unocc",
				"energy": 0.02247,
				"method": "rhf"
			}
		],
		"cosmo_sigma_profile": { 
			"-0.025": 0.0,
			"-0.024": 0.0,
			"-0.023": 0.0,
			"-0.022": 0.0,
			"-0.021": 0.0,
			"-0.02": 0.0,
			"-0.019": 0.0,
			"-0.018": 0.0,
			"-0.017": 0.0,
			"-0.016": 0.0,
			"-0.015": 0.0,
			"-0.014": 0.0,
			"-0.013": 0.0,
			"-0.012": 0.0,
			"-0.011": 0.613983807247,
			"-0.01": 4.10833859667,
			"-0.009": 6.55457472607,
			"-0.008": 12.5944245779,
			"-0.007": 16.2275617757,
			"-0.006": 11.8680263359,
			"-0.005": 10.5731696396,
			"-0.004": 9.67576018314,
			"-0.003": 9.87259707128,
			"-0.002": 12.6746495476,
			"-0.001": 15.5327627079,
			"0.0": 18.9345338322,
			"0.001": 15.8816792962,
			"0.002": 6.80730465663,
			"0.003": 7.73451881936,
			"0.004": 7.65976523077,
			"0.005": 12.9006615268,
			"0.006": 9.92479625428,
			"0.007": 5.46414617296,
			"0.008": 8.56904407948,
			"0.009": 15.6977340304,
			"0.01": 7.78706623841,
			"0.011": 1.86265534064,
			"0.012": 0.0,
			"0.013": 0.0,
			"0.014": 0.0,
			"0.015": 0.0,
			"0.016": 0.0,
			"0.017": 0.0,
			"0.018": 0.0,
			"0.019": 0.0,
			"0.02": 0.0,
			"0.021": 0.0,
			"0.022": 0.0,
			"0.023": 0.0,
			"0.024": 0.0,
			"0.025": 0.0
		}
	}
}
