{
	 "smiles": "CC1=CC(OC(F)F)=C(S1)C(O)=O", 
	 "Tm": 429.15, 
	 "num_atms": 19, 
	 "gaussian": { 
		 "optdone": 1, 
		 "sigma_profile": "yes", 
		 "theory": "DFT", 
		 "functional": "B3LYP", 
		 "basiset": "6-31G**", 
		 "properties": { 
			 "R2extent": 5463.6172, 
			 "electric_dipole_moment_norm": 5.15760914863, 
			 "electric_quadrupole_moment_norm": 27.3714340463, 
			 "total_energy": -1093.88333469, 
			 "HOMO_LUMO_gap": 0.18493, 
			 "cosmo_polarized_energy": -15.89, 
			 "cosmo_cavitation_energy": 26.21, 
			 "cosmo_dispersion_energy": -19.53, 
			 "cosmo_repulsion_energy": 1.49, 
			 "cosmo_total_nonelectrostatic_energy": 8.17, 
			 "SMD_solvation_energy": 6.92 
		},
		"coords": [
			{
				"x": 1.0238946712,
				"y": -0.0006976453,
				"z": 1.319328231,
				"element": "C" 
			},
			{
				"x": -0.3532608148,
				"y": -0.5719803612,
				"z": 1.16835123,
				"element": "C" 
			},
			{
				"x": -1.1584133906,
				"y": -0.5418773531,
				"z": 0.0621710668,
				"element": "C" 
			},
			{
				"x": -2.4164163874,
				"y": -1.1865256032,
				"z": 0.2676690457,
				"element": "C" 
			},
			{
				"x": -3.4200270722,
				"y": -1.311252538,
				"z": -0.6576091495,
				"element": "O" 
			},
			{
				"x": -3.2708774956,
				"y": -0.7933514249,
				"z": -1.9175070235,
				"element": "C" 
			},
			{
				"x": -3.0597742493,
				"y": 0.5499718915,
				"z": -1.8852040141,
				"element": "F" 
			},
			{
				"x": -2.2030859541,
				"y": -1.3384289949,
				"z": -2.5600081321,
				"element": "F" 
			},
			{
				"x": -2.5781793311,
				"y": -1.713456836,
				"z": 1.5354948325,
				"element": "C" 
			},
			{
				"x": -1.1354402907,
				"y": -1.3980196743,
				"z": 2.4852172102,
				"element": "S" 
			},
			{
				"x": -3.7583820988,
				"y": -2.4348417088,
				"z": 2.0534676704,
				"element": "C" 
			},
			{
				"x": -3.7011447847,
				"y": -2.8718615567,
				"z": 3.3454684388,
				"element": "O" 
			},
			{
				"x": -4.7504725473,
				"y": -2.6503956285,
				"z": 1.3981839531,
				"element": "O" 
			},
			{
				"x": 1.3312235578,
				"y": 0.4733567782,
				"z": 0.3838687517,
				"element": "H" 
			},
			{
				"x": 1.0634904314,
				"y": 0.7550414581,
				"z": 2.1112484915,
				"element": "H" 
			},
			{
				"x": 1.7584352804,
				"y": -0.7756083713,
				"z": 1.5638873175,
				"element": "H" 
			},
			{
				"x": -0.8633438581,
				"y": -0.0756307943,
				"z": -0.8668710952,
				"element": "H" 
			},
			{
				"x": -4.1872281677,
				"y": -1.0123004311,
				"z": -2.4680919893,
				"element": "H" 
			},
			{
				"x": -2.8642974985,
				"y": -2.6464412064,
				"z": 3.7755351643,
				"element": "H" 
			}
		],
		 "valence_orbital": [ 
			{
				"type": "occ",
				"energy": -0.35896,
				"method": "rhf"
			},
			{
				"type": "occ",
				"energy": -0.31105,
				"method": "rhf"
			},
			{
				"type": "occ",
				"energy": -0.26837,
				"method": "rhf"
			},
			{
				"type": "occ",
				"energy": -0.26813,
				"method": "rhf"
			},
			{
				"type": "occ",
				"energy": -0.24303,
				"method": "rhf"
			},
			{
				"type": "unocc",
				"energy": -0.0581,
				"method": "rhf"
			},
			{
				"type": "unocc",
				"energy": -0.01204,
				"method": "rhf"
			},
			{
				"type": "unocc",
				"energy": 0.02455,
				"method": "rhf"
			},
			{
				"type": "unocc",
				"energy": 0.04961,
				"method": "rhf"
			},
			{
				"type": "unocc",
				"energy": 0.09455,
				"method": "rhf"
			}
		],
		"cosmo_sigma_profile": { 
			"-0.025": 0.0,
			"-0.024": 0.0,
			"-0.023": 0.0,
			"-0.022": 0.0,
			"-0.021": 0.0,
			"-0.02": 0.0,
			"-0.019": 0.0,
			"-0.018": 0.43036570476,
			"-0.017": 0.382162286241,
			"-0.016": 0.773417126659,
			"-0.015": 1.19450628867,
			"-0.014": 0.544137122968,
			"-0.013": 0.804132601513,
			"-0.012": 2.03029020337,
			"-0.011": 4.20341984024,
			"-0.01": 2.98320019689,
			"-0.009": 2.00828640874,
			"-0.008": 3.11538933937,
			"-0.007": 4.50251787108,
			"-0.006": 9.6366206743,
			"-0.005": 11.8231440383,
			"-0.004": 11.2585056217,
			"-0.003": 12.6620370577,
			"-0.002": 13.9983593692,
			"-0.001": 12.9095955718,
			"0.0": 17.8902185729,
			"0.001": 19.6718366161,
			"0.002": 18.3001049995,
			"0.003": 20.9947722217,
			"0.004": 5.95455407567,
			"0.005": 2.16349097565,
			"0.006": 2.72985037846,
			"0.007": 2.60437298696,
			"0.008": 2.14290732411,
			"0.009": 3.6560976714,
			"0.01": 4.27737113676,
			"0.011": 5.19877983089,
			"0.012": 6.30543134402,
			"0.013": 3.97797281789,
			"0.014": 0.697941546447,
			"0.015": 0.0,
			"0.016": 0.0,
			"0.017": 0.0,
			"0.018": 0.0,
			"0.019": 0.0,
			"0.02": 0.0,
			"0.021": 0.0,
			"0.022": 0.0,
			"0.023": 0.0,
			"0.024": 0.0,
			"0.025": 0.0
		}
	}
}
