{
	 "smiles": "CC(C)(C)[Si](Cl)(Cl)Cl", 
	 "Tm": 371.15, 
	 "num_atms": 17, 
	 "gaussian": { 
		 "optdone": 1, 
		 "sigma_profile": "yes", 
		 "theory": "DFT", 
		 "functional": "B3LYP", 
		 "basiset": "6-31G**", 
		 "properties": { 
			 "R2extent": 2554.8668, 
			 "electric_dipole_moment_norm": 2.92918362859, 
			 "electric_quadrupole_moment_norm": 4.05364662002, 
			 "total_energy": -1828.09684472, 
			 "HOMO_LUMO_gap": 0.29541, 
			 "cosmo_polarized_energy": -3.05, 
			 "cosmo_cavitation_energy": 25.64, 
			 "cosmo_dispersion_energy": -16.54, 
			 "cosmo_repulsion_energy": 1.44, 
			 "cosmo_total_nonelectrostatic_energy": 10.55, 
			 "SMD_solvation_energy": 3.47 
		},
		"coords": [
			{
				"x": 0.1310341509,
				"y": 2.4062367791,
				"z": 0.8818417952,
				"element": "C" 
			},
			{
				"x": 0.4036979508,
				"y": 0.9462677024,
				"z": 0.4552874829,
				"element": "C" 
			},
			{
				"x": -0.7265750067,
				"y": 0.0295170862,
				"z": 0.9747146977,
				"element": "C" 
			},
			{
				"x": 1.760964517,
				"y": 0.4789132094,
				"z": 1.0272602242,
				"element": "C" 
			},
			{
				"x": 0.4607446191,
				"y": 0.8514727707,
				"z": -1.4395322207,
				"element": "Si" 
			},
			{
				"x": 1.9588275366,
				"y": 2.0596077052,
				"z": -2.2085773527,
				"element": "Cl" 
			},
			{
				"x": 0.823312707,
				"y": -1.0842595429,
				"z": -2.0851773055,
				"element": "Cl" 
			},
			{
				"x": -1.3322416562,
				"y": 1.4662161649,
				"z": -2.2777577821,
				"element": "Cl" 
			},
			{
				"x": 0.9164650945,
				"y": 3.0873460428,
				"z": 0.540227117,
				"element": "H" 
			},
			{
				"x": 0.0981292279,
				"y": 2.4604800819,
				"z": 1.9769763489,
				"element": "H" 
			},
			{
				"x": -0.8282421037,
				"y": 2.7723871456,
				"z": 0.5033939956,
				"element": "H" 
			},
			{
				"x": -0.5646491869,
				"y": -1.0174740131,
				"z": 0.7006849399,
				"element": "H" 
			},
			{
				"x": -1.7079670812,
				"y": 0.3341279159,
				"z": 0.5984447906,
				"element": "H" 
			},
			{
				"x": -0.7593694917,
				"y": 0.0846013214,
				"z": 2.0698076774,
				"element": "H" 
			},
			{
				"x": 1.9868607081,
				"y": -0.556498557,
				"z": 0.754511385,
				"element": "H" 
			},
			{
				"x": 1.7275560989,
				"y": 0.5337813042,
				"z": 2.122347265,
				"element": "H" 
			},
			{
				"x": 2.5883519155,
				"y": 1.1103768834,
				"z": 0.6893469416,
				"element": "H" 
			}
		],
		 "valence_orbital": [ 
			{
				"type": "occ",
				"energy": -0.35157,
				"method": "rhf"
			},
			{
				"type": "occ",
				"energy": -0.33235,
				"method": "rhf"
			},
			{
				"type": "occ",
				"energy": -0.33234,
				"method": "rhf"
			},
			{
				"type": "occ",
				"energy": -0.3216,
				"method": "rhf"
			},
			{
				"type": "occ",
				"energy": -0.30533,
				"method": "rhf"
			},
			{
				"type": "unocc",
				"energy": -0.00992,
				"method": "rhf"
			},
			{
				"type": "unocc",
				"energy": 0.02511,
				"method": "rhf"
			},
			{
				"type": "unocc",
				"energy": 0.02511,
				"method": "rhf"
			},
			{
				"type": "unocc",
				"energy": 0.06991,
				"method": "rhf"
			},
			{
				"type": "unocc",
				"energy": 0.07762,
				"method": "rhf"
			}
		],
		"cosmo_sigma_profile": { 
			"-0.025": 0.0,
			"-0.024": 0.0,
			"-0.023": 0.0,
			"-0.022": 0.0,
			"-0.021": 0.0,
			"-0.02": 0.0,
			"-0.019": 0.0,
			"-0.018": 0.0,
			"-0.017": 0.0,
			"-0.016": 0.0,
			"-0.015": 0.0,
			"-0.014": 0.0,
			"-0.013": 0.0,
			"-0.012": 0.0,
			"-0.011": 0.0,
			"-0.01": 0.0,
			"-0.009": 0.0,
			"-0.008": 0.0,
			"-0.007": 0.0,
			"-0.006": 0.0,
			"-0.005": 0.237624354315,
			"-0.004": 11.2151744381,
			"-0.003": 21.7945522983,
			"-0.002": 30.6777922814,
			"-0.001": 25.2639156166,
			"0.0": 32.9333995571,
			"0.001": 19.315253038,
			"0.002": 21.4271897547,
			"0.003": 28.8306269904,
			"0.004": 12.673038959,
			"0.005": 0.0,
			"0.006": 0.0,
			"0.007": 0.0,
			"0.008": 0.0,
			"0.009": 0.0,
			"0.01": 0.0,
			"0.011": 0.0,
			"0.012": 0.0,
			"0.013": 0.0,
			"0.014": 0.0,
			"0.015": 0.0,
			"0.016": 0.0,
			"0.017": 0.0,
			"0.018": 0.0,
			"0.019": 0.0,
			"0.02": 0.0,
			"0.021": 0.0,
			"0.022": 0.0,
			"0.023": 0.0,
			"0.024": 0.0,
			"0.025": 0.0
		}
	}
}
