{
	 "smiles": "NC(=O)C1=CC=C(C=C1)C(N)=O", 
	 "Tm": 605.15, 
	 "num_atms": 20, 
	 "gaussian": { 
		 "optdone": 1, 
		 "sigma_profile": "yes", 
		 "theory": "DFT", 
		 "functional": "B3LYP", 
		 "basiset": "6-31G**", 
		 "properties": { 
			 "R2extent": 2937.9447, 
			 "electric_dipole_moment_norm": 5.27584815741, 
			 "electric_quadrupole_moment_norm": 16.9497510058, 
			 "total_energy": -569.660638089, 
			 "HOMO_LUMO_gap": 0.19279, 
			 "cosmo_polarized_energy": -21.99, 
			 "cosmo_cavitation_energy": 24.93, 
			 "cosmo_dispersion_energy": -18.47, 
			 "cosmo_repulsion_energy": 1.48, 
			 "cosmo_total_nonelectrostatic_energy": 7.95, 
			 "SMD_solvation_energy": 5.88 
		},
		"coords": [
			{
				"x": 0.3874495792,
				"y": 1.0009150965,
				"z": 3.9428214575,
				"element": "N" 
			},
			{
				"x": -0.6296193489,
				"y": 1.3190166332,
				"z": 3.0733695893,
				"element": "C" 
			},
			{
				"x": -1.4349451659,
				"y": 2.2082773036,
				"z": 3.3166321722,
				"element": "O" 
			},
			{
				"x": -0.7143758472,
				"y": 0.493586055,
				"z": 1.8188246519,
				"element": "C" 
			},
			{
				"x": -0.1169006183,
				"y": -0.7670513991,
				"z": 1.6858487701,
				"element": "C" 
			},
			{
				"x": -0.2468552305,
				"y": -1.4862254352,
				"z": 0.4989332866,
				"element": "C" 
			},
			{
				"x": -0.9725007814,
				"y": -0.9541926489,
				"z": -0.5754281468,
				"element": "C" 
			},
			{
				"x": -1.56158097,
				"y": 0.3109849702,
				"z": -0.4434883784,
				"element": "C" 
			},
			{
				"x": -1.447468342,
				"y": 1.0198820234,
				"z": 0.7461290761,
				"element": "C" 
			},
			{
				"x": -1.1417554591,
				"y": -1.6653875544,
				"z": -1.8899566902,
				"element": "C" 
			},
			{
				"x": -0.9222495314,
				"y": -3.0230485618,
				"z": -1.8792666944,
				"element": "N" 
			},
			{
				"x": -1.435814462,
				"y": -1.0651214716,
				"z": -2.915487483,
				"element": "O" 
			},
			{
				"x": 0.5047798989,
				"y": 1.6387102301,
				"z": 4.7173302162,
				"element": "H" 
			},
			{
				"x": 1.2174455629,
				"y": 0.5375012055,
				"z": 3.6070528263,
				"element": "H" 
			},
			{
				"x": 0.4283598483,
				"y": -1.2072678771,
				"z": 2.5154140649,
				"element": "H" 
			},
			{
				"x": 0.244338698,
				"y": -2.450336713,
				"z": 0.4067936641,
				"element": "H" 
			},
			{
				"x": -2.1058155901,
				"y": 0.7149274627,
				"z": -1.2902749151,
				"element": "H" 
			},
			{
				"x": -1.9169918449,
				"y": 1.9895183161,
				"z": 0.8716559613,
				"element": "H" 
			},
			{
				"x": -1.1568165211,
				"y": -3.5022265443,
				"z": -2.7370438472,
				"element": "H" 
			},
			{
				"x": -1.0226838746,
				"y": -3.5478610908,
				"z": -1.0243595814,
				"element": "H" 
			}
		],
		 "valence_orbital": [ 
			{
				"type": "occ",
				"energy": -0.27868,
				"method": "rhf"
			},
			{
				"type": "occ",
				"energy": -0.26813,
				"method": "rhf"
			},
			{
				"type": "occ",
				"energy": -0.26811,
				"method": "rhf"
			},
			{
				"type": "occ",
				"energy": -0.25575,
				"method": "rhf"
			},
			{
				"type": "occ",
				"energy": -0.25267,
				"method": "rhf"
			},
			{
				"type": "unocc",
				"energy": -0.05988,
				"method": "rhf"
			},
			{
				"type": "unocc",
				"energy": -0.01924,
				"method": "rhf"
			},
			{
				"type": "unocc",
				"energy": 0.02074,
				"method": "rhf"
			},
			{
				"type": "unocc",
				"energy": 0.06698,
				"method": "rhf"
			},
			{
				"type": "unocc",
				"energy": 0.06727,
				"method": "rhf"
			}
		],
		"cosmo_sigma_profile": { 
			"-0.025": 0.0,
			"-0.024": 0.0,
			"-0.023": 0.0,
			"-0.022": 0.0,
			"-0.021": 0.0,
			"-0.02": 0.0,
			"-0.019": 0.0,
			"-0.018": 0.0,
			"-0.017": 0.0,
			"-0.016": 0.0,
			"-0.015": 0.246569659227,
			"-0.014": 3.41000730409,
			"-0.013": 5.29542911218,
			"-0.012": 4.79733431068,
			"-0.011": 4.98186235771,
			"-0.01": 5.79146097281,
			"-0.009": 4.83085842368,
			"-0.008": 5.21115931782,
			"-0.007": 5.43765820839,
			"-0.006": 7.45230168347,
			"-0.005": 8.12040228005,
			"-0.004": 7.49179559764,
			"-0.003": 8.24165980048,
			"-0.002": 9.07958145828,
			"-0.001": 11.0813801909,
			"0.0": 11.8320791044,
			"0.001": 12.3547888225,
			"0.002": 13.7227272498,
			"0.003": 16.7802276079,
			"0.004": 6.92239726646,
			"0.005": 4.29224925849,
			"0.006": 3.1160957517,
			"0.007": 4.39894088431,
			"0.008": 3.92719099081,
			"0.009": 3.12613957872,
			"0.01": 2.98446171174,
			"0.011": 2.99365928122,
			"0.012": 4.73953894534,
			"0.013": 10.3660677306,
			"0.014": 5.37060806046,
			"0.015": 0.137833393164,
			"0.016": 0.0,
			"0.017": 0.0,
			"0.018": 0.0,
			"0.019": 0.0,
			"0.02": 0.0,
			"0.021": 0.0,
			"0.022": 0.0,
			"0.023": 0.0,
			"0.024": 0.0,
			"0.025": 0.0
		}
	}
}
