{
	 "smiles": "FC1=CC(NC2=NN=C(S)S2)=CC=C1", 
	 "Tm": 480.15, 
	 "num_atms": 20, 
	 "gaussian": { 
		 "optdone": 1, 
		 "sigma_profile": "yes", 
		 "theory": "DFT", 
		 "functional": "B3LYP", 
		 "basiset": "6-31G**", 
		 "properties": { 
			 "R2extent": 5227.3556, 
			 "electric_dipole_moment_norm": 3.45311680225, 
			 "electric_quadrupole_moment_norm": 11.3036551969, 
			 "total_energy": -1368.88745961, 
			 "HOMO_LUMO_gap": 0.17228, 
			 "cosmo_polarized_energy": -14.41, 
			 "cosmo_cavitation_energy": 28.99, 
			 "cosmo_dispersion_energy": -22.41, 
			 "cosmo_repulsion_energy": 1.64, 
			 "cosmo_total_nonelectrostatic_energy": 8.22, 
			 "SMD_solvation_energy": 2.83 
		},
		"coords": [
			{
				"x": -3.6871539616,
				"y": -2.9826610886,
				"z": 3.9318190066,
				"element": "F" 
			},
			{
				"x": -3.0120357698,
				"y": -1.950886117,
				"z": 3.388574332,
				"element": "C" 
			},
			{
				"x": -2.568092976,
				"y": -2.0722077386,
				"z": 2.0807869047,
				"element": "C" 
			},
			{
				"x": -1.8623946355,
				"y": -1.0062853999,
				"z": 1.4983841068,
				"element": "C" 
			},
			{
				"x": -1.4458438846,
				"y": -1.1635636278,
				"z": 0.1686640736,
				"element": "N" 
			},
			{
				"x": -0.4877038096,
				"y": -0.5114767156,
				"z": -0.5566614813,
				"element": "C" 
			},
			{
				"x": -0.4071790149,
				"y": -0.7009186343,
				"z": -1.8560418792,
				"element": "N" 
			},
			{
				"x": 0.6736796914,
				"y": -0.0921312521,
				"z": -2.4166125783,
				"element": "N" 
			},
			{
				"x": 1.4017683833,
				"y": 0.571424801,
				"z": -1.5725374225,
				"element": "C" 
			},
			{
				"x": 2.7677113829,
				"y": 1.5810337711,
				"z": -2.0659317588,
				"element": "S" 
			},
			{
				"x": 0.7896029836,
				"y": 0.5095270295,
				"z": 0.0936058303,
				"element": "S" 
			},
			{
				"x": -1.6283161284,
				"y": 0.1578953668,
				"z": 2.2466389644,
				"element": "C" 
			},
			{
				"x": -2.0786620171,
				"y": 0.2337942451,
				"z": 3.5653572781,
				"element": "C" 
			},
			{
				"x": -2.776606181,
				"y": -0.816578286,
				"z": 4.1588877133,
				"element": "C" 
			},
			{
				"x": -2.760584407,
				"y": -2.9894786787,
				"z": 1.5340715462,
				"element": "H" 
			},
			{
				"x": -1.9230045662,
				"y": -1.8662540533,
				"z": -0.3820672184,
				"element": "H" 
			},
			{
				"x": 3.6776718263,
				"y": 1.0395226773,
				"z": -1.2281746247,
				"element": "H" 
			},
			{
				"x": -1.134939524,
				"y": 1.0129703163,
				"z": 1.8020774524,
				"element": "H" 
			},
			{
				"x": -1.8924723324,
				"y": 1.139885761,
				"z": 4.1335910337,
				"element": "H" 
			},
			{
				"x": -3.1372450594,
				"y": -0.7694123762,
				"z": 5.179668721,
				"element": "H" 
			}
		],
		 "valence_orbital": [ 
			{
				"type": "occ",
				"energy": -0.29397,
				"method": "rhf"
			},
			{
				"type": "occ",
				"energy": -0.27239,
				"method": "rhf"
			},
			{
				"type": "occ",
				"energy": -0.26438,
				"method": "rhf"
			},
			{
				"type": "occ",
				"energy": -0.26136,
				"method": "rhf"
			},
			{
				"type": "occ",
				"energy": -0.22154,
				"method": "rhf"
			},
			{
				"type": "unocc",
				"energy": -0.04926,
				"method": "rhf"
			},
			{
				"type": "unocc",
				"energy": -0.02641,
				"method": "rhf"
			},
			{
				"type": "unocc",
				"energy": -0.00827,
				"method": "rhf"
			},
			{
				"type": "unocc",
				"energy": -0.00342,
				"method": "rhf"
			},
			{
				"type": "unocc",
				"energy": 0.01406,
				"method": "rhf"
			}
		],
		"cosmo_sigma_profile": { 
			"-0.025": 0.0,
			"-0.024": 0.0,
			"-0.023": 0.0,
			"-0.022": 0.0,
			"-0.021": 0.0,
			"-0.02": 0.0,
			"-0.019": 0.0,
			"-0.018": 0.0,
			"-0.017": 0.0,
			"-0.016": 0.536798637412,
			"-0.015": 1.38215070727,
			"-0.014": 1.33186566205,
			"-0.013": 0.853445947175,
			"-0.012": 2.03264546207,
			"-0.011": 4.81689893589,
			"-0.01": 3.07208107371,
			"-0.009": 3.3681496334,
			"-0.008": 3.40572834664,
			"-0.007": 6.68799035111,
			"-0.006": 9.15171246166,
			"-0.005": 11.4588045833,
			"-0.004": 9.48998862654,
			"-0.003": 10.8921948132,
			"-0.002": 16.2186068916,
			"-0.001": 17.233954459,
			"0.0": 21.7885722286,
			"0.001": 21.9252642674,
			"0.002": 20.0555316825,
			"0.003": 17.9187262456,
			"0.004": 19.5521571734,
			"0.005": 7.4141766136,
			"0.006": 3.79020437321,
			"0.007": 4.80090316097,
			"0.008": 3.48978303849,
			"0.009": 2.24828301215,
			"0.01": 2.48045637156,
			"0.011": 3.35925868712,
			"0.012": 2.79075930009,
			"0.013": 2.86533950768,
			"0.014": 1.89764236617,
			"0.015": 0.220749163478,
			"0.016": 0.0,
			"0.017": 0.0,
			"0.018": 0.0,
			"0.019": 0.0,
			"0.02": 0.0,
			"0.021": 0.0,
			"0.022": 0.0,
			"0.023": 0.0,
			"0.024": 0.0,
			"0.025": 0.0
		}
	}
}
