{
	 "smiles": "N#CCNCC#N", 
	 "Tm": 350.15, 
	 "num_atms": 12, 
	 "gaussian": { 
		 "optdone": 1, 
		 "sigma_profile": "yes", 
		 "theory": "DFT", 
		 "functional": "B3LYP", 
		 "basiset": "6-31G**", 
		 "properties": { 
			 "R2extent": 1468.6515, 
			 "electric_dipole_moment_norm": 7.54088583457, 
			 "electric_quadrupole_moment_norm": 19.5107184729, 
			 "total_energy": -319.627340876, 
			 "HOMO_LUMO_gap": 0.26937, 
			 "cosmo_polarized_energy": -22.15, 
			 "cosmo_cavitation_energy": 18.06, 
			 "cosmo_dispersion_energy": -12.02, 
			 "cosmo_repulsion_energy": 1.05, 
			 "cosmo_total_nonelectrostatic_energy": 7.09, 
			 "SMD_solvation_energy": 4.01 
		},
		"coords": [
			{
				"x": -2.7234106948,
				"y": 0.7919343805,
				"z": 1.8924622694,
				"element": "N" 
			},
			{
				"x": -2.0018289984,
				"y": 1.0327678059,
				"z": 1.0171273422,
				"element": "C" 
			},
			{
				"x": -1.1207290917,
				"y": 1.304513812,
				"z": -0.1324731364,
				"element": "C" 
			},
			{
				"x": -0.0503435034,
				"y": 2.2499233047,
				"z": 0.1749563826,
				"element": "N" 
			},
			{
				"x": 1.1296341317,
				"y": 1.6783749449,
				"z": 0.8191993674,
				"element": "C" 
			},
			{
				"x": 0.9801624079,
				"y": 1.5320812243,
				"z": 2.2781001626,
				"element": "C" 
			},
			{
				"x": 0.9093499846,
				"y": 1.4036548108,
				"z": 3.4285169547,
				"element": "N" 
			},
			{
				"x": -0.7554201801,
				"y": 0.3324925747,
				"z": -0.5094578945,
				"element": "H" 
			},
			{
				"x": -1.7435697241,
				"y": 1.7397633057,
				"z": -0.9210973315,
				"element": "H" 
			},
			{
				"x": 0.232548422,
				"y": 2.7177982156,
				"z": -0.6781059487,
				"element": "H" 
			},
			{
				"x": 1.4192807531,
				"y": 0.692634466,
				"z": 0.4133398675,
				"element": "H" 
			},
			{
				"x": 1.9731264932,
				"y": 2.3553611549,
				"z": 0.6474319647,
				"element": "H" 
			}
		],
		 "valence_orbital": [ 
			{
				"type": "occ",
				"energy": -0.34824,
				"method": "rhf"
			},
			{
				"type": "occ",
				"energy": -0.33473,
				"method": "rhf"
			},
			{
				"type": "occ",
				"energy": -0.33423,
				"method": "rhf"
			},
			{
				"type": "occ",
				"energy": -0.32435,
				"method": "rhf"
			},
			{
				"type": "occ",
				"energy": -0.28004,
				"method": "rhf"
			},
			{
				"type": "unocc",
				"energy": -0.01067,
				"method": "rhf"
			},
			{
				"type": "unocc",
				"energy": 0.0211,
				"method": "rhf"
			},
			{
				"type": "unocc",
				"energy": 0.03717,
				"method": "rhf"
			},
			{
				"type": "unocc",
				"energy": 0.04174,
				"method": "rhf"
			},
			{
				"type": "unocc",
				"energy": 0.06984,
				"method": "rhf"
			}
		],
		"cosmo_sigma_profile": { 
			"-0.025": 0.0,
			"-0.024": 0.0,
			"-0.023": 0.0,
			"-0.022": 0.0,
			"-0.021": 0.0,
			"-0.02": 0.0,
			"-0.019": 0.0,
			"-0.018": 0.0,
			"-0.017": 0.0,
			"-0.016": 0.0,
			"-0.015": 0.0,
			"-0.014": 1.06015479339,
			"-0.013": 2.57066140752,
			"-0.012": 2.40523391879,
			"-0.011": 2.47074639808,
			"-0.01": 6.1314906017,
			"-0.009": 9.60916571921,
			"-0.008": 13.7071190042,
			"-0.007": 9.89811094575,
			"-0.006": 9.32262096534,
			"-0.005": 2.77186525466,
			"-0.004": 1.93437910728,
			"-0.003": 2.52508219798,
			"-0.002": 3.2048826257,
			"-0.001": 2.35557523705,
			"0.0": 3.10136389236,
			"0.001": 2.75437043541,
			"0.002": 2.89301777309,
			"0.003": 5.80130834617,
			"0.004": 5.24743435795,
			"0.005": 6.25009229012,
			"0.006": 7.33983764509,
			"0.007": 6.80524421567,
			"0.008": 7.09207126003,
			"0.009": 7.50749130712,
			"0.01": 6.51909471541,
			"0.011": 5.84094967062,
			"0.012": 5.15599237234,
			"0.013": 2.77530311227,
			"0.014": 0.0426253527155,
			"0.015": 0.0,
			"0.016": 0.0,
			"0.017": 0.0,
			"0.018": 0.0,
			"0.019": 0.0,
			"0.02": 0.0,
			"0.021": 0.0,
			"0.022": 0.0,
			"0.023": 0.0,
			"0.024": 0.0,
			"0.025": 0.0
		}
	}
}
