{
	 "smiles": "IC1=CC=C(C=C1)N=C=O", 
	 "Tm": 318.15, 
	 "num_atms": 14, 
	 "gaussian": { 
		 "optdone": 1, 
		 "sigma_profile": "no", 
		 "theory": "DFT", 
		 "functional": "B3LYP", 
		 "basiset": "6-31G**", 
		 "properties": { 
			 "R2extent": 1921.266, 
			 "electric_dipole_moment_norm": 0.961093252499, 
			 "electric_quadrupole_moment_norm": 9.92065512605, 
			 "total_energy": -410.511277617, 
			 "HOMO_LUMO_gap": 0.19373, 
			 "cosmo_polarized_energy": -101305.2, 
			 "cosmo_cavitation_energy": 23.36, 
			 "cosmo_dispersion_energy": -18.23, 
			 "cosmo_repulsion_energy": 1.45, 
			 "cosmo_total_nonelectrostatic_energy": 6.58, 
			 "SMD_solvation_energy": 5.87 
		},
		"coords": [
			{
				"x": 3.2301170879,
				"y": -0.657892152,
				"z": 3.0594380413,
				"element": "I" 
			},
			{
				"x": 1.8147550934,
				"y": -0.2852704325,
				"z": 1.528068959,
				"element": "C" 
			},
			{
				"x": 0.4735014297,
				"y": -0.0820296314,
				"z": 1.8602320086,
				"element": "C" 
			},
			{
				"x": -0.4571259545,
				"y": 0.1619630796,
				"z": 0.8520917848,
				"element": "C" 
			},
			{
				"x": -0.0464557129,
				"y": 0.2123054094,
				"z": -0.4865887591,
				"element": "C" 
			},
			{
				"x": 1.2992026501,
				"y": -0.0041911709,
				"z": -0.8115119459,
				"element": "C" 
			},
			{
				"x": 2.2310827641,
				"y": -0.2482902718,
				"z": 0.1954377476,
				"element": "C" 
			},
			{
				"x": -0.9803880275,
				"y": 0.4262800227,
				"z": -1.4939205879,
				"element": "N" 
			},
			{
				"x": -1.5972412032,
				"y": 1.1576255415,
				"z": -2.218657055,
				"element": "C" 
			},
			{
				"x": -2.2566192641,
				"y": 1.7770744777,
				"z": -2.9770213001,
				"element": "O" 
			},
			{
				"x": 0.1495391305,
				"y": -0.1139470686,
				"z": 2.8942633303,
				"element": "H" 
			},
			{
				"x": -1.5028397774,
				"y": 0.3156791352,
				"z": 1.0963922775,
				"element": "H" 
			},
			{
				"x": 1.6087460958,
				"y": 0.0212769481,
				"z": -1.8509171773,
				"element": "H" 
			},
			{
				"x": 3.271525688,
				"y": -0.4092838872,
				"z": -0.0629073238,
				"element": "H" 
			}
		],
		 "valence_orbital": [ 
			{
				"type": "occ",
				"energy": -0.30167,
				"method": "rhf"
			},
			{
				"type": "occ",
				"energy": -0.28873,
				"method": "rhf"
			},
			{
				"type": "occ",
				"energy": -0.27883,
				"method": "rhf"
			},
			{
				"type": "occ",
				"energy": -0.2754,
				"method": "rhf"
			},
			{
				"type": "occ",
				"energy": -0.23965,
				"method": "rhf"
			},
			{
				"type": "unocc",
				"energy": -0.04592,
				"method": "rhf"
			},
			{
				"type": "unocc",
				"energy": -0.03899,
				"method": "rhf"
			},
			{
				"type": "unocc",
				"energy": -0.02862,
				"method": "rhf"
			},
			{
				"type": "unocc",
				"energy": 0.03718,
				"method": "rhf"
			},
			{
				"type": "unocc",
				"energy": 0.03793,
				"method": "rhf"
			}
		],
		"cosmo_sigma_profile": { 
			"0.0": 0.0,
			"0.0": 0.0,
			"0.0": 0.0,
			"0.0": 0.0,
			"0.0": 0.0,
			"0.0": 0.0,
			"0.0": 0.0,
			"0.0": 0.0,
			"0.0": 0.0,
			"0.0": 0.0,
			"0.0": 0.0,
			"0.0": 0.0,
			"0.0": 0.0,
			"0.0": 0.0,
			"0.0": 0.0,
			"0.0": 0.0,
			"0.0": 0.0,
			"0.0": 0.0,
			"0.0": 0.0,
			"0.0": 0.0,
			"0.0": 0.0,
			"0.0": 0.0,
			"0.0": 0.0,
			"0.0": 0.0,
			"0.0": 0.0,
			"0.0": 0.0,
			"0.0": 0.0,
			"0.0": 0.0,
			"0.0": 0.0,
			"0.0": 0.0,
			"0.0": 0.0,
			"0.0": 0.0,
			"0.0": 0.0,
			"0.0": 0.0,
			"0.0": 0.0,
			"0.0": 0.0,
			"0.0": 0.0,
			"0.0": 0.0,
			"0.0": 0.0,
			"0.0": 0.0,
			"0.0": 0.0,
			"0.0": 0.0,
			"0.0": 0.0,
			"0.0": 0.0,
			"0.0": 0.0,
			"0.0": 0.0,
			"0.0": 0.0,
			"0.0": 0.0,
			"0.0": 0.0,
			"0.0": 0.0,
			"0.0": 0.0
		}
	}
}
