{
	 "smiles": "CCCCC1=CC=C(NC2=NCCCS2)C=C1", 
	 "Tm": 344.15, 
	 "num_atms": 37, 
	 "gaussian": { 
		 "optdone": 1, 
		 "sigma_profile": "yes", 
		 "theory": "DFT", 
		 "functional": "B3LYP", 
		 "basiset": "6-31G**", 
		 "properties": { 
			 "R2extent": 7973.6665, 
			 "electric_dipole_moment_norm": 1.73755217188, 
			 "electric_quadrupole_moment_norm": 16.406315814, 
			 "total_energy": -1053.2496597, 
			 "HOMO_LUMO_gap": 0.19636, 
			 "cosmo_polarized_energy": -9.4, 
			 "cosmo_cavitation_energy": 39.36, 
			 "cosmo_dispersion_energy": -28.84, 
			 "cosmo_repulsion_energy": 2.23, 
			 "cosmo_total_nonelectrostatic_energy": 12.74, 
			 "SMD_solvation_energy": 3.82 
		},
		"coords": [
			{
				"x": 0.2396105737,
				"y": 1.8832177117,
				"z": -3.6273300278,
				"element": "C" 
			},
			{
				"x": -1.1529221633,
				"y": 1.8792110272,
				"z": -4.2709163006,
				"element": "C" 
			},
			{
				"x": -2.0644839527,
				"y": 0.6978284424,
				"z": -3.8905053769,
				"element": "C" 
			},
			{
				"x": -2.710233068,
				"y": 0.7507022709,
				"z": -2.4863153072,
				"element": "C" 
			},
			{
				"x": -1.7900489648,
				"y": 0.5112990583,
				"z": -1.3058957035,
				"element": "C" 
			},
			{
				"x": -1.1580918045,
				"y": -0.7275534155,
				"z": -1.1194992658,
				"element": "C" 
			},
			{
				"x": -0.3218884441,
				"y": -0.9563263428,
				"z": -0.0340882449,
				"element": "C" 
			},
			{
				"x": -0.0874950726,
				"y": 0.051164148,
				"z": 0.9195558803,
				"element": "C" 
			},
			{
				"x": 0.7771629484,
				"y": -0.2676065722,
				"z": 1.9827332481,
				"element": "N" 
			},
			{
				"x": 1.2280117103,
				"y": 0.5085275763,
				"z": 3.0334621207,
				"element": "C" 
			},
			{
				"x": 0.80439046,
				"y": 1.6839355311,
				"z": 3.2652437811,
				"element": "N" 
			},
			{
				"x": 1.284938292,
				"y": 2.5180793315,
				"z": 4.3537628321,
				"element": "C" 
			},
			{
				"x": 2.6325483714,
				"y": 2.1409327037,
				"z": 4.9780085526,
				"element": "C" 
			},
			{
				"x": 2.6700228911,
				"y": 0.6760594852,
				"z": 5.4061425253,
				"element": "C" 
			},
			{
				"x": 2.4961006813,
				"y": -0.4304014645,
				"z": 3.9512593229,
				"element": "S" 
			},
			{
				"x": -0.7214802299,
				"y": 1.2913370014,
				"z": 0.7572820732,
				"element": "C" 
			},
			{
				"x": -1.5549415329,
				"y": 1.498912096,
				"z": -0.343385905,
				"element": "C" 
			},
			{
				"x": 0.7764512829,
				"y": 0.9539441827,
				"z": -3.8509190975,
				"element": "H" 
			},
			{
				"x": 0.8412086627,
				"y": 2.713598687,
				"z": -4.0133529972,
				"element": "H" 
			},
			{
				"x": 0.1912788429,
				"y": 1.9807077486,
				"z": -2.5405004802,
				"element": "H" 
			},
			{
				"x": -1.6707662269,
				"y": 2.8198141093,
				"z": -4.0357718955,
				"element": "H" 
			},
			{
				"x": -1.0307754753,
				"y": 1.8722869395,
				"z": -5.362127978,
				"element": "H" 
			},
			{
				"x": -2.8837549753,
				"y": 0.6511507452,
				"z": -4.6198259314,
				"element": "H" 
			},
			{
				"x": -1.5082684222,
				"y": -0.2429504341,
				"z": -4.0031971856,
				"element": "H" 
			},
			{
				"x": -3.2062471355,
				"y": 1.7218196889,
				"z": -2.363364213,
				"element": "H" 
			},
			{
				"x": -3.5114252619,
				"y": -0.0009496757,
				"z": -2.4623555732,
				"element": "H" 
			},
			{
				"x": -1.3226016994,
				"y": -1.5303716876,
				"z": -1.8343591712,
				"element": "H" 
			},
			{
				"x": 0.1567004248,
				"y": -1.927027784,
				"z": 0.0811449961,
				"element": "H" 
			},
			{
				"x": 1.1207011165,
				"y": -1.2169755885,
				"z": 1.9741933195,
				"element": "H" 
			},
			{
				"x": 1.3368940904,
				"y": 3.5486669998,
				"z": 3.9816958019,
				"element": "H" 
			},
			{
				"x": 0.5125108085,
				"y": 2.5251615985,
				"z": 5.1380375836,
				"element": "H" 
			},
			{
				"x": 2.8040320039,
				"y": 2.7773522721,
				"z": 5.8550366152,
				"element": "H" 
			},
			{
				"x": 3.4466064285,
				"y": 2.3328973502,
				"z": 4.2702963664,
				"element": "H" 
			},
			{
				"x": 3.6282373452,
				"y": 0.4074463361,
				"z": 5.8574778077,
				"element": "H" 
			},
			{
				"x": 1.8778606869,
				"y": 0.4503295832,
				"z": 6.1264240061,
				"element": "H" 
			},
			{
				"x": -0.5597616584,
				"y": 2.0659557053,
				"z": 1.492931048,
				"element": "H" 
			},
			{
				"x": -2.0386815337,
				"y": 2.4673246352,
				"z": -0.4499772261,
				"element": "H" 
			}
		],
		 "valence_orbital": [ 
			{
				"type": "occ",
				"energy": -0.27214,
				"method": "rhf"
			},
			{
				"type": "occ",
				"energy": -0.24158,
				"method": "rhf"
			},
			{
				"type": "occ",
				"energy": -0.2377,
				"method": "rhf"
			},
			{
				"type": "occ",
				"energy": -0.2321,
				"method": "rhf"
			},
			{
				"type": "occ",
				"energy": -0.19653,
				"method": "rhf"
			},
			{
				"type": "unocc",
				"energy": -0.00017,
				"method": "rhf"
			},
			{
				"type": "unocc",
				"energy": 0.00694,
				"method": "rhf"
			},
			{
				"type": "unocc",
				"energy": 0.01726,
				"method": "rhf"
			},
			{
				"type": "unocc",
				"energy": 0.05197,
				"method": "rhf"
			},
			{
				"type": "unocc",
				"energy": 0.07142,
				"method": "rhf"
			}
		],
		"cosmo_sigma_profile": { 
			"-0.025": 0.0,
			"-0.024": 0.0,
			"-0.023": 0.0,
			"-0.022": 0.0,
			"-0.021": 0.0,
			"-0.02": 0.0,
			"-0.019": 0.0,
			"-0.018": 0.0,
			"-0.017": 0.0,
			"-0.016": 0.0,
			"-0.015": 0.14211574239,
			"-0.014": 0.75702106923,
			"-0.013": 1.31998765527,
			"-0.012": 1.16467814902,
			"-0.011": 0.649507772638,
			"-0.01": 1.16203676564,
			"-0.009": 1.41399662698,
			"-0.008": 1.49440692298,
			"-0.007": 1.67221030938,
			"-0.006": 5.13314228566,
			"-0.005": 10.8670479025,
			"-0.004": 20.7325903327,
			"-0.003": 30.0053192399,
			"-0.002": 38.8794045785,
			"-0.001": 33.442283144,
			"0.0": 32.0763530505,
			"0.001": 29.8640717647,
			"0.002": 23.6235280127,
			"0.003": 14.8324071672,
			"0.004": 16.5373823155,
			"0.005": 16.6701721283,
			"0.006": 13.1402838618,
			"0.007": 7.06872747402,
			"0.008": 4.17376812426,
			"0.009": 2.44784394708,
			"0.01": 0.826456282819,
			"0.011": 0.313469592329,
			"0.012": 0.0,
			"0.013": 0.0,
			"0.014": 0.0,
			"0.015": 0.0,
			"0.016": 0.0,
			"0.017": 0.0,
			"0.018": 0.0,
			"0.019": 0.0,
			"0.02": 0.0,
			"0.021": 0.0,
			"0.022": 0.0,
			"0.023": 0.0,
			"0.024": 0.0,
			"0.025": 0.0
		}
	}
}
