{
	 "smiles": "O=C(C1=CC=CC=C1)C1=CC=CC=N1", 
	 "Tm": 315.65, 
	 "num_atms": 23, 
	 "gaussian": { 
		 "optdone": 1, 
		 "sigma_profile": "yes", 
		 "theory": "DFT", 
		 "functional": "B3LYP", 
		 "basiset": "6-31G**", 
		 "properties": { 
			 "R2extent": 3284.2759, 
			 "electric_dipole_moment_norm": 2.59013881867, 
			 "electric_quadrupole_moment_norm": 15.3316007798, 
			 "total_energy": -592.671081817, 
			 "HOMO_LUMO_gap": 0.16962, 
			 "cosmo_polarized_energy": -8.85, 
			 "cosmo_cavitation_energy": 27.54, 
			 "cosmo_dispersion_energy": -20.38, 
			 "cosmo_repulsion_energy": 1.58, 
			 "cosmo_total_nonelectrostatic_energy": 8.74, 
			 "SMD_solvation_energy": 4.61 
		},
		"coords": [
			{
				"x": 1.4072501311,
				"y": 0.524464481,
				"z": -0.1343556014,
				"element": "O" 
			},
			{
				"x": 0.2788847752,
				"y": 0.0680781265,
				"z": 0.0273052517,
				"element": "C" 
			},
			{
				"x": -0.3808087744,
				"y": -0.6954487471,
				"z": -1.079583428,
				"element": "C" 
			},
			{
				"x": -1.7578704204,
				"y": -0.9648532669,
				"z": -1.1580719813,
				"element": "C" 
			},
			{
				"x": -2.2786965221,
				"y": -1.6328885217,
				"z": -2.2665854961,
				"element": "C" 
			},
			{
				"x": -1.438750244,
				"y": -2.0480022386,
				"z": -3.3007297583,
				"element": "C" 
			},
			{
				"x": -0.0673732687,
				"y": -1.7840259866,
				"z": -3.2317285739,
				"element": "C" 
			},
			{
				"x": 0.4539630929,
				"y": -1.1063700205,
				"z": -2.1353133342,
				"element": "C" 
			},
			{
				"x": -0.3823552473,
				"y": 0.3099770618,
				"z": 1.3694472056,
				"element": "C" 
			},
			{
				"x": 0.1972666837,
				"y": 1.2730898003,
				"z": 2.2088425111,
				"element": "C" 
			},
			{
				"x": -0.3589673906,
				"y": 1.4894763062,
				"z": 3.4654365818,
				"element": "C" 
			},
			{
				"x": -1.4660176362,
				"y": 0.7318170994,
				"z": 3.8483584562,
				"element": "C" 
			},
			{
				"x": -1.9693498345,
				"y": -0.2075850787,
				"z": 2.9467621565,
				"element": "C" 
			},
			{
				"x": -1.4496095843,
				"y": -0.4186805496,
				"z": 1.7334666366,
				"element": "N" 
			},
			{
				"x": -2.4101048992,
				"y": -0.6625423223,
				"z": -0.3507422775,
				"element": "H" 
			},
			{
				"x": -3.3453240188,
				"y": -1.8312736734,
				"z": -2.3198748604,
				"element": "H" 
			},
			{
				"x": -1.8496324524,
				"y": -2.5738319036,
				"z": -4.1582450869,
				"element": "H" 
			},
			{
				"x": 0.5907503736,
				"y": -2.1033949049,
				"z": -4.0346744944,
				"element": "H" 
			},
			{
				"x": 1.5120727923,
				"y": -0.8776700765,
				"z": -2.0707555834,
				"element": "H" 
			},
			{
				"x": 1.0670013064,
				"y": 1.816006528,
				"z": 1.8590530262,
				"element": "H" 
			},
			{
				"x": 0.0643334792,
				"y": 2.2317647476,
				"z": 4.1359661268,
				"element": "H" 
			},
			{
				"x": -1.9312348708,
				"y": 0.8615982579,
				"z": 4.8204657776,
				"element": "H" 
			},
			{
				"x": -2.8294274704,
				"y": -0.8198051182,
				"z": 3.2119567456,
				"element": "H" 
			}
		],
		 "valence_orbital": [ 
			{
				"type": "occ",
				"energy": -0.27662,
				"method": "rhf"
			},
			{
				"type": "occ",
				"energy": -0.26918,
				"method": "rhf"
			},
			{
				"type": "occ",
				"energy": -0.25412,
				"method": "rhf"
			},
			{
				"type": "occ",
				"energy": -0.24966,
				"method": "rhf"
			},
			{
				"type": "occ",
				"energy": -0.24279,
				"method": "rhf"
			},
			{
				"type": "unocc",
				"energy": -0.07317,
				"method": "rhf"
			},
			{
				"type": "unocc",
				"energy": -0.03107,
				"method": "rhf"
			},
			{
				"type": "unocc",
				"energy": -0.01304,
				"method": "rhf"
			},
			{
				"type": "unocc",
				"energy": 0.00105,
				"method": "rhf"
			},
			{
				"type": "unocc",
				"energy": 0.05876,
				"method": "rhf"
			}
		],
		"cosmo_sigma_profile": { 
			"-0.025": 0.0,
			"-0.024": 0.0,
			"-0.023": 0.0,
			"-0.022": 0.0,
			"-0.021": 0.0,
			"-0.02": 0.0,
			"-0.019": 0.0,
			"-0.018": 0.0,
			"-0.017": 0.0,
			"-0.016": 0.0,
			"-0.015": 0.0,
			"-0.014": 0.0,
			"-0.013": 0.0,
			"-0.012": 0.0,
			"-0.011": 0.0,
			"-0.01": 0.0,
			"-0.009": 0.0,
			"-0.008": 1.41093056791,
			"-0.007": 7.18671575193,
			"-0.006": 15.7707847158,
			"-0.005": 15.7691783619,
			"-0.004": 17.3036310678,
			"-0.003": 14.376172618,
			"-0.002": 14.7539920299,
			"-0.001": 16.2985857649,
			"0.0": 17.5262451082,
			"0.001": 23.7736768049,
			"0.002": 20.7234773852,
			"0.003": 12.5900192625,
			"0.004": 16.5885535926,
			"0.005": 7.68589575479,
			"0.006": 1.82946648597,
			"0.007": 3.85368930755,
			"0.008": 2.89193256775,
			"0.009": 2.22016550779,
			"0.01": 3.16646530438,
			"0.011": 4.1321561983,
			"0.012": 2.4818391739,
			"0.013": 0.0,
			"0.014": 0.0,
			"0.015": 0.0,
			"0.016": 0.0,
			"0.017": 0.0,
			"0.018": 0.0,
			"0.019": 0.0,
			"0.02": 0.0,
			"0.021": 0.0,
			"0.022": 0.0,
			"0.023": 0.0,
			"0.024": 0.0,
			"0.025": 0.0
		}
	}
}
