{
	 "smiles": "ClC1=CC=CC=C1N1C(=O)C2ON=C(C2C1=O)C(=O)C1=CC=CS1", 
	 "Tm": 453.15, 
	 "num_atms": 33, 
	 "gaussian": { 
		 "optdone": 1, 
		 "sigma_profile": "yes", 
		 "theory": "DFT", 
		 "functional": "B3LYP", 
		 "basiset": "6-31G**", 
		 "properties": { 
			 "R2extent": 9443.9111, 
			 "electric_dipole_moment_norm": 1.10358855558, 
			 "electric_quadrupole_moment_norm": 29.1712480849, 
			 "total_energy": -1883.83310097, 
			 "HOMO_LUMO_gap": 0.1593, 
			 "cosmo_polarized_energy": -21.74, 
			 "cosmo_cavitation_energy": 43.0, 
			 "cosmo_dispersion_energy": -29.56, 
			 "cosmo_repulsion_energy": 2.19, 
			 "cosmo_total_nonelectrostatic_energy": 15.62, 
			 "SMD_solvation_energy": 8.91 
		},
		"coords": [
			{
				"x": -0.2946554435,
				"y": 1.273311315,
				"z": 2.2628539145,
				"element": "Cl" 
			},
			{
				"x": -1.2149370809,
				"y": 2.4363978889,
				"z": 1.3359315491,
				"element": "C" 
			},
			{
				"x": -1.4523145235,
				"y": 3.7003500408,
				"z": 1.8753752932,
				"element": "C" 
			},
			{
				"x": -2.2106100186,
				"y": 4.626167242,
				"z": 1.1599483117,
				"element": "C" 
			},
			{
				"x": -2.7320461332,
				"y": 4.2946741058,
				"z": -0.0912898014,
				"element": "C" 
			},
			{
				"x": -2.4843569598,
				"y": 3.0352246227,
				"z": -0.6315553421,
				"element": "C" 
			},
			{
				"x": -1.7229175296,
				"y": 2.1006165507,
				"z": 0.0734257794,
				"element": "C" 
			},
			{
				"x": -1.4843669006,
				"y": 0.8131546612,
				"z": -0.4953543947,
				"element": "N" 
			},
			{
				"x": -2.4779954334,
				"y": -0.1699613458,
				"z": -0.6026531226,
				"element": "C" 
			},
			{
				"x": -3.6348015615,
				"y": -0.0480541112,
				"z": -0.2813119209,
				"element": "O" 
			},
			{
				"x": -1.8184549577,
				"y": -1.417425935,
				"z": -1.2052072369,
				"element": "C" 
			},
			{
				"x": -1.7298014558,
				"y": -2.4530759996,
				"z": -0.1754352103,
				"element": "O" 
			},
			{
				"x": -0.4058183617,
				"y": -2.7336604031,
				"z": 0.083551411,
				"element": "N" 
			},
			{
				"x": 0.3685428692,
				"y": -2.0013934471,
				"z": -0.6324168223,
				"element": "C" 
			},
			{
				"x": -0.375123151,
				"y": -1.0244030997,
				"z": -1.5159382132,
				"element": "C" 
			},
			{
				"x": -0.2383485166,
				"y": 0.4333646352,
				"z": -1.0338858299,
				"element": "C" 
			},
			{
				"x": 0.7327001673,
				"y": 1.1417426809,
				"z": -1.1008064206,
				"element": "O" 
			},
			{
				"x": 1.8506951952,
				"y": -2.168597232,
				"z": -0.6810578928,
				"element": "C" 
			},
			{
				"x": 2.4408737133,
				"y": -1.663179717,
				"z": -1.6317984921,
				"element": "O" 
			},
			{
				"x": 2.5692630102,
				"y": -2.9190164979,
				"z": 0.3575660612,
				"element": "C" 
			},
			{
				"x": 3.9421639052,
				"y": -3.0836407914,
				"z": 0.3435232522,
				"element": "C" 
			},
			{
				"x": 4.4317784676,
				"y": -3.8126915117,
				"z": 1.4528182092,
				"element": "C" 
			},
			{
				"x": 3.4253177565,
				"y": -4.1954764147,
				"z": 2.3071504605,
				"element": "C" 
			},
			{
				"x": 1.8693591689,
				"y": -3.6823549569,
				"z": 1.7709222908,
				"element": "S" 
			},
			{
				"x": -1.0475300364,
				"y": 3.9457557119,
				"z": 2.850651818,
				"element": "H" 
			},
			{
				"x": -2.3943498121,
				"y": 5.6073487664,
				"z": 1.586616837,
				"element": "H" 
			},
			{
				"x": -3.3258477588,
				"y": 5.0131153869,
				"z": -0.6467600674,
				"element": "H" 
			},
			{
				"x": -2.8773244449,
				"y": 2.7607701479,
				"z": -1.6046904353,
				"element": "H" 
			},
			{
				"x": -2.416645478,
				"y": -1.8154544878,
				"z": -2.0273866977,
				"element": "H" 
			},
			{
				"x": -0.0506877786,
				"y": -1.090609016,
				"z": -2.5565147966,
				"element": "H" 
			},
			{
				"x": 4.5498609505,
				"y": -2.6737965889,
				"z": -0.453816528,
				"element": "H" 
			},
			{
				"x": 5.4778789664,
				"y": -4.043005343,
				"z": 1.6166118261,
				"element": "H" 
			},
			{
				"x": 3.5143991656,
				"y": -4.7624968572,
				"z": 3.2245322109,
				"element": "H" 
			}
		],
		 "valence_orbital": [ 
			{
				"type": "occ",
				"energy": -0.27182,
				"method": "rhf"
			},
			{
				"type": "occ",
				"energy": -0.26578,
				"method": "rhf"
			},
			{
				"type": "occ",
				"energy": -0.26223,
				"method": "rhf"
			},
			{
				"type": "occ",
				"energy": -0.25677,
				"method": "rhf"
			},
			{
				"type": "occ",
				"energy": -0.24889,
				"method": "rhf"
			},
			{
				"type": "unocc",
				"energy": -0.08959,
				"method": "rhf"
			},
			{
				"type": "unocc",
				"energy": -0.04591,
				"method": "rhf"
			},
			{
				"type": "unocc",
				"energy": -0.037,
				"method": "rhf"
			},
			{
				"type": "unocc",
				"energy": -0.02714,
				"method": "rhf"
			},
			{
				"type": "unocc",
				"energy": -0.02596,
				"method": "rhf"
			}
		],
		"cosmo_sigma_profile": { 
			"-0.025": 0.0,
			"-0.024": 0.0,
			"-0.023": 0.0,
			"-0.022": 0.0,
			"-0.021": 0.0,
			"-0.02": 0.0,
			"-0.019": 0.0,
			"-0.018": 0.0,
			"-0.017": 0.0,
			"-0.016": 0.0,
			"-0.015": 0.0,
			"-0.014": 0.0,
			"-0.013": 0.211679687996,
			"-0.012": 0.865388350806,
			"-0.011": 2.96096214332,
			"-0.01": 9.05406655468,
			"-0.009": 8.42805904763,
			"-0.008": 11.3212097541,
			"-0.007": 16.3622381529,
			"-0.006": 18.4238382847,
			"-0.005": 18.0854968943,
			"-0.004": 16.7781421083,
			"-0.003": 16.0242548964,
			"-0.002": 17.8029916882,
			"-0.001": 18.1880096015,
			"0.0": 21.8872249178,
			"0.001": 27.3278025869,
			"0.002": 35.8765668081,
			"0.003": 28.5721090424,
			"0.004": 15.3348175686,
			"0.005": 9.72141020168,
			"0.006": 9.22440910519,
			"0.007": 9.29356442256,
			"0.008": 9.83683800312,
			"0.009": 7.6880349546,
			"0.01": 12.8491999013,
			"0.011": 8.77739809918,
			"0.012": 0.263952808336,
			"0.013": 0.0,
			"0.014": 0.0,
			"0.015": 0.0,
			"0.016": 0.0,
			"0.017": 0.0,
			"0.018": 0.0,
			"0.019": 0.0,
			"0.02": 0.0,
			"0.021": 0.0,
			"0.022": 0.0,
			"0.023": 0.0,
			"0.024": 0.0,
			"0.025": 0.0
		}
	}
}
