{
	 "smiles": "CCC1=NC(NS(=O)(=O)C2=CC=C(N)C=C2)=NC(CC)=N1", 
	 "Tm": 460.15, 
	 "num_atms": 38, 
	 "gaussian": { 
		 "optdone": 1, 
		 "sigma_profile": "yes", 
		 "theory": "DFT", 
		 "functional": "B3LYP", 
		 "basiset": "6-31G**", 
		 "properties": { 
			 "R2extent": 8184.0159, 
			 "electric_dipole_moment_norm": 6.43848318939, 
			 "electric_quadrupole_moment_norm": 27.1626916759, 
			 "total_energy": -1327.99431794, 
			 "HOMO_LUMO_gap": 0.18601, 
			 "cosmo_polarized_energy": -21.38, 
			 "cosmo_cavitation_energy": 43.76, 
			 "cosmo_dispersion_energy": -30.35, 
			 "cosmo_repulsion_energy": 2.35, 
			 "cosmo_total_nonelectrostatic_energy": 15.75, 
			 "SMD_solvation_energy": 3.51 
		},
		"coords": [
			{
				"x": -3.7240487408,
				"y": 1.9015598434,
				"z": 4.0328183003,
				"element": "C" 
			},
			{
				"x": -3.7406587158,
				"y": 1.2165556391,
				"z": 2.6546580963,
				"element": "C" 
			},
			{
				"x": -2.3481342542,
				"y": 0.9628293619,
				"z": 2.1391556645,
				"element": "C" 
			},
			{
				"x": -1.9111990739,
				"y": 1.7090336121,
				"z": 1.1214127839,
				"element": "N" 
			},
			{
				"x": -0.6542566279,
				"y": 1.4315204795,
				"z": 0.7292703349,
				"element": "C" 
			},
			{
				"x": -0.1964432466,
				"y": 2.1745383279,
				"z": -0.335747475,
				"element": "N" 
			},
			{
				"x": 1.4352758183,
				"y": 2.3905264777,
				"z": -0.8351652588,
				"element": "S" 
			},
			{
				"x": 2.2853290467,
				"y": 2.5328289619,
				"z": 0.3423007543,
				"element": "O" 
			},
			{
				"x": 1.2898240308,
				"y": 3.4670337044,
				"z": -1.8181106575,
				"element": "O" 
			},
			{
				"x": 1.8594724429,
				"y": 0.8906009852,
				"z": -1.678655986,
				"element": "C" 
			},
			{
				"x": 1.5760330843,
				"y": 0.7707654805,
				"z": -3.0434802279,
				"element": "C" 
			},
			{
				"x": 1.9224267338,
				"y": -0.3912440454,
				"z": -3.7170621319,
				"element": "C" 
			},
			{
				"x": 2.5607923757,
				"y": -1.4502998658,
				"z": -3.0388834943,
				"element": "C" 
			},
			{
				"x": 2.9500367801,
				"y": -2.5873841373,
				"z": -3.7209573695,
				"element": "N" 
			},
			{
				"x": 2.8440725888,
				"y": -1.3054975976,
				"z": -1.6651915334,
				"element": "C" 
			},
			{
				"x": 2.4976964058,
				"y": -0.1448913859,
				"z": -0.9886374332,
				"element": "C" 
			},
			{
				"x": 0.1451363689,
				"y": 0.4982336855,
				"z": 1.253119945,
				"element": "N" 
			},
			{
				"x": -0.3914333948,
				"y": -0.1774636443,
				"z": 2.2799702286,
				"element": "C" 
			},
			{
				"x": 0.482900259,
				"y": -1.2005517043,
				"z": 2.9558227451,
				"element": "C" 
			},
			{
				"x": 1.4982913991,
				"y": -0.5325880053,
				"z": 3.9019721681,
				"element": "C" 
			},
			{
				"x": -1.6261669051,
				"y": 0.0125626224,
				"z": 2.7617340388,
				"element": "N" 
			},
			{
				"x": -4.7442699997,
				"y": 2.0428947655,
				"z": 4.4017938068,
				"element": "H" 
			},
			{
				"x": -3.2444245577,
				"y": 2.8839071808,
				"z": 3.9770860058,
				"element": "H" 
			},
			{
				"x": -3.1757959747,
				"y": 1.2922057043,
				"z": 4.7564392099,
				"element": "H" 
			},
			{
				"x": -4.2532057263,
				"y": 0.2516452496,
				"z": 2.7380125068,
				"element": "H" 
			},
			{
				"x": -4.2741735247,
				"y": 1.8311814655,
				"z": 1.9252325467,
				"element": "H" 
			},
			{
				"x": -0.8085910156,
				"y": 2.9141547835,
				"z": -0.6622680736,
				"element": "H" 
			},
			{
				"x": 1.1016488066,
				"y": 1.5917363272,
				"z": -3.569912559,
				"element": "H" 
			},
			{
				"x": 1.7126021255,
				"y": -0.484236246,
				"z": -4.7791941415,
				"element": "H" 
			},
			{
				"x": 2.4933736806,
				"y": -2.7766789549,
				"z": -4.6005433614,
				"element": "H" 
			},
			{
				"x": 3.1372536548,
				"y": -3.4128990592,
				"z": -3.171860912,
				"element": "H" 
			},
			{
				"x": 3.3466110348,
				"y": -2.1103641943,
				"z": -1.1354185443,
				"element": "H" 
			},
			{
				"x": 2.7093693301,
				"y": -0.0316081472,
				"z": 0.0673497066,
				"element": "H" 
			},
			{
				"x": 1.0183589112,
				"y": -1.7627115834,
				"z": 2.1833234044,
				"element": "H" 
			},
			{
				"x": -0.1577906773,
				"y": -1.8902438455,
				"z": 3.5111554231,
				"element": "H" 
			},
			{
				"x": 2.1272611566,
				"y": 0.1762847972,
				"z": 3.3557684541,
				"element": "H" 
			},
			{
				"x": 0.9858392748,
				"y": 0.0111562157,
				"z": 4.7016586638,
				"element": "H" 
			},
			{
				"x": 2.1442871259,
				"y": -1.2854932546,
				"z": 4.3635343717,
				"element": "H" 
			}
		],
		 "valence_orbital": [ 
			{
				"type": "occ",
				"energy": -0.26984,
				"method": "rhf"
			},
			{
				"type": "occ",
				"energy": -0.2659,
				"method": "rhf"
			},
			{
				"type": "occ",
				"energy": -0.26392,
				"method": "rhf"
			},
			{
				"type": "occ",
				"energy": -0.26027,
				"method": "rhf"
			},
			{
				"type": "occ",
				"energy": -0.22348,
				"method": "rhf"
			},
			{
				"type": "unocc",
				"energy": -0.03747,
				"method": "rhf"
			},
			{
				"type": "unocc",
				"energy": -0.02804,
				"method": "rhf"
			},
			{
				"type": "unocc",
				"energy": -0.02145,
				"method": "rhf"
			},
			{
				"type": "unocc",
				"energy": -0.01461,
				"method": "rhf"
			},
			{
				"type": "unocc",
				"energy": 0.05362,
				"method": "rhf"
			}
		],
		"cosmo_sigma_profile": { 
			"-0.025": 0.0,
			"-0.024": 0.0,
			"-0.023": 0.0,
			"-0.022": 0.0,
			"-0.021": 0.0,
			"-0.02": 0.0,
			"-0.019": 0.0,
			"-0.018": 0.0,
			"-0.017": 0.0,
			"-0.016": 0.09608466793,
			"-0.015": 0.858676037975,
			"-0.014": 0.967016284849,
			"-0.013": 3.23981840769,
			"-0.012": 4.48376241124,
			"-0.011": 4.05918146899,
			"-0.01": 3.08616397326,
			"-0.009": 4.36056804763,
			"-0.008": 4.70649208042,
			"-0.007": 5.66416542803,
			"-0.006": 7.62973999261,
			"-0.005": 10.9264491739,
			"-0.004": 21.7840395969,
			"-0.003": 29.8914688033,
			"-0.002": 38.394090911,
			"-0.001": 36.2727845276,
			"0.0": 31.0058091352,
			"0.001": 23.0204474247,
			"0.002": 17.3458198606,
			"0.003": 19.5530719126,
			"0.004": 18.5591540142,
			"0.005": 8.51551961249,
			"0.006": 5.67846071216,
			"0.007": 7.68625799304,
			"0.008": 6.78634374654,
			"0.009": 7.37707054532,
			"0.01": 12.1242485585,
			"0.011": 8.99858675836,
			"0.012": 2.12970134506,
			"0.013": 0.582263761132,
			"0.014": 0.706794709359,
			"0.015": 0.0178459446,
			"0.016": 0.0,
			"0.017": 0.0,
			"0.018": 0.0,
			"0.019": 0.0,
			"0.02": 0.0,
			"0.021": 0.0,
			"0.022": 0.0,
			"0.023": 0.0,
			"0.024": 0.0,
			"0.025": 0.0
		}
	}
}
