{
	 "smiles": "COC1=C(C)C2=CC=CC=C2C=C1", 
	 "Tm": 399.15, 
	 "num_atms": 25, 
	 "gaussian": { 
		 "optdone": 1, 
		 "sigma_profile": "yes", 
		 "theory": "DFT", 
		 "functional": "B3LYP", 
		 "basiset": "6-31G**", 
		 "properties": { 
			 "R2extent": 2606.5584, 
			 "electric_dipole_moment_norm": 1.53378723753, 
			 "electric_quadrupole_moment_norm": 10.3330749847, 
			 "total_energy": -539.73675311, 
			 "HOMO_LUMO_gap": 0.16283, 
			 "cosmo_polarized_energy": -6.22, 
			 "cosmo_cavitation_energy": 27.45, 
			 "cosmo_dispersion_energy": -20.51, 
			 "cosmo_repulsion_energy": 1.59, 
			 "cosmo_total_nonelectrostatic_energy": 8.53, 
			 "SMD_solvation_energy": 5.19 
		},
		"coords": [
			{
				"x": -0.6644233877,
				"y": 1.8550121116,
				"z": -3.1261299617,
				"element": "C" 
			},
			{
				"x": -1.0251781742,
				"y": 1.7883856415,
				"z": -1.7578617964,
				"element": "O" 
			},
			{
				"x": -0.4132048377,
				"y": 0.8645125468,
				"z": -0.9491908207,
				"element": "C" 
			},
			{
				"x": -0.8075461844,
				"y": 0.8449470098,
				"z": 0.3861679226,
				"element": "C" 
			},
			{
				"x": -1.8586246407,
				"y": 1.8054992807,
				"z": 0.8889615999,
				"element": "C" 
			},
			{
				"x": -0.1983405565,
				"y": -0.1000418242,
				"z": 1.267020712,
				"element": "C" 
			},
			{
				"x": -0.5468353246,
				"y": -0.1836448596,
				"z": 2.6466946624,
				"element": "C" 
			},
			{
				"x": 0.0515672577,
				"y": -1.101454742,
				"z": 3.4809432341,
				"element": "C" 
			},
			{
				"x": 1.0354009243,
				"y": -1.9927777118,
				"z": 2.9883493768,
				"element": "C" 
			},
			{
				"x": 1.3975103326,
				"y": -1.9415805872,
				"z": 1.6622927782,
				"element": "C" 
			},
			{
				"x": 0.7996697945,
				"y": -1.0067740011,
				"z": 0.7749077468,
				"element": "C" 
			},
			{
				"x": 1.1616218664,
				"y": -0.9417444259,
				"z": -0.5924212583,
				"element": "C" 
			},
			{
				"x": 0.5732651112,
				"y": -0.0310200126,
				"z": -1.4378978047,
				"element": "C" 
			},
			{
				"x": -0.8789726221,
				"y": 0.9162031299,
				"z": -3.6532787478,
				"element": "H" 
			},
			{
				"x": 0.3961069237,
				"y": 2.1057227899,
				"z": -3.2591733732,
				"element": "H" 
			},
			{
				"x": -1.2737910157,
				"y": 2.6511559794,
				"z": -3.55761065,
				"element": "H" 
			},
			{
				"x": -1.4654809844,
				"y": 2.4433107326,
				"z": 1.689600956,
				"element": "H" 
			},
			{
				"x": -2.7238970265,
				"y": 1.2709619923,
				"z": 1.2988145172,
				"element": "H" 
			},
			{
				"x": -2.2109403138,
				"y": 2.4513900281,
				"z": 0.0858612795,
				"element": "H" 
			},
			{
				"x": -1.2978687187,
				"y": 0.4889167136,
				"z": 3.0464499519,
				"element": "H" 
			},
			{
				"x": -0.2333322377,
				"y": -1.1431938561,
				"z": 4.5286343513,
				"element": "H" 
			},
			{
				"x": 1.4991277183,
				"y": -2.7115603183,
				"z": 3.6575546671,
				"element": "H" 
			},
			{
				"x": 2.1514919259,
				"y": -2.6196954662,
				"z": 1.2696283426,
				"element": "H" 
			},
			{
				"x": 1.916588034,
				"y": -1.6251343975,
				"z": -0.9724094742,
				"element": "H" 
			},
			{
				"x": 0.8682861361,
				"y": -0.0020957538,
				"z": -2.4798082114,
				"element": "H" 
			}
		],
		 "valence_orbital": [ 
			{
				"type": "occ",
				"energy": -0.31363,
				"method": "rhf"
			},
			{
				"type": "occ",
				"energy": -0.29716,
				"method": "rhf"
			},
			{
				"type": "occ",
				"energy": -0.26422,
				"method": "rhf"
			},
			{
				"type": "occ",
				"energy": -0.22691,
				"method": "rhf"
			},
			{
				"type": "occ",
				"energy": -0.19507,
				"method": "rhf"
			},
			{
				"type": "unocc",
				"energy": -0.03224,
				"method": "rhf"
			},
			{
				"type": "unocc",
				"energy": 0.00477,
				"method": "rhf"
			},
			{
				"type": "unocc",
				"energy": 0.04204,
				"method": "rhf"
			},
			{
				"type": "unocc",
				"energy": 0.09586,
				"method": "rhf"
			},
			{
				"type": "unocc",
				"energy": 0.10553,
				"method": "rhf"
			}
		],
		"cosmo_sigma_profile": { 
			"-0.025": 0.0,
			"-0.024": 0.0,
			"-0.023": 0.0,
			"-0.022": 0.0,
			"-0.021": 0.0,
			"-0.02": 0.0,
			"-0.019": 0.0,
			"-0.018": 0.0,
			"-0.017": 0.0,
			"-0.016": 0.0,
			"-0.015": 0.0,
			"-0.014": 0.0,
			"-0.013": 0.0,
			"-0.012": 0.0,
			"-0.011": 0.0,
			"-0.01": 0.0,
			"-0.009": 0.0,
			"-0.008": 0.0,
			"-0.007": 0.310004872865,
			"-0.006": 8.14583837964,
			"-0.005": 20.3793351606,
			"-0.004": 23.0061316661,
			"-0.003": 24.900451435,
			"-0.002": 16.529481015,
			"-0.001": 15.3659156021,
			"0.0": 13.4345350531,
			"0.001": 14.268093852,
			"0.002": 10.7310137953,
			"0.003": 13.2930408494,
			"0.004": 20.6860105635,
			"0.005": 22.5662920312,
			"0.006": 10.3360499575,
			"0.007": 2.90659504659,
			"0.008": 1.00726941407,
			"0.009": 0.6025367482,
			"0.01": 0.0,
			"0.011": 0.0,
			"0.012": 0.0,
			"0.013": 0.0,
			"0.014": 0.0,
			"0.015": 0.0,
			"0.016": 0.0,
			"0.017": 0.0,
			"0.018": 0.0,
			"0.019": 0.0,
			"0.02": 0.0,
			"0.021": 0.0,
			"0.022": 0.0,
			"0.023": 0.0,
			"0.024": 0.0,
			"0.025": 0.0
		}
	}
}
