{
	 "smiles": "COC1=CC=C(C=C1)N1C=CN=C1SCC(O)=O", 
	 "Tm": 399.15, 
	 "num_atms": 30, 
	 "gaussian": { 
		 "optdone": 1, 
		 "sigma_profile": "yes", 
		 "theory": "DFT", 
		 "functional": "B3LYP", 
		 "basiset": "6-31G**", 
		 "properties": { 
			 "R2extent": 8614.0791, 
			 "electric_dipole_moment_norm": 9.37666611222, 
			 "electric_quadrupole_moment_norm": 46.9903090882, 
			 "total_energy": -1197.86482294, 
			 "HOMO_LUMO_gap": 0.19143, 
			 "cosmo_polarized_energy": -17.43, 
			 "cosmo_cavitation_energy": 36.17, 
			 "cosmo_dispersion_energy": -26.19, 
			 "cosmo_repulsion_energy": 1.98, 
			 "cosmo_total_nonelectrostatic_energy": 11.96, 
			 "SMD_solvation_energy": 8.09 
		},
		"coords": [
			{
				"x": 0.4303463103,
				"y": 1.5569469405,
				"z": -3.6556960847,
				"element": "C" 
			},
			{
				"x": -0.4661769556,
				"y": 1.8003438778,
				"z": -2.5798559325,
				"element": "O" 
			},
			{
				"x": -0.2171669982,
				"y": 1.2095991326,
				"z": -1.3814481726,
				"element": "C" 
			},
			{
				"x": 0.8786355937,
				"y": 0.3774892415,
				"z": -1.1150984825,
				"element": "C" 
			},
			{
				"x": 1.0389632639,
				"y": -0.1708812387,
				"z": 0.1582410932,
				"element": "C" 
			},
			{
				"x": 0.1062496729,
				"y": 0.0918824472,
				"z": 1.1604286008,
				"element": "C" 
			},
			{
				"x": -0.9920793659,
				"y": 0.9195975209,
				"z": 0.8936891481,
				"element": "C" 
			},
			{
				"x": -1.1490384963,
				"y": 1.4798920114,
				"z": -0.3656818546,
				"element": "C" 
			},
			{
				"x": 0.2748434899,
				"y": -0.4591356996,
				"z": 2.472336282,
				"element": "N" 
			},
			{
				"x": 0.4856779009,
				"y": 0.2738769729,
				"z": 3.6371890975,
				"element": "C" 
			},
			{
				"x": 0.5735579301,
				"y": -0.6374828737,
				"z": 4.6499789706,
				"element": "C" 
			},
			{
				"x": 0.4067913465,
				"y": -1.9131047864,
				"z": 4.1504751268,
				"element": "N" 
			},
			{
				"x": 0.2320012692,
				"y": -1.7774110228,
				"z": 2.8466619245,
				"element": "C" 
			},
			{
				"x": -0.0730031849,
				"y": -3.0940371732,
				"z": 1.7093613393,
				"element": "S" 
			},
			{
				"x": 0.6260581408,
				"y": -4.505702176,
				"z": 2.6692591323,
				"element": "C" 
			},
			{
				"x": -0.2963438343,
				"y": -5.1159033196,
				"z": 3.7372693014,
				"element": "C" 
			},
			{
				"x": -0.5711237809,
				"y": -4.3501567129,
				"z": 4.791665744,
				"element": "O" 
			},
			{
				"x": -0.7106482203,
				"y": -6.2478428759,
				"z": 3.6221931246,
				"element": "O" 
			},
			{
				"x": 1.4417391691,
				"y": 1.9155195246,
				"z": -3.4267984649,
				"element": "H" 
			},
			{
				"x": 0.4735369946,
				"y": 0.4907504415,
				"z": -3.9105415045,
				"element": "H" 
			},
			{
				"x": 0.0356979138,
				"y": 2.1142310124,
				"z": -4.5060153729,
				"element": "H" 
			},
			{
				"x": 1.612260522,
				"y": 0.157014025,
				"z": -1.880599098,
				"element": "H" 
			},
			{
				"x": 1.8927019876,
				"y": -0.8050817352,
				"z": 0.3714095868,
				"element": "H" 
			},
			{
				"x": -1.7205035894,
				"y": 1.1130435864,
				"z": 1.6747760931,
				"element": "H" 
			},
			{
				"x": -1.9920401123,
				"y": 2.1231799297,
				"z": -0.593413696,
				"element": "H" 
			},
			{
				"x": 0.5666290768,
				"y": 1.3488652716,
				"z": 3.6106325516,
				"element": "H" 
			},
			{
				"x": 0.741004065,
				"y": -0.4633328297,
				"z": 5.7026703164,
				"element": "H" 
			},
			{
				"x": 1.5714399488,
				"y": -4.1758178173,
				"z": 3.1089633149,
				"element": "H" 
			},
			{
				"x": 0.8185468472,
				"y": -5.2768757564,
				"z": 1.9232599324,
				"element": "H" 
			},
			{
				"x": -0.1547569051,
				"y": -3.4448659189,
				"z": 4.7025879825,
				"element": "H" 
			}
		],
		 "valence_orbital": [ 
			{
				"type": "occ",
				"energy": -0.28485,
				"method": "rhf"
			},
			{
				"type": "occ",
				"energy": -0.27709,
				"method": "rhf"
			},
			{
				"type": "occ",
				"energy": -0.24823,
				"method": "rhf"
			},
			{
				"type": "occ",
				"energy": -0.24238,
				"method": "rhf"
			},
			{
				"type": "occ",
				"energy": -0.2204,
				"method": "rhf"
			},
			{
				"type": "unocc",
				"energy": -0.02897,
				"method": "rhf"
			},
			{
				"type": "unocc",
				"energy": -0.02175,
				"method": "rhf"
			},
			{
				"type": "unocc",
				"energy": -0.00674,
				"method": "rhf"
			},
			{
				"type": "unocc",
				"energy": 0.01423,
				"method": "rhf"
			},
			{
				"type": "unocc",
				"energy": 0.03995,
				"method": "rhf"
			}
		],
		"cosmo_sigma_profile": { 
			"-0.025": 0.0,
			"-0.024": 0.0,
			"-0.023": 0.0,
			"-0.022": 0.0,
			"-0.021": 0.0,
			"-0.02": 0.0,
			"-0.019": 0.0,
			"-0.018": 0.0,
			"-0.017": 0.0,
			"-0.016": 0.0,
			"-0.015": 0.0,
			"-0.014": 0.0,
			"-0.013": 0.0,
			"-0.012": 0.0,
			"-0.011": 0.0,
			"-0.01": 0.173729294273,
			"-0.009": 2.61096386402,
			"-0.008": 6.37846829054,
			"-0.007": 13.2891335483,
			"-0.006": 20.3617062114,
			"-0.005": 24.9716615458,
			"-0.004": 22.1646116445,
			"-0.003": 20.6717825187,
			"-0.002": 17.5176900361,
			"-0.001": 17.3110304185,
			"0.0": 18.5516066731,
			"0.001": 18.2708639811,
			"0.002": 21.1021895545,
			"0.003": 23.3109091713,
			"0.004": 18.3766827602,
			"0.005": 7.86518279007,
			"0.006": 5.71585688775,
			"0.007": 3.6370719019,
			"0.008": 3.55389048253,
			"0.009": 4.35947203813,
			"0.01": 4.05791170018,
			"0.011": 5.31129406065,
			"0.012": 7.50707071615,
			"0.013": 3.76015931469,
			"0.014": 0.521854184473,
			"0.015": 0.0,
			"0.016": 0.0,
			"0.017": 0.0,
			"0.018": 0.0,
			"0.019": 0.0,
			"0.02": 0.0,
			"0.021": 0.0,
			"0.022": 0.0,
			"0.023": 0.0,
			"0.024": 0.0,
			"0.025": 0.0
		}
	}
}
