{
	 "smiles": "OC1=CC2=C(C=C1)C1=C(CCC1)C(=O)O2", 
	 "Tm": 488.15, 
	 "num_atms": 25, 
	 "gaussian": { 
		 "optdone": 1, 
		 "sigma_profile": "yes", 
		 "theory": "DFT", 
		 "functional": "B3LYP", 
		 "basiset": "6-31G**", 
		 "properties": { 
			 "R2extent": 3393.5037, 
			 "electric_dipole_moment_norm": 6.29581717412, 
			 "electric_quadrupole_moment_norm": 9.25343408363, 
			 "total_energy": -688.988854732, 
			 "HOMO_LUMO_gap": 0.16325, 
			 "cosmo_polarized_energy": -15.99, 
			 "cosmo_cavitation_energy": 28.46, 
			 "cosmo_dispersion_energy": -21.45, 
			 "cosmo_repulsion_energy": 1.66, 
			 "cosmo_total_nonelectrostatic_energy": 8.67, 
			 "SMD_solvation_energy": 5.55 
		},
		"coords": [
			{
				"x": 0.5894946643,
				"y": 1.1388684458,
				"z": -4.1261426841,
				"element": "O" 
			},
			{
				"x": 0.431115029,
				"y": 0.4483778623,
				"z": -2.9639399623,
				"element": "C" 
			},
			{
				"x": 0.668353621,
				"y": 1.1396318222,
				"z": -1.7756986543,
				"element": "C" 
			},
			{
				"x": 0.5174545074,
				"y": 0.4712391811,
				"z": -0.5634415825,
				"element": "C" 
			},
			{
				"x": 0.1325575208,
				"y": -0.8893587905,
				"z": -0.5090087072,
				"element": "C" 
			},
			{
				"x": -0.0995143752,
				"y": -1.5564191118,
				"z": -1.7247844373,
				"element": "C" 
			},
			{
				"x": 0.0446878768,
				"y": -0.9044631547,
				"z": -2.9400270008,
				"element": "C" 
			},
			{
				"x": 0.0161004386,
				"y": -1.4742508481,
				"z": 0.799563453,
				"element": "C" 
			},
			{
				"x": 0.2553628151,
				"y": -0.7391631726,
				"z": 1.9172700328,
				"element": "C" 
			},
			{
				"x": 0.0455651777,
				"y": -1.5241504808,
				"z": 3.1860470432,
				"element": "C" 
			},
			{
				"x": -0.0369403043,
				"y": -2.9857342251,
				"z": 2.6673041893,
				"element": "C" 
			},
			{
				"x": -0.3984522035,
				"y": -2.8822596846,
				"z": 1.1594669021,
				"element": "C" 
			},
			{
				"x": 0.6316180017,
				"y": 0.6593102415,
				"z": 1.8612110559,
				"element": "C" 
			},
			{
				"x": 0.8476269075,
				"y": 1.3955173733,
				"z": 2.7963442003,
				"element": "O" 
			},
			{
				"x": 0.7576969852,
				"y": 1.1927503495,
				"z": 0.5683454897,
				"element": "O" 
			},
			{
				"x": 0.3977490354,
				"y": 0.5574198403,
				"z": -4.8734340676,
				"element": "H" 
			},
			{
				"x": 0.9643574822,
				"y": 2.1815544118,
				"z": -1.7935183899,
				"element": "H" 
			},
			{
				"x": -0.3976756755,
				"y": -2.6001512459,
				"z": -1.7078083286,
				"element": "H" 
			},
			{
				"x": -0.138634163,
				"y": -1.4334225209,
				"z": -3.8720928639,
				"element": "H" 
			},
			{
				"x": -0.8821280562,
				"y": -1.2096943622,
				"z": 3.6834304125,
				"element": "H" 
			},
			{
				"x": 0.8505995655,
				"y": -1.3714870953,
				"z": 3.9115070924,
				"element": "H" 
			},
			{
				"x": -0.7529058019,
				"y": -3.5933669375,
				"z": 3.2265890671,
				"element": "H" 
			},
			{
				"x": 0.943149532,
				"y": -3.4627924298,
				"z": 2.7695351609,
				"element": "H" 
			},
			{
				"x": -1.4769018555,
				"y": -3.0062558159,
				"z": 0.9864979067,
				"element": "H" 
			},
			{
				"x": 0.1038632746,
				"y": -3.6427996521,
				"z": 0.5511846726,
				"element": "H" 
			}
		],
		 "valence_orbital": [ 
			{
				"type": "occ",
				"energy": -0.32548,
				"method": "rhf"
			},
			{
				"type": "occ",
				"energy": -0.2802,
				"method": "rhf"
			},
			{
				"type": "occ",
				"energy": -0.26623,
				"method": "rhf"
			},
			{
				"type": "occ",
				"energy": -0.24868,
				"method": "rhf"
			},
			{
				"type": "occ",
				"energy": -0.21697,
				"method": "rhf"
			},
			{
				"type": "unocc",
				"energy": -0.05372,
				"method": "rhf"
			},
			{
				"type": "unocc",
				"energy": -0.01008,
				"method": "rhf"
			},
			{
				"type": "unocc",
				"energy": 0.01221,
				"method": "rhf"
			},
			{
				"type": "unocc",
				"energy": 0.05859,
				"method": "rhf"
			},
			{
				"type": "unocc",
				"energy": 0.083,
				"method": "rhf"
			}
		],
		"cosmo_sigma_profile": { 
			"-0.025": 0.0,
			"-0.024": 0.0,
			"-0.023": 0.0,
			"-0.022": 0.0,
			"-0.021": 0.0,
			"-0.02": 0.0,
			"-0.019": 0.0792540642935,
			"-0.018": 0.995896759788,
			"-0.017": 1.27092426922,
			"-0.016": 1.2223638295,
			"-0.015": 0.805299010591,
			"-0.014": 1.29029808979,
			"-0.013": 0.851468187075,
			"-0.012": 1.01414598754,
			"-0.011": 0.411652804245,
			"-0.01": 1.54323035725,
			"-0.009": 1.35945295206,
			"-0.008": 1.1851478686,
			"-0.007": 4.21919885798,
			"-0.006": 5.98000133219,
			"-0.005": 10.50317536,
			"-0.004": 15.7180427454,
			"-0.003": 22.6817225084,
			"-0.002": 24.2045106284,
			"-0.001": 20.8975349068,
			"0.0": 20.1185277095,
			"0.001": 15.1781521486,
			"0.002": 15.8335772682,
			"0.003": 14.1124028393,
			"0.004": 6.5097071388,
			"0.005": 4.07226654497,
			"0.006": 4.41598666252,
			"0.007": 3.4954347082,
			"0.008": 3.35948183651,
			"0.009": 3.22392078534,
			"0.01": 5.15648631973,
			"0.011": 4.30260696928,
			"0.012": 5.67994378666,
			"0.013": 4.20877635052,
			"0.014": 0.522280150754,
			"0.015": 0.0,
			"0.016": 0.0,
			"0.017": 0.0,
			"0.018": 0.0,
			"0.019": 0.0,
			"0.02": 0.0,
			"0.021": 0.0,
			"0.022": 0.0,
			"0.023": 0.0,
			"0.024": 0.0,
			"0.025": 0.0
		}
	}
}
