{
	 "smiles": "CC1C2C(CC3C4CC=C5CC(O)CCC5(C)C4CCC23C)OC11CCC(C)CN1", 
	 "Tm": 475.15, 
	 "num_atms": 73, 
	 "gaussian": { 
		 "optdone": 1, 
		 "sigma_profile": "yes", 
		 "theory": "DFT", 
		 "functional": "B3LYP", 
		 "basiset": "6-31G**", 
		 "properties": { 
			 "R2extent": 16989.1332, 
			 "electric_dipole_moment_norm": 1.65966143837, 
			 "electric_quadrupole_moment_norm": 10.2669135046, 
			 "total_energy": -1259.98094288, 
			 "HOMO_LUMO_gap": 0.23753, 
			 "cosmo_polarized_energy": -11.5, 
			 "cosmo_cavitation_energy": 60.97, 
			 "cosmo_dispersion_energy": -41.33, 
			 "cosmo_repulsion_energy": 3.03, 
			 "cosmo_total_nonelectrostatic_energy": 22.67, 
			 "SMD_solvation_energy": 7.03 
		},
		"coords": [
			{
				"x": -4.2555921782,
				"y": -0.1558664345,
				"z": 1.5758863847,
				"element": "C" 
			},
			{
				"x": -3.0172038692,
				"y": -0.6960518098,
				"z": 0.8556645385,
				"element": "C" 
			},
			{
				"x": -1.671338459,
				"y": -0.1875731259,
				"z": 1.430169074,
				"element": "C" 
			},
			{
				"x": -0.8543439294,
				"y": -1.4759910494,
				"z": 1.7012217263,
				"element": "C" 
			},
			{
				"x": 0.6121636938,
				"y": -1.1773661722,
				"z": 1.3375114125,
				"element": "C" 
			},
			{
				"x": 0.6513439271,
				"y": 0.3653409104,
				"z": 1.1823732694,
				"element": "C" 
			},
			{
				"x": 1.8608464879,
				"y": 1.0235948434,
				"z": 0.4765890019,
				"element": "C" 
			},
			{
				"x": 3.2115633356,
				"y": 0.4340611927,
				"z": 0.9361647731,
				"element": "C" 
			},
			{
				"x": 4.3352547395,
				"y": 1.1807146552,
				"z": 0.2691065065,
				"element": "C" 
			},
			{
				"x": 4.2563423295,
				"y": 1.5254171156,
				"z": -1.0212509267,
				"element": "C" 
			},
			{
				"x": 5.3150271764,
				"y": 2.3224830754,
				"z": -1.7375515766,
				"element": "C" 
			},
			{
				"x": 4.7477891609,
				"y": 3.6321274643,
				"z": -2.3398594337,
				"element": "C" 
			},
			{
				"x": 5.4948420618,
				"y": 4.0321407805,
				"z": -3.4911635051,
				"element": "O" 
			},
			{
				"x": 3.2862845303,
				"y": 3.4472976012,
				"z": -2.7866268379,
				"element": "C" 
			},
			{
				"x": 2.9713750778,
				"y": 1.9873308544,
				"z": -3.1328396774,
				"element": "C" 
			},
			{
				"x": 3.0790932262,
				"y": 1.0591572177,
				"z": -1.884378325,
				"element": "C" 
			},
			{
				"x": 3.4154044448,
				"y": -0.3748942084,
				"z": -2.3696106802,
				"element": "C" 
			},
			{
				"x": 1.7186167685,
				"y": 1.1217880347,
				"z": -1.0798306101,
				"element": "C" 
			},
			{
				"x": 0.6594498066,
				"y": 0.1427316221,
				"z": -1.610072056,
				"element": "C" 
			},
			{
				"x": -0.7319373157,
				"y": 0.318223917,
				"z": -0.9609174031,
				"element": "C" 
			},
			{
				"x": -0.7304261469,
				"y": 0.7066394098,
				"z": 0.5561541597,
				"element": "C" 
			},
			{
				"x": -1.0915428808,
				"y": 2.1924554407,
				"z": 0.7179638314,
				"element": "C" 
			},
			{
				"x": -1.4309063697,
				"y": -2.4644627232,
				"z": 0.8501317287,
				"element": "O" 
			},
			{
				"x": -2.875045766,
				"y": -2.2627348843,
				"z": 0.8599351162,
				"element": "C" 
			},
			{
				"x": -3.4153185833,
				"y": -2.9463275993,
				"z": -0.3969590169,
				"element": "C" 
			},
			{
				"x": -3.0812286111,
				"y": -4.4572732404,
				"z": -0.439869972,
				"element": "C" 
			},
			{
				"x": -2.9541264384,
				"y": -5.0793760707,
				"z": 0.9711101159,
				"element": "C" 
			},
			{
				"x": -3.2868977582,
				"y": -6.5742049364,
				"z": 0.9744033178,
				"element": "C" 
			},
			{
				"x": -3.8465740842,
				"y": -4.2913794041,
				"z": 1.9422797321,
				"element": "C" 
			},
			{
				"x": -3.5242949455,
				"y": -2.856289587,
				"z": 2.0145981079,
				"element": "N" 
			},
			{
				"x": -4.2351754414,
				"y": -0.3809083753,
				"z": 2.6457145151,
				"element": "H" 
			},
			{
				"x": -5.1730185978,
				"y": -0.5952399843,
				"z": 1.1724256059,
				"element": "H" 
			},
			{
				"x": -4.3195533696,
				"y": 0.9316961358,
				"z": 1.4572398076,
				"element": "H" 
			},
			{
				"x": -3.0933098042,
				"y": -0.398880514,
				"z": -0.1952776563,
				"element": "H" 
			},
			{
				"x": -1.8449074561,
				"y": 0.3498973035,
				"z": 2.3710746276,
				"element": "H" 
			},
			{
				"x": -0.939887338,
				"y": -1.7947854844,
				"z": 2.7533495447,
				"element": "H" 
			},
			{
				"x": 1.310752306,
				"y": -1.5349207608,
				"z": 2.0995257843,
				"element": "H" 
			},
			{
				"x": 0.850809405,
				"y": -1.7003176414,
				"z": 0.4083786601,
				"element": "H" 
			},
			{
				"x": 0.6427350431,
				"y": 0.7677032771,
				"z": 2.2074041899,
				"element": "H" 
			},
			{
				"x": 1.8819625075,
				"y": 2.0602997068,
				"z": 0.8350467097,
				"element": "H" 
			},
			{
				"x": 3.2625187373,
				"y": -0.6398721722,
				"z": 0.7074608855,
				"element": "H" 
			},
			{
				"x": 3.2904468304,
				"y": 0.5114782994,
				"z": 2.0274595478,
				"element": "H" 
			},
			{
				"x": 5.2030801545,
				"y": 1.4689569752,
				"z": 0.8604778625,
				"element": "H" 
			},
			{
				"x": 6.1625086752,
				"y": 2.5321792008,
				"z": -1.0743535869,
				"element": "H" 
			},
			{
				"x": 5.7047473911,
				"y": 1.7402531891,
				"z": -2.5850227549,
				"element": "H" 
			},
			{
				"x": 4.790362488,
				"y": 4.4253583283,
				"z": -1.5770635666,
				"element": "H" 
			},
			{
				"x": 6.4233096935,
				"y": 4.100025745,
				"z": -3.2320188846,
				"element": "H" 
			},
			{
				"x": 2.6227070578,
				"y": 3.7848134044,
				"z": -1.9811673708,
				"element": "H" 
			},
			{
				"x": 3.1090636051,
				"y": 4.1070234719,
				"z": -3.6417225965,
				"element": "H" 
			},
			{
				"x": 1.969259382,
				"y": 1.9026908789,
				"z": -3.5688934484,
				"element": "H" 
			},
			{
				"x": 3.6689103126,
				"y": 1.6511626832,
				"z": -3.9095078248,
				"element": "H" 
			},
			{
				"x": 4.4062610739,
				"y": -0.3864346233,
				"z": -2.8357255899,
				"element": "H" 
			},
			{
				"x": 2.6987617988,
				"y": -0.7269581452,
				"z": -3.1181530695,
				"element": "H" 
			},
			{
				"x": 3.4309148929,
				"y": -1.0964159113,
				"z": -1.5479857564,
				"element": "H" 
			},
			{
				"x": 1.3211528043,
				"y": 2.1265949706,
				"z": -1.2737625999,
				"element": "H" 
			},
			{
				"x": 0.5495811642,
				"y": 0.2613495866,
				"z": -2.6947569756,
				"element": "H" 
			},
			{
				"x": 1.0012250413,
				"y": -0.8855643543,
				"z": -1.4617361056,
				"element": "H" 
			},
			{
				"x": -1.2905954927,
				"y": 1.0827007414,
				"z": -1.5146495808,
				"element": "H" 
			},
			{
				"x": -1.2724006556,
				"y": -0.6192937348,
				"z": -1.1107728139,
				"element": "H" 
			},
			{
				"x": -1.0389892937,
				"y": 2.5023725475,
				"z": 1.7683799331,
				"element": "H" 
			},
			{
				"x": -0.4217976542,
				"y": 2.841136108,
				"z": 0.1433084131,
				"element": "H" 
			},
			{
				"x": -2.11084654,
				"y": 2.3860627904,
				"z": 0.3637856757,
				"element": "H" 
			},
			{
				"x": -4.5011566217,
				"y": -2.7970034077,
				"z": -0.4076323182,
				"element": "H" 
			},
			{
				"x": -3.0146171528,
				"y": -2.4407111533,
				"z": -1.280119925,
				"element": "H" 
			},
			{
				"x": -2.1478741101,
				"y": -4.6165736548,
				"z": -0.9886422552,
				"element": "H" 
			},
			{
				"x": -3.8683372903,
				"y": -4.9762072463,
				"z": -1.0021042635,
				"element": "H" 
			},
			{
				"x": -1.9187772128,
				"y": -4.9437719247,
				"z": 1.3043211982,
				"element": "H" 
			},
			{
				"x": -2.6693080831,
				"y": -7.1181118345,
				"z": 0.2511808133,
				"element": "H" 
			},
			{
				"x": -3.1167667155,
				"y": -7.022642681,
				"z": 1.9599322335,
				"element": "H" 
			},
			{
				"x": -4.3368169103,
				"y": -6.7457602987,
				"z": 0.7060665628,
				"element": "H" 
			},
			{
				"x": -3.7790783528,
				"y": -4.7085801593,
				"z": 2.9532621024,
				"element": "H" 
			},
			{
				"x": -4.8970214559,
				"y": -4.4132126404,
				"z": 1.6324710661,
				"element": "H" 
			},
			{
				"x": -3.0152542466,
				"y": -2.6381015318,
				"z": 2.8629704284,
				"element": "H" 
			}
		],
		 "valence_orbital": [ 
			{
				"type": "occ",
				"energy": -0.26842,
				"method": "rhf"
			},
			{
				"type": "occ",
				"energy": -0.26092,
				"method": "rhf"
			},
			{
				"type": "occ",
				"energy": -0.25084,
				"method": "rhf"
			},
			{
				"type": "occ",
				"energy": -0.22396,
				"method": "rhf"
			},
			{
				"type": "occ",
				"energy": -0.21098,
				"method": "rhf"
			},
			{
				"type": "unocc",
				"energy": 0.02655,
				"method": "rhf"
			},
			{
				"type": "unocc",
				"energy": 0.06284,
				"method": "rhf"
			},
			{
				"type": "unocc",
				"energy": 0.07061,
				"method": "rhf"
			},
			{
				"type": "unocc",
				"energy": 0.08134,
				"method": "rhf"
			},
			{
				"type": "unocc",
				"energy": 0.08478,
				"method": "rhf"
			}
		],
		"cosmo_sigma_profile": { 
			"-0.025": 0.0,
			"-0.024": 0.0,
			"-0.023": 0.0,
			"-0.022": 0.0,
			"-0.021": 0.0,
			"-0.02": 0.0,
			"-0.019": 0.0,
			"-0.018": 0.0,
			"-0.017": 0.0,
			"-0.016": 0.0136972104985,
			"-0.015": 0.576512250997,
			"-0.014": 0.802573221936,
			"-0.013": 1.28225001712,
			"-0.012": 0.578757404,
			"-0.011": 0.634822995032,
			"-0.01": 0.985350326036,
			"-0.009": 1.92793702367,
			"-0.008": 2.73252078733,
			"-0.007": 2.59478698491,
			"-0.006": 2.64917273466,
			"-0.005": 3.59053700196,
			"-0.004": 5.79665738046,
			"-0.003": 31.7347940296,
			"-0.002": 84.0380972719,
			"-0.001": 92.6274414225,
			"0.0": 79.2703812422,
			"0.001": 61.5561327964,
			"0.002": 33.4116736421,
			"0.003": 11.3804059472,
			"0.004": 6.74895754383,
			"0.005": 6.39577269586,
			"0.006": 7.13827948489,
			"0.007": 4.93166116942,
			"0.008": 3.79162046539,
			"0.009": 4.0482712786,
			"0.01": 2.32401342667,
			"0.011": 3.12514794288,
			"0.012": 2.71119163543,
			"0.013": 2.38975584919,
			"0.014": 2.4092967213,
			"0.015": 0.886515221023,
			"0.016": 0.0,
			"0.017": 0.0,
			"0.018": 0.0,
			"0.019": 0.0,
			"0.02": 0.0,
			"0.021": 0.0,
			"0.022": 0.0,
			"0.023": 0.0,
			"0.024": 0.0,
			"0.025": 0.0
		}
	}
}
