{
	 "smiles": "OC(=O)C(=S)CC1=CC(CC(=S)C(O)=O)=CC=C1", 
	 "Tm": 358.15, 
	 "num_atms": 28, 
	 "gaussian": { 
		 "optdone": 1, 
		 "sigma_profile": "yes", 
		 "theory": "DFT", 
		 "functional": "B3LYP", 
		 "basiset": "6-31G**", 
		 "properties": { 
			 "R2extent": 5512.4588, 
			 "electric_dipole_moment_norm": 2.68448321097, 
			 "electric_quadrupole_moment_norm": 11.5977006074, 
			 "total_energy": -1560.55424743, 
			 "HOMO_LUMO_gap": 0.10709, 
			 "cosmo_polarized_energy": -16.35, 
			 "cosmo_cavitation_energy": 37.06, 
			 "cosmo_dispersion_energy": -24.55, 
			 "cosmo_repulsion_energy": 1.81, 
			 "cosmo_total_nonelectrostatic_energy": 14.31, 
			 "SMD_solvation_energy": 6.03 
		},
		"coords": [
			{
				"x": -0.063798001,
				"y": -2.5564533847,
				"z": 0.0533921457,
				"element": "O" 
			},
			{
				"x": 1.1177667269,
				"y": -1.9209837203,
				"z": -0.0168583535,
				"element": "C" 
			},
			{
				"x": 1.8035782584,
				"y": -1.8494825657,
				"z": -1.0122504279,
				"element": "O" 
			},
			{
				"x": 1.530803218,
				"y": -1.2742951806,
				"z": 1.2890666578,
				"element": "C" 
			},
			{
				"x": 1.6957428024,
				"y": -2.1600498357,
				"z": 2.6475662959,
				"element": "S" 
			},
			{
				"x": 1.847823989,
				"y": 0.1996731996,
				"z": 1.1606634244,
				"element": "C" 
			},
			{
				"x": 0.7247885233,
				"y": 0.9621488432,
				"z": 0.472860103,
				"element": "C" 
			},
			{
				"x": -0.6026829383,
				"y": 0.7508352802,
				"z": 0.866957196,
				"element": "C" 
			},
			{
				"x": -1.6671418858,
				"y": 1.3557747034,
				"z": 0.1899286203,
				"element": "C" 
			},
			{
				"x": -3.1056529894,
				"y": 1.0270481766,
				"z": 0.582646304,
				"element": "C" 
			},
			{
				"x": -3.3107775699,
				"y": -0.464601249,
				"z": 0.6061095826,
				"element": "C" 
			},
			{
				"x": -3.6363764501,
				"y": -1.3412918059,
				"z": 1.9491286781,
				"element": "S" 
			},
			{
				"x": -3.1814726549,
				"y": -1.1448626347,
				"z": -0.7609598951,
				"element": "C" 
			},
			{
				"x": -3.0202566962,
				"y": -2.4750942043,
				"z": -0.7473957725,
				"element": "O" 
			},
			{
				"x": -3.235978093,
				"y": -0.5074095695,
				"z": -1.786895137,
				"element": "O" 
			},
			{
				"x": -1.3906385103,
				"y": 2.2209392229,
				"z": -0.8737941098,
				"element": "C" 
			},
			{
				"x": -0.0706399651,
				"y": 2.4735967718,
				"z": -1.2455476185,
				"element": "C" 
			},
			{
				"x": 0.9823058006,
				"y": 1.8338580038,
				"z": -0.5899727369,
				"element": "C" 
			},
			{
				"x": -0.2624138868,
				"y": -2.9053551672,
				"z": -0.8336122943,
				"element": "H" 
			},
			{
				"x": 2.7593150894,
				"y": 0.2821360334,
				"z": 0.5545139908,
				"element": "H" 
			},
			{
				"x": 2.0713251532,
				"y": 0.5975666961,
				"z": 2.1549080483,
				"element": "H" 
			},
			{
				"x": -0.8090911512,
				"y": 0.0780604989,
				"z": 1.695183898,
				"element": "H" 
			},
			{
				"x": -3.3572676181,
				"y": 1.4394549489,
				"z": 1.563117601,
				"element": "H" 
			},
			{
				"x": -3.7816212071,
				"y": 1.4546840984,
				"z": -0.1653312002,
				"element": "H" 
			},
			{
				"x": -3.0738735242,
				"y": -2.7750633585,
				"z": 0.1832530826,
				"element": "H" 
			},
			{
				"x": -2.2077706306,
				"y": 2.6822094508,
				"z": -1.4202153588,
				"element": "H" 
			},
			{
				"x": 0.1374462307,
				"y": 3.1484537908,
				"z": -2.0704653215,
				"element": "H" 
			},
			{
				"x": 2.0053579798,
				"y": 1.9995029572,
				"z": -0.9159974026,
				"element": "H" 
			}
		],
		 "valence_orbital": [ 
			{
				"type": "occ",
				"energy": -0.2986,
				"method": "rhf"
			},
			{
				"type": "occ",
				"energy": -0.26578,
				"method": "rhf"
			},
			{
				"type": "occ",
				"energy": -0.264,
				"method": "rhf"
			},
			{
				"type": "occ",
				"energy": -0.25541,
				"method": "rhf"
			},
			{
				"type": "occ",
				"energy": -0.2369,
				"method": "rhf"
			},
			{
				"type": "unocc",
				"energy": -0.12981,
				"method": "rhf"
			},
			{
				"type": "unocc",
				"energy": -0.10483,
				"method": "rhf"
			},
			{
				"type": "unocc",
				"energy": -0.02462,
				"method": "rhf"
			},
			{
				"type": "unocc",
				"energy": -0.01836,
				"method": "rhf"
			},
			{
				"type": "unocc",
				"energy": 0.00213,
				"method": "rhf"
			}
		],
		"cosmo_sigma_profile": { 
			"-0.025": 0.0,
			"-0.024": 0.0,
			"-0.023": 0.0,
			"-0.022": 0.0,
			"-0.021": 0.0,
			"-0.02": 0.0,
			"-0.019": 0.0413685707906,
			"-0.018": 0.726125197637,
			"-0.017": 0.618740336951,
			"-0.016": 0.398761325158,
			"-0.015": 0.3571574093,
			"-0.014": 1.05337979479,
			"-0.013": 0.464654809951,
			"-0.012": 1.31558489346,
			"-0.011": 1.68879594129,
			"-0.01": 1.44998517702,
			"-0.009": 1.4931936909,
			"-0.008": 3.53019115236,
			"-0.007": 10.0490055779,
			"-0.006": 17.5514425971,
			"-0.005": 21.7378708508,
			"-0.004": 23.5291344682,
			"-0.003": 18.4010792554,
			"-0.002": 18.7467466517,
			"-0.001": 20.8298392358,
			"0.0": 25.0883015454,
			"0.001": 21.319074851,
			"0.002": 17.1526384749,
			"0.003": 16.8181156965,
			"0.004": 17.0212901964,
			"0.005": 10.730517521,
			"0.006": 9.71082290047,
			"0.007": 7.95063421876,
			"0.008": 8.36314669534,
			"0.009": 8.4591201832,
			"0.01": 8.4847411727,
			"0.011": 5.40427121749,
			"0.012": 0.834478035462,
			"0.013": 0.0,
			"0.014": 0.0,
			"0.015": 0.0,
			"0.016": 0.0,
			"0.017": 0.0,
			"0.018": 0.0,
			"0.019": 0.0,
			"0.02": 0.0,
			"0.021": 0.0,
			"0.022": 0.0,
			"0.023": 0.0,
			"0.024": 0.0,
			"0.025": 0.0
		}
	}
}
