{
	 "smiles": "OC(=O)C1=CC2=C(SC=C2)S1", 
	 "Tm": 509.15, 
	 "num_atms": 15, 
	 "gaussian": { 
		 "optdone": 1, 
		 "sigma_profile": "yes", 
		 "theory": "DFT", 
		 "functional": "B3LYP", 
		 "basiset": "6-31G**", 
		 "properties": { 
			 "R2extent": 2480.2123, 
			 "electric_dipole_moment_norm": 5.67816371814, 
			 "electric_quadrupole_moment_norm": 8.51842292916, 
			 "total_energy": -1215.95866717, 
			 "HOMO_LUMO_gap": 0.17751, 
			 "cosmo_polarized_energy": -15.58, 
			 "cosmo_cavitation_energy": 23.11, 
			 "cosmo_dispersion_energy": -18.47, 
			 "cosmo_repulsion_energy": 1.37, 
			 "cosmo_total_nonelectrostatic_energy": 6.01, 
			 "SMD_solvation_energy": 4.62 
		},
		"coords": [
			{
				"x": -1.8001982409,
				"y": 1.3557470274,
				"z": -2.3288283306,
				"element": "O" 
			},
			{
				"x": -0.9065928816,
				"y": 0.374112776,
				"z": -2.036402199,
				"element": "C" 
			},
			{
				"x": -0.5265332301,
				"y": -0.383356476,
				"z": -2.9007095719,
				"element": "O" 
			},
			{
				"x": -0.4428266995,
				"y": 0.2905185302,
				"z": -0.6365297431,
				"element": "C" 
			},
			{
				"x": -0.8650872578,
				"y": 0.9499114052,
				"z": 0.4936143993,
				"element": "C" 
			},
			{
				"x": -0.1498720733,
				"y": 0.5535652011,
				"z": 1.6614103681,
				"element": "C" 
			},
			{
				"x": 0.808695128,
				"y": -0.4195305763,
				"z": 1.3645115207,
				"element": "C" 
			},
			{
				"x": 1.6974980407,
				"y": -0.9236487949,
				"z": 2.7635145937,
				"element": "S" 
			},
			{
				"x": 0.7679952347,
				"y": 0.1856096186,
				"z": 3.7607504367,
				"element": "C" 
			},
			{
				"x": -0.1596161431,
				"y": 0.8911464263,
				"z": 3.0576455032,
				"element": "C" 
			},
			{
				"x": 0.8473876394,
				"y": -0.8629119592,
				"z": -0.3065088411,
				"element": "S" 
			},
			{
				"x": -1.9254097006,
				"y": 1.9439012485,
				"z": -1.5717210114,
				"element": "H" 
			},
			{
				"x": -1.6698157975,
				"y": 1.6787521268,
				"z": 0.5100591891,
				"element": "H" 
			},
			{
				"x": 0.9835792165,
				"y": 0.233947459,
				"z": 4.8193012009,
				"element": "H" 
			},
			{
				"x": -0.8221032349,
				"y": 1.6204359874,
				"z": 3.5088924855,
				"element": "H" 
			}
		],
		 "valence_orbital": [ 
			{
				"type": "occ",
				"energy": -0.31859,
				"method": "rhf"
			},
			{
				"type": "occ",
				"energy": -0.30127,
				"method": "rhf"
			},
			{
				"type": "occ",
				"energy": -0.28094,
				"method": "rhf"
			},
			{
				"type": "occ",
				"energy": -0.24447,
				"method": "rhf"
			},
			{
				"type": "occ",
				"energy": -0.23988,
				"method": "rhf"
			},
			{
				"type": "unocc",
				"energy": -0.06237,
				"method": "rhf"
			},
			{
				"type": "unocc",
				"energy": -0.02419,
				"method": "rhf"
			},
			{
				"type": "unocc",
				"energy": -0.00081,
				"method": "rhf"
			},
			{
				"type": "unocc",
				"energy": 0.01746,
				"method": "rhf"
			},
			{
				"type": "unocc",
				"energy": 0.04309,
				"method": "rhf"
			}
		],
		"cosmo_sigma_profile": { 
			"-0.025": 0.0,
			"-0.024": 0.0,
			"-0.023": 0.0,
			"-0.022": 0.0,
			"-0.021": 0.0,
			"-0.02": 0.118315279354,
			"-0.019": 0.943781254562,
			"-0.018": 1.22293098527,
			"-0.017": 0.806200617971,
			"-0.016": 0.979817128251,
			"-0.015": 1.37332274149,
			"-0.014": 0.811993229829,
			"-0.013": 0.899475579788,
			"-0.012": 1.87857251162,
			"-0.011": 1.02795302065,
			"-0.01": 0.930222438561,
			"-0.009": 3.54367682137,
			"-0.008": 5.75706742366,
			"-0.007": 7.81801486085,
			"-0.006": 6.87046316166,
			"-0.005": 6.96430818729,
			"-0.004": 7.45614954663,
			"-0.003": 8.08578512728,
			"-0.002": 7.60317540218,
			"-0.001": 10.1728821916,
			"0.0": 11.61003058,
			"0.001": 21.8945723355,
			"0.002": 25.24774467,
			"0.003": 17.8764415598,
			"0.004": 8.62079685391,
			"0.005": 2.90289829704,
			"0.006": 2.67985009888,
			"0.007": 3.04236171714,
			"0.008": 2.86547847763,
			"0.009": 3.50077260713,
			"0.01": 5.06333852136,
			"0.011": 5.26430684654,
			"0.012": 4.03478247961,
			"0.013": 1.34003684235,
			"0.014": 0.0379437852011,
			"0.015": 0.0,
			"0.016": 0.0,
			"0.017": 0.0,
			"0.018": 0.0,
			"0.019": 0.0,
			"0.02": 0.0,
			"0.021": 0.0,
			"0.022": 0.0,
			"0.023": 0.0,
			"0.024": 0.0,
			"0.025": 0.0
		}
	}
}
