{
	 "smiles": "CC1=C(C)C(C#N)=C(NC(=O)CCl)N1CC1=CC=C(F)C=C1", 
	 "Tm": 553.15, 
	 "num_atms": 37, 
	 "gaussian": { 
		 "optdone": 1, 
		 "sigma_profile": "yes", 
		 "theory": "DFT", 
		 "functional": "B3LYP", 
		 "basiset": "6-31G**", 
		 "properties": { 
			 "R2extent": 9553.1521, 
			 "electric_dipole_moment_norm": 6.12855867966, 
			 "electric_quadrupole_moment_norm": 19.4181591993, 
			 "total_energy": -1418.24795987, 
			 "HOMO_LUMO_gap": 0.18648, 
			 "cosmo_polarized_energy": -19.14, 
			 "cosmo_cavitation_energy": 43.62, 
			 "cosmo_dispersion_energy": -28.15, 
			 "cosmo_repulsion_energy": 2.14, 
			 "cosmo_total_nonelectrostatic_energy": 17.6, 
			 "SMD_solvation_energy": 9.73 
		},
		"coords": [
			{
				"x": 1.1583281723,
				"y": -0.1514777495,
				"z": 1.5621919194,
				"element": "C" 
			},
			{
				"x": 0.2411707768,
				"y": -0.2106540356,
				"z": 0.3819292112,
				"element": "C" 
			},
			{
				"x": -1.124972776,
				"y": -0.4067132362,
				"z": 0.345645195,
				"element": "C" 
			},
			{
				"x": -2.069234541,
				"y": -0.5611023467,
				"z": 1.5004660403,
				"element": "C" 
			},
			{
				"x": -1.5025066317,
				"y": -0.4344534944,
				"z": -1.0379547021,
				"element": "C" 
			},
			{
				"x": -2.8014534145,
				"y": -0.6605979583,
				"z": -1.5553401001,
				"element": "C" 
			},
			{
				"x": -3.8723821881,
				"y": -0.8309126055,
				"z": -1.9832562277,
				"element": "N" 
			},
			{
				"x": -0.3548037181,
				"y": -0.2291111061,
				"z": -1.7985302039,
				"element": "C" 
			},
			{
				"x": -0.1679085738,
				"y": -0.2656386306,
				"z": -3.1872879012,
				"element": "N" 
			},
			{
				"x": -0.8140959531,
				"y": 0.4606527886,
				"z": -4.1785648095,
				"element": "C" 
			},
			{
				"x": -0.7096329709,
				"y": 0.1317039065,
				"z": -5.3459528318,
				"element": "O" 
			},
			{
				"x": -1.6485532096,
				"y": 1.6727886674,
				"z": -3.7783838902,
				"element": "C" 
			},
			{
				"x": -0.6205260346,
				"y": 3.0299342536,
				"z": -3.1511407205,
				"element": "Cl" 
			},
			{
				"x": 0.7026709057,
				"y": -0.0816808923,
				"z": -0.9270803745,
				"element": "N" 
			},
			{
				"x": 2.0995430328,
				"y": 0.0780669548,
				"z": -1.3360492165,
				"element": "C" 
			},
			{
				"x": 2.8060727806,
				"y": 1.2924902439,
				"z": -0.7595555105,
				"element": "C" 
			},
			{
				"x": 2.173010875,
				"y": 2.5395123064,
				"z": -0.677848262,
				"element": "C" 
			},
			{
				"x": 2.855234689,
				"y": 3.6543235446,
				"z": -0.1931237141,
				"element": "C" 
			},
			{
				"x": 4.1819734613,
				"y": 3.5112810247,
				"z": 0.200172309,
				"element": "C" 
			},
			{
				"x": 4.8456476448,
				"y": 4.5865482064,
				"z": 0.6692835733,
				"element": "F" 
			},
			{
				"x": 4.8403643985,
				"y": 2.2897114061,
				"z": 0.1288263013,
				"element": "C" 
			},
			{
				"x": 4.1396764087,
				"y": 1.1820258526,
				"z": -0.3493344691,
				"element": "C" 
			},
			{
				"x": 2.0311441529,
				"y": -0.8019862542,
				"z": 1.4354526786,
				"element": "H" 
			},
			{
				"x": 0.6271983877,
				"y": -0.4858912869,
				"z": 2.4557310596,
				"element": "H" 
			},
			{
				"x": 1.5327637003,
				"y": 0.8597273964,
				"z": 1.7525966458,
				"element": "H" 
			},
			{
				"x": -2.8446032391,
				"y": -1.3001234366,
				"z": 1.2762309478,
				"element": "H" 
			},
			{
				"x": -1.5506280397,
				"y": -0.8859154488,
				"z": 2.4063724707,
				"element": "H" 
			},
			{
				"x": -2.5803317692,
				"y": 0.3807288171,
				"z": 1.7342233636,
				"element": "H" 
			},
			{
				"x": 0.2976291218,
				"y": -1.0771946552,
				"z": -3.582624,
				"element": "H" 
			},
			{
				"x": -2.3900691485,
				"y": 1.4449470206,
				"z": -3.0142507859,
				"element": "H" 
			},
			{
				"x": -2.133587317,
				"y": 2.0329218626,
				"z": -4.6825038767,
				"element": "H" 
			},
			{
				"x": 2.6571199501,
				"y": -0.8287602388,
				"z": -1.0728835519,
				"element": "H" 
			},
			{
				"x": 2.0872930194,
				"y": 0.1423785482,
				"z": -2.4279605288,
				"element": "H" 
			},
			{
				"x": 1.1395832958,
				"y": 2.6402223452,
				"z": -0.9921543314,
				"element": "H" 
			},
			{
				"x": 2.3769833766,
				"y": 4.6251428569,
				"z": -0.1215248892,
				"element": "H" 
			},
			{
				"x": 5.8734313869,
				"y": 2.2157293897,
				"z": 0.4503399402,
				"element": "H" 
			},
			{
				"x": 4.6430499881,
				"y": 0.2197759835,
				"z": -0.4015567581,
				"element": "H" 
			}
		],
		 "valence_orbital": [ 
			{
				"type": "occ",
				"energy": -0.27522,
				"method": "rhf"
			},
			{
				"type": "occ",
				"energy": -0.27412,
				"method": "rhf"
			},
			{
				"type": "occ",
				"energy": -0.25982,
				"method": "rhf"
			},
			{
				"type": "occ",
				"energy": -0.24956,
				"method": "rhf"
			},
			{
				"type": "occ",
				"energy": -0.22512,
				"method": "rhf"
			},
			{
				"type": "unocc",
				"energy": -0.03864,
				"method": "rhf"
			},
			{
				"type": "unocc",
				"energy": -0.02759,
				"method": "rhf"
			},
			{
				"type": "unocc",
				"energy": -0.02113,
				"method": "rhf"
			},
			{
				"type": "unocc",
				"energy": -0.01534,
				"method": "rhf"
			},
			{
				"type": "unocc",
				"energy": 0.02323,
				"method": "rhf"
			}
		],
		"cosmo_sigma_profile": { 
			"-0.025": 0.0,
			"-0.024": 0.0,
			"-0.023": 0.0,
			"-0.022": 0.0,
			"-0.021": 0.0,
			"-0.02": 0.0,
			"-0.019": 0.0,
			"-0.018": 0.0,
			"-0.017": 0.0,
			"-0.016": 0.321892537042,
			"-0.015": 0.947503609147,
			"-0.014": 1.28763384078,
			"-0.013": 1.41640371389,
			"-0.012": 1.47843498313,
			"-0.011": 0.704530085741,
			"-0.01": 1.46191595401,
			"-0.009": 1.73311015115,
			"-0.008": 3.98914084283,
			"-0.007": 13.2414950956,
			"-0.006": 18.3495073937,
			"-0.005": 18.8795018509,
			"-0.004": 21.331573785,
			"-0.003": 23.1873559344,
			"-0.002": 28.6177165779,
			"-0.001": 33.2451331553,
			"0.0": 31.6483113809,
			"0.001": 27.0674963781,
			"0.002": 23.0247793595,
			"0.003": 23.4546985678,
			"0.004": 23.8475007946,
			"0.005": 13.1418235151,
			"0.006": 4.44585344619,
			"0.007": 2.95417935895,
			"0.008": 4.06701051598,
			"0.009": 3.95173177722,
			"0.01": 5.07214976961,
			"0.011": 6.97605181383,
			"0.012": 7.1463260253,
			"0.013": 3.13686074184,
			"0.014": 0.477142569552,
			"0.015": 0.0,
			"0.016": 0.0,
			"0.017": 0.0,
			"0.018": 0.0,
			"0.019": 0.0,
			"0.02": 0.0,
			"0.021": 0.0,
			"0.022": 0.0,
			"0.023": 0.0,
			"0.024": 0.0,
			"0.025": 0.0
		}
	}
}
