{
	 "smiles": "[O-][N+](=O)C1=C(C=CC=C1)C(Cl)=O", 
	 "Tm": 291.65, 
	 "num_atms": 16, 
	 "gaussian": { 
		 "optdone": 1, 
		 "sigma_profile": "yes", 
		 "theory": "DFT", 
		 "functional": "B3LYP", 
		 "basiset": "6-31G**", 
		 "properties": { 
			 "R2extent": 3384.7548, 
			 "electric_dipole_moment_norm": 6.06634110647, 
			 "electric_quadrupole_moment_norm": 14.2605074752, 
			 "total_energy": -1009.66031786, 
			 "HOMO_LUMO_gap": 0.18186, 
			 "cosmo_polarized_energy": -10.96, 
			 "cosmo_cavitation_energy": 23.69, 
			 "cosmo_dispersion_energy": -17.11, 
			 "cosmo_repulsion_energy": 1.37, 
			 "cosmo_total_nonelectrostatic_energy": 7.96, 
			 "SMD_solvation_energy": 6.56 
		},
		"coords": [
			{
				"x": -3.5075151711,
				"y": -0.8869078034,
				"z": 1.4339737053,
				"element": "O" 
			},
			{
				"x": -2.6612197524,
				"y": -0.0243205798,
				"z": 1.6713979948,
				"element": "N" 
			},
			{
				"x": -2.5159939408,
				"y": 0.5429961899,
				"z": 2.7500807133,
				"element": "O" 
			},
			{
				"x": -1.7705541659,
				"y": 0.3581865178,
				"z": 0.5660216043,
				"element": "C" 
			},
			{
				"x": -1.790795939,
				"y": -0.3707916446,
				"z": -0.6286141713,
				"element": "C" 
			},
			{
				"x": -0.9794133124,
				"y": 0.0644302568,
				"z": -1.6814916623,
				"element": "C" 
			},
			{
				"x": -0.1586899472,
				"y": 1.1822725982,
				"z": -1.5268783599,
				"element": "C" 
			},
			{
				"x": -0.1418982525,
				"y": 1.8849485058,
				"z": -0.3205470306,
				"element": "C" 
			},
			{
				"x": -0.9554671488,
				"y": 1.474731227,
				"z": 0.7326521952,
				"element": "C" 
			},
			{
				"x": -2.6284188988,
				"y": -1.5922376473,
				"z": -0.8734850844,
				"element": "C" 
			},
			{
				"x": -1.9095847249,
				"y": -3.0831714878,
				"z": -0.1249917415,
				"element": "Cl" 
			},
			{
				"x": -3.5587174493,
				"y": -1.6589862529,
				"z": -1.6101835424,
				"element": "O" 
			},
			{
				"x": -0.98847952,
				"y": -0.4837697573,
				"z": -2.6177242857,
				"element": "H" 
			},
			{
				"x": 0.46677921,
				"y": 1.5037672746,
				"z": -2.3536783109,
				"element": "H" 
			},
			{
				"x": 0.4950128783,
				"y": 2.7551661901,
				"z": -0.2013284238,
				"element": "H" 
			},
			{
				"x": -0.983243865,
				"y": 2.0027864127,
				"z": 1.6775964001,
				"element": "H" 
			}
		],
		 "valence_orbital": [ 
			{
				"type": "occ",
				"energy": -0.31939,
				"method": "rhf"
			},
			{
				"type": "occ",
				"energy": -0.3118,
				"method": "rhf"
			},
			{
				"type": "occ",
				"energy": -0.30941,
				"method": "rhf"
			},
			{
				"type": "occ",
				"energy": -0.30191,
				"method": "rhf"
			},
			{
				"type": "occ",
				"energy": -0.29117,
				"method": "rhf"
			},
			{
				"type": "unocc",
				"energy": -0.10931,
				"method": "rhf"
			},
			{
				"type": "unocc",
				"energy": -0.05918,
				"method": "rhf"
			},
			{
				"type": "unocc",
				"energy": -0.04224,
				"method": "rhf"
			},
			{
				"type": "unocc",
				"energy": -0.02044,
				"method": "rhf"
			},
			{
				"type": "unocc",
				"energy": 0.01715,
				"method": "rhf"
			}
		],
		"cosmo_sigma_profile": { 
			"-0.025": 0.0,
			"-0.024": 0.0,
			"-0.023": 0.0,
			"-0.022": 0.0,
			"-0.021": 0.0,
			"-0.02": 0.0,
			"-0.019": 0.0,
			"-0.018": 0.0,
			"-0.017": 0.0,
			"-0.016": 0.0,
			"-0.015": 0.0,
			"-0.014": 0.0,
			"-0.013": 0.0,
			"-0.012": 0.0,
			"-0.011": 0.0,
			"-0.01": 0.404054349337,
			"-0.009": 3.70993093257,
			"-0.008": 10.3738185505,
			"-0.007": 11.3204188799,
			"-0.006": 8.98788280447,
			"-0.005": 8.13902961162,
			"-0.004": 7.94481381119,
			"-0.003": 8.99901729003,
			"-0.002": 12.8036001886,
			"-0.001": 15.5802260885,
			"0.0": 17.7878924378,
			"0.001": 12.1510062886,
			"0.002": 8.78655733984,
			"0.003": 12.1779945772,
			"0.004": 14.0960185846,
			"0.005": 8.84305046648,
			"0.006": 8.83132374004,
			"0.007": 10.8177848982,
			"0.008": 8.67836577177,
			"0.009": 2.948232394,
			"0.01": 0.12762963568,
			"0.011": 0.0,
			"0.012": 0.0,
			"0.013": 0.0,
			"0.014": 0.0,
			"0.015": 0.0,
			"0.016": 0.0,
			"0.017": 0.0,
			"0.018": 0.0,
			"0.019": 0.0,
			"0.02": 0.0,
			"0.021": 0.0,
			"0.022": 0.0,
			"0.023": 0.0,
			"0.024": 0.0,
			"0.025": 0.0
		}
	}
}
