{
	 "smiles": "FC1=CC=CC=C1C1=NCC(=O)N(CC2CC2)C2=CC=C(Cl)C=C12", 
	 "Tm": 391.15, 
	 "num_atms": 40, 
	 "gaussian": { 
		 "optdone": 1, 
		 "sigma_profile": "yes", 
		 "theory": "DFT", 
		 "functional": "B3LYP", 
		 "basiset": "6-31G**", 
		 "properties": { 
			 "R2extent": 8594.1995, 
			 "electric_dipole_moment_norm": 3.80914508256, 
			 "electric_quadrupole_moment_norm": 21.764390132, 
			 "total_energy": -1478.38506204, 
			 "HOMO_LUMO_gap": 0.17236, 
			 "cosmo_polarized_energy": -15.24, 
			 "cosmo_cavitation_energy": 45.33, 
			 "cosmo_dispersion_energy": -30.12, 
			 "cosmo_repulsion_energy": 2.29, 
			 "cosmo_total_nonelectrostatic_energy": 17.5, 
			 "SMD_solvation_energy": 5.23 
		},
		"coords": [
			{
				"x": 2.6225036313,
				"y": 1.8701750133,
				"z": 0.9124350335,
				"element": "F" 
			},
			{
				"x": 2.0582987505,
				"y": 0.9010991497,
				"z": 1.6520164339,
				"element": "C" 
			},
			{
				"x": 2.5602208648,
				"y": 0.690418691,
				"z": 2.9317868106,
				"element": "C" 
			},
			{
				"x": 2.0217776382,
				"y": -0.3266015558,
				"z": 3.7188904705,
				"element": "C" 
			},
			{
				"x": 0.9961560982,
				"y": -1.129762303,
				"z": 3.2157961266,
				"element": "C" 
			},
			{
				"x": 0.5146691954,
				"y": -0.9096674277,
				"z": 1.927053747,
				"element": "C" 
			},
			{
				"x": 1.0250894911,
				"y": 0.1178413288,
				"z": 1.1155197302,
				"element": "C" 
			},
			{
				"x": 0.4559664737,
				"y": 0.3768826961,
				"z": -0.2404850461,
				"element": "C" 
			},
			{
				"x": 0.26791989,
				"y": 1.5978516954,
				"z": -0.5904575967,
				"element": "N" 
			},
			{
				"x": -0.2814065588,
				"y": 1.8575972131,
				"z": -1.9142100851,
				"element": "C" 
			},
			{
				"x": -1.7613687827,
				"y": 1.4823541046,
				"z": -1.9212477145,
				"element": "C" 
			},
			{
				"x": -2.6501325432,
				"y": 2.3189722357,
				"z": -1.9318422481,
				"element": "O" 
			},
			{
				"x": -2.0232738389,
				"y": 0.1154675271,
				"z": -1.875913497,
				"element": "N" 
			},
			{
				"x": -3.4414895409,
				"y": -0.2930105339,
				"z": -1.7654399868,
				"element": "C" 
			},
			{
				"x": -3.8058947239,
				"y": -0.766759439,
				"z": -0.3750806236,
				"element": "C" 
			},
			{
				"x": -5.2122179427,
				"y": -0.5433108523,
				"z": 0.1300661031,
				"element": "C" 
			},
			{
				"x": -4.0674206542,
				"y": 0.2506770109,
				"z": 0.7090770271,
				"element": "C" 
			},
			{
				"x": -1.0107841294,
				"y": -0.8778912059,
				"z": -1.9048501428,
				"element": "C" 
			},
			{
				"x": -1.192629096,
				"y": -2.0090351942,
				"z": -2.7221646329,
				"element": "C" 
			},
			{
				"x": -0.2647157483,
				"y": -3.040728569,
				"z": -2.7594896448,
				"element": "C" 
			},
			{
				"x": 0.8814006323,
				"y": -2.953842653,
				"z": -1.9670496944,
				"element": "C" 
			},
			{
				"x": 2.0677772267,
				"y": -4.2469575826,
				"z": -2.0092446059,
				"element": "Cl" 
			},
			{
				"x": 1.0894222117,
				"y": -1.8528626198,
				"z": -1.149939163,
				"element": "C" 
			},
			{
				"x": 0.157051524,
				"y": -0.8006008356,
				"z": -1.1059424717,
				"element": "C" 
			},
			{
				"x": 3.3658968936,
				"y": 1.324301465,
				"z": 3.2860514251,
				"element": "H" 
			},
			{
				"x": 2.4074389988,
				"y": -0.4918546619,
				"z": 4.7203533407,
				"element": "H" 
			},
			{
				"x": 0.5732748086,
				"y": -1.923295923,
				"z": 3.8236225644,
				"element": "H" 
			},
			{
				"x": -0.2838302947,
				"y": -1.5322628833,
				"z": 1.5356315732,
				"element": "H" 
			},
			{
				"x": 0.2514030005,
				"y": 1.3038069791,
				"z": -2.7017782613,
				"element": "H" 
			},
			{
				"x": -0.2217567725,
				"y": 2.9254610097,
				"z": -2.1242391249,
				"element": "H" 
			},
			{
				"x": -4.0223247677,
				"y": 0.5918915889,
				"z": -2.0275455536,
				"element": "H" 
			},
			{
				"x": -3.6603073877,
				"y": -1.0656515823,
				"z": -2.5077321797,
				"element": "H" 
			},
			{
				"x": -3.326305241,
				"y": -1.694382035,
				"z": -0.0679538918,
				"element": "H" 
			},
			{
				"x": -5.6668762156,
				"y": -1.3198932257,
				"z": 0.7375658009,
				"element": "H" 
			},
			{
				"x": -5.9107189398,
				"y": -0.025774532,
				"z": -0.5218112483,
				"element": "H" 
			},
			{
				"x": -3.7388109241,
				"y": 0.0207738532,
				"z": 1.7179526458,
				"element": "H" 
			},
			{
				"x": -3.9857483042,
				"y": 1.2985408514,
				"z": 0.437142934,
				"element": "H" 
			},
			{
				"x": -2.0706418216,
				"y": -2.074532006,
				"z": -3.354033208,
				"element": "H" 
			},
			{
				"x": -0.4210995666,
				"y": -3.8987745092,
				"z": -3.4036657146,
				"element": "H" 
			},
			{
				"x": 1.980686465,
				"y": -1.7965602829,
				"z": -0.5360454309,
				"element": "H" 
			}
		],
		 "valence_orbital": [ 
			{
				"type": "occ",
				"energy": -0.26787,
				"method": "rhf"
			},
			{
				"type": "occ",
				"energy": -0.25663,
				"method": "rhf"
			},
			{
				"type": "occ",
				"energy": -0.25194,
				"method": "rhf"
			},
			{
				"type": "occ",
				"energy": -0.24267,
				"method": "rhf"
			},
			{
				"type": "occ",
				"energy": -0.23261,
				"method": "rhf"
			},
			{
				"type": "unocc",
				"energy": -0.06025,
				"method": "rhf"
			},
			{
				"type": "unocc",
				"energy": -0.0344,
				"method": "rhf"
			},
			{
				"type": "unocc",
				"energy": -0.02894,
				"method": "rhf"
			},
			{
				"type": "unocc",
				"energy": -0.00589,
				"method": "rhf"
			},
			{
				"type": "unocc",
				"energy": 0.01251,
				"method": "rhf"
			}
		],
		"cosmo_sigma_profile": { 
			"-0.025": 0.0,
			"-0.024": 0.0,
			"-0.023": 0.0,
			"-0.022": 0.0,
			"-0.021": 0.0,
			"-0.02": 0.0,
			"-0.019": 0.0,
			"-0.018": 0.0,
			"-0.017": 0.0,
			"-0.016": 0.0,
			"-0.015": 0.0,
			"-0.014": 0.0,
			"-0.013": 0.0,
			"-0.012": 0.0,
			"-0.011": 0.0,
			"-0.01": 0.00279803167524,
			"-0.009": 1.13023559824,
			"-0.008": 4.95363264913,
			"-0.007": 9.35961022929,
			"-0.006": 17.3694714022,
			"-0.005": 23.3023280171,
			"-0.004": 28.7351963681,
			"-0.003": 29.6001694244,
			"-0.002": 30.3465643132,
			"-0.001": 28.6366719512,
			"0.0": 29.9757106094,
			"0.001": 35.913444429,
			"0.002": 29.6622606257,
			"0.003": 26.4415939815,
			"0.004": 29.0562863953,
			"0.005": 11.4949409928,
			"0.006": 4.42279731529,
			"0.007": 3.20734175425,
			"0.008": 2.9557352312,
			"0.009": 2.32398155704,
			"0.01": 2.92254563717,
			"0.011": 2.71522061684,
			"0.012": 3.90451020336,
			"0.013": 4.14011976292,
			"0.014": 1.40808558168,
			"0.015": 0.460220098,
			"0.016": 0.0,
			"0.017": 0.0,
			"0.018": 0.0,
			"0.019": 0.0,
			"0.02": 0.0,
			"0.021": 0.0,
			"0.022": 0.0,
			"0.023": 0.0,
			"0.024": 0.0,
			"0.025": 0.0
		}
	}
}
