{
	 "smiles": "NC(CCS)C(O)=O", 
	 "Tm": 505.15, 
	 "num_atms": 17, 
	 "gaussian": { 
		 "optdone": 1, 
		 "sigma_profile": "yes", 
		 "theory": "DFT", 
		 "functional": "B3LYP", 
		 "basiset": "6-31G**", 
		 "properties": { 
			 "R2extent": 1806.5376, 
			 "electric_dipole_moment_norm": 3.13161619136, 
			 "electric_quadrupole_moment_norm": 6.91172131021, 
			 "total_energy": -761.245418364, 
			 "HOMO_LUMO_gap": 0.23107, 
			 "cosmo_polarized_energy": -14.13, 
			 "cosmo_cavitation_energy": 22.14, 
			 "cosmo_dispersion_energy": -16.48, 
			 "cosmo_repulsion_energy": 1.36, 
			 "cosmo_total_nonelectrostatic_energy": 7.01, 
			 "SMD_solvation_energy": 3.17 
		},
		"coords": [
			{
				"x": -0.279277886,
				"y": -1.2510755376,
				"z": 0.0313686142,
				"element": "N" 
			},
			{
				"x": 0.3415998369,
				"y": -0.1759574715,
				"z": -0.7380319266,
				"element": "C" 
			},
			{
				"x": 0.8528074364,
				"y": 0.9599652721,
				"z": 0.17030909,
				"element": "C" 
			},
			{
				"x": -0.2518769698,
				"y": 1.6370340879,
				"z": 0.9850022632,
				"element": "C" 
			},
			{
				"x": 0.3564096018,
				"y": 2.9876028587,
				"z": 2.0790247204,
				"element": "S" 
			},
			{
				"x": -0.4950385238,
				"y": 0.3950670087,
				"z": -1.8946846622,
				"element": "C" 
			},
			{
				"x": -1.4431315977,
				"y": -0.4740895022,
				"z": -2.3254188938,
				"element": "O" 
			},
			{
				"x": -0.3301110323,
				"y": 1.4797093707,
				"z": -2.410233983,
				"element": "O" 
			},
			{
				"x": -1.1850503781,
				"y": -0.9525790136,
				"z": 0.3845118588,
				"element": "H" 
			},
			{
				"x": -0.4726563054,
				"y": -2.0412940352,
				"z": -0.5776796734,
				"element": "H" 
			},
			{
				"x": 1.2263892799,
				"y": -0.6047421539,
				"z": -1.2305253317,
				"element": "H" 
			},
			{
				"x": 1.3460746162,
				"y": 1.7037426121,
				"z": -0.4618511946,
				"element": "H" 
			},
			{
				"x": 1.6000956088,
				"y": 0.541647792,
				"z": 0.8497017319,
				"element": "H" 
			},
			{
				"x": -0.7143317709,
				"y": 0.9284306307,
				"z": 1.6786538706,
				"element": "H" 
			},
			{
				"x": -1.0364052018,
				"y": 2.0377581806,
				"z": 0.3367686115,
				"element": "H" 
			},
			{
				"x": 0.7952721552,
				"y": 3.7997529699,
				"z": 1.0956222814,
				"element": "H" 
			},
			{
				"x": -1.8830688695,
				"y": -0.0391730692,
				"z": -3.0756373768,
				"element": "H" 
			}
		],
		 "valence_orbital": [ 
			{
				"type": "occ",
				"energy": -0.32848,
				"method": "rhf"
			},
			{
				"type": "occ",
				"energy": -0.32172,
				"method": "rhf"
			},
			{
				"type": "occ",
				"energy": -0.3053,
				"method": "rhf"
			},
			{
				"type": "occ",
				"energy": -0.24482,
				"method": "rhf"
			},
			{
				"type": "occ",
				"energy": -0.23541,
				"method": "rhf"
			},
			{
				"type": "unocc",
				"energy": -0.00434,
				"method": "rhf"
			},
			{
				"type": "unocc",
				"energy": 0.02678,
				"method": "rhf"
			},
			{
				"type": "unocc",
				"energy": 0.06084,
				"method": "rhf"
			},
			{
				"type": "unocc",
				"energy": 0.07199,
				"method": "rhf"
			},
			{
				"type": "unocc",
				"energy": 0.09753,
				"method": "rhf"
			}
		],
		"cosmo_sigma_profile": { 
			"-0.025": 0.0,
			"-0.024": 0.0,
			"-0.023": 0.0,
			"-0.022": 0.0,
			"-0.021": 0.0,
			"-0.02": 0.0,
			"-0.019": 0.0266808556416,
			"-0.018": 0.654572964015,
			"-0.017": 0.91651048358,
			"-0.016": 0.983468455711,
			"-0.015": 0.966594926489,
			"-0.014": 0.2889702583,
			"-0.013": 0.735493098747,
			"-0.012": 0.609869213004,
			"-0.011": 1.14081593193,
			"-0.01": 2.4611638526,
			"-0.009": 4.75202736062,
			"-0.008": 5.87959104639,
			"-0.007": 10.6652213485,
			"-0.006": 10.1991110245,
			"-0.005": 9.23230098181,
			"-0.004": 9.16103373136,
			"-0.003": 12.5473409312,
			"-0.002": 10.6433062548,
			"-0.001": 9.02283046581,
			"0.0": 9.09743040235,
			"0.001": 6.8591941944,
			"0.002": 7.02038226554,
			"0.003": 4.73495036701,
			"0.004": 7.62520769112,
			"0.005": 7.26156747786,
			"0.006": 6.46845948928,
			"0.007": 6.13441821023,
			"0.008": 5.69910099405,
			"0.009": 4.19161329606,
			"0.01": 5.05267227641,
			"0.011": 5.39310673931,
			"0.012": 4.6194465609,
			"0.013": 1.11871588613,
			"0.014": 0.318481264278,
			"0.015": 0.225403848772,
			"0.016": 0.821530558577,
			"0.017": 0.728643909718,
			"0.018": 0.366544329123,
			"0.019": 0.166061823876,
			"0.02": 0.0,
			"0.021": 0.0,
			"0.022": 0.0,
			"0.023": 0.0,
			"0.024": 0.0,
			"0.025": 0.0
		}
	}
}
