{
	 "smiles": "CC(O)CC1=CC(Br)=CC(F)=C1", 
	 "Tm": 313.15, 
	 "num_atms": 22, 
	 "gaussian": { 
		 "optdone": 1, 
		 "sigma_profile": "yes", 
		 "theory": "DFT", 
		 "functional": "B3LYP", 
		 "basiset": "6-31G**", 
		 "properties": { 
			 "R2extent": 4874.4373, 
			 "electric_dipole_moment_norm": 3.11427086972, 
			 "electric_quadrupole_moment_norm": 4.93201309508, 
			 "total_energy": -3095.44807998, 
			 "HOMO_LUMO_gap": 0.22352, 
			 "cosmo_polarized_energy": -8.75, 
			 "cosmo_cavitation_energy": 28.11, 
			 "cosmo_dispersion_energy": -20.22, 
			 "cosmo_repulsion_energy": 1.62, 
			 "cosmo_total_nonelectrostatic_energy": 9.5, 
			 "SMD_solvation_energy": 4.12 
		},
		"coords": [
			{
				"x": -1.2934527307,
				"y": -0.1172411896,
				"z": -1.8238035106,
				"element": "C" 
			},
			{
				"x": -1.6507495979,
				"y": -0.010075609,
				"z": -0.3467785416,
				"element": "C" 
			},
			{
				"x": -1.8472123298,
				"y": -1.3448330116,
				"z": 0.1267837505,
				"element": "O" 
			},
			{
				"x": -0.5989141749,
				"y": 0.7532175738,
				"z": 0.4936196763,
				"element": "C" 
			},
			{
				"x": 0.8356570749,
				"y": 0.2780088728,
				"z": 0.3726655048,
				"element": "C" 
			},
			{
				"x": 1.1908168405,
				"y": -1.0432020132,
				"z": 0.6919797205,
				"element": "C" 
			},
			{
				"x": 2.5207486446,
				"y": -1.4419441722,
				"z": 0.5914143674,
				"element": "C" 
			},
			{
				"x": 2.9898833108,
				"y": -3.2434627705,
				"z": 1.0286817681,
				"element": "Br" 
			},
			{
				"x": 3.5281758221,
				"y": -0.5690753501,
				"z": 0.1836134604,
				"element": "C" 
			},
			{
				"x": 3.15000608,
				"y": 0.7302339784,
				"z": -0.1288729081,
				"element": "C" 
			},
			{
				"x": 4.0999408658,
				"y": 1.6001028735,
				"z": -0.5286207712,
				"element": "F" 
			},
			{
				"x": 1.8332027647,
				"y": 1.1676045994,
				"z": -0.0440099209,
				"element": "C" 
			},
			{
				"x": -0.3732689178,
				"y": -0.6923908448,
				"z": -1.9561351554,
				"element": "H" 
			},
			{
				"x": -1.1489377994,
				"y": 0.875978106,
				"z": -2.2603024457,
				"element": "H" 
			},
			{
				"x": -2.0963889059,
				"y": -0.6240171277,
				"z": -2.3652485122,
				"element": "H" 
			},
			{
				"x": -2.5937480542,
				"y": 0.5535337278,
				"z": -0.2543542832,
				"element": "H" 
			},
			{
				"x": -2.2261954853,
				"y": -1.2939833852,
				"z": 1.0141774758,
				"element": "H" 
			},
			{
				"x": -0.9123121596,
				"y": 0.701371617,
				"z": 1.5463401646,
				"element": "H" 
			},
			{
				"x": -0.6485973959,
				"y": 1.8130455832,
				"z": 0.2180326735,
				"element": "H" 
			},
			{
				"x": 0.4270088932,
				"y": -1.7507569682,
				"z": 0.9856361299,
				"element": "H" 
			},
			{
				"x": 4.5637063649,
				"y": -0.8754939229,
				"z": 0.1084125625,
				"element": "H" 
			},
			{
				"x": 1.6019308898,
				"y": 2.1964794332,
				"z": -0.2993312053,
				"element": "H" 
			}
		],
		 "valence_orbital": [ 
			{
				"type": "occ",
				"energy": -0.30693,
				"method": "rhf"
			},
			{
				"type": "occ",
				"energy": -0.28633,
				"method": "rhf"
			},
			{
				"type": "occ",
				"energy": -0.27688,
				"method": "rhf"
			},
			{
				"type": "occ",
				"energy": -0.25101,
				"method": "rhf"
			},
			{
				"type": "occ",
				"energy": -0.24235,
				"method": "rhf"
			},
			{
				"type": "unocc",
				"energy": -0.01883,
				"method": "rhf"
			},
			{
				"type": "unocc",
				"energy": -0.00884,
				"method": "rhf"
			},
			{
				"type": "unocc",
				"energy": 0.00587,
				"method": "rhf"
			},
			{
				"type": "unocc",
				"energy": 0.06021,
				"method": "rhf"
			},
			{
				"type": "unocc",
				"energy": 0.09812,
				"method": "rhf"
			}
		],
		"cosmo_sigma_profile": { 
			"-0.025": 0.0,
			"-0.024": 0.0,
			"-0.023": 0.0,
			"-0.022": 0.0,
			"-0.021": 0.0,
			"-0.02": 0.0,
			"-0.019": 0.0,
			"-0.018": 0.0,
			"-0.017": 0.0,
			"-0.016": 0.151289413761,
			"-0.015": 0.817395155441,
			"-0.014": 1.06706580352,
			"-0.013": 1.42460577662,
			"-0.012": 0.759123701498,
			"-0.011": 1.03174802352,
			"-0.01": 0.791666563401,
			"-0.009": 0.813038120136,
			"-0.008": 2.79670367905,
			"-0.007": 4.60569693453,
			"-0.006": 5.9183858862,
			"-0.005": 6.93066187368,
			"-0.004": 16.0139839116,
			"-0.003": 18.5343726199,
			"-0.002": 16.6205409895,
			"-0.001": 16.8605728799,
			"0.0": 19.909958551,
			"0.001": 23.1510241383,
			"0.002": 25.0004864825,
			"0.003": 20.2605837402,
			"0.004": 22.2068175378,
			"0.005": 8.80839552904,
			"0.006": 1.65656287042,
			"0.007": 1.02831684995,
			"0.008": 1.20710959127,
			"0.009": 1.26848262073,
			"0.01": 1.13382385216,
			"0.011": 0.911144513878,
			"0.012": 0.994566373218,
			"0.013": 1.29834455342,
			"0.014": 1.35878203429,
			"0.015": 0.155499346577,
			"0.016": 0.0,
			"0.017": 0.0,
			"0.018": 0.0,
			"0.019": 0.0,
			"0.02": 0.0,
			"0.021": 0.0,
			"0.022": 0.0,
			"0.023": 0.0,
			"0.024": 0.0,
			"0.025": 0.0
		}
	}
}
