{
	 "smiles": "OC1=C(I)N=CC=C1", 
	 "Tm": 466.15, 
	 "num_atms": 12, 
	 "gaussian": { 
		 "optdone": 1, 
		 "sigma_profile": "no", 
		 "theory": "DFT", 
		 "functional": "B3LYP", 
		 "basiset": "6-31G**", 
		 "properties": { 
			 "R2extent": 933.4852, 
			 "electric_dipole_moment_norm": 1.93624287733, 
			 "electric_quadrupole_moment_norm": 7.95684823784, 
			 "total_energy": -334.293724433, 
			 "HOMO_LUMO_gap": 0.19433, 
			 "cosmo_polarized_energy": -94088.18, 
			 "cosmo_cavitation_energy": 19.28, 
			 "cosmo_dispersion_energy": -16.22, 
			 "cosmo_repulsion_energy": 1.3, 
			 "cosmo_total_nonelectrostatic_energy": 4.36, 
			 "SMD_solvation_energy": 1.54 
		},
		"coords": [
			{
				"x": 0.1214671231,
				"y": 1.5917557561,
				"z": -1.6123810373,
				"element": "O" 
			},
			{
				"x": 0.3326286989,
				"y": 0.7802227102,
				"z": -0.555957255,
				"element": "C" 
			},
			{
				"x": -0.6656403975,
				"y": 0.3284897928,
				"z": 0.3286939278,
				"element": "C" 
			},
			{
				"x": -2.6892206083,
				"y": 0.9792655686,
				"z": -0.0256226337,
				"element": "I" 
			},
			{
				"x": -0.4517433931,
				"y": -0.4607818508,
				"z": 1.3539321981,
				"element": "N" 
			},
			{
				"x": 0.798326718,
				"y": -0.878455954,
				"z": 1.5942854091,
				"element": "C" 
			},
			{
				"x": 1.8715378995,
				"y": -0.4982947665,
				"z": 0.7878123194,
				"element": "C" 
			},
			{
				"x": 1.635914735,
				"y": 0.3390929736,
				"z": -0.2976194057,
				"element": "C" 
			},
			{
				"x": -0.8249436153,
				"y": 1.8117830896,
				"z": -1.6622565963,
				"element": "H" 
			},
			{
				"x": 0.9341264161,
				"y": -1.5306398297,
				"z": 2.4523468821,
				"element": "H" 
			},
			{
				"x": 2.8742467595,
				"y": -0.8515685382,
				"z": 1.0056419438,
				"element": "H" 
			},
			{
				"x": 2.4329996642,
				"y": 0.6659310483,
				"z": -0.9575757523,
				"element": "H" 
			}
		],
		 "valence_orbital": [ 
			{
				"type": "occ",
				"energy": -0.31127,
				"method": "rhf"
			},
			{
				"type": "occ",
				"energy": -0.28605,
				"method": "rhf"
			},
			{
				"type": "occ",
				"energy": -0.27624,
				"method": "rhf"
			},
			{
				"type": "occ",
				"energy": -0.26922,
				"method": "rhf"
			},
			{
				"type": "occ",
				"energy": -0.2418,
				"method": "rhf"
			},
			{
				"type": "unocc",
				"energy": -0.04747,
				"method": "rhf"
			},
			{
				"type": "unocc",
				"energy": -0.03836,
				"method": "rhf"
			},
			{
				"type": "unocc",
				"energy": -0.01581,
				"method": "rhf"
			},
			{
				"type": "unocc",
				"energy": 0.04116,
				"method": "rhf"
			},
			{
				"type": "unocc",
				"energy": 0.04874,
				"method": "rhf"
			}
		],
		"cosmo_sigma_profile": { 
			"0.0": 0.0,
			"0.0": 0.0,
			"0.0": 0.0,
			"0.0": 0.0,
			"0.0": 0.0,
			"0.0": 0.0,
			"0.0": 0.0,
			"0.0": 0.0,
			"0.0": 0.0,
			"0.0": 0.0,
			"0.0": 0.0,
			"0.0": 0.0,
			"0.0": 0.0,
			"0.0": 0.0,
			"0.0": 0.0,
			"0.0": 0.0,
			"0.0": 0.0,
			"0.0": 0.0,
			"0.0": 0.0,
			"0.0": 0.0,
			"0.0": 0.0,
			"0.0": 0.0,
			"0.0": 0.0,
			"0.0": 0.0,
			"0.0": 0.0,
			"0.0": 0.0,
			"0.0": 0.0,
			"0.0": 0.0,
			"0.0": 0.0,
			"0.0": 0.0,
			"0.0": 0.0,
			"0.0": 0.0,
			"0.0": 0.0,
			"0.0": 0.0,
			"0.0": 0.0,
			"0.0": 0.0,
			"0.0": 0.0,
			"0.0": 0.0,
			"0.0": 0.0,
			"0.0": 0.0,
			"0.0": 0.0,
			"0.0": 0.0,
			"0.0": 0.0,
			"0.0": 0.0,
			"0.0": 0.0,
			"0.0": 0.0,
			"0.0": 0.0,
			"0.0": 0.0,
			"0.0": 0.0,
			"0.0": 0.0,
			"0.0": 0.0
		}
	}
}
