{
	 "smiles": "FC(F)(F)C(=O)CC(=O)C1=CC2=C(OCO2)C=C1", 
	 "Tm": 381.15, 
	 "num_atms": 25, 
	 "gaussian": { 
		 "optdone": 1, 
		 "sigma_profile": "yes", 
		 "theory": "DFT", 
		 "functional": "B3LYP", 
		 "basiset": "6-31G**", 
		 "properties": { 
			 "R2extent": 6266.3311, 
			 "electric_dipole_moment_norm": 3.65102389064, 
			 "electric_quadrupole_moment_norm": 11.8978983926, 
			 "total_energy": -1023.7641886, 
			 "HOMO_LUMO_gap": 0.14754, 
			 "cosmo_polarized_energy": -11.6, 
			 "cosmo_cavitation_energy": 31.8, 
			 "cosmo_dispersion_energy": -22.5, 
			 "cosmo_repulsion_energy": 1.67, 
			 "cosmo_total_nonelectrostatic_energy": 10.97, 
			 "SMD_solvation_energy": 8.35 
		},
		"coords": [
			{
				"x": -3.4023450433,
				"y": 1.5638992079,
				"z": -0.4728668927,
				"element": "F" 
			},
			{
				"x": -2.6770824089,
				"y": 2.4863883625,
				"z": 0.190556972,
				"element": "C" 
			},
			{
				"x": -2.1694830259,
				"y": 3.3484720108,
				"z": -0.690159539,
				"element": "F" 
			},
			{
				"x": -3.5056509962,
				"y": 3.1543209633,
				"z": 1.019997128,
				"element": "F" 
			},
			{
				"x": -1.5617214764,
				"y": 1.7777804278,
				"z": 1.0014387214,
				"element": "C" 
			},
			{
				"x": -0.4034864799,
				"y": 1.9764755865,
				"z": 0.7163315758,
				"element": "O" 
			},
			{
				"x": -2.0379463356,
				"y": 0.8588830192,
				"z": 2.1088501942,
				"element": "C" 
			},
			{
				"x": -2.5598550461,
				"y": -0.5151046,
				"z": 1.6085003422,
				"element": "C" 
			},
			{
				"x": -3.7576514022,
				"y": -0.7361405835,
				"z": 1.6584399695,
				"element": "O" 
			},
			{
				"x": -1.5832647607,
				"y": -1.524101067,
				"z": 1.1225398766,
				"element": "C" 
			},
			{
				"x": -0.1897717613,
				"y": -1.2660224981,
				"z": 1.0577136074,
				"element": "C" 
			},
			{
				"x": 0.6091654685,
				"y": -2.2874825685,
				"z": 0.5957217026,
				"element": "C" 
			},
			{
				"x": 0.0896104835,
				"y": -3.5241939055,
				"z": 0.2102507062,
				"element": "C" 
			},
			{
				"x": 1.0998794476,
				"y": -4.346302002,
				"z": -0.1942800737,
				"element": "O" 
			},
			{
				"x": 2.3059523792,
				"y": -3.566781055,
				"z": -0.1203591218,
				"element": "C" 
			},
			{
				"x": 1.9743010856,
				"y": -2.2960522294,
				"z": 0.4462080422,
				"element": "O" 
			},
			{
				"x": -1.2666594891,
				"y": -3.7990651839,
				"z": 0.2657317452,
				"element": "C" 
			},
			{
				"x": -2.0955020776,
				"y": -2.7725363064,
				"z": 0.7297429717,
				"element": "C" 
			},
			{
				"x": -1.2040056901,
				"y": 0.7206324074,
				"z": 2.8010789988,
				"element": "H" 
			},
			{
				"x": -2.880209183,
				"y": 1.319828939,
				"z": 2.6279292293,
				"element": "H" 
			},
			{
				"x": 0.240511293,
				"y": -0.3095304019,
				"z": 1.3271639051,
				"element": "H" 
			},
			{
				"x": 3.0288542186,
				"y": -4.0802304997,
				"z": 0.5225533905,
				"element": "H" 
			},
			{
				"x": 2.7094322312,
				"y": -3.4289431595,
				"z": -1.1314608806,
				"element": "H" 
			},
			{
				"x": -1.6593287653,
				"y": -4.7629503928,
				"z": -0.0367058123,
				"element": "H" 
			},
			{
				"x": -3.1672426656,
				"y": -2.9209444712,
				"z": 0.7964832413,
				"element": "H" 
			}
		],
		 "valence_orbital": [ 
			{
				"type": "occ",
				"energy": -0.32592,
				"method": "rhf"
			},
			{
				"type": "occ",
				"energy": -0.29094,
				"method": "rhf"
			},
			{
				"type": "occ",
				"energy": -0.26646,
				"method": "rhf"
			},
			{
				"type": "occ",
				"energy": -0.26216,
				"method": "rhf"
			},
			{
				"type": "occ",
				"energy": -0.22492,
				"method": "rhf"
			},
			{
				"type": "unocc",
				"energy": -0.07738,
				"method": "rhf"
			},
			{
				"type": "unocc",
				"energy": -0.05223,
				"method": "rhf"
			},
			{
				"type": "unocc",
				"energy": -0.01427,
				"method": "rhf"
			},
			{
				"type": "unocc",
				"energy": 0.0382,
				"method": "rhf"
			},
			{
				"type": "unocc",
				"energy": 0.08655,
				"method": "rhf"
			}
		],
		"cosmo_sigma_profile": { 
			"-0.025": 0.0,
			"-0.024": 0.0,
			"-0.023": 0.0,
			"-0.022": 0.0,
			"-0.021": 0.0,
			"-0.02": 0.0,
			"-0.019": 0.0,
			"-0.018": 0.0,
			"-0.017": 0.0,
			"-0.016": 0.0,
			"-0.015": 0.0,
			"-0.014": 0.0,
			"-0.013": 0.0,
			"-0.012": 0.0,
			"-0.011": 0.0,
			"-0.01": 0.0,
			"-0.009": 1.243535601,
			"-0.008": 11.9849437196,
			"-0.007": 15.1987179693,
			"-0.006": 16.5017967496,
			"-0.005": 14.1191801334,
			"-0.004": 11.3326360103,
			"-0.003": 10.6094052447,
			"-0.002": 11.9894028255,
			"-0.001": 13.6414936582,
			"0.0": 18.1325198488,
			"0.001": 32.1405840099,
			"0.002": 38.3488291236,
			"0.003": 12.5084857766,
			"0.004": 5.84282860997,
			"0.005": 7.30786030168,
			"0.006": 6.52384882427,
			"0.007": 5.90881022872,
			"0.008": 7.66466894866,
			"0.009": 6.82086460224,
			"0.01": 2.64079153377,
			"0.011": 3.90486187128,
			"0.012": 1.35808587847,
			"0.013": 0.0099246713287,
			"0.014": 0.0,
			"0.015": 0.0,
			"0.016": 0.0,
			"0.017": 0.0,
			"0.018": 0.0,
			"0.019": 0.0,
			"0.02": 0.0,
			"0.021": 0.0,
			"0.022": 0.0,
			"0.023": 0.0,
			"0.024": 0.0,
			"0.025": 0.0
		}
	}
}
