{
	 "smiles": "CSC1=CC2=C(C(=O)N(N2C)C2=CC=CC=C2)C(=C1)C1=CC=C(Cl)C=C1", 
	 "Tm": 440.15, 
	 "num_atms": 43, 
	 "gaussian": { 
		 "optdone": 1, 
		 "sigma_profile": "yes", 
		 "theory": "DFT", 
		 "functional": "B3LYP", 
		 "basiset": "6-31G**", 
		 "properties": { 
			 "R2extent": 13738.7334, 
			 "electric_dipole_moment_norm": 4.65058517286, 
			 "electric_quadrupole_moment_norm": 19.4984758333, 
			 "total_energy": -1853.58198953, 
			 "HOMO_LUMO_gap": 0.15267, 
			 "cosmo_polarized_energy": -15.77, 
			 "cosmo_cavitation_energy": 49.57, 
			 "cosmo_dispersion_energy": -35.37, 
			 "cosmo_repulsion_energy": 2.61, 
			 "cosmo_total_nonelectrostatic_energy": 16.81, 
			 "SMD_solvation_energy": 7.81 
		},
		"coords": [
			{
				"x": -1.8057629138,
				"y": -2.0882760382,
				"z": -5.198550089,
				"element": "C" 
			},
			{
				"x": -0.2143869147,
				"y": -2.4329564968,
				"z": -4.3822659732,
				"element": "S" 
			},
			{
				"x": -0.2959950472,
				"y": -1.5103475202,
				"z": -2.8625100638,
				"element": "C" 
			},
			{
				"x": 0.827567567,
				"y": -1.6010322296,
				"z": -2.032275248,
				"element": "C" 
			},
			{
				"x": 0.8092301524,
				"y": -0.8746245564,
				"z": -0.8448267196,
				"element": "C" 
			},
			{
				"x": -0.2917144708,
				"y": -0.0966299427,
				"z": -0.4521376423,
				"element": "C" 
			},
			{
				"x": 0.0066496619,
				"y": 0.4387894333,
				"z": 0.8853044575,
				"element": "C" 
			},
			{
				"x": -0.625561907,
				"y": 1.1892157683,
				"z": 1.6162634641,
				"element": "O" 
			},
			{
				"x": 1.2818418003,
				"y": -0.0804391898,
				"z": 1.2002305543,
				"element": "N" 
			},
			{
				"x": 1.8268637283,
				"y": -0.8261130094,
				"z": 0.1174213611,
				"element": "N" 
			},
			{
				"x": 2.4071551966,
				"y": -2.1097438797,
				"z": 0.5411042305,
				"element": "C" 
			},
			{
				"x": 2.1741490677,
				"y": 0.507339479,
				"z": 2.1346451699,
				"element": "C" 
			},
			{
				"x": 3.519361011,
				"y": 0.7208790328,
				"z": 1.8011006933,
				"element": "C" 
			},
			{
				"x": 4.3830391322,
				"y": 1.2865524063,
				"z": 2.7385439703,
				"element": "C" 
			},
			{
				"x": 3.9157615793,
				"y": 1.6561513301,
				"z": 4.0004957844,
				"element": "C" 
			},
			{
				"x": 2.5720008148,
				"y": 1.4513830226,
				"z": 4.3209919862,
				"element": "C" 
			},
			{
				"x": 1.6988037884,
				"y": 0.8705598463,
				"z": 3.4030740586,
				"element": "C" 
			},
			{
				"x": -1.4267260173,
				"y": -0.0006447644,
				"z": -1.2848574091,
				"element": "C" 
			},
			{
				"x": -1.3978129715,
				"y": -0.717879671,
				"z": -2.4890148338,
				"element": "C" 
			},
			{
				"x": -2.6351114129,
				"y": 0.8010492941,
				"z": -0.9578067841,
				"element": "C" 
			},
			{
				"x": -2.5441351792,
				"y": 2.1050158066,
				"z": -0.4450322976,
				"element": "C" 
			},
			{
				"x": -3.6878274859,
				"y": 2.861233585,
				"z": -0.201225465,
				"element": "C" 
			},
			{
				"x": -4.9416501574,
				"y": 2.3101573388,
				"z": -0.4627005517,
				"element": "C" 
			},
			{
				"x": -6.3884158465,
				"y": 3.260408046,
				"z": -0.1533284408,
				"element": "Cl" 
			},
			{
				"x": -5.0662288047,
				"y": 1.0146988182,
				"z": -0.9609908881,
				"element": "C" 
			},
			{
				"x": -3.9129759028,
				"y": 0.2725337913,
				"z": -1.2071249474,
				"element": "C" 
			},
			{
				"x": -1.7771414778,
				"y": -2.6515456464,
				"z": -6.1335723173,
				"element": "H" 
			},
			{
				"x": -1.9183208639,
				"y": -1.0267251181,
				"z": -5.4291963554,
				"element": "H" 
			},
			{
				"x": -2.6494681114,
				"y": -2.4394532824,
				"z": -4.6005065438,
				"element": "H" 
			},
			{
				"x": 1.6839565464,
				"y": -2.2011034488,
				"z": -2.3202321303,
				"element": "H" 
			},
			{
				"x": 3.1931537619,
				"y": -1.9203040108,
				"z": 1.2730078717,
				"element": "H" 
			},
			{
				"x": 1.6518559025,
				"y": -2.7756088262,
				"z": 0.9779842273,
				"element": "H" 
			},
			{
				"x": 2.8582242286,
				"y": -2.5878503888,
				"z": -0.32966222,
				"element": "H" 
			},
			{
				"x": 3.8714399688,
				"y": 0.4609191164,
				"z": 0.809166314,
				"element": "H" 
			},
			{
				"x": 5.4237749291,
				"y": 1.4482383326,
				"z": 2.4724433467,
				"element": "H" 
			},
			{
				"x": 4.5907538493,
				"y": 2.0998824485,
				"z": 4.7260636028,
				"element": "H" 
			},
			{
				"x": 2.1965910239,
				"y": 1.7370256225,
				"z": 5.299366805,
				"element": "H" 
			},
			{
				"x": 0.6567203281,
				"y": 0.7133763678,
				"z": 3.6469188436,
				"element": "H" 
			},
			{
				"x": -2.2474422498,
				"y": -0.6276480878,
				"z": -3.1533953306,
				"element": "H" 
			},
			{
				"x": -1.5735181235,
				"y": 2.5313011826,
				"z": -0.2270106363,
				"element": "H" 
			},
			{
				"x": -3.6074112732,
				"y": 3.869027215,
				"z": 0.1904065491,
				"element": "H" 
			},
			{
				"x": -6.0477694311,
				"y": 0.5926243638,
				"z": -1.1459294199,
				"element": "H" 
			},
			{
				"x": -4.0096174763,
				"y": -0.7443355403,
				"z": -1.5752809834,
				"element": "H" 
			}
		],
		 "valence_orbital": [ 
			{
				"type": "occ",
				"energy": -0.25078,
				"method": "rhf"
			},
			{
				"type": "occ",
				"energy": -0.24308,
				"method": "rhf"
			},
			{
				"type": "occ",
				"energy": -0.23249,
				"method": "rhf"
			},
			{
				"type": "occ",
				"energy": -0.22308,
				"method": "rhf"
			},
			{
				"type": "occ",
				"energy": -0.20738,
				"method": "rhf"
			},
			{
				"type": "unocc",
				"energy": -0.05471,
				"method": "rhf"
			},
			{
				"type": "unocc",
				"energy": -0.02142,
				"method": "rhf"
			},
			{
				"type": "unocc",
				"energy": -0.00855,
				"method": "rhf"
			},
			{
				"type": "unocc",
				"energy": -0.00272,
				"method": "rhf"
			},
			{
				"type": "unocc",
				"energy": 0.00218,
				"method": "rhf"
			}
		],
		"cosmo_sigma_profile": { 
			"-0.025": 0.0,
			"-0.024": 0.0,
			"-0.023": 0.0,
			"-0.022": 0.0,
			"-0.021": 0.0,
			"-0.02": 0.0,
			"-0.019": 0.0,
			"-0.018": 0.0,
			"-0.017": 0.0,
			"-0.016": 0.0,
			"-0.015": 0.0,
			"-0.014": 0.0,
			"-0.013": 0.0,
			"-0.012": 0.0,
			"-0.011": 0.0,
			"-0.01": 0.00831654681249,
			"-0.009": 1.08928860994,
			"-0.008": 3.1944417936,
			"-0.007": 9.83121010951,
			"-0.006": 24.8789667902,
			"-0.005": 30.083831463,
			"-0.004": 32.3978498254,
			"-0.003": 33.2246683384,
			"-0.002": 31.2635689537,
			"-0.001": 22.6294124954,
			"0.0": 24.8630055461,
			"0.001": 30.4402934129,
			"0.002": 36.6604930318,
			"0.003": 38.1266041987,
			"0.004": 29.6908339196,
			"0.005": 22.7706360365,
			"0.006": 8.50271746816,
			"0.007": 5.1580042312,
			"0.008": 4.54880632879,
			"0.009": 1.90276657324,
			"0.01": 1.94724180586,
			"0.011": 2.58209692424,
			"0.012": 2.32838875814,
			"0.013": 3.39610256637,
			"0.014": 0.290587972468,
			"0.015": 0.0,
			"0.016": 0.0,
			"0.017": 0.0,
			"0.018": 0.0,
			"0.019": 0.0,
			"0.02": 0.0,
			"0.021": 0.0,
			"0.022": 0.0,
			"0.023": 0.0,
			"0.024": 0.0,
			"0.025": 0.0
		}
	}
}
