{
	 "smiles": "CCCCCCCCCCCCCCCCCC(O)=O", 
	 "Tm": 342.65, 
	 "num_atms": 56, 
	 "gaussian": { 
		 "optdone": 1, 
		 "sigma_profile": "yes", 
		 "theory": "DFT", 
		 "functional": "B3LYP", 
		 "basiset": "6-31G**", 
		 "properties": { 
			 "R2extent": 15619.9203, 
			 "electric_dipole_moment_norm": 1.50855800353, 
			 "electric_quadrupole_moment_norm": 14.0782653804, 
			 "total_energy": -858.129280891, 
			 "HOMO_LUMO_gap": 0.27868, 
			 "cosmo_polarized_energy": -8.44, 
			 "cosmo_cavitation_energy": 55.1, 
			 "cosmo_dispersion_energy": -36.07, 
			 "cosmo_repulsion_energy": 2.92, 
			 "cosmo_total_nonelectrostatic_energy": 21.95, 
			 "SMD_solvation_energy": 8.16 
		},
		"coords": [
			{
				"x": 4.8034473699,
				"y": -3.7725360876,
				"z": 4.5672807767,
				"element": "C" 
			},
			{
				"x": 3.7675715435,
				"y": -3.8107560294,
				"z": 3.4391985306,
				"element": "C" 
			},
			{
				"x": 3.7438740008,
				"y": -2.5309884108,
				"z": 2.5930575922,
				"element": "C" 
			},
			{
				"x": 2.7037978546,
				"y": -2.5692841255,
				"z": 1.4648771004,
				"element": "C" 
			},
			{
				"x": 2.7146519549,
				"y": -1.3427291061,
				"z": 0.5357677286,
				"element": "C" 
			},
			{
				"x": 2.3858462877,
				"y": 0.0076084563,
				"z": 1.2006125998,
				"element": "C" 
			},
			{
				"x": 1.0039195352,
				"y": 0.1076331533,
				"z": 1.8699035497,
				"element": "C" 
			},
			{
				"x": -0.1877144581,
				"y": -0.0624170723,
				"z": 0.9165819507,
				"element": "C" 
			},
			{
				"x": -1.5412164257,
				"y": 0.1451992135,
				"z": 1.6111313921,
				"element": "C" 
			},
			{
				"x": -2.7694098461,
				"y": -0.1202042901,
				"z": 0.7224577669,
				"element": "C" 
			},
			{
				"x": -2.9309943681,
				"y": 0.8008337352,
				"z": -0.5005056062,
				"element": "C" 
			},
			{
				"x": -3.136950487,
				"y": 2.2830438253,
				"z": -0.1538402487,
				"element": "C" 
			},
			{
				"x": -3.4970654549,
				"y": 3.1723492671,
				"z": -1.3578465693,
				"element": "C" 
			},
			{
				"x": -2.4340471357,
				"y": 3.2832427515,
				"z": -2.4664682061,
				"element": "C" 
			},
			{
				"x": -1.1310640731,
				"y": 3.9642757019,
				"z": -2.0230359385,
				"element": "C" 
			},
			{
				"x": -0.03659542,
				"y": 4.0203307853,
				"z": -3.1022620707,
				"element": "C" 
			},
			{
				"x": -0.4283093333,
				"y": 4.7645585739,
				"z": -4.3998373222,
				"element": "C" 
			},
			{
				"x": -0.8792697842,
				"y": 6.1824070708,
				"z": -4.1353519956,
				"element": "C" 
			},
			{
				"x": 0.158115878,
				"y": 6.9860722227,
				"z": -3.7858399592,
				"element": "O" 
			},
			{
				"x": -2.0203292349,
				"y": 6.5883097024,
				"z": -4.1896952732,
				"element": "O" 
			},
			{
				"x": 4.6077870658,
				"y": -2.9436147865,
				"z": 5.2572761903,
				"element": "H" 
			},
			{
				"x": 4.795799904,
				"y": -4.6990249578,
				"z": 5.1509413311,
				"element": "H" 
			},
			{
				"x": 5.8164373201,
				"y": -3.6380353176,
				"z": 4.1707542007,
				"element": "H" 
			},
			{
				"x": 3.967932859,
				"y": -4.671648344,
				"z": 2.7867042532,
				"element": "H" 
			},
			{
				"x": 2.769070216,
				"y": -3.9807372029,
				"z": 3.8649388739,
				"element": "H" 
			},
			{
				"x": 3.5528173082,
				"y": -1.67304108,
				"z": 3.2517020088,
				"element": "H" 
			},
			{
				"x": 4.7415582892,
				"y": -2.3642080405,
				"z": 2.1609140732,
				"element": "H" 
			},
			{
				"x": 2.8799075184,
				"y": -3.4653348382,
				"z": 0.8540275981,
				"element": "H" 
			},
			{
				"x": 1.7036583401,
				"y": -2.7000881943,
				"z": 1.9002890284,
				"element": "H" 
			},
			{
				"x": 3.7063859118,
				"y": -1.2633024806,
				"z": 0.0695603219,
				"element": "H" 
			},
			{
				"x": 2.012934631,
				"y": -1.5214962789,
				"z": -0.2888053108,
				"element": "H" 
			},
			{
				"x": 3.1548658767,
				"y": 0.2414326846,
				"z": 1.9476876286,
				"element": "H" 
			},
			{
				"x": 2.465240813,
				"y": 0.7940880758,
				"z": 0.4373663648,
				"element": "H" 
			},
			{
				"x": 0.9276815766,
				"y": 1.0893123728,
				"z": 2.3573968117,
				"element": "H" 
			},
			{
				"x": 0.9255916086,
				"y": -0.6308250518,
				"z": 2.6794699854,
				"element": "H" 
			},
			{
				"x": -0.080247311,
				"y": 0.6456959318,
				"z": 0.0832328495,
				"element": "H" 
			},
			{
				"x": -0.1685662701,
				"y": -1.0644763301,
				"z": 0.466774103,
				"element": "H" 
			},
			{
				"x": -1.5866128172,
				"y": 1.163953797,
				"z": 2.018958877,
				"element": "H" 
			},
			{
				"x": -1.5958173855,
				"y": -0.524221097,
				"z": 2.4806321471,
				"element": "H" 
			},
			{
				"x": -3.6732788857,
				"y": -0.0410168213,
				"z": 1.3421131854,
				"element": "H" 
			},
			{
				"x": -2.7319518373,
				"y": -1.1618806716,
				"z": 0.3748680829,
				"element": "H" 
			},
			{
				"x": -2.0640428461,
				"y": 0.6874669574,
				"z": -1.163358764,
				"element": "H" 
			},
			{
				"x": -3.7965638181,
				"y": 0.4526876134,
				"z": -1.0812631144,
				"element": "H" 
			},
			{
				"x": -3.9474739395,
				"y": 2.3614874287,
				"z": 0.5841161024,
				"element": "H" 
			},
			{
				"x": -2.2437538621,
				"y": 2.6785006877,
				"z": 0.3458911157,
				"element": "H" 
			},
			{
				"x": -3.7281664636,
				"y": 4.1828414184,
				"z": -0.9943726298,
				"element": "H" 
			},
			{
				"x": -4.426270349,
				"y": 2.7941267272,
				"z": -1.8052726619,
				"element": "H" 
			},
			{
				"x": -2.8715155466,
				"y": 3.8556724836,
				"z": -3.2926591919,
				"element": "H" 
			},
			{
				"x": -2.2060443124,
				"y": 2.2863931916,
				"z": -2.8686446559,
				"element": "H" 
			},
			{
				"x": -0.7123855009,
				"y": 3.4404007622,
				"z": -1.1548832375,
				"element": "H" 
			},
			{
				"x": -1.360391983,
				"y": 4.9819915822,
				"z": -1.6775484099,
				"element": "H" 
			},
			{
				"x": 0.8572799777,
				"y": 4.4968923433,
				"z": -2.6843495945,
				"element": "H" 
			},
			{
				"x": 0.2542615052,
				"y": 2.9996850908,
				"z": -3.3811490813,
				"element": "H" 
			},
			{
				"x": 0.437006627,
				"y": 4.7907085958,
				"z": -5.0707108635,
				"element": "H" 
			},
			{
				"x": -1.2464564062,
				"y": 4.2565507618,
				"z": -4.913739866,
				"element": "H" 
			},
			{
				"x": -0.2290362179,
				"y": 7.8595136495,
				"z": -3.6064435497,
				"element": "H" 
			}
		],
		 "valence_orbital": [ 
			{
				"type": "occ",
				"energy": -0.30277,
				"method": "rhf"
			},
			{
				"type": "occ",
				"energy": -0.30212,
				"method": "rhf"
			},
			{
				"type": "occ",
				"energy": -0.29914,
				"method": "rhf"
			},
			{
				"type": "occ",
				"energy": -0.29523,
				"method": "rhf"
			},
			{
				"type": "occ",
				"energy": -0.2694,
				"method": "rhf"
			},
			{
				"type": "unocc",
				"energy": 0.00928,
				"method": "rhf"
			},
			{
				"type": "unocc",
				"energy": 0.06534,
				"method": "rhf"
			},
			{
				"type": "unocc",
				"energy": 0.07592,
				"method": "rhf"
			},
			{
				"type": "unocc",
				"energy": 0.08398,
				"method": "rhf"
			},
			{
				"type": "unocc",
				"energy": 0.09962,
				"method": "rhf"
			}
		],
		"cosmo_sigma_profile": { 
			"-0.025": 0.0,
			"-0.024": 0.0,
			"-0.023": 0.0,
			"-0.022": 0.0,
			"-0.021": 0.0,
			"-0.02": 0.0,
			"-0.019": 0.0,
			"-0.018": 0.496273681168,
			"-0.017": 0.969321626272,
			"-0.016": 0.659993365154,
			"-0.015": 0.926687103758,
			"-0.014": 0.642303040928,
			"-0.013": 0.372397022952,
			"-0.012": 0.773544557551,
			"-0.011": 1.03589962119,
			"-0.01": 0.875459055144,
			"-0.009": 0.360290167072,
			"-0.008": 0.259582424292,
			"-0.007": 0.752695969345,
			"-0.006": 2.16322329095,
			"-0.005": 3.61780468558,
			"-0.004": 5.74499720286,
			"-0.003": 12.6587807888,
			"-0.002": 52.5700039522,
			"-0.001": 97.8495432948,
			"0.0": 93.6311338431,
			"0.001": 78.2911661235,
			"0.002": 34.3575858272,
			"0.003": 3.98199046509,
			"0.004": 3.21251123502,
			"0.005": 2.98082109707,
			"0.006": 2.83917546538,
			"0.007": 2.73825582182,
			"0.008": 2.31624988806,
			"0.009": 2.85109819501,
			"0.01": 2.72559007967,
			"0.011": 2.64840418435,
			"0.012": 4.89930082839,
			"0.013": 1.28494841832,
			"0.014": 0.0,
			"0.015": 0.0,
			"0.016": 0.0,
			"0.017": 0.0,
			"0.018": 0.0,
			"0.019": 0.0,
			"0.02": 0.0,
			"0.021": 0.0,
			"0.022": 0.0,
			"0.023": 0.0,
			"0.024": 0.0,
			"0.025": 0.0
		}
	}
}
