{
	 "smiles": "CC(C(O)C(O)=O)C1=CC=C(C)C=C1", 
	 "Tm": 385.15, 
	 "num_atms": 28, 
	 "gaussian": { 
		 "optdone": 1, 
		 "sigma_profile": "yes", 
		 "theory": "DFT", 
		 "functional": "B3LYP", 
		 "basiset": "6-31G**", 
		 "properties": { 
			 "R2extent": 3362.0282, 
			 "electric_dipole_moment_norm": 2.47395128085, 
			 "electric_quadrupole_moment_norm": 5.8793158488, 
			 "total_energy": -653.299974912, 
			 "HOMO_LUMO_gap": 0.22144, 
			 "cosmo_polarized_energy": -11.88, 
			 "cosmo_cavitation_energy": 30.78, 
			 "cosmo_dispersion_energy": -21.65, 
			 "cosmo_repulsion_energy": 1.72, 
			 "cosmo_total_nonelectrostatic_energy": 10.84, 
			 "SMD_solvation_energy": 6.26 
		},
		"coords": [
			{
				"x": 1.8107665126,
				"y": 0.8514459381,
				"z": -2.1378396211,
				"element": "C" 
			},
			{
				"x": 0.3228337334,
				"y": 0.5799416819,
				"z": -1.8847133505,
				"element": "C" 
			},
			{
				"x": -0.4530898164,
				"y": 1.9092141895,
				"z": -1.5870073732,
				"element": "C" 
			},
			{
				"x": -0.4418242029,
				"y": 2.7397869297,
				"z": -2.7261129671,
				"element": "O" 
			},
			{
				"x": 0.1345855379,
				"y": 2.6884961671,
				"z": -0.4173258984,
				"element": "C" 
			},
			{
				"x": -0.0998732665,
				"y": 2.1361986817,
				"z": 0.7823457216,
				"element": "O" 
			},
			{
				"x": 0.763792417,
				"y": 3.7190345743,
				"z": -0.567723509,
				"element": "O" 
			},
			{
				"x": 0.0256449939,
				"y": -0.518968805,
				"z": -0.8744222509,
				"element": "C" 
			},
			{
				"x": 0.922830517,
				"y": -0.9038700163,
				"z": 0.1281754493,
				"element": "C" 
			},
			{
				"x": 0.6002608056,
				"y": -1.9159289894,
				"z": 1.0340048093,
				"element": "C" 
			},
			{
				"x": -0.6286973289,
				"y": -2.5816558128,
				"z": 0.974470336,
				"element": "C" 
			},
			{
				"x": -0.9653337184,
				"y": -3.6970267227,
				"z": 1.9361256331,
				"element": "C" 
			},
			{
				"x": -1.5286709986,
				"y": -2.1969204869,
				"z": -0.02907514,
				"element": "C" 
			},
			{
				"x": -1.204749734,
				"y": -1.1910487079,
				"z": -0.9358821432,
				"element": "C" 
			},
			{
				"x": 2.3214470766,
				"y": -0.059904965,
				"z": -2.4614402271,
				"element": "H" 
			},
			{
				"x": 1.9173052287,
				"y": 1.6028623754,
				"z": -2.9240885069,
				"element": "H" 
			},
			{
				"x": 2.3277372797,
				"y": 1.2268197316,
				"z": -1.2481462687,
				"element": "H" 
			},
			{
				"x": -0.1158442854,
				"y": 0.2652943678,
				"z": -2.8400646625,
				"element": "H" 
			},
			{
				"x": -1.4893569067,
				"y": 1.649585553,
				"z": -1.3349502272,
				"element": "H" 
			},
			{
				"x": 0.1254842561,
				"y": 3.496208903,
				"z": -2.5014072347,
				"element": "H" 
			},
			{
				"x": 0.3347608322,
				"y": 2.702947106,
				"z": 1.4427663518,
				"element": "H" 
			},
			{
				"x": 1.8883622563,
				"y": -0.4151248195,
				"z": 0.2112640593,
				"element": "H" 
			},
			{
				"x": 1.3199149961,
				"y": -2.1924708478,
				"z": 1.8011892532,
				"element": "H" 
			},
			{
				"x": -2.0191614786,
				"y": -3.667290552,
				"z": 2.2314168008,
				"element": "H" 
			},
			{
				"x": -0.7847466713,
				"y": -4.6807044649,
				"z": 1.4845220691,
				"element": "H" 
			},
			{
				"x": -0.358313756,
				"y": -3.6391426178,
				"z": 2.8443997101,
				"element": "H" 
			},
			{
				"x": -2.4916829518,
				"y": -2.696662864,
				"z": -0.1055227161,
				"element": "H" 
			},
			{
				"x": -1.9198813274,
				"y": -0.9241155272,
				"z": -1.711558097,
				"element": "H" 
			}
		],
		 "valence_orbital": [ 
			{
				"type": "occ",
				"energy": -0.32793,
				"method": "rhf"
			},
			{
				"type": "occ",
				"energy": -0.29347,
				"method": "rhf"
			},
			{
				"type": "occ",
				"energy": -0.27244,
				"method": "rhf"
			},
			{
				"type": "occ",
				"energy": -0.246,
				"method": "rhf"
			},
			{
				"type": "occ",
				"energy": -0.23038,
				"method": "rhf"
			},
			{
				"type": "unocc",
				"energy": -0.00894,
				"method": "rhf"
			},
			{
				"type": "unocc",
				"energy": 0.00092,
				"method": "rhf"
			},
			{
				"type": "unocc",
				"energy": 0.00506,
				"method": "rhf"
			},
			{
				"type": "unocc",
				"energy": 0.06632,
				"method": "rhf"
			},
			{
				"type": "unocc",
				"energy": 0.0967,
				"method": "rhf"
			}
		],
		"cosmo_sigma_profile": { 
			"-0.025": 0.0,
			"-0.024": 0.0,
			"-0.023": 0.0,
			"-0.022": 0.0,
			"-0.021": 0.0,
			"-0.02": 0.0,
			"-0.019": 0.550835652796,
			"-0.018": 1.15062174719,
			"-0.017": 0.711731997657,
			"-0.016": 0.794738857838,
			"-0.015": 0.666952354274,
			"-0.014": 0.432755673667,
			"-0.013": 0.761787870143,
			"-0.012": 1.19396310899,
			"-0.011": 1.29650090082,
			"-0.01": 1.32138013412,
			"-0.009": 0.796335382462,
			"-0.008": 1.06202855208,
			"-0.007": 1.77278634286,
			"-0.006": 4.77673840338,
			"-0.005": 15.8874748121,
			"-0.004": 21.3119859962,
			"-0.003": 24.9149755105,
			"-0.002": 21.3615508668,
			"-0.001": 21.0008707177,
			"0.0": 24.5073920456,
			"0.001": 17.3816632214,
			"0.002": 10.8139475124,
			"0.003": 9.7815583237,
			"0.004": 8.48121165274,
			"0.005": 9.61233947895,
			"0.006": 9.97775675356,
			"0.007": 6.73072381162,
			"0.008": 4.44880577482,
			"0.009": 4.99562973026,
			"0.01": 3.97065190313,
			"0.011": 4.35663647201,
			"0.012": 1.84849393856,
			"0.013": 1.8233071612,
			"0.014": 0.942629677562,
			"0.015": 0.0,
			"0.016": 0.0,
			"0.017": 0.0,
			"0.018": 0.0,
			"0.019": 0.0,
			"0.02": 0.0,
			"0.021": 0.0,
			"0.022": 0.0,
			"0.023": 0.0,
			"0.024": 0.0,
			"0.025": 0.0
		}
	}
}
