{
	 "smiles": "CC(=O)NC(CCCCN)C(O)=O", 
	 "Tm": 530.15, 
	 "num_atms": 29, 
	 "gaussian": { 
		 "optdone": 1, 
		 "sigma_profile": "yes", 
		 "theory": "DFT", 
		 "functional": "B3LYP", 
		 "basiset": "6-31G**", 
		 "properties": { 
			 "R2extent": 3172.3786, 
			 "electric_dipole_moment_norm": 3.21220747151, 
			 "electric_quadrupole_moment_norm": 11.2890944557, 
			 "total_energy": -649.70650582, 
			 "HOMO_LUMO_gap": 0.22755, 
			 "cosmo_polarized_energy": -17.55, 
			 "cosmo_cavitation_energy": 31.92, 
			 "cosmo_dispersion_energy": -21.63, 
			 "cosmo_repulsion_energy": 1.79, 
			 "cosmo_total_nonelectrostatic_energy": 12.08, 
			 "SMD_solvation_energy": 6.01 
		},
		"coords": [
			{
				"x": -1.571389736,
				"y": 2.0634660028,
				"z": -2.3356197992,
				"element": "C" 
			},
			{
				"x": -1.9869292676,
				"y": 0.9403714229,
				"z": -1.397893694,
				"element": "C" 
			},
			{
				"x": -3.0829744287,
				"y": 0.9204114013,
				"z": -0.8471146054,
				"element": "O" 
			},
			{
				"x": -1.0539289212,
				"y": -0.0376041107,
				"z": -1.19995044,
				"element": "N" 
			},
			{
				"x": -1.3644843854,
				"y": -1.224416491,
				"z": -0.4213547258,
				"element": "C" 
			},
			{
				"x": -1.2994111614,
				"y": -1.0187738229,
				"z": 1.1179141089,
				"element": "C" 
			},
			{
				"x": 0.0947946012,
				"y": -0.9615112604,
				"z": 1.7618573818,
				"element": "C" 
			},
			{
				"x": 0.9924396208,
				"y": 0.2109466671,
				"z": 1.3431591645,
				"element": "C" 
			},
			{
				"x": 2.3403916649,
				"y": 0.2244097382,
				"z": 2.073924019,
				"element": "C" 
			},
			{
				"x": 3.1095212748,
				"y": -0.9908372841,
				"z": 1.7774638647,
				"element": "N" 
			},
			{
				"x": -0.4290001422,
				"y": -2.3296861692,
				"z": -0.8787056717,
				"element": "C" 
			},
			{
				"x": -0.7540626542,
				"y": -3.5207946238,
				"z": -0.3415546513,
				"element": "O" 
			},
			{
				"x": 0.5173025718,
				"y": -2.1760611506,
				"z": -1.6250285654,
				"element": "O" 
			},
			{
				"x": -1.6331816568,
				"y": 3.0122857831,
				"z": -1.7958118303,
				"element": "H" 
			},
			{
				"x": -2.2855250339,
				"y": 2.1130628107,
				"z": -3.1622700375,
				"element": "H" 
			},
			{
				"x": -0.5621538723,
				"y": 1.9491537755,
				"z": -2.7402172871,
				"element": "H" 
			},
			{
				"x": -0.2169439073,
				"y": -0.0827459258,
				"z": -1.765421731,
				"element": "H" 
			},
			{
				"x": -2.3933418814,
				"y": -1.5261560827,
				"z": -0.6543184162,
				"element": "H" 
			},
			{
				"x": -1.8554623884,
				"y": -1.8465230587,
				"z": 1.5719133488,
				"element": "H" 
			},
			{
				"x": -1.8696622995,
				"y": -0.1074526442,
				"z": 1.3237204889,
				"element": "H" 
			},
			{
				"x": -0.0510733353,
				"y": -0.9124171864,
				"z": 2.849738475,
				"element": "H" 
			},
			{
				"x": 0.6340939118,
				"y": -1.8986545478,
				"z": 1.5846725947,
				"element": "H" 
			},
			{
				"x": 1.1818660182,
				"y": 0.175812669,
				"z": 0.2629461356,
				"element": "H" 
			},
			{
				"x": 0.4788116649,
				"y": 1.1631050803,
				"z": 1.5299138823,
				"element": "H" 
			},
			{
				"x": 2.8707201647,
				"y": 1.1599651124,
				"z": 1.8210084376,
				"element": "H" 
			},
			{
				"x": 2.1650321436,
				"y": 0.2501623217,
				"z": 3.1575043741,
				"element": "H" 
			},
			{
				"x": 3.9779852413,
				"y": -0.9932090647,
				"z": 2.3062003092,
				"element": "H" 
			},
			{
				"x": 3.373411099,
				"y": -0.9958546782,
				"z": 0.7941020305,
				"element": "H" 
			},
			{
				"x": -0.0879449052,
				"y": -4.1568546837,
				"z": -0.6528771604,
				"element": "H" 
			}
		],
		 "valence_orbital": [ 
			{
				"type": "occ",
				"energy": -0.322,
				"method": "rhf"
			},
			{
				"type": "occ",
				"energy": -0.29073,
				"method": "rhf"
			},
			{
				"type": "occ",
				"energy": -0.24943,
				"method": "rhf"
			},
			{
				"type": "occ",
				"energy": -0.24341,
				"method": "rhf"
			},
			{
				"type": "occ",
				"energy": -0.23129,
				"method": "rhf"
			},
			{
				"type": "unocc",
				"energy": -0.00374,
				"method": "rhf"
			},
			{
				"type": "unocc",
				"energy": 0.03171,
				"method": "rhf"
			},
			{
				"type": "unocc",
				"energy": 0.06486,
				"method": "rhf"
			},
			{
				"type": "unocc",
				"energy": 0.08009,
				"method": "rhf"
			},
			{
				"type": "unocc",
				"energy": 0.08997,
				"method": "rhf"
			}
		],
		"cosmo_sigma_profile": { 
			"-0.025": 0.0,
			"-0.024": 0.0,
			"-0.023": 0.0,
			"-0.022": 0.0,
			"-0.021": 0.0,
			"-0.02": 0.0,
			"-0.019": 0.279857839305,
			"-0.018": 1.20935941285,
			"-0.017": 0.984729220673,
			"-0.016": 0.318939751481,
			"-0.015": 0.834259599653,
			"-0.014": 1.04465636576,
			"-0.013": 0.817820752698,
			"-0.012": 0.876339316165,
			"-0.011": 1.82549688624,
			"-0.01": 2.15515763764,
			"-0.009": 3.5940202711,
			"-0.008": 4.83000218818,
			"-0.007": 4.95930358235,
			"-0.006": 8.7884587181,
			"-0.005": 11.9441579392,
			"-0.004": 14.4009851111,
			"-0.003": 17.4945942447,
			"-0.002": 29.7503801906,
			"-0.001": 34.379439375,
			"0.0": 22.8048902854,
			"0.001": 13.7733476814,
			"0.002": 8.82388211085,
			"0.003": 6.72108821585,
			"0.004": 5.21966634595,
			"0.005": 5.44240443397,
			"0.006": 4.52315126212,
			"0.007": 4.26682790146,
			"0.008": 5.15150043007,
			"0.009": 3.99352484535,
			"0.01": 5.49381232481,
			"0.011": 4.87265826612,
			"0.012": 2.45736358123,
			"0.013": 3.26248226325,
			"0.014": 5.41785502492,
			"0.015": 2.78083670873,
			"0.016": 0.601276973066,
			"0.017": 0.776246249797,
			"0.018": 0.341197394933,
			"0.019": 0.0222785930242,
			"0.02": 0.0,
			"0.021": 0.0,
			"0.022": 0.0,
			"0.023": 0.0,
			"0.024": 0.0,
			"0.025": 0.0
		}
	}
}
