{
	 "smiles": "NC1=CN(CC(O)=O)N=C1", 
	 "Tm": 480.15, 
	 "num_atms": 17, 
	 "gaussian": { 
		 "optdone": 1, 
		 "sigma_profile": "yes", 
		 "theory": "DFT", 
		 "functional": "B3LYP", 
		 "basiset": "6-31G**", 
		 "properties": { 
			 "R2extent": 1940.9592, 
			 "electric_dipole_moment_norm": 6.83225588953, 
			 "electric_quadrupole_moment_norm": 12.6082918954, 
			 "total_energy": -509.432339703, 
			 "HOMO_LUMO_gap": 0.2087, 
			 "cosmo_polarized_energy": -17.18, 
			 "cosmo_cavitation_energy": 21.5, 
			 "cosmo_dispersion_energy": -16.23, 
			 "cosmo_repulsion_energy": 1.34, 
			 "cosmo_total_nonelectrostatic_energy": 6.6, 
			 "SMD_solvation_energy": 4.87 
		},
		"coords": [
			{
				"x": -2.3298933101,
				"y": -0.5843153827,
				"z": 1.5655060653,
				"element": "N" 
			},
			{
				"x": -1.1679276523,
				"y": -0.2495951576,
				"z": 0.8583258647,
				"element": "C" 
			},
			{
				"x": -1.0075609692,
				"y": -0.1107503225,
				"z": -0.514795613,
				"element": "C" 
			},
			{
				"x": 0.2722171004,
				"y": 0.3158486993,
				"z": -0.7244737968,
				"element": "N" 
			},
			{
				"x": 0.9508058972,
				"y": 0.5208809143,
				"z": -1.9968158689,
				"element": "C" 
			},
			{
				"x": 1.8878033093,
				"y": 1.7462772016,
				"z": -2.0706273931,
				"element": "C" 
			},
			{
				"x": 2.4505377284,
				"y": 2.1514596994,
				"z": -0.9339152798,
				"element": "O" 
			},
			{
				"x": 2.125005974,
				"y": 2.2443079447,
				"z": -3.1459618913,
				"element": "O" 
			},
			{
				"x": 0.9517454106,
				"y": 0.443201991,
				"z": 0.4292070761,
				"element": "N" 
			},
			{
				"x": 0.0870768275,
				"y": 0.1172905769,
				"z": 1.3954096328,
				"element": "C" 
			},
			{
				"x": -2.9681069622,
				"y": -1.1704849474,
				"z": 1.0425345787,
				"element": "H" 
			},
			{
				"x": -2.1385387107,
				"y": -1.0053969941,
				"z": 2.4658543008,
				"element": "H" 
			},
			{
				"x": -1.6920048989,
				"y": -0.2736989197,
				"z": -1.3338700853,
				"element": "H" 
			},
			{
				"x": 0.1979855906,
				"y": 0.642677319,
				"z": -2.7752838795,
				"element": "H" 
			},
			{
				"x": 1.55497839,
				"y": -0.361415988,
				"z": -2.2456220154,
				"element": "H" 
			},
			{
				"x": 2.1096887337,
				"y": 1.6007523604,
				"z": -0.1794341602,
				"element": "H" 
			},
			{
				"x": 0.3881875417,
				"y": 0.1671610057,
				"z": 2.4329624649,
				"element": "H" 
			}
		],
		 "valence_orbital": [ 
			{
				"type": "occ",
				"energy": -0.31393,
				"method": "rhf"
			},
			{
				"type": "occ",
				"energy": -0.3005,
				"method": "rhf"
			},
			{
				"type": "occ",
				"energy": -0.27707,
				"method": "rhf"
			},
			{
				"type": "occ",
				"energy": -0.25954,
				"method": "rhf"
			},
			{
				"type": "occ",
				"energy": -0.21581,
				"method": "rhf"
			},
			{
				"type": "unocc",
				"energy": -0.00711,
				"method": "rhf"
			},
			{
				"type": "unocc",
				"energy": 0.01804,
				"method": "rhf"
			},
			{
				"type": "unocc",
				"energy": 0.05552,
				"method": "rhf"
			},
			{
				"type": "unocc",
				"energy": 0.07959,
				"method": "rhf"
			},
			{
				"type": "unocc",
				"energy": 0.08588,
				"method": "rhf"
			}
		],
		"cosmo_sigma_profile": { 
			"-0.025": 0.0,
			"-0.024": 0.0,
			"-0.023": 0.0,
			"-0.022": 0.0,
			"-0.021": 0.0,
			"-0.02": 0.0,
			"-0.019": 0.0,
			"-0.018": 0.0,
			"-0.017": 0.0,
			"-0.016": 0.0,
			"-0.015": 0.0,
			"-0.014": 0.0,
			"-0.013": 0.177294851035,
			"-0.012": 2.41653219278,
			"-0.011": 3.25141330395,
			"-0.01": 4.17757021884,
			"-0.009": 10.3795174352,
			"-0.008": 9.69164541649,
			"-0.007": 9.69021326304,
			"-0.006": 9.27264823806,
			"-0.005": 8.40883885408,
			"-0.004": 7.94076434747,
			"-0.003": 7.66699095949,
			"-0.002": 7.43606338387,
			"-0.001": 6.26327165792,
			"0.0": 5.91718688844,
			"0.001": 7.11021634541,
			"0.002": 7.48391957132,
			"0.003": 6.90054734029,
			"0.004": 9.39099416292,
			"0.005": 6.26675020411,
			"0.006": 4.53453854292,
			"0.007": 4.91085032413,
			"0.008": 3.9118439853,
			"0.009": 5.0476480094,
			"0.01": 4.85807160048,
			"0.011": 6.09085028939,
			"0.012": 6.46690516244,
			"0.013": 3.61481755395,
			"0.014": 0.744344740713,
			"0.015": 0.583384769433,
			"0.016": 0.436314507273,
			"0.017": 0.0283549448336,
			"0.018": 0.0,
			"0.019": 0.0,
			"0.02": 0.0,
			"0.021": 0.0,
			"0.022": 0.0,
			"0.023": 0.0,
			"0.024": 0.0,
			"0.025": 0.0
		}
	}
}
