{
	 "smiles": "OC(=O)C=CC1=CC2=C(O1)C=CC=C2", 
	 "Tm": 487.15, 
	 "num_atms": 22, 
	 "gaussian": { 
		 "optdone": 1, 
		 "sigma_profile": "yes", 
		 "theory": "DFT", 
		 "functional": "B3LYP", 
		 "basiset": "6-31G**", 
		 "properties": { 
			 "R2extent": 4373.4389, 
			 "electric_dipole_moment_norm": 3.45331308746, 
			 "electric_quadrupole_moment_norm": 17.7053743759, 
			 "total_energy": -649.659843684, 
			 "HOMO_LUMO_gap": 0.14505, 
			 "cosmo_polarized_energy": -11.29, 
			 "cosmo_cavitation_energy": 27.84, 
			 "cosmo_dispersion_energy": -20.53, 
			 "cosmo_repulsion_energy": 1.61, 
			 "cosmo_total_nonelectrostatic_energy": 8.91, 
			 "SMD_solvation_energy": 6.39 
		},
		"coords": [
			{
				"x": -0.8931181246,
				"y": 3.9253883756,
				"z": 3.5152231141,
				"element": "O" 
			},
			{
				"x": -1.1147374965,
				"y": 4.0965455011,
				"z": 2.1820961542,
				"element": "C" 
			},
			{
				"x": -1.6720873294,
				"y": 5.0849522575,
				"z": 1.7433793804,
				"element": "O" 
			},
			{
				"x": -0.621557858,
				"y": 2.9878186145,
				"z": 1.3527683933,
				"element": "C" 
			},
			{
				"x": -0.0049835808,
				"y": 1.8967152329,
				"z": 1.8526141665,
				"element": "C" 
			},
			{
				"x": 0.4890363269,
				"y": 0.7963582556,
				"z": 1.073622656,
				"element": "C" 
			},
			{
				"x": 1.1256720656,
				"y": -0.3558798163,
				"z": 1.4565873321,
				"element": "C" 
			},
			{
				"x": 1.3927080612,
				"y": -1.0991095052,
				"z": 0.2593985175,
				"element": "C" 
			},
			{
				"x": 0.878099062,
				"y": -0.3093323301,
				"z": -0.790384026,
				"element": "C" 
			},
			{
				"x": 0.329647358,
				"y": 0.8407132678,
				"z": -0.297614833,
				"element": "O" 
			},
			{
				"x": 0.935963213,
				"y": -0.6768329938,
				"z": -2.1292700574,
				"element": "C" 
			},
			{
				"x": 1.5434120274,
				"y": -1.8997904976,
				"z": -2.4096207486,
				"element": "C" 
			},
			{
				"x": 2.06767882,
				"y": -2.7129426391,
				"z": -1.3845642714,
				"element": "C" 
			},
			{
				"x": 2.0003311045,
				"y": -2.3280896679,
				"z": -0.0503841094,
				"element": "C" 
			},
			{
				"x": -1.2613599082,
				"y": 4.7158801362,
				"z": 3.9416798281,
				"element": "H" 
			},
			{
				"x": -0.789559796,
				"y": 3.1070187057,
				"z": 0.2886421838,
				"element": "H" 
			},
			{
				"x": 0.1453255376,
				"y": 1.8131175604,
				"z": 2.9250473281,
				"element": "H" 
			},
			{
				"x": 1.3692725848,
				"y": -0.6301530036,
				"z": 2.4734069084,
				"element": "H" 
			},
			{
				"x": 0.5282837274,
				"y": -0.0408918912,
				"z": -2.9072369328,
				"element": "H" 
			},
			{
				"x": 1.6140286486,
				"y": -2.2329243896,
				"z": -3.4405382343,
				"element": "H" 
			},
			{
				"x": 2.5327880384,
				"y": -3.6584198588,
				"z": -1.6465948806,
				"element": "H" 
			},
			{
				"x": 2.4066575181,
				"y": -2.960341314,
				"z": 0.733242131,
				"element": "H" 
			}
		],
		 "valence_orbital": [ 
			{
				"type": "occ",
				"energy": -0.31285,
				"method": "rhf"
			},
			{
				"type": "occ",
				"energy": -0.28933,
				"method": "rhf"
			},
			{
				"type": "occ",
				"energy": -0.27107,
				"method": "rhf"
			},
			{
				"type": "occ",
				"energy": -0.24654,
				"method": "rhf"
			},
			{
				"type": "occ",
				"energy": -0.22165,
				"method": "rhf"
			},
			{
				"type": "unocc",
				"energy": -0.0766,
				"method": "rhf"
			},
			{
				"type": "unocc",
				"energy": -0.00584,
				"method": "rhf"
			},
			{
				"type": "unocc",
				"energy": 0.00766,
				"method": "rhf"
			},
			{
				"type": "unocc",
				"energy": 0.05631,
				"method": "rhf"
			},
			{
				"type": "unocc",
				"energy": 0.07973,
				"method": "rhf"
			}
		],
		"cosmo_sigma_profile": { 
			"-0.025": 0.0,
			"-0.024": 0.0,
			"-0.023": 0.0,
			"-0.022": 0.0,
			"-0.021": 0.0,
			"-0.02": 0.0,
			"-0.019": 0.0,
			"-0.018": 0.257718615507,
			"-0.017": 1.10502770812,
			"-0.016": 0.860778115417,
			"-0.015": 0.583346267859,
			"-0.014": 0.870522693185,
			"-0.013": 0.725583542029,
			"-0.012": 0.468790265296,
			"-0.011": 1.07005748059,
			"-0.01": 0.724371676375,
			"-0.009": 1.18985343059,
			"-0.008": 4.39454345897,
			"-0.007": 6.86319233932,
			"-0.006": 12.6691562343,
			"-0.005": 13.0277696938,
			"-0.004": 12.7595594222,
			"-0.003": 10.7739409009,
			"-0.002": 12.4669252133,
			"-0.001": 13.1711484682,
			"0.0": 19.8908638116,
			"0.001": 24.5057208585,
			"0.002": 21.4874864318,
			"0.003": 17.2639551777,
			"0.004": 13.6580125633,
			"0.005": 8.93681387598,
			"0.006": 4.81764748141,
			"0.007": 2.756336622,
			"0.008": 2.9569527035,
			"0.009": 1.17925908285,
			"0.01": 2.39752469855,
			"0.011": 2.34511040237,
			"0.012": 5.29554261157,
			"0.013": 2.43483229032,
			"0.014": 0.059492428539,
			"0.015": 0.0,
			"0.016": 0.0,
			"0.017": 0.0,
			"0.018": 0.0,
			"0.019": 0.0,
			"0.02": 0.0,
			"0.021": 0.0,
			"0.022": 0.0,
			"0.023": 0.0,
			"0.024": 0.0,
			"0.025": 0.0
		}
	}
}
