{
	 "smiles": "CCCCCCCCCCC#N", 
	 "Tm": 267.15, 
	 "num_atms": 33, 
	 "gaussian": { 
		 "optdone": 1, 
		 "sigma_profile": "yes", 
		 "theory": "DFT", 
		 "functional": "B3LYP", 
		 "basiset": "6-31G**", 
		 "properties": { 
			 "R2extent": 3777.8543, 
			 "electric_dipole_moment_norm": 3.74480044862, 
			 "electric_quadrupole_moment_norm": 21.6241953691, 
			 "total_energy": -486.590487557, 
			 "HOMO_LUMO_gap": 0.3345, 
			 "cosmo_polarized_energy": -8.37, 
			 "cosmo_cavitation_energy": 34.56, 
			 "cosmo_dispersion_energy": -22.98, 
			 "cosmo_repulsion_energy": 1.91, 
			 "cosmo_total_nonelectrostatic_energy": 13.5, 
			 "SMD_solvation_energy": 6.26 
		},
		"coords": [
			{
				"x": 3.0367406925,
				"y": -3.1220207011,
				"z": -1.146042852,
				"element": "C" 
			},
			{
				"x": 1.5931467943,
				"y": -2.6598389699,
				"z": -1.3703187105,
				"element": "C" 
			},
			{
				"x": 1.4988071353,
				"y": -1.1905092061,
				"z": -1.8109220941,
				"element": "C" 
			},
			{
				"x": 0.0711622231,
				"y": -0.6670297107,
				"z": -2.0829097033,
				"element": "C" 
			},
			{
				"x": -0.6589761541,
				"y": -0.0263933989,
				"z": -0.8878211191,
				"element": "C" 
			},
			{
				"x": -0.9917095457,
				"y": -0.9684110515,
				"z": 0.2790617652,
				"element": "C" 
			},
			{
				"x": -1.9170479643,
				"y": -0.3485939482,
				"z": 1.3426215655,
				"element": "C" 
			},
			{
				"x": -1.366345446,
				"y": 0.8870107488,
				"z": 2.0765110973,
				"element": "C" 
			},
			{
				"x": -0.1171121707,
				"y": 0.6078518031,
				"z": 2.921478845,
				"element": "C" 
			},
			{
				"x": 0.3899260655,
				"y": 1.8462113641,
				"z": 3.6931482914,
				"element": "C" 
			},
			{
				"x": 0.8309844402,
				"y": 2.9295529332,
				"z": 2.8081294921,
				"element": "C" 
			},
			{
				"x": 1.1788222548,
				"y": 3.7740722685,
				"z": 2.091399246,
				"element": "N" 
			},
			{
				"x": 3.0800506502,
				"y": -4.1756328124,
				"z": -0.8507262702,
				"element": "H" 
			},
			{
				"x": 3.6356030907,
				"y": -3.0070357028,
				"z": -2.0569243139,
				"element": "H" 
			},
			{
				"x": 3.523333441,
				"y": -2.535700602,
				"z": -0.3579068577,
				"element": "H" 
			},
			{
				"x": 1.0138019424,
				"y": -2.8214357099,
				"z": -0.4538358534,
				"element": "H" 
			},
			{
				"x": 1.123252896,
				"y": -3.2898276185,
				"z": -2.1380030089,
				"element": "H" 
			},
			{
				"x": 1.9867862128,
				"y": -0.5495980426,
				"z": -1.0621223676,
				"element": "H" 
			},
			{
				"x": 2.095827476,
				"y": -1.0790199099,
				"z": -2.7259539994,
				"element": "H" 
			},
			{
				"x": -0.5430446252,
				"y": -1.481585785,
				"z": -2.4931287685,
				"element": "H" 
			},
			{
				"x": 0.1237520914,
				"y": 0.0918632983,
				"z": -2.8732893221,
				"element": "H" 
			},
			{
				"x": -0.0565951665,
				"y": 0.817197735,
				"z": -0.5247847171,
				"element": "H" 
			},
			{
				"x": -1.5972134937,
				"y": 0.4124433511,
				"z": -1.2562034305,
				"element": "H" 
			},
			{
				"x": -0.0668614801,
				"y": -1.3191065181,
				"z": 0.7531993226,
				"element": "H" 
			},
			{
				"x": -1.4826526109,
				"y": -1.8676759368,
				"z": -0.1168888489,
				"element": "H" 
			},
			{
				"x": -2.1697843576,
				"y": -1.118140269,
				"z": 2.0851220416,
				"element": "H" 
			},
			{
				"x": -2.8643742696,
				"y": -0.0689490603,
				"z": 0.8628010479,
				"element": "H" 
			},
			{
				"x": -2.1535760146,
				"y": 1.2820022556,
				"z": 2.7330969309,
				"element": "H" 
			},
			{
				"x": -1.1460424856,
				"y": 1.6842951576,
				"z": 1.3565465577,
				"element": "H" 
			},
			{
				"x": -0.334085205,
				"y": -0.1748652746,
				"z": 3.6590620724,
				"element": "H" 
			},
			{
				"x": 0.6970550944,
				"y": 0.2306007089,
				"z": 2.2933479862,
				"element": "H" 
			},
			{
				"x": -0.4004643484,
				"y": 2.2383402343,
				"z": 4.3450603498,
				"element": "H" 
			},
			{
				"x": 1.2306328373,
				"y": 1.5747283697,
				"z": 4.3419956255,
				"element": "H" 
			}
		],
		 "valence_orbital": [ 
			{
				"type": "occ",
				"energy": -0.31985,
				"method": "rhf"
			},
			{
				"type": "occ",
				"energy": -0.31603,
				"method": "rhf"
			},
			{
				"type": "occ",
				"energy": -0.31285,
				"method": "rhf"
			},
			{
				"type": "occ",
				"energy": -0.30434,
				"method": "rhf"
			},
			{
				"type": "occ",
				"energy": -0.30138,
				"method": "rhf"
			},
			{
				"type": "unocc",
				"energy": 0.03312,
				"method": "rhf"
			},
			{
				"type": "unocc",
				"energy": 0.04128,
				"method": "rhf"
			},
			{
				"type": "unocc",
				"energy": 0.07758,
				"method": "rhf"
			},
			{
				"type": "unocc",
				"energy": 0.09291,
				"method": "rhf"
			},
			{
				"type": "unocc",
				"energy": 0.09765,
				"method": "rhf"
			}
		],
		"cosmo_sigma_profile": { 
			"-0.025": 0.0,
			"-0.024": 0.0,
			"-0.023": 0.0,
			"-0.022": 0.0,
			"-0.021": 0.0,
			"-0.02": 0.0,
			"-0.019": 0.0,
			"-0.018": 0.0,
			"-0.017": 0.0,
			"-0.016": 0.0,
			"-0.015": 0.0,
			"-0.014": 0.0,
			"-0.013": 0.0,
			"-0.012": 0.0,
			"-0.011": 0.0,
			"-0.01": 0.0,
			"-0.009": 0.0,
			"-0.008": 1.63050133936,
			"-0.007": 5.48513745528,
			"-0.006": 5.42588912464,
			"-0.005": 6.29018354318,
			"-0.004": 13.1054048547,
			"-0.003": 12.3563043146,
			"-0.002": 34.9234866628,
			"-0.001": 52.5320460928,
			"0.0": 50.2209873207,
			"0.001": 38.4183879917,
			"0.002": 17.1795876162,
			"0.003": 1.97742588136,
			"0.004": 2.0674342426,
			"0.005": 1.99111064513,
			"0.006": 2.3592801759,
			"0.007": 2.36500354567,
			"0.008": 2.59396766985,
			"0.009": 3.64616467768,
			"0.01": 3.31530344003,
			"0.011": 3.26394625853,
			"0.012": 2.65854971745,
			"0.013": 2.32041221576,
			"0.014": 0.979277667185,
			"0.015": 0.0,
			"0.016": 0.0,
			"0.017": 0.0,
			"0.018": 0.0,
			"0.019": 0.0,
			"0.02": 0.0,
			"0.021": 0.0,
			"0.022": 0.0,
			"0.023": 0.0,
			"0.024": 0.0,
			"0.025": 0.0
		}
	}
}
