{
	 "smiles": "NC(=O)C1=CC=C(C=C1)N1C=CC=C1", 
	 "Tm": 511.15, 
	 "num_atms": 24, 
	 "gaussian": { 
		 "optdone": 1, 
		 "sigma_profile": "yes", 
		 "theory": "DFT", 
		 "functional": "B3LYP", 
		 "basiset": "6-31G**", 
		 "properties": { 
			 "R2extent": 4039.7531, 
			 "electric_dipole_moment_norm": 3.16333842799, 
			 "electric_quadrupole_moment_norm": 16.9214067329, 
			 "total_energy": -609.929065419, 
			 "HOMO_LUMO_gap": 0.17106, 
			 "cosmo_polarized_energy": -15.15, 
			 "cosmo_cavitation_energy": 28.41, 
			 "cosmo_dispersion_energy": -20.93, 
			 "cosmo_repulsion_energy": 1.62, 
			 "cosmo_total_nonelectrostatic_energy": 9.1, 
			 "SMD_solvation_energy": 6.27 
		},
		"coords": [
			{
				"x": 4.4975739473,
				"y": -0.8814139408,
				"z": -0.2741078387,
				"element": "N" 
			},
			{
				"x": 3.6206758328,
				"y": -0.6371207579,
				"z": -1.3067044928,
				"element": "C" 
			},
			{
				"x": 4.0145343952,
				"y": -0.3768329976,
				"z": -2.4372944159,
				"element": "O" 
			},
			{
				"x": 2.1603905357,
				"y": -0.7346108074,
				"z": -0.9780630657,
				"element": "C" 
			},
			{
				"x": 1.2529649674,
				"y": -0.1763459985,
				"z": -1.888168389,
				"element": "C" 
			},
			{
				"x": -0.1147913027,
				"y": -0.2158561744,
				"z": -1.6488594145,
				"element": "C" 
			},
			{
				"x": -0.6092381334,
				"y": -0.848593262,
				"z": -0.4980418807,
				"element": "C" 
			},
			{
				"x": 0.2893664794,
				"y": -1.4352440871,
				"z": 0.4043209154,
				"element": "C" 
			},
			{
				"x": 1.659122018,
				"y": -1.3685098767,
				"z": 0.1673232447,
				"element": "C" 
			},
			{
				"x": -1.9991625305,
				"y": -0.9016734081,
				"z": -0.2534545739,
				"element": "N" 
			},
			{
				"x": -2.6040509754,
				"y": -0.8840305477,
				"z": 0.9946632348,
				"element": "C" 
			},
			{
				"x": -3.9644295495,
				"y": -0.9484909166,
				"z": 0.8167789879,
				"element": "C" 
			},
			{
				"x": -4.2091351952,
				"y": -1.0174164352,
				"z": -0.5877325962,
				"element": "C" 
			},
			{
				"x": -2.9904899729,
				"y": -0.9816353922,
				"z": -1.2202266724,
				"element": "C" 
			},
			{
				"x": 5.4670549212,
				"y": -0.6912712662,
				"z": -0.4843585577,
				"element": "H" 
			},
			{
				"x": 4.207658613,
				"y": -0.7451198977,
				"z": 0.6817151585,
				"element": "H" 
			},
			{
				"x": 1.6486479993,
				"y": 0.3012249462,
				"z": -2.7780061252,
				"element": "H" 
			},
			{
				"x": -0.8030179657,
				"y": 0.2615325517,
				"z": -2.3379114824,
				"element": "H" 
			},
			{
				"x": -0.0885056083,
				"y": -1.9712225143,
				"z": 1.2680907784,
				"element": "H" 
			},
			{
				"x": 2.3325232596,
				"y": -1.8627419519,
				"z": 0.8613655945,
				"element": "H" 
			},
			{
				"x": -2.0128494775,
				"y": -0.7728795054,
				"z": 1.8902853513,
				"element": "H" 
			},
			{
				"x": -4.7040916943,
				"y": -0.9356604248,
				"z": 1.604960056,
				"element": "H" 
			},
			{
				"x": -5.1701066263,
				"y": -1.0961329554,
				"z": -1.0763799901,
				"element": "H" 
			},
			{
				"x": -2.7341439371,
				"y": -1.0593543802,
				"z": -2.2652938263,
				"element": "H" 
			}
		],
		 "valence_orbital": [ 
			{
				"type": "occ",
				"energy": -0.27537,
				"method": "rhf"
			},
			{
				"type": "occ",
				"energy": -0.26719,
				"method": "rhf"
			},
			{
				"type": "occ",
				"energy": -0.25242,
				"method": "rhf"
			},
			{
				"type": "occ",
				"energy": -0.22484,
				"method": "rhf"
			},
			{
				"type": "occ",
				"energy": -0.21585,
				"method": "rhf"
			},
			{
				"type": "unocc",
				"energy": -0.04479,
				"method": "rhf"
			},
			{
				"type": "unocc",
				"energy": -0.01851,
				"method": "rhf"
			},
			{
				"type": "unocc",
				"energy": 0.0283,
				"method": "rhf"
			},
			{
				"type": "unocc",
				"energy": 0.06494,
				"method": "rhf"
			},
			{
				"type": "unocc",
				"energy": 0.07404,
				"method": "rhf"
			}
		],
		"cosmo_sigma_profile": { 
			"-0.025": 0.0,
			"-0.024": 0.0,
			"-0.023": 0.0,
			"-0.022": 0.0,
			"-0.021": 0.0,
			"-0.02": 0.0,
			"-0.019": 0.0,
			"-0.018": 0.0,
			"-0.017": 0.0,
			"-0.016": 0.0,
			"-0.015": 0.0812312229633,
			"-0.014": 1.38011584715,
			"-0.013": 2.19878162828,
			"-0.012": 2.5603597148,
			"-0.011": 2.61006994551,
			"-0.01": 2.66896720909,
			"-0.009": 2.73183160517,
			"-0.008": 4.34397561286,
			"-0.007": 10.7233746662,
			"-0.006": 11.3913125741,
			"-0.005": 13.648052509,
			"-0.004": 12.1974778529,
			"-0.003": 14.0839820896,
			"-0.002": 11.0461793088,
			"-0.001": 12.2981573366,
			"0.0": 17.1063915507,
			"0.001": 15.3273495948,
			"0.002": 15.4145692389,
			"0.003": 19.4727916098,
			"0.004": 12.2551182107,
			"0.005": 7.59497974235,
			"0.006": 7.27255449933,
			"0.007": 7.28735708934,
			"0.008": 6.94568365805,
			"0.009": 1.64726393394,
			"0.01": 1.15809472566,
			"0.011": 1.24179325985,
			"0.012": 2.29266698472,
			"0.013": 4.33667443669,
			"0.014": 4.09984648926,
			"0.015": 0.291344217827,
			"0.016": 0.0,
			"0.017": 0.0,
			"0.018": 0.0,
			"0.019": 0.0,
			"0.02": 0.0,
			"0.021": 0.0,
			"0.022": 0.0,
			"0.023": 0.0,
			"0.024": 0.0,
			"0.025": 0.0
		}
	}
}
