{
	 "smiles": "[O-][N+](=O)C1=CC=C(N2C=CC=C2)C(=C1)C#N", 
	 "Tm": 370.15, 
	 "num_atms": 23, 
	 "gaussian": { 
		 "optdone": 1, 
		 "sigma_profile": "yes", 
		 "theory": "DFT", 
		 "functional": "B3LYP", 
		 "basiset": "6-31G**", 
		 "properties": { 
			 "R2extent": 4855.9909, 
			 "electric_dipole_moment_norm": 4.51111857304, 
			 "electric_quadrupole_moment_norm": 13.8153845042, 
			 "total_energy": -737.95078525, 
			 "HOMO_LUMO_gap": 0.12754, 
			 "cosmo_polarized_energy": -14.07, 
			 "cosmo_cavitation_energy": 29.58, 
			 "cosmo_dispersion_energy": -20.86, 
			 "cosmo_repulsion_energy": 1.59, 
			 "cosmo_total_nonelectrostatic_energy": 10.31, 
			 "SMD_solvation_energy": 9.13 
		},
		"coords": [
			{
				"x": -3.6976797235,
				"y": 3.3205359445,
				"z": -2.3417064568,
				"element": "O" 
			},
			{
				"x": -3.4023907312,
				"y": 2.1820055207,
				"z": -2.7022491572,
				"element": "N" 
			},
			{
				"x": -3.7733086976,
				"y": 1.6520200043,
				"z": -3.7480808585,
				"element": "O" 
			},
			{
				"x": -2.5389684239,
				"y": 1.3958249695,
				"z": -1.8113748596,
				"element": "C" 
			},
			{
				"x": -2.0831494402,
				"y": 1.9647915607,
				"z": -0.6223102251,
				"element": "C" 
			},
			{
				"x": -1.2575718666,
				"y": 1.2203489457,
				"z": 0.206436011,
				"element": "C" 
			},
			{
				"x": -0.8870298198,
				"y": -0.0960914312,
				"z": -0.1211231165,
				"element": "C" 
			},
			{
				"x": -0.059216309,
				"y": -0.8080382508,
				"z": 0.7570466577,
				"element": "N" 
			},
			{
				"x": -0.0869686946,
				"y": -0.6798325376,
				"z": 2.1465022575,
				"element": "C" 
			},
			{
				"x": 0.902200618,
				"y": -1.4685191838,
				"z": 2.6685913498,
				"element": "C" 
			},
			{
				"x": 1.5800772858,
				"y": -2.0930919952,
				"z": 1.5745596251,
				"element": "C" 
			},
			{
				"x": 0.9746169626,
				"y": -1.6803983549,
				"z": 0.4183885483,
				"element": "C" 
			},
			{
				"x": -1.3776583606,
				"y": -0.6605571712,
				"z": -1.3285856366,
				"element": "C" 
			},
			{
				"x": -2.1962593156,
				"y": 0.1016318135,
				"z": -2.1741602194,
				"element": "C" 
			},
			{
				"x": -1.1134851909,
				"y": -2.0155946951,
				"z": -1.7134539371,
				"element": "C" 
			},
			{
				"x": -0.9351342305,
				"y": -3.107907722,
				"z": -2.0708458122,
				"element": "N" 
			},
			{
				"x": -2.3621246568,
				"y": 2.9819765127,
				"z": -0.3772888291,
				"element": "H" 
			},
			{
				"x": -0.8585627675,
				"y": 1.665874363,
				"z": 1.1097763792,
				"element": "H" 
			},
			{
				"x": -0.8509425957,
				"y": -0.0899144419,
				"z": 2.6281092382,
				"element": "H" 
			},
			{
				"x": 1.1109733897,
				"y": -1.6011384496,
				"z": 3.7206897212,
				"element": "H" 
			},
			{
				"x": 2.4233948607,
				"y": -2.7661744086,
				"z": 1.6338585178,
				"element": "H" 
			},
			{
				"x": 1.20351819,
				"y": -1.8977479684,
				"z": -0.6117046173,
				"element": "H" 
			},
			{
				"x": -2.5773304827,
				"y": -0.3175030243,
				"z": -3.0966745803,
				"element": "H" 
			}
		],
		 "valence_orbital": [ 
			{
				"type": "occ",
				"energy": -0.31841,
				"method": "rhf"
			},
			{
				"type": "occ",
				"energy": -0.3065,
				"method": "rhf"
			},
			{
				"type": "occ",
				"energy": -0.29782,
				"method": "rhf"
			},
			{
				"type": "occ",
				"energy": -0.25434,
				"method": "rhf"
			},
			{
				"type": "occ",
				"energy": -0.23563,
				"method": "rhf"
			},
			{
				"type": "unocc",
				"energy": -0.10809,
				"method": "rhf"
			},
			{
				"type": "unocc",
				"energy": -0.07773,
				"method": "rhf"
			},
			{
				"type": "unocc",
				"energy": -0.03495,
				"method": "rhf"
			},
			{
				"type": "unocc",
				"energy": 0.01153,
				"method": "rhf"
			},
			{
				"type": "unocc",
				"energy": 0.02174,
				"method": "rhf"
			}
		],
		"cosmo_sigma_profile": { 
			"-0.025": 0.0,
			"-0.024": 0.0,
			"-0.023": 0.0,
			"-0.022": 0.0,
			"-0.021": 0.0,
			"-0.02": 0.0,
			"-0.019": 0.0,
			"-0.018": 0.0,
			"-0.017": 0.0,
			"-0.016": 0.0,
			"-0.015": 0.0,
			"-0.014": 0.0,
			"-0.013": 0.0,
			"-0.012": 0.0,
			"-0.011": 0.0,
			"-0.01": 0.629024366006,
			"-0.009": 6.52870382714,
			"-0.008": 9.71142606405,
			"-0.007": 9.37601876237,
			"-0.006": 13.3632959554,
			"-0.005": 12.3530053607,
			"-0.004": 16.2014327899,
			"-0.003": 25.2059563646,
			"-0.002": 22.7054477905,
			"-0.001": 14.4755233768,
			"0.0": 10.2373172184,
			"0.001": 8.58758171851,
			"0.002": 9.1617818754,
			"0.003": 9.51672573498,
			"0.004": 10.064086916,
			"0.005": 11.4769050846,
			"0.006": 13.1521968336,
			"0.007": 14.4378845564,
			"0.008": 7.94211903298,
			"0.009": 6.76490279245,
			"0.01": 3.92624867476,
			"0.011": 2.34898082832,
			"0.012": 1.93680231538,
			"0.013": 0.162470598702,
			"0.014": 0.0,
			"0.015": 0.0,
			"0.016": 0.0,
			"0.017": 0.0,
			"0.018": 0.0,
			"0.019": 0.0,
			"0.02": 0.0,
			"0.021": 0.0,
			"0.022": 0.0,
			"0.023": 0.0,
			"0.024": 0.0,
			"0.025": 0.0
		}
	}
}
