{
	 "smiles": "COC1=CC2=C(C=C1)N=C(C=C2C(O)=O)C1CC1", 
	 "Tm": 493.15, 
	 "num_atms": 31, 
	 "gaussian": { 
		 "optdone": 1, 
		 "sigma_profile": "yes", 
		 "theory": "DFT", 
		 "functional": "B3LYP", 
		 "basiset": "6-31G**", 
		 "properties": { 
			 "R2extent": 5493.9289, 
			 "electric_dipole_moment_norm": 1.7027615247, 
			 "electric_quadrupole_moment_norm": 7.10586726727, 
			 "total_energy": -821.7382736, 
			 "HOMO_LUMO_gap": 0.13787, 
			 "cosmo_polarized_energy": -11.16, 
			 "cosmo_cavitation_energy": 34.89, 
			 "cosmo_dispersion_energy": -25.32, 
			 "cosmo_repulsion_energy": 1.94, 
			 "cosmo_total_nonelectrostatic_energy": 11.5, 
			 "SMD_solvation_energy": 6.36 
		},
		"coords": [
			{
				"x": 3.8238535237,
				"y": -3.5523918733,
				"z": 0.8127508625,
				"element": "C" 
			},
			{
				"x": 2.644316483,
				"y": -3.6159452561,
				"z": 1.6035508317,
				"element": "O" 
			},
			{
				"x": 1.6079598161,
				"y": -2.7979946024,
				"z": 1.2752011361,
				"element": "C" 
			},
			{
				"x": 1.6172776427,
				"y": -1.9023659305,
				"z": 0.2220630433,
				"element": "C" 
			},
			{
				"x": 0.4781183967,
				"y": -1.0929501868,
				"z": -0.0341594017,
				"element": "C" 
			},
			{
				"x": -0.6746613656,
				"y": -1.2201400489,
				"z": 0.8135061908,
				"element": "C" 
			},
			{
				"x": -0.6400482342,
				"y": -2.1559364803,
				"z": 1.8872374535,
				"element": "C" 
			},
			{
				"x": 0.4676208949,
				"y": -2.9257948828,
				"z": 2.116150869,
				"element": "C" 
			},
			{
				"x": -1.8103544965,
				"y": -0.4956405161,
				"z": 0.6544350871,
				"element": "N" 
			},
			{
				"x": -1.8822932443,
				"y": 0.3851018764,
				"z": -0.3324028249,
				"element": "C" 
			},
			{
				"x": -0.8031497324,
				"y": 0.589801879,
				"z": -1.2261218897,
				"element": "C" 
			},
			{
				"x": 0.37120208,
				"y": -0.1317223986,
				"z": -1.0938719019,
				"element": "C" 
			},
			{
				"x": 1.4818717428,
				"y": 0.1168606438,
				"z": -2.0580381072,
				"element": "C" 
			},
			{
				"x": 1.1731354279,
				"y": 1.0643706913,
				"z": -2.9807028037,
				"element": "O" 
			},
			{
				"x": 2.5686745537,
				"y": -0.432499965,
				"z": -2.0731771277,
				"element": "O" 
			},
			{
				"x": -3.1390530981,
				"y": 1.1674444353,
				"z": -0.4864301943,
				"element": "C" 
			},
			{
				"x": -4.4728735087,
				"y": 0.5179040772,
				"z": -0.1588872938,
				"element": "C" 
			},
			{
				"x": -3.9258426846,
				"y": 1.5758006673,
				"z": 0.7472944652,
				"element": "C" 
			},
			{
				"x": 3.6208616403,
				"y": -3.8157493897,
				"z": -0.2325051081,
				"element": "H" 
			},
			{
				"x": 4.5136057266,
				"y": -4.2794311714,
				"z": 1.2437037485,
				"element": "H" 
			},
			{
				"x": 4.2765214983,
				"y": -2.5538666159,
				"z": 0.8469328815,
				"element": "H" 
			},
			{
				"x": 2.4758989333,
				"y": -1.7963368984,
				"z": -0.4223076219,
				"element": "H" 
			},
			{
				"x": -1.5245040687,
				"y": -2.2306911172,
				"z": 2.5109020006,
				"element": "H" 
			},
			{
				"x": 0.5086135776,
				"y": -3.642642863,
				"z": 2.9297732102,
				"element": "H" 
			},
			{
				"x": -0.8991918149,
				"y": 1.3189632084,
				"z": -2.0210588994,
				"element": "H" 
			},
			{
				"x": 1.9598287863,
				"y": 1.1393336821,
				"z": -3.5450672332,
				"element": "H" 
			},
			{
				"x": -3.1310766279,
				"y": 1.8717865749,
				"z": -1.3135432165,
				"element": "H" 
			},
			{
				"x": -4.4257354428,
				"y": -0.509054492,
				"z": 0.1887428665,
				"element": "H" 
			},
			{
				"x": -5.3183994707,
				"y": 0.7570495407,
				"z": -0.7968185769,
				"element": "H" 
			},
			{
				"x": -3.5146714209,
				"y": 1.2533433959,
				"z": 1.6984249228,
				"element": "H" 
			},
			{
				"x": -4.3867055136,
				"y": 2.5589940162,
				"z": 0.7464226316,
				"element": "H" 
			}
		],
		 "valence_orbital": [ 
			{
				"type": "occ",
				"energy": -0.28582,
				"method": "rhf"
			},
			{
				"type": "occ",
				"energy": -0.27803,
				"method": "rhf"
			},
			{
				"type": "occ",
				"energy": -0.25379,
				"method": "rhf"
			},
			{
				"type": "occ",
				"energy": -0.24158,
				"method": "rhf"
			},
			{
				"type": "occ",
				"energy": -0.21122,
				"method": "rhf"
			},
			{
				"type": "unocc",
				"energy": -0.07335,
				"method": "rhf"
			},
			{
				"type": "unocc",
				"energy": -0.01151,
				"method": "rhf"
			},
			{
				"type": "unocc",
				"energy": 0.00217,
				"method": "rhf"
			},
			{
				"type": "unocc",
				"energy": 0.05253,
				"method": "rhf"
			},
			{
				"type": "unocc",
				"energy": 0.07534,
				"method": "rhf"
			}
		],
		"cosmo_sigma_profile": { 
			"-0.025": 0.0,
			"-0.024": 0.0,
			"-0.023": 0.0,
			"-0.022": 0.0,
			"-0.021": 0.0,
			"-0.02": 0.0,
			"-0.019": 0.0524816470282,
			"-0.018": 0.736193764998,
			"-0.017": 1.052755352,
			"-0.016": 0.809517389977,
			"-0.015": 0.633703984894,
			"-0.014": 0.816249305831,
			"-0.013": 0.843975320336,
			"-0.012": 0.74988114083,
			"-0.011": 0.567051097345,
			"-0.01": 0.51624855215,
			"-0.009": 0.368487881917,
			"-0.008": 0.783688106293,
			"-0.007": 4.14429362558,
			"-0.006": 10.3724490545,
			"-0.005": 17.4694501601,
			"-0.004": 22.6971298731,
			"-0.003": 24.1842288178,
			"-0.002": 18.3329745473,
			"-0.001": 16.3229221354,
			"0.0": 22.8568129059,
			"0.001": 28.0469679528,
			"0.002": 26.2402314409,
			"0.003": 27.0578857878,
			"0.004": 15.8840055375,
			"0.005": 8.49310835378,
			"0.006": 6.68432623516,
			"0.007": 5.35966033887,
			"0.008": 3.93698679803,
			"0.009": 4.47340754021,
			"0.01": 3.93625857395,
			"0.011": 3.15454663661,
			"0.012": 0.842953703121,
			"0.013": 0.0,
			"0.014": 0.0,
			"0.015": 0.0,
			"0.016": 0.0,
			"0.017": 0.0,
			"0.018": 0.0,
			"0.019": 0.0,
			"0.02": 0.0,
			"0.021": 0.0,
			"0.022": 0.0,
			"0.023": 0.0,
			"0.024": 0.0,
			"0.025": 0.0
		}
	}
}
