{
	 "smiles": "FC1=CC=C(NC(=O)NC2=NN=C(O2)C2=CC=C(Cl)C=C2)C=C1", 
	 "Tm": 542.15, 
	 "num_atms": 33, 
	 "gaussian": { 
		 "optdone": 1, 
		 "sigma_profile": "yes", 
		 "theory": "DFT", 
		 "functional": "B3LYP", 
		 "basiset": "6-31G**", 
		 "properties": { 
			 "R2extent": 8828.4146, 
			 "electric_dipole_moment_norm": 2.77505213465, 
			 "electric_quadrupole_moment_norm": 9.65309993992, 
			 "total_energy": -1507.09305431, 
			 "HOMO_LUMO_gap": 0.17298, 
			 "cosmo_polarized_energy": -19.46, 
			 "cosmo_cavitation_energy": 42.15, 
			 "cosmo_dispersion_energy": -28.2, 
			 "cosmo_repulsion_energy": 2.14, 
			 "cosmo_total_nonelectrostatic_energy": 16.09, 
			 "SMD_solvation_energy": 6.38 
		},
		"coords": [
			{
				"x": -0.8236891203,
				"y": 3.4867701399,
				"z": 2.5640178921,
				"element": "F" 
			},
			{
				"x": -1.3514718126,
				"y": 2.5598376678,
				"z": 1.7401848153,
				"element": "C" 
			},
			{
				"x": -1.5551414837,
				"y": 1.2689224992,
				"z": 2.2149824704,
				"element": "C" 
			},
			{
				"x": -2.0876093998,
				"y": 0.312246074,
				"z": 1.3537190969,
				"element": "C" 
			},
			{
				"x": -2.434892935,
				"y": 0.6493690503,
				"z": 0.0384251765,
				"element": "C" 
			},
			{
				"x": -3.0215246595,
				"y": -0.3581536599,
				"z": -0.7746616089,
				"element": "N" 
			},
			{
				"x": -3.0891573058,
				"y": -0.4759393795,
				"z": -2.1459103631,
				"element": "C" 
			},
			{
				"x": -4.0054335283,
				"y": -1.052842386,
				"z": -2.7074023002,
				"element": "O" 
			},
			{
				"x": -2.0549189539,
				"y": 0.0962370791,
				"z": -2.9079169755,
				"element": "N" 
			},
			{
				"x": -0.7183918702,
				"y": 0.2541142974,
				"z": -2.6276543239,
				"element": "C" 
			},
			{
				"x": 0.1342813198,
				"y": 0.9307688752,
				"z": -3.3381565611,
				"element": "N" 
			},
			{
				"x": 1.3683421497,
				"y": 0.7396479407,
				"z": -2.719953177,
				"element": "N" 
			},
			{
				"x": 1.1658929004,
				"y": -0.0136556945,
				"z": -1.6830215982,
				"element": "C" 
			},
			{
				"x": -0.1601523696,
				"y": -0.3785653658,
				"z": -1.5682361846,
				"element": "O" 
			},
			{
				"x": 2.1204837179,
				"y": -0.4811940218,
				"z": -0.6888123859,
				"element": "C" 
			},
			{
				"x": 3.4739993993,
				"y": -0.128380096,
				"z": -0.8218015588,
				"element": "C" 
			},
			{
				"x": 4.4083769447,
				"y": -0.5632204384,
				"z": 0.1107717997,
				"element": "C" 
			},
			{
				"x": 3.987736943,
				"y": -1.3550642506,
				"z": 1.1821963027,
				"element": "C" 
			},
			{
				"x": 5.1644496091,
				"y": -1.9060891961,
				"z": 2.3606790101,
				"element": "Cl" 
			},
			{
				"x": 2.6483920118,
				"y": -1.7148538803,
				"z": 1.3313197551,
				"element": "C" 
			},
			{
				"x": 1.7165902248,
				"y": -1.2764449709,
				"z": 0.393865885,
				"element": "C" 
			},
			{
				"x": -2.2435312812,
				"y": 1.9636753063,
				"z": -0.4089290409,
				"element": "C" 
			},
			{
				"x": -1.6841453799,
				"y": 2.9185058813,
				"z": 0.4393638979,
				"element": "C" 
			},
			{
				"x": -1.2876314965,
				"y": 1.0234928448,
				"z": 3.2368038153,
				"element": "H" 
			},
			{
				"x": -2.2364626668,
				"y": -0.7061264955,
				"z": 1.7010514471,
				"element": "H" 
			},
			{
				"x": -3.7484299545,
				"y": -0.9129357338,
				"z": -0.3412919362,
				"element": "H" 
			},
			{
				"x": -2.2817247333,
				"y": 0.1367074757,
				"z": -3.8932629577,
				"element": "H" 
			},
			{
				"x": 3.7799789341,
				"y": 0.4869954836,
				"z": -1.6608741669,
				"element": "H" 
			},
			{
				"x": 5.4538103128,
				"y": -0.2936200442,
				"z": 0.0122409047,
				"element": "H" 
			},
			{
				"x": 2.3413773783,
				"y": -2.3298645672,
				"z": 2.1696920183,
				"element": "H" 
			},
			{
				"x": 0.6727180698,
				"y": -1.5485516454,
				"z": 0.5040557737,
				"element": "H" 
			},
			{
				"x": -2.5337166349,
				"y": 2.2464447787,
				"z": -1.4142341009,
				"element": "H" 
			},
			{
				"x": -1.5227043294,
				"y": 3.9376664321,
				"z": 0.1060491787,
				"element": "H" 
			}
		],
		 "valence_orbital": [ 
			{
				"type": "occ",
				"energy": -0.28,
				"method": "rhf"
			},
			{
				"type": "occ",
				"energy": -0.27885,
				"method": "rhf"
			},
			{
				"type": "occ",
				"energy": -0.27772,
				"method": "rhf"
			},
			{
				"type": "occ",
				"energy": -0.23938,
				"method": "rhf"
			},
			{
				"type": "occ",
				"energy": -0.23422,
				"method": "rhf"
			},
			{
				"type": "unocc",
				"energy": -0.06124,
				"method": "rhf"
			},
			{
				"type": "unocc",
				"energy": -0.03279,
				"method": "rhf"
			},
			{
				"type": "unocc",
				"energy": -0.02694,
				"method": "rhf"
			},
			{
				"type": "unocc",
				"energy": -0.02599,
				"method": "rhf"
			},
			{
				"type": "unocc",
				"energy": 0.00491,
				"method": "rhf"
			}
		],
		"cosmo_sigma_profile": { 
			"-0.025": 0.0,
			"-0.024": 0.0,
			"-0.023": 0.0,
			"-0.022": 0.0,
			"-0.021": 0.0,
			"-0.02": 0.0,
			"-0.019": 0.0,
			"-0.018": 0.00768164631605,
			"-0.017": 0.486532982173,
			"-0.016": 0.868881303477,
			"-0.015": 2.17342885376,
			"-0.014": 1.35550275571,
			"-0.013": 1.94236555476,
			"-0.012": 1.59298549717,
			"-0.011": 1.72063099541,
			"-0.01": 2.41796537145,
			"-0.009": 1.90967045178,
			"-0.008": 6.32559955013,
			"-0.007": 14.5191889399,
			"-0.006": 17.4776586432,
			"-0.005": 18.1364645374,
			"-0.004": 15.9919152268,
			"-0.003": 17.3377348968,
			"-0.002": 21.6608104785,
			"-0.001": 24.2996959238,
			"0.0": 27.9456382669,
			"0.001": 37.3712341899,
			"0.002": 35.175174933,
			"0.003": 21.8015347803,
			"0.004": 23.6696925534,
			"0.005": 8.06935109399,
			"0.006": 2.30241839775,
			"0.007": 2.96418609398,
			"0.008": 3.26751173821,
			"0.009": 4.05712793549,
			"0.01": 3.52700548433,
			"0.011": 5.47675636639,
			"0.012": 8.32112292885,
			"0.013": 5.66790356234,
			"0.014": 1.75017799687,
			"0.015": 0.461351489753,
			"0.016": 0.0,
			"0.017": 0.0,
			"0.018": 0.0,
			"0.019": 0.0,
			"0.02": 0.0,
			"0.021": 0.0,
			"0.022": 0.0,
			"0.023": 0.0,
			"0.024": 0.0,
			"0.025": 0.0
		}
	}
}
