{
	 "smiles": "COC(OC)(OC)C1=CC2=C(C=CC=C2)C(=O)N1", 
	 "Tm": 405.15, 
	 "num_atms": 33, 
	 "gaussian": { 
		 "optdone": 1, 
		 "sigma_profile": "yes", 
		 "theory": "DFT", 
		 "functional": "B3LYP", 
		 "basiset": "6-31G**", 
		 "properties": { 
			 "R2extent": 5036.6322, 
			 "electric_dipole_moment_norm": 2.74255227297, 
			 "electric_quadrupole_moment_norm": 20.6324560625, 
			 "total_energy": -860.068283426, 
			 "HOMO_LUMO_gap": 0.17331, 
			 "cosmo_polarized_energy": -14.43, 
			 "cosmo_cavitation_energy": 35.73, 
			 "cosmo_dispersion_energy": -24.99, 
			 "cosmo_repulsion_energy": 1.92, 
			 "cosmo_total_nonelectrostatic_energy": 12.67, 
			 "SMD_solvation_energy": 7.94 
		},
		"coords": [
			{
				"x": -3.3323655461,
				"y": -0.1262933839,
				"z": 1.8703621288,
				"element": "C" 
			},
			{
				"x": -1.9760188612,
				"y": 0.2606910403,
				"z": 1.6256671518,
				"element": "O" 
			},
			{
				"x": -1.4091448254,
				"y": -0.2554837752,
				"z": 0.4413266336,
				"element": "C" 
			},
			{
				"x": -2.1492969186,
				"y": 0.0909912478,
				"z": -0.6926738875,
				"element": "O" 
			},
			{
				"x": -2.2545026348,
				"y": 1.4873245889,
				"z": -0.9618978658,
				"element": "C" 
			},
			{
				"x": -1.4560891527,
				"y": -1.6518888339,
				"z": 0.3989426195,
				"element": "O" 
			},
			{
				"x": -0.7346764501,
				"y": -2.3280874464,
				"z": 1.42635232,
				"element": "C" 
			},
			{
				"x": 0.0296221256,
				"y": 0.2796129609,
				"z": 0.3820758992,
				"element": "C" 
			},
			{
				"x": 0.8613527807,
				"y": -0.0291260665,
				"z": -0.6454499498,
				"element": "C" 
			},
			{
				"x": 2.202766207,
				"y": 0.4949162506,
				"z": -0.6580961766,
				"element": "C" 
			},
			{
				"x": 2.6338818042,
				"y": 1.3280037208,
				"z": 0.4074147364,
				"element": "C" 
			},
			{
				"x": 3.936399515,
				"y": 1.8510867355,
				"z": 0.4182250523,
				"element": "C" 
			},
			{
				"x": 4.815372712,
				"y": 1.5583740744,
				"z": -0.6133788211,
				"element": "C" 
			},
			{
				"x": 4.3982123135,
				"y": 0.7339672478,
				"z": -1.6737421379,
				"element": "C" 
			},
			{
				"x": 3.1152097263,
				"y": 0.2103455562,
				"z": -1.6979442034,
				"element": "C" 
			},
			{
				"x": 1.7253866465,
				"y": 1.6594937546,
				"z": 1.520481944,
				"element": "C" 
			},
			{
				"x": 2.0078208,
				"y": 2.3688861683,
				"z": 2.4819623829,
				"element": "O" 
			},
			{
				"x": 0.4578021955,
				"y": 1.0880241885,
				"z": 1.410017803,
				"element": "N" 
			},
			{
				"x": -3.4226769351,
				"y": -1.2124113316,
				"z": 1.9619602307,
				"element": "H" 
			},
			{
				"x": -3.9915548825,
				"y": 0.215974297,
				"z": 1.0675279301,
				"element": "H" 
			},
			{
				"x": -3.6138687528,
				"y": 0.3503492934,
				"z": 2.8104871343,
				"element": "H" 
			},
			{
				"x": -1.2842206655,
				"y": 1.9183533628,
				"z": -1.2343907259,
				"element": "H" 
			},
			{
				"x": -2.6631171983,
				"y": 2.0363321565,
				"z": -0.1061167729,
				"element": "H" 
			},
			{
				"x": -2.9370190563,
				"y": 1.5757877303,
				"z": -1.8086981274,
				"element": "H" 
			},
			{
				"x": -0.9613321216,
				"y": -3.3879877765,
				"z": 1.3000083933,
				"element": "H" 
			},
			{
				"x": -1.0504596283,
				"y": -2.0048107825,
				"z": 2.4246231158,
				"element": "H" 
			},
			{
				"x": 0.3461579207,
				"y": -2.1761190002,
				"z": 1.3253123818,
				"element": "H" 
			},
			{
				"x": 0.5066230484,
				"y": -0.6673055911,
				"z": -1.445945453,
				"element": "H" 
			},
			{
				"x": 4.2229387808,
				"y": 2.4830479621,
				"z": 1.2523134868,
				"element": "H" 
			},
			{
				"x": 5.8229122003,
				"y": 1.9630629909,
				"z": -0.6048560639,
				"element": "H" 
			},
			{
				"x": 5.0875992542,
				"y": 0.5050268471,
				"z": -2.4817363054,
				"element": "H" 
			},
			{
				"x": 2.7976474795,
				"y": -0.4261657308,
				"z": -2.5194414858,
				"element": "H" 
			},
			{
				"x": -0.1956618811,
				"y": 1.2928275439,
				"z": 2.1562066322,
				"element": "H" 
			}
		],
		 "valence_orbital": [ 
			{
				"type": "occ",
				"energy": -0.28341,
				"method": "rhf"
			},
			{
				"type": "occ",
				"energy": -0.27724,
				"method": "rhf"
			},
			{
				"type": "occ",
				"energy": -0.25416,
				"method": "rhf"
			},
			{
				"type": "occ",
				"energy": -0.24739,
				"method": "rhf"
			},
			{
				"type": "occ",
				"energy": -0.20725,
				"method": "rhf"
			},
			{
				"type": "unocc",
				"energy": -0.03394,
				"method": "rhf"
			},
			{
				"type": "unocc",
				"energy": -0.0316,
				"method": "rhf"
			},
			{
				"type": "unocc",
				"energy": 0.03748,
				"method": "rhf"
			},
			{
				"type": "unocc",
				"energy": 0.0801,
				"method": "rhf"
			},
			{
				"type": "unocc",
				"energy": 0.08027,
				"method": "rhf"
			}
		],
		"cosmo_sigma_profile": { 
			"-0.025": 0.0,
			"-0.024": 0.0,
			"-0.023": 0.0,
			"-0.022": 0.0,
			"-0.021": 0.0,
			"-0.02": 0.0,
			"-0.019": 0.0,
			"-0.018": 0.0,
			"-0.017": 0.0,
			"-0.016": 0.0,
			"-0.015": 0.0,
			"-0.014": 0.0,
			"-0.013": 0.0,
			"-0.012": 0.0,
			"-0.011": 0.606172127172,
			"-0.01": 0.389459885122,
			"-0.009": 0.973754975189,
			"-0.008": 1.12909537073,
			"-0.007": 3.20941967942,
			"-0.006": 13.7225813866,
			"-0.005": 19.2827176309,
			"-0.004": 32.1082038771,
			"-0.003": 35.4223770478,
			"-0.002": 31.3002238351,
			"-0.001": 22.5412375441,
			"0.0": 17.2392510288,
			"0.001": 16.8632958172,
			"0.002": 16.9750958908,
			"0.003": 17.4010339461,
			"0.004": 15.0274140792,
			"0.005": 5.34210238734,
			"0.006": 2.94004989418,
			"0.007": 3.10296707043,
			"0.008": 3.03438284972,
			"0.009": 2.17774527974,
			"0.01": 2.76965507327,
			"0.011": 3.71151742576,
			"0.012": 3.67908594408,
			"0.013": 6.24888523933,
			"0.014": 5.67257774993,
			"0.015": 0.361186104776,
			"0.016": 0.0,
			"0.017": 0.0,
			"0.018": 0.0,
			"0.019": 0.0,
			"0.02": 0.0,
			"0.021": 0.0,
			"0.022": 0.0,
			"0.023": 0.0,
			"0.024": 0.0,
			"0.025": 0.0
		}
	}
}
