{
	 "smiles": "[O-][N+](=O)C1=C(Cl)C2=C(OC1=O)C=CC=C2", 
	 "Tm": 434.15, 
	 "num_atms": 19, 
	 "gaussian": { 
		 "optdone": 1, 
		 "sigma_profile": "yes", 
		 "theory": "DFT", 
		 "functional": "B3LYP", 
		 "basiset": "6-31G**", 
		 "properties": { 
			 "R2extent": 4119.3741, 
			 "electric_dipole_moment_norm": 7.36322056915, 
			 "electric_quadrupole_moment_norm": 10.1379390825, 
			 "total_energy": -1161.0842123, 
			 "HOMO_LUMO_gap": 0.1638, 
			 "cosmo_polarized_energy": -12.26, 
			 "cosmo_cavitation_energy": 27.17, 
			 "cosmo_dispersion_energy": -19.69, 
			 "cosmo_repulsion_energy": 1.51, 
			 "cosmo_total_nonelectrostatic_energy": 8.99, 
			 "SMD_solvation_energy": 8.27 
		},
		"coords": [
			{
				"x": 2.3077998896,
				"y": 0.7868453769,
				"z": -3.8096480932,
				"element": "O" 
			},
			{
				"x": 2.1244635811,
				"y": 1.5733967361,
				"z": -2.8908147533,
				"element": "N" 
			},
			{
				"x": 2.5693519308,
				"y": 2.7086711548,
				"z": -2.7920313516,
				"element": "O" 
			},
			{
				"x": 1.2839134815,
				"y": 1.0983028039,
				"z": -1.7775509097,
				"element": "C" 
			},
			{
				"x": -0.0577635842,
				"y": 1.2720792893,
				"z": -1.7610494898,
				"element": "C" 
			},
			{
				"x": -0.8588885226,
				"y": 2.0766946688,
				"z": -3.0749090549,
				"element": "Cl" 
			},
			{
				"x": -0.8318688712,
				"y": 0.783555979,
				"z": -0.6393777938,
				"element": "C" 
			},
			{
				"x": -0.1155216296,
				"y": 0.140474656,
				"z": 0.3913513047,
				"element": "C" 
			},
			{
				"x": 1.2409067022,
				"y": -0.01909703,
				"z": 0.3442854854,
				"element": "O" 
			},
			{
				"x": 2.0199761539,
				"y": 0.4299096024,
				"z": -0.7044157557,
				"element": "C" 
			},
			{
				"x": 3.211358082,
				"y": 0.2556131413,
				"z": -0.6806158301,
				"element": "O" 
			},
			{
				"x": -0.7662409298,
				"y": -0.3667627201,
				"z": 1.5167069275,
				"element": "C" 
			},
			{
				"x": -2.1455107511,
				"y": -0.2332786988,
				"z": 1.6189392806,
				"element": "C" 
			},
			{
				"x": -2.8780160509,
				"y": 0.402851139,
				"z": 0.6055572411,
				"element": "C" 
			},
			{
				"x": -2.2286301975,
				"y": 0.9059212129,
				"z": -0.5115707871,
				"element": "C" 
			},
			{
				"x": -0.175977344,
				"y": -0.8536821271,
				"z": 2.2848633656,
				"element": "H" 
			},
			{
				"x": -2.6563215399,
				"y": -0.6261879547,
				"z": 2.492395264,
				"element": "H" 
			},
			{
				"x": -3.9546870601,
				"y": 0.5026683403,
				"z": 0.6936868091,
				"element": "H" 
			},
			{
				"x": -2.7880433402,
				"y": 1.39852443,
				"z": -1.2983018586,
				"element": "H" 
			}
		],
		 "valence_orbital": [ 
			{
				"type": "occ",
				"energy": -0.32015,
				"method": "rhf"
			},
			{
				"type": "occ",
				"energy": -0.31373,
				"method": "rhf"
			},
			{
				"type": "occ",
				"energy": -0.30673,
				"method": "rhf"
			},
			{
				"type": "occ",
				"energy": -0.28001,
				"method": "rhf"
			},
			{
				"type": "occ",
				"energy": -0.26383,
				"method": "rhf"
			},
			{
				"type": "unocc",
				"energy": -0.10003,
				"method": "rhf"
			},
			{
				"type": "unocc",
				"energy": -0.08437,
				"method": "rhf"
			},
			{
				"type": "unocc",
				"energy": -0.03882,
				"method": "rhf"
			},
			{
				"type": "unocc",
				"energy": -0.0263,
				"method": "rhf"
			},
			{
				"type": "unocc",
				"energy": -0.01119,
				"method": "rhf"
			}
		],
		"cosmo_sigma_profile": { 
			"-0.025": 0.0,
			"-0.024": 0.0,
			"-0.023": 0.0,
			"-0.022": 0.0,
			"-0.021": 0.0,
			"-0.02": 0.0,
			"-0.019": 0.0,
			"-0.018": 0.0,
			"-0.017": 0.0,
			"-0.016": 0.0,
			"-0.015": 0.0,
			"-0.014": 0.0,
			"-0.013": 0.0,
			"-0.012": 0.0,
			"-0.011": 0.0,
			"-0.01": 0.0498535970393,
			"-0.009": 1.19928298223,
			"-0.008": 6.24978964887,
			"-0.007": 10.3933176547,
			"-0.006": 12.0493680814,
			"-0.005": 11.9050484844,
			"-0.004": 15.637192909,
			"-0.003": 15.3458605362,
			"-0.002": 15.8729845382,
			"-0.001": 20.3205124214,
			"0.0": 21.0875510336,
			"0.001": 19.2354731784,
			"0.002": 14.5329617358,
			"0.003": 6.90518157049,
			"0.004": 4.8047578093,
			"0.005": 7.53994367368,
			"0.006": 14.2581321619,
			"0.007": 8.90709890803,
			"0.008": 5.24110680912,
			"0.009": 3.42296010027,
			"0.01": 4.83643461955,
			"0.011": 2.35639686005,
			"0.012": 0.194236656367,
			"0.013": 0.0,
			"0.014": 0.0,
			"0.015": 0.0,
			"0.016": 0.0,
			"0.017": 0.0,
			"0.018": 0.0,
			"0.019": 0.0,
			"0.02": 0.0,
			"0.021": 0.0,
			"0.022": 0.0,
			"0.023": 0.0,
			"0.024": 0.0,
			"0.025": 0.0
		}
	}
}
