{
	 "smiles": "COC1=CC=C(C(=O)C2=CC=C(OC)C=C2O)C(O)=C1", 
	 "Tm": 410.15, 
	 "num_atms": 34, 
	 "gaussian": { 
		 "optdone": 1, 
		 "sigma_profile": "yes", 
		 "theory": "DFT", 
		 "functional": "B3LYP", 
		 "basiset": "6-31G**", 
		 "properties": { 
			 "R2extent": 8035.2866, 
			 "electric_dipole_moment_norm": 7.38700439082, 
			 "electric_quadrupole_moment_norm": 12.2468265449, 
			 "total_energy": -956.135031495, 
			 "HOMO_LUMO_gap": 0.16214, 
			 "cosmo_polarized_energy": -19.36, 
			 "cosmo_cavitation_energy": 38.01, 
			 "cosmo_dispersion_energy": -27.86, 
			 "cosmo_repulsion_energy": 2.13, 
			 "cosmo_total_nonelectrostatic_energy": 12.28, 
			 "SMD_solvation_energy": 8.95 
		},
		"coords": [
			{
				"x": -5.9674132674,
				"y": -2.3744494328,
				"z": 0.8965696341,
				"element": "C" 
			},
			{
				"x": -5.844516522,
				"y": -0.99201088,
				"z": 0.5935694686,
				"element": "O" 
			},
			{
				"x": -4.6089963414,
				"y": -0.4263671508,
				"z": 0.606446619,
				"element": "C" 
			},
			{
				"x": -3.4236563103,
				"y": -1.1304813492,
				"z": 0.9066464235,
				"element": "C" 
			},
			{
				"x": -2.2179450648,
				"y": -0.4504321521,
				"z": 0.8781980027,
				"element": "C" 
			},
			{
				"x": -2.1322301382,
				"y": 0.9192629582,
				"z": 0.5661169328,
				"element": "C" 
			},
			{
				"x": -0.8678809632,
				"y": 1.654838072,
				"z": 0.5498099347,
				"element": "C" 
			},
			{
				"x": -0.8583487604,
				"y": 2.9019206777,
				"z": 0.4670794917,
				"element": "O" 
			},
			{
				"x": 0.4585014038,
				"y": 0.9749505944,
				"z": 0.7032287723,
				"element": "C" 
			},
			{
				"x": 1.3702867408,
				"y": 1.5348845561,
				"z": 1.6168266295,
				"element": "C" 
			},
			{
				"x": 2.6417111681,
				"y": 1.0211110563,
				"z": 1.8034264055,
				"element": "C" 
			},
			{
				"x": 3.0594299718,
				"y": -0.0738117163,
				"z": 1.0301177606,
				"element": "C" 
			},
			{
				"x": 4.3217255134,
				"y": -0.5212241245,
				"z": 1.2666755581,
				"element": "O" 
			},
			{
				"x": 4.8090625686,
				"y": -1.6187982683,
				"z": 0.5100404224,
				"element": "C" 
			},
			{
				"x": 2.1944823501,
				"y": -0.6271331848,
				"z": 0.0814137413,
				"element": "C" 
			},
			{
				"x": 0.9050054923,
				"y": -0.1009965202,
				"z": -0.08291992,
				"element": "C" 
			},
			{
				"x": 0.0675880442,
				"y": -0.6009610325,
				"z": -1.0379812207,
				"element": "O" 
			},
			{
				"x": -3.352576142,
				"y": 1.6220361846,
				"z": 0.3075211312,
				"element": "C" 
			},
			{
				"x": -3.3690559364,
				"y": 2.9361806906,
				"z": 0.0575119492,
				"element": "O" 
			},
			{
				"x": -4.5691640412,
				"y": 0.9362060701,
				"z": 0.3120530469,
				"element": "C" 
			},
			{
				"x": -5.414413229,
				"y": -2.9959557062,
				"z": 0.1814956716,
				"element": "H" 
			},
			{
				"x": -5.6202563922,
				"y": -2.5983033099,
				"z": 1.9128136398,
				"element": "H" 
			},
			{
				"x": -7.0316308834,
				"y": -2.6027588587,
				"z": 0.8226568454,
				"element": "H" 
			},
			{
				"x": -3.4436448682,
				"y": -2.1826051633,
				"z": 1.1601020021,
				"element": "H" 
			},
			{
				"x": -1.3079846219,
				"y": -0.9878360411,
				"z": 1.1176692247,
				"element": "H" 
			},
			{
				"x": 1.0464751017,
				"y": 2.3975371621,
				"z": 2.1896988799,
				"element": "H" 
			},
			{
				"x": 3.3298076304,
				"y": 1.4464044724,
				"z": 2.5250601642,
				"element": "H" 
			},
			{
				"x": 5.8232728949,
				"y": -1.8034452176,
				"z": 0.8665721058,
				"element": "H" 
			},
			{
				"x": 4.2019761148,
				"y": -2.5195212738,
				"z": 0.6676829585,
				"element": "H" 
			},
			{
				"x": 4.8409846171,
				"y": -1.3878897161,
				"z": -0.5624458096,
				"element": "H" 
			},
			{
				"x": 2.5088226485,
				"y": -1.4533450861,
				"z": -0.5479341132,
				"element": "H" 
			},
			{
				"x": 0.5241065719,
				"y": -1.2933614569,
				"z": -1.5328723491,
				"element": "H" 
			},
			{
				"x": -2.4279942745,
				"y": 3.2438657231,
				"z": 0.1702427827,
				"element": "H" 
			},
			{
				"x": -5.4870310756,
				"y": 1.4734894237,
				"z": 0.1049072139,
				"element": "H" 
			}
		],
		 "valence_orbital": [ 
			{
				"type": "occ",
				"energy": -0.25571,
				"method": "rhf"
			},
			{
				"type": "occ",
				"energy": -0.24465,
				"method": "rhf"
			},
			{
				"type": "occ",
				"energy": -0.227,
				"method": "rhf"
			},
			{
				"type": "occ",
				"energy": -0.22071,
				"method": "rhf"
			},
			{
				"type": "occ",
				"energy": -0.21444,
				"method": "rhf"
			},
			{
				"type": "unocc",
				"energy": -0.0523,
				"method": "rhf"
			},
			{
				"type": "unocc",
				"energy": -0.00352,
				"method": "rhf"
			},
			{
				"type": "unocc",
				"energy": 0.00526,
				"method": "rhf"
			},
			{
				"type": "unocc",
				"energy": 0.0175,
				"method": "rhf"
			},
			{
				"type": "unocc",
				"energy": 0.0563,
				"method": "rhf"
			}
		],
		"cosmo_sigma_profile": { 
			"-0.025": 0.0,
			"-0.024": 0.0,
			"-0.023": 0.0,
			"-0.022": 0.0,
			"-0.021": 0.0,
			"-0.02": 0.0,
			"-0.019": 0.0919536711904,
			"-0.018": 0.980756572005,
			"-0.017": 1.16283281041,
			"-0.016": 1.23215904891,
			"-0.015": 0.893286957392,
			"-0.014": 0.978635028977,
			"-0.013": 0.783390661315,
			"-0.012": 1.18966043687,
			"-0.011": 0.995543029263,
			"-0.01": 1.31353131491,
			"-0.009": 1.20703686776,
			"-0.008": 0.856606907279,
			"-0.007": 4.61036673411,
			"-0.006": 20.8109270027,
			"-0.005": 25.7626245177,
			"-0.004": 26.8994332323,
			"-0.003": 22.8397929445,
			"-0.002": 14.8925848798,
			"-0.001": 18.1347879082,
			"0.0": 15.5870332234,
			"0.001": 14.4225629723,
			"0.002": 21.1152960183,
			"0.003": 28.7685315603,
			"0.004": 21.4287400619,
			"0.005": 13.6119546639,
			"0.006": 7.86625268048,
			"0.007": 6.63180781751,
			"0.008": 7.27943440958,
			"0.009": 8.04235023776,
			"0.01": 6.132030456,
			"0.011": 3.33291451915,
			"0.012": 2.39705710771,
			"0.013": 0.83195482215,
			"0.014": 0.0,
			"0.015": 0.0,
			"0.016": 0.0,
			"0.017": 0.0,
			"0.018": 0.0,
			"0.019": 0.0,
			"0.02": 0.0,
			"0.021": 0.0,
			"0.022": 0.0,
			"0.023": 0.0,
			"0.024": 0.0,
			"0.025": 0.0
		}
	}
}
