{
	 "smiles": "ClC1=CC=C(C=C1)C(=O)NC1=CC(C=O)=CC=C1", 
	 "Tm": 403.15, 
	 "num_atms": 28, 
	 "gaussian": { 
		 "optdone": 1, 
		 "sigma_profile": "yes", 
		 "theory": "DFT", 
		 "functional": "B3LYP", 
		 "basiset": "6-31G**", 
		 "properties": { 
			 "R2extent": 7063.0118, 
			 "electric_dipole_moment_norm": 0.597856922683, 
			 "electric_quadrupole_moment_norm": 17.1006293253, 
			 "total_energy": -1204.91344718, 
			 "HOMO_LUMO_gap": 0.16963, 
			 "cosmo_polarized_energy": -15.76, 
			 "cosmo_cavitation_energy": 35.51, 
			 "cosmo_dispersion_energy": -24.91, 
			 "cosmo_repulsion_energy": 1.93, 
			 "cosmo_total_nonelectrostatic_energy": 12.52, 
			 "SMD_solvation_energy": 7.36 
		},
		"coords": [
			{
				"x": -1.4329055946,
				"y": -3.8641530753,
				"z": 3.548440208,
				"element": "Cl" 
			},
			{
				"x": -0.2015373161,
				"y": -2.7765384256,
				"z": 2.9330254032,
				"element": "C" 
			},
			{
				"x": -0.1036006906,
				"y": -2.5625482814,
				"z": 1.5576265479,
				"element": "C" 
			},
			{
				"x": 0.8671349256,
				"y": -1.6877107696,
				"z": 1.0739362164,
				"element": "C" 
			},
			{
				"x": 1.7426747762,
				"y": -1.0367151314,
				"z": 1.9543925986,
				"element": "C" 
			},
			{
				"x": 1.6443511331,
				"y": -1.2916250226,
				"z": 3.3292584299,
				"element": "C" 
			},
			{
				"x": 0.6669352843,
				"y": -2.1481584435,
				"z": 3.8272815159,
				"element": "C" 
			},
			{
				"x": 2.8712422212,
				"y": -0.1625753025,
				"z": 1.4975322372,
				"element": "C" 
			},
			{
				"x": 3.9311852453,
				"y": -0.1284845343,
				"z": 2.1105704257,
				"element": "O" 
			},
			{
				"x": 2.7392315557,
				"y": 0.5615480922,
				"z": 0.3201470395,
				"element": "N" 
			},
			{
				"x": 1.5910417998,
				"y": 1.0909126788,
				"z": -0.3182609192,
				"element": "C" 
			},
			{
				"x": 1.6274294675,
				"y": 1.2874277551,
				"z": -1.7041114866,
				"element": "C" 
			},
			{
				"x": 0.5341437695,
				"y": 1.8504864283,
				"z": -2.3700265376,
				"element": "C" 
			},
			{
				"x": 0.6002611503,
				"y": 2.0535707225,
				"z": -3.837505561,
				"element": "C" 
			},
			{
				"x": -0.2989317677,
				"y": 2.5209221598,
				"z": -4.5083995583,
				"element": "O" 
			},
			{
				"x": -0.6195997677,
				"y": 2.2072212183,
				"z": -1.6576847213,
				"element": "C" 
			},
			{
				"x": -0.6564717355,
				"y": 2.0122693961,
				"z": -0.2808406384,
				"element": "C" 
			},
			{
				"x": 0.4433831486,
				"y": 1.474417813,
				"z": 0.3924611425,
				"element": "C" 
			},
			{
				"x": -0.7748883758,
				"y": -3.075829304,
				"z": 0.8784104899,
				"element": "H" 
			},
			{
				"x": 0.9485695613,
				"y": -1.5287020474,
				"z": 0.0044032979,
				"element": "H" 
			},
			{
				"x": 2.3516470991,
				"y": -0.8146905533,
				"z": 3.9992224189,
				"element": "H" 
			},
			{
				"x": 0.581915366,
				"y": -2.3367718773,
				"z": 4.8915715108,
				"element": "H" 
			},
			{
				"x": 3.6269111053,
				"y": 0.966720305,
				"z": 0.0458630056,
				"element": "H" 
			},
			{
				"x": 2.5116600906,
				"y": 0.9940357083,
				"z": -2.2659529413,
				"element": "H" 
			},
			{
				"x": 1.5601722908,
				"y": 1.7405350908,
				"z": -4.3059951593,
				"element": "H" 
			},
			{
				"x": -1.4565926846,
				"y": 2.634833119,
				"z": -2.1992504034,
				"element": "H" 
			},
			{
				"x": -1.5371091215,
				"y": 2.2972247997,
				"z": 0.2869014035,
				"element": "H" 
			},
			{
				"x": 0.4151470637,
				"y": 1.3577774811,
				"z": 1.4698840351,
				"element": "H" 
			}
		],
		 "valence_orbital": [ 
			{
				"type": "occ",
				"energy": -0.27774,
				"method": "rhf"
			},
			{
				"type": "occ",
				"energy": -0.27254,
				"method": "rhf"
			},
			{
				"type": "occ",
				"energy": -0.26481,
				"method": "rhf"
			},
			{
				"type": "occ",
				"energy": -0.25623,
				"method": "rhf"
			},
			{
				"type": "occ",
				"energy": -0.24445,
				"method": "rhf"
			},
			{
				"type": "unocc",
				"energy": -0.07482,
				"method": "rhf"
			},
			{
				"type": "unocc",
				"energy": -0.05727,
				"method": "rhf"
			},
			{
				"type": "unocc",
				"energy": -0.03025,
				"method": "rhf"
			},
			{
				"type": "unocc",
				"energy": -0.02013,
				"method": "rhf"
			},
			{
				"type": "unocc",
				"energy": 0.0198,
				"method": "rhf"
			}
		],
		"cosmo_sigma_profile": { 
			"-0.025": 0.0,
			"-0.024": 0.0,
			"-0.023": 0.0,
			"-0.022": 0.0,
			"-0.021": 0.0,
			"-0.02": 0.0,
			"-0.019": 0.0,
			"-0.018": 0.0,
			"-0.017": 0.0,
			"-0.016": 0.0,
			"-0.015": 0.343396614965,
			"-0.014": 1.01823327209,
			"-0.013": 1.14639649999,
			"-0.012": 1.23533134452,
			"-0.011": 0.785601328342,
			"-0.01": 1.16949869335,
			"-0.009": 1.47739045738,
			"-0.008": 5.84636549547,
			"-0.007": 13.8655393133,
			"-0.006": 18.2979748069,
			"-0.005": 17.7300295905,
			"-0.004": 15.5318017818,
			"-0.003": 16.4187094007,
			"-0.002": 17.8756998255,
			"-0.001": 19.9888602856,
			"0.0": 20.7000678668,
			"0.001": 27.1697607228,
			"0.002": 31.3036295486,
			"0.003": 21.2416223587,
			"0.004": 14.3144877754,
			"0.005": 5.99744499279,
			"0.006": 1.86014139296,
			"0.007": 3.17429902403,
			"0.008": 3.62826445778,
			"0.009": 3.45976516307,
			"0.01": 3.97090550232,
			"0.011": 6.51634361581,
			"0.012": 6.33258956875,
			"0.013": 4.81612974977,
			"0.014": 0.381904755116,
			"0.015": 0.0,
			"0.016": 0.0,
			"0.017": 0.0,
			"0.018": 0.0,
			"0.019": 0.0,
			"0.02": 0.0,
			"0.021": 0.0,
			"0.022": 0.0,
			"0.023": 0.0,
			"0.024": 0.0,
			"0.025": 0.0
		}
	}
}
