{
	 "smiles": "CS(=O)(=O)CC1=CC(=CC=C1)S(Cl)(=O)=O", 
	 "Tm": 416.15, 
	 "num_atms": 24, 
	 "gaussian": { 
		 "optdone": 1, 
		 "sigma_profile": "yes", 
		 "theory": "DFT", 
		 "functional": "B3LYP", 
		 "basiset": "6-31G**", 
		 "properties": { 
			 "R2extent": 6157.8822, 
			 "electric_dipole_moment_norm": 6.96478970896, 
			 "electric_quadrupole_moment_norm": 24.2281183648, 
			 "total_energy": -1867.60891552, 
			 "HOMO_LUMO_gap": 0.19219, 
			 "cosmo_polarized_energy": -23.1, 
			 "cosmo_cavitation_energy": 33.46, 
			 "cosmo_dispersion_energy": -24.31, 
			 "cosmo_repulsion_energy": 1.83, 
			 "cosmo_total_nonelectrostatic_energy": 10.98, 
			 "SMD_solvation_energy": 3.98 
		},
		"coords": [
			{
				"x": -1.317284822,
				"y": 0.3111003185,
				"z": 3.9414104959,
				"element": "C" 
			},
			{
				"x": -0.4889120691,
				"y": 0.0631063062,
				"z": 2.3534797383,
				"element": "S" 
			},
			{
				"x": 0.9417731296,
				"y": -0.1555235801,
				"z": 2.6193992083,
				"element": "O" 
			},
			{
				"x": -1.2701441309,
				"y": -0.9087381297,
				"z": 1.5772838221,
				"element": "O" 
			},
			{
				"x": -0.6554656842,
				"y": 1.7085034868,
				"z": 1.5406047938,
				"element": "C" 
			},
			{
				"x": -0.0513197686,
				"y": 1.6776041475,
				"z": 0.1639164159,
				"element": "C" 
			},
			{
				"x": -0.8702609344,
				"y": 1.5438607171,
				"z": -0.9614055818,
				"element": "C" 
			},
			{
				"x": -0.2791756434,
				"y": 1.5132203363,
				"z": -2.2231492574,
				"element": "C" 
			},
			{
				"x": 1.1004745465,
				"y": 1.595305006,
				"z": -2.4091685494,
				"element": "C" 
			},
			{
				"x": 1.9088822296,
				"y": 1.7101048772,
				"z": -1.2788964395,
				"element": "C" 
			},
			{
				"x": 1.3397657549,
				"y": 1.7489833204,
				"z": -0.0060082195,
				"element": "C" 
			},
			{
				"x": -1.3383773535,
				"y": 1.4006277462,
				"z": -3.660029669,
				"element": "S" 
			},
			{
				"x": -1.4597804902,
				"y": -0.7050250634,
				"z": -3.9386790736,
				"element": "Cl" 
			},
			{
				"x": -2.6804023127,
				"y": 1.8443168042,
				"z": -3.3025256176,
				"element": "O" 
			},
			{
				"x": -0.6285317972,
				"y": 1.9250123255,
				"z": -4.8202618872,
				"element": "O" 
			},
			{
				"x": -2.3680357983,
				"y": 0.5507034037,
				"z": 3.7714811646,
				"element": "H" 
			},
			{
				"x": -1.2305706626,
				"y": -0.6384957825,
				"z": 4.4729783957,
				"element": "H" 
			},
			{
				"x": -0.8106036679,
				"y": 1.1000332339,
				"z": 4.4993915089,
				"element": "H" 
			},
			{
				"x": -0.148109604,
				"y": 2.4208395095,
				"z": 2.1968977178,
				"element": "H" 
			},
			{
				"x": -1.7237406556,
				"y": 1.9364477329,
				"z": 1.5118120703,
				"element": "H" 
			},
			{
				"x": -1.9483229624,
				"y": 1.4773885656,
				"z": -0.8653126908,
				"element": "H" 
			},
			{
				"x": 1.5203912734,
				"y": 1.5803163857,
				"z": -3.4084344393,
				"element": "H" 
			},
			{
				"x": 2.9862568806,
				"y": 1.7733983848,
				"z": -1.3918480592,
				"element": "H" 
			},
			{
				"x": 1.9777945425,
				"y": 1.8253099475,
				"z": 0.8684641527,
				"element": "H" 
			}
		],
		 "valence_orbital": [ 
			{
				"type": "occ",
				"energy": -0.31229,
				"method": "rhf"
			},
			{
				"type": "occ",
				"energy": -0.30827,
				"method": "rhf"
			},
			{
				"type": "occ",
				"energy": -0.30747,
				"method": "rhf"
			},
			{
				"type": "occ",
				"energy": -0.29141,
				"method": "rhf"
			},
			{
				"type": "occ",
				"energy": -0.28154,
				"method": "rhf"
			},
			{
				"type": "unocc",
				"energy": -0.08935,
				"method": "rhf"
			},
			{
				"type": "unocc",
				"energy": -0.05204,
				"method": "rhf"
			},
			{
				"type": "unocc",
				"energy": -0.0442,
				"method": "rhf"
			},
			{
				"type": "unocc",
				"energy": 0.04282,
				"method": "rhf"
			},
			{
				"type": "unocc",
				"energy": 0.04517,
				"method": "rhf"
			}
		],
		"cosmo_sigma_profile": { 
			"-0.025": 0.0,
			"-0.024": 0.0,
			"-0.023": 0.0,
			"-0.022": 0.0,
			"-0.021": 0.0,
			"-0.02": 0.0,
			"-0.019": 0.0,
			"-0.018": 0.0,
			"-0.017": 0.0,
			"-0.016": 0.0,
			"-0.015": 0.0,
			"-0.014": 0.0,
			"-0.013": 0.0,
			"-0.012": 0.439288088194,
			"-0.011": 1.96531911307,
			"-0.01": 5.75896639933,
			"-0.009": 10.2468395458,
			"-0.008": 13.8748115188,
			"-0.007": 16.5398738579,
			"-0.006": 15.9288832867,
			"-0.005": 13.8072809471,
			"-0.004": 13.3821617505,
			"-0.003": 11.5622952161,
			"-0.002": 10.9166846527,
			"-0.001": 14.0730689934,
			"0.0": 18.7068787668,
			"0.001": 17.0916993265,
			"0.002": 14.1208187307,
			"0.003": 17.7626213128,
			"0.004": 9.89954635559,
			"0.005": 5.33624605941,
			"0.006": 6.83835949728,
			"0.007": 8.80456199516,
			"0.008": 12.7018524447,
			"0.009": 7.2690421246,
			"0.01": 4.37481917943,
			"0.011": 9.82140909281,
			"0.012": 7.73171258723,
			"0.013": 0.890300132419,
			"0.014": 0.0,
			"0.015": 0.0,
			"0.016": 0.0,
			"0.017": 0.0,
			"0.018": 0.0,
			"0.019": 0.0,
			"0.02": 0.0,
			"0.021": 0.0,
			"0.022": 0.0,
			"0.023": 0.0,
			"0.024": 0.0,
			"0.025": 0.0
		}
	}
}
