{
	 "smiles": "CC(OC1=CC=C(OC2=C(F)C=C(Cl)C=N2)C=C1)C(=O)OCC#C", 
	 "Tm": 332.65, 
	 "num_atms": 37, 
	 "gaussian": { 
		 "optdone": 1, 
		 "sigma_profile": "yes", 
		 "theory": "DFT", 
		 "functional": "B3LYP", 
		 "basiset": "6-31G**", 
		 "properties": { 
			 "R2extent": 10963.7512, 
			 "electric_dipole_moment_norm": 3.10811967916, 
			 "electric_quadrupole_moment_norm": 10.6582169283, 
			 "total_energy": -1571.20469473, 
			 "HOMO_LUMO_gap": 0.1853, 
			 "cosmo_polarized_energy": -15.2, 
			 "cosmo_cavitation_energy": 45.76, 
			 "cosmo_dispersion_energy": -29.26, 
			 "cosmo_repulsion_energy": 2.2, 
			 "cosmo_total_nonelectrostatic_energy": 18.69, 
			 "SMD_solvation_energy": 8.55 
		},
		"coords": [
			{
				"x": -1.9196451478,
				"y": 4.8908736547,
				"z": 1.5792471178,
				"element": "C" 
			},
			{
				"x": -0.4526965409,
				"y": 4.4783152444,
				"z": 1.5737892568,
				"element": "C" 
			},
			{
				"x": -0.139430793,
				"y": 3.5740653129,
				"z": 2.659802389,
				"element": "O" 
			},
			{
				"x": -0.2880951725,
				"y": 2.2156438436,
				"z": 2.4387863186,
				"element": "C" 
			},
			{
				"x": -1.5296359145,
				"y": 1.5884854334,
				"z": 2.5761146565,
				"element": "C" 
			},
			{
				"x": -1.6479490244,
				"y": 0.2196839381,
				"z": 2.3372645545,
				"element": "C" 
			},
			{
				"x": -0.519360819,
				"y": -0.5101257491,
				"z": 1.963765557,
				"element": "C" 
			},
			{
				"x": -0.5992135547,
				"y": -1.8801880013,
				"z": 1.7187398551,
				"element": "O" 
			},
			{
				"x": -1.5484957708,
				"y": -2.3225940685,
				"z": 0.843055685,
				"element": "C" 
			},
			{
				"x": -1.7018887519,
				"y": -1.7529081084,
				"z": -0.4346503438,
				"element": "C" 
			},
			{
				"x": -0.9213092972,
				"y": -0.7259441394,
				"z": -0.8159709428,
				"element": "F" 
			},
			{
				"x": -2.6456988045,
				"y": -2.2550289653,
				"z": -1.3110895285,
				"element": "C" 
			},
			{
				"x": -3.3991054641,
				"y": -3.3513156953,
				"z": -0.8846087292,
				"element": "C" 
			},
			{
				"x": -4.610641675,
				"y": -4.0510519566,
				"z": -1.9352751233,
				"element": "Cl" 
			},
			{
				"x": -3.1715335486,
				"y": -3.8840053416,
				"z": 0.3825179078,
				"element": "C" 
			},
			{
				"x": -2.2682800528,
				"y": -3.3658152958,
				"z": 1.2226649818,
				"element": "N" 
			},
			{
				"x": 0.7324518176,
				"y": 0.0946857476,
				"z": 1.8784541476,
				"element": "C" 
			},
			{
				"x": 0.8462466958,
				"y": 1.462955034,
				"z": 2.1161275697,
				"element": "C" 
			},
			{
				"x": 0.0432633948,
				"y": 3.8876755233,
				"z": 0.2433252896,
				"element": "C" 
			},
			{
				"x": 1.194442309,
				"y": 3.9376820831,
				"z": -0.1298843007,
				"element": "O" 
			},
			{
				"x": -0.9446011885,
				"y": 3.2665914144,
				"z": -0.4331815603,
				"element": "O" 
			},
			{
				"x": -0.5283857575,
				"y": 2.5528932912,
				"z": -1.6246762633,
				"element": "C" 
			},
			{
				"x": -1.7121556563,
				"y": 2.1935536946,
				"z": -2.3929404983,
				"element": "C" 
			},
			{
				"x": -2.6703625632,
				"y": 1.886653356,
				"z": -3.0589921359,
				"element": "C" 
			},
			{
				"x": -2.0976485939,
				"y": 5.6722680322,
				"z": 0.8331274264,
				"element": "H" 
			},
			{
				"x": -2.1777649222,
				"y": 5.2869004698,
				"z": 2.5649964488,
				"element": "H" 
			},
			{
				"x": -2.5734233262,
				"y": 4.048943256,
				"z": 1.3455287513,
				"element": "H" 
			},
			{
				"x": 0.1844057109,
				"y": 5.3458755207,
				"z": 1.7651882527,
				"element": "H" 
			},
			{
				"x": -2.3945545937,
				"y": 2.1707535823,
				"z": 2.8738014568,
				"element": "H" 
			},
			{
				"x": -2.6060288495,
				"y": -0.2791902623,
				"z": 2.4418978322,
				"element": "H" 
			},
			{
				"x": -2.7685513975,
				"y": -1.8099101306,
				"z": -2.2913018568,
				"element": "H" 
			},
			{
				"x": -3.7355842764,
				"y": -4.7445171858,
				"z": 0.730777485,
				"element": "H" 
			},
			{
				"x": 1.5948019549,
				"y": -0.5046320849,
				"z": 1.6068907861,
				"element": "H" 
			},
			{
				"x": 1.8026568311,
				"y": 1.9669299427,
				"z": 2.0320538248,
				"element": "H" 
			},
			{
				"x": 0.0250433827,
				"y": 1.6599353273,
				"z": -1.3158560114,
				"element": "H" 
			},
			{
				"x": 0.1513372149,
				"y": 3.18585894,
				"z": -2.2035180966,
				"element": "H" 
			},
			{
				"x": -3.522007855,
				"y": 1.6326043427,
				"z": -3.64707216,
				"element": "H" 
			}
		],
		 "valence_orbital": [ 
			{
				"type": "occ",
				"energy": -0.28157,
				"method": "rhf"
			},
			{
				"type": "occ",
				"energy": -0.27089,
				"method": "rhf"
			},
			{
				"type": "occ",
				"energy": -0.26521,
				"method": "rhf"
			},
			{
				"type": "occ",
				"energy": -0.25704,
				"method": "rhf"
			},
			{
				"type": "occ",
				"energy": -0.23308,
				"method": "rhf"
			},
			{
				"type": "unocc",
				"energy": -0.04778,
				"method": "rhf"
			},
			{
				"type": "unocc",
				"energy": -0.02922,
				"method": "rhf"
			},
			{
				"type": "unocc",
				"energy": -0.0187,
				"method": "rhf"
			},
			{
				"type": "unocc",
				"energy": -0.01159,
				"method": "rhf"
			},
			{
				"type": "unocc",
				"energy": -0.0023,
				"method": "rhf"
			}
		],
		"cosmo_sigma_profile": { 
			"-0.025": 0.0,
			"-0.024": 0.0,
			"-0.023": 0.0,
			"-0.022": 0.0,
			"-0.021": 0.0,
			"-0.02": 0.0,
			"-0.019": 0.0,
			"-0.018": 0.0,
			"-0.017": 0.0,
			"-0.016": 0.0,
			"-0.015": 0.0,
			"-0.014": 0.0,
			"-0.013": 0.124475142627,
			"-0.012": 1.21534797733,
			"-0.011": 1.38553075086,
			"-0.01": 0.777078124483,
			"-0.009": 3.28881277545,
			"-0.008": 6.22428822162,
			"-0.007": 14.4121543282,
			"-0.006": 19.2731938394,
			"-0.005": 20.4291870775,
			"-0.004": 22.1644376269,
			"-0.003": 24.9362069603,
			"-0.002": 29.6647232792,
			"-0.001": 33.6826709978,
			"0.0": 28.0423842379,
			"0.001": 25.5801581409,
			"0.002": 29.6038755445,
			"0.003": 32.4759289569,
			"0.004": 21.7155706169,
			"0.005": 14.6187514098,
			"0.006": 9.95195005942,
			"0.007": 4.6519253662,
			"0.008": 5.38202453916,
			"0.009": 5.037583839,
			"0.01": 5.28838695239,
			"0.011": 6.50645240697,
			"0.012": 1.71648948405,
			"0.013": 1.15112204855,
			"0.014": 0.750789622229,
			"0.015": 0.0408810425216,
			"0.016": 0.0,
			"0.017": 0.0,
			"0.018": 0.0,
			"0.019": 0.0,
			"0.02": 0.0,
			"0.021": 0.0,
			"0.022": 0.0,
			"0.023": 0.0,
			"0.024": 0.0,
			"0.025": 0.0
		}
	}
}
