{
	 "smiles": "OC(=O)C1=C2C=CC=CC2=NC2=C1CCC2=CC1=CC(Cl)=C(Cl)C=C1", 
	 "Tm": 458.15, 
	 "num_atms": 38, 
	 "gaussian": { 
		 "optdone": 1, 
		 "sigma_profile": "yes", 
		 "theory": "DFT", 
		 "functional": "B3LYP", 
		 "basiset": "6-31G**", 
		 "properties": { 
			 "R2extent": 15867.3578, 
			 "electric_dipole_moment_norm": 2.28184962256, 
			 "electric_quadrupole_moment_norm": 21.1980355201, 
			 "total_energy": -1895.57066483, 
			 "HOMO_LUMO_gap": 0.12504, 
			 "cosmo_polarized_energy": -13.58, 
			 "cosmo_cavitation_energy": 45.64, 
			 "cosmo_dispersion_energy": -33.53, 
			 "cosmo_repulsion_energy": 2.49, 
			 "cosmo_total_nonelectrostatic_energy": 14.6, 
			 "SMD_solvation_energy": 6.04 
		},
		"coords": [
			{
				"x": -1.8372338874,
				"y": -4.7723885169,
				"z": 0.5225834299,
				"element": "O" 
			},
			{
				"x": -0.955569583,
				"y": -4.7313763605,
				"z": -0.5083575986,
				"element": "C" 
			},
			{
				"x": -0.7577643649,
				"y": -5.712831394,
				"z": -1.1975837385,
				"element": "O" 
			},
			{
				"x": -0.3102508429,
				"y": -3.3922605369,
				"z": -0.6671993733,
				"element": "C" 
			},
			{
				"x": 0.9451963654,
				"y": -3.2594661806,
				"z": -1.3660118865,
				"element": "C" 
			},
			{
				"x": 1.6828301262,
				"y": -4.3426401806,
				"z": -1.9166897093,
				"element": "C" 
			},
			{
				"x": 2.8921926401,
				"y": -4.1281940647,
				"z": -2.5439742794,
				"element": "C" 
			},
			{
				"x": 3.4333101902,
				"y": -2.8270555923,
				"z": -2.6618223418,
				"element": "C" 
			},
			{
				"x": 2.7483406913,
				"y": -1.7539949712,
				"z": -2.1437242044,
				"element": "C" 
			},
			{
				"x": 1.5010646958,
				"y": -1.9366084248,
				"z": -1.4878765427,
				"element": "C" 
			},
			{
				"x": 0.885937976,
				"y": -0.8216217537,
				"z": -1.0071652304,
				"element": "N" 
			},
			{
				"x": -0.2655183917,
				"y": -0.9858422088,
				"z": -0.3899994307,
				"element": "C" 
			},
			{
				"x": -0.9062113789,
				"y": -2.2443491653,
				"z": -0.1727386385,
				"element": "C" 
			},
			{
				"x": -2.1838715732,
				"y": -2.0315179474,
				"z": 0.6078206614,
				"element": "C" 
			},
			{
				"x": -2.3607791832,
				"y": -0.4884199243,
				"z": 0.6894433656,
				"element": "C" 
			},
			{
				"x": -1.0696318381,
				"y": 0.1131024817,
				"z": 0.1690979798,
				"element": "C" 
			},
			{
				"x": -0.6294117729,
				"y": 1.3912618338,
				"z": 0.1707460301,
				"element": "C" 
			},
			{
				"x": -1.2566869859,
				"y": 2.6119459417,
				"z": 0.6681849718,
				"element": "C" 
			},
			{
				"x": -2.5906734598,
				"y": 2.7024377736,
				"z": 1.1101171732,
				"element": "C" 
			},
			{
				"x": -3.1180424863,
				"y": 3.9058725095,
				"z": 1.5739550356,
				"element": "C" 
			},
			{
				"x": -4.7857104849,
				"y": 3.9349424245,
				"z": 2.1019998849,
				"element": "Cl" 
			},
			{
				"x": -2.3251351544,
				"y": 5.0609824238,
				"z": 1.608545097,
				"element": "C" 
			},
			{
				"x": -2.9459108406,
				"y": 6.5862782308,
				"z": 2.184785554,
				"element": "Cl" 
			},
			{
				"x": -1.0017145944,
				"y": 4.9899112193,
				"z": 1.1647382451,
				"element": "C" 
			},
			{
				"x": -0.4813596955,
				"y": 3.7899614296,
				"z": 0.701164604,
				"element": "C" 
			},
			{
				"x": -2.1991048448,
				"y": -5.6747039213,
				"z": 0.5156976593,
				"element": "H" 
			},
			{
				"x": 1.276564422,
				"y": -5.3417218843,
				"z": -1.8482722464,
				"element": "H" 
			},
			{
				"x": 3.435222067,
				"y": -4.9741508781,
				"z": -2.9553232433,
				"element": "H" 
			},
			{
				"x": 4.3866216785,
				"y": -2.6798660078,
				"z": -3.1608809794,
				"element": "H" 
			},
			{
				"x": 3.1266145024,
				"y": -0.7394836317,
				"z": -2.212187426,
				"element": "H" 
			},
			{
				"x": -3.0405035266,
				"y": -2.5251382713,
				"z": 0.1418057132,
				"element": "H" 
			},
			{
				"x": -2.0909472937,
				"y": -2.4741986372,
				"z": 1.6044276326,
				"element": "H" 
			},
			{
				"x": -3.2088154803,
				"y": -0.1694964232,
				"z": 0.0699602767,
				"element": "H" 
			},
			{
				"x": -2.5811508505,
				"y": -0.1645433254,
				"z": 1.711961661,
				"element": "H" 
			},
			{
				"x": 0.3617195319,
				"y": 1.5301702595,
				"z": -0.2581615587,
				"element": "H" 
			},
			{
				"x": -3.2448125685,
				"y": 1.8428594087,
				"z": 1.0855195742,
				"element": "H" 
			},
			{
				"x": -0.3905271141,
				"y": 5.885362448,
				"z": 1.1876645305,
				"element": "H" 
			},
			{
				"x": 0.5487233098,
				"y": 3.7550818178,
				"z": 0.3593493477,
				"element": "H" 
			}
		],
		 "valence_orbital": [ 
			{
				"type": "occ",
				"energy": -0.26551,
				"method": "rhf"
			},
			{
				"type": "occ",
				"energy": -0.26216,
				"method": "rhf"
			},
			{
				"type": "occ",
				"energy": -0.25777,
				"method": "rhf"
			},
			{
				"type": "occ",
				"energy": -0.23825,
				"method": "rhf"
			},
			{
				"type": "occ",
				"energy": -0.21489,
				"method": "rhf"
			},
			{
				"type": "unocc",
				"energy": -0.08985,
				"method": "rhf"
			},
			{
				"type": "unocc",
				"energy": -0.0522,
				"method": "rhf"
			},
			{
				"type": "unocc",
				"energy": -0.02406,
				"method": "rhf"
			},
			{
				"type": "unocc",
				"energy": -0.01317,
				"method": "rhf"
			},
			{
				"type": "unocc",
				"energy": -0.00577,
				"method": "rhf"
			}
		],
		"cosmo_sigma_profile": { 
			"-0.025": 0.0,
			"-0.024": 0.0,
			"-0.023": 0.0,
			"-0.022": 0.0,
			"-0.021": 0.0,
			"-0.02": 0.0,
			"-0.019": 0.0596157875627,
			"-0.018": 0.754873175301,
			"-0.017": 1.45019336156,
			"-0.016": 0.404627815287,
			"-0.015": 0.240518570871,
			"-0.014": 0.88858737602,
			"-0.013": 1.14594221377,
			"-0.012": 0.264795239618,
			"-0.011": 1.14699030959,
			"-0.01": 0.920300012691,
			"-0.009": 0.428069484127,
			"-0.008": 1.72272396341,
			"-0.007": 8.13889250836,
			"-0.006": 15.5397773024,
			"-0.005": 19.247184906,
			"-0.004": 27.2264763684,
			"-0.003": 25.9304707955,
			"-0.002": 22.2439084386,
			"-0.001": 28.206828436,
			"0.0": 32.9436442814,
			"0.001": 34.3901306153,
			"0.002": 41.1965037003,
			"0.003": 37.5246492083,
			"0.004": 34.4399015733,
			"0.005": 10.9239211141,
			"0.006": 5.88527127583,
			"0.007": 3.42306359252,
			"0.008": 2.30292958351,
			"0.009": 3.31506590582,
			"0.01": 4.06653009829,
			"0.011": 4.29636071104,
			"0.012": 0.680203138314,
			"0.013": 0.0,
			"0.014": 0.0,
			"0.015": 0.0,
			"0.016": 0.0,
			"0.017": 0.0,
			"0.018": 0.0,
			"0.019": 0.0,
			"0.02": 0.0,
			"0.021": 0.0,
			"0.022": 0.0,
			"0.023": 0.0,
			"0.024": 0.0,
			"0.0": 0.0
		}
	}
}
