{
	 "smiles": "COC1=CC=C(C=C1)C1=NN(C=C1CC(O)=O)C1=CC=CC=C1", 
	 "Tm": 435.15, 
	 "num_atms": 39, 
	 "gaussian": { 
		 "optdone": 1, 
		 "sigma_profile": "yes", 
		 "theory": "DFT", 
		 "functional": "B3LYP", 
		 "basiset": "6-31G**", 
		 "properties": { 
			 "R2extent": 11185.2264, 
			 "electric_dipole_moment_norm": 0.935384167067, 
			 "electric_quadrupole_moment_norm": 15.4512786862, 
			 "total_energy": -1030.72714021, 
			 "HOMO_LUMO_gap": 0.17427, 
			 "cosmo_polarized_energy": -16.33, 
			 "cosmo_cavitation_energy": 43.8, 
			 "cosmo_dispersion_energy": -31.47, 
			 "cosmo_repulsion_energy": 2.38, 
			 "cosmo_total_nonelectrostatic_energy": 14.71, 
			 "SMD_solvation_energy": 8.58 
		},
		"coords": [
			{
				"x": -4.8540876988,
				"y": 2.3128445573,
				"z": -3.2231411673,
				"element": "C" 
			},
			{
				"x": -3.5112904887,
				"y": 2.4656979196,
				"z": -3.6541030196,
				"element": "O" 
			},
			{
				"x": -2.5128847707,
				"y": 2.0967865546,
				"z": -2.7997543423,
				"element": "C" 
			},
			{
				"x": -2.7124999487,
				"y": 1.5818806918,
				"z": -1.5121140584,
				"element": "C" 
			},
			{
				"x": -1.6130544837,
				"y": 1.2457656242,
				"z": -0.7237013384,
				"element": "C" 
			},
			{
				"x": -0.2985085537,
				"y": 1.4063646655,
				"z": -1.1861659017,
				"element": "C" 
			},
			{
				"x": -0.1203211359,
				"y": 1.9127715258,
				"z": -2.4870649585,
				"element": "C" 
			},
			{
				"x": -1.2063631789,
				"y": 2.2566001265,
				"z": -3.2817792223,
				"element": "C" 
			},
			{
				"x": 0.8346226124,
				"y": 1.0263176665,
				"z": -0.3235861503,
				"element": "C" 
			},
			{
				"x": 0.6848637834,
				"y": 0.0340628962,
				"z": 0.5577175129,
				"element": "N" 
			},
			{
				"x": 1.8633595385,
				"y": -0.0464369748,
				"z": 1.2204150532,
				"element": "N" 
			},
			{
				"x": 2.7637180063,
				"y": 0.8758352499,
				"z": 0.769376798,
				"element": "C" 
			},
			{
				"x": 2.1430765766,
				"y": 1.6011292034,
				"z": -0.2262930357,
				"element": "C" 
			},
			{
				"x": 2.6940465563,
				"y": 2.7520525588,
				"z": -1.0160216568,
				"element": "C" 
			},
			{
				"x": 3.8361361925,
				"y": 3.5133668327,
				"z": -0.3704119679,
				"element": "C" 
			},
			{
				"x": 4.0288059431,
				"y": 4.6981153066,
				"z": -0.9984586328,
				"element": "O" 
			},
			{
				"x": 4.5360099908,
				"y": 3.1503018842,
				"z": 0.5499508216,
				"element": "O" 
			},
			{
				"x": 2.0474225045,
				"y": -1.0254270837,
				"z": 2.2307644304,
				"element": "C" 
			},
			{
				"x": 3.0891982368,
				"y": -0.9015564409,
				"z": 3.1579419335,
				"element": "C" 
			},
			{
				"x": 3.2635047483,
				"y": -1.8821211221,
				"z": 4.1337942752,
				"element": "C" 
			},
			{
				"x": 2.4005519956,
				"y": -2.9767744345,
				"z": 4.2028799022,
				"element": "C" 
			},
			{
				"x": 1.3555017701,
				"y": -3.0843549693,
				"z": 3.2824321849,
				"element": "C" 
			},
			{
				"x": 1.1749986937,
				"y": -2.1186065114,
				"z": 2.2948932368,
				"element": "C" 
			},
			{
				"x": -5.093469356,
				"y": 1.2639742433,
				"z": -3.0051813784,
				"element": "H" 
			},
			{
				"x": -5.0666426674,
				"y": 2.9200797621,
				"z": -2.3336880844,
				"element": "H" 
			},
			{
				"x": -5.4773065714,
				"y": 2.6582323876,
				"z": -4.0495486067,
				"element": "H" 
			},
			{
				"x": -3.71114519,
				"y": 1.4460062394,
				"z": -1.1138852443,
				"element": "H" 
			},
			{
				"x": -1.7683869868,
				"y": 0.8500495943,
				"z": 0.2743666201,
				"element": "H" 
			},
			{
				"x": 0.8779793337,
				"y": 2.0128862524,
				"z": -2.8997430029,
				"element": "H" 
			},
			{
				"x": -1.0681520144,
				"y": 2.6410917214,
				"z": -4.2870301061,
				"element": "H" 
			},
			{
				"x": 3.7571925289,
				"y": 0.9689971937,
				"z": 1.1721805252,
				"element": "H" 
			},
			{
				"x": 3.0804164011,
				"y": 2.4255236987,
				"z": -1.9939639704,
				"element": "H" 
			},
			{
				"x": 1.9041205041,
				"y": 3.4720912071,
				"z": -1.2529665194,
				"element": "H" 
			},
			{
				"x": 4.7933214265,
				"y": 5.1130387918,
				"z": -0.5646435361,
				"element": "H" 
			},
			{
				"x": 3.7484575838,
				"y": -0.0409260932,
				"z": 3.1342008751,
				"element": "H" 
			},
			{
				"x": 4.0737861984,
				"y": -1.7793468649,
				"z": 4.8496425367,
				"element": "H" 
			},
			{
				"x": 2.5384273826,
				"y": -3.7349966243,
				"z": 4.9676455836,
				"element": "H" 
			},
			{
				"x": 0.6759356055,
				"y": -3.9305558606,
				"z": 3.3269835601,
				"element": "H" 
			},
			{
				"x": 0.3720589316,
				"y": -2.1899613757,
				"z": 1.5719600511,
				"element": "H" 
			}
		],
		 "valence_orbital": [ 
			{
				"type": "occ",
				"energy": -0.25321,
				"method": "rhf"
			},
			{
				"type": "occ",
				"energy": -0.24926,
				"method": "rhf"
			},
			{
				"type": "occ",
				"energy": -0.24507,
				"method": "rhf"
			},
			{
				"type": "occ",
				"energy": -0.22797,
				"method": "rhf"
			},
			{
				"type": "occ",
				"energy": -0.19879,
				"method": "rhf"
			},
			{
				"type": "unocc",
				"energy": -0.02452,
				"method": "rhf"
			},
			{
				"type": "unocc",
				"energy": -0.00424,
				"method": "rhf"
			},
			{
				"type": "unocc",
				"energy": -0.00154,
				"method": "rhf"
			},
			{
				"type": "unocc",
				"energy": 0.00523,
				"method": "rhf"
			},
			{
				"type": "unocc",
				"energy": 0.00659,
				"method": "rhf"
			}
		],
		"cosmo_sigma_profile": { 
			"-0.025": 0.0,
			"-0.024": 0.0,
			"-0.023": 0.0,
			"-0.022": 0.0,
			"-0.021": 0.0,
			"-0.02": 0.0,
			"-0.019": 0.0477714452926,
			"-0.018": 0.760349223109,
			"-0.017": 0.958046192363,
			"-0.016": 0.948491142131,
			"-0.015": 0.852202479095,
			"-0.014": 0.480696178773,
			"-0.013": 0.327395641659,
			"-0.012": 1.0289395988,
			"-0.011": 1.12544975824,
			"-0.01": 0.64985286408,
			"-0.009": 1.05536157294,
			"-0.008": 4.70463129444,
			"-0.007": 7.57587580031,
			"-0.006": 19.9492589099,
			"-0.005": 29.6175684392,
			"-0.004": 30.2069061604,
			"-0.003": 26.3502348638,
			"-0.002": 20.5950739539,
			"-0.001": 17.166697983,
			"0.0": 18.2050607887,
			"0.001": 20.821169581,
			"0.002": 23.4781900488,
			"0.003": 28.8156236734,
			"0.004": 28.2786286998,
			"0.005": 27.629213186,
			"0.006": 9.20911313206,
			"0.007": 5.66083813159,
			"0.008": 7.09995674654,
			"0.009": 5.6472777438,
			"0.01": 6.47169666206,
			"0.011": 3.57398747772,
			"0.012": 1.09235125008,
			"0.013": 0.0,
			"0.014": 0.0,
			"0.015": 0.0,
			"0.016": 0.0,
			"0.017": 0.0,
			"0.018": 0.0,
			"0.019": 0.0,
			"0.02": 0.0,
			"0.021": 0.0,
			"0.022": 0.0,
			"0.023": 0.0,
			"0.024": 0.0,
			"0.025": 0.0
		}
	}
}
