{
	 "smiles": "OCCCC1=CC=NC=C1", 
	 "Tm": 310.15, 
	 "num_atms": 21, 
	 "gaussian": { 
		 "optdone": 1, 
		 "sigma_profile": "yes", 
		 "theory": "DFT", 
		 "functional": "B3LYP", 
		 "basiset": "6-31G**", 
		 "properties": { 
			 "R2extent": 2170.5815, 
			 "electric_dipole_moment_norm": 2.02219768074, 
			 "electric_quadrupole_moment_norm": 13.1694005175, 
			 "total_energy": -441.444795641, 
			 "HOMO_LUMO_gap": 0.22944, 
			 "cosmo_polarized_energy": -10.85, 
			 "cosmo_cavitation_energy": 24.25, 
			 "cosmo_dispersion_energy": -17.5, 
			 "cosmo_repulsion_energy": 1.45, 
			 "cosmo_total_nonelectrostatic_energy": 8.2, 
			 "SMD_solvation_energy": 2.59 
		},
		"coords": [
			{
				"x": 1.9829232397,
				"y": -1.2190586299,
				"z": -1.4262303195,
				"element": "O" 
			},
			{
				"x": 0.783281508,
				"y": -1.1703070105,
				"z": -0.6641415349,
				"element": "C" 
			},
			{
				"x": 1.1646115414,
				"y": -1.3545445527,
				"z": 0.7999202775,
				"element": "C" 
			},
			{
				"x": -0.0436280692,
				"y": -1.380807478,
				"z": 1.7584176458,
				"element": "C" 
			},
			{
				"x": -0.8102172494,
				"y": -0.0767885268,
				"z": 1.8234198502,
				"element": "C" 
			},
			{
				"x": -0.2689796315,
				"y": 1.0556652929,
				"z": 2.4466691237,
				"element": "C" 
			},
			{
				"x": -1.0032755964,
				"y": 2.2399209429,
				"z": 2.4743754368,
				"element": "C" 
			},
			{
				"x": -2.2224213586,
				"y": 2.3771602349,
				"z": 1.93476162,
				"element": "N" 
			},
			{
				"x": -2.7390222594,
				"y": 1.2941936569,
				"z": 1.3426028353,
				"element": "C" 
			},
			{
				"x": -2.0839942562,
				"y": 0.0640465342,
				"z": 1.2620809868,
				"element": "C" 
			},
			{
				"x": 1.760258423,
				"y": -1.0472997504,
				"z": -2.3492688844,
				"element": "H" 
			},
			{
				"x": 0.0834695542,
				"y": -1.968589221,
				"z": -0.96647495,
				"element": "H" 
			},
			{
				"x": 0.260428175,
				"y": -0.2110514396,
				"z": -0.7989919076,
				"element": "H" 
			},
			{
				"x": 1.7197353754,
				"y": -2.2948606766,
				"z": 0.8945621255,
				"element": "H" 
			},
			{
				"x": 1.8545534166,
				"y": -0.5513341056,
				"z": 1.0838733131,
				"element": "H" 
			},
			{
				"x": -0.7252224752,
				"y": -2.1885092814,
				"z": 1.4651079121,
				"element": "H" 
			},
			{
				"x": 0.3195015321,
				"y": -1.6306214859,
				"z": 2.7625778449,
				"element": "H" 
			},
			{
				"x": 0.7129550766,
				"y": 1.0164472504,
				"z": 2.9109790388,
				"element": "H" 
			},
			{
				"x": -0.592376238,
				"y": 3.1246474162,
				"z": 2.9584119255,
				"element": "H" 
			},
			{
				"x": -3.7314365896,
				"y": 1.4119392179,
				"z": 0.9096214999,
				"element": "H" 
			},
			{
				"x": -2.5666441186,
				"y": -0.7763483878,
				"z": 0.7701261606,
				"element": "H" 
			}
		],
		 "valence_orbital": [ 
			{
				"type": "occ",
				"energy": -0.3254,
				"method": "rhf"
			},
			{
				"type": "occ",
				"energy": -0.27438,
				"method": "rhf"
			},
			{
				"type": "occ",
				"energy": -0.26582,
				"method": "rhf"
			},
			{
				"type": "occ",
				"energy": -0.25985,
				"method": "rhf"
			},
			{
				"type": "occ",
				"energy": -0.25084,
				"method": "rhf"
			},
			{
				"type": "unocc",
				"energy": -0.0214,
				"method": "rhf"
			},
			{
				"type": "unocc",
				"energy": -0.00974,
				"method": "rhf"
			},
			{
				"type": "unocc",
				"energy": 0.0757,
				"method": "rhf"
			},
			{
				"type": "unocc",
				"energy": 0.08915,
				"method": "rhf"
			},
			{
				"type": "unocc",
				"energy": 0.11408,
				"method": "rhf"
			}
		],
		"cosmo_sigma_profile": { 
			"-0.025": 0.0,
			"-0.024": 0.0,
			"-0.023": 0.0,
			"-0.022": 0.0,
			"-0.021": 0.0,
			"-0.02": 0.0,
			"-0.019": 0.0,
			"-0.018": 0.0,
			"-0.017": 0.0,
			"-0.016": 0.356211397541,
			"-0.015": 0.899396604236,
			"-0.014": 1.2053185307,
			"-0.013": 0.851225705422,
			"-0.012": 0.518494651993,
			"-0.011": 1.0566937753,
			"-0.01": 0.788828570762,
			"-0.009": 0.369579981846,
			"-0.008": 0.860110859519,
			"-0.007": 1.50728523451,
			"-0.006": 9.16179631652,
			"-0.005": 12.8500648949,
			"-0.004": 17.360231585,
			"-0.003": 20.704641558,
			"-0.002": 19.7874784348,
			"-0.001": 17.2993844056,
			"0.0": 14.4644639311,
			"0.001": 9.0087063951,
			"0.002": 11.450502747,
			"0.003": 14.3894639959,
			"0.004": 4.60217454152,
			"0.005": 4.62457997886,
			"0.006": 2.71829380222,
			"0.007": 2.45480203732,
			"0.008": 2.31852489236,
			"0.009": 3.07449009831,
			"0.01": 2.27302502322,
			"0.011": 2.18067923235,
			"0.012": 2.81603546101,
			"0.013": 1.9138055453,
			"0.014": 3.17486074274,
			"0.015": 1.93619164895,
			"0.016": 0.794203484392,
			"0.017": 0.703962037749,
			"0.018": 0.0428849319224,
			"0.019": 0.0,
			"0.02": 0.0,
			"0.021": 0.0,
			"0.022": 0.0,
			"0.023": 0.0,
			"0.024": 0.0,
			"0.025": 0.0
		}
	}
}
