{
	 "smiles": "NC(=S)NC1=CC=CC2=C1C=CC=C2", 
	 "Tm": 468.15, 
	 "num_atms": 24, 
	 "gaussian": { 
		 "optdone": 1, 
		 "sigma_profile": "yes", 
		 "theory": "DFT", 
		 "functional": "B3LYP", 
		 "basiset": "6-31G**", 
		 "properties": { 
			 "R2extent": 3470.6455, 
			 "electric_dipole_moment_norm": 6.07721807902, 
			 "electric_quadrupole_moment_norm": 22.6047200261, 
			 "total_energy": -932.915850057, 
			 "HOMO_LUMO_gap": 0.14181, 
			 "cosmo_polarized_energy": -17.18, 
			 "cosmo_cavitation_energy": 29.3, 
			 "cosmo_dispersion_energy": -21.7, 
			 "cosmo_repulsion_energy": 1.66, 
			 "cosmo_total_nonelectrostatic_energy": 9.26, 
			 "SMD_solvation_energy": 3.94 
		},
		"coords": [
			{
				"x": 0.7242514288,
				"y": -2.9747972639,
				"z": 0.3193736314,
				"element": "N" 
			},
			{
				"x": -0.625443774,
				"y": -2.9121479797,
				"z": 0.3748679351,
				"element": "C" 
			},
			{
				"x": -1.5671798177,
				"y": -4.1857800239,
				"z": 0.9445986158,
				"element": "S" 
			},
			{
				"x": -1.2004800732,
				"y": -1.742437546,
				"z": -0.0526746264,
				"element": "N" 
			},
			{
				"x": -0.5427877425,
				"y": -0.6504492559,
				"z": -0.6983015824,
				"element": "C" 
			},
			{
				"x": -0.7462650879,
				"y": -0.438886064,
				"z": -2.0483502818,
				"element": "C" 
			},
			{
				"x": -0.1333867573,
				"y": 0.6488784056,
				"z": -2.7107809759,
				"element": "C" 
			},
			{
				"x": 0.6943465158,
				"y": 1.5033907307,
				"z": -2.019320469,
				"element": "C" 
			},
			{
				"x": 0.9244034096,
				"y": 1.3255505743,
				"z": -0.6289342207,
				"element": "C" 
			},
			{
				"x": 0.2827988319,
				"y": 0.2421809285,
				"z": 0.0600900554,
				"element": "C" 
			},
			{
				"x": 0.4776594296,
				"y": 0.1093388214,
				"z": 1.4627005414,
				"element": "C" 
			},
			{
				"x": 1.2878022487,
				"y": 0.9898032756,
				"z": 2.1446490144,
				"element": "C" 
			},
			{
				"x": 1.9422871376,
				"y": 2.0439244794,
				"z": 1.4622266881,
				"element": "C" 
			},
			{
				"x": 1.7596053789,
				"y": 2.2085297833,
				"z": 0.1084458425,
				"element": "C" 
			},
			{
				"x": 1.1630441642,
				"y": -3.8226235205,
				"z": 0.6371416382,
				"element": "H" 
			},
			{
				"x": 1.2902001169,
				"y": -2.2183621101,
				"z": -0.0346101839,
				"element": "H" 
			},
			{
				"x": -2.2076902015,
				"y": -1.7989167586,
				"z": -0.1158499204,
				"element": "H" 
			},
			{
				"x": -1.3773511271,
				"y": -1.1282431819,
				"z": -2.6013632299,
				"element": "H" 
			},
			{
				"x": -0.3099071816,
				"y": 0.7941394268,
				"z": -3.7721090042,
				"element": "H" 
			},
			{
				"x": 1.1789863674,
				"y": 2.3327636799,
				"z": -2.5273505117,
				"element": "H" 
			},
			{
				"x": -0.0328137463,
				"y": -0.6881195569,
				"z": 1.9910643446,
				"element": "H" 
			},
			{
				"x": 1.4218693364,
				"y": 0.8794040624,
				"z": 3.2166656684,
				"element": "H" 
			},
			{
				"x": 2.5812968786,
				"y": 2.7272202213,
				"z": 2.013715571,
				"element": "H" 
			},
			{
				"x": 2.2482542648,
				"y": 3.0234388723,
				"z": -0.4190945401,
				"element": "H" 
			}
		],
		 "valence_orbital": [ 
			{
				"type": "occ",
				"energy": -0.27242,
				"method": "rhf"
			},
			{
				"type": "occ",
				"energy": -0.26036,
				"method": "rhf"
			},
			{
				"type": "occ",
				"energy": -0.233,
				"method": "rhf"
			},
			{
				"type": "occ",
				"energy": -0.20569,
				"method": "rhf"
			},
			{
				"type": "occ",
				"energy": -0.20007,
				"method": "rhf"
			},
			{
				"type": "unocc",
				"energy": -0.05826,
				"method": "rhf"
			},
			{
				"type": "unocc",
				"energy": -0.02657,
				"method": "rhf"
			},
			{
				"type": "unocc",
				"energy": 0.00408,
				"method": "rhf"
			},
			{
				"type": "unocc",
				"energy": 0.01826,
				"method": "rhf"
			},
			{
				"type": "unocc",
				"energy": 0.07148,
				"method": "rhf"
			}
		],
		"cosmo_sigma_profile": { 
			"-0.025": 0.0,
			"-0.024": 0.0,
			"-0.023": 0.0,
			"-0.022": 0.0,
			"-0.021": 0.0,
			"-0.02": 0.0,
			"-0.019": 0.0,
			"-0.018": 0.0,
			"-0.017": 0.0,
			"-0.016": 0.0,
			"-0.015": 0.579510915449,
			"-0.014": 2.50995996391,
			"-0.013": 2.52059160799,
			"-0.012": 2.53586162545,
			"-0.011": 2.78898430747,
			"-0.01": 3.05485618136,
			"-0.009": 2.41753235474,
			"-0.008": 2.5084692805,
			"-0.007": 4.8609012332,
			"-0.006": 16.1423185832,
			"-0.005": 17.8458984863,
			"-0.004": 16.5341881675,
			"-0.003": 12.7342996324,
			"-0.002": 12.5781666331,
			"-0.001": 12.8319304703,
			"0.0": 12.0170855598,
			"0.001": 15.2441315227,
			"0.002": 16.5637204934,
			"0.003": 20.3386635823,
			"0.004": 18.1652287125,
			"0.005": 7.07824990477,
			"0.006": 3.495484052,
			"0.007": 3.22371027921,
			"0.008": 3.18472528407,
			"0.009": 3.49302514702,
			"0.01": 4.45944162526,
			"0.011": 6.42786329866,
			"0.012": 8.36542327816,
			"0.013": 2.66947552144,
			"0.014": 0.0,
			"0.015": 0.0,
			"0.016": 0.0,
			"0.017": 0.0,
			"0.018": 0.0,
			"0.019": 0.0,
			"0.02": 0.0,
			"0.021": 0.0,
			"0.022": 0.0,
			"0.023": 0.0,
			"0.024": 0.0,
			"0.025": 0.0
		}
	}
}
