{
	 "smiles": "OCCN1C(=O)NC2=C(C=CC=C2)C1=O", 
	 "Tm": 531.15, 
	 "num_atms": 25, 
	 "gaussian": { 
		 "optdone": 1, 
		 "sigma_profile": "yes", 
		 "theory": "DFT", 
		 "functional": "B3LYP", 
		 "basiset": "6-31G**", 
		 "properties": { 
			 "R2extent": 3977.0413, 
			 "electric_dipole_moment_norm": 4.38394837789, 
			 "electric_quadrupole_moment_norm": 19.6061710405, 
			 "total_energy": -722.309864626, 
			 "HOMO_LUMO_gap": 0.18444, 
			 "cosmo_polarized_energy": -18.47, 
			 "cosmo_cavitation_energy": 29.12, 
			 "cosmo_dispersion_energy": -21.48, 
			 "cosmo_repulsion_energy": 1.67, 
			 "cosmo_total_nonelectrostatic_energy": 9.31, 
			 "SMD_solvation_energy": 5.91 
		},
		"coords": [
			{
				"x": 3.117183164,
				"y": 0.0440175584,
				"z": 3.2271602968,
				"element": "O" 
			},
			{
				"x": 2.2415664347,
				"y": 0.1582573265,
				"z": 2.115139791,
				"element": "C" 
			},
			{
				"x": 0.8337350017,
				"y": -0.0803504812,
				"z": 2.6576366656,
				"element": "C" 
			},
			{
				"x": -0.1857011679,
				"y": 0.0153035606,
				"z": 1.6019381594,
				"element": "N" 
			},
			{
				"x": -0.4945350275,
				"y": -1.1617491079,
				"z": 0.9090365019,
				"element": "C" 
			},
			{
				"x": 0.0535437673,
				"y": -2.2299041642,
				"z": 1.1293417739,
				"element": "O" 
			},
			{
				"x": -1.4781056786,
				"y": -1.0371600901,
				"z": -0.0556025278,
				"element": "N" 
			},
			{
				"x": -2.1406271111,
				"y": 0.1346649839,
				"z": -0.385393867,
				"element": "C" 
			},
			{
				"x": -1.7989500132,
				"y": 1.3089145729,
				"z": 0.3046183195,
				"element": "C" 
			},
			{
				"x": -2.4465508219,
				"y": 2.5118076549,
				"z": -0.0069563732,
				"element": "C" 
			},
			{
				"x": -3.4250863167,
				"y": 2.5470097037,
				"z": -0.9914773417,
				"element": "C" 
			},
			{
				"x": -3.7600295357,
				"y": 1.3691075066,
				"z": -1.6757363026,
				"element": "C" 
			},
			{
				"x": -3.1272104368,
				"y": 0.1667990778,
				"z": -1.3820240837,
				"element": "C" 
			},
			{
				"x": -0.7583111661,
				"y": 1.2768286153,
				"z": 1.349657764,
				"element": "C" 
			},
			{
				"x": -0.3980289446,
				"y": 2.2645245662,
				"z": 1.9747442397,
				"element": "O" 
			},
			{
				"x": 4.0181566286,
				"y": 0.1959890051,
				"z": 2.9184659637,
				"element": "H" 
			},
			{
				"x": 2.4629984408,
				"y": -0.5914674655,
				"z": 1.340917813,
				"element": "H" 
			},
			{
				"x": 2.2884862613,
				"y": 1.1574980842,
				"z": 1.6573588097,
				"element": "H" 
			},
			{
				"x": 0.7742572673,
				"y": -1.0770085111,
				"z": 3.0938185336,
				"element": "H" 
			},
			{
				"x": 0.6007533087,
				"y": 0.6737179751,
				"z": 3.4089609052,
				"element": "H" 
			},
			{
				"x": -1.6854088998,
				"y": -1.8980670494,
				"z": -0.5420477494,
				"element": "H" 
			},
			{
				"x": -2.1561264645,
				"y": 3.3992301895,
				"z": 0.5450920356,
				"element": "H" 
			},
			{
				"x": -3.9276669963,
				"y": 3.4781314884,
				"z": -1.2315554044,
				"element": "H" 
			},
			{
				"x": -4.5241562615,
				"y": 1.3904964985,
				"z": -2.4472739945,
				"element": "H" 
			},
			{
				"x": -3.3892854322,
				"y": -0.7431914984,
				"z": -1.9145199284,
				"element": "H" 
			}
		],
		 "valence_orbital": [ 
			{
				"type": "occ",
				"energy": -0.27329,
				"method": "rhf"
			},
			{
				"type": "occ",
				"energy": -0.27125,
				"method": "rhf"
			},
			{
				"type": "occ",
				"energy": -0.26676,
				"method": "rhf"
			},
			{
				"type": "occ",
				"energy": -0.26448,
				"method": "rhf"
			},
			{
				"type": "occ",
				"energy": -0.23759,
				"method": "rhf"
			},
			{
				"type": "unocc",
				"energy": -0.05315,
				"method": "rhf"
			},
			{
				"type": "unocc",
				"energy": -0.01998,
				"method": "rhf"
			},
			{
				"type": "unocc",
				"energy": 0.02059,
				"method": "rhf"
			},
			{
				"type": "unocc",
				"energy": 0.06896,
				"method": "rhf"
			},
			{
				"type": "unocc",
				"energy": 0.07087,
				"method": "rhf"
			}
		],
		"cosmo_sigma_profile": { 
			"-0.025": 0.0,
			"-0.024": 0.0,
			"-0.023": 0.0,
			"-0.022": 0.0,
			"-0.021": 0.0,
			"-0.02": 0.0,
			"-0.019": 0.0,
			"-0.018": 0.0,
			"-0.017": 0.0528023929466,
			"-0.016": 1.80831179907,
			"-0.015": 2.67186404941,
			"-0.014": 1.84071107217,
			"-0.013": 2.47935018391,
			"-0.012": 2.06935581945,
			"-0.011": 1.59892257113,
			"-0.01": 2.00400421737,
			"-0.009": 1.92395619218,
			"-0.008": 2.55186882833,
			"-0.007": 5.74641338394,
			"-0.006": 10.1712710062,
			"-0.005": 13.7105021952,
			"-0.004": 18.3897661124,
			"-0.003": 19.7150579861,
			"-0.002": 17.5073785477,
			"-0.001": 15.1698674307,
			"0.0": 12.189353738,
			"0.001": 13.9793532503,
			"0.002": 15.3618151646,
			"0.003": 13.2067628974,
			"0.004": 10.3156543547,
			"0.005": 4.76285246483,
			"0.006": 5.3933335822,
			"0.007": 2.96184932915,
			"0.008": 3.28804525175,
			"0.009": 4.06693022711,
			"0.01": 4.33276585792,
			"0.011": 5.05286474215,
			"0.012": 9.92178637534,
			"0.013": 6.36647766891,
			"0.014": 0.925714986324,
			"0.015": 0.0,
			"0.016": 0.0,
			"0.017": 0.0,
			"0.018": 0.0,
			"0.019": 0.0,
			"0.02": 0.0,
			"0.021": 0.0,
			"0.022": 0.0,
			"0.023": 0.0,
			"0.024": 0.0,
			"0.025": 0.0
		}
	}
}
