{
	 "smiles": "O=C(N1CCNCC1)C(=O)N1CCOCC1", 
	 "Tm": 401.15, 
	 "num_atms": 33, 
	 "gaussian": { 
		 "optdone": 1, 
		 "sigma_profile": "yes", 
		 "theory": "DFT", 
		 "functional": "B3LYP", 
		 "basiset": "6-31G**", 
		 "properties": { 
			 "R2extent": 5303.0402, 
			 "electric_dipole_moment_norm": 2.39778581404, 
			 "electric_quadrupole_moment_norm": 9.08972841288, 
			 "total_energy": -781.225100618, 
			 "HOMO_LUMO_gap": 0.19932, 
			 "cosmo_polarized_energy": -15.97, 
			 "cosmo_cavitation_energy": 33.37, 
			 "cosmo_dispersion_energy": -24.46, 
			 "cosmo_repulsion_energy": 1.92, 
			 "cosmo_total_nonelectrostatic_energy": 10.83, 
			 "SMD_solvation_energy": 2.65 
		},
		"coords": [
			{
				"x": -0.3485926071,
				"y": -2.358561254,
				"z": -0.461238313,
				"element": "O" 
			},
			{
				"x": -0.5471916636,
				"y": -1.4133977335,
				"z": 0.3039088917,
				"element": "C" 
			},
			{
				"x": 0.4302930921,
				"y": -0.8437634302,
				"z": 1.0576631316,
				"element": "N" 
			},
			{
				"x": 0.2669255641,
				"y": 0.254856873,
				"z": 2.0090209944,
				"element": "C" 
			},
			{
				"x": 0.3798093313,
				"y": -0.289186455,
				"z": 3.4555919787,
				"element": "C" 
			},
			{
				"x": 1.278751805,
				"y": -1.449024639,
				"z": 3.5604084247,
				"element": "N" 
			},
			{
				"x": 2.3198931805,
				"y": -1.4162900032,
				"z": 2.5373579605,
				"element": "C" 
			},
			{
				"x": 1.7528892481,
				"y": -1.4837138133,
				"z": 1.0939003642,
				"element": "C" 
			},
			{
				"x": -1.9856697566,
				"y": -0.9048968591,
				"z": 0.523255186,
				"element": "C" 
			},
			{
				"x": -2.4328462142,
				"y": -0.8264466073,
				"z": 1.6693341378,
				"element": "O" 
			},
			{
				"x": -2.7308608174,
				"y": -0.6514480421,
				"z": -0.5877554955,
				"element": "N" 
			},
			{
				"x": -4.1531221996,
				"y": -0.3329291424,
				"z": -0.4348984458,
				"element": "C" 
			},
			{
				"x": -4.491308451,
				"y": 0.9155464714,
				"z": -1.2486393674,
				"element": "C" 
			},
			{
				"x": -4.108049094,
				"y": 0.7657294642,
				"z": -2.6095926934,
				"element": "O" 
			},
			{
				"x": -2.7118779621,
				"y": 0.5316715787,
				"z": -2.725505019,
				"element": "C" 
			},
			{
				"x": -2.2872577732,
				"y": -0.7367049435,
				"z": -1.9816295631,
				"element": "C" 
			},
			{
				"x": -0.6887303328,
				"y": 0.7517690631,
				"z": 1.8580507342,
				"element": "H" 
			},
			{
				"x": 1.0610597423,
				"y": 0.985256721,
				"z": 1.8065487395,
				"element": "H" 
			},
			{
				"x": 0.7382429298,
				"y": 0.5170845144,
				"z": 4.1104081882,
				"element": "H" 
			},
			{
				"x": -0.6125810135,
				"y": -0.5871452111,
				"z": 3.801774573,
				"element": "H" 
			},
			{
				"x": 0.7340164636,
				"y": -2.2999290182,
				"z": 3.4489973746,
				"element": "H" 
			},
			{
				"x": 3.013093477,
				"y": -2.2495806981,
				"z": 2.69090537,
				"element": "H" 
			},
			{
				"x": 2.9023306588,
				"y": -0.497673721,
				"z": 2.6783632643,
				"element": "H" 
			},
			{
				"x": 1.6161689931,
				"y": -2.5161297495,
				"z": 0.7656676061,
				"element": "H" 
			},
			{
				"x": 2.4340929675,
				"y": -1.0001678891,
				"z": 0.3784229392,
				"element": "H" 
			},
			{
				"x": -4.3556370422,
				"y": -0.1901122894,
				"z": 0.6272783383,
				"element": "H" 
			},
			{
				"x": -4.7502860385,
				"y": -1.1803819507,
				"z": -0.7987237567,
				"element": "H" 
			},
			{
				"x": -3.9900702681,
				"y": 1.7925125955,
				"z": -0.8064130088,
				"element": "H" 
			},
			{
				"x": -5.5704819551,
				"y": 1.0931812531,
				"z": -1.2447115257,
				"element": "H" 
			},
			{
				"x": -2.4981851913,
				"y": 0.4314141035,
				"z": -3.7935696637,
				"element": "H" 
			},
			{
				"x": -2.1473890994,
				"y": 1.3950054765,
				"z": -2.3343321165,
				"element": "H" 
			},
			{
				"x": -2.7542710561,
				"y": -1.6120869377,
				"z": -2.4521070268,
				"element": "H" 
			},
			{
				"x": -1.2087589176,
				"y": -0.8748577268,
				"z": -2.0274422016,
				"element": "H" 
			}
		],
		 "valence_orbital": [ 
			{
				"type": "occ",
				"energy": -0.27761,
				"method": "rhf"
			},
			{
				"type": "occ",
				"energy": -0.25406,
				"method": "rhf"
			},
			{
				"type": "occ",
				"energy": -0.24163,
				"method": "rhf"
			},
			{
				"type": "occ",
				"energy": -0.23692,
				"method": "rhf"
			},
			{
				"type": "occ",
				"energy": -0.21964,
				"method": "rhf"
			},
			{
				"type": "unocc",
				"energy": -0.02032,
				"method": "rhf"
			},
			{
				"type": "unocc",
				"energy": 0.05465,
				"method": "rhf"
			},
			{
				"type": "unocc",
				"energy": 0.07761,
				"method": "rhf"
			},
			{
				"type": "unocc",
				"energy": 0.09769,
				"method": "rhf"
			},
			{
				"type": "unocc",
				"energy": 0.10217,
				"method": "rhf"
			}
		],
		"cosmo_sigma_profile": { 
			"-0.025": 0.0,
			"-0.024": 0.0,
			"-0.023": 0.0,
			"-0.022": 0.0,
			"-0.021": 0.0,
			"-0.02": 0.0,
			"-0.019": 0.0,
			"-0.018": 0.0,
			"-0.017": 0.0,
			"-0.016": 0.0,
			"-0.015": 0.0,
			"-0.014": 0.0,
			"-0.013": 0.0,
			"-0.012": 0.0,
			"-0.011": 0.0512122217584,
			"-0.01": 1.08496910792,
			"-0.009": 1.3020994263,
			"-0.008": 1.27750500741,
			"-0.007": 1.62407515393,
			"-0.006": 9.53800351778,
			"-0.005": 32.0343950253,
			"-0.004": 43.8677766463,
			"-0.003": 33.8764592699,
			"-0.002": 25.0299906237,
			"-0.001": 14.8166032164,
			"0.0": 10.1892343889,
			"0.001": 10.6905669217,
			"0.002": 6.69170202107,
			"0.003": 6.22942539651,
			"0.004": 6.52954066925,
			"0.005": 5.59171965226,
			"0.006": 4.91479059326,
			"0.007": 5.94440274797,
			"0.008": 5.5494512795,
			"0.009": 4.2208607434,
			"0.01": 4.82260447634,
			"0.011": 5.25633948268,
			"0.012": 7.09500374144,
			"0.013": 8.2313758287,
			"0.014": 1.27884578188,
			"0.015": 0.708381019838,
			"0.016": 0.724850832883,
			"0.017": 0.567025877939,
			"0.018": 0.336164375558,
			"0.019": 0.0335287212311,
			"0.02": 0.0,
			"0.021": 0.0,
			"0.022": 0.0,
			"0.023": 0.0,
			"0.024": 0.0,
			"0.025": 0.0
		}
	}
}
