{
	 "smiles": "NS(=O)(=O)C1=C(Br)C=CC(F)=C1", 
	 "Tm": 444.15, 
	 "num_atms": 17, 
	 "gaussian": { 
		 "optdone": 1, 
		 "sigma_profile": "yes", 
		 "theory": "DFT", 
		 "functional": "B3LYP", 
		 "basiset": "6-31G**", 
		 "properties": { 
			 "R2extent": 4013.7522, 
			 "electric_dipole_moment_norm": 3.5076035252, 
			 "electric_quadrupole_moment_norm": 14.4168160573, 
			 "total_energy": -3506.19699816, 
			 "HOMO_LUMO_gap": 0.20525, 
			 "cosmo_polarized_energy": -14.04, 
			 "cosmo_cavitation_energy": 25.35, 
			 "cosmo_dispersion_energy": -19.56, 
			 "cosmo_repulsion_energy": 1.47, 
			 "cosmo_total_nonelectrostatic_energy": 7.26, 
			 "SMD_solvation_energy": 3.54 
		},
		"coords": [
			{
				"x": -0.2161253649,
				"y": -2.500169404,
				"z": -0.7078376148,
				"element": "N" 
			},
			{
				"x": -0.1948049619,
				"y": -1.7504644261,
				"z": 0.8002888872,
				"element": "S" 
			},
			{
				"x": -1.0664497777,
				"y": -2.4681085396,
				"z": 1.7291866141,
				"element": "O" 
			},
			{
				"x": 1.2167301426,
				"y": -1.5063535876,
				"z": 1.107438083,
				"element": "O" 
			},
			{
				"x": -0.9401849408,
				"y": -0.1383957268,
				"z": 0.4612378093,
				"element": "C" 
			},
			{
				"x": -2.2524679044,
				"y": 0.043542571,
				"z": 0.0066778136,
				"element": "C" 
			},
			{
				"x": -3.4164144821,
				"y": -1.4095618963,
				"z": -0.4043055846,
				"element": "Br" 
			},
			{
				"x": -2.7491022862,
				"y": 1.3350444506,
				"z": -0.1765330301,
				"element": "C" 
			},
			{
				"x": -1.9521822351,
				"y": 2.4450148798,
				"z": 0.0969979046,
				"element": "C" 
			},
			{
				"x": -0.6544850446,
				"y": 2.242090075,
				"z": 0.5498542474,
				"element": "C" 
			},
			{
				"x": 0.1228365921,
				"y": 3.3063131331,
				"z": 0.813818327,
				"element": "F" 
			},
			{
				"x": -0.1345445856,
				"y": 0.9681546692,
				"z": 0.7362184409,
				"element": "C" 
			},
			{
				"x": -0.947331414,
				"y": -3.2033610464,
				"z": -0.7579292115,
				"element": "H" 
			},
			{
				"x": 0.7074844306,
				"y": -2.8793199103,
				"z": -0.8979582982,
				"element": "H" 
			},
			{
				"x": -3.7633351059,
				"y": 1.4684275445,
				"z": -0.5343015765,
				"element": "H" 
			},
			{
				"x": -2.3264347189,
				"y": 3.4535566053,
				"z": -0.0387277263,
				"element": "H" 
			},
			{
				"x": 0.8805116569,
				"y": 0.8270906085,
				"z": 1.087374915,
				"element": "H" 
			}
		],
		 "valence_orbital": [ 
			{
				"type": "occ",
				"energy": -0.32077,
				"method": "rhf"
			},
			{
				"type": "occ",
				"energy": -0.3111,
				"method": "rhf"
			},
			{
				"type": "occ",
				"energy": -0.29528,
				"method": "rhf"
			},
			{
				"type": "occ",
				"energy": -0.2846,
				"method": "rhf"
			},
			{
				"type": "occ",
				"energy": -0.25746,
				"method": "rhf"
			},
			{
				"type": "unocc",
				"energy": -0.05221,
				"method": "rhf"
			},
			{
				"type": "unocc",
				"energy": -0.03277,
				"method": "rhf"
			},
			{
				"type": "unocc",
				"energy": -0.01784,
				"method": "rhf"
			},
			{
				"type": "unocc",
				"energy": 0.05345,
				"method": "rhf"
			},
			{
				"type": "unocc",
				"energy": 0.06857,
				"method": "rhf"
			}
		],
		"cosmo_sigma_profile": { 
			"-0.025": 0.0,
			"-0.024": 0.0,
			"-0.023": 0.0,
			"-0.022": 0.0,
			"-0.021": 0.0,
			"-0.02": 0.0,
			"-0.019": 0.0,
			"-0.018": 0.0,
			"-0.017": 0.0,
			"-0.016": 0.101235870013,
			"-0.015": 1.57620822572,
			"-0.014": 2.72681929809,
			"-0.013": 1.51790769547,
			"-0.012": 2.42026810674,
			"-0.011": 1.93544608789,
			"-0.01": 2.04916253154,
			"-0.009": 4.16123750754,
			"-0.008": 6.28017022804,
			"-0.007": 7.05338231321,
			"-0.006": 6.22343916651,
			"-0.005": 6.824414065,
			"-0.004": 7.69125739284,
			"-0.003": 10.2981599665,
			"-0.002": 11.6438830089,
			"-0.001": 21.2983176881,
			"0.0": 20.8988798336,
			"0.001": 13.9332613991,
			"0.002": 10.8032434007,
			"0.003": 17.3657919345,
			"0.004": 11.1216601993,
			"0.005": 3.60939140495,
			"0.006": 3.40196558994,
			"0.007": 4.84508305985,
			"0.008": 3.83727142956,
			"0.009": 5.35511199491,
			"0.01": 10.3675063787,
			"0.011": 7.06144716372,
			"0.012": 0.219524791992,
			"0.013": 0.0,
			"0.014": 0.0,
			"0.015": 0.0,
			"0.016": 0.0,
			"0.017": 0.0,
			"0.018": 0.0,
			"0.019": 0.0,
			"0.02": 0.0,
			"0.021": 0.0,
			"0.022": 0.0,
			"0.023": 0.0,
			"0.024": 0.0,
			"0.025": 0.0
		}
	}
}
