{
	 "smiles": "NC(=S)N1CCS(=O)(=O)CC1", 
	 "Tm": 507.15, 
	 "num_atms": 21, 
	 "gaussian": { 
		 "optdone": 1, 
		 "sigma_profile": "yes", 
		 "theory": "DFT", 
		 "functional": "B3LYP", 
		 "basiset": "6-31G**", 
		 "properties": { 
			 "R2extent": 2847.4761, 
			 "electric_dipole_moment_norm": 5.43804182956, 
			 "electric_quadrupole_moment_norm": 20.9128954693, 
			 "total_energy": -1252.82588977, 
			 "HOMO_LUMO_gap": 0.20237, 
			 "cosmo_polarized_energy": -28.39, 
			 "cosmo_cavitation_energy": 25.93, 
			 "cosmo_dispersion_energy": -20.33, 
			 "cosmo_repulsion_energy": 1.53, 
			 "cosmo_total_nonelectrostatic_energy": 7.14, 
			 "SMD_solvation_energy": 1.99 
		},
		"coords": [
			{
				"x": -0.565494137,
				"y": -3.4508107475,
				"z": 0.458812028,
				"element": "N" 
			},
			{
				"x": 0.6231851136,
				"y": -2.8141682295,
				"z": 0.2452150736,
				"element": "C" 
			},
			{
				"x": 1.9899185115,
				"y": -3.7093210516,
				"z": -0.1786012824,
				"element": "S" 
			},
			{
				"x": 0.5904429248,
				"y": -1.449486211,
				"z": 0.3700368834,
				"element": "N" 
			},
			{
				"x": -0.6905890248,
				"y": -0.7431888319,
				"z": 0.5475626099,
				"element": "C" 
			},
			{
				"x": -0.5534708663,
				"y": 0.7685751478,
				"z": 0.3751554416,
				"element": "C" 
			},
			{
				"x": 0.2092730945,
				"y": 1.1976384556,
				"z": -1.2238765786,
				"element": "S" 
			},
			{
				"x": 0.6043592073,
				"y": 2.6124559015,
				"z": -1.1644904277,
				"element": "O" 
			},
			{
				"x": -0.6888487165,
				"y": 0.7007823703,
				"z": -2.278508671,
				"element": "O" 
			},
			{
				"x": 1.7059428857,
				"y": 0.1382543162,
				"z": -1.1793522518,
				"element": "C" 
			},
			{
				"x": 1.7918780897,
				"y": -0.6490747087,
				"z": 0.1321336253,
				"element": "C" 
			},
			{
				"x": -0.5141612081,
				"y": -4.4577554562,
				"z": 0.4580782097,
				"element": "H" 
			},
			{
				"x": -1.3111062441,
				"y": -3.0318833646,
				"z": 0.9938254384,
				"element": "H" 
			},
			{
				"x": -1.4098696165,
				"y": -1.1178840532,
				"z": -0.1893260052,
				"element": "H" 
			},
			{
				"x": -1.1014939356,
				"y": -0.9299706206,
				"z": 1.5511793365,
				"element": "H" 
			},
			{
				"x": -1.5393823243,
				"y": 1.2392841617,
				"z": 0.3558042449,
				"element": "H" 
			},
			{
				"x": 0.0406254016,
				"y": 1.2395275174,
				"z": 1.1607301857,
				"element": "H" 
			},
			{
				"x": 1.6249463697,
				"y": -0.5347668887,
				"z": -2.0358463056,
				"element": "H" 
			},
			{
				"x": 2.5606803009,
				"y": 0.8074733087,
				"z": -1.304755933,
				"element": "H" 
			},
			{
				"x": 2.6309957271,
				"y": -1.344341136,
				"z": 0.0758820495,
				"element": "H" 
			},
			{
				"x": 1.9642684469,
				"y": 0.0216601204,
				"z": 0.9808423288,
				"element": "H" 
			}
		],
		 "valence_orbital": [ 
			{
				"type": "occ",
				"energy": -0.30471,
				"method": "rhf"
			},
			{
				"type": "occ",
				"energy": -0.29314,
				"method": "rhf"
			},
			{
				"type": "occ",
				"energy": -0.28233,
				"method": "rhf"
			},
			{
				"type": "occ",
				"energy": -0.22316,
				"method": "rhf"
			},
			{
				"type": "occ",
				"energy": -0.21502,
				"method": "rhf"
			},
			{
				"type": "unocc",
				"energy": -0.01265,
				"method": "rhf"
			},
			{
				"type": "unocc",
				"energy": 0.03799,
				"method": "rhf"
			},
			{
				"type": "unocc",
				"energy": 0.04657,
				"method": "rhf"
			},
			{
				"type": "unocc",
				"energy": 0.05046,
				"method": "rhf"
			},
			{
				"type": "unocc",
				"energy": 0.06777,
				"method": "rhf"
			}
		],
		"cosmo_sigma_profile": { 
			"-0.025": 0.0,
			"-0.024": 0.0,
			"-0.023": 0.0,
			"-0.022": 0.0,
			"-0.021": 0.0,
			"-0.02": 0.0,
			"-0.019": 0.0,
			"-0.018": 0.0,
			"-0.017": 0.0,
			"-0.016": 0.194841096854,
			"-0.015": 1.10237358266,
			"-0.014": 2.31438081375,
			"-0.013": 2.86331641944,
			"-0.012": 2.59076856397,
			"-0.011": 3.83643576264,
			"-0.01": 5.90622276598,
			"-0.009": 9.88209050978,
			"-0.008": 12.8886655077,
			"-0.007": 15.8043558166,
			"-0.006": 12.1071653393,
			"-0.005": 11.6308680336,
			"-0.004": 9.4093076981,
			"-0.003": 6.92848549631,
			"-0.002": 5.76173149928,
			"-0.001": 6.12703243485,
			"0.0": 5.28645548241,
			"0.001": 5.65218855186,
			"0.002": 4.15441451891,
			"0.003": 4.52844501258,
			"0.004": 5.0826316858,
			"0.005": 6.3748043321,
			"0.006": 6.34914070269,
			"0.007": 5.57145230379,
			"0.008": 6.22730283078,
			"0.009": 7.70662902168,
			"0.01": 8.86329641088,
			"0.011": 18.1589335847,
			"0.012": 12.5849705697,
			"0.013": 0.891676151231,
			"0.014": 0.0,
			"0.015": 0.0,
			"0.016": 0.0,
			"0.017": 0.0,
			"0.018": 0.0,
			"0.019": 0.0,
			"0.02": 0.0,
			"0.021": 0.0,
			"0.022": 0.0,
			"0.023": 0.0,
			"0.024": 0.0,
			"0.025": 0.0
		}
	}
}
