{
	 "smiles": "CCOC(=O)C(C(=O)OCC)C1=CC=CC=C1", 
	 "Tm": 289.35, 
	 "num_atms": 33, 
	 "gaussian": { 
		 "optdone": 1, 
		 "sigma_profile": "yes", 
		 "theory": "DFT", 
		 "functional": "B3LYP", 
		 "basiset": "6-31G**", 
		 "properties": { 
			 "R2extent": 5045.625, 
			 "electric_dipole_moment_norm": 2.76715559375, 
			 "electric_quadrupole_moment_norm": 6.24359089627, 
			 "total_energy": -805.950720797, 
			 "HOMO_LUMO_gap": 0.23059, 
			 "cosmo_polarized_energy": -12.46, 
			 "cosmo_cavitation_energy": 37.56, 
			 "cosmo_dispersion_energy": -25.38, 
			 "cosmo_repulsion_energy": 2.07, 
			 "cosmo_total_nonelectrostatic_energy": 14.24, 
			 "SMD_solvation_energy": 8.37 
		},
		"coords": [
			{
				"x": 4.5945055986,
				"y": -0.0319672193,
				"z": -1.5362808193,
				"element": "C" 
			},
			{
				"x": 3.489039726,
				"y": -0.3124584927,
				"z": -0.5369892701,
				"element": "C" 
			},
			{
				"x": 2.2415410515,
				"y": 0.1167444473,
				"z": -1.1377743719,
				"element": "O" 
			},
			{
				"x": 1.1390252269,
				"y": -0.0676502963,
				"z": -0.3918011383,
				"element": "C" 
			},
			{
				"x": 1.1386963037,
				"y": -0.5338367113,
				"z": 0.7274926909,
				"element": "O" 
			},
			{
				"x": -0.1199023385,
				"y": 0.3447607546,
				"z": -1.1615662846,
				"element": "C" 
			},
			{
				"x": -1.097897976,
				"y": 0.9805052733,
				"z": -0.165552403,
				"element": "C" 
			},
			{
				"x": -2.1458771855,
				"y": 0.5072623665,
				"z": 0.2054002516,
				"element": "O" 
			},
			{
				"x": -0.6049189969,
				"y": 2.1699942705,
				"z": 0.2401819895,
				"element": "O" 
			},
			{
				"x": -1.3622553979,
				"y": 2.8709183308,
				"z": 1.259330035,
				"element": "C" 
			},
			{
				"x": -0.984769906,
				"y": 2.3843973729,
				"z": 2.6498569903,
				"element": "C" 
			},
			{
				"x": -0.6954725584,
				"y": -0.8490137008,
				"z": -1.9059893475,
				"element": "C" 
			},
			{
				"x": -1.1216958649,
				"y": -1.9902544192,
				"z": -1.2132464512,
				"element": "C" 
			},
			{
				"x": -1.6353912364,
				"y": -3.0823922706,
				"z": -1.9110788311,
				"element": "C" 
			},
			{
				"x": -1.727873643,
				"y": -3.0495410727,
				"z": -3.3046177299,
				"element": "C" 
			},
			{
				"x": -1.3022341351,
				"y": -1.9170886069,
				"z": -3.9994938704,
				"element": "C" 
			},
			{
				"x": -0.7870643233,
				"y": -0.8232659505,
				"z": -3.3017012165,
				"element": "C" 
			},
			{
				"x": 4.428527331,
				"y": -0.58111444,
				"z": -2.4674069901,
				"element": "H" 
			},
			{
				"x": 5.5574306596,
				"y": -0.3433628985,
				"z": -1.1196658346,
				"element": "H" 
			},
			{
				"x": 4.6497089618,
				"y": 1.0351387321,
				"z": -1.7698336811,
				"element": "H" 
			},
			{
				"x": 3.6308343448,
				"y": 0.2325139855,
				"z": 0.4013189325,
				"element": "H" 
			},
			{
				"x": 3.4115008513,
				"y": -1.3764277846,
				"z": -0.2930768571,
				"element": "H" 
			},
			{
				"x": 0.1731306784,
				"y": 1.1171555329,
				"z": -1.8774635035,
				"element": "H" 
			},
			{
				"x": -2.4276121414,
				"y": 2.7292102824,
				"z": 1.0634341634,
				"element": "H" 
			},
			{
				"x": -1.1024481518,
				"y": 3.9221747626,
				"z": 1.1143222265,
				"element": "H" 
			},
			{
				"x": -1.5205891945,
				"y": 2.9690050084,
				"z": 3.4051961023,
				"element": "H" 
			},
			{
				"x": 0.0892210063,
				"y": 2.4959345452,
				"z": 2.823419609,
				"element": "H" 
			},
			{
				"x": -1.2516735325,
				"y": 1.332337662,
				"z": 2.7744638433,
				"element": "H" 
			},
			{
				"x": -1.0500434752,
				"y": -2.0153899273,
				"z": -0.13160118,
				"element": "H" 
			},
			{
				"x": -1.965717395,
				"y": -3.9611597252,
				"z": -1.3646345965,
				"element": "H" 
			},
			{
				"x": -2.1295746789,
				"y": -3.9020517729,
				"z": -3.8449288664,
				"element": "H" 
			},
			{
				"x": -1.3698080998,
				"y": -1.8826083908,
				"z": -5.0831312961,
				"element": "H" 
			},
			{
				"x": -0.4554415087,
				"y": 0.0575303525,
				"z": -3.8458822952,
				"element": "H" 
			}
		],
		 "valence_orbital": [ 
			{
				"type": "occ",
				"energy": -0.29847,
				"method": "rhf"
			},
			{
				"type": "occ",
				"energy": -0.27882,
				"method": "rhf"
			},
			{
				"type": "occ",
				"energy": -0.27417,
				"method": "rhf"
			},
			{
				"type": "occ",
				"energy": -0.2461,
				"method": "rhf"
			},
			{
				"type": "occ",
				"energy": -0.24225,
				"method": "rhf"
			},
			{
				"type": "unocc",
				"energy": -0.01166,
				"method": "rhf"
			},
			{
				"type": "unocc",
				"energy": -0.00059,
				"method": "rhf"
			},
			{
				"type": "unocc",
				"energy": 0.00883,
				"method": "rhf"
			},
			{
				"type": "unocc",
				"energy": 0.02399,
				"method": "rhf"
			},
			{
				"type": "unocc",
				"energy": 0.09531,
				"method": "rhf"
			}
		],
		"cosmo_sigma_profile": { 
			"-0.025": 0.0,
			"-0.024": 0.0,
			"-0.023": 0.0,
			"-0.022": 0.0,
			"-0.021": 0.0,
			"-0.02": 0.0,
			"-0.019": 0.0,
			"-0.018": 0.0,
			"-0.017": 0.0,
			"-0.016": 0.0,
			"-0.015": 0.0,
			"-0.014": 0.0,
			"-0.013": 0.0,
			"-0.012": 0.0,
			"-0.011": 0.0,
			"-0.01": 0.0,
			"-0.009": 0.289636919661,
			"-0.008": 2.31411953106,
			"-0.007": 2.64132201424,
			"-0.006": 11.7475133837,
			"-0.005": 22.1393784206,
			"-0.004": 35.8006203752,
			"-0.003": 32.7312143634,
			"-0.002": 25.3601638222,
			"-0.001": 24.7644217509,
			"0.0": 25.5298250934,
			"0.001": 15.8655940589,
			"0.002": 15.5872955745,
			"0.003": 16.6476368052,
			"0.004": 13.756072168,
			"0.005": 14.7474864872,
			"0.006": 9.13580925485,
			"0.007": 4.8064324869,
			"0.008": 4.68504097816,
			"0.009": 3.5095677538,
			"0.01": 4.15964448975,
			"0.011": 7.54257385488,
			"0.012": 2.68004900961,
			"0.013": 0.0,
			"0.014": 0.0,
			"0.015": 0.0,
			"0.016": 0.0,
			"0.017": 0.0,
			"0.018": 0.0,
			"0.019": 0.0,
			"0.02": 0.0,
			"0.021": 0.0,
			"0.022": 0.0,
			"0.023": 0.0,
			"0.024": 0.0,
			"0.025": 0.0
		}
	}
}
