{
	 "smiles": "OC(=O)C1=CC=C(C=C1)S(=O)(=O)N1CCCCC1", 
	 "Tm": 544.15, 
	 "num_atms": 33, 
	 "gaussian": { 
		 "optdone": 1, 
		 "sigma_profile": "yes", 
		 "theory": "DFT", 
		 "functional": "B3LYP", 
		 "basiset": "6-31G**", 
		 "properties": { 
			 "R2extent": 6678.5404, 
			 "electric_dipole_moment_norm": 3.14722477748, 
			 "electric_quadrupole_moment_norm": 26.3613651301, 
			 "total_energy": -1220.09747129, 
			 "HOMO_LUMO_gap": 0.18147, 
			 "cosmo_polarized_energy": -21.07, 
			 "cosmo_cavitation_energy": 36.76, 
			 "cosmo_dispersion_energy": -26.52, 
			 "cosmo_repulsion_energy": 2.01, 
			 "cosmo_total_nonelectrostatic_energy": 12.24, 
			 "SMD_solvation_energy": 5.36 
		},
		"coords": [
			{
				"x": -2.6008684299,
				"y": -4.4037031848,
				"z": 0.540483323,
				"element": "O" 
			},
			{
				"x": -2.7902483652,
				"y": -3.2924919983,
				"z": -0.2169089413,
				"element": "C" 
			},
			{
				"x": -3.4664945377,
				"y": -3.3446838842,
				"z": -1.2161130961,
				"element": "O" 
			},
			{
				"x": -2.1208781436,
				"y": -2.0312809908,
				"z": 0.2517474591,
				"element": "C" 
			},
			{
				"x": -2.6461939494,
				"y": -0.8122021281,
				"z": -0.2038563438,
				"element": "C" 
			},
			{
				"x": -2.0692582838,
				"y": 0.390319773,
				"z": 0.1857187613,
				"element": "C" 
			},
			{
				"x": -0.9427565355,
				"y": 0.3676298022,
				"z": 1.0143682723,
				"element": "C" 
			},
			{
				"x": -0.394561232,
				"y": -0.8321738657,
				"z": 1.4631248616,
				"element": "C" 
			},
			{
				"x": -0.9900779976,
				"y": -2.034287972,
				"z": 1.0782060678,
				"element": "C" 
			},
			{
				"x": -0.2231879212,
				"y": 1.9199498222,
				"z": 1.5781896318,
				"element": "S" 
			},
			{
				"x": 0.9432824107,
				"y": 1.5770563354,
				"z": 2.4051713411,
				"element": "O" 
			},
			{
				"x": -1.2965618364,
				"y": 2.7589290767,
				"z": 2.1197689523,
				"element": "O" 
			},
			{
				"x": 0.2372800221,
				"y": 2.6181348067,
				"z": 0.1027822269,
				"element": "N" 
			},
			{
				"x": 1.459247698,
				"y": 2.0348518493,
				"z": -0.4909500859,
				"element": "C" 
			},
			{
				"x": 1.5779489179,
				"y": 2.4822558589,
				"z": -1.95162739,
				"element": "C" 
			},
			{
				"x": 1.5499829588,
				"y": 4.0121195006,
				"z": -2.0687381638,
				"element": "C" 
			},
			{
				"x": 0.3098602392,
				"y": 4.5814967407,
				"z": -1.3662401143,
				"element": "C" 
			},
			{
				"x": 0.2236005953,
				"y": 4.0998630405,
				"z": 0.0847690072,
				"element": "C" 
			},
			{
				"x": -2.1891636404,
				"y": -4.1719112817,
				"z": 1.3845491298,
				"element": "H" 
			},
			{
				"x": -3.509243919,
				"y": -0.8334916318,
				"z": -0.860124446,
				"element": "H" 
			},
			{
				"x": -2.4775883946,
				"y": 1.3373228414,
				"z": -0.1492049878,
				"element": "H" 
			},
			{
				"x": 0.4832011633,
				"y": -0.8136332305,
				"z": 2.0993585385,
				"element": "H" 
			},
			{
				"x": -0.5368350243,
				"y": -2.9685414445,
				"z": 1.3997299708,
				"element": "H" 
			},
			{
				"x": 2.3484901308,
				"y": 2.3391370034,
				"z": 0.0812948974,
				"element": "H" 
			},
			{
				"x": 1.3888592183,
				"y": 0.9448366177,
				"z": -0.4341455569,
				"element": "H" 
			},
			{
				"x": 0.7462739803,
				"y": 2.0509675511,
				"z": -2.5220883628,
				"element": "H" 
			},
			{
				"x": 2.5055620684,
				"y": 2.076085951,
				"z": -2.3706788644,
				"element": "H" 
			},
			{
				"x": 1.5683567996,
				"y": 4.3149395797,
				"z": -3.1214022026,
				"element": "H" 
			},
			{
				"x": 2.4543345436,
				"y": 4.4292134775,
				"z": -1.6041806159,
				"element": "H" 
			},
			{
				"x": 0.3277321137,
				"y": 5.6772984459,
				"z": -1.3723717176,
				"element": "H" 
			},
			{
				"x": -0.5966563105,
				"y": 4.2673673579,
				"z": -1.8980692865,
				"element": "H" 
			},
			{
				"x": -0.6985981515,
				"y": 4.4352673657,
				"z": 0.5600676776,
				"element": "H" 
			},
			{
				"x": 1.0706598125,
				"y": 4.5014588146,
				"z": 0.6640700572,
				"element": "H" 
			}
		],
		 "valence_orbital": [ 
			{
				"type": "occ",
				"energy": -0.30425,
				"method": "rhf"
			},
			{
				"type": "occ",
				"energy": -0.2945,
				"method": "rhf"
			},
			{
				"type": "occ",
				"energy": -0.28929,
				"method": "rhf"
			},
			{
				"type": "occ",
				"energy": -0.28069,
				"method": "rhf"
			},
			{
				"type": "occ",
				"energy": -0.25746,
				"method": "rhf"
			},
			{
				"type": "unocc",
				"energy": -0.07599,
				"method": "rhf"
			},
			{
				"type": "unocc",
				"energy": -0.03917,
				"method": "rhf"
			},
			{
				"type": "unocc",
				"energy": 0.02002,
				"method": "rhf"
			},
			{
				"type": "unocc",
				"energy": 0.04366,
				"method": "rhf"
			},
			{
				"type": "unocc",
				"energy": 0.05972,
				"method": "rhf"
			}
		],
		"cosmo_sigma_profile": { 
			"-0.025": 0.0,
			"-0.024": 0.0,
			"-0.023": 0.0,
			"-0.022": 0.0,
			"-0.021": 0.0,
			"-0.02": 0.00346118811164,
			"-0.019": 0.616557648563,
			"-0.018": 0.869201302879,
			"-0.017": 1.309131115,
			"-0.016": 1.32575457881,
			"-0.015": 0.929350224729,
			"-0.014": 0.806634055253,
			"-0.013": 0.901393835872,
			"-0.012": 1.13274676997,
			"-0.011": 1.39771615561,
			"-0.01": 1.32607755343,
			"-0.009": 2.14094932627,
			"-0.008": 4.44855356699,
			"-0.007": 7.52125120825,
			"-0.006": 6.62770234232,
			"-0.005": 8.68634230545,
			"-0.004": 24.9379540408,
			"-0.003": 35.1413753995,
			"-0.002": 33.4520156302,
			"-0.001": 27.9138968779,
			"0.0": 26.1385340783,
			"0.001": 20.1588456971,
			"0.002": 7.74400843295,
			"0.003": 6.65420598439,
			"0.004": 6.04928103123,
			"0.005": 6.26849428645,
			"0.006": 4.02241225307,
			"0.007": 5.18030816294,
			"0.008": 6.9816781848,
			"0.009": 7.6233672511,
			"0.01": 12.3423272964,
			"0.011": 13.1965360735,
			"0.012": 5.82326206265,
			"0.013": 0.572619178387,
			"0.014": 0.0,
			"0.015": 0.0,
			"0.016": 0.0,
			"0.017": 0.0,
			"0.018": 0.0,
			"0.019": 0.0,
			"0.02": 0.0,
			"0.021": 0.0,
			"0.022": 0.0,
			"0.023": 0.0,
			"0.024": 0.0,
			"0.0": 0.0
		}
	}
}
