{
	 "smiles": "CC1=CC(=CC=C1)C#N", 
	 "Tm": 248.15, 
	 "num_atms": 16, 
	 "gaussian": { 
		 "optdone": 1, 
		 "sigma_profile": "yes", 
		 "theory": "DFT", 
		 "functional": "B3LYP", 
		 "basiset": "6-31G**", 
		 "properties": { 
			 "R2extent": 1676.4991, 
			 "electric_dipole_moment_norm": 4.87191968222, 
			 "electric_quadrupole_moment_norm": 18.195628916, 
			 "total_energy": -363.812732448, 
			 "HOMO_LUMO_gap": 0.20984, 
			 "cosmo_polarized_energy": -8.28, 
			 "cosmo_cavitation_energy": 20.99, 
			 "cosmo_dispersion_energy": -14.89, 
			 "cosmo_repulsion_energy": 1.22, 
			 "cosmo_total_nonelectrostatic_energy": 7.33, 
			 "SMD_solvation_energy": 5.16 
		},
		"coords": [
			{
				"x": -0.6892908041,
				"y": -1.0089865549,
				"z": -1.6848569079,
				"element": "C" 
			},
			{
				"x": 0.4103736176,
				"y": -0.631835933,
				"z": -0.7203976964,
				"element": "C" 
			},
			{
				"x": 0.3186538285,
				"y": -0.9485907932,
				"z": 0.63629428,
				"element": "C" 
			},
			{
				"x": 1.3462471422,
				"y": -0.5950569936,
				"z": 1.5282130853,
				"element": "C" 
			},
			{
				"x": 2.4826390758,
				"y": 0.08409905,
				"z": 1.0636086647,
				"element": "C" 
			},
			{
				"x": 2.5765453888,
				"y": 0.4014259971,
				"z": -0.289797563,
				"element": "C" 
			},
			{
				"x": 1.5537813575,
				"y": 0.0478980877,
				"z": -1.1692697981,
				"element": "C" 
			},
			{
				"x": 1.2292223541,
				"y": -0.9314492469,
				"z": 2.918102096,
				"element": "C" 
			},
			{
				"x": 1.1339148226,
				"y": -1.2044389794,
				"z": 4.0449738699,
				"element": "N" 
			},
			{
				"x": -1.5084794185,
				"y": -1.5238973485,
				"z": -1.1766263732,
				"element": "H" 
			},
			{
				"x": -0.3144883862,
				"y": -1.6714689937,
				"z": -2.4731239074,
				"element": "H" 
			},
			{
				"x": -1.1043810718,
				"y": -0.1230183381,
				"z": -2.178163092,
				"element": "H" 
			},
			{
				"x": -0.55284439,
				"y": -1.473731273,
				"z": 1.0148864921,
				"element": "H" 
			},
			{
				"x": 3.2717904691,
				"y": 0.3540085506,
				"z": 1.7569754628,
				"element": "H" 
			},
			{
				"x": 3.4515740549,
				"y": 0.9269664861,
				"z": -0.6599809535,
				"element": "H" 
			},
			{
				"x": 1.6413419596,
				"y": 0.3024762828,
				"z": -2.2226376593,
				"element": "H" 
			}
		],
		 "valence_orbital": [ 
			{
				"type": "occ",
				"energy": -0.35273,
				"method": "rhf"
			},
			{
				"type": "occ",
				"energy": -0.33992,
				"method": "rhf"
			},
			{
				"type": "occ",
				"energy": -0.32693,
				"method": "rhf"
			},
			{
				"type": "occ",
				"energy": -0.26844,
				"method": "rhf"
			},
			{
				"type": "occ",
				"energy": -0.25978,
				"method": "rhf"
			},
			{
				"type": "unocc",
				"energy": -0.04994,
				"method": "rhf"
			},
			{
				"type": "unocc",
				"energy": -0.01938,
				"method": "rhf"
			},
			{
				"type": "unocc",
				"energy": 0.03976,
				"method": "rhf"
			},
			{
				"type": "unocc",
				"energy": 0.07414,
				"method": "rhf"
			},
			{
				"type": "unocc",
				"energy": 0.07885,
				"method": "rhf"
			}
		],
		"cosmo_sigma_profile": { 
			"-0.025": 0.0,
			"-0.024": 0.0,
			"-0.023": 0.0,
			"-0.022": 0.0,
			"-0.021": 0.0,
			"-0.02": 0.0,
			"-0.019": 0.0,
			"-0.018": 0.0,
			"-0.017": 0.0,
			"-0.016": 0.0,
			"-0.015": 0.0,
			"-0.014": 0.0,
			"-0.013": 0.0,
			"-0.012": 0.0,
			"-0.011": 0.0,
			"-0.01": 0.0,
			"-0.009": 0.0,
			"-0.008": 0.854365514875,
			"-0.007": 5.99865346153,
			"-0.006": 10.2594181747,
			"-0.005": 12.9202804355,
			"-0.004": 14.2434098808,
			"-0.003": 14.0336748918,
			"-0.002": 13.5707132785,
			"-0.001": 16.3739869685,
			"0.0": 15.9163645371,
			"0.001": 10.5716203731,
			"0.002": 11.0038752785,
			"0.003": 13.9057668099,
			"0.004": 4.25196577833,
			"0.005": 1.85915124914,
			"0.006": 3.49688362202,
			"0.007": 2.10880517496,
			"0.008": 3.19546748215,
			"0.009": 3.68733972654,
			"0.01": 3.06338536211,
			"0.011": 2.96937116521,
			"0.012": 2.56295520656,
			"0.013": 1.87156782483,
			"0.014": 0.13135572935,
			"0.015": 0.0,
			"0.016": 0.0,
			"0.017": 0.0,
			"0.018": 0.0,
			"0.019": 0.0,
			"0.02": 0.0,
			"0.021": 0.0,
			"0.022": 0.0,
			"0.023": 0.0,
			"0.024": 0.0,
			"0.025": 0.0
		}
	}
}
