{
	 "smiles": "CN(C1CCNCC1)C(=O)OC(C)(C)C", 
	 "Tm": 313.15, 
	 "num_atms": 37, 
	 "gaussian": { 
		 "optdone": 1, 
		 "sigma_profile": "yes", 
		 "theory": "DFT", 
		 "functional": "B3LYP", 
		 "basiset": "6-31G**", 
		 "properties": { 
			 "R2extent": 3977.8294, 
			 "electric_dipole_moment_norm": 1.69539109352, 
			 "electric_quadrupole_moment_norm": 12.1578674684, 
			 "total_energy": -692.401457711, 
			 "HOMO_LUMO_gap": 0.2719, 
			 "cosmo_polarized_energy": -9.04, 
			 "cosmo_cavitation_energy": 34.79, 
			 "cosmo_dispersion_energy": -24.11, 
			 "cosmo_repulsion_energy": 1.86, 
			 "cosmo_total_nonelectrostatic_energy": 12.55, 
			 "SMD_solvation_energy": 4.45 
		},
		"coords": [
			{
				"x": 3.7883683018,
				"y": 0.9292383657,
				"z": 0.1719705862,
				"element": "C" 
			},
			{
				"x": 2.425257521,
				"y": 0.4999549432,
				"z": -0.1455309276,
				"element": "N" 
			},
			{
				"x": 1.5167347564,
				"y": 0.4282671357,
				"z": 1.0279628358,
				"element": "C" 
			},
			{
				"x": 0.3054888721,
				"y": 1.4000206378,
				"z": 1.0157321405,
				"element": "C" 
			},
			{
				"x": -1.0303713751,
				"y": 0.7900134501,
				"z": 0.5772468552,
				"element": "C" 
			},
			{
				"x": -1.2637684179,
				"y": -0.4559789081,
				"z": 1.3151511071,
				"element": "N" 
			},
			{
				"x": -0.2605554468,
				"y": -1.47671719,
				"z": 0.9953913686,
				"element": "C" 
			},
			{
				"x": 1.1129692129,
				"y": -1.0014094536,
				"z": 1.4798466585,
				"element": "C" 
			},
			{
				"x": 2.1851543722,
				"y": 0.1850465246,
				"z": -1.460019139,
				"element": "C" 
			},
			{
				"x": 3.0378541566,
				"y": 0.2691606801,
				"z": -2.336932644,
				"element": "O" 
			},
			{
				"x": 0.9090710859,
				"y": -0.2237162638,
				"z": -1.6819127921,
				"element": "O" 
			},
			{
				"x": 0.497688628,
				"y": -0.6031268108,
				"z": -3.050193964,
				"element": "C" 
			},
			{
				"x": 1.3142701937,
				"y": -1.8079142317,
				"z": -3.5330181681,
				"element": "C" 
			},
			{
				"x": 0.6177928618,
				"y": 0.6006455123,
				"z": -3.9923346411,
				"element": "C" 
			},
			{
				"x": -0.9737020788,
				"y": -0.9980147888,
				"z": -2.8894988755,
				"element": "C" 
			},
			{
				"x": 4.2561941511,
				"y": 0.239381938,
				"z": 0.8855666289,
				"element": "H" 
			},
			{
				"x": 3.7825897641,
				"y": 1.932404736,
				"z": 0.6154458287,
				"element": "H" 
			},
			{
				"x": 4.3751193159,
				"y": 0.9463883985,
				"z": -0.7431383646,
				"element": "H" 
			},
			{
				"x": 2.1674784006,
				"y": 0.8029645698,
				"z": 1.8213267836,
				"element": "H" 
			},
			{
				"x": 0.1768493203,
				"y": 1.7504390908,
				"z": 2.0467531958,
				"element": "H" 
			},
			{
				"x": 0.5465822974,
				"y": 2.2757061035,
				"z": 0.4038861986,
				"element": "H" 
			},
			{
				"x": -1.0346268022,
				"y": 0.6514475453,
				"z": -0.512091984,
				"element": "H" 
			},
			{
				"x": -1.8355962605,
				"y": 1.491805837,
				"z": 0.8252527758,
				"element": "H" 
			},
			{
				"x": -2.1911271765,
				"y": -0.8101745337,
				"z": 1.0984034598,
				"element": "H" 
			},
			{
				"x": -0.5245055387,
				"y": -2.3974660261,
				"z": 1.5290146251,
				"element": "H" 
			},
			{
				"x": -0.2142648243,
				"y": -1.7160604592,
				"z": -0.0766898832,
				"element": "H" 
			},
			{
				"x": 1.0819367099,
				"y": -0.9901032507,
				"z": 2.5759094156,
				"element": "H" 
			},
			{
				"x": 1.8929153558,
				"y": -1.711335359,
				"z": 1.184054191,
				"element": "H" 
			},
			{
				"x": 2.3645354977,
				"y": -1.5464985319,
				"z": -3.6548915676,
				"element": "H" 
			},
			{
				"x": 0.9191383957,
				"y": -2.154619795,
				"z": -4.4936581184,
				"element": "H" 
			},
			{
				"x": 1.2324275266,
				"y": -2.6321419975,
				"z": -2.8169536989,
				"element": "H" 
			},
			{
				"x": 0.1903198174,
				"y": 0.3443601097,
				"z": -4.9674375459,
				"element": "H" 
			},
			{
				"x": 1.6586356379,
				"y": 0.8920263192,
				"z": -4.1261651011,
				"element": "H" 
			},
			{
				"x": 0.0578962411,
				"y": 1.4517294478,
				"z": -3.5912176582,
				"element": "H" 
			},
			{
				"x": -1.3740654551,
				"y": -1.312180788,
				"z": -3.8581352898,
				"element": "H" 
			},
			{
				"x": -1.5728680158,
				"y": -0.1566087339,
				"z": -2.5305743253,
				"element": "H" 
			},
			{
				"x": -1.0860170023,
				"y": -1.8295342233,
				"z": -2.1882199661,
				"element": "H" 
			}
		],
		 "valence_orbital": [ 
			{
				"type": "occ",
				"energy": -0.31061,
				"method": "rhf"
			},
			{
				"type": "occ",
				"energy": -0.28184,
				"method": "rhf"
			},
			{
				"type": "occ",
				"energy": -0.25336,
				"method": "rhf"
			},
			{
				"type": "occ",
				"energy": -0.22901,
				"method": "rhf"
			},
			{
				"type": "occ",
				"energy": -0.21256,
				"method": "rhf"
			},
			{
				"type": "unocc",
				"energy": 0.05934,
				"method": "rhf"
			},
			{
				"type": "unocc",
				"energy": 0.07191,
				"method": "rhf"
			},
			{
				"type": "unocc",
				"energy": 0.07694,
				"method": "rhf"
			},
			{
				"type": "unocc",
				"energy": 0.09697,
				"method": "rhf"
			},
			{
				"type": "unocc",
				"energy": 0.11003,
				"method": "rhf"
			}
		],
		"cosmo_sigma_profile": { 
			"-0.025": 0.0,
			"-0.024": 0.0,
			"-0.023": 0.0,
			"-0.022": 0.0,
			"-0.021": 0.0,
			"-0.02": 0.0,
			"-0.019": 0.0,
			"-0.018": 0.0,
			"-0.017": 0.0,
			"-0.016": 0.0,
			"-0.015": 0.0,
			"-0.014": 0.0,
			"-0.013": 0.0,
			"-0.012": 0.0,
			"-0.011": 0.0,
			"-0.01": 0.202737821748,
			"-0.009": 1.42006571047,
			"-0.008": 1.11712261359,
			"-0.007": 1.04168763313,
			"-0.006": 1.41780839143,
			"-0.005": 3.83634910614,
			"-0.004": 19.7225791368,
			"-0.003": 35.4817799803,
			"-0.002": 37.2289264134,
			"-0.001": 42.7719761057,
			"0.0": 41.2569007921,
			"0.001": 33.95958724,
			"0.002": 11.8642648317,
			"0.003": 5.30599441902,
			"0.004": 5.28114032295,
			"0.005": 2.21017304578,
			"0.006": 3.6611303005,
			"0.007": 2.49076546927,
			"0.008": 2.32384850925,
			"0.009": 2.37154054104,
			"0.01": 2.4703466944,
			"0.011": 2.36552597893,
			"0.012": 1.75315937309,
			"0.013": 3.21277895475,
			"0.014": 1.73229612822,
			"0.015": 0.392744154004,
			"0.016": 0.710159516257,
			"0.017": 0.423778223009,
			"0.018": 0.448637336261,
			"0.019": 0.256509122807,
			"0.02": 0.0,
			"0.021": 0.0,
			"0.022": 0.0,
			"0.023": 0.0,
			"0.024": 0.0,
			"0.025": 0.0
		}
	}
}
