{
	 "smiles": "CC(C)N1C=C(Br)C=C1C(O)=O", 
	 "Tm": 422.15, 
	 "num_atms": 22, 
	 "gaussian": { 
		 "optdone": 1, 
		 "sigma_profile": "yes", 
		 "theory": "DFT", 
		 "functional": "B3LYP", 
		 "basiset": "6-31G**", 
		 "properties": { 
			 "R2extent": 4501.9615, 
			 "electric_dipole_moment_norm": 4.55876573757, 
			 "electric_quadrupole_moment_norm": 2.96847694955, 
			 "total_energy": -3087.4941971, 
			 "HOMO_LUMO_gap": 0.18987, 
			 "cosmo_polarized_energy": -10.91, 
			 "cosmo_cavitation_energy": 27.9, 
			 "cosmo_dispersion_energy": -20.33, 
			 "cosmo_repulsion_energy": 1.64, 
			 "cosmo_total_nonelectrostatic_energy": 9.21, 
			 "SMD_solvation_energy": 5.11 
		},
		"coords": [
			{
				"x": 2.203610883,
				"y": 1.9442333001,
				"z": 1.2756156586,
				"element": "C" 
			},
			{
				"x": 1.5116725143,
				"y": 0.9476166335,
				"z": 0.3411790757,
				"element": "C" 
			},
			{
				"x": 2.4558417345,
				"y": -0.1713543679,
				"z": -0.1163859696,
				"element": "C" 
			},
			{
				"x": 0.2953450742,
				"y": 0.3746242608,
				"z": 0.9682445617,
				"element": "N" 
			},
			{
				"x": 0.1775002581,
				"y": 0.1049897121,
				"z": 2.3024470842,
				"element": "C" 
			},
			{
				"x": -1.0530181896,
				"y": -0.4887991262,
				"z": 2.529040533,
				"element": "C" 
			},
			{
				"x": -1.6964938781,
				"y": -1.0339464992,
				"z": 4.2185295233,
				"element": "Br" 
			},
			{
				"x": -1.7171444323,
				"y": -0.5961509053,
				"z": 1.2995151548,
				"element": "C" 
			},
			{
				"x": -0.8670673768,
				"y": -0.0629710884,
				"z": 0.3341235383,
				"element": "C" 
			},
			{
				"x": -1.2130033053,
				"y": -0.0182575391,
				"z": -1.0852585417,
				"element": "C" 
			},
			{
				"x": -0.2404353329,
				"y": 0.4736802515,
				"z": -1.9077788817,
				"element": "O" 
			},
			{
				"x": -2.280707156,
				"y": -0.3959507907,
				"z": -1.5300238241,
				"element": "O" 
			},
			{
				"x": 1.5036946155,
				"y": 2.6984110847,
				"z": 1.6459897542,
				"element": "H" 
			},
			{
				"x": 2.9955220751,
				"y": 2.456147008,
				"z": 0.7214358065,
				"element": "H" 
			},
			{
				"x": 2.6751355207,
				"y": 1.4531191132,
				"z": 2.1327780293,
				"element": "H" 
			},
			{
				"x": 1.161195744,
				"y": 1.4890987355,
				"z": -0.5365466525,
				"element": "H" 
			},
			{
				"x": 3.3320310197,
				"y": 0.2569175521,
				"z": -0.6136660113,
				"element": "H" 
			},
			{
				"x": 2.8007636472,
				"y": -0.7635272895,
				"z": 0.7377223595,
				"element": "H" 
			},
			{
				"x": 1.953877439,
				"y": -0.8359205848,
				"z": -0.8231072718,
				"element": "H" 
			},
			{
				"x": 0.954551436,
				"y": 0.3507616179,
				"z": 3.0071452694,
				"element": "H" 
			},
			{
				"x": -2.6968254959,
				"y": -1.0026393603,
				"z": 1.1022655841,
				"element": "H" 
			},
			{
				"x": -0.6248467944,
				"y": 0.435118282,
				"z": -2.7995647797,
				"element": "H" 
			}
		],
		 "valence_orbital": [ 
			{
				"type": "occ",
				"energy": -0.31189,
				"method": "rhf"
			},
			{
				"type": "occ",
				"energy": -0.28395,
				"method": "rhf"
			},
			{
				"type": "occ",
				"energy": -0.27911,
				"method": "rhf"
			},
			{
				"type": "occ",
				"energy": -0.24552,
				"method": "rhf"
			},
			{
				"type": "occ",
				"energy": -0.22429,
				"method": "rhf"
			},
			{
				"type": "unocc",
				"energy": -0.03442,
				"method": "rhf"
			},
			{
				"type": "unocc",
				"energy": 0.01956,
				"method": "rhf"
			},
			{
				"type": "unocc",
				"energy": 0.04689,
				"method": "rhf"
			},
			{
				"type": "unocc",
				"energy": 0.07091,
				"method": "rhf"
			},
			{
				"type": "unocc",
				"energy": 0.08241,
				"method": "rhf"
			}
		],
		"cosmo_sigma_profile": { 
			"-0.025": 0.0,
			"-0.024": 0.0,
			"-0.023": 0.0,
			"-0.022": 0.0,
			"-0.021": 0.0,
			"-0.02": 0.0,
			"-0.019": 0.0562309480571,
			"-0.018": 0.585653383346,
			"-0.017": 0.974484123032,
			"-0.016": 0.944627221265,
			"-0.015": 0.48684883983,
			"-0.014": 0.622333399419,
			"-0.013": 0.167827548748,
			"-0.012": 1.26525283307,
			"-0.011": 1.00045102242,
			"-0.01": 0.573065092535,
			"-0.009": 1.35228153198,
			"-0.008": 2.821886696,
			"-0.007": 3.65645780893,
			"-0.006": 4.83151583157,
			"-0.005": 6.24029637204,
			"-0.004": 18.2886270915,
			"-0.003": 19.2094829218,
			"-0.002": 22.4205018254,
			"-0.001": 19.4764673877,
			"0.0": 22.4553914562,
			"0.001": 14.9528178372,
			"0.002": 13.0857904407,
			"0.003": 19.8330008507,
			"0.004": 20.5066974146,
			"0.005": 11.8607484495,
			"0.006": 1.95011588647,
			"0.007": 1.17101268198,
			"0.008": 0.935403293058,
			"0.009": 1.63933560709,
			"0.01": 1.71686694002,
			"0.011": 2.73179484739,
			"0.012": 5.69971212755,
			"0.013": 0.723133017006,
			"0.014": 0.0,
			"0.015": 0.0,
			"0.016": 0.0,
			"0.017": 0.0,
			"0.018": 0.0,
			"0.019": 0.0,
			"0.02": 0.0,
			"0.021": 0.0,
			"0.022": 0.0,
			"0.023": 0.0,
			"0.024": 0.0,
			"0.025": 0.0
		}
	}
}
