{
	 "smiles": "CC(C)CCC1CCC(=O)NC1=O", 
	 "Tm": 391.15, 
	 "num_atms": 30, 
	 "gaussian": { 
		 "optdone": 1, 
		 "sigma_profile": "yes", 
		 "theory": "DFT", 
		 "functional": "B3LYP", 
		 "basiset": "6-31G**", 
		 "properties": { 
			 "R2extent": 4270.7325, 
			 "electric_dipole_moment_norm": 3.22245879105, 
			 "electric_quadrupole_moment_norm": 12.2728935463, 
			 "total_energy": -596.565577988, 
			 "HOMO_LUMO_gap": 0.23287, 
			 "cosmo_polarized_energy": -12.46, 
			 "cosmo_cavitation_energy": 31.5, 
			 "cosmo_dispersion_energy": -22.51, 
			 "cosmo_repulsion_energy": 1.81, 
			 "cosmo_total_nonelectrostatic_energy": 10.81, 
			 "SMD_solvation_energy": 6.31 
		},
		"coords": [
			{
				"x": 2.6037400498,
				"y": -2.575782922,
				"z": 0.5807705937,
				"element": "C" 
			},
			{
				"x": 1.1807908361,
				"y": -2.199040801,
				"z": 1.0211567185,
				"element": "C" 
			},
			{
				"x": 0.3637987192,
				"y": -3.4605865535,
				"z": 1.3384724758,
				"element": "C" 
			},
			{
				"x": 0.4472218534,
				"y": -1.3326394759,
				"z": -0.0237393127,
				"element": "C" 
			},
			{
				"x": 1.0818169043,
				"y": 0.0424365309,
				"z": -0.2707144706,
				"element": "C" 
			},
			{
				"x": 0.3255207961,
				"y": 0.9021262965,
				"z": -1.2993489563,
				"element": "C" 
			},
			{
				"x": -1.0441801903,
				"y": 1.4109604226,
				"z": -0.8190959767,
				"element": "C" 
			},
			{
				"x": -1.7251325646,
				"y": 2.2751204901,
				"z": -1.8848518265,
				"element": "C" 
			},
			{
				"x": -0.8457316066,
				"y": 3.4124035821,
				"z": -2.367930022,
				"element": "C" 
			},
			{
				"x": -1.2658321657,
				"y": 4.4537355322,
				"z": -2.8341155679,
				"element": "O" 
			},
			{
				"x": 0.5279346055,
				"y": 3.1850719807,
				"z": -2.2615804771,
				"element": "N" 
			},
			{
				"x": 1.2024320286,
				"y": 2.0651552493,
				"z": -1.7693208865,
				"element": "C" 
			},
			{
				"x": 2.4195867875,
				"y": 2.0516372071,
				"z": -1.7571605432,
				"element": "O" 
			},
			{
				"x": 2.5825015581,
				"y": -3.1486930242,
				"z": -0.3547780101,
				"element": "H" 
			},
			{
				"x": 3.0935640251,
				"y": -3.197761109,
				"z": 1.3376533539,
				"element": "H" 
			},
			{
				"x": 3.2349318809,
				"y": -1.697046259,
				"z": 0.4194832529,
				"element": "H" 
			},
			{
				"x": 1.2580629688,
				"y": -1.6076998064,
				"z": 1.9462753467,
				"element": "H" 
			},
			{
				"x": 0.250323958,
				"y": -4.0882902828,
				"z": 0.4459400548,
				"element": "H" 
			},
			{
				"x": -0.6402581168,
				"y": -3.2092483274,
				"z": 1.6979488177,
				"element": "H" 
			},
			{
				"x": 0.8531120145,
				"y": -4.0669187354,
				"z": 2.1081807566,
				"element": "H" 
			},
			{
				"x": 0.3992701786,
				"y": -1.8870121161,
				"z": -0.9734673062,
				"element": "H" 
			},
			{
				"x": -0.5922336289,
				"y": -1.2080395402,
				"z": 0.3076244711,
				"element": "H" 
			},
			{
				"x": 1.1458146955,
				"y": 0.5966495514,
				"z": 0.6761889129,
				"element": "H" 
			},
			{
				"x": 2.1083940706,
				"y": -0.0679821043,
				"z": -0.6282112958,
				"element": "H" 
			},
			{
				"x": 0.160826302,
				"y": 0.2900303477,
				"z": -2.2021821622,
				"element": "H" 
			},
			{
				"x": -1.6894810193,
				"y": 0.5657845172,
				"z": -0.5642115093,
				"element": "H" 
			},
			{
				"x": -0.9102187419,
				"y": 1.9937139977,
				"z": 0.1015873924,
				"element": "H" 
			},
			{
				"x": -2.6602543355,
				"y": 2.7170786196,
				"z": -1.5326780748,
				"element": "H" 
			},
			{
				"x": -1.9755627994,
				"y": 1.6651691941,
				"z": -2.764170315,
				"element": "H" 
			},
			{
				"x": 1.1234409365,
				"y": 3.9390675381,
				"z": -2.5899254342,
				"element": "H" 
			}
		],
		 "valence_orbital": [ 
			{
				"type": "occ",
				"energy": -0.3201,
				"method": "rhf"
			},
			{
				"type": "occ",
				"energy": -0.31883,
				"method": "rhf"
			},
			{
				"type": "occ",
				"energy": -0.28567,
				"method": "rhf"
			},
			{
				"type": "occ",
				"energy": -0.28014,
				"method": "rhf"
			},
			{
				"type": "occ",
				"energy": -0.25974,
				"method": "rhf"
			},
			{
				"type": "unocc",
				"energy": -0.02687,
				"method": "rhf"
			},
			{
				"type": "unocc",
				"energy": 0.02719,
				"method": "rhf"
			},
			{
				"type": "unocc",
				"energy": 0.07977,
				"method": "rhf"
			},
			{
				"type": "unocc",
				"energy": 0.0865,
				"method": "rhf"
			},
			{
				"type": "unocc",
				"energy": 0.10034,
				"method": "rhf"
			}
		],
		"cosmo_sigma_profile": { 
			"-0.025": 0.0,
			"-0.024": 0.0,
			"-0.023": 0.0,
			"-0.022": 0.0,
			"-0.021": 0.0,
			"-0.02": 0.0,
			"-0.019": 0.0,
			"-0.018": 0.0,
			"-0.017": 0.0,
			"-0.016": 0.0,
			"-0.015": 0.505611133187,
			"-0.014": 0.805533487211,
			"-0.013": 0.915328311065,
			"-0.012": 0.582526107124,
			"-0.011": 0.42679803787,
			"-0.01": 1.08345458637,
			"-0.009": 0.791589725921,
			"-0.008": 1.75887219864,
			"-0.007": 4.88578744912,
			"-0.006": 8.73390008166,
			"-0.005": 11.9226933986,
			"-0.004": 15.7947499133,
			"-0.003": 20.9363217812,
			"-0.002": 33.3736961178,
			"-0.001": 35.8064997555,
			"0.0": 25.700688465,
			"0.001": 21.3239018529,
			"0.002": 14.9493754892,
			"0.003": 3.38544083927,
			"0.004": 2.36763296028,
			"0.005": 2.99048043231,
			"0.006": 2.08418668707,
			"0.007": 2.8875237753,
			"0.008": 3.24706912574,
			"0.009": 2.40074971183,
			"0.01": 4.34338184138,
			"0.011": 5.4547918603,
			"0.012": 10.5782666704,
			"0.013": 3.78896073432,
			"0.014": 0.139343976246,
			"0.015": 0.0,
			"0.016": 0.0,
			"0.017": 0.0,
			"0.018": 0.0,
			"0.019": 0.0,
			"0.02": 0.0,
			"0.021": 0.0,
			"0.022": 0.0,
			"0.023": 0.0,
			"0.024": 0.0,
			"0.025": 0.0
		}
	}
}
