{
	 "smiles": "CC1CCC2=CC3=C(CCC(C)N3)C=C2N1", 
	 "Tm": 403.15, 
	 "num_atms": 36, 
	 "gaussian": { 
		 "optdone": 1, 
		 "sigma_profile": "yes", 
		 "theory": "DFT", 
		 "functional": "B3LYP", 
		 "basiset": "6-31G**", 
		 "properties": { 
			 "R2extent": 4865.8944, 
			 "electric_dipole_moment_norm": 1.43873537873, 
			 "electric_quadrupole_moment_norm": 8.54944288887, 
			 "total_energy": -655.078383505, 
			 "HOMO_LUMO_gap": 0.16806, 
			 "cosmo_polarized_energy": -8.75, 
			 "cosmo_cavitation_energy": 35.13, 
			 "cosmo_dispersion_energy": -26.02, 
			 "cosmo_repulsion_energy": 2.02, 
			 "cosmo_total_nonelectrostatic_energy": 11.12, 
			 "SMD_solvation_energy": 2.98 
		},
		"coords": [
			{
				"x": 2.0917847117,
				"y": -3.9084187191,
				"z": -0.185382216,
				"element": "C" 
			},
			{
				"x": 2.9225336414,
				"y": -2.8621858318,
				"z": 0.5803889054,
				"element": "C" 
			},
			{
				"x": 3.7298687794,
				"y": -1.9378643949,
				"z": -0.3462857366,
				"element": "C" 
			},
			{
				"x": 2.8111040831,
				"y": -1.041030643,
				"z": -1.188631159,
				"element": "C" 
			},
			{
				"x": 1.7143670914,
				"y": -0.4105594955,
				"z": -0.3523341939,
				"element": "C" 
			},
			{
				"x": 1.0049516865,
				"y": 0.6970377533,
				"z": -0.8186505873,
				"element": "C" 
			},
			{
				"x": -0.0395006185,
				"y": 1.283784237,
				"z": -0.0926100531,
				"element": "C" 
			},
			{
				"x": -0.3820946402,
				"y": 0.7340521596,
				"z": 1.1591781314,
				"element": "C" 
			},
			{
				"x": -1.5281138059,
				"y": 1.3199622664,
				"z": 1.9624722356,
				"element": "C" 
			},
			{
				"x": -1.8942262967,
				"y": 2.73520323,
				"z": 1.4949779694,
				"element": "C" 
			},
			{
				"x": -1.9929003805,
				"y": 2.7944113584,
				"z": -0.0344260388,
				"element": "C" 
			},
			{
				"x": -2.3914741988,
				"y": 4.1800838114,
				"z": -0.5411934559,
				"element": "C" 
			},
			{
				"x": -0.6867631819,
				"y": 2.435014623,
				"z": -0.5827807267,
				"element": "N" 
			},
			{
				"x": 0.3380419539,
				"y": -0.3621129971,
				"z": 1.6337287699,
				"element": "C" 
			},
			{
				"x": 1.3818896165,
				"y": -0.9516408329,
				"z": 0.9065817646,
				"element": "C" 
			},
			{
				"x": 2.1168930251,
				"y": -2.0159045678,
				"z": 1.4612271954,
				"element": "N" 
			},
			{
				"x": 1.3300342554,
				"y": -3.4340863784,
				"z": -0.8114684343,
				"element": "H" 
			},
			{
				"x": 1.5767267037,
				"y": -4.5770465445,
				"z": 0.5135782611,
				"element": "H" 
			},
			{
				"x": 2.7304284909,
				"y": -4.5257982272,
				"z": -0.8277750091,
				"element": "H" 
			},
			{
				"x": 3.6325861965,
				"y": -3.3996506223,
				"z": 1.2228258399,
				"element": "H" 
			},
			{
				"x": 4.3795408923,
				"y": -2.5369622996,
				"z": -0.9936899631,
				"element": "H" 
			},
			{
				"x": 4.3770570149,
				"y": -1.3138116153,
				"z": 0.2802051183,
				"element": "H" 
			},
			{
				"x": 2.3633601522,
				"y": -1.6313391743,
				"z": -2.0011061858,
				"element": "H" 
			},
			{
				"x": 3.4035227984,
				"y": -0.260910641,
				"z": -1.6816811393,
				"element": "H" 
			},
			{
				"x": 1.2765784402,
				"y": 1.121787912,
				"z": -1.7845172686,
				"element": "H" 
			},
			{
				"x": -1.2734161165,
				"y": 1.3284904858,
				"z": 3.0291865974,
				"element": "H" 
			},
			{
				"x": -2.4107810755,
				"y": 0.6704390013,
				"z": 1.8690484838,
				"element": "H" 
			},
			{
				"x": -2.8448170165,
				"y": 3.0503353492,
				"z": 1.9396856577,
				"element": "H" 
			},
			{
				"x": -1.1263873594,
				"y": 3.4498493563,
				"z": 1.8164246559,
				"element": "H" 
			},
			{
				"x": -2.7703165665,
				"y": 2.0708644559,
				"z": -0.3483466873,
				"element": "H" 
			},
			{
				"x": -1.6640214056,
				"y": 4.9308926922,
				"z": -0.2165744537,
				"element": "H" 
			},
			{
				"x": -3.379710657,
				"y": 4.4608939904,
				"z": -0.163242664,
				"element": "H" 
			},
			{
				"x": -2.4365790787,
				"y": 4.2037008619,
				"z": -1.6365474898,
				"element": "H" 
			},
			{
				"x": -0.6447708497,
				"y": 2.5106163708,
				"z": -1.5918865989,
				"element": "H" 
			},
			{
				"x": 0.080565998,
				"y": -0.7735753654,
				"z": 2.6091517529,
				"element": "H" 
			},
			{
				"x": 1.599437716,
				"y": -2.5347215645,
				"z": 2.1596687226,
				"element": "H" 
			}
		],
		 "valence_orbital": [ 
			{
				"type": "occ",
				"energy": -0.30253,
				"method": "rhf"
			},
			{
				"type": "occ",
				"energy": -0.2937,
				"method": "rhf"
			},
			{
				"type": "occ",
				"energy": -0.22993,
				"method": "rhf"
			},
			{
				"type": "occ",
				"energy": -0.21817,
				"method": "rhf"
			},
			{
				"type": "occ",
				"energy": -0.15555,
				"method": "rhf"
			},
			{
				"type": "unocc",
				"energy": 0.01251,
				"method": "rhf"
			},
			{
				"type": "unocc",
				"energy": 0.04452,
				"method": "rhf"
			},
			{
				"type": "unocc",
				"energy": 0.08215,
				"method": "rhf"
			},
			{
				"type": "unocc",
				"energy": 0.09054,
				"method": "rhf"
			},
			{
				"type": "unocc",
				"energy": 0.11037,
				"method": "rhf"
			}
		],
		"cosmo_sigma_profile": { 
			"-0.025": 0.0,
			"-0.024": 0.0,
			"-0.023": 0.0,
			"-0.022": 0.0,
			"-0.021": 0.0,
			"-0.02": 0.0,
			"-0.019": 0.0,
			"-0.018": 0.0,
			"-0.017": 0.0,
			"-0.016": 0.0,
			"-0.015": 0.0,
			"-0.014": 0.0,
			"-0.013": 0.0,
			"-0.012": 0.0,
			"-0.011": 1.28203732144,
			"-0.01": 2.64250589439,
			"-0.009": 2.04779671633,
			"-0.008": 3.10108480774,
			"-0.007": 2.92923675701,
			"-0.006": 3.48932716819,
			"-0.005": 4.78995550176,
			"-0.004": 8.26438961138,
			"-0.003": 27.6574786079,
			"-0.002": 45.6118332492,
			"-0.001": 41.7894209551,
			"0.0": 38.1297443076,
			"0.001": 27.9785280414,
			"0.002": 11.4044582758,
			"0.003": 6.62085828772,
			"0.004": 6.47604400652,
			"0.005": 5.11463349485,
			"0.006": 6.78435937593,
			"0.007": 6.64818555478,
			"0.008": 8.86378033673,
			"0.009": 4.11310110987,
			"0.01": 1.88213645334,
			"0.011": 1.09264526459,
			"0.012": 1.26934805893,
			"0.013": 1.11714432312,
			"0.014": 0.997049350556,
			"0.015": 0.164102001858,
			"0.016": 0.0,
			"0.017": 0.0,
			"0.018": 0.0,
			"0.019": 0.0,
			"0.02": 0.0,
			"0.021": 0.0,
			"0.022": 0.0,
			"0.023": 0.0,
			"0.024": 0.0,
			"0.025": 0.0
		}
	}
}
