{
	 "smiles": "CCC(C1CCCCC1)C(=NNC1=CC=C(C=C1[N+]([O-])=O)[N+]([O-])=O)C1=CC=C(OC)C=C1", 
	 "Tm": 473.15, 
	 "num_atms": 60, 
	 "gaussian": { 
		 "optdone": 1, 
		 "sigma_profile": "yes", 
		 "theory": "DFT", 
		 "functional": "B3LYP", 
		 "basiset": "6-31G**", 
		 "properties": { 
			 "R2extent": 19345.5012, 
			 "electric_dipole_moment_norm": 9.13835412643, 
			 "electric_quadrupole_moment_norm": 51.822094988, 
			 "total_energy": -1488.21691153, 
			 "HOMO_LUMO_gap": 0.12798, 
			 "cosmo_polarized_energy": -16.39, 
			 "cosmo_cavitation_energy": 60.66, 
			 "cosmo_dispersion_energy": -40.13, 
			 "cosmo_repulsion_energy": 3.05, 
			 "cosmo_total_nonelectrostatic_energy": 23.59, 
			 "SMD_solvation_energy": 13.66 
		},
		"coords": [
			{
				"x": 1.8419279929,
				"y": 2.9565451733,
				"z": 0.0154092288,
				"element": "C" 
			},
			{
				"x": 2.1013074716,
				"y": 2.0007345594,
				"z": -1.1548828436,
				"element": "C" 
			},
			{
				"x": 1.7018433595,
				"y": 0.4965707407,
				"z": -1.0256563173,
				"element": "C" 
			},
			{
				"x": 2.7753341364,
				"y": -0.4084407366,
				"z": -0.3564959848,
				"element": "C" 
			},
			{
				"x": 3.0766165894,
				"y": -0.2572618913,
				"z": 1.1475448442,
				"element": "C" 
			},
			{
				"x": 4.4063110283,
				"y": -0.9665282084,
				"z": 1.5030045726,
				"element": "C" 
			},
			{
				"x": 4.6247431735,
				"y": -2.2666555217,
				"z": 0.6887040191,
				"element": "C" 
			},
			{
				"x": 3.2848341623,
				"y": -2.8688773695,
				"z": 0.2478935023,
				"element": "C" 
			},
			{
				"x": 2.5284839854,
				"y": -1.9058892227,
				"z": -0.6939402838,
				"element": "C" 
			},
			{
				"x": 0.2355806236,
				"y": 0.3213345417,
				"z": -0.5975855767,
				"element": "C" 
			},
			{
				"x": -0.6031521037,
				"y": 0.5617602154,
				"z": -1.5541835567,
				"element": "N" 
			},
			{
				"x": -1.9409177555,
				"y": 0.5116044613,
				"z": -1.2793188411,
				"element": "N" 
			},
			{
				"x": -2.8472055174,
				"y": 0.7439999489,
				"z": -2.2646950947,
				"element": "C" 
			},
			{
				"x": -2.4135312978,
				"y": 0.9817019511,
				"z": -3.5994098733,
				"element": "C" 
			},
			{
				"x": -3.3093604563,
				"y": 1.2160818612,
				"z": -4.6161249146,
				"element": "C" 
			},
			{
				"x": -4.6887642694,
				"y": 1.2225412804,
				"z": -4.344790351,
				"element": "C" 
			},
			{
				"x": -5.1621517993,
				"y": 0.9978504361,
				"z": -3.066883408,
				"element": "C" 
			},
			{
				"x": -4.258879936,
				"y": 0.7598980347,
				"z": -2.0294104238,
				"element": "C" 
			},
			{
				"x": -4.8346109022,
				"y": 0.5365560736,
				"z": -0.713771456,
				"element": "N" 
			},
			{
				"x": -6.056481995,
				"y": 0.5814186392,
				"z": -0.5910967653,
				"element": "O" 
			},
			{
				"x": -4.0673888096,
				"y": 0.3072384639,
				"z": 0.2405940595,
				"element": "O" 
			},
			{
				"x": -5.6366035561,
				"y": 1.4697673448,
				"z": -5.4257555596,
				"element": "N" 
			},
			{
				"x": -5.1735819395,
				"y": 1.6666795924,
				"z": -6.5519010041,
				"element": "O" 
			},
			{
				"x": -6.8376596081,
				"y": 1.4676436451,
				"z": -5.1516396455,
				"element": "O" 
			},
			{
				"x": -0.2117030778,
				"y": -0.1236607603,
				"z": 0.7627083881,
				"element": "C" 
			},
			{
				"x": -0.1137533573,
				"y": 0.6779836142,
				"z": 1.9061863511,
				"element": "C" 
			},
			{
				"x": -0.5661852056,
				"y": 0.2342894301,
				"z": 3.1506958992,
				"element": "C" 
			},
			{
				"x": -1.1297276058,
				"y": -1.0416341147,
				"z": 3.2735066992,
				"element": "C" 
			},
			{
				"x": -1.5931097968,
				"y": -1.5776110644,
				"z": 4.4329095035,
				"element": "O" 
			},
			{
				"x": -1.5411488017,
				"y": -0.7875734887,
				"z": 5.6130830309,
				"element": "C" 
			},
			{
				"x": -1.2423036376,
				"y": -1.8566088599,
				"z": 2.1361255434,
				"element": "C" 
			},
			{
				"x": -0.7994013527,
				"y": -1.398430855,
				"z": 0.9043016472,
				"element": "C" 
			},
			{
				"x": 2.3510159512,
				"y": 2.6573769065,
				"z": 0.9356895847,
				"element": "H" 
			},
			{
				"x": 0.7714411487,
				"y": 3.0446286834,
				"z": 0.2281833455,
				"element": "H" 
			},
			{
				"x": 2.1983557699,
				"y": 3.9597231888,
				"z": -0.2414042886,
				"element": "H" 
			},
			{
				"x": 1.5609988303,
				"y": 2.3930453756,
				"z": -2.0236637665,
				"element": "H" 
			},
			{
				"x": 3.1664467345,
				"y": 2.0314510941,
				"z": -1.4175396419,
				"element": "H" 
			},
			{
				"x": 1.6904483913,
				"y": 0.1529460885,
				"z": -2.0682677502,
				"element": "H" 
			},
			{
				"x": 3.7031939886,
				"y": -0.118327218,
				"z": -0.8715382618,
				"element": "H" 
			},
			{
				"x": 2.2620131354,
				"y": -0.6873499393,
				"z": 1.7365668915,
				"element": "H" 
			},
			{
				"x": 3.1418526479,
				"y": 0.7952656388,
				"z": 1.4379901445,
				"element": "H" 
			},
			{
				"x": 4.4105192103,
				"y": -1.1920271769,
				"z": 2.5759840081,
				"element": "H" 
			},
			{
				"x": 5.2471751433,
				"y": -0.2835329267,
				"z": 1.3307579709,
				"element": "H" 
			},
			{
				"x": 5.2268136365,
				"y": -2.0533725284,
				"z": -0.2042723526,
				"element": "H" 
			},
			{
				"x": 5.2009259838,
				"y": -2.9899341569,
				"z": 1.2762919869,
				"element": "H" 
			},
			{
				"x": 3.435565158,
				"y": -3.8348350267,
				"z": -0.2471573228,
				"element": "H" 
			},
			{
				"x": 2.6749157609,
				"y": -3.0738488267,
				"z": 1.1371141149,
				"element": "H" 
			},
			{
				"x": 2.8334259483,
				"y": -2.0841381516,
				"z": -1.7331833709,
				"element": "H" 
			},
			{
				"x": 1.4567046086,
				"y": -2.1295578838,
				"z": -0.6505441891,
				"element": "H" 
			},
			{
				"x": -2.3007535236,
				"y": 0.3496472887,
				"z": -0.3393790162,
				"element": "H" 
			},
			{
				"x": -1.3485185322,
				"y": 0.971832944,
				"z": -3.7850814205,
				"element": "H" 
			},
			{
				"x": -2.972026222,
				"y": 1.3960733041,
				"z": -5.6294254517,
				"element": "H" 
			},
			{
				"x": -6.2233923634,
				"y": 1.0048095609,
				"z": -2.8604662792,
				"element": "H" 
			},
			{
				"x": 0.3229802906,
				"y": 1.6670054836,
				"z": 1.837618842,
				"element": "H" 
			},
			{
				"x": -0.4757975041,
				"y": 0.8893997005,
				"z": 4.0087621422,
				"element": "H" 
			},
			{
				"x": -1.9723050922,
				"y": -1.4022654915,
				"z": 6.4041200443,
				"element": "H" 
			},
			{
				"x": -0.5088911582,
				"y": -0.5277239073,
				"z": 5.8796865055,
				"element": "H" 
			},
			{
				"x": -2.130082241,
				"y": 0.131947579,
				"z": 5.5079895547,
				"element": "H" 
			},
			{
				"x": -1.6878167936,
				"y": -2.8397997233,
				"z": 2.2437154631,
				"element": "H" 
			},
			{
				"x": -0.9047686495,
				"y": -2.0387677933,
				"z": 0.0332271243,
				"element": "H" 
			}
		],
		 "valence_orbital": [ 
			{
				"type": "occ",
				"energy": -0.28509,
				"method": "rhf"
			},
			{
				"type": "occ",
				"energy": -0.28375,
				"method": "rhf"
			},
			{
				"type": "occ",
				"energy": -0.27047,
				"method": "rhf"
			},
			{
				"type": "occ",
				"energy": -0.23971,
				"method": "rhf"
			},
			{
				"type": "occ",
				"energy": -0.22408,
				"method": "rhf"
			},
			{
				"type": "unocc",
				"energy": -0.0961,
				"method": "rhf"
			},
			{
				"type": "unocc",
				"energy": -0.0842,
				"method": "rhf"
			},
			{
				"type": "unocc",
				"energy": -0.03555,
				"method": "rhf"
			},
			{
				"type": "unocc",
				"energy": -0.0219,
				"method": "rhf"
			},
			{
				"type": "unocc",
				"energy": -0.01181,
				"method": "rhf"
			}
		],
		"cosmo_sigma_profile": { 
			"-0.025": 0.0,
			"-0.024": 0.0,
			"-0.023": 0.0,
			"-0.022": 0.0,
			"-0.021": 0.0,
			"-0.02": 0.0,
			"-0.019": 0.0,
			"-0.018": 0.0,
			"-0.017": 0.0,
			"-0.016": 0.0,
			"-0.015": 0.0,
			"-0.014": 0.0,
			"-0.013": 0.0,
			"-0.012": 0.0,
			"-0.011": 0.0,
			"-0.01": 0.0,
			"-0.009": 0.150949831351,
			"-0.008": 1.24801507924,
			"-0.007": 5.39058175137,
			"-0.006": 18.8539110197,
			"-0.005": 25.6183281529,
			"-0.004": 31.6413844748,
			"-0.003": 40.2246932829,
			"-0.002": 57.3776482188,
			"-0.001": 63.5659754285,
			"0.0": 57.3557389076,
			"0.001": 48.4028688096,
			"0.002": 27.4202698827,
			"0.003": 20.2468190858,
			"0.004": 13.3953548573,
			"0.005": 11.2319370081,
			"0.006": 9.94080719782,
			"0.007": 12.8005758885,
			"0.008": 15.0403399785,
			"0.009": 10.7600019402,
			"0.01": 7.00483006017,
			"0.011": 0.774187401309,
			"0.012": 0.0,
			"0.013": 0.0,
			"0.014": 0.0,
			"0.015": 0.0,
			"0.016": 0.0,
			"0.017": 0.0,
			"0.018": 0.0,
			"0.019": 0.0,
			"0.02": 0.0,
			"0.021": 0.0,
			"0.022": 0.0,
			"0.023": 0.0,
			"0.024": 0.0,
			"0.025": 0.0
		}
	}
}
