{
	 "smiles": "NC1=NN=C(CCOC2=CC=CC=C2)O1", 
	 "Tm": 416.15, 
	 "num_atms": 26, 
	 "gaussian": { 
		 "optdone": 1, 
		 "sigma_profile": "yes", 
		 "theory": "DFT", 
		 "functional": "B3LYP", 
		 "basiset": "6-31G**", 
		 "properties": { 
			 "R2extent": 4011.7681, 
			 "electric_dipole_moment_norm": 3.55764388044, 
			 "electric_quadrupole_moment_norm": 18.8422248986, 
			 "total_energy": -702.357101217, 
			 "HOMO_LUMO_gap": 0.21593, 
			 "cosmo_polarized_energy": -19.47, 
			 "cosmo_cavitation_energy": 30.94, 
			 "cosmo_dispersion_energy": -22.01, 
			 "cosmo_repulsion_energy": 1.76, 
			 "cosmo_total_nonelectrostatic_energy": 10.68, 
			 "SMD_solvation_energy": 3.73 
		},
		"coords": [
			{
				"x": -3.3968265771,
				"y": -1.0383167948,
				"z": 1.0219924008,
				"element": "N" 
			},
			{
				"x": -2.8872091599,
				"y": 0.2315637596,
				"z": 0.9952172999,
				"element": "C" 
			},
			{
				"x": -3.4434614379,
				"y": 1.3375877365,
				"z": 1.3913033106,
				"element": "N" 
			},
			{
				"x": -2.4596268203,
				"y": 2.3253580735,
				"z": 1.2232978602,
				"element": "N" 
			},
			{
				"x": -1.4151293311,
				"y": 1.7437128651,
				"z": 0.738176448,
				"element": "C" 
			},
			{
				"x": -0.0982176874,
				"y": 2.3369637073,
				"z": 0.3803086014,
				"element": "C" 
			},
			{
				"x": 0.9998800109,
				"y": 2.0822524953,
				"z": 1.4304089214,
				"element": "C" 
			},
			{
				"x": 1.2830777003,
				"y": 0.7025714202,
				"z": 1.6200536477,
				"element": "O" 
			},
			{
				"x": 2.061765665,
				"y": 0.0300971158,
				"z": 0.7154468974,
				"element": "C" 
			},
			{
				"x": 2.7203846817,
				"y": 0.6131342664,
				"z": -0.3740824285,
				"element": "C" 
			},
			{
				"x": 3.5081244097,
				"y": -0.1853819516,
				"z": -1.2103101878,
				"element": "C" 
			},
			{
				"x": 3.6457393565,
				"y": -1.5513882176,
				"z": -0.9765051178,
				"element": "C" 
			},
			{
				"x": 2.9831138228,
				"y": -2.1258083986,
				"z": 0.1139022183,
				"element": "C" 
			},
			{
				"x": 2.1964960335,
				"y": -1.3457557325,
				"z": 0.9540325443,
				"element": "C" 
			},
			{
				"x": -1.6100647294,
				"y": 0.3887047606,
				"z": 0.5613686426,
				"element": "O" 
			},
			{
				"x": -4.3990929759,
				"y": -1.0612657945,
				"z": 1.1485032408,
				"element": "H" 
			},
			{
				"x": -3.0542497639,
				"y": -1.6593740572,
				"z": 0.3021889706,
				"element": "H" 
			},
			{
				"x": -0.2458683033,
				"y": 3.4174760574,
				"z": 0.2913128554,
				"element": "H" 
			},
			{
				"x": 0.2222969962,
				"y": 1.9585086137,
				"z": -0.5958319896,
				"element": "H" 
			},
			{
				"x": 0.6595257907,
				"y": 2.436955617,
				"z": 2.4065252411,
				"element": "H" 
			},
			{
				"x": 1.9074503488,
				"y": 2.6395220054,
				"z": 1.1666669959,
				"element": "H" 
			},
			{
				"x": 2.635485226,
				"y": 1.6733968837,
				"z": -0.5818321261,
				"element": "H" 
			},
			{
				"x": 4.0154872213,
				"y": 0.2765779531,
				"z": -2.0527317305,
				"element": "H" 
			},
			{
				"x": 4.258409561,
				"y": -2.162273316,
				"z": -1.6320399966,
				"element": "H" 
			},
			{
				"x": 3.0805695278,
				"y": -3.1896432681,
				"z": 0.3117020027,
				"element": "H" 
			},
			{
				"x": 1.676540434,
				"y": -1.7735757995,
				"z": 1.8049254776,
				"element": "H" 
			}
		],
		 "valence_orbital": [ 
			{
				"type": "occ",
				"energy": -0.30753,
				"method": "rhf"
			},
			{
				"type": "occ",
				"energy": -0.26671,
				"method": "rhf"
			},
			{
				"type": "occ",
				"energy": -0.25263,
				"method": "rhf"
			},
			{
				"type": "occ",
				"energy": -0.23145,
				"method": "rhf"
			},
			{
				"type": "occ",
				"energy": -0.21995,
				"method": "rhf"
			},
			{
				"type": "unocc",
				"energy": -0.00402,
				"method": "rhf"
			},
			{
				"type": "unocc",
				"energy": 0.00895,
				"method": "rhf"
			},
			{
				"type": "unocc",
				"energy": 0.01105,
				"method": "rhf"
			},
			{
				"type": "unocc",
				"energy": 0.05286,
				"method": "rhf"
			},
			{
				"type": "unocc",
				"energy": 0.07131,
				"method": "rhf"
			}
		],
		"cosmo_sigma_profile": { 
			"-0.025": 0.0,
			"-0.024": 0.0,
			"-0.023": 0.0,
			"-0.022": 0.0,
			"-0.021": 0.0,
			"-0.02": 0.0,
			"-0.019": 0.0,
			"-0.018": 0.0,
			"-0.017": 0.0,
			"-0.016": 0.0379950735531,
			"-0.015": 1.65645656407,
			"-0.014": 2.78020737787,
			"-0.013": 2.23909187901,
			"-0.012": 2.48184811138,
			"-0.011": 2.72077475745,
			"-0.01": 2.28437065788,
			"-0.009": 1.95578458707,
			"-0.008": 2.79730970638,
			"-0.007": 7.68012844841,
			"-0.006": 17.3332307502,
			"-0.005": 19.5652639187,
			"-0.004": 19.644259101,
			"-0.003": 19.1594487083,
			"-0.002": 13.2756730938,
			"-0.001": 11.8081490276,
			"0.0": 10.0064047833,
			"0.001": 10.1562747753,
			"0.002": 10.2915997059,
			"0.003": 13.1149316981,
			"0.004": 14.0630403958,
			"0.005": 15.538925119,
			"0.006": 13.3243363368,
			"0.007": 4.38254800089,
			"0.008": 3.81200626466,
			"0.009": 4.05578647566,
			"0.01": 2.97898124098,
			"0.011": 2.68325916769,
			"0.012": 3.60570531814,
			"0.013": 3.72998595383,
			"0.014": 2.88349340578,
			"0.015": 2.43876695694,
			"0.016": 1.80363896674,
			"0.017": 0.206101466829,
			"0.018": 0.0,
			"0.019": 0.0,
			"0.02": 0.0,
			"0.021": 0.0,
			"0.022": 0.0,
			"0.023": 0.0,
			"0.024": 0.0,
			"0.025": 0.0
		}
	}
}
