{
	 "smiles": "COC1=C(NC(=O)CC2=NOC(CCl)=N2)C=CC=C1", 
	 "Tm": 369.15, 
	 "num_atms": 31, 
	 "gaussian": { 
		 "optdone": 1, 
		 "sigma_profile": "yes", 
		 "theory": "DFT", 
		 "functional": "B3LYP", 
		 "basiset": "6-31G**", 
		 "properties": { 
			 "R2extent": 6393.8479, 
			 "electric_dipole_moment_norm": 2.99907242994, 
			 "electric_quadrupole_moment_norm": 17.896584159, 
			 "total_energy": -1314.581718, 
			 "HOMO_LUMO_gap": 0.16319, 
			 "cosmo_polarized_energy": -18.84, 
			 "cosmo_cavitation_energy": 38.35, 
			 "cosmo_dispersion_energy": -25.83, 
			 "cosmo_repulsion_energy": 2.05, 
			 "cosmo_total_nonelectrostatic_energy": 14.58, 
			 "SMD_solvation_energy": 5.75 
		},
		"coords": [
			{
				"x": -1.1923340191,
				"y": -1.8146968898,
				"z": -3.1999241208,
				"element": "C" 
			},
			{
				"x": -0.092788368,
				"y": -1.4076219819,
				"z": -2.3983169453,
				"element": "O" 
			},
			{
				"x": 0.3901786898,
				"y": -0.1441455919,
				"z": -2.5531726422,
				"element": "C" 
			},
			{
				"x": 1.4309548714,
				"y": 0.2138822349,
				"z": -1.6653402708,
				"element": "C" 
			},
			{
				"x": 1.8629658281,
				"y": -0.7445213301,
				"z": -0.7133565638,
				"element": "N" 
			},
			{
				"x": 1.8184818763,
				"y": -0.6844011877,
				"z": 0.6643331947,
				"element": "C" 
			},
			{
				"x": 2.0917249886,
				"y": -1.6616154305,
				"z": 1.3426454158,
				"element": "O" 
			},
			{
				"x": 1.4305429802,
				"y": 0.641733533,
				"z": 1.325547954,
				"element": "C" 
			},
			{
				"x": -0.0444159712,
				"y": 0.9099335661,
				"z": 1.3426166576,
				"element": "C" 
			},
			{
				"x": -0.9310703551,
				"y": 0.1471709557,
				"z": 0.7514117816,
				"element": "N" 
			},
			{
				"x": -2.1506213257,
				"y": 0.7776825467,
				"z": 1.044538894,
				"element": "O" 
			},
			{
				"x": -1.8495112038,
				"y": 1.8578387844,
				"z": 1.7813610185,
				"element": "C" 
			},
			{
				"x": -2.9574257377,
				"y": 2.7306003925,
				"z": 2.2506915403,
				"element": "C" 
			},
			{
				"x": -3.5724522661,
				"y": 3.8097273261,
				"z": 0.9247511554,
				"element": "Cl" 
			},
			{
				"x": -0.5770112243,
				"y": 1.9995302646,
				"z": 2.0040076692,
				"element": "N" 
			},
			{
				"x": 2.0354397633,
				"y": 1.4643483733,
				"z": -1.7910674907,
				"element": "C" 
			},
			{
				"x": 1.5798268982,
				"y": 2.3877739734,
				"z": -2.7360040126,
				"element": "C" 
			},
			{
				"x": 0.5371058251,
				"y": 2.0382167576,
				"z": -3.5893318221,
				"element": "C" 
			},
			{
				"x": -0.0514337373,
				"y": 0.7720067015,
				"z": -3.5107839713,
				"element": "C" 
			},
			{
				"x": -1.4330431297,
				"y": -2.8304824676,
				"z": -2.8841769427,
				"element": "H" 
			},
			{
				"x": -0.9353902228,
				"y": -1.8177632275,
				"z": -4.2668790703,
				"element": "H" 
			},
			{
				"x": -2.0635727836,
				"y": -1.1688226355,
				"z": -3.0378272822,
				"element": "H" 
			},
			{
				"x": 1.892590187,
				"y": -1.7044107377,
				"z": -1.03803246,
				"element": "H" 
			},
			{
				"x": 1.9231959646,
				"y": 1.5002870446,
				"z": 0.8620790647,
				"element": "H" 
			},
			{
				"x": 1.7800390022,
				"y": 0.581039239,
				"z": 2.3591957045,
				"element": "H" 
			},
			{
				"x": -2.5927106597,
				"y": 3.3724698505,
				"z": 3.0501050392,
				"element": "H" 
			},
			{
				"x": -3.8064424255,
				"y": 2.1373798027,
				"z": 2.5901489911,
				"element": "H" 
			},
			{
				"x": 2.8807522004,
				"y": 1.704192589,
				"z": -1.1536494952,
				"element": "H" 
			},
			{
				"x": 2.0522850839,
				"y": 3.3617130707,
				"z": -2.8123768131,
				"element": "H" 
			},
			{
				"x": 0.1787620209,
				"y": 2.7439875567,
				"z": -4.3327027888,
				"element": "H" 
			},
			{
				"x": -0.8554227505,
				"y": 0.5115669175,
				"z": -4.1887913886,
				"element": "H" 
			}
		],
		 "valence_orbital": [ 
			{
				"type": "occ",
				"energy": -0.29761,
				"method": "rhf"
			},
			{
				"type": "occ",
				"energy": -0.28538,
				"method": "rhf"
			},
			{
				"type": "occ",
				"energy": -0.25529,
				"method": "rhf"
			},
			{
				"type": "occ",
				"energy": -0.24364,
				"method": "rhf"
			},
			{
				"type": "occ",
				"energy": -0.21853,
				"method": "rhf"
			},
			{
				"type": "unocc",
				"energy": -0.05534,
				"method": "rhf"
			},
			{
				"type": "unocc",
				"energy": -0.0148,
				"method": "rhf"
			},
			{
				"type": "unocc",
				"energy": 0.00267,
				"method": "rhf"
			},
			{
				"type": "unocc",
				"energy": 0.01113,
				"method": "rhf"
			},
			{
				"type": "unocc",
				"energy": 0.02312,
				"method": "rhf"
			}
		],
		"cosmo_sigma_profile": { 
			"-0.025": 0.0,
			"-0.024": 0.0,
			"-0.023": 0.0,
			"-0.022": 0.0,
			"-0.021": 0.0,
			"-0.02": 0.0,
			"-0.019": 0.0,
			"-0.018": 0.0,
			"-0.017": 0.0,
			"-0.016": 0.0,
			"-0.015": 0.0,
			"-0.014": 0.0,
			"-0.013": 0.168374997033,
			"-0.012": 1.2700809821,
			"-0.011": 0.713065434332,
			"-0.01": 4.90469831364,
			"-0.009": 6.24326666565,
			"-0.008": 8.140871087,
			"-0.007": 11.3658222314,
			"-0.006": 18.8726608325,
			"-0.005": 24.6753242765,
			"-0.004": 23.6059129189,
			"-0.003": 22.2288214345,
			"-0.002": 15.2261270512,
			"-0.001": 15.7518910105,
			"0.0": 12.9465727163,
			"0.001": 15.937806436,
			"0.002": 17.91470801,
			"0.003": 18.2222836501,
			"0.004": 24.1307375712,
			"0.005": 24.2719097176,
			"0.006": 9.10319731894,
			"0.007": 4.09886621859,
			"0.008": 4.31516987509,
			"0.009": 4.11672992054,
			"0.01": 4.34647904913,
			"0.011": 4.3322555652,
			"0.012": 4.00685388429,
			"0.013": 6.16457581696,
			"0.014": 1.34809438365,
			"0.015": 0.0,
			"0.016": 0.0,
			"0.017": 0.0,
			"0.018": 0.0,
			"0.019": 0.0,
			"0.02": 0.0,
			"0.021": 0.0,
			"0.022": 0.0,
			"0.023": 0.0,
			"0.024": 0.0,
			"0.025": 0.0
		}
	}
}
