{
	 "smiles": "NC1=C(Cl)C(Br)=CN=C1", 
	 "Tm": 370.15, 
	 "num_atms": 13, 
	 "gaussian": { 
		 "optdone": 1, 
		 "sigma_profile": "yes", 
		 "theory": "DFT", 
		 "functional": "B3LYP", 
		 "basiset": "6-31G**", 
		 "properties": { 
			 "R2extent": 2253.3139, 
			 "electric_dipole_moment_norm": 3.02988619258, 
			 "electric_quadrupole_moment_norm": 11.1479604583, 
			 "total_energy": -3334.0331737, 
			 "HOMO_LUMO_gap": 0.19134, 
			 "cosmo_polarized_energy": -9.32, 
			 "cosmo_cavitation_energy": 21.12, 
			 "cosmo_dispersion_energy": -16.58, 
			 "cosmo_repulsion_energy": 1.35, 
			 "cosmo_total_nonelectrostatic_energy": 5.89, 
			 "SMD_solvation_energy": 0.94 
		},
		"coords": [
			{
				"x": 0.4756358118,
				"y": -0.7745684886,
				"z": 2.8121927475,
				"element": "N" 
			},
			{
				"x": 0.2463358407,
				"y": -0.7496121887,
				"z": 1.452204644,
				"element": "C" 
			},
			{
				"x": -0.5869079513,
				"y": 0.2108727197,
				"z": 0.8443359263,
				"element": "C" 
			},
			{
				"x": -1.2922736374,
				"y": 1.4620232226,
				"z": 1.8387210823,
				"element": "Cl" 
			},
			{
				"x": -0.8187449411,
				"y": 0.1373667922,
				"z": -0.5306476442,
				"element": "C" 
			},
			{
				"x": -1.9254556511,
				"y": 1.3880974069,
				"z": -1.4336909407,
				"element": "Br" 
			},
			{
				"x": -0.2171510769,
				"y": -0.8833231509,
				"z": -1.2703694427,
				"element": "C" 
			},
			{
				"x": 0.5793701126,
				"y": -1.7953793288,
				"z": -0.7081538787,
				"element": "N" 
			},
			{
				"x": 0.800346325,
				"y": -1.7273078112,
				"z": 0.6002453956,
				"element": "C" 
			},
			{
				"x": 1.291190342,
				"y": -1.2856011885,
				"z": 3.1163171711,
				"element": "H" 
			},
			{
				"x": 0.3129292532,
				"y": 0.0851251061,
				"z": 3.3161474539,
				"element": "H" 
			},
			{
				"x": -0.3899948011,
				"y": -0.9527623955,
				"z": -2.3398638546,
				"element": "H" 
			},
			{
				"x": 1.4528203736,
				"y": -2.4874306954,
				"z": 1.0292613403,
				"element": "H" 
			}
		],
		 "valence_orbital": [ 
			{
				"type": "occ",
				"energy": -0.32004,
				"method": "rhf"
			},
			{
				"type": "occ",
				"energy": -0.29542,
				"method": "rhf"
			},
			{
				"type": "occ",
				"energy": -0.26656,
				"method": "rhf"
			},
			{
				"type": "occ",
				"energy": -0.26134,
				"method": "rhf"
			},
			{
				"type": "occ",
				"energy": -0.22804,
				"method": "rhf"
			},
			{
				"type": "unocc",
				"energy": -0.0367,
				"method": "rhf"
			},
			{
				"type": "unocc",
				"energy": -0.01647,
				"method": "rhf"
			},
			{
				"type": "unocc",
				"energy": -0.01356,
				"method": "rhf"
			},
			{
				"type": "unocc",
				"energy": 0.04561,
				"method": "rhf"
			},
			{
				"type": "unocc",
				"energy": 0.0701,
				"method": "rhf"
			}
		],
		"cosmo_sigma_profile": { 
			"-0.025": 0.0,
			"-0.024": 0.0,
			"-0.023": 0.0,
			"-0.022": 0.0,
			"-0.021": 0.0,
			"-0.02": 0.0,
			"-0.019": 0.0,
			"-0.018": 0.0,
			"-0.017": 0.0,
			"-0.016": 0.0,
			"-0.015": 0.0390237450576,
			"-0.014": 1.2769380722,
			"-0.013": 2.0910716325,
			"-0.012": 2.35154976523,
			"-0.011": 2.80425600251,
			"-0.01": 2.58578713092,
			"-0.009": 2.4711700176,
			"-0.008": 2.97495046384,
			"-0.007": 4.65060683849,
			"-0.006": 4.54952361509,
			"-0.005": 5.88166273395,
			"-0.004": 6.17297327209,
			"-0.003": 6.31842887392,
			"-0.002": 8.5003296827,
			"-0.001": 12.3441486645,
			"0.0": 22.5154844545,
			"0.001": 19.5945048123,
			"0.002": 14.1873893327,
			"0.003": 17.5509208897,
			"0.004": 15.912003376,
			"0.005": 5.26003432528,
			"0.006": 1.55877737782,
			"0.007": 2.56865699002,
			"0.008": 1.99627998259,
			"0.009": 1.53754580283,
			"0.01": 1.57790298613,
			"0.011": 1.25344816947,
			"0.012": 1.54464716864,
			"0.013": 0.866017894499,
			"0.014": 0.951649737507,
			"0.015": 0.686905776749,
			"0.016": 0.344117187572,
			"0.017": 0.0,
			"0.018": 0.0,
			"0.019": 0.0,
			"0.02": 0.0,
			"0.021": 0.0,
			"0.022": 0.0,
			"0.023": 0.0,
			"0.024": 0.0,
			"0.025": 0.0
		}
	}
}
