{
	 "smiles": "ClC1=CC(=CC=N1)C1=CC(Cl)=NC=C1", 
	 "Tm": 514.65, 
	 "num_atms": 20, 
	 "gaussian": { 
		 "optdone": 1, 
		 "sigma_profile": "yes", 
		 "theory": "DFT", 
		 "functional": "B3LYP", 
		 "basiset": "6-31G**", 
		 "properties": { 
			 "R2extent": 4722.2541, 
			 "electric_dipole_moment_norm": 2.85627718193, 
			 "electric_quadrupole_moment_norm": 25.2136239611, 
			 "total_energy": -1414.56498756, 
			 "HOMO_LUMO_gap": 0.19255, 
			 "cosmo_polarized_energy": -11.53, 
			 "cosmo_cavitation_energy": 28.88, 
			 "cosmo_dispersion_energy": -21.5, 
			 "cosmo_repulsion_energy": 1.69, 
			 "cosmo_total_nonelectrostatic_energy": 9.07, 
			 "SMD_solvation_energy": 1.46 
		},
		"coords": [
			{
				"x": -3.1099019632,
				"y": 1.5413148511,
				"z": -1.8831663528,
				"element": "Cl" 
			},
			{
				"x": -2.2785483301,
				"y": 0.8058286632,
				"z": -0.5162122378,
				"element": "C" 
			},
			{
				"x": -0.8820172019,
				"y": 0.804154286,
				"z": -0.5156155152,
				"element": "C" 
			},
			{
				"x": -0.2266183511,
				"y": 0.2234164602,
				"z": 0.5762855944,
				"element": "C" 
			},
			{
				"x": -1.02122409,
				"y": -0.3188772041,
				"z": 1.5996577479,
				"element": "C" 
			},
			{
				"x": -2.4056069605,
				"y": -0.256410846,
				"z": 1.4818958104,
				"element": "C" 
			},
			{
				"x": -3.0382818943,
				"y": 0.2997489692,
				"z": 0.4378277668,
				"element": "N" 
			},
			{
				"x": 1.2555274365,
				"y": 0.1846443541,
				"z": 0.6464240937,
				"element": "C" 
			},
			{
				"x": 2.0265402874,
				"y": -0.0289693774,
				"z": -0.5020299997,
				"element": "C" 
			},
			{
				"x": 3.4159387033,
				"y": -0.0531538513,
				"z": -0.3631552067,
				"element": "C" 
			},
			{
				"x": 4.3921385785,
				"y": -0.328702558,
				"z": -1.8025125538,
				"element": "Cl" 
			},
			{
				"x": 4.0677881028,
				"y": 0.1104231294,
				"z": 0.7734334257,
				"element": "N" 
			},
			{
				"x": 3.3245804054,
				"y": 0.3155488993,
				"z": 1.8712672114,
				"element": "C" 
			},
			{
				"x": 1.9345242128,
				"y": 0.3599071306,
				"z": 1.8633976121,
				"element": "C" 
			},
			{
				"x": -0.3328449858,
				"y": 1.2638240111,
				"z": -1.3283032048,
				"element": "H" 
			},
			{
				"x": -0.569496872,
				"y": -0.8028262697,
				"z": 2.4586840354,
				"element": "H" 
			},
			{
				"x": -3.0452096124,
				"y": -0.6743900113,
				"z": 2.2557387762,
				"element": "H" 
			},
			{
				"x": 1.5692253306,
				"y": -0.1970513652,
				"z": -1.4694754467,
				"element": "H" 
			},
			{
				"x": 3.8764299138,
				"y": 0.4549398625,
				"z": 2.7979080333,
				"element": "H" 
			},
			{
				"x": 1.3910572901,
				"y": 0.5525308664,
				"z": 2.7819504104,
				"element": "H" 
			}
		],
		 "valence_orbital": [ 
			{
				"type": "occ",
				"energy": -0.28854,
				"method": "rhf"
			},
			{
				"type": "occ",
				"energy": -0.28834,
				"method": "rhf"
			},
			{
				"type": "occ",
				"energy": -0.2874,
				"method": "rhf"
			},
			{
				"type": "occ",
				"energy": -0.27275,
				"method": "rhf"
			},
			{
				"type": "occ",
				"energy": -0.27195,
				"method": "rhf"
			},
			{
				"type": "unocc",
				"energy": -0.0794,
				"method": "rhf"
			},
			{
				"type": "unocc",
				"energy": -0.04102,
				"method": "rhf"
			},
			{
				"type": "unocc",
				"energy": -0.03704,
				"method": "rhf"
			},
			{
				"type": "unocc",
				"energy": -0.0167,
				"method": "rhf"
			},
			{
				"type": "unocc",
				"energy": 0.02498,
				"method": "rhf"
			}
		],
		"cosmo_sigma_profile": { 
			"-0.025": 0.0,
			"-0.024": 0.0,
			"-0.023": 0.0,
			"-0.022": 0.0,
			"-0.021": 0.0,
			"-0.02": 0.0,
			"-0.019": 0.0,
			"-0.018": 0.0,
			"-0.017": 0.0,
			"-0.016": 0.0,
			"-0.015": 0.0,
			"-0.014": 0.0,
			"-0.013": 0.0,
			"-0.012": 0.0,
			"-0.011": 0.0,
			"-0.01": 0.0,
			"-0.009": 2.25543198718,
			"-0.008": 10.7661155821,
			"-0.007": 13.2566913932,
			"-0.006": 11.0779944517,
			"-0.005": 8.79584186816,
			"-0.004": 9.24493073677,
			"-0.003": 8.90921774673,
			"-0.002": 16.216660137,
			"-0.001": 27.5386376584,
			"0.0": 31.3169129397,
			"0.001": 18.3748818194,
			"0.002": 11.2577617481,
			"0.003": 16.2176825231,
			"0.004": 19.4675163635,
			"0.005": 10.9605017343,
			"0.006": 4.83642359981,
			"0.007": 3.21124622115,
			"0.008": 3.0429584099,
			"0.009": 1.9026791642,
			"0.01": 2.75798882691,
			"0.011": 1.47695650794,
			"0.012": 2.14380379092,
			"0.013": 1.63938676983,
			"0.014": 1.46309394598,
			"0.015": 0.15890207911,
			"0.016": 0.0,
			"0.017": 0.0,
			"0.018": 0.0,
			"0.019": 0.0,
			"0.02": 0.0,
			"0.021": 0.0,
			"0.022": 0.0,
			"0.023": 0.0,
			"0.024": 0.0,
			"0.025": 0.0
		}
	}
}
