{
	 "smiles": "CC1=CC=C(S1)C1=NN=C(N)O1", 
	 "Tm": 521.15, 
	 "num_atms": 19, 
	 "gaussian": { 
		 "optdone": 1, 
		 "sigma_profile": "yes", 
		 "theory": "DFT", 
		 "functional": "B3LYP", 
		 "basiset": "6-31G**", 
		 "properties": { 
			 "R2extent": 3388.5361, 
			 "electric_dipole_moment_norm": 3.83291790416, 
			 "electric_quadrupole_moment_norm": 23.8371106548, 
			 "total_energy": -908.594597174, 
			 "HOMO_LUMO_gap": 0.16069, 
			 "cosmo_polarized_energy": -15.98, 
			 "cosmo_cavitation_energy": 25.78, 
			 "cosmo_dispersion_energy": -19.7, 
			 "cosmo_repulsion_energy": 1.54, 
			 "cosmo_total_nonelectrostatic_energy": 7.62, 
			 "SMD_solvation_energy": 2.71 
		},
		"coords": [
			{
				"x": -2.138768955,
				"y": 1.7002851667,
				"z": -2.1807462441,
				"element": "C" 
			},
			{
				"x": -1.6913433843,
				"y": 0.8762948598,
				"z": -1.0109671529,
				"element": "C" 
			},
			{
				"x": -2.1739608473,
				"y": -0.337309106,
				"z": -0.5887518921,
				"element": "C" 
			},
			{
				"x": -1.5190712716,
				"y": -0.8478170246,
				"z": 0.5651176503,
				"element": "C" 
			},
			{
				"x": -0.5275192584,
				"y": -0.0140221126,
				"z": 1.0271869951,
				"element": "C" 
			},
			{
				"x": -0.3971848893,
				"y": 1.4182436863,
				"z": 0.0305838887,
				"element": "S" 
			},
			{
				"x": 0.3221746999,
				"y": -0.2300029164,
				"z": 2.1709990072,
				"element": "C" 
			},
			{
				"x": 0.3397550735,
				"y": -1.2248884804,
				"z": 3.0036475599,
				"element": "N" 
			},
			{
				"x": 1.3621530941,
				"y": -0.9702112656,
				"z": 3.9240081715,
				"element": "N" 
			},
			{
				"x": 1.8704874334,
				"y": 0.1743582537,
				"z": 3.5743018544,
				"element": "C" 
			},
			{
				"x": 2.8470365635,
				"y": 0.9021367217,
				"z": 4.1971409951,
				"element": "N" 
			},
			{
				"x": 1.2816433428,
				"y": 0.7179847142,
				"z": 2.4769870777,
				"element": "O" 
			},
			{
				"x": -1.329455466,
				"y": 1.8613629847,
				"z": -2.9020206063,
				"element": "H" 
			},
			{
				"x": -2.5036722918,
				"y": 2.6863729682,
				"z": -1.87155085,
				"element": "H" 
			},
			{
				"x": -2.9537840346,
				"y": 1.1892630564,
				"z": -2.7002980873,
				"element": "H" 
			},
			{
				"x": -2.9821878118,
				"y": -0.8521688054,
				"z": -1.0969922316,
				"element": "H" 
			},
			{
				"x": -1.7562489627,
				"y": -1.7880714759,
				"z": 1.0477722099,
				"element": "H" 
			},
			{
				"x": 3.4195172042,
				"y": 1.4723830677,
				"z": 3.5899414303,
				"element": "H" 
			},
			{
				"x": 3.3697297614,
				"y": 0.3640057075,
				"z": 4.8743402242,
				"element": "H" 
			}
		],
		 "valence_orbital": [ 
			{
				"type": "occ",
				"energy": -0.3122,
				"method": "rhf"
			},
			{
				"type": "occ",
				"energy": -0.26811,
				"method": "rhf"
			},
			{
				"type": "occ",
				"energy": -0.26419,
				"method": "rhf"
			},
			{
				"type": "occ",
				"energy": -0.25707,
				"method": "rhf"
			},
			{
				"type": "occ",
				"energy": -0.20605,
				"method": "rhf"
			},
			{
				"type": "unocc",
				"energy": -0.04536,
				"method": "rhf"
			},
			{
				"type": "unocc",
				"energy": 0.02139,
				"method": "rhf"
			},
			{
				"type": "unocc",
				"energy": 0.03356,
				"method": "rhf"
			},
			{
				"type": "unocc",
				"energy": 0.04776,
				"method": "rhf"
			},
			{
				"type": "unocc",
				"energy": 0.06522,
				"method": "rhf"
			}
		],
		"cosmo_sigma_profile": { 
			"-0.025": 0.0,
			"-0.024": 0.0,
			"-0.023": 0.0,
			"-0.022": 0.0,
			"-0.021": 0.0,
			"-0.02": 0.0,
			"-0.019": 0.0,
			"-0.018": 0.0,
			"-0.017": 0.0,
			"-0.016": 0.0217271489213,
			"-0.015": 1.97064122383,
			"-0.014": 2.93080949156,
			"-0.013": 3.06147800214,
			"-0.012": 2.27633987872,
			"-0.011": 2.70693128901,
			"-0.01": 1.48543064023,
			"-0.009": 1.76637229792,
			"-0.008": 2.03783032189,
			"-0.007": 4.16817266816,
			"-0.006": 6.73590223584,
			"-0.005": 12.13097381,
			"-0.004": 14.6458641526,
			"-0.003": 14.2260188706,
			"-0.002": 14.8355480489,
			"-0.001": 14.7534956041,
			"0.0": 12.3426810947,
			"0.001": 12.4497720701,
			"0.002": 18.9315263321,
			"0.003": 19.3326894696,
			"0.004": 14.6585567297,
			"0.005": 2.76343569687,
			"0.006": 2.62210386574,
			"0.007": 2.4500482583,
			"0.008": 2.27786919633,
			"0.009": 2.72035822833,
			"0.01": 2.13876845122,
			"0.011": 3.75732935883,
			"0.012": 3.13040671565,
			"0.013": 2.91650024469,
			"0.014": 3.37178835152,
			"0.015": 1.75135147824,
			"0.016": 1.06482393523,
			"0.017": 0.0502197182776,
			"0.018": 0.0,
			"0.019": 0.0,
			"0.02": 0.0,
			"0.021": 0.0,
			"0.022": 0.0,
			"0.023": 0.0,
			"0.024": 0.0,
			"0.025": 0.0
		}
	}
}
