{
	 "smiles": "NC1=C(C#N)C(C2=CC=CO2)=C(O1)C1=CC=CO1", 
	 "Tm": 457.15, 
	 "num_atms": 26, 
	 "gaussian": { 
		 "optdone": 1, 
		 "sigma_profile": "yes", 
		 "theory": "DFT", 
		 "functional": "B3LYP", 
		 "basiset": "6-31G**", 
		 "properties": { 
			 "R2extent": 5201.2345, 
			 "electric_dipole_moment_norm": 3.37373093474, 
			 "electric_quadrupole_moment_norm": 28.8482134537, 
			 "total_energy": -835.296993138, 
			 "HOMO_LUMO_gap": 0.13916, 
			 "cosmo_polarized_energy": -15.87, 
			 "cosmo_cavitation_energy": 32.54, 
			 "cosmo_dispersion_energy": -23.24, 
			 "cosmo_repulsion_energy": 1.76, 
			 "cosmo_total_nonelectrostatic_energy": 11.05, 
			 "SMD_solvation_energy": 8.84 
		},
		"coords": [
			{
				"x": 4.4423434269,
				"y": 2.2111764595,
				"z": -0.8096252843,
				"element": "N" 
			},
			{
				"x": 3.2513040114,
				"y": 1.5921070966,
				"z": -0.5783609253,
				"element": "C" 
			},
			{
				"x": 1.9456172388,
				"y": 2.0189457377,
				"z": -0.7035339434,
				"element": "C" 
			},
			{
				"x": 1.586466046,
				"y": 3.3373119919,
				"z": -1.0546625834,
				"element": "C" 
			},
			{
				"x": 1.3384529585,
				"y": 4.4405125013,
				"z": -1.3434418044,
				"element": "N" 
			},
			{
				"x": 1.1074394524,
				"y": 0.8668115961,
				"z": -0.3884019781,
				"element": "C" 
			},
			{
				"x": -0.334862063,
				"y": 0.9014475232,
				"z": -0.4250531856,
				"element": "C" 
			},
			{
				"x": -1.2236735583,
				"y": 1.8916736005,
				"z": -0.7716925517,
				"element": "C" 
			},
			{
				"x": -2.5319340148,
				"y": 1.3413454797,
				"z": -0.6183660294,
				"element": "C" 
			},
			{
				"x": -2.3609370082,
				"y": 0.0603707147,
				"z": -0.1912986439,
				"element": "C" 
			},
			{
				"x": -1.0332524985,
				"y": -0.2250915132,
				"z": -0.0671749869,
				"element": "O" 
			},
			{
				"x": 1.9815462326,
				"y": -0.1597314787,
				"z": -0.0866198505,
				"element": "C" 
			},
			{
				"x": 3.2942732583,
				"y": 0.3052053369,
				"z": -0.2109907665,
				"element": "O" 
			},
			{
				"x": 1.9017901624,
				"y": -1.5412078005,
				"z": 0.3134729527,
				"element": "C" 
			},
			{
				"x": 0.8922177525,
				"y": -2.4054640933,
				"z": 0.668967787,
				"element": "C" 
			},
			{
				"x": 1.514646826,
				"y": -3.6563331952,
				"z": 0.9617852569,
				"element": "C" 
			},
			{
				"x": 2.8510021471,
				"y": -3.4756626122,
				"z": 0.7710399122,
				"element": "C" 
			},
			{
				"x": 3.1074498363,
				"y": -2.1985490027,
				"z": 0.3768223067,
				"element": "O" 
			},
			{
				"x": 4.4137193879,
				"y": 3.2195404752,
				"z": -0.8586487991,
				"element": "H" 
			},
			{
				"x": 5.2455852003,
				"y": 1.8227259834,
				"z": -0.3360016192,
				"element": "H" 
			},
			{
				"x": -0.9745102119,
				"y": 2.8894472566,
				"z": -1.0985194501,
				"element": "H" 
			},
			{
				"x": -3.4731568774,
				"y": 1.8380884025,
				"z": -0.8037657005,
				"element": "H" 
			},
			{
				"x": -3.0379370943,
				"y": -0.7412778782,
				"z": 0.0589172595,
				"element": "H" 
			},
			{
				"x": -0.1556832225,
				"y": -2.1667215782,
				"z": 0.7153512004,
				"element": "H" 
			},
			{
				"x": 1.0258153636,
				"y": -4.5673992894,
				"z": 1.2755420884,
				"element": "H" 
			},
			{
				"x": 3.7129772482,
				"y": -4.1172717142,
				"z": 0.8667593386,
				"element": "H" 
			}
		],
		 "valence_orbital": [ 
			{
				"type": "occ",
				"energy": -0.28385,
				"method": "rhf"
			},
			{
				"type": "occ",
				"energy": -0.27836,
				"method": "rhf"
			},
			{
				"type": "occ",
				"energy": -0.25669,
				"method": "rhf"
			},
			{
				"type": "occ",
				"energy": -0.22854,
				"method": "rhf"
			},
			{
				"type": "occ",
				"energy": -0.18365,
				"method": "rhf"
			},
			{
				"type": "unocc",
				"energy": -0.04449,
				"method": "rhf"
			},
			{
				"type": "unocc",
				"energy": -0.00686,
				"method": "rhf"
			},
			{
				"type": "unocc",
				"energy": 0.02162,
				"method": "rhf"
			},
			{
				"type": "unocc",
				"energy": 0.0244,
				"method": "rhf"
			},
			{
				"type": "unocc",
				"energy": 0.05061,
				"method": "rhf"
			}
		],
		"cosmo_sigma_profile": { 
			"-0.025": 0.0,
			"-0.024": 0.0,
			"-0.023": 0.0,
			"-0.022": 0.0,
			"-0.021": 0.0,
			"-0.02": 0.0,
			"-0.019": 0.0,
			"-0.018": 0.0,
			"-0.017": 0.0,
			"-0.016": 0.721362466275,
			"-0.015": 2.26202981405,
			"-0.014": 2.46772002976,
			"-0.013": 2.54796454079,
			"-0.012": 2.24014632264,
			"-0.011": 2.04864830439,
			"-0.01": 1.89169557184,
			"-0.009": 5.97743869578,
			"-0.008": 6.51056221574,
			"-0.007": 8.17603820998,
			"-0.006": 7.91456510412,
			"-0.005": 9.73888558888,
			"-0.004": 13.0432638154,
			"-0.003": 12.8099085795,
			"-0.002": 13.3497739707,
			"-0.001": 15.0113731481,
			"0.0": 19.2446962688,
			"0.001": 25.8854747705,
			"0.002": 28.6287686963,
			"0.003": 20.6130536751,
			"0.004": 18.9159861819,
			"0.005": 12.8531338904,
			"0.006": 4.81962861356,
			"0.007": 5.30762180812,
			"0.008": 4.21917783911,
			"0.009": 4.7871127239,
			"0.01": 3.96484498428,
			"0.011": 2.76508988325,
			"0.012": 2.80605861967,
			"0.013": 2.43333101574,
			"0.014": 0.436864943442,
			"0.015": 0.0,
			"0.016": 0.0,
			"0.017": 0.0,
			"0.018": 0.0,
			"0.019": 0.0,
			"0.02": 0.0,
			"0.021": 0.0,
			"0.022": 0.0,
			"0.023": 0.0,
			"0.024": 0.0,
			"0.025": 0.0
		}
	}
}
