{
	 "smiles": "ClC1=NC2=C(NC1=C(C#N)C#N)C=CC=C2", 
	 "Tm": 538.15, 
	 "num_atms": 21, 
	 "gaussian": { 
		 "optdone": 1, 
		 "sigma_profile": "yes", 
		 "theory": "DFT", 
		 "functional": "B3LYP", 
		 "basiset": "6-31G**", 
		 "properties": { 
			 "R2extent": 4343.7081, 
			 "electric_dipole_moment_norm": 8.43087367774, 
			 "electric_quadrupole_moment_norm": 12.3110245654, 
			 "total_energy": -1101.32957905, 
			 "HOMO_LUMO_gap": 0.12057, 
			 "cosmo_polarized_energy": -19.78, 
			 "cosmo_cavitation_energy": 29.83, 
			 "cosmo_dispersion_energy": -21.09, 
			 "cosmo_repulsion_energy": 1.61, 
			 "cosmo_total_nonelectrostatic_energy": 10.35, 
			 "SMD_solvation_energy": 5.53 
		},
		"coords": [
			{
				"x": -2.4196546767,
				"y": -0.1851194951,
				"z": -2.4842731895,
				"element": "Cl" 
			},
			{
				"x": -1.3338343738,
				"y": -0.5020914248,
				"z": -1.160069119,
				"element": "C" 
			},
			{
				"x": -0.4968489889,
				"y": -1.4646401117,
				"z": -1.312727799,
				"element": "N" 
			},
			{
				"x": 0.3979878317,
				"y": -1.7808880064,
				"z": -0.3115433769,
				"element": "C" 
			},
			{
				"x": 0.4031619379,
				"y": -1.0476670637,
				"z": 0.8952467726,
				"element": "C" 
			},
			{
				"x": -0.515427867,
				"y": -0.0240340591,
				"z": 1.009623987,
				"element": "N" 
			},
			{
				"x": -1.4267444071,
				"y": 0.3320481078,
				"z": 0.0447828795,
				"element": "C" 
			},
			{
				"x": -2.2958997457,
				"y": 1.3951881843,
				"z": 0.306377004,
				"element": "C" 
			},
			{
				"x": -3.3067640551,
				"y": 1.9246166441,
				"z": -0.5421226759,
				"element": "C" 
			},
			{
				"x": -4.1596495992,
				"y": 2.4407370816,
				"z": -1.1450035779,
				"element": "N" 
			},
			{
				"x": -2.1558670591,
				"y": 2.027669127,
				"z": 1.575933013,
				"element": "C" 
			},
			{
				"x": -1.9527022337,
				"y": 2.4667837577,
				"z": 2.6380802838,
				"element": "N" 
			},
			{
				"x": 1.3079650579,
				"y": -1.3606530806,
				"z": 1.9187671568,
				"element": "C" 
			},
			{
				"x": 2.2013753284,
				"y": -2.4064615194,
				"z": 1.725596414,
				"element": "C" 
			},
			{
				"x": 2.2070493861,
				"y": -3.1449799657,
				"z": 0.5285397075,
				"element": "C" 
			},
			{
				"x": 1.311764863,
				"y": -2.8350151491,
				"z": -0.4837556056,
				"element": "C" 
			},
			{
				"x": -0.5284206863,
				"y": 0.5163380852,
				"z": 1.8702446661,
				"element": "H" 
			},
			{
				"x": 1.3048647706,
				"y": -0.7912535568,
				"z": 2.8438529528,
				"element": "H" 
			},
			{
				"x": 2.904949713,
				"y": -2.6543334752,
				"z": 2.5141399275,
				"element": "H" 
			},
			{
				"x": 2.9138969374,
				"y": -3.9577554363,
				"z": 0.3996093173,
				"element": "H" 
			},
			{
				"x": 1.2875978665,
				"y": -3.3826886441,
				"z": -1.4195987381,
				"element": "H" 
			}
		],
		 "valence_orbital": [ 
			{
				"type": "occ",
				"energy": -0.31805,
				"method": "rhf"
			},
			{
				"type": "occ",
				"energy": -0.31257,
				"method": "rhf"
			},
			{
				"type": "occ",
				"energy": -0.30597,
				"method": "rhf"
			},
			{
				"type": "occ",
				"energy": -0.28062,
				"method": "rhf"
			},
			{
				"type": "occ",
				"energy": -0.23382,
				"method": "rhf"
			},
			{
				"type": "unocc",
				"energy": -0.11325,
				"method": "rhf"
			},
			{
				"type": "unocc",
				"energy": -0.05695,
				"method": "rhf"
			},
			{
				"type": "unocc",
				"energy": -0.03268,
				"method": "rhf"
			},
			{
				"type": "unocc",
				"energy": -0.00933,
				"method": "rhf"
			},
			{
				"type": "unocc",
				"energy": 0.00869,
				"method": "rhf"
			}
		],
		"cosmo_sigma_profile": { 
			"-0.025": 0.0,
			"-0.024": 0.0,
			"-0.023": 0.0,
			"-0.022": 0.0,
			"-0.021": 0.0,
			"-0.02": 0.0,
			"-0.019": 0.0,
			"-0.018": 0.0,
			"-0.017": 0.281653501336,
			"-0.016": 1.1274024633,
			"-0.015": 1.03235940165,
			"-0.014": 1.63510264779,
			"-0.013": 0.499411238227,
			"-0.012": 1.1317895433,
			"-0.011": 1.35499247998,
			"-0.01": 2.22144910197,
			"-0.009": 2.57052929523,
			"-0.008": 5.58919602668,
			"-0.007": 12.4792052371,
			"-0.006": 14.8590916075,
			"-0.005": 14.7336581332,
			"-0.004": 12.27248846,
			"-0.003": 13.1990687718,
			"-0.002": 17.0133928137,
			"-0.001": 17.1906684563,
			"0.0": 16.0579108138,
			"0.001": 18.4185930105,
			"0.002": 20.6864575154,
			"0.003": 12.9192091554,
			"0.004": 6.85759741385,
			"0.005": 6.17423740327,
			"0.006": 6.07127061512,
			"0.007": 6.57524792586,
			"0.008": 6.45850562705,
			"0.009": 7.16402953918,
			"0.01": 6.21897864431,
			"0.011": 5.83959585519,
			"0.012": 4.76203272046,
			"0.013": 2.32668654759,
			"0.014": 0.208648233916,
			"0.015": 0.0,
			"0.016": 0.0,
			"0.017": 0.0,
			"0.018": 0.0,
			"0.019": 0.0,
			"0.02": 0.0,
			"0.021": 0.0,
			"0.022": 0.0,
			"0.023": 0.0,
			"0.024": 0.0,
			"0.025": 0.0
		}
	}
}
