{
	 "smiles": "COC1=CC(OC)=CC(NS(=O)(=O)C2=C(OC)C=C(N)C=C2)=C1", 
	 "Tm": 451.15, 
	 "num_atms": 41, 
	 "gaussian": { 
		 "optdone": 1, 
		 "sigma_profile": "yes", 
		 "theory": "DFT", 
		 "functional": "B3LYP", 
		 "basiset": "6-31G**", 
		 "properties": { 
			 "R2extent": 8276.0642, 
			 "electric_dipole_moment_norm": 6.91773758826, 
			 "electric_quadrupole_moment_norm": 31.198958535, 
			 "total_energy": -1466.15228071, 
			 "HOMO_LUMO_gap": 0.1884, 
			 "cosmo_polarized_energy": -24.31, 
			 "cosmo_cavitation_energy": 45.83, 
			 "cosmo_dispersion_energy": -31.17, 
			 "cosmo_repulsion_energy": 2.38, 
			 "cosmo_total_nonelectrostatic_energy": 17.04, 
			 "SMD_solvation_energy": 9.03 
		},
		"coords": [
			{
				"x": -2.0638063128,
				"y": -1.8002296873,
				"z": -3.2950386796,
				"element": "C" 
			},
			{
				"x": -0.8064081116,
				"y": -1.3593521137,
				"z": -3.7783393178,
				"element": "O" 
			},
			{
				"x": 0.1593516415,
				"y": -1.0324148902,
				"z": -2.868913517,
				"element": "C" 
			},
			{
				"x": 1.3797361531,
				"y": -0.6233313144,
				"z": -3.408416319,
				"element": "C" 
			},
			{
				"x": 2.4277145239,
				"y": -0.2665206021,
				"z": -2.5554564315,
				"element": "C" 
			},
			{
				"x": 3.5801192359,
				"y": 0.1199706628,
				"z": -3.1738753446,
				"element": "O" 
			},
			{
				"x": 4.6862843299,
				"y": 0.489906767,
				"z": -2.36317172,
				"element": "C" 
			},
			{
				"x": 2.2770122196,
				"y": -0.331020434,
				"z": -1.1641940943,
				"element": "C" 
			},
			{
				"x": 1.0416750153,
				"y": -0.7286936153,
				"z": -0.6455910907,
				"element": "C" 
			},
			{
				"x": 0.8700068356,
				"y": -0.839205845,
				"z": 0.7665505514,
				"element": "N" 
			},
			{
				"x": 1.0569931754,
				"y": 0.5057296439,
				"z": 1.7903491564,
				"element": "S" 
			},
			{
				"x": 2.3825494301,
				"y": 1.0801724268,
				"z": 1.5525248451,
				"element": "O" 
			},
			{
				"x": 0.6772027145,
				"y": 0.0059801855,
				"z": 3.1146425731,
				"element": "O" 
			},
			{
				"x": -0.14722248,
				"y": 1.7088454901,
				"z": 1.2511988534,
				"element": "C" 
			},
			{
				"x": -1.5143856645,
				"y": 1.3895625013,
				"z": 1.2215571427,
				"element": "C" 
			},
			{
				"x": -1.9235005509,
				"y": 0.1062796489,
				"z": 1.5141416603,
				"element": "O" 
			},
			{
				"x": -2.5309274568,
				"y": -0.0618127231,
				"z": 2.8078648473,
				"element": "C" 
			},
			{
				"x": -2.4455196485,
				"y": 2.3441611144,
				"z": 0.8274010046,
				"element": "C" 
			},
			{
				"x": -2.0316631536,
				"y": 3.6385439925,
				"z": 0.4609583941,
				"element": "C" 
			},
			{
				"x": -2.963902997,
				"y": 4.6023042772,
				"z": 0.1168498015,
				"element": "N" 
			},
			{
				"x": -0.6567009972,
				"y": 3.9464719278,
				"z": 0.4877309389,
				"element": "C" 
			},
			{
				"x": 0.2697494477,
				"y": 2.9882293506,
				"z": 0.8729312391,
				"element": "C" 
			},
			{
				"x": -0.0280798565,
				"y": -1.0747325069,
				"z": -1.4806518961,
				"element": "C" 
			},
			{
				"x": -1.9694697741,
				"y": -2.7082044989,
				"z": -2.6852788971,
				"element": "H" 
			},
			{
				"x": -2.6648015063,
				"y": -2.0232467798,
				"z": -4.1782562234,
				"element": "H" 
			},
			{
				"x": -2.567899339,
				"y": -1.0245062016,
				"z": -2.703640844,
				"element": "H" 
			},
			{
				"x": 1.5148216666,
				"y": -0.5860758083,
				"z": -4.4826375979,
				"element": "H" 
			},
			{
				"x": 5.4797545811,
				"y": 0.7796183478,
				"z": -3.0539819936,
				"element": "H" 
			},
			{
				"x": 4.4449750999,
				"y": 1.3377066619,
				"z": -1.7102327906,
				"element": "H" 
			},
			{
				"x": 5.0334775775,
				"y": -0.3476810029,
				"z": -1.7452661325,
				"element": "H" 
			},
			{
				"x": 3.0781420441,
				"y": -0.0860969124,
				"z": -0.4827512271,
				"element": "H" 
			},
			{
				"x": -0.0081084064,
				"y": -1.2806802409,
				"z": 1.0282786425,
				"element": "H" 
			},
			{
				"x": -3.3898069612,
				"y": 0.6084115461,
				"z": 2.926151647,
				"element": "H" 
			},
			{
				"x": -1.7949865154,
				"y": 0.1193224172,
				"z": 3.5959780731,
				"element": "H" 
			},
			{
				"x": -2.871148388,
				"y": -1.0979199394,
				"z": 2.8501951623,
				"element": "H" 
			},
			{
				"x": -3.4958754839,
				"y": 2.0697738946,
				"z": 0.7909059234,
				"element": "H" 
			},
			{
				"x": -2.625114343,
				"y": 5.3871044995,
				"z": -0.4200581216,
				"element": "H" 
			},
			{
				"x": -3.8702792375,
				"y": 4.2737451003,
				"z": -0.1819228235,
				"element": "H" 
			},
			{
				"x": -0.3230960094,
				"y": 4.9400951468,
				"z": 0.2024385161,
				"element": "H" 
			},
			{
				"x": 1.3298103234,
				"y": 3.2157566475,
				"z": 0.8886284803,
				"element": "H" 
			},
			{
				"x": -0.9794728214,
				"y": -1.349967134,
				"z": -1.0424023907,
				"element": "H" 
			}
		],
		 "valence_orbital": [ 
			{
				"type": "occ",
				"energy": -0.26838,
				"method": "rhf"
			},
			{
				"type": "occ",
				"energy": -0.2576,
				"method": "rhf"
			},
			{
				"type": "occ",
				"energy": -0.22463,
				"method": "rhf"
			},
			{
				"type": "occ",
				"energy": -0.21272,
				"method": "rhf"
			},
			{
				"type": "occ",
				"energy": -0.20881,
				"method": "rhf"
			},
			{
				"type": "unocc",
				"energy": -0.02041,
				"method": "rhf"
			},
			{
				"type": "unocc",
				"energy": -0.01589,
				"method": "rhf"
			},
			{
				"type": "unocc",
				"energy": 0.00257,
				"method": "rhf"
			},
			{
				"type": "unocc",
				"energy": 0.02512,
				"method": "rhf"
			},
			{
				"type": "unocc",
				"energy": 0.05969,
				"method": "rhf"
			}
		],
		"cosmo_sigma_profile": { 
			"-0.025": 0.0,
			"-0.024": 0.0,
			"-0.023": 0.0,
			"-0.022": 0.0,
			"-0.021": 0.0,
			"-0.02": 0.0,
			"-0.019": 0.0,
			"-0.018": 0.0,
			"-0.017": 0.0,
			"-0.016": 0.0,
			"-0.015": 0.0,
			"-0.014": 0.385711947546,
			"-0.013": 3.31098014379,
			"-0.012": 3.18161821964,
			"-0.011": 3.89068493107,
			"-0.01": 5.13128181719,
			"-0.009": 3.48294859177,
			"-0.008": 3.84140104954,
			"-0.007": 5.69121941551,
			"-0.006": 18.8997246875,
			"-0.005": 29.9681192826,
			"-0.004": 30.2919823125,
			"-0.003": 35.7147799654,
			"-0.002": 21.1928181982,
			"-0.001": 15.5104204368,
			"0.0": 16.0086072426,
			"0.001": 17.9226486955,
			"0.002": 19.0199521495,
			"0.003": 28.0431283946,
			"0.004": 31.2700414611,
			"0.005": 14.9768114883,
			"0.006": 8.76814079049,
			"0.007": 8.84638172354,
			"0.008": 8.92962615656,
			"0.009": 8.62259546439,
			"0.01": 9.39741053725,
			"0.011": 7.72173358579,
			"0.012": 3.83437084371,
			"0.013": 0.0118349027056,
			"0.014": 0.0,
			"0.015": 0.0,
			"0.016": 0.0,
			"0.017": 0.0,
			"0.018": 0.0,
			"0.019": 0.0,
			"0.02": 0.0,
			"0.021": 0.0,
			"0.022": 0.0,
			"0.023": 0.0,
			"0.024": 0.0,
			"0.025": 0.0
		}
	}
}
