{
	 "smiles": "CC(C)CCNC1=C2C=CC=CC2=C(C)N=N1", 
	 "Tm": 403.15, 
	 "num_atms": 36, 
	 "gaussian": { 
		 "optdone": 1, 
		 "sigma_profile": "yes", 
		 "theory": "DFT", 
		 "functional": "B3LYP", 
		 "basiset": "6-31G**", 
		 "properties": { 
			 "R2extent": 5383.8962, 
			 "electric_dipole_moment_norm": 3.67728047883, 
			 "electric_quadrupole_moment_norm": 11.9357895072, 
			 "total_energy": -709.185762282, 
			 "HOMO_LUMO_gap": 0.16772, 
			 "cosmo_polarized_energy": -12.43, 
			 "cosmo_cavitation_energy": 37.45, 
			 "cosmo_dispersion_energy": -26.21, 
			 "cosmo_repulsion_energy": 2.05, 
			 "cosmo_total_nonelectrostatic_energy": 13.3, 
			 "SMD_solvation_energy": 3.15 
		},
		"coords": [
			{
				"x": 0.0294593811,
				"y": 0.5170163486,
				"z": -3.7669285941,
				"element": "C" 
			},
			{
				"x": -1.3114105496,
				"y": -0.1963696137,
				"z": -3.5294965918,
				"element": "C" 
			},
			{
				"x": -2.468003999,
				"y": 0.6287104076,
				"z": -4.1138721798,
				"element": "C" 
			},
			{
				"x": -1.5706085786,
				"y": -0.4960922076,
				"z": -2.038078276,
				"element": "C" 
			},
			{
				"x": -0.5954223988,
				"y": -1.5050805283,
				"z": -1.4283312252,
				"element": "C" 
			},
			{
				"x": -0.9130211755,
				"y": -1.9027552515,
				"z": -0.028525688,
				"element": "N" 
			},
			{
				"x": -0.4811771202,
				"y": -0.9980536302,
				"z": 0.9793380304,
				"element": "C" 
			},
			{
				"x": -1.3534716573,
				"y": 0.0279255432,
				"z": 1.4727661778,
				"element": "C" 
			},
			{
				"x": -2.7047376568,
				"y": 0.1726679658,
				"z": 1.0787674012,
				"element": "C" 
			},
			{
				"x": -3.4720795867,
				"y": 1.1903356326,
				"z": 1.6080249884,
				"element": "C" 
			},
			{
				"x": -2.9190693404,
				"y": 2.0879015305,
				"z": 2.5486895503,
				"element": "C" 
			},
			{
				"x": -1.6138419421,
				"y": 1.9410312554,
				"z": 2.97359439,
				"element": "C" 
			},
			{
				"x": -0.8087138588,
				"y": 0.8971301975,
				"z": 2.4549631947,
				"element": "C" 
			},
			{
				"x": 0.5305443572,
				"y": 0.6251881631,
				"z": 2.8959265163,
				"element": "C" 
			},
			{
				"x": 1.2118930853,
				"y": 1.4784846361,
				"z": 3.9340108942,
				"element": "C" 
			},
			{
				"x": 1.2291273679,
				"y": -0.3958971199,
				"z": 2.4417031169,
				"element": "N" 
			},
			{
				"x": 0.7264902085,
				"y": -1.1989965346,
				"z": 1.4654259578,
				"element": "N" 
			},
			{
				"x": 0.8839016966,
				"y": -0.079857945,
				"z": -3.4343089744,
				"element": "H" 
			},
			{
				"x": 0.0614164359,
				"y": 1.4729114587,
				"z": -3.2295362811,
				"element": "H" 
			},
			{
				"x": 0.1730046932,
				"y": 0.7312863599,
				"z": -4.8315408497,
				"element": "H" 
			},
			{
				"x": -1.2830785409,
				"y": -1.1580811891,
				"z": -4.0644697385,
				"element": "H" 
			},
			{
				"x": -2.548818594,
				"y": 1.5999063689,
				"z": -3.6103275335,
				"element": "H" 
			},
			{
				"x": -3.4274115994,
				"y": 0.1128471022,
				"z": -3.997607162,
				"element": "H" 
			},
			{
				"x": -2.31752828,
				"y": 0.8214537351,
				"z": -5.1815721339,
				"element": "H" 
			},
			{
				"x": -1.5411170568,
				"y": 0.4471126583,
				"z": -1.4773894254,
				"element": "H" 
			},
			{
				"x": -2.5867911642,
				"y": -0.8952172582,
				"z": -1.9273762176,
				"element": "H" 
			},
			{
				"x": 0.4370072412,
				"y": -1.1312697179,
				"z": -1.4911408126,
				"element": "H" 
			},
			{
				"x": -0.6375216611,
				"y": -2.4283292831,
				"z": -2.0179646457,
				"element": "H" 
			},
			{
				"x": -0.386845066,
				"y": -2.7564417172,
				"z": 0.1478550792,
				"element": "H" 
			},
			{
				"x": -3.1202146837,
				"y": -0.5400726904,
				"z": 0.3770489721,
				"element": "H" 
			},
			{
				"x": -4.5105452418,
				"y": 1.2988898635,
				"z": 1.3090140553,
				"element": "H" 
			},
			{
				"x": -3.5330569205,
				"y": 2.8878765048,
				"z": 2.9522698211,
				"element": "H" 
			},
			{
				"x": -1.2032663679,
				"y": 2.6189133104,
				"z": 3.7142731065,
				"element": "H" 
			},
			{
				"x": 0.6578588624,
				"y": 1.4822253166,
				"z": 4.8798521919,
				"element": "H" 
			},
			{
				"x": 2.2111877397,
				"y": 1.0804706287,
				"z": 4.1145134469,
				"element": "H" 
			},
			{
				"x": 1.3005619711,
				"y": 2.519829699,
				"z": 3.6029294384,
				"element": "H" 
			}
		],
		 "valence_orbital": [ 
			{
				"type": "occ",
				"energy": -0.29144,
				"method": "rhf"
			},
			{
				"type": "occ",
				"energy": -0.27259,
				"method": "rhf"
			},
			{
				"type": "occ",
				"energy": -0.25261,
				"method": "rhf"
			},
			{
				"type": "occ",
				"energy": -0.22882,
				"method": "rhf"
			},
			{
				"type": "occ",
				"energy": -0.222,
				"method": "rhf"
			},
			{
				"type": "unocc",
				"energy": -0.05428,
				"method": "rhf"
			},
			{
				"type": "unocc",
				"energy": -0.03708,
				"method": "rhf"
			},
			{
				"type": "unocc",
				"energy": 0.02349,
				"method": "rhf"
			},
			{
				"type": "unocc",
				"energy": 0.07011,
				"method": "rhf"
			},
			{
				"type": "unocc",
				"energy": 0.08513,
				"method": "rhf"
			}
		],
		"cosmo_sigma_profile": { 
			"-0.025": 0.0,
			"-0.024": 0.0,
			"-0.023": 0.0,
			"-0.022": 0.0,
			"-0.021": 0.0,
			"-0.02": 0.0,
			"-0.019": 0.0,
			"-0.018": 0.0,
			"-0.017": 0.0,
			"-0.016": 0.0,
			"-0.015": 0.0,
			"-0.014": 0.0,
			"-0.013": 0.0,
			"-0.012": 0.00217554869016,
			"-0.011": 0.472156750853,
			"-0.01": 0.899780043255,
			"-0.009": 1.05391296758,
			"-0.008": 0.726039088136,
			"-0.007": 4.26162638689,
			"-0.006": 9.7369951758,
			"-0.005": 16.6664100529,
			"-0.004": 17.2951249289,
			"-0.003": 21.4846772674,
			"-0.002": 39.462597582,
			"-0.001": 40.1213495862,
			"0.0": 37.6920959207,
			"0.001": 30.46235021,
			"0.002": 25.1357468835,
			"0.003": 13.9414694818,
			"0.004": 4.41262320464,
			"0.005": 3.08797913798,
			"0.006": 3.19435065883,
			"0.007": 2.67705294443,
			"0.008": 2.26887711316,
			"0.009": 2.08861268099,
			"0.01": 1.92285884282,
			"0.011": 2.97069323217,
			"0.012": 1.81561177364,
			"0.013": 1.94468977191,
			"0.014": 2.56156951771,
			"0.015": 2.90914580844,
			"0.016": 1.88808799985,
			"0.017": 0.845690570822,
			"0.018": 0.0,
			"0.019": 0.0,
			"0.02": 0.0,
			"0.021": 0.0,
			"0.022": 0.0,
			"0.023": 0.0,
			"0.024": 0.0,
			"0.025": 0.0
		}
	}
}
