{
	 "smiles": "OC(=O)C1=CC=C(C=C1)S(=O)(=O)CCCC#N", 
	 "Tm": 469.15, 
	 "num_atms": 28, 
	 "gaussian": { 
		 "optdone": 1, 
		 "sigma_profile": "yes", 
		 "theory": "DFT", 
		 "functional": "B3LYP", 
		 "basiset": "6-31G**", 
		 "properties": { 
			 "R2extent": 5849.9934, 
			 "electric_dipole_moment_norm": 4.43695560604, 
			 "electric_quadrupole_moment_norm": 24.9307207589, 
			 "total_energy": -1179.55950208, 
			 "HOMO_LUMO_gap": 0.20153, 
			 "cosmo_polarized_energy": -30.12, 
			 "cosmo_cavitation_energy": 34.77, 
			 "cosmo_dispersion_energy": -23.73, 
			 "cosmo_repulsion_energy": 1.81, 
			 "cosmo_total_nonelectrostatic_energy": 12.85, 
			 "SMD_solvation_energy": 7.44 
		},
		"coords": [
			{
				"x": 1.7511373261,
				"y": -2.6942118136,
				"z": -1.871016289,
				"element": "O" 
			},
			{
				"x": 1.1324431602,
				"y": -2.4098494314,
				"z": -0.6964242065,
				"element": "C" 
			},
			{
				"x": 0.6275458448,
				"y": -3.2903638099,
				"z": -0.0435614543,
				"element": "O" 
			},
			{
				"x": 1.1128150056,
				"y": -0.9667397472,
				"z": -0.271828475,
				"element": "C" 
			},
			{
				"x": 0.9164624749,
				"y": -0.6974099567,
				"z": 1.0902963363,
				"element": "C" 
			},
			{
				"x": 0.891835052,
				"y": 0.6150655808,
				"z": 1.5504581035,
				"element": "C" 
			},
			{
				"x": 1.026037173,
				"y": 1.6599403179,
				"z": 0.6312778945,
				"element": "C" 
			},
			{
				"x": 1.2056632599,
				"y": 1.4138918293,
				"z": -0.7296307646,
				"element": "C" 
			},
			{
				"x": 1.2509811736,
				"y": 0.0935894531,
				"z": -1.1776630839,
				"element": "C" 
			},
			{
				"x": 1.0504554579,
				"y": 3.3708955777,
				"z": 1.2132770141,
				"element": "S" 
			},
			{
				"x": 1.3376285638,
				"y": 4.2220945382,
				"z": 0.0445871651,
				"element": "O" 
			},
			{
				"x": 1.8941386291,
				"y": 3.4081768427,
				"z": 2.4170320988,
				"element": "O" 
			},
			{
				"x": -0.6480633243,
				"y": 3.7504741241,
				"z": 1.7778647757,
				"element": "C" 
			},
			{
				"x": -1.6426266476,
				"y": 4.1303826958,
				"z": 0.6805367764,
				"element": "C" 
			},
			{
				"x": -2.2205014514,
				"y": 2.9523816089,
				"z": -0.1351002904,
				"element": "C" 
			},
			{
				"x": -2.879129532,
				"y": 1.9534649387,
				"z": 0.7117903832,
				"element": "C" 
			},
			{
				"x": -3.3801315464,
				"y": 1.1788676768,
				"z": 1.4164401182,
				"element": "N" 
			},
			{
				"x": 2.2546202621,
				"y": -1.9305462304,
				"z": -2.1853619947,
				"element": "H" 
			},
			{
				"x": 0.7943431461,
				"y": -1.5320677871,
				"z": 1.7716085431,
				"element": "H" 
			},
			{
				"x": 0.785235801,
				"y": 0.8249693974,
				"z": 2.609639841,
				"element": "H" 
			},
			{
				"x": 1.3199658238,
				"y": 2.2482006393,
				"z": -1.4133717703,
				"element": "H" 
			},
			{
				"x": 1.3619369391,
				"y": -0.093956249,
				"z": -2.2425394041,
				"element": "H" 
			},
			{
				"x": -0.9852146696,
				"y": 2.9087734438,
				"z": 2.3900485888,
				"element": "H" 
			},
			{
				"x": -0.4689206638,
				"y": 4.5984069237,
				"z": 2.446021065,
				"element": "H" 
			},
			{
				"x": -2.4710940673,
				"y": 4.6623913587,
				"z": 1.1600425707,
				"element": "H" 
			},
			{
				"x": -1.1640717167,
				"y": 4.8304470638,
				"z": -0.0103950125,
				"element": "H" 
			},
			{
				"x": -1.4368100722,
				"y": 2.4516580884,
				"z": -0.7127169723,
				"element": "H" 
			},
			{
				"x": -2.9502814019,
				"y": 3.3336729262,
				"z": -0.8576115568,
				"element": "H" 
			}
		],
		 "valence_orbital": [ 
			{
				"type": "occ",
				"energy": -0.31607,
				"method": "rhf"
			},
			{
				"type": "occ",
				"energy": -0.30389,
				"method": "rhf"
			},
			{
				"type": "occ",
				"energy": -0.29888,
				"method": "rhf"
			},
			{
				"type": "occ",
				"energy": -0.29666,
				"method": "rhf"
			},
			{
				"type": "occ",
				"energy": -0.28584,
				"method": "rhf"
			},
			{
				"type": "unocc",
				"energy": -0.08431,
				"method": "rhf"
			},
			{
				"type": "unocc",
				"energy": -0.04966,
				"method": "rhf"
			},
			{
				"type": "unocc",
				"energy": 0.01125,
				"method": "rhf"
			},
			{
				"type": "unocc",
				"energy": 0.01552,
				"method": "rhf"
			},
			{
				"type": "unocc",
				"energy": 0.02384,
				"method": "rhf"
			}
		],
		"cosmo_sigma_profile": { 
			"-0.025": 0.0,
			"-0.024": 0.0,
			"-0.023": 0.0,
			"-0.022": 0.0,
			"-0.021": 0.0,
			"-0.02": 0.0,
			"-0.019": 0.705818624486,
			"-0.018": 1.13278844359,
			"-0.017": 1.10544279948,
			"-0.016": 0.814097614753,
			"-0.015": 0.948253470057,
			"-0.014": 1.29519785753,
			"-0.013": 1.30266509478,
			"-0.012": 1.33500664363,
			"-0.011": 1.32306588451,
			"-0.01": 1.97444719865,
			"-0.009": 6.96773185149,
			"-0.008": 12.8716131348,
			"-0.007": 20.1510079071,
			"-0.006": 22.8271806072,
			"-0.005": 19.469039545,
			"-0.004": 15.0358631741,
			"-0.003": 12.6137901199,
			"-0.002": 11.5531934161,
			"-0.001": 12.5067262481,
			"0.0": 14.935513617,
			"0.001": 13.549029083,
			"0.002": 8.31853506062,
			"0.003": 6.12380811361,
			"0.004": 5.98119711612,
			"0.005": 6.44524144319,
			"0.006": 6.6572508747,
			"0.007": 7.91047499131,
			"0.008": 8.55513919707,
			"0.009": 10.2939942205,
			"0.01": 14.4347148382,
			"0.011": 16.6418104627,
			"0.012": 10.0691639298,
			"0.013": 2.1971856688,
			"0.014": 0.215437317117,
			"0.015": 0.0,
			"0.016": 0.0,
			"0.017": 0.0,
			"0.018": 0.0,
			"0.019": 0.0,
			"0.02": 0.0,
			"0.021": 0.0,
			"0.022": 0.0,
			"0.023": 0.0,
			"0.024": 0.0,
			"0.025": 0.0
		}
	}
}
