{
	 "smiles": "CC1=CC=C(S1)C1=CSC(NCCCC(O)=O)=N1", 
	 "Tm": 384.15, 
	 "num_atms": 32, 
	 "gaussian": { 
		 "optdone": 1, 
		 "sigma_profile": "yes", 
		 "theory": "DFT", 
		 "functional": "B3LYP", 
		 "basiset": "6-31G**", 
		 "properties": { 
			 "R2extent": 7849.6885, 
			 "electric_dipole_moment_norm": 0.761397754134, 
			 "electric_quadrupole_moment_norm": 11.8781248297, 
			 "total_energy": -1522.0531529, 
			 "HOMO_LUMO_gap": 0.15669, 
			 "cosmo_polarized_energy": -17.5, 
			 "cosmo_cavitation_energy": 39.98, 
			 "cosmo_dispersion_energy": -28.62, 
			 "cosmo_repulsion_energy": 2.18, 
			 "cosmo_total_nonelectrostatic_energy": 13.54, 
			 "SMD_solvation_energy": 6.12 
		},
		"coords": [
			{
				"x": -5.984971011,
				"y": -1.2397731838,
				"z": 0.6298752643,
				"element": "C" 
			},
			{
				"x": -4.6511940798,
				"y": -1.8773124588,
				"z": 0.8813081328,
				"element": "C" 
			},
			{
				"x": -4.3655868731,
				"y": -3.2082831947,
				"z": 1.0507881347,
				"element": "C" 
			},
			{
				"x": -2.9846544531,
				"y": -3.4733161633,
				"z": 1.2729939874,
				"element": "C" 
			},
			{
				"x": -2.2061590831,
				"y": -2.3396609089,
				"z": 1.2736972381,
				"element": "C" 
			},
			{
				"x": -3.1949989757,
				"y": -0.9199199301,
				"z": 0.9963261829,
				"element": "S" 
			},
			{
				"x": -0.7693575071,
				"y": -2.1906263649,
				"z": 1.4631900607,
				"element": "C" 
			},
			{
				"x": 0.1264142574,
				"y": -3.2023921847,
				"z": 1.6802273519,
				"element": "C" 
			},
			{
				"x": 1.7417404993,
				"y": -2.5554557784,
				"z": 1.852562694,
				"element": "S" 
			},
			{
				"x": 1.0588135282,
				"y": -0.933492425,
				"z": 1.6054951749,
				"element": "C" 
			},
			{
				"x": 1.8603974944,
				"y": 0.1670408405,
				"z": 1.6214997541,
				"element": "N" 
			},
			{
				"x": 1.3449222499,
				"y": 1.530321641,
				"z": 1.524837962,
				"element": "C" 
			},
			{
				"x": 1.5846807114,
				"y": 2.1907903341,
				"z": 0.1607208662,
				"element": "C" 
			},
			{
				"x": 0.8671273879,
				"y": 1.4852234951,
				"z": -0.9901576448,
				"element": "C" 
			},
			{
				"x": 1.1274058071,
				"y": 2.1442025366,
				"z": -2.325418248,
				"element": "C" 
			},
			{
				"x": 0.4450162779,
				"y": 1.5333825929,
				"z": -3.3246808396,
				"element": "O" 
			},
			{
				"x": 1.8504690442,
				"y": 3.097614906,
				"z": -2.5216251486,
				"element": "O" 
			},
			{
				"x": -0.2305977689,
				"y": -0.9113125641,
				"z": 1.4187852154,
				"element": "N" 
			},
			{
				"x": -6.0081336925,
				"y": -0.6977746323,
				"z": -0.3227659785,
				"element": "H" 
			},
			{
				"x": -6.7619957105,
				"y": -2.0086722289,
				"z": 0.595664812,
				"element": "H" 
			},
			{
				"x": -6.2543409889,
				"y": -0.5263515427,
				"z": 1.4174472286,
				"element": "H" 
			},
			{
				"x": -5.1275037449,
				"y": -3.9803089746,
				"z": 1.0173672805,
				"element": "H" 
			},
			{
				"x": -2.5833635748,
				"y": -4.4689511099,
				"z": 1.4271609811,
				"element": "H" 
			},
			{
				"x": -0.0484612848,
				"y": -4.2653668936,
				"z": 1.7451237848,
				"element": "H" 
			},
			{
				"x": 2.8474825247,
				"y": 0.0347298105,
				"z": 1.7729084771,
				"element": "H" 
			},
			{
				"x": 1.818389015,
				"y": 2.133497247,
				"z": 2.3087454542,
				"element": "H" 
			},
			{
				"x": 0.2763077865,
				"y": 1.4810515493,
				"z": 1.7468835465,
				"element": "H" 
			},
			{
				"x": 2.6594069653,
				"y": 2.2332746159,
				"z": -0.05130279,
				"element": "H" 
			},
			{
				"x": 1.250437088,
				"y": 3.2332193594,
				"z": 0.2185886769,
				"element": "H" 
			},
			{
				"x": 1.1780721911,
				"y": 0.4367877168,
				"z": -1.067763882,
				"element": "H" 
			},
			{
				"x": -0.216542656,
				"y": 1.4490353938,
				"z": -0.8279507198,
				"element": "H" 
			},
			{
				"x": 0.6718785763,
				"y": 2.0149984998,
				"z": -4.1378330097,
				"element": "H" 
			}
		],
		 "valence_orbital": [ 
			{
				"type": "occ",
				"energy": -0.27412,
				"method": "rhf"
			},
			{
				"type": "occ",
				"energy": -0.27127,
				"method": "rhf"
			},
			{
				"type": "occ",
				"energy": -0.24102,
				"method": "rhf"
			},
			{
				"type": "occ",
				"energy": -0.22779,
				"method": "rhf"
			},
			{
				"type": "occ",
				"energy": -0.18577,
				"method": "rhf"
			},
			{
				"type": "unocc",
				"energy": -0.02908,
				"method": "rhf"
			},
			{
				"type": "unocc",
				"energy": 0.00242,
				"method": "rhf"
			},
			{
				"type": "unocc",
				"energy": 0.01346,
				"method": "rhf"
			},
			{
				"type": "unocc",
				"energy": 0.01558,
				"method": "rhf"
			},
			{
				"type": "unocc",
				"energy": 0.04773,
				"method": "rhf"
			}
		],
		"cosmo_sigma_profile": { 
			"-0.025": 0.0,
			"-0.024": 0.0,
			"-0.023": 0.0,
			"-0.022": 0.0,
			"-0.021": 0.0,
			"-0.02": 0.0,
			"-0.019": 0.0,
			"-0.018": 0.460909090135,
			"-0.017": 0.887328182016,
			"-0.016": 0.643477153927,
			"-0.015": 2.14974934535,
			"-0.014": 2.17523656968,
			"-0.013": 1.74576252764,
			"-0.012": 1.64654817979,
			"-0.011": 2.96793718516,
			"-0.01": 1.68030624145,
			"-0.009": 1.66028312449,
			"-0.008": 3.71983098908,
			"-0.007": 5.3673649734,
			"-0.006": 9.10827206846,
			"-0.005": 19.3796493851,
			"-0.004": 26.4144086147,
			"-0.003": 28.4201687762,
			"-0.002": 25.6105353269,
			"-0.001": 21.5893311279,
			"0.0": 18.5853047412,
			"0.001": 16.6881343088,
			"0.002": 17.9954539713,
			"0.003": 18.4569484402,
			"0.004": 25.8848441685,
			"0.005": 27.746293264,
			"0.006": 13.0970204868,
			"0.007": 5.87372029325,
			"0.008": 3.77257060962,
			"0.009": 4.5854324275,
			"0.01": 3.77178824831,
			"0.011": 3.21488274823,
			"0.012": 4.87327918813,
			"0.013": 0.787267680792,
			"0.014": 0.0,
			"0.015": 0.0,
			"0.016": 0.0,
			"0.017": 0.0,
			"0.018": 0.0,
			"0.019": 0.0,
			"0.02": 0.0,
			"0.021": 0.0,
			"0.022": 0.0,
			"0.023": 0.0,
			"0.024": 0.0,
			"0.025": 0.0
		}
	}
}
