{
	 "smiles": "CS(=O)C1=CC=C(C=O)C=C1", 
	 "Tm": 362.15, 
	 "num_atms": 19, 
	 "gaussian": { 
		 "optdone": 1, 
		 "sigma_profile": "yes", 
		 "theory": "DFT", 
		 "functional": "B3LYP", 
		 "basiset": "6-31G**", 
		 "properties": { 
			 "R2extent": 2683.0726, 
			 "electric_dipole_moment_norm": 2.11487140035, 
			 "electric_quadrupole_moment_norm": 21.3040023716, 
			 "total_energy": -858.246274882, 
			 "HOMO_LUMO_gap": 0.15934, 
			 "cosmo_polarized_energy": -14.98, 
			 "cosmo_cavitation_energy": 25.09, 
			 "cosmo_dispersion_energy": -18.55, 
			 "cosmo_repulsion_energy": 1.43, 
			 "cosmo_total_nonelectrostatic_energy": 7.97, 
			 "SMD_solvation_energy": 5.27 
		},
		"coords": [
			{
				"x": -1.7817924198,
				"y": 1.9207028917,
				"z": 0.8271792579,
				"element": "C" 
			},
			{
				"x": -1.9047182846,
				"y": 0.14617783,
				"z": 0.3608561786,
				"element": "S" 
			},
			{
				"x": -1.8107880226,
				"y": -0.6575822101,
				"z": 1.6372624049,
				"element": "O" 
			},
			{
				"x": -0.2727447996,
				"y": 0.0451783642,
				"z": -0.4541745733,
				"element": "C" 
			},
			{
				"x": -0.0679784637,
				"y": 0.6021880784,
				"z": -1.7227753606,
				"element": "C" 
			},
			{
				"x": 1.1740439958,
				"y": 0.4640183069,
				"z": -2.3299587807,
				"element": "C" 
			},
			{
				"x": 2.199264576,
				"y": -0.2419018895,
				"z": -1.67874555,
				"element": "C" 
			},
			{
				"x": 3.5225529091,
				"y": -0.3931734609,
				"z": -2.3288282172,
				"element": "C" 
			},
			{
				"x": 3.8106522651,
				"y": 0.0669022348,
				"z": -3.416898495,
				"element": "O" 
			},
			{
				"x": 1.969806867,
				"y": -0.8095216203,
				"z": -0.4191667498,
				"element": "C" 
			},
			{
				"x": 0.726918711,
				"y": -0.6724381804,
				"z": 0.198414583,
				"element": "C" 
			},
			{
				"x": -2.701309367,
				"y": 2.1696121459,
				"z": 1.3610825468,
				"element": "H" 
			},
			{
				"x": -0.918169147,
				"y": 2.0554425021,
				"z": 1.4816859537,
				"element": "H" 
			},
			{
				"x": -1.6909017504,
				"y": 2.5342660404,
				"z": -0.0722459061,
				"element": "H" 
			},
			{
				"x": -0.8697076542,
				"y": 1.1331233513,
				"z": -2.230175515,
				"element": "H" 
			},
			{
				"x": 1.3766344622,
				"y": 0.8855011988,
				"z": -3.3094540924,
				"element": "H" 
			},
			{
				"x": 4.2651868334,
				"y": -0.974000747,
				"z": -1.7382486895,
				"element": "H" 
			},
			{
				"x": 2.7668828326,
				"y": -1.361110748,
				"z": 0.0742993229,
				"element": "H" 
			},
			{
				"x": 0.5072664566,
				"y": -1.1095840883,
				"z": 1.1680916819,
				"element": "H" 
			}
		],
		 "valence_orbital": [ 
			{
				"type": "occ",
				"energy": -0.28308,
				"method": "rhf"
			},
			{
				"type": "occ",
				"energy": -0.27852,
				"method": "rhf"
			},
			{
				"type": "occ",
				"energy": -0.27621,
				"method": "rhf"
			},
			{
				"type": "occ",
				"energy": -0.26418,
				"method": "rhf"
			},
			{
				"type": "occ",
				"energy": -0.2367,
				"method": "rhf"
			},
			{
				"type": "unocc",
				"energy": -0.07736,
				"method": "rhf"
			},
			{
				"type": "unocc",
				"energy": -0.02979,
				"method": "rhf"
			},
			{
				"type": "unocc",
				"energy": 0.01296,
				"method": "rhf"
			},
			{
				"type": "unocc",
				"energy": 0.0303,
				"method": "rhf"
			},
			{
				"type": "unocc",
				"energy": 0.04631,
				"method": "rhf"
			}
		],
		"cosmo_sigma_profile": { 
			"-0.025": 0.0,
			"-0.024": 0.0,
			"-0.023": 0.0,
			"-0.022": 0.0,
			"-0.021": 0.0,
			"-0.02": 0.0,
			"-0.019": 0.0,
			"-0.018": 0.0,
			"-0.017": 0.0,
			"-0.016": 0.0,
			"-0.015": 0.0,
			"-0.014": 0.0,
			"-0.013": 0.0,
			"-0.012": 0.0,
			"-0.011": 0.0567352501888,
			"-0.01": 0.65885727938,
			"-0.009": 1.80319712747,
			"-0.008": 7.16548047833,
			"-0.007": 13.4634144146,
			"-0.006": 15.2152755433,
			"-0.005": 13.903811705,
			"-0.004": 14.3654868588,
			"-0.003": 14.8862344817,
			"-0.002": 15.3520520265,
			"-0.001": 12.680520501,
			"0.0": 11.9437215929,
			"0.001": 15.4680560235,
			"0.002": 16.9418116442,
			"0.003": 6.27707128922,
			"0.004": 3.32186033323,
			"0.005": 2.39063763432,
			"0.006": 3.16160032422,
			"0.007": 2.86030503067,
			"0.008": 2.56115301126,
			"0.009": 2.85511023567,
			"0.01": 4.66185123037,
			"0.011": 5.56594619508,
			"0.012": 3.55223868883,
			"0.013": 3.6144208841,
			"0.014": 3.98227525808,
			"0.015": 2.91113188471,
			"0.016": 0.289614333384,
			"0.017": 0.0,
			"0.018": 0.0,
			"0.019": 0.0,
			"0.02": 0.0,
			"0.021": 0.0,
			"0.022": 0.0,
			"0.023": 0.0,
			"0.024": 0.0,
			"0.025": 0.0
		}
	}
}
