{
	 "smiles": "COCC1(C)CNC(=O)C1", 
	 "Tm": 336.15, 
	 "num_atms": 23, 
	 "gaussian": { 
		 "optdone": 1, 
		 "sigma_profile": "yes", 
		 "theory": "DFT", 
		 "functional": "B3LYP", 
		 "basiset": "6-31G**", 
		 "properties": { 
			 "R2extent": 1839.9321, 
			 "electric_dipole_moment_norm": 4.74513296547, 
			 "electric_quadrupole_moment_norm": 10.0442384998, 
			 "total_energy": -479.783904097, 
			 "HOMO_LUMO_gap": 0.27311, 
			 "cosmo_polarized_energy": -13.32, 
			 "cosmo_cavitation_energy": 24.95, 
			 "cosmo_dispersion_energy": -18.07, 
			 "cosmo_repulsion_energy": 1.5, 
			 "cosmo_total_nonelectrostatic_energy": 8.38, 
			 "SMD_solvation_energy": 4.8 
		},
		"coords": [
			{
				"x": 0.0675910558,
				"y": -3.8605133353,
				"z": 0.8149570119,
				"element": "C" 
			},
			{
				"x": -0.5037322123,
				"y": -2.6559867577,
				"z": 0.3508340448,
				"element": "O" 
			},
			{
				"x": 0.4600426775,
				"y": -1.6725148228,
				"z": 0.034697132,
				"element": "C" 
			},
			{
				"x": -0.2548611542,
				"y": -0.4144529134,
				"z": -0.4615480858,
				"element": "C" 
			},
			{
				"x": -1.0783357096,
				"y": -0.7245369592,
				"z": -1.7238307549,
				"element": "C" 
			},
			{
				"x": 0.782297721,
				"y": 0.7113726011,
				"z": -0.7618022565,
				"element": "C" 
			},
			{
				"x": 0.0625744039,
				"y": 1.9238138191,
				"z": -0.4145253466,
				"element": "N" 
			},
			{
				"x": -1.0117070641,
				"y": 1.7402843775,
				"z": 0.4207046255,
				"element": "C" 
			},
			{
				"x": -1.6955667891,
				"y": 2.6236501921,
				"z": 0.9071474286,
				"element": "O" 
			},
			{
				"x": -1.1518819506,
				"y": 0.2302378669,
				"z": 0.6232395803,
				"element": "C" 
			},
			{
				"x": 0.7255083311,
				"y": -4.318743723,
				"z": 0.0595671802,
				"element": "H" 
			},
			{
				"x": 0.6549229924,
				"y": -3.7072401336,
				"z": 1.7341633768,
				"element": "H" 
			},
			{
				"x": -0.7536749797,
				"y": -4.5476429713,
				"z": 1.0316029752,
				"element": "H" 
			},
			{
				"x": 1.0689008857,
				"y": -1.4326232815,
				"z": 0.9245272307,
				"element": "H" 
			},
			{
				"x": 1.1527049811,
				"y": -2.0460706115,
				"z": -0.7418282367,
				"element": "H" 
			},
			{
				"x": -1.577493251,
				"y": 0.177262383,
				"z": -2.0926413909,
				"element": "H" 
			},
			{
				"x": -1.8373944022,
				"y": -1.4792170845,
				"z": -1.5054250571,
				"element": "H" 
			},
			{
				"x": -0.4368842864,
				"y": -1.1094064506,
				"z": -2.5249728113,
				"element": "H" 
			},
			{
				"x": 1.0848382299,
				"y": 0.7125636914,
				"z": -1.8149557565,
				"element": "H" 
			},
			{
				"x": 1.6924075882,
				"y": 0.5921029318,
				"z": -0.152662044,
				"element": "H" 
			},
			{
				"x": 0.4138425165,
				"y": 2.8540141744,
				"z": -0.5900680045,
				"element": "H" 
			},
			{
				"x": -2.1993147685,
				"y": -0.0719599651,
				"z": 0.5649256427,
				"element": "H" 
			},
			{
				"x": -0.8039848152,
				"y": -0.0079930277,
				"z": 1.6358935159,
				"element": "H" 
			}
		],
		 "valence_orbital": [ 
			{
				"type": "occ",
				"energy": -0.32919,
				"method": "rhf"
			},
			{
				"type": "occ",
				"energy": -0.31882,
				"method": "rhf"
			},
			{
				"type": "occ",
				"energy": -0.26317,
				"method": "rhf"
			},
			{
				"type": "occ",
				"energy": -0.2478,
				"method": "rhf"
			},
			{
				"type": "occ",
				"energy": -0.23567,
				"method": "rhf"
			},
			{
				"type": "unocc",
				"energy": 0.03744,
				"method": "rhf"
			},
			{
				"type": "unocc",
				"energy": 0.07238,
				"method": "rhf"
			},
			{
				"type": "unocc",
				"energy": 0.09496,
				"method": "rhf"
			},
			{
				"type": "unocc",
				"energy": 0.10142,
				"method": "rhf"
			},
			{
				"type": "unocc",
				"energy": 0.1215,
				"method": "rhf"
			}
		],
		"cosmo_sigma_profile": { 
			"-0.025": 0.0,
			"-0.024": 0.0,
			"-0.023": 0.0,
			"-0.022": 0.0,
			"-0.021": 0.0,
			"-0.02": 0.0,
			"-0.019": 0.0,
			"-0.018": 0.0,
			"-0.017": 0.0,
			"-0.016": 0.0,
			"-0.015": 0.0,
			"-0.014": 0.624655879788,
			"-0.013": 1.4868597649,
			"-0.012": 0.990656499453,
			"-0.011": 0.779265484796,
			"-0.01": 1.32297410265,
			"-0.009": 1.00025155647,
			"-0.008": 0.650369775405,
			"-0.007": 1.2339430467,
			"-0.006": 1.54289993309,
			"-0.005": 11.2489592833,
			"-0.004": 24.6793038041,
			"-0.003": 33.4214236272,
			"-0.002": 24.6879933629,
			"-0.001": 18.116315062,
			"0.0": 12.1150113294,
			"0.001": 10.515582555,
			"0.002": 5.48812022841,
			"0.003": 4.22010108883,
			"0.004": 3.96025439978,
			"0.005": 2.35933307098,
			"0.006": 3.76012398447,
			"0.007": 3.04074467145,
			"0.008": 2.84175065631,
			"0.009": 3.02361211075,
			"0.01": 3.04888653129,
			"0.011": 2.38815317827,
			"0.012": 2.09124223991,
			"0.013": 2.88079374393,
			"0.014": 6.43702191459,
			"0.015": 3.28101649579,
			"0.016": 0.168901866199,
			"0.017": 0.0,
			"0.018": 0.0,
			"0.019": 0.0,
			"0.02": 0.0,
			"0.021": 0.0,
			"0.022": 0.0,
			"0.023": 0.0,
			"0.024": 0.0,
			"0.025": 0.0
		}
	}
}
