{
	 "smiles": "COC1=CC(CNC(=O)CCCCC=CC(C)C)=CC=C1O", 
	 "Tm": 338.65, 
	 "num_atms": 49, 
	 "gaussian": { 
		 "optdone": 1, 
		 "sigma_profile": "yes", 
		 "theory": "DFT", 
		 "functional": "B3LYP", 
		 "basiset": "6-31G**", 
		 "properties": { 
			 "R2extent": 16689.0837, 
			 "electric_dipole_moment_norm": 5.79282896088, 
			 "electric_quadrupole_moment_norm": 24.8151064926, 
			 "total_energy": -982.614454171, 
			 "HOMO_LUMO_gap": 0.2077, 
			 "cosmo_polarized_energy": -17.48, 
			 "cosmo_cavitation_energy": 51.58, 
			 "cosmo_dispersion_energy": -35.53, 
			 "cosmo_repulsion_energy": 2.82, 
			 "cosmo_total_nonelectrostatic_energy": 18.87, 
			 "SMD_solvation_energy": 9.37 
		},
		"coords": [
			{
				"x": -3.685752725,
				"y": -3.1952842947,
				"z": -5.6596939974,
				"element": "C" 
			},
			{
				"x": -2.3329844526,
				"y": -3.6227145883,
				"z": -5.6308504818,
				"element": "O" 
			},
			{
				"x": -1.6758296889,
				"y": -3.6247930917,
				"z": -4.4234547131,
				"element": "C" 
			},
			{
				"x": -2.2115128329,
				"y": -3.2446803304,
				"z": -3.1991117041,
				"element": "C" 
			},
			{
				"x": -1.4245439949,
				"y": -3.296007556,
				"z": -2.0338415613,
				"element": "C" 
			},
			{
				"x": -2.0475294347,
				"y": -2.8420996252,
				"z": -0.7166610034,
				"element": "C" 
			},
			{
				"x": -1.286055513,
				"y": -3.1511655346,
				"z": 0.478502774,
				"element": "N" 
			},
			{
				"x": -0.3657928474,
				"y": -2.3638487621,
				"z": 1.1316094014,
				"element": "C" 
			},
			{
				"x": 0.2878699654,
				"y": -2.8173191385,
				"z": 2.0633385262,
				"element": "O" 
			},
			{
				"x": -0.2233938693,
				"y": -0.9193105803,
				"z": 0.6551807084,
				"element": "C" 
			},
			{
				"x": 0.8761396812,
				"y": -0.1639382916,
				"z": 1.4054495605,
				"element": "C" 
			},
			{
				"x": 0.9978094181,
				"y": 1.2963845262,
				"z": 0.9535000814,
				"element": "C" 
			},
			{
				"x": 2.1385131276,
				"y": 2.079396828,
				"z": 1.6402302652,
				"element": "C" 
			},
			{
				"x": 1.9674878468,
				"y": 2.2468337626,
				"z": 3.1279521431,
				"element": "C" 
			},
			{
				"x": 1.7806491752,
				"y": 3.4209497724,
				"z": 3.7383198698,
				"element": "C" 
			},
			{
				"x": 1.6063952279,
				"y": 3.6731336344,
				"z": 5.2196464162,
				"element": "C" 
			},
			{
				"x": 2.6794045154,
				"y": 4.6629138932,
				"z": 5.7181382872,
				"element": "C" 
			},
			{
				"x": 1.5908592984,
				"y": 2.4022561483,
				"z": 6.0768395324,
				"element": "C" 
			},
			{
				"x": -0.1072894957,
				"y": -3.7391154226,
				"z": -2.126075,
				"element": "C" 
			},
			{
				"x": 0.4343111053,
				"y": -4.1258350921,
				"z": -3.3583309008,
				"element": "C" 
			},
			{
				"x": -0.338769474,
				"y": -4.0707977165,
				"z": -4.5099331486,
				"element": "C" 
			},
			{
				"x": 0.1805469945,
				"y": -4.4465391549,
				"z": -5.7111376583,
				"element": "O" 
			},
			{
				"x": -4.3208162415,
				"y": -3.8367798062,
				"z": -5.0358961291,
				"element": "H" 
			},
			{
				"x": -3.7833270205,
				"y": -2.1553498877,
				"z": -5.3235687389,
				"element": "H" 
			},
			{
				"x": -4.0079047095,
				"y": -3.2702014388,
				"z": -6.6992728852,
				"element": "H" 
			},
			{
				"x": -3.2412556648,
				"y": -2.9064993128,
				"z": -3.1348897953,
				"element": "H" 
			},
			{
				"x": -3.0419170995,
				"y": -3.2954927625,
				"z": -0.6138384278,
				"element": "H" 
			},
			{
				"x": -2.2206790244,
				"y": -1.761321578,
				"z": -0.7437534972,
				"element": "H" 
			},
			{
				"x": -1.2863191074,
				"y": -4.1091657154,
				"z": 0.8053763313,
				"element": "H" 
			},
			{
				"x": -0.0247707177,
				"y": -0.9138536968,
				"z": -0.4249040036,
				"element": "H" 
			},
			{
				"x": -1.1879695232,
				"y": -0.4081911626,
				"z": 0.7855005415,
				"element": "H" 
			},
			{
				"x": 0.6705208736,
				"y": -0.2215786626,
				"z": 2.4786472243,
				"element": "H" 
			},
			{
				"x": 1.8307543059,
				"y": -0.6828933492,
				"z": 1.2572742924,
				"element": "H" 
			},
			{
				"x": 0.0492398998,
				"y": 1.8199915014,
				"z": 1.1356621033,
				"element": "H" 
			},
			{
				"x": 1.1634467757,
				"y": 1.3256957415,
				"z": -0.1325928854,
				"element": "H" 
			},
			{
				"x": 3.0858531327,
				"y": 1.5576195716,
				"z": 1.4375035017,
				"element": "H" 
			},
			{
				"x": 2.221873296,
				"y": 3.068055973,
				"z": 1.1725636646,
				"element": "H" 
			},
			{
				"x": 1.9968815411,
				"y": 1.3344850701,
				"z": 3.7214196238,
				"element": "H" 
			},
			{
				"x": 1.7621723061,
				"y": 4.3230888549,
				"z": 3.1215235404,
				"element": "H" 
			},
			{
				"x": 0.6312778011,
				"y": 4.1717576418,
				"z": 5.3446756585,
				"element": "H" 
			},
			{
				"x": 2.67666729,
				"y": 5.5861128731,
				"z": 5.1284802569,
				"element": "H" 
			},
			{
				"x": 3.6788397288,
				"y": 4.2206034343,
				"z": 5.6399838302,
				"element": "H" 
			},
			{
				"x": 2.5080013055,
				"y": 4.9328354123,
				"z": 6.7659708826,
				"element": "H" 
			},
			{
				"x": 0.8012875387,
				"y": 1.7125792931,
				"z": 5.7621526712,
				"element": "H" 
			},
			{
				"x": 1.4194544798,
				"y": 2.6519053872,
				"z": 7.1289904333,
				"element": "H" 
			},
			{
				"x": 2.5470198544,
				"y": 1.8704705652,
				"z": 6.0134877833,
				"element": "H" 
			},
			{
				"x": 0.5068626573,
				"y": -3.7946889647,
				"z": -1.233519962,
				"element": "H" 
			},
			{
				"x": 1.4586725724,
				"y": -4.4749205478,
				"z": -3.4369426456,
				"element": "H" 
			},
			{
				"x": -0.520398278,
				"y": -4.3342838197,
				"z": -6.3713507662,
				"element": "H" 
			}
		],
		 "valence_orbital": [ 
			{
				"type": "occ",
				"energy": -0.24782,
				"method": "rhf"
			},
			{
				"type": "occ",
				"energy": -0.24209,
				"method": "rhf"
			},
			{
				"type": "occ",
				"energy": -0.24033,
				"method": "rhf"
			},
			{
				"type": "occ",
				"energy": -0.2325,
				"method": "rhf"
			},
			{
				"type": "occ",
				"energy": -0.20855,
				"method": "rhf"
			},
			{
				"type": "unocc",
				"energy": -0.00085,
				"method": "rhf"
			},
			{
				"type": "unocc",
				"energy": 0.01312,
				"method": "rhf"
			},
			{
				"type": "unocc",
				"energy": 0.03159,
				"method": "rhf"
			},
			{
				"type": "unocc",
				"energy": 0.03366,
				"method": "rhf"
			},
			{
				"type": "unocc",
				"energy": 0.07416,
				"method": "rhf"
			}
		],
		"cosmo_sigma_profile": { 
			"-0.025": 0.0,
			"-0.024": 0.0,
			"-0.023": 0.0,
			"-0.022": 0.0,
			"-0.021": 0.0,
			"-0.02": 0.0,
			"-0.019": 0.0,
			"-0.018": 0.0,
			"-0.017": 0.0,
			"-0.016": 0.0,
			"-0.015": 0.0,
			"-0.014": 0.360643329964,
			"-0.013": 1.44704125876,
			"-0.012": 1.64238941786,
			"-0.011": 1.53309143693,
			"-0.01": 1.08865203181,
			"-0.009": 1.41275503633,
			"-0.008": 1.4310139692,
			"-0.007": 3.18009056014,
			"-0.006": 14.4747129673,
			"-0.005": 22.8156001866,
			"-0.004": 23.342539438,
			"-0.003": 38.6115109922,
			"-0.002": 53.470748737,
			"-0.001": 47.1333186356,
			"0.0": 39.7244044216,
			"0.001": 35.1990346327,
			"0.002": 25.7719447743,
			"0.003": 16.0784275679,
			"0.004": 16.8970895869,
			"0.005": 15.2370291226,
			"0.006": 10.247053738,
			"0.007": 5.21338691125,
			"0.008": 3.31596908473,
			"0.009": 2.99854918474,
			"0.01": 2.40561564806,
			"0.011": 3.36738294489,
			"0.012": 3.6824998249,
			"0.013": 1.9623103466,
			"0.014": 5.69904502209,
			"0.015": 2.50779563129,
			"0.016": 0.0145613666997,
			"0.017": 0.0,
			"0.018": 0.0,
			"0.019": 0.0,
			"0.02": 0.0,
			"0.021": 0.0,
			"0.022": 0.0,
			"0.023": 0.0,
			"0.024": 0.0,
			"0.025": 0.0
		}
	}
}
