{
	 "smiles": "CSCC1=CC=C(C=C1)C(O)=O", 
	 "Tm": 419.15, 
	 "num_atms": 22, 
	 "gaussian": { 
		 "optdone": 1, 
		 "sigma_profile": "yes", 
		 "theory": "DFT", 
		 "functional": "B3LYP", 
		 "basiset": "6-31G**", 
		 "properties": { 
			 "R2extent": 3891.7992, 
			 "electric_dipole_moment_norm": 3.62497973236, 
			 "electric_quadrupole_moment_norm": 27.6664841127, 
			 "total_energy": -897.633095676, 
			 "HOMO_LUMO_gap": 0.17471, 
			 "cosmo_polarized_energy": -16.04, 
			 "cosmo_cavitation_energy": 27.73, 
			 "cosmo_dispersion_energy": -20.26, 
			 "cosmo_repulsion_energy": 1.57, 
			 "cosmo_total_nonelectrostatic_energy": 9.04, 
			 "SMD_solvation_energy": 5.75 
		},
		"coords": [
			{
				"x": -2.5744512293,
				"y": 0.1409484154,
				"z": -0.136261548,
				"element": "C" 
			},
			{
				"x": -1.7661822992,
				"y": -1.0595136444,
				"z": 0.9760067253,
				"element": "S" 
			},
			{
				"x": -0.6451385511,
				"y": -1.9173223469,
				"z": -0.2123096521,
				"element": "C" 
			},
			{
				"x": 0.4286775183,
				"y": -1.0407644273,
				"z": -0.8075343809,
				"element": "C" 
			},
			{
				"x": 0.3890144975,
				"y": -0.6786915037,
				"z": -2.1613468401,
				"element": "C" 
			},
			{
				"x": 1.3792313011,
				"y": 0.127956954,
				"z": -2.7165068998,
				"element": "C" 
			},
			{
				"x": 2.4280240987,
				"y": 0.6069105445,
				"z": -1.9232660019,
				"element": "C" 
			},
			{
				"x": 2.4796312556,
				"y": 0.237547274,
				"z": -0.5695570474,
				"element": "C" 
			},
			{
				"x": 1.4917331935,
				"y": -0.5732408134,
				"z": -0.0206488052,
				"element": "C" 
			},
			{
				"x": 3.4638345551,
				"y": 1.4665976896,
				"z": -2.5821411191,
				"element": "C" 
			},
			{
				"x": 4.2322828765,
				"y": 2.2367150061,
				"z": -1.7648714965,
				"element": "O" 
			},
			{
				"x": 3.6348323236,
				"y": 1.5013265653,
				"z": -3.7782434352,
				"element": "O" 
			},
			{
				"x": -3.1580509467,
				"y": -0.3666188283,
				"z": -0.9092431817,
				"element": "H" 
			},
			{
				"x": -1.8431087183,
				"y": 0.80730606,
				"z": -0.5994826867,
				"element": "H" 
			},
			{
				"x": -3.2508268004,
				"y": 0.7330322046,
				"z": 0.4839177042,
				"element": "H" 
			},
			{
				"x": -1.2491741118,
				"y": -2.379744698,
				"z": -0.9987189852,
				"element": "H" 
			},
			{
				"x": -0.2042513412,
				"y": -2.7241857317,
				"z": 0.3811993624,
				"element": "H" 
			},
			{
				"x": -0.4211354042,
				"y": -1.0420425607,
				"z": -2.7882956579,
				"element": "H" 
			},
			{
				"x": 1.3594778802,
				"y": 0.39965401,
				"z": -3.766437976,
				"element": "H" 
			},
			{
				"x": 3.3118599615,
				"y": 0.5440418596,
				"z": 0.0601435015,
				"element": "H" 
			},
			{
				"x": 1.5413150789,
				"y": -0.8491183305,
				"z": 1.0288290897,
				"element": "H" 
			},
			{
				"x": 3.8764048618,
				"y": 2.2285063019,
				"z": -0.8657306696,
				"element": "H" 
			}
		],
		 "valence_orbital": [ 
			{
				"type": "occ",
				"energy": -0.31569,
				"method": "rhf"
			},
			{
				"type": "occ",
				"energy": -0.2767,
				"method": "rhf"
			},
			{
				"type": "occ",
				"energy": -0.27412,
				"method": "rhf"
			},
			{
				"type": "occ",
				"energy": -0.26265,
				"method": "rhf"
			},
			{
				"type": "occ",
				"energy": -0.23061,
				"method": "rhf"
			},
			{
				"type": "unocc",
				"energy": -0.0559,
				"method": "rhf"
			},
			{
				"type": "unocc",
				"energy": -0.02573,
				"method": "rhf"
			},
			{
				"type": "unocc",
				"energy": 0.02826,
				"method": "rhf"
			},
			{
				"type": "unocc",
				"energy": 0.04489,
				"method": "rhf"
			},
			{
				"type": "unocc",
				"energy": 0.06058,
				"method": "rhf"
			}
		],
		"cosmo_sigma_profile": { 
			"-0.025": 0.0,
			"-0.024": 0.0,
			"-0.023": 0.0,
			"-0.022": 0.0,
			"-0.021": 0.0,
			"-0.02": 0.0,
			"-0.019": 0.179184344339,
			"-0.018": 0.64705768091,
			"-0.017": 1.26460419337,
			"-0.016": 0.784906099952,
			"-0.015": 0.739223837449,
			"-0.014": 0.775668234239,
			"-0.013": 1.42254771882,
			"-0.012": 1.65022589013,
			"-0.011": 0.712458963725,
			"-0.01": 1.23488483499,
			"-0.009": 0.791467903408,
			"-0.008": 2.0624146381,
			"-0.007": 5.28845920466,
			"-0.006": 15.4463790265,
			"-0.005": 17.4450871355,
			"-0.004": 15.2811934547,
			"-0.003": 16.5727899263,
			"-0.002": 16.6695058734,
			"-0.001": 16.7805980461,
			"0.0": 12.6406528798,
			"0.001": 10.3388884794,
			"0.002": 12.4681694779,
			"0.003": 15.4924263507,
			"0.004": 7.39507104744,
			"0.005": 6.49175163499,
			"0.006": 6.57403814278,
			"0.007": 4.56696417616,
			"0.008": 5.00032848353,
			"0.009": 5.92181007987,
			"0.01": 6.13828638474,
			"0.011": 6.41289124442,
			"0.012": 5.24312353751,
			"0.013": 1.79354606268,
			"0.014": 0.0746592935724,
			"0.015": 0.0,
			"0.016": 0.0,
			"0.017": 0.0,
			"0.018": 0.0,
			"0.019": 0.0,
			"0.02": 0.0,
			"0.021": 0.0,
			"0.022": 0.0,
			"0.023": 0.0,
			"0.024": 0.0,
			"0.025": 0.0
		}
	}
}
