{
	 "smiles": "CCCN1C(C)=NN=C1CO", 
	 "Tm": 333.15, 
	 "num_atms": 24, 
	 "gaussian": { 
		 "optdone": 1, 
		 "sigma_profile": "yes", 
		 "theory": "DFT", 
		 "functional": "B3LYP", 
		 "basiset": "6-31G**", 
		 "properties": { 
			 "R2extent": 2127.5115, 
			 "electric_dipole_moment_norm": 4.6361958522, 
			 "electric_quadrupole_moment_norm": 12.3709568183, 
			 "total_energy": -514.043807757, 
			 "HOMO_LUMO_gap": 0.25247, 
			 "cosmo_polarized_energy": -17.77, 
			 "cosmo_cavitation_energy": 26.5, 
			 "cosmo_dispersion_energy": -18.68, 
			 "cosmo_repulsion_energy": 1.52, 
			 "cosmo_total_nonelectrostatic_energy": 9.33, 
			 "SMD_solvation_energy": 2.54 
		},
		"coords": [
			{
				"x": 0.1854953772,
				"y": 1.3836223792,
				"z": -2.4554968329,
				"element": "C" 
			},
			{
				"x": 0.7708384689,
				"y": 0.1409971141,
				"z": -1.7795199999,
				"element": "C" 
			},
			{
				"x": 1.1058164628,
				"y": 0.3237182107,
				"z": -0.291202377,
				"element": "C" 
			},
			{
				"x": -0.0578460165,
				"y": 0.601606018,
				"z": 0.5560923908,
				"element": "N" 
			},
			{
				"x": -0.9754668045,
				"y": -0.2964515738,
				"z": 1.0520028572,
				"element": "C" 
			},
			{
				"x": -0.9556709733,
				"y": -1.7670781109,
				"z": 0.8017078126,
				"element": "C" 
			},
			{
				"x": -1.8607099756,
				"y": 0.3249567152,
				"z": 1.8020501726,
				"element": "N" 
			},
			{
				"x": -1.5284093019,
				"y": 1.6619509253,
				"z": 1.8181696651,
				"element": "N" 
			},
			{
				"x": -0.4576764152,
				"y": 1.8155129119,
				"z": 1.0712493188,
				"element": "C" 
			},
			{
				"x": 0.2471024612,
				"y": 3.1198096468,
				"z": 0.8635527592,
				"element": "C" 
			},
			{
				"x": 1.6046009852,
				"y": 3.101441675,
				"z": 1.3094513685,
				"element": "O" 
			},
			{
				"x": -0.7533913601,
				"y": 1.6910152592,
				"z": -1.9839880339,
				"element": "H" 
			},
			{
				"x": -0.0252448093,
				"y": 1.1878666896,
				"z": -3.5111980375,
				"element": "H" 
			},
			{
				"x": 0.8828370528,
				"y": 2.2275279995,
				"z": -2.4079151907,
				"element": "H" 
			},
			{
				"x": 0.0810725496,
				"y": -0.7036336452,
				"z": -1.8950190297,
				"element": "H" 
			},
			{
				"x": 1.7004352262,
				"y": -0.1524755018,
				"z": -2.2832228447,
				"element": "H" 
			},
			{
				"x": 1.8069037316,
				"y": 1.1486359275,
				"z": -0.1426718232,
				"element": "H" 
			},
			{
				"x": 1.5875855812,
				"y": -0.5818132602,
				"z": 0.0927756341,
				"element": "H" 
			},
			{
				"x": -1.1227307289,
				"y": -2.0118053108,
				"z": -0.2530810398,
				"element": "H" 
			},
			{
				"x": -0.0036018575,
				"y": -2.220557991,
				"z": 1.1013234161,
				"element": "H" 
			},
			{
				"x": -1.7545541767,
				"y": -2.2196487535,
				"z": 1.3909342293,
				"element": "H" 
			},
			{
				"x": 0.2974100941,
				"y": 3.3836923045,
				"z": -0.1971839174,
				"element": "H" 
			},
			{
				"x": -0.3494324207,
				"y": 3.8862049375,
				"z": 1.3731225847,
				"element": "H" 
			},
			{
				"x": 1.5927368493,
				"y": 2.9155054331,
				"z": 2.2582669178,
				"element": "H" 
			}
		],
		 "valence_orbital": [ 
			{
				"type": "occ",
				"energy": -0.29881,
				"method": "rhf"
			},
			{
				"type": "occ",
				"energy": -0.28612,
				"method": "rhf"
			},
			{
				"type": "occ",
				"energy": -0.27874,
				"method": "rhf"
			},
			{
				"type": "occ",
				"energy": -0.24351,
				"method": "rhf"
			},
			{
				"type": "occ",
				"energy": -0.24255,
				"method": "rhf"
			},
			{
				"type": "unocc",
				"energy": 0.00992,
				"method": "rhf"
			},
			{
				"type": "unocc",
				"energy": 0.04821,
				"method": "rhf"
			},
			{
				"type": "unocc",
				"energy": 0.06907,
				"method": "rhf"
			},
			{
				"type": "unocc",
				"energy": 0.08668,
				"method": "rhf"
			},
			{
				"type": "unocc",
				"energy": 0.09443,
				"method": "rhf"
			}
		],
		"cosmo_sigma_profile": { 
			"-0.025": 0.0,
			"-0.024": 0.0,
			"-0.023": 0.0,
			"-0.022": 0.0,
			"-0.021": 0.0,
			"-0.02": 0.0,
			"-0.019": 0.0,
			"-0.018": 0.0,
			"-0.017": 0.0764072735263,
			"-0.016": 0.849573036081,
			"-0.015": 0.992586257513,
			"-0.014": 0.463732243598,
			"-0.013": 1.07673616278,
			"-0.012": 1.10367939033,
			"-0.011": 0.753329547885,
			"-0.01": 0.961964436669,
			"-0.009": 1.15317464587,
			"-0.008": 0.586069061228,
			"-0.007": 1.0036628389,
			"-0.006": 9.40020434341,
			"-0.005": 18.3396827906,
			"-0.004": 25.631231281,
			"-0.003": 25.7754040179,
			"-0.002": 22.4201166144,
			"-0.001": 21.7777707429,
			"0.0": 14.0417904945,
			"0.001": 8.89019708398,
			"0.002": 4.27520840457,
			"0.003": 3.64528547485,
			"0.004": 3.65514376935,
			"0.005": 2.73914237056,
			"0.006": 2.74476739148,
			"0.007": 3.45233421683,
			"0.008": 1.58553548204,
			"0.009": 3.35350894423,
			"0.01": 2.58308051886,
			"0.011": 3.18274279949,
			"0.012": 4.49304331195,
			"0.013": 3.50571529602,
			"0.014": 3.14768634527,
			"0.015": 3.57744177081,
			"0.016": 2.81672941381,
			"0.017": 2.21468689886,
			"0.018": 0.887546905753,
			"0.019": 0.0,
			"0.02": 0.0,
			"0.021": 0.0,
			"0.022": 0.0,
			"0.023": 0.0,
			"0.024": 0.0,
			"0.025": 0.0
		}
	}
}
