{
	 "smiles": "OC(=O)C(Br)=C(Br)C(O)=O", 
	 "Tm": 395.15, 
	 "num_atms": 12, 
	 "gaussian": { 
		 "optdone": 1, 
		 "sigma_profile": "yes", 
		 "theory": "DFT", 
		 "functional": "B3LYP", 
		 "basiset": "6-31G**", 
		 "properties": { 
			 "R2extent": 3935.47, 
			 "electric_dipole_moment_norm": 1.8650195763, 
			 "electric_quadrupole_moment_norm": 20.0469708971, 
			 "total_energy": -5597.29739589, 
			 "HOMO_LUMO_gap": 0.18278, 
			 "cosmo_polarized_energy": -15.57, 
			 "cosmo_cavitation_energy": 21.71, 
			 "cosmo_dispersion_energy": -17.12, 
			 "cosmo_repulsion_energy": 1.38, 
			 "cosmo_total_nonelectrostatic_energy": 5.97, 
			 "SMD_solvation_energy": 4.66 
		},
		"coords": [
			{
				"x": 0.2600345653,
				"y": 1.721549835,
				"z": 1.6903552848,
				"element": "O" 
			},
			{
				"x": 0.7084263015,
				"y": 0.6578408387,
				"z": 2.3633455415,
				"element": "C" 
			},
			{
				"x": 0.7376149294,
				"y": 0.6409575343,
				"z": 3.5671088112,
				"element": "O" 
			},
			{
				"x": 1.2428533878,
				"y": -0.5367494513,
				"z": 1.5638682968,
				"element": "C" 
			},
			{
				"x": 2.5029210934,
				"y": -1.4958349288,
				"z": 2.6489419324,
				"element": "Br" 
			},
			{
				"x": 0.9071479098,
				"y": -0.9935787842,
				"z": 0.3406423451,
				"element": "C" 
			},
			{
				"x": -0.3868206745,
				"y": -0.0592640909,
				"z": -0.7260310628,
				"element": "Br" 
			},
			{
				"x": 1.3305869328,
				"y": -2.2690018821,
				"z": -0.3981546817,
				"element": "C" 
			},
			{
				"x": 2.5379296786,
				"y": -2.7800230058,
				"z": -0.1400039381,
				"element": "O" 
			},
			{
				"x": 0.6004360498,
				"y": -2.7625552653,
				"z": -1.2188040732,
				"element": "O" 
			},
			{
				"x": 0.1980477114,
				"y": 1.5507048614,
				"z": 0.7328307626,
				"element": "H" 
			},
			{
				"x": 2.9683221148,
				"y": -2.3409456613,
				"z": 0.6162007814,
				"element": "H" 
			}
		],
		 "valence_orbital": [ 
			{
				"type": "occ",
				"energy": -0.33033,
				"method": "rhf"
			},
			{
				"type": "occ",
				"energy": -0.32761,
				"method": "rhf"
			},
			{
				"type": "occ",
				"energy": -0.32002,
				"method": "rhf"
			},
			{
				"type": "occ",
				"energy": -0.29869,
				"method": "rhf"
			},
			{
				"type": "occ",
				"energy": -0.29668,
				"method": "rhf"
			},
			{
				"type": "unocc",
				"energy": -0.1139,
				"method": "rhf"
			},
			{
				"type": "unocc",
				"energy": -0.07829,
				"method": "rhf"
			},
			{
				"type": "unocc",
				"energy": -0.02683,
				"method": "rhf"
			},
			{
				"type": "unocc",
				"energy": 0.01957,
				"method": "rhf"
			},
			{
				"type": "unocc",
				"energy": 0.04136,
				"method": "rhf"
			}
		],
		"cosmo_sigma_profile": { 
			"-0.025": 0.0,
			"-0.024": 0.0,
			"-0.023": 0.0,
			"-0.022": 0.0,
			"-0.021": 0.0,
			"-0.02": 0.0,
			"-0.019": 0.0,
			"-0.018": 0.0,
			"-0.017": 0.0,
			"-0.016": 0.0110094144996,
			"-0.015": 0.730585918462,
			"-0.014": 2.16198418824,
			"-0.013": 2.23817387858,
			"-0.012": 2.33157175162,
			"-0.011": 1.83740097089,
			"-0.01": 1.95673653229,
			"-0.009": 2.23229095582,
			"-0.008": 5.9873854608,
			"-0.007": 9.54289690737,
			"-0.006": 11.2877618856,
			"-0.005": 10.3913040681,
			"-0.004": 11.7682145306,
			"-0.003": 7.86498538012,
			"-0.002": 9.48647488453,
			"-0.001": 9.463540123,
			"0.0": 10.3385723313,
			"0.001": 11.802269702,
			"0.002": 8.11701339675,
			"0.003": 5.5390376038,
			"0.004": 4.59649261168,
			"0.005": 4.33819540287,
			"0.006": 6.56973134459,
			"0.007": 7.00661767388,
			"0.008": 8.80279972339,
			"0.009": 9.55160371702,
			"0.01": 10.6849780163,
			"0.011": 4.47866279957,
			"0.012": 0.286289236335,
			"0.013": 0.0,
			"0.014": 0.0,
			"0.015": 0.0,
			"0.016": 0.0,
			"0.017": 0.0,
			"0.018": 0.0,
			"0.019": 0.0,
			"0.02": 0.0,
			"0.021": 0.0,
			"0.022": 0.0,
			"0.023": 0.0,
			"0.024": 0.0,
			"0.025": 0.0
		}
	}
}
