{
	 "smiles": "CC1=C2C(CCN)=CNC2=CC=C1", 
	 "Tm": 382.15, 
	 "num_atms": 27, 
	 "gaussian": { 
		 "optdone": 1, 
		 "sigma_profile": "yes", 
		 "theory": "DFT", 
		 "functional": "B3LYP", 
		 "basiset": "6-31G**", 
		 "properties": { 
			 "R2extent": 3180.7715, 
			 "electric_dipole_moment_norm": 2.42261655241, 
			 "electric_quadrupole_moment_norm": 9.77193762721, 
			 "total_energy": -537.119101975, 
			 "HOMO_LUMO_gap": 0.18755, 
			 "cosmo_polarized_energy": -10.44, 
			 "cosmo_cavitation_energy": 28.75, 
			 "cosmo_dispersion_energy": -21.39, 
			 "cosmo_repulsion_energy": 1.7, 
			 "cosmo_total_nonelectrostatic_energy": 9.06, 
			 "SMD_solvation_energy": 3.9 
		},
		"coords": [
			{
				"x": 1.4164974004,
				"y": -0.9810024534,
				"z": 0.1046991424,
				"element": "C" 
			},
			{
				"x": 0.6523332592,
				"y": 0.083428071,
				"z": -0.648571563,
				"element": "C" 
			},
			{
				"x": -0.3610183605,
				"y": 0.8695504285,
				"z": -0.0423503916,
				"element": "C" 
			},
			{
				"x": -0.9485275327,
				"y": 0.937195587,
				"z": 1.283636041,
				"element": "C" 
			},
			{
				"x": -0.5924111933,
				"y": 0.1118814718,
				"z": 2.4963102415,
				"element": "C" 
			},
			{
				"x": -0.9500275286,
				"y": 0.7257728879,
				"z": 3.8569677136,
				"element": "C" 
			},
			{
				"x": -2.4018432465,
				"y": 0.8460859341,
				"z": 4.0512794711,
				"element": "N" 
			},
			{
				"x": -1.9152612839,
				"y": 1.9123232046,
				"z": 1.2310825457,
				"element": "C" 
			},
			{
				"x": -1.9612409263,
				"y": 2.4642745338,
				"z": -0.033827779,
				"element": "N" 
			},
			{
				"x": -1.0264894607,
				"y": 1.8487867711,
				"z": -0.8362630292,
				"element": "C" 
			},
			{
				"x": -0.7249543363,
				"y": 2.0788408182,
				"z": -2.1829902224,
				"element": "C" 
			},
			{
				"x": 0.2709259785,
				"y": 1.2984566731,
				"z": -2.7509470589,
				"element": "C" 
			},
			{
				"x": 0.9408486567,
				"y": 0.3194478953,
				"z": -1.9916474287,
				"element": "C" 
			},
			{
				"x": 2.0591882883,
				"y": -1.5474419751,
				"z": -0.5752327435,
				"element": "H" 
			},
			{
				"x": 2.0614966788,
				"y": -0.5496798382,
				"z": 0.8799777389,
				"element": "H" 
			},
			{
				"x": 0.748285632,
				"y": -1.6924470124,
				"z": 0.6016072175,
				"element": "H" 
			},
			{
				"x": 0.4862998083,
				"y": -0.0742356771,
				"z": 2.5056476143,
				"element": "H" 
			},
			{
				"x": -1.0554475706,
				"y": -0.8867597108,
				"z": 2.4345336243,
				"element": "H" 
			},
			{
				"x": -0.5202760437,
				"y": 1.733115625,
				"z": 3.9167616487,
				"element": "H" 
			},
			{
				"x": -0.4565703442,
				"y": 0.1218305856,
				"z": 4.6389156236,
				"element": "H" 
			},
			{
				"x": -2.5961954584,
				"y": 1.2080634237,
				"z": 4.9818563123,
				"element": "H" 
			},
			{
				"x": -2.8281658271,
				"y": -0.0777049306,
				"z": 4.0101087961,
				"element": "H" 
			},
			{
				"x": -2.5853990439,
				"y": 2.2292727379,
				"z": 2.0157889147,
				"element": "H" 
			},
			{
				"x": -2.588337709,
				"y": 3.1949439773,
				"z": -0.326366544,
				"element": "H" 
			},
			{
				"x": -1.2525072727,
				"y": 2.8347631609,
				"z": -2.758328164,
				"element": "H" 
			},
			{
				"x": 0.5375021368,
				"y": 1.4387720076,
				"z": -3.7945660517,
				"element": "H" 
			},
			{
				"x": 1.712395299,
				"y": -0.2779341968,
				"z": -2.4711816693,
				"element": "H" 
			}
		],
		 "valence_orbital": [ 
			{
				"type": "occ",
				"energy": -0.31089,
				"method": "rhf"
			},
			{
				"type": "occ",
				"energy": -0.25197,
				"method": "rhf"
			},
			{
				"type": "occ",
				"energy": -0.23504,
				"method": "rhf"
			},
			{
				"type": "occ",
				"energy": -0.2056,
				"method": "rhf"
			},
			{
				"type": "occ",
				"energy": -0.18194,
				"method": "rhf"
			},
			{
				"type": "unocc",
				"energy": 0.00561,
				"method": "rhf"
			},
			{
				"type": "unocc",
				"energy": 0.0427,
				"method": "rhf"
			},
			{
				"type": "unocc",
				"energy": 0.07576,
				"method": "rhf"
			},
			{
				"type": "unocc",
				"energy": 0.08396,
				"method": "rhf"
			},
			{
				"type": "unocc",
				"energy": 0.09233,
				"method": "rhf"
			}
		],
		"cosmo_sigma_profile": { 
			"-0.025": 0.0,
			"-0.024": 0.0,
			"-0.023": 0.0,
			"-0.022": 0.0,
			"-0.021": 0.0,
			"-0.02": 0.0,
			"-0.019": 0.0,
			"-0.018": 0.0,
			"-0.017": 0.0,
			"-0.016": 0.0,
			"-0.015": 0.800084052938,
			"-0.014": 1.7162386199,
			"-0.013": 0.940283317011,
			"-0.012": 1.24628128565,
			"-0.011": 1.20801789052,
			"-0.01": 1.82574286502,
			"-0.009": 3.4191883019,
			"-0.008": 4.17017855043,
			"-0.007": 4.55062058,
			"-0.006": 5.16450284599,
			"-0.005": 7.75142731265,
			"-0.004": 13.3135608714,
			"-0.003": 19.2150621919,
			"-0.002": 23.6806969554,
			"-0.001": 24.2761847808,
			"0.0": 20.1816430774,
			"0.001": 12.9023312002,
			"0.002": 9.53785041225,
			"0.003": 8.98738020729,
			"0.004": 9.15767060042,
			"0.005": 12.19873381,
			"0.006": 13.9182710346,
			"0.007": 14.0209443086,
			"0.008": 7.29555471891,
			"0.009": 1.2517443671,
			"0.01": 0.730917821043,
			"0.011": 0.934999276524,
			"0.012": 0.821232529949,
			"0.013": 0.537017662105,
			"0.014": 0.0,
			"0.015": 0.0,
			"0.016": 0.0,
			"0.017": 0.0,
			"0.018": 0.0,
			"0.019": 0.0,
			"0.02": 0.0,
			"0.021": 0.0,
			"0.022": 0.0,
			"0.023": 0.0,
			"0.024": 0.0,
			"0.025": 0.0
		}
	}
}
