{
	 "smiles": "COC1=C(OC2=CC=C(C=C2)C(N)=S)C=CC=C1", 
	 "Tm": 467.15, 
	 "num_atms": 31, 
	 "gaussian": { 
		 "optdone": 1, 
		 "sigma_profile": "yes", 
		 "theory": "DFT", 
		 "functional": "B3LYP", 
		 "basiset": "6-31G**", 
		 "properties": { 
			 "R2extent": 7434.9166, 
			 "electric_dipole_moment_norm": 5.35492420208, 
			 "electric_quadrupole_moment_norm": 37.3858071162, 
			 "total_energy": -1144.69415863, 
			 "HOMO_LUMO_gap": 0.14851, 
			 "cosmo_polarized_energy": -18.31, 
			 "cosmo_cavitation_energy": 37.2, 
			 "cosmo_dispersion_energy": -26.56, 
			 "cosmo_repulsion_energy": 2.03, 
			 "cosmo_total_nonelectrostatic_energy": 12.67, 
			 "SMD_solvation_energy": 6.36 
		},
		"coords": [
			{
				"x": -2.1162896285,
				"y": -0.662005133,
				"z": -2.1322796156,
				"element": "C" 
			},
			{
				"x": -2.2671762765,
				"y": 0.292337071,
				"z": -1.0755556713,
				"element": "O" 
			},
			{
				"x": -2.1813957232,
				"y": -0.2192261657,
				"z": 0.1948182312,
				"element": "C" 
			},
			{
				"x": -0.953538143,
				"y": -0.6382556666,
				"z": 0.7354824871,
				"element": "C" 
			},
			{
				"x": 0.1890678312,
				"y": -0.6502725391,
				"z": -0.0536083108,
				"element": "O" 
			},
			{
				"x": 0.8678473475,
				"y": 0.5209622134,
				"z": -0.2949129682,
				"element": "C" 
			},
			{
				"x": 1.9550468747,
				"y": 0.4206442191,
				"z": -1.1700070029,
				"element": "C" 
			},
			{
				"x": 2.7093906428,
				"y": 1.5495666219,
				"z": -1.4628415041,
				"element": "C" 
			},
			{
				"x": 2.4050166583,
				"y": 2.7977226991,
				"z": -0.8859417191,
				"element": "C" 
			},
			{
				"x": 1.3217680313,
				"y": 2.8670221792,
				"z": 0.0041688542,
				"element": "C" 
			},
			{
				"x": 0.5510025636,
				"y": 1.7479174819,
				"z": 0.2973313069,
				"element": "C" 
			},
			{
				"x": 3.203853523,
				"y": 4.0105211881,
				"z": -1.1936354817,
				"element": "C" 
			},
			{
				"x": 3.8168200448,
				"y": 4.007153696,
				"z": -2.4030404873,
				"element": "N" 
			},
			{
				"x": 3.3900503541,
				"y": 5.2947118477,
				"z": -0.1401159631,
				"element": "S" 
			},
			{
				"x": -0.87870816,
				"y": -1.1146104174,
				"z": 2.0421657704,
				"element": "C" 
			},
			{
				"x": -2.0294562044,
				"y": -1.1667535166,
				"z": 2.8309691765,
				"element": "C" 
			},
			{
				"x": -3.250093951,
				"y": -0.7356551174,
				"z": 2.3088127807,
				"element": "C" 
			},
			{
				"x": -3.3248078422,
				"y": -0.2687157234,
				"z": 0.9954603155,
				"element": "C" 
			},
			{
				"x": -2.9070474164,
				"y": -1.4214728655,
				"z": -2.0865948044,
				"element": "H" 
			},
			{
				"x": -2.2078769321,
				"y": -0.1007743017,
				"z": -3.0640106701,
				"element": "H" 
			},
			{
				"x": -1.1386772843,
				"y": -1.1528744527,
				"z": -2.0943892145,
				"element": "H" 
			},
			{
				"x": 2.2006597981,
				"y": -0.5472748864,
				"z": -1.5941576799,
				"element": "H" 
			},
			{
				"x": 3.5742165446,
				"y": 1.4445545453,
				"z": -2.1112759786,
				"element": "H" 
			},
			{
				"x": 1.0906419587,
				"y": 3.8218246679,
				"z": 0.4635364985,
				"element": "H" 
			},
			{
				"x": -0.2883235728,
				"y": 1.8260954093,
				"z": 0.9779919638,
				"element": "H" 
			},
			{
				"x": 4.3410421278,
				"y": 4.8292032713,
				"z": -2.6648006123,
				"element": "H" 
			},
			{
				"x": 3.5239544573,
				"y": 3.3744894673,
				"z": -3.1328219294,
				"element": "H" 
			},
			{
				"x": 0.0851222724,
				"y": -1.4370802351,
				"z": 2.4228249142,
				"element": "H" 
			},
			{
				"x": -1.9679378247,
				"y": -1.5360455831,
				"z": 3.8498288887,
				"element": "H" 
			},
			{
				"x": -4.1471210388,
				"y": -0.7683514698,
				"z": 2.9196899473,
				"element": "H" 
			},
			{
				"x": -4.2628510321,
				"y": 0.069941495,
				"z": 0.5672084782,
				"element": "H" 
			}
		],
		 "valence_orbital": [ 
			{
				"type": "occ",
				"energy": -0.2585,
				"method": "rhf"
			},
			{
				"type": "occ",
				"energy": -0.24465,
				"method": "rhf"
			},
			{
				"type": "occ",
				"energy": -0.24042,
				"method": "rhf"
			},
			{
				"type": "occ",
				"energy": -0.21951,
				"method": "rhf"
			},
			{
				"type": "occ",
				"energy": -0.20079,
				"method": "rhf"
			},
			{
				"type": "unocc",
				"energy": -0.05228,
				"method": "rhf"
			},
			{
				"type": "unocc",
				"energy": -0.01611,
				"method": "rhf"
			},
			{
				"type": "unocc",
				"energy": -0.01113,
				"method": "rhf"
			},
			{
				"type": "unocc",
				"energy": -0.00581,
				"method": "rhf"
			},
			{
				"type": "unocc",
				"energy": 0.03262,
				"method": "rhf"
			}
		],
		"cosmo_sigma_profile": { 
			"-0.025": 0.0,
			"-0.024": 0.0,
			"-0.023": 0.0,
			"-0.022": 0.0,
			"-0.021": 0.0,
			"-0.02": 0.0,
			"-0.019": 0.0,
			"-0.018": 0.0,
			"-0.017": 0.0,
			"-0.016": 0.103186684385,
			"-0.015": 1.23482849877,
			"-0.014": 2.81303049276,
			"-0.013": 2.15054807559,
			"-0.012": 2.93490325023,
			"-0.011": 2.34761270796,
			"-0.01": 1.97514869251,
			"-0.009": 2.4131955048,
			"-0.008": 1.76252995694,
			"-0.007": 6.83347206398,
			"-0.006": 14.1933267383,
			"-0.005": 19.3171686277,
			"-0.004": 22.3152604989,
			"-0.003": 22.3317987875,
			"-0.002": 19.8716655603,
			"-0.001": 16.3301672553,
			"0.0": 21.5752106627,
			"0.001": 18.856585875,
			"0.002": 21.2176876257,
			"0.003": 25.5816503399,
			"0.004": 18.7670387954,
			"0.005": 11.1588271776,
			"0.006": 8.42539993057,
			"0.007": 6.30509713461,
			"0.008": 7.98607658762,
			"0.009": 7.29537505696,
			"0.01": 6.72503908645,
			"0.011": 4.67544309515,
			"0.012": 2.56891098706,
			"0.013": 0.0527952452892,
			"0.014": 0.0,
			"0.015": 0.0,
			"0.016": 0.0,
			"0.017": 0.0,
			"0.018": 0.0,
			"0.019": 0.0,
			"0.02": 0.0,
			"0.021": 0.0,
			"0.022": 0.0,
			"0.023": 0.0,
			"0.024": 0.0,
			"0.025": 0.0
		}
	}
}
