{
	 "smiles": "CCCOCC(C)OCC(C)O", 
	 "Tm": 280.23, 
	 "num_atms": 32, 
	 "gaussian": { 
		 "optdone": 1, 
		 "sigma_profile": "yes", 
		 "theory": "DFT", 
		 "functional": "B3LYP", 
		 "basiset": "6-31G**", 
		 "properties": { 
			 "R2extent": 3114.7189, 
			 "electric_dipole_moment_norm": 1.52156242724, 
			 "electric_quadrupole_moment_norm": 12.005719948, 
			 "total_energy": -580.664865887, 
			 "HOMO_LUMO_gap": 0.29697, 
			 "cosmo_polarized_energy": -10.67, 
			 "cosmo_cavitation_energy": 33.36, 
			 "cosmo_dispersion_energy": -22.31, 
			 "cosmo_repulsion_energy": 1.85, 
			 "cosmo_total_nonelectrostatic_energy": 12.9, 
			 "SMD_solvation_energy": 5.63 
		},
		"coords": [
			{
				"x": 2.677739057,
				"y": 2.3371015182,
				"z": -1.429585724,
				"element": "C" 
			},
			{
				"x": 2.4496151324,
				"y": 0.8222634936,
				"z": -1.3973818287,
				"element": "C" 
			},
			{
				"x": 1.9903430511,
				"y": 0.3345739549,
				"z": -0.0212620334,
				"element": "C" 
			},
			{
				"x": 1.838325888,
				"y": -1.0835238852,
				"z": 0.0314924185,
				"element": "O" 
			},
			{
				"x": 0.5847962749,
				"y": -1.5852703924,
				"z": -0.398185829,
				"element": "C" 
			},
			{
				"x": -0.4595279735,
				"y": -1.6948554522,
				"z": 0.7265115236,
				"element": "C" 
			},
			{
				"x": 0.0979516397,
				"y": -2.3779551011,
				"z": 1.9694645756,
				"element": "C" 
			},
			{
				"x": -0.9612111325,
				"y": -0.4195101783,
				"z": 1.1427630502,
				"element": "O" 
			},
			{
				"x": -1.9477534626,
				"y": 0.1539590898,
				"z": 0.3048826135,
				"element": "C" 
			},
			{
				"x": -2.6506020286,
				"y": 1.2862740655,
				"z": 1.062470244,
				"element": "C" 
			},
			{
				"x": -1.6913187319,
				"y": 2.383919542,
				"z": 1.5130954503,
				"element": "C" 
			},
			{
				"x": -3.7144118509,
				"y": 1.7972160284,
				"z": 0.2609760538,
				"element": "O" 
			},
			{
				"x": 3.0119331599,
				"y": 2.6682668583,
				"z": -2.4175403833,
				"element": "H" 
			},
			{
				"x": 1.7591964929,
				"y": 2.8851921321,
				"z": -1.1893502237,
				"element": "H" 
			},
			{
				"x": 3.4403977164,
				"y": 2.6401891894,
				"z": -0.7031557329,
				"element": "H" 
			},
			{
				"x": 3.3720102276,
				"y": 0.2918279247,
				"z": -1.6618456361,
				"element": "H" 
			},
			{
				"x": 1.7041001383,
				"y": 0.5445346337,
				"z": -2.1538984415,
				"element": "H" 
			},
			{
				"x": 1.0626018287,
				"y": 0.8340701498,
				"z": 0.2843958322,
				"element": "H" 
			},
			{
				"x": 2.7521636945,
				"y": 0.5796803883,
				"z": 0.7285303299,
				"element": "H" 
			},
			{
				"x": 0.1783131136,
				"y": -0.9916929817,
				"z": -1.2302095697,
				"element": "H" 
			},
			{
				"x": 0.7712036398,
				"y": -2.5946579596,
				"z": -0.7862904706,
				"element": "H" 
			},
			{
				"x": -1.2996749151,
				"y": -2.2886944102,
				"z": 0.3246721018,
				"element": "H" 
			},
			{
				"x": 0.9445843479,
				"y": -1.8099223772,
				"z": 2.3607441964,
				"element": "H" 
			},
			{
				"x": 0.4467438929,
				"y": -3.3873059345,
				"z": 1.7294402097,
				"element": "H" 
			},
			{
				"x": -0.6741071928,
				"y": -2.4458797905,
				"z": 2.7399498315,
				"element": "H" 
			},
			{
				"x": -2.6995416314,
				"y": -0.5942619446,
				"z": 0.0113063238,
				"element": "H" 
			},
			{
				"x": -1.5071222764,
				"y": 0.5607071516,
				"z": -0.6238997299,
				"element": "H" 
			},
			{
				"x": -3.1379470879,
				"y": 0.849369979,
				"z": 1.9412674587,
				"element": "H" 
			},
			{
				"x": -1.195926514,
				"y": 2.8437422866,
				"z": 0.6467371486,
				"element": "H" 
			},
			{
				"x": -2.2341618927,
				"y": 3.1660976955,
				"z": 2.0513188847,
				"element": "H" 
			},
			{
				"x": -0.9147633566,
				"y": 1.9743005596,
				"z": 2.1640722528,
				"element": "H" 
			},
			{
				"x": -3.3183492488,
				"y": 2.3106437665,
				"z": -0.4564848969,
				"element": "H" 
			}
		],
		 "valence_orbital": [ 
			{
				"type": "occ",
				"energy": -0.31558,
				"method": "rhf"
			},
			{
				"type": "occ",
				"energy": -0.29845,
				"method": "rhf"
			},
			{
				"type": "occ",
				"energy": -0.27451,
				"method": "rhf"
			},
			{
				"type": "occ",
				"energy": -0.26805,
				"method": "rhf"
			},
			{
				"type": "occ",
				"energy": -0.2341,
				"method": "rhf"
			},
			{
				"type": "unocc",
				"energy": 0.06287,
				"method": "rhf"
			},
			{
				"type": "unocc",
				"energy": 0.07527,
				"method": "rhf"
			},
			{
				"type": "unocc",
				"energy": 0.09594,
				"method": "rhf"
			},
			{
				"type": "unocc",
				"energy": 0.10359,
				"method": "rhf"
			},
			{
				"type": "unocc",
				"energy": 0.11961,
				"method": "rhf"
			}
		],
		"cosmo_sigma_profile": { 
			"-0.025": 0.0,
			"-0.024": 0.0,
			"-0.023": 0.0,
			"-0.022": 0.0,
			"-0.021": 0.0,
			"-0.02": 0.0,
			"-0.019": 0.0,
			"-0.018": 0.0,
			"-0.017": 0.0,
			"-0.016": 0.0,
			"-0.015": 0.487557032407,
			"-0.014": 0.956579037053,
			"-0.013": 1.14270215784,
			"-0.012": 1.02429617882,
			"-0.011": 0.665905684212,
			"-0.01": 0.841735192057,
			"-0.009": 1.12349016024,
			"-0.008": 1.23346152953,
			"-0.007": 1.58136689091,
			"-0.006": 1.49150887521,
			"-0.005": 2.58093166436,
			"-0.004": 24.1572400546,
			"-0.003": 32.2859309392,
			"-0.002": 34.2702438985,
			"-0.001": 34.889603217,
			"0.0": 31.8644999338,
			"0.001": 27.9132271656,
			"0.002": 11.1229197575,
			"0.003": 5.00190892641,
			"0.004": 6.29386126016,
			"0.005": 4.79180015894,
			"0.006": 4.46579243681,
			"0.007": 4.41560772988,
			"0.008": 4.04688141539,
			"0.009": 3.27702586315,
			"0.01": 2.70535314058,
			"0.011": 2.89230521889,
			"0.012": 2.38260971421,
			"0.013": 2.7100330862,
			"0.014": 3.25763718509,
			"0.015": 0.796418960407,
			"0.016": 0.0,
			"0.017": 0.0,
			"0.018": 0.0,
			"0.019": 0.0,
			"0.02": 0.0,
			"0.021": 0.0,
			"0.022": 0.0,
			"0.023": 0.0,
			"0.024": 0.0,
			"0.025": 0.0
		}
	}
}
