{
	 "smiles": "[O-][N+](=O)C=CC1=C(F)C=C(F)C=C1", 
	 "Tm": 329.15, 
	 "num_atms": 18, 
	 "gaussian": { 
		 "optdone": 1, 
		 "sigma_profile": "yes", 
		 "theory": "DFT", 
		 "functional": "B3LYP", 
		 "basiset": "6-31G**", 
		 "properties": { 
			 "R2extent": 3201.5671, 
			 "electric_dipole_moment_norm": 3.64599655924, 
			 "electric_quadrupole_moment_norm": 14.6806108797, 
			 "total_energy": -712.605234929, 
			 "HOMO_LUMO_gap": 0.15329, 
			 "cosmo_polarized_energy": -8.43, 
			 "cosmo_cavitation_energy": 24.51, 
			 "cosmo_dispersion_energy": -17.81, 
			 "cosmo_repulsion_energy": 1.35, 
			 "cosmo_total_nonelectrostatic_energy": 8.05, 
			 "SMD_solvation_energy": 7.78 
		},
		"coords": [
			{
				"x": -3.4348382388,
				"y": -1.4300517696,
				"z": 0.2958268,
				"element": "O" 
			},
			{
				"x": -2.8789728576,
				"y": -2.4197904451,
				"z": -0.1928868255,
				"element": "N" 
			},
			{
				"x": -3.4499878817,
				"y": -3.4908254056,
				"z": -0.4159648204,
				"element": "O" 
			},
			{
				"x": -1.4738490124,
				"y": -2.3922944284,
				"z": -0.5280187836,
				"element": "C" 
			},
			{
				"x": -0.5740486825,
				"y": -1.3877086617,
				"z": -0.459082599,
				"element": "C" 
			},
			{
				"x": -0.5402533939,
				"y": 0.0236505934,
				"z": -0.0975551671,
				"element": "C" 
			},
			{
				"x": 0.7330249414,
				"y": 0.6391296511,
				"z": -0.093731653,
				"element": "C" 
			},
			{
				"x": 1.8208973263,
				"y": -0.1000393547,
				"z": -0.3915480004,
				"element": "F" 
			},
			{
				"x": 0.9403015444,
				"y": 1.9760085517,
				"z": 0.2021406579,
				"element": "C" 
			},
			{
				"x": -0.1784977217,
				"y": 2.7443910809,
				"z": 0.5031110017,
				"element": "C" 
			},
			{
				"x": -0.0063448098,
				"y": 4.0423027236,
				"z": 0.7928580412,
				"element": "F" 
			},
			{
				"x": -1.4634264428,
				"y": 2.2077868169,
				"z": 0.5108922772,
				"element": "C" 
			},
			{
				"x": -1.6346812473,
				"y": 0.8615876736,
				"z": 0.2149854506,
				"element": "C" 
			},
			{
				"x": -1.1694798494,
				"y": -3.3704539639,
				"z": -0.8740261928,
				"element": "H" 
			},
			{
				"x": 0.4056908135,
				"y": -1.7432989523,
				"z": -0.767910386,
				"element": "H" 
			},
			{
				"x": 1.9365025922,
				"y": 2.4001838954,
				"z": 0.1965509456,
				"element": "H" 
			},
			{
				"x": -2.3082082871,
				"y": 2.8439550466,
				"z": 0.7484333868,
				"element": "H" 
			},
			{
				"x": -2.6234287929,
				"y": 0.4290669483,
				"z": 0.2214258667,
				"element": "H" 
			}
		],
		 "valence_orbital": [ 
			{
				"type": "occ",
				"energy": -0.30836,
				"method": "rhf"
			},
			{
				"type": "occ",
				"energy": -0.30692,
				"method": "rhf"
			},
			{
				"type": "occ",
				"energy": -0.28676,
				"method": "rhf"
			},
			{
				"type": "occ",
				"energy": -0.27948,
				"method": "rhf"
			},
			{
				"type": "occ",
				"energy": -0.25702,
				"method": "rhf"
			},
			{
				"type": "unocc",
				"energy": -0.10373,
				"method": "rhf"
			},
			{
				"type": "unocc",
				"energy": -0.03546,
				"method": "rhf"
			},
			{
				"type": "unocc",
				"energy": -0.02459,
				"method": "rhf"
			},
			{
				"type": "unocc",
				"energy": 0.04405,
				"method": "rhf"
			},
			{
				"type": "unocc",
				"energy": 0.06996,
				"method": "rhf"
			}
		],
		"cosmo_sigma_profile": { 
			"-0.025": 0.0,
			"-0.024": 0.0,
			"-0.023": 0.0,
			"-0.022": 0.0,
			"-0.021": 0.0,
			"-0.02": 0.0,
			"-0.019": 0.0,
			"-0.018": 0.0,
			"-0.017": 0.0,
			"-0.016": 0.0,
			"-0.015": 0.0,
			"-0.014": 0.0,
			"-0.013": 0.0,
			"-0.012": 0.0,
			"-0.011": 0.0,
			"-0.01": 0.835222720082,
			"-0.009": 4.85877547581,
			"-0.008": 6.07811509449,
			"-0.007": 4.60650233144,
			"-0.006": 6.5082538885,
			"-0.005": 8.45270634964,
			"-0.004": 9.48993640926,
			"-0.003": 12.1015030539,
			"-0.002": 16.0030853231,
			"-0.001": 26.7293261257,
			"0.0": 22.8725547531,
			"0.001": 14.3420915943,
			"0.002": 13.6110303325,
			"0.003": 18.0308569118,
			"0.004": 5.66345244385,
			"0.005": 2.51888893924,
			"0.006": 2.9248480555,
			"0.007": 4.45309760186,
			"0.008": 7.07630492575,
			"0.009": 5.82855126224,
			"0.01": 4.19855219861,
			"0.011": 1.28407972941,
			"0.012": 0.0,
			"0.013": 0.0,
			"0.014": 0.0,
			"0.015": 0.0,
			"0.016": 0.0,
			"0.017": 0.0,
			"0.018": 0.0,
			"0.019": 0.0,
			"0.02": 0.0,
			"0.021": 0.0,
			"0.022": 0.0,
			"0.023": 0.0,
			"0.024": 0.0,
			"0.025": 0.0
		}
	}
}
