{
	 "smiles": "CC(O)C1=CC=C(C=C1)C1=CC=CC=C1", 
	 "Tm": 370.15, 
	 "num_atms": 29, 
	 "gaussian": { 
		 "optdone": 1, 
		 "sigma_profile": "yes", 
		 "theory": "DFT", 
		 "functional": "B3LYP", 
		 "basiset": "6-31G**", 
		 "properties": { 
			 "R2extent": 4697.4181, 
			 "electric_dipole_moment_norm": 1.3278547398, 
			 "electric_quadrupole_moment_norm": 9.10748185724, 
			 "total_energy": -617.159735122, 
			 "HOMO_LUMO_gap": 0.19249, 
			 "cosmo_polarized_energy": -8.84, 
			 "cosmo_cavitation_energy": 32.25, 
			 "cosmo_dispersion_energy": -23.27, 
			 "cosmo_repulsion_energy": 1.82, 
			 "cosmo_total_nonelectrostatic_energy": 10.79, 
			 "SMD_solvation_energy": 5.29 
		},
		"coords": [
			{
				"x": -3.7033788359,
				"y": 2.466713655,
				"z": 2.5177855437,
				"element": "C" 
			},
			{
				"x": -2.7071531365,
				"y": 2.9332153581,
				"z": 1.4548269375,
				"element": "C" 
			},
			{
				"x": -1.9152229892,
				"y": 3.9468778127,
				"z": 2.0728035519,
				"element": "O" 
			},
			{
				"x": -1.8587579218,
				"y": 1.7886386481,
				"z": 0.9210248227,
				"element": "C" 
			},
			{
				"x": -0.6785008505,
				"y": 1.4085567152,
				"z": 1.5718964341,
				"element": "C" 
			},
			{
				"x": 0.0828407067,
				"y": 0.3408871235,
				"z": 1.1021039286,
				"element": "C" 
			},
			{
				"x": -0.3075297298,
				"y": -0.3857942275,
				"z": -0.0357273508,
				"element": "C" 
			},
			{
				"x": -1.4908838232,
				"y": 0.003318649,
				"z": -0.6862035698,
				"element": "C" 
			},
			{
				"x": -2.2495610827,
				"y": 1.0731588093,
				"z": -0.2165838228,
				"element": "C" 
			},
			{
				"x": 0.5056587846,
				"y": -1.5224957762,
				"z": -0.5378353024,
				"element": "C" 
			},
			{
				"x": 1.9100874899,
				"y": -1.4795166522,
				"z": -0.5001050479,
				"element": "C" 
			},
			{
				"x": 2.6733527731,
				"y": -2.547350504,
				"z": -0.9701467905,
				"element": "C" 
			},
			{
				"x": 2.0495970073,
				"y": -3.682651048,
				"z": -1.4910298158,
				"element": "C" 
			},
			{
				"x": 0.6553019171,
				"y": -3.7399897356,
				"z": -1.5361031969,
				"element": "C" 
			},
			{
				"x": -0.1074431134,
				"y": -2.6726982862,
				"z": -1.0640581697,
				"element": "C" 
			},
			{
				"x": -3.1695705326,
				"y": 2.0237465555,
				"z": 3.3637874064,
				"element": "H" 
			},
			{
				"x": -4.2873248069,
				"y": 3.3175502149,
				"z": 2.8808598535,
				"element": "H" 
			},
			{
				"x": -4.385318646,
				"y": 1.7175778257,
				"z": 2.1057914314,
				"element": "H" 
			},
			{
				"x": -3.2755384635,
				"y": 3.3602641745,
				"z": 0.611390475,
				"element": "H" 
			},
			{
				"x": -1.2476951588,
				"y": 4.2271031998,
				"z": 1.4324081532,
				"element": "H" 
			},
			{
				"x": -0.3637699106,
				"y": 1.9590195459,
				"z": 2.4534128367,
				"element": "H" 
			},
			{
				"x": 0.9810509028,
				"y": 0.0490105171,
				"z": 1.6386766027,
				"element": "H" 
			},
			{
				"x": -1.8003793439,
				"y": -0.5168472352,
				"z": -1.5880154192,
				"element": "H" 
			},
			{
				"x": -3.1519998918,
				"y": 1.3639040207,
				"z": -0.7503164268,
				"element": "H" 
			},
			{
				"x": 2.4061147653,
				"y": -0.5903621381,
				"z": -0.1221006963,
				"element": "H" 
			},
			{
				"x": 3.7577273294,
				"y": -2.4881540045,
				"z": -0.9378252645,
				"element": "H" 
			},
			{
				"x": 2.644026057,
				"y": -4.5143602256,
				"z": -1.8579206677,
				"element": "H" 
			},
			{
				"x": 0.1589508747,
				"y": -4.622071838,
				"z": -1.9310497203,
				"element": "H" 
			},
			{
				"x": -1.1913803709,
				"y": -2.7394511539,
				"z": -1.0784467161,
				"element": "H" 
			}
		],
		 "valence_orbital": [ 
			{
				"type": "occ",
				"energy": -0.27801,
				"method": "rhf"
			},
			{
				"type": "occ",
				"energy": -0.26465,
				"method": "rhf"
			},
			{
				"type": "occ",
				"energy": -0.25107,
				"method": "rhf"
			},
			{
				"type": "occ",
				"energy": -0.2498,
				"method": "rhf"
			},
			{
				"type": "occ",
				"energy": -0.22054,
				"method": "rhf"
			},
			{
				"type": "unocc",
				"energy": -0.02805,
				"method": "rhf"
			},
			{
				"type": "unocc",
				"energy": -0.00482,
				"method": "rhf"
			},
			{
				"type": "unocc",
				"energy": -0.00016,
				"method": "rhf"
			},
			{
				"type": "unocc",
				"energy": 0.02793,
				"method": "rhf"
			},
			{
				"type": "unocc",
				"energy": 0.08616,
				"method": "rhf"
			}
		],
		"cosmo_sigma_profile": { 
			"-0.025": 0.0,
			"-0.024": 0.0,
			"-0.023": 0.0,
			"-0.022": 0.0,
			"-0.021": 0.0,
			"-0.02": 0.0,
			"-0.019": 0.0,
			"-0.018": 0.0,
			"-0.017": 0.0,
			"-0.016": 0.0361401434897,
			"-0.015": 0.681616807752,
			"-0.014": 0.97459453075,
			"-0.013": 0.712093819349,
			"-0.012": 1.09928060741,
			"-0.011": 0.585326989848,
			"-0.01": 1.02084303713,
			"-0.009": 0.585201747104,
			"-0.008": 0.45927328641,
			"-0.007": 0.787689460005,
			"-0.006": 6.60937790844,
			"-0.005": 19.657748303,
			"-0.004": 24.3815242484,
			"-0.003": 27.0717196726,
			"-0.002": 19.6602606674,
			"-0.001": 21.7880766231,
			"0.0": 19.1786342757,
			"0.001": 18.4737084425,
			"0.002": 15.6149649522,
			"0.003": 16.950809358,
			"0.004": 17.5498778029,
			"0.005": 18.490546492,
			"0.006": 12.5503750427,
			"0.007": 1.48580931545,
			"0.008": 1.31777519614,
			"0.009": 1.38331680753,
			"0.01": 1.18133362629,
			"0.011": 0.848576347171,
			"0.012": 1.39968745602,
			"0.013": 1.68555446848,
			"0.014": 1.57216131389,
			"0.015": 0.0410520258556,
			"0.016": 0.0,
			"0.017": 0.0,
			"0.018": 0.0,
			"0.019": 0.0,
			"0.02": 0.0,
			"0.021": 0.0,
			"0.022": 0.0,
			"0.023": 0.0,
			"0.024": 0.0,
			"0.025": 0.0
		}
	}
}
