{
	 "smiles": "COC1=CC=C(NS(=O)(=O)C2=CC=C(C=CC(O)=O)C=C2)C=C1", 
	 "Tm": 512.15, 
	 "num_atms": 38, 
	 "gaussian": { 
		 "optdone": 1, 
		 "sigma_profile": "yes", 
		 "theory": "DFT", 
		 "functional": "B3LYP", 
		 "basiset": "6-31G**", 
		 "properties": { 
			 "R2extent": 11292.3076, 
			 "electric_dipole_moment_norm": 5.91536217826, 
			 "electric_quadrupole_moment_norm": 25.641441377, 
			 "total_energy": -1447.71590692, 
			 "HOMO_LUMO_gap": 0.12873, 
			 "cosmo_polarized_energy": -22.55, 
			 "cosmo_cavitation_energy": 44.87, 
			 "cosmo_dispersion_energy": -31.58, 
			 "cosmo_repulsion_energy": 2.37, 
			 "cosmo_total_nonelectrostatic_energy": 15.66, 
			 "SMD_solvation_energy": 8.71 
		},
		"coords": [
			{
				"x": -5.7098280214,
				"y": 1.0054252098,
				"z": -2.839152407,
				"element": "C" 
			},
			{
				"x": -4.7816434546,
				"y": -0.0626091936,
				"z": -2.7306570968,
				"element": "O" 
			},
			{
				"x": -3.4555540767,
				"y": 0.2159055596,
				"z": -2.8886797003,
				"element": "C" 
			},
			{
				"x": -2.9312357649,
				"y": 1.4896064488,
				"z": -3.1425423266,
				"element": "C" 
			},
			{
				"x": -1.5553147324,
				"y": 1.6597610564,
				"z": -3.3063770225,
				"element": "C" 
			},
			{
				"x": -0.686928522,
				"y": 0.5714354029,
				"z": -3.1851548824,
				"element": "C" 
			},
			{
				"x": 0.7159520665,
				"y": 0.7455800394,
				"z": -3.3800103708,
				"element": "N" 
			},
			{
				"x": 1.6652880108,
				"y": 1.6910465229,
				"z": -2.3365677267,
				"element": "S" 
			},
			{
				"x": 3.0297565179,
				"y": 1.5179005777,
				"z": -2.8354467633,
				"element": "O" 
			},
			{
				"x": 1.0181416811,
				"y": 2.9989462839,
				"z": -2.2404273922,
				"element": "O" 
			},
			{
				"x": 1.5657405785,
				"y": 0.9227540134,
				"z": -0.7156874006,
				"element": "C" 
			},
			{
				"x": 2.5285735243,
				"y": -0.0183399304,
				"z": -0.3415373362,
				"element": "C" 
			},
			{
				"x": 2.4399505544,
				"y": -0.6461605541,
				"z": 0.8972473729,
				"element": "C" 
			},
			{
				"x": 1.3822176255,
				"y": -0.3408077754,
				"z": 1.7791109599,
				"element": "C" 
			},
			{
				"x": 1.1768035745,
				"y": -0.9280801264,
				"z": 3.1074162939,
				"element": "C" 
			},
			{
				"x": 1.7982093107,
				"y": -1.863108796,
				"z": 3.8644846642,
				"element": "C" 
			},
			{
				"x": 2.9898541821,
				"y": -2.6901835365,
				"z": 3.5998411592,
				"element": "C" 
			},
			{
				"x": 3.2332255838,
				"y": -3.4968266278,
				"z": 4.6660552186,
				"element": "O" 
			},
			{
				"x": 3.7062316749,
				"y": -2.7194939454,
				"z": 2.6136914587,
				"element": "O" 
			},
			{
				"x": 0.4302446556,
				"y": 0.6205996942,
				"z": 1.374189219,
				"element": "C" 
			},
			{
				"x": 0.5119243234,
				"y": 1.2532020283,
				"z": 0.1394717569,
				"element": "C" 
			},
			{
				"x": -1.2161614922,
				"y": -0.7000930073,
				"z": -2.9158415134,
				"element": "C" 
			},
			{
				"x": -2.5864277061,
				"y": -0.8804550357,
				"z": -2.7848721972,
				"element": "C" 
			},
			{
				"x": -6.695603926,
				"y": 0.5648256719,
				"z": -2.6829935904,
				"element": "H" 
			},
			{
				"x": -5.6765246271,
				"y": 1.4718645069,
				"z": -3.8320994811,
				"element": "H" 
			},
			{
				"x": -5.5339080649,
				"y": 1.7747294107,
				"z": -2.0761365608,
				"element": "H" 
			},
			{
				"x": -3.5807164254,
				"y": 2.3516137371,
				"z": -3.2363663682,
				"element": "H" 
			},
			{
				"x": -1.1474295634,
				"y": 2.6395308719,
				"z": -3.5244624807,
				"element": "H" 
			},
			{
				"x": 1.2270966955,
				"y": -0.0948146806,
				"z": -3.6318361047,
				"element": "H" 
			},
			{
				"x": 3.3527541242,
				"y": -0.2376667869,
				"z": -1.0118764851,
				"element": "H" 
			},
			{
				"x": 3.1847772028,
				"y": -1.3722399145,
				"z": 1.194595114,
				"element": "H" 
			},
			{
				"x": 0.303840085,
				"y": -0.5013886156,
				"z": 3.6008628046,
				"element": "H" 
			},
			{
				"x": 1.3617772296,
				"y": -2.0610439775,
				"z": 4.8385018241,
				"element": "H" 
			},
			{
				"x": 4.0235375671,
				"y": -4.0121056058,
				"z": 4.4344885962,
				"element": "H" 
			},
			{
				"x": -0.3846239832,
				"y": 0.8768694161,
				"z": 2.0457707522,
				"element": "H" 
			},
			{
				"x": -0.213327921,
				"y": 2.0029616485,
				"z": -0.1544256468,
				"element": "H" 
			},
			{
				"x": -0.5491690509,
				"y": -1.5523253084,
				"z": -2.8134679368,
				"element": "H" 
			},
			{
				"x": -3.0072994363,
				"y": -1.8609146825,
				"z": -2.5887084039,
				"element": "H" 
			}
		],
		 "valence_orbital": [ 
			{
				"type": "occ",
				"energy": -0.2824,
				"method": "rhf"
			},
			{
				"type": "occ",
				"energy": -0.27253,
				"method": "rhf"
			},
			{
				"type": "occ",
				"energy": -0.2612,
				"method": "rhf"
			},
			{
				"type": "occ",
				"energy": -0.25336,
				"method": "rhf"
			},
			{
				"type": "occ",
				"energy": -0.216,
				"method": "rhf"
			},
			{
				"type": "unocc",
				"energy": -0.08727,
				"method": "rhf"
			},
			{
				"type": "unocc",
				"energy": -0.02187,
				"method": "rhf"
			},
			{
				"type": "unocc",
				"energy": -0.01536,
				"method": "rhf"
			},
			{
				"type": "unocc",
				"energy": -0.01229,
				"method": "rhf"
			},
			{
				"type": "unocc",
				"energy": 0.00249,
				"method": "rhf"
			}
		],
		"cosmo_sigma_profile": { 
			"-0.025": 0.0,
			"-0.024": 0.0,
			"-0.023": 0.0,
			"-0.022": 0.0,
			"-0.021": 0.0,
			"-0.02": 0.0,
			"-0.019": 0.0,
			"-0.018": 0.667439733563,
			"-0.017": 0.828733111303,
			"-0.016": 0.698401088217,
			"-0.015": 2.58222104726,
			"-0.014": 1.44746226168,
			"-0.013": 1.80167423197,
			"-0.012": 2.03592676341,
			"-0.011": 2.47724542126,
			"-0.01": 1.83166385981,
			"-0.009": 2.70070249775,
			"-0.008": 5.76271968978,
			"-0.007": 13.542502208,
			"-0.006": 20.1540764152,
			"-0.005": 24.3993943623,
			"-0.004": 19.3843395296,
			"-0.003": 21.5769714383,
			"-0.002": 19.8619940899,
			"-0.001": 20.5047086261,
			"0.0": 24.3918387451,
			"0.001": 29.8328030531,
			"0.002": 33.2791010926,
			"0.003": 21.3551208157,
			"0.004": 19.056902938,
			"0.005": 11.3773320485,
			"0.006": 8.37794643261,
			"0.007": 9.8672665198,
			"0.008": 7.52963918136,
			"0.009": 8.04827840987,
			"0.01": 11.6435837967,
			"0.011": 9.8160462394,
			"0.012": 2.28973174313,
			"0.013": 0.000879424799748,
			"0.014": 0.0,
			"0.015": 0.0,
			"0.016": 0.0,
			"0.017": 0.0,
			"0.018": 0.0,
			"0.019": 0.0,
			"0.02": 0.0,
			"0.021": 0.0,
			"0.022": 0.0,
			"0.023": 0.0,
			"0.024": 0.0,
			"0.0": 0.0
		}
	}
}
