{
	 "smiles": "ClC(=O)C1=CN=C(OC2=CC=CC=C2)C=C1", 
	 "Tm": 354.15, 
	 "num_atms": 24, 
	 "gaussian": { 
		 "optdone": 1, 
		 "sigma_profile": "yes", 
		 "theory": "DFT", 
		 "functional": "B3LYP", 
		 "basiset": "6-31G**", 
		 "properties": { 
			 "R2extent": 6125.4547, 
			 "electric_dipole_moment_norm": 5.66464558203, 
			 "electric_quadrupole_moment_norm": 15.8687796843, 
			 "total_energy": -1127.48675038, 
			 "HOMO_LUMO_gap": 0.18533, 
			 "cosmo_polarized_energy": -10.57, 
			 "cosmo_cavitation_energy": 31.63, 
			 "cosmo_dispersion_energy": -22.95, 
			 "cosmo_repulsion_energy": 1.78, 
			 "cosmo_total_nonelectrostatic_energy": 10.46, 
			 "SMD_solvation_energy": 4.76 
		},
		"coords": [
			{
				"x": -2.2614978786,
				"y": 0.6188128622,
				"z": 4.9577160484,
				"element": "Cl" 
			},
			{
				"x": -0.7244899068,
				"y": 1.5203381301,
				"z": 4.5008817733,
				"element": "C" 
			},
			{
				"x": -0.2452591009,
				"y": 2.2758121701,
				"z": 5.2922776646,
				"element": "O" 
			},
			{
				"x": -0.2094856827,
				"y": 1.217320566,
				"z": 3.1565064387,
				"element": "C" 
			},
			{
				"x": 0.9655682859,
				"y": 1.880335218,
				"z": 2.7549874545,
				"element": "C" 
			},
			{
				"x": 1.5453113421,
				"y": 1.7075159986,
				"z": 1.5724143124,
				"element": "N" 
			},
			{
				"x": 0.9735346572,
				"y": 0.8531874023,
				"z": 0.720859239,
				"element": "C" 
			},
			{
				"x": 1.6437487589,
				"y": 0.7513174117,
				"z": -0.4540779147,
				"element": "O" 
			},
			{
				"x": 1.1786700431,
				"y": -0.1013924899,
				"z": -1.4555532097,
				"element": "C" 
			},
			{
				"x": 1.6518660041,
				"y": -1.4114623225,
				"z": -1.5070281094,
				"element": "C" 
			},
			{
				"x": 1.243552217,
				"y": -2.2372532235,
				"z": -2.5559571738,
				"element": "C" 
			},
			{
				"x": 0.3754303428,
				"y": -1.7529622565,
				"z": -3.5371930364,
				"element": "C" 
			},
			{
				"x": -0.0842919709,
				"y": -0.4355741263,
				"z": -3.4730585489,
				"element": "C" 
			},
			{
				"x": 0.3166338862,
				"y": 0.4002674243,
				"z": -2.4292380781,
				"element": "C" 
			},
			{
				"x": -0.2003806402,
				"y": 0.1321455189,
				"z": 1.0067490293,
				"element": "C" 
			},
			{
				"x": -0.7920032939,
				"y": 0.3241243131,
				"z": 2.2442413345,
				"element": "C" 
			},
			{
				"x": 1.4426945249,
				"y": 2.5789922139,
				"z": 3.4374637177,
				"element": "H" 
			},
			{
				"x": 2.335262885,
				"y": -1.7634927827,
				"z": -0.7412107662,
				"element": "H" 
			},
			{
				"x": 1.6088845969,
				"y": -3.258524505,
				"z": -2.6067989828,
				"element": "H" 
			},
			{
				"x": 0.0629636814,
				"y": -2.3982351892,
				"z": -4.3524171073,
				"element": "H" 
			},
			{
				"x": -0.7532744827,
				"y": -0.0534503419,
				"z": -4.2382317878,
				"element": "H" 
			},
			{
				"x": -0.0186290175,
				"y": 1.4303843305,
				"z": -2.3669034859,
				"element": "H" 
			},
			{
				"x": -0.6260081631,
				"y": -0.5499009583,
				"z": 0.282158069,
				"element": "H" 
			},
			{
				"x": -1.6973010883,
				"y": -0.2105053641,
				"z": 2.5068131194,
				"element": "H" 
			}
		],
		 "valence_orbital": [ 
			{
				"type": "occ",
				"energy": -0.2988,
				"method": "rhf"
			},
			{
				"type": "occ",
				"energy": -0.2816,
				"method": "rhf"
			},
			{
				"type": "occ",
				"energy": -0.27495,
				"method": "rhf"
			},
			{
				"type": "occ",
				"energy": -0.26398,
				"method": "rhf"
			},
			{
				"type": "occ",
				"energy": -0.26254,
				"method": "rhf"
			},
			{
				"type": "unocc",
				"energy": -0.07721,
				"method": "rhf"
			},
			{
				"type": "unocc",
				"energy": -0.04566,
				"method": "rhf"
			},
			{
				"type": "unocc",
				"energy": -0.02223,
				"method": "rhf"
			},
			{
				"type": "unocc",
				"energy": -0.02059,
				"method": "rhf"
			},
			{
				"type": "unocc",
				"energy": 0.01702,
				"method": "rhf"
			}
		],
		"cosmo_sigma_profile": { 
			"-0.025": 0.0,
			"-0.024": 0.0,
			"-0.023": 0.0,
			"-0.022": 0.0,
			"-0.021": 0.0,
			"-0.02": 0.0,
			"-0.019": 0.0,
			"-0.018": 0.0,
			"-0.017": 0.0,
			"-0.016": 0.0,
			"-0.015": 0.0,
			"-0.014": 0.0,
			"-0.013": 0.0,
			"-0.012": 0.0,
			"-0.011": 0.0,
			"-0.01": 0.0,
			"-0.009": 0.20176798535,
			"-0.008": 3.23154561279,
			"-0.007": 9.32694252445,
			"-0.006": 15.0381368792,
			"-0.005": 16.1313920691,
			"-0.004": 20.5138391427,
			"-0.003": 20.5562855283,
			"-0.002": 23.8011350872,
			"-0.001": 20.8715928632,
			"0.0": 19.3843671967,
			"0.001": 16.4233916299,
			"0.002": 16.8635807346,
			"0.003": 17.8665804159,
			"0.004": 19.5368023118,
			"0.005": 10.4965968233,
			"0.006": 4.87654846196,
			"0.007": 4.54087012978,
			"0.008": 5.72236530564,
			"0.009": 4.71680182259,
			"0.01": 2.45295641479,
			"0.011": 1.82653912029,
			"0.012": 0.998203904724,
			"0.013": 1.21994950986,
			"0.014": 0.950236615118,
			"0.015": 0.318546757668,
			"0.016": 0.0,
			"0.017": 0.0,
			"0.018": 0.0,
			"0.019": 0.0,
			"0.02": 0.0,
			"0.021": 0.0,
			"0.022": 0.0,
			"0.023": 0.0,
			"0.024": 0.0,
			"0.025": 0.0
		}
	}
}
