{
	 "smiles": "CNC(=O)CCCl", 
	 "Tm": 337.15, 
	 "num_atms": 15, 
	 "gaussian": { 
		 "optdone": 1, 
		 "sigma_profile": "yes", 
		 "theory": "DFT", 
		 "functional": "B3LYP", 
		 "basiset": "6-31G**", 
		 "properties": { 
			 "R2extent": 1629.8325, 
			 "electric_dipole_moment_norm": 5.31793376792, 
			 "electric_quadrupole_moment_norm": 11.866395454, 
			 "total_energy": -747.426238974, 
			 "HOMO_LUMO_gap": 0.25693, 
			 "cosmo_polarized_energy": -15.58, 
			 "cosmo_cavitation_energy": 20.01, 
			 "cosmo_dispersion_energy": -14.7, 
			 "cosmo_repulsion_energy": 1.27, 
			 "cosmo_total_nonelectrostatic_energy": 6.58, 
			 "SMD_solvation_energy": 3.44 
		},
		"coords": [
			{
				"x": 1.0084820108,
				"y": 0.0156440714,
				"z": 1.4895172187,
				"element": "C" 
			},
			{
				"x": 1.4401235124,
				"y": -0.4013877731,
				"z": 0.1648179764,
				"element": "N" 
			},
			{
				"x": 0.6664300489,
				"y": -0.5443029157,
				"z": -0.9631996855,
				"element": "C" 
			},
			{
				"x": 1.1731972751,
				"y": -0.6187483063,
				"z": -2.0726769233,
				"element": "O" 
			},
			{
				"x": -0.8464226898,
				"y": -0.6490660751,
				"z": -0.7633717027,
				"element": "C" 
			},
			{
				"x": -1.323629307,
				"y": -1.9975101254,
				"z": -0.2200449265,
				"element": "C" 
			},
			{
				"x": -0.9735435121,
				"y": -3.3718555072,
				"z": -1.3491611707,
				"element": "Cl" 
			},
			{
				"x": 1.8434305563,
				"y": -0.1084602266,
				"z": 2.182778044,
				"element": "H" 
			},
			{
				"x": 0.1890489183,
				"y": -0.6069002276,
				"z": 1.8582104378,
				"element": "H" 
			},
			{
				"x": 0.6882506105,
				"y": 1.0662939818,
				"z": 1.5292959173,
				"element": "H" 
			},
			{
				"x": 2.4207739058,
				"y": -0.2920527946,
				"z": -0.0590919242,
				"element": "H" 
			},
			{
				"x": -1.2025725674,
				"y": 0.1245351458,
				"z": -0.0704173289,
				"element": "H" 
			},
			{
				"x": -1.2999816903,
				"y": -0.4624762988,
				"z": -1.7383316636,
				"element": "H" 
			},
			{
				"x": -0.8448985231,
				"y": -2.2556002403,
				"z": 0.7256095255,
				"element": "H" 
			},
			{
				"x": -2.4051885483,
				"y": -1.9891127083,
				"z": -0.0770337944,
				"element": "H" 
			}
		],
		 "valence_orbital": [ 
			{
				"type": "occ",
				"energy": -0.36515,
				"method": "rhf"
			},
			{
				"type": "occ",
				"energy": -0.29541,
				"method": "rhf"
			},
			{
				"type": "occ",
				"energy": -0.29314,
				"method": "rhf"
			},
			{
				"type": "occ",
				"energy": -0.25645,
				"method": "rhf"
			},
			{
				"type": "occ",
				"energy": -0.2448,
				"method": "rhf"
			},
			{
				"type": "unocc",
				"energy": 0.01213,
				"method": "rhf"
			},
			{
				"type": "unocc",
				"energy": 0.03012,
				"method": "rhf"
			},
			{
				"type": "unocc",
				"energy": 0.06781,
				"method": "rhf"
			},
			{
				"type": "unocc",
				"energy": 0.09054,
				"method": "rhf"
			},
			{
				"type": "unocc",
				"energy": 0.11529,
				"method": "rhf"
			}
		],
		"cosmo_sigma_profile": { 
			"-0.025": 0.0,
			"-0.024": 0.0,
			"-0.023": 0.0,
			"-0.022": 0.0,
			"-0.021": 0.0,
			"-0.02": 0.0,
			"-0.019": 0.0,
			"-0.018": 0.0,
			"-0.017": 0.0,
			"-0.016": 0.0,
			"-0.015": 0.0,
			"-0.014": 0.165548231594,
			"-0.013": 0.933606662151,
			"-0.012": 1.18359404507,
			"-0.011": 0.839345273872,
			"-0.01": 0.861364964784,
			"-0.009": 1.42861858074,
			"-0.008": 4.21935205254,
			"-0.007": 9.89166985784,
			"-0.006": 13.6626219157,
			"-0.005": 13.9574049138,
			"-0.004": 13.8628674618,
			"-0.003": 12.3190520371,
			"-0.002": 11.5609161877,
			"-0.001": 5.53271068366,
			"0.0": 4.55616947254,
			"0.001": 4.33846865786,
			"0.002": 5.60732792217,
			"0.003": 5.88856212908,
			"0.004": 6.15321881132,
			"0.005": 6.22640822988,
			"0.006": 10.0803359123,
			"0.007": 5.52754749397,
			"0.008": 1.75824936647,
			"0.009": 1.95636848893,
			"0.01": 2.0627400616,
			"0.011": 1.90241719176,
			"0.012": 2.12555401896,
			"0.013": 3.32734622887,
			"0.014": 5.52286391671,
			"0.015": 1.70292454233,
			"0.016": 0.0,
			"0.017": 0.0,
			"0.018": 0.0,
			"0.019": 0.0,
			"0.02": 0.0,
			"0.021": 0.0,
			"0.022": 0.0,
			"0.023": 0.0,
			"0.024": 0.0,
			"0.025": 0.0
		}
	}
}
