{
	 "smiles": "NC1=C(Br)N=C(C=C1)C(O)=O", 
	 "Tm": 480.15, 
	 "num_atms": 16, 
	 "gaussian": { 
		 "optdone": 1, 
		 "sigma_profile": "yes", 
		 "theory": "DFT", 
		 "functional": "B3LYP", 
		 "basiset": "6-31G**", 
		 "properties": { 
			 "R2extent": 3003.3696, 
			 "electric_dipole_moment_norm": 4.05079706848, 
			 "electric_quadrupole_moment_norm": 16.6918383014, 
			 "total_energy": -3063.0230445, 
			 "HOMO_LUMO_gap": 0.1777, 
			 "cosmo_polarized_energy": -17.12, 
			 "cosmo_cavitation_energy": 23.49, 
			 "cosmo_dispersion_energy": -18.05, 
			 "cosmo_repulsion_energy": 1.47, 
			 "cosmo_total_nonelectrostatic_energy": 6.91, 
			 "SMD_solvation_energy": 3.09 
		},
		"coords": [
			{
				"x": -0.5221204979,
				"y": -2.5117026145,
				"z": 2.5471208782,
				"element": "N" 
			},
			{
				"x": -0.707567444,
				"y": -1.4121379562,
				"z": 1.7564693171,
				"element": "C" 
			},
			{
				"x": 0.3733724451,
				"y": -0.6984289834,
				"z": 1.1733629076,
				"element": "C" 
			},
			{
				"x": 2.1649912209,
				"y": -1.3706841808,
				"z": 1.467842764,
				"element": "Br" 
			},
			{
				"x": 0.2591393224,
				"y": 0.3767187894,
				"z": 0.4457055687,
				"element": "N" 
			},
			{
				"x": -0.967729618,
				"y": 0.8729999649,
				"z": 0.2088832629,
				"element": "C" 
			},
			{
				"x": -2.1169677647,
				"y": 0.2619943826,
				"z": 0.7206908776,
				"element": "C" 
			},
			{
				"x": -1.984508957,
				"y": -0.8815314757,
				"z": 1.4935167592,
				"element": "C" 
			},
			{
				"x": -1.1117505989,
				"y": 2.099687892,
				"z": -0.6208230244,
				"element": "C" 
			},
			{
				"x": 0.0601773544,
				"y": 2.6016393692,
				"z": -1.0581751747,
				"element": "O" 
			},
			{
				"x": -2.1868977663,
				"y": 2.6079886556,
				"z": -0.8836417911,
				"element": "O" 
			},
			{
				"x": -1.3113895045,
				"y": -3.11283177,
				"z": 2.7242329535,
				"element": "H" 
			},
			{
				"x": 0.3872601022,
				"y": -2.949808004,
				"z": 2.5335586275,
				"element": "H" 
			},
			{
				"x": -3.0872147706,
				"y": 0.6927582286,
				"z": 0.503093197,
				"element": "H" 
			},
			{
				"x": -2.8602624863,
				"y": -1.3747214664,
				"z": 1.9067095124,
				"element": "H" 
			},
			{
				"x": -0.1744310367,
				"y": 3.3880591687,
				"z": -1.5781466356,
				"element": "H" 
			}
		],
		 "valence_orbital": [ 
			{
				"type": "occ",
				"energy": -0.30007,
				"method": "rhf"
			},
			{
				"type": "occ",
				"energy": -0.286,
				"method": "rhf"
			},
			{
				"type": "occ",
				"energy": -0.27853,
				"method": "rhf"
			},
			{
				"type": "occ",
				"energy": -0.26538,
				"method": "rhf"
			},
			{
				"type": "occ",
				"energy": -0.22959,
				"method": "rhf"
			},
			{
				"type": "unocc",
				"energy": -0.05189,
				"method": "rhf"
			},
			{
				"type": "unocc",
				"energy": -0.03121,
				"method": "rhf"
			},
			{
				"type": "unocc",
				"energy": 0.00235,
				"method": "rhf"
			},
			{
				"type": "unocc",
				"energy": 0.05459,
				"method": "rhf"
			},
			{
				"type": "unocc",
				"energy": 0.0693,
				"method": "rhf"
			}
		],
		"cosmo_sigma_profile": { 
			"-0.025": 0.0,
			"-0.024": 0.0,
			"-0.023": 0.0,
			"-0.022": 0.0,
			"-0.021": 0.0,
			"-0.02": 0.0,
			"-0.019": 0.0463533916496,
			"-0.018": 0.822477686943,
			"-0.017": 0.84961225529,
			"-0.016": 0.560082512101,
			"-0.015": 1.73178808829,
			"-0.014": 2.79330263957,
			"-0.013": 2.38812598329,
			"-0.012": 2.92474428701,
			"-0.011": 3.31119488008,
			"-0.01": 3.25722359129,
			"-0.009": 3.33388166282,
			"-0.008": 4.73363684208,
			"-0.007": 4.89837246538,
			"-0.006": 6.21006870055,
			"-0.005": 5.73807983615,
			"-0.004": 5.4327942188,
			"-0.003": 6.70643569489,
			"-0.002": 10.911319915,
			"-0.001": 14.8282819741,
			"0.0": 18.3074923176,
			"0.001": 16.5306862864,
			"0.002": 11.8920989659,
			"0.003": 9.85280813256,
			"0.004": 12.3137768322,
			"0.005": 6.99878304673,
			"0.006": 4.40058549325,
			"0.007": 3.72972607123,
			"0.008": 4.59906999395,
			"0.009": 3.72092248162,
			"0.01": 3.31614825888,
			"0.011": 4.98176401917,
			"0.012": 5.75850730994,
			"0.013": 1.46351406531,
			"0.014": 1.18174871175,
			"0.015": 0.814170578799,
			"0.016": 0.0958482344936,
			"0.017": 0.0,
			"0.018": 0.0,
			"0.019": 0.0,
			"0.02": 0.0,
			"0.021": 0.0,
			"0.022": 0.0,
			"0.023": 0.0,
			"0.024": 0.0,
			"0.025": 0.0
		}
	}
}
