{
	 "smiles": "CCOC(=O)C1=CC2=CC3=C(C=C2N=C1C)N=C(C)C(=C3)C(=O)OCC", 
	 "Tm": 440.15, 
	 "num_atms": 46, 
	 "gaussian": { 
		 "optdone": 1, 
		 "sigma_profile": "yes", 
		 "theory": "DFT", 
		 "functional": "B3LYP", 
		 "basiset": "6-31G**", 
		 "properties": { 
			 "R2extent": 16053.9106, 
			 "electric_dipole_moment_norm": 6.21754051374, 
			 "electric_quadrupole_moment_norm": 5.27703747855, 
			 "total_energy": -1184.64304494, 
			 "HOMO_LUMO_gap": 0.13016, 
			 "cosmo_polarized_energy": -15.91, 
			 "cosmo_cavitation_energy": 50.39, 
			 "cosmo_dispersion_energy": -36.14, 
			 "cosmo_repulsion_energy": 2.74, 
			 "cosmo_total_nonelectrostatic_energy": 16.98, 
			 "SMD_solvation_energy": 7.44 
		},
		"coords": [
			{
				"x": -2.4586292084,
				"y": -5.9480938786,
				"z": 2.2337619045,
				"element": "C" 
			},
			{
				"x": -1.0851774983,
				"y": -5.922574135,
				"z": 2.8769482687,
				"element": "C" 
			},
			{
				"x": -0.4287701975,
				"y": -4.7073392265,
				"z": 2.4505900816,
				"element": "O" 
			},
			{
				"x": 0.8227734467,
				"y": -4.5148371681,
				"z": 2.9324230567,
				"element": "C" 
			},
			{
				"x": 1.3640745521,
				"y": -5.3105214295,
				"z": 3.6764519594,
				"element": "O" 
			},
			{
				"x": 1.421033088,
				"y": -3.2388598589,
				"z": 2.4413062923,
				"element": "C" 
			},
			{
				"x": 0.7000493061,
				"y": -2.4245002249,
				"z": 1.5990690471,
				"element": "C" 
			},
			{
				"x": 1.2519722487,
				"y": -1.2069485557,
				"z": 1.1215167263,
				"element": "C" 
			},
			{
				"x": 0.5665891404,
				"y": -0.3388528577,
				"z": 0.263474502,
				"element": "C" 
			},
			{
				"x": 1.1671924504,
				"y": 0.8482138313,
				"z": -0.1721185606,
				"element": "C" 
			},
			{
				"x": 2.49935897,
				"y": 1.1805277267,
				"z": 0.2644057143,
				"element": "C" 
			},
			{
				"x": 3.1814532067,
				"y": 0.3097525338,
				"z": 1.1225101065,
				"element": "C" 
			},
			{
				"x": 2.5842994761,
				"y": -0.8783466538,
				"z": 1.5603346063,
				"element": "C" 
			},
			{
				"x": 3.2907844015,
				"y": -1.7007635742,
				"z": 2.4005390273,
				"element": "N" 
			},
			{
				"x": 2.7600636153,
				"y": -2.8242755116,
				"z": 2.8307915032,
				"element": "C" 
			},
			{
				"x": 3.6276107445,
				"y": -3.6466676695,
				"z": 3.748173916,
				"element": "C" 
			},
			{
				"x": 3.1243540813,
				"y": 2.3331249666,
				"z": -0.1385191331,
				"element": "N" 
			},
			{
				"x": 2.5126083244,
				"y": 3.1732256456,
				"z": -0.9441426495,
				"element": "C" 
			},
			{
				"x": 3.2955336048,
				"y": 4.4047548766,
				"z": -1.3195827362,
				"element": "C" 
			},
			{
				"x": 1.1668956569,
				"y": 2.9219287555,
				"z": -1.4365782869,
				"element": "C" 
			},
			{
				"x": 0.5270750136,
				"y": 1.7700688392,
				"z": -1.0413400776,
				"element": "C" 
			},
			{
				"x": 0.4765991717,
				"y": 3.8784260149,
				"z": -2.3507934868,
				"element": "C" 
			},
			{
				"x": 0.9408959958,
				"y": 4.9245455195,
				"z": -2.762822017,
				"element": "O" 
			},
			{
				"x": -0.7638741506,
				"y": 3.451723612,
				"z": -2.6895043951,
				"element": "O" 
			},
			{
				"x": -1.5059525289,
				"y": 4.3202496555,
				"z": -3.5751916794,
				"element": "C" 
			},
			{
				"x": -2.8516877449,
				"y": 3.6685459071,
				"z": -3.8300812387,
				"element": "C" 
			},
			{
				"x": -2.9904036538,
				"y": -6.856642015,
				"z": 2.5327673943,
				"element": "H" 
			},
			{
				"x": -2.3809446343,
				"y": -5.9395886636,
				"z": 1.1426624162,
				"element": "H" 
			},
			{
				"x": -3.0535329193,
				"y": -5.0844448682,
				"z": 2.5448958431,
				"element": "H" 
			},
			{
				"x": -0.4731402416,
				"y": -6.7786324061,
				"z": 2.5761371459,
				"element": "H" 
			},
			{
				"x": -1.141707826,
				"y": -5.9284369043,
				"z": 3.9699726856,
				"element": "H" 
			},
			{
				"x": -0.3001945004,
				"y": -2.7133273234,
				"z": 1.2954549647,
				"element": "H" 
			},
			{
				"x": -0.4392599927,
				"y": -0.5883610233,
				"z": -0.0669813258,
				"element": "H" 
			},
			{
				"x": 4.1835710366,
				"y": 0.5583068321,
				"z": 1.4517251365,
				"element": "H" 
			},
			{
				"x": 3.1456101554,
				"y": -3.804900691,
				"z": 4.7169022837,
				"element": "H" 
			},
			{
				"x": 4.5742005643,
				"y": -3.1219944505,
				"z": 3.8827159538,
				"element": "H" 
			},
			{
				"x": 3.807025092,
				"y": -4.6446037429,
				"z": 3.3385918112,
				"element": "H" 
			},
			{
				"x": 4.2660739936,
				"y": 4.3552855871,
				"z": -0.8245849957,
				"element": "H" 
			},
			{
				"x": 3.4301992758,
				"y": 4.4767739323,
				"z": -2.4024062783,
				"element": "H" 
			},
			{
				"x": 2.7698469472,
				"y": 5.316877005,
				"z": -1.0238200554,
				"element": "H" 
			},
			{
				"x": -0.4764111069,
				"y": 1.5619140184,
				"z": -1.3959953137,
				"element": "H" 
			},
			{
				"x": -0.9327619059,
				"y": 4.4569013608,
				"z": -4.4975177343,
				"element": "H" 
			},
			{
				"x": -1.6065140672,
				"y": 5.302802898,
				"z": -3.1035789243,
				"element": "H" 
			},
			{
				"x": -3.4077599645,
				"y": 3.5390005511,
				"z": -2.8970168599,
				"element": "H" 
			},
			{
				"x": -2.7299585284,
				"y": 2.6878700389,
				"z": -4.2991841585,
				"element": "H" 
			},
			{
				"x": -3.4465628904,
				"y": 4.2975927243,
				"z": -4.4994624403,
				"element": "H" 
			}
		],
		 "valence_orbital": [ 
			{
				"type": "occ",
				"energy": -0.2762,
				"method": "rhf"
			},
			{
				"type": "occ",
				"energy": -0.25603,
				"method": "rhf"
			},
			{
				"type": "occ",
				"energy": -0.25564,
				"method": "rhf"
			},
			{
				"type": "occ",
				"energy": -0.25261,
				"method": "rhf"
			},
			{
				"type": "occ",
				"energy": -0.22273,
				"method": "rhf"
			},
			{
				"type": "unocc",
				"energy": -0.09257,
				"method": "rhf"
			},
			{
				"type": "unocc",
				"energy": -0.05958,
				"method": "rhf"
			},
			{
				"type": "unocc",
				"energy": -0.01973,
				"method": "rhf"
			},
			{
				"type": "unocc",
				"energy": -0.01045,
				"method": "rhf"
			},
			{
				"type": "unocc",
				"energy": 0.02309,
				"method": "rhf"
			}
		],
		"cosmo_sigma_profile": { 
			"-0.025": 0.0,
			"-0.024": 0.0,
			"-0.023": 0.0,
			"-0.022": 0.0,
			"-0.021": 0.0,
			"-0.02": 0.0,
			"-0.019": 0.0,
			"-0.018": 0.0,
			"-0.017": 0.0,
			"-0.016": 0.0,
			"-0.015": 0.0,
			"-0.014": 0.0,
			"-0.013": 0.0,
			"-0.012": 0.0,
			"-0.011": 0.0,
			"-0.01": 0.0,
			"-0.009": 1.21028883543,
			"-0.008": 5.51027021734,
			"-0.007": 4.51911848021,
			"-0.006": 5.20550040946,
			"-0.005": 15.7065610135,
			"-0.004": 35.4384220967,
			"-0.003": 47.2683419412,
			"-0.002": 44.9255203299,
			"-0.001": 50.8585082871,
			"0.0": 59.2215070551,
			"0.001": 30.3276204494,
			"0.002": 20.5220393116,
			"0.003": 13.7340905722,
			"0.004": 11.1915926137,
			"0.005": 10.0612242941,
			"0.006": 6.35317757318,
			"0.007": 5.90429056927,
			"0.008": 5.40880184054,
			"0.009": 5.50912244154,
			"0.01": 5.63659267157,
			"0.011": 6.04723278958,
			"0.012": 6.37781736077,
			"0.013": 1.75390210835,
			"0.014": 1.33361949316,
			"0.015": 0.39564810597,
			"0.016": 0.0,
			"0.017": 0.0,
			"0.018": 0.0,
			"0.019": 0.0,
			"0.02": 0.0,
			"0.021": 0.0,
			"0.022": 0.0,
			"0.023": 0.0,
			"0.024": 0.0,
			"0.025": 0.0
		}
	}
}
