{
	 "smiles": "COC1=C(OCC(=O)NC2CC2)C=C(N)C=C1", 
	 "Tm": 361.15, 
	 "num_atms": 33, 
	 "gaussian": { 
		 "optdone": 1, 
		 "sigma_profile": "yes", 
		 "theory": "DFT", 
		 "functional": "B3LYP", 
		 "basiset": "6-31G**", 
		 "properties": { 
			 "R2extent": 4962.9428, 
			 "electric_dipole_moment_norm": 3.72237408786, 
			 "electric_quadrupole_moment_norm": 21.8562762771, 
			 "total_energy": -802.050071009, 
			 "HOMO_LUMO_gap": 0.19856, 
			 "cosmo_polarized_energy": -17.09, 
			 "cosmo_cavitation_energy": 36.43, 
			 "cosmo_dispersion_energy": -24.6, 
			 "cosmo_repulsion_energy": 1.95, 
			 "cosmo_total_nonelectrostatic_energy": 13.78, 
			 "SMD_solvation_energy": 6.79 
		},
		"coords": [
			{
				"x": 1.1115789123,
				"y": 1.7405610865,
				"z": -0.3612750975,
				"element": "C" 
			},
			{
				"x": 0.0509267024,
				"y": 0.922427722,
				"z": 0.1509955189,
				"element": "O" 
			},
			{
				"x": 0.4133535653,
				"y": 0.1274996604,
				"z": 1.2290275596,
				"element": "C" 
			},
			{
				"x": 1.0781217992,
				"y": -1.0918783373,
				"z": 1.0180132511,
				"element": "C" 
			},
			{
				"x": 1.4576210274,
				"y": -1.3895346633,
				"z": -0.2728117275,
				"element": "O" 
			},
			{
				"x": 1.0442814693,
				"y": -2.6416403819,
				"z": -0.82738231,
				"element": "C" 
			},
			{
				"x": -0.3568174119,
				"y": -2.6382228814,
				"z": -1.4555251459,
				"element": "C" 
			},
			{
				"x": -0.8215519411,
				"y": -3.6898691424,
				"z": -1.8817833159,
				"element": "O" 
			},
			{
				"x": -0.9730196977,
				"y": -1.4328714945,
				"z": -1.5191893151,
				"element": "N" 
			},
			{
				"x": -2.2798638674,
				"y": -1.2847295074,
				"z": -2.0947890681,
				"element": "C" 
			},
			{
				"x": -3.5051765515,
				"y": -1.353028972,
				"z": -1.2151870064,
				"element": "C" 
			},
			{
				"x": -3.0418658983,
				"y": -0.0284856179,
				"z": -1.7789734872,
				"element": "C" 
			},
			{
				"x": 1.3818170049,
				"y": -1.9216521665,
				"z": 2.0962930028,
				"element": "C" 
			},
			{
				"x": 1.0143549721,
				"y": -1.5581860951,
				"z": 3.4032822773,
				"element": "C" 
			},
			{
				"x": 1.3694267111,
				"y": -2.3665297666,
				"z": 4.4853743466,
				"element": "N" 
			},
			{
				"x": 0.3462072028,
				"y": -0.3383851671,
				"z": 3.6055707886,
				"element": "C" 
			},
			{
				"x": 0.0587768316,
				"y": 0.4925807801,
				"z": 2.5254342668,
				"element": "C" 
			},
			{
				"x": 1.9379047719,
				"y": 1.125460505,
				"z": -0.7323254204,
				"element": "H" 
			},
			{
				"x": 1.4814752723,
				"y": 2.4232785598,
				"z": 0.4130904118,
				"element": "H" 
			},
			{
				"x": 0.686631872,
				"y": 2.3201797731,
				"z": -1.1836518155,
				"element": "H" 
			},
			{
				"x": 1.0702286079,
				"y": -3.4470173697,
				"z": -0.0873407209,
				"element": "H" 
			},
			{
				"x": 1.7664917035,
				"y": -2.8845157982,
				"z": -1.6117371267,
				"element": "H" 
			},
			{
				"x": -0.5004776013,
				"y": -0.6127615941,
				"z": -1.1513488763,
				"element": "H" 
			},
			{
				"x": -2.3671573886,
				"y": -1.707043506,
				"z": -3.0922666946,
				"element": "H" 
			},
			{
				"x": -3.343680577,
				"y": -1.532603887,
				"z": -0.1572087175,
				"element": "H" 
			},
			{
				"x": -4.3991247344,
				"y": -1.8128734742,
				"z": -1.6250978355,
				"element": "H" 
			},
			{
				"x": -3.6171358093,
				"y": 0.4349506904,
				"z": -2.5744797912,
				"element": "H" 
			},
			{
				"x": -2.576993362,
				"y": 0.6732862276,
				"z": -1.0919812353,
				"element": "H" 
			},
			{
				"x": 1.9252135107,
				"y": -2.8461604023,
				"z": 1.9241404878,
				"element": "H" 
			},
			{
				"x": 1.4907411717,
				"y": -3.3463803448,
				"z": 4.2691696494,
				"element": "H" 
			},
			{
				"x": 0.8115712053,
				"y": -2.2338276544,
				"z": 5.3176332052,
				"element": "H" 
			},
			{
				"x": 0.0568277577,
				"y": -0.0424578396,
				"z": 4.6101452432,
				"element": "H" 
			},
			{
				"x": -0.4701872309,
				"y": 1.4291310587,
				"z": 2.6730846985,
				"element": "H" 
			}
		],
		 "valence_orbital": [ 
			{
				"type": "occ",
				"energy": -0.28084,
				"method": "rhf"
			},
			{
				"type": "occ",
				"energy": -0.25061,
				"method": "rhf"
			},
			{
				"type": "occ",
				"energy": -0.23113,
				"method": "rhf"
			},
			{
				"type": "occ",
				"energy": -0.22597,
				"method": "rhf"
			},
			{
				"type": "occ",
				"energy": -0.20351,
				"method": "rhf"
			},
			{
				"type": "unocc",
				"energy": -0.00495,
				"method": "rhf"
			},
			{
				"type": "unocc",
				"energy": 0.01298,
				"method": "rhf"
			},
			{
				"type": "unocc",
				"energy": 0.03793,
				"method": "rhf"
			},
			{
				"type": "unocc",
				"energy": 0.07183,
				"method": "rhf"
			},
			{
				"type": "unocc",
				"energy": 0.08519,
				"method": "rhf"
			}
		],
		"cosmo_sigma_profile": { 
			"-0.025": 0.0,
			"-0.024": 0.0,
			"-0.023": 0.0,
			"-0.022": 0.0,
			"-0.021": 0.0,
			"-0.02": 0.0,
			"-0.019": 0.0,
			"-0.018": 0.0,
			"-0.017": 0.0,
			"-0.016": 0.0,
			"-0.015": 0.0,
			"-0.014": 0.0,
			"-0.013": 0.545648457503,
			"-0.012": 2.45207128607,
			"-0.011": 3.13108606073,
			"-0.01": 2.2935172075,
			"-0.009": 3.78696883155,
			"-0.008": 4.39496332932,
			"-0.007": 7.7460962918,
			"-0.006": 10.5812227249,
			"-0.005": 19.0159756034,
			"-0.004": 23.5863630402,
			"-0.003": 26.6386056437,
			"-0.002": 23.5285642249,
			"-0.001": 23.1550096604,
			"0.0": 19.5143824099,
			"0.001": 18.4334942032,
			"0.002": 15.7041641478,
			"0.003": 14.345388031,
			"0.004": 14.2910549669,
			"0.005": 14.5909498376,
			"0.006": 8.85706107761,
			"0.007": 4.67302229153,
			"0.008": 3.41692908314,
			"0.009": 3.03618057396,
			"0.01": 2.25066207902,
			"0.011": 2.89707373968,
			"0.012": 2.15040142244,
			"0.013": 3.60135233182,
			"0.014": 6.63862249753,
			"0.015": 2.48903742491,
			"0.016": 0.00262117384049,
			"0.017": 0.0,
			"0.018": 0.0,
			"0.019": 0.0,
			"0.02": 0.0,
			"0.021": 0.0,
			"0.022": 0.0,
			"0.023": 0.0,
			"0.024": 0.0,
			"0.025": 0.0
		}
	}
}
