{
	 "smiles": "NCC(O)C1=CC(F)=C(Cl)C=C1", 
	 "Tm": 328.15, 
	 "num_atms": 21, 
	 "gaussian": { 
		 "optdone": 1, 
		 "sigma_profile": "yes", 
		 "theory": "DFT", 
		 "functional": "B3LYP", 
		 "basiset": "6-31G**", 
		 "properties": { 
			 "R2extent": 5474.2061, 
			 "electric_dipole_moment_norm": 4.66501142764, 
			 "electric_quadrupole_moment_norm": 14.2436498539, 
			 "total_energy": -1000.26924873, 
			 "HOMO_LUMO_gap": 0.21877, 
			 "cosmo_polarized_energy": -10.1, 
			 "cosmo_cavitation_energy": 26.77, 
			 "cosmo_dispersion_energy": -19.74, 
			 "cosmo_repulsion_energy": 1.59, 
			 "cosmo_total_nonelectrostatic_energy": 8.62, 
			 "SMD_solvation_energy": 4.07 
		},
		"coords": [
			{
				"x": 2.1157563217,
				"y": -0.5564955917,
				"z": 0.451672072,
				"element": "N" 
			},
			{
				"x": 1.0301444613,
				"y": 0.430637435,
				"z": 0.3962048845,
				"element": "C" 
			},
			{
				"x": -0.013100894,
				"y": 0.0639079499,
				"z": 1.478357537,
				"element": "C" 
			},
			{
				"x": -0.317721804,
				"y": -1.3091239009,
				"z": 1.3688882638,
				"element": "O" 
			},
			{
				"x": -1.2702817387,
				"y": 0.8966970838,
				"z": 1.3320827858,
				"element": "C" 
			},
			{
				"x": -1.3009507861,
				"y": 2.2083351963,
				"z": 1.8178202738,
				"element": "C" 
			},
			{
				"x": -2.434589498,
				"y": 2.9899176521,
				"z": 1.6374845475,
				"element": "C" 
			},
			{
				"x": -2.4455562226,
				"y": 4.2473258546,
				"z": 2.1104917918,
				"element": "F" 
			},
			{
				"x": -3.5582282156,
				"y": 2.4853868677,
				"z": 0.9808593125,
				"element": "C" 
			},
			{
				"x": -4.9715221143,
				"y": 3.4931159334,
				"z": 0.7785544967,
				"element": "Cl" 
			},
			{
				"x": -3.5344425272,
				"y": 1.1751314802,
				"z": 0.5037637003,
				"element": "C" 
			},
			{
				"x": -2.3966963752,
				"y": 0.3874876823,
				"z": 0.6767467406,
				"element": "C" 
			},
			{
				"x": 2.7739789412,
				"y": -0.3332445338,
				"z": 1.1940313509,
				"element": "H" 
			},
			{
				"x": 2.6391176774,
				"y": -0.5777504466,
				"z": -0.4175290064,
				"element": "H" 
			},
			{
				"x": 0.5463567405,
				"y": 0.3467088478,
				"z": -0.5825151602,
				"element": "H" 
			},
			{
				"x": 1.3528633496,
				"y": 1.4751944982,
				"z": 0.519606588,
				"element": "H" 
			},
			{
				"x": 0.4343181165,
				"y": 0.2819012243,
				"z": 2.4666439684,
				"element": "H" 
			},
			{
				"x": 0.5214705229,
				"y": -1.7095699409,
				"z": 1.0718697994,
				"element": "H" 
			},
			{
				"x": -0.4574699737,
				"y": 2.6394591682,
				"z": 2.349068225,
				"element": "H" 
			},
			{
				"x": -4.4112178466,
				"y": 0.780321491,
				"z": 0.0017286476,
				"element": "H" 
			},
			{
				"x": -2.3758281351,
				"y": -0.6357439508,
				"z": 0.3211691813,
				"element": "H" 
			}
		],
		 "valence_orbital": [ 
			{
				"type": "occ",
				"energy": -0.31192,
				"method": "rhf"
			},
			{
				"type": "occ",
				"energy": -0.27738,
				"method": "rhf"
			},
			{
				"type": "occ",
				"energy": -0.26558,
				"method": "rhf"
			},
			{
				"type": "occ",
				"energy": -0.25485,
				"method": "rhf"
			},
			{
				"type": "occ",
				"energy": -0.23639,
				"method": "rhf"
			},
			{
				"type": "unocc",
				"energy": -0.01762,
				"method": "rhf"
			},
			{
				"type": "unocc",
				"energy": -0.00394,
				"method": "rhf"
			},
			{
				"type": "unocc",
				"energy": 0.02796,
				"method": "rhf"
			},
			{
				"type": "unocc",
				"energy": 0.06163,
				"method": "rhf"
			},
			{
				"type": "unocc",
				"energy": 0.09961,
				"method": "rhf"
			}
		],
		"cosmo_sigma_profile": { 
			"-0.025": 0.0,
			"-0.024": 0.0,
			"-0.023": 0.0,
			"-0.022": 0.0,
			"-0.021": 0.0,
			"-0.02": 0.0,
			"-0.019": 0.0,
			"-0.018": 0.0,
			"-0.017": 0.0,
			"-0.016": 0.0,
			"-0.015": 0.0,
			"-0.014": 0.0,
			"-0.013": 0.0,
			"-0.012": 0.00410790239416,
			"-0.011": 1.51211641802,
			"-0.01": 3.2493998724,
			"-0.009": 2.52029531557,
			"-0.008": 4.54405932903,
			"-0.007": 7.74243782316,
			"-0.006": 8.66274944305,
			"-0.005": 10.2027640583,
			"-0.004": 14.4263569852,
			"-0.003": 12.6657116452,
			"-0.002": 11.4636255423,
			"-0.001": 14.6175254528,
			"0.0": 16.9640922452,
			"0.001": 18.6920718816,
			"0.002": 19.265763926,
			"0.003": 20.8944362231,
			"0.004": 21.9463760299,
			"0.005": 8.92429023651,
			"0.006": 2.38250812778,
			"0.007": 2.16999664511,
			"0.008": 2.6589943574,
			"0.009": 2.13921338278,
			"0.01": 1.38885515101,
			"0.011": 1.03750141019,
			"0.012": 1.10812162216,
			"0.013": 1.25597038378,
			"0.014": 0.933778808982,
			"0.015": 0.528270825075,
			"0.016": 0.0,
			"0.017": 0.0,
			"0.018": 0.0,
			"0.019": 0.0,
			"0.02": 0.0,
			"0.021": 0.0,
			"0.022": 0.0,
			"0.023": 0.0,
			"0.024": 0.0,
			"0.025": 0.0
		}
	}
}
