{
	 "smiles": "CC1=CC(=CC(O)=N1)C(O)=O", 
	 "Tm": 513.15, 
	 "num_atms": 18, 
	 "gaussian": { 
		 "optdone": 1, 
		 "sigma_profile": "yes", 
		 "theory": "DFT", 
		 "functional": "B3LYP", 
		 "basiset": "6-31G**", 
		 "properties": { 
			 "R2extent": 2410.7466, 
			 "electric_dipole_moment_norm": 3.6873801228, 
			 "electric_quadrupole_moment_norm": 15.9881581547, 
			 "total_energy": -551.404639955, 
			 "HOMO_LUMO_gap": 0.1822, 
			 "cosmo_polarized_energy": -15.16, 
			 "cosmo_cavitation_energy": 22.94, 
			 "cosmo_dispersion_energy": -17.08, 
			 "cosmo_repulsion_energy": 1.38, 
			 "cosmo_total_nonelectrostatic_energy": 7.25, 
			 "SMD_solvation_energy": 4.46 
		},
		"coords": [
			{
				"x": -1.9094069934,
				"y": -0.8707073552,
				"z": 1.0745524004,
				"element": "C" 
			},
			{
				"x": -0.8471554812,
				"y": -0.5182742782,
				"z": 0.0670419442,
				"element": "C" 
			},
			{
				"x": -0.1855684878,
				"y": -1.4921419932,
				"z": -0.6801422389,
				"element": "C" 
			},
			{
				"x": 0.8031850046,
				"y": -1.0951887316,
				"z": -1.5908201835,
				"element": "C" 
			},
			{
				"x": 1.0836010357,
				"y": 0.2598134689,
				"z": -1.7452026952,
				"element": "C" 
			},
			{
				"x": 0.3538162201,
				"y": 1.1588632084,
				"z": -0.9520536218,
				"element": "C" 
			},
			{
				"x": 0.6021502756,
				"y": 2.4793904581,
				"z": -1.0889704423,
				"element": "O" 
			},
			{
				"x": -0.5710828015,
				"y": 0.7946099031,
				"z": -0.0729638259,
				"element": "N" 
			},
			{
				"x": 1.5004216497,
				"y": -2.1645545184,
				"z": -2.3883694279,
				"element": "C" 
			},
			{
				"x": 2.7191501028,
				"y": -1.846940204,
				"z": -2.8931345519,
				"element": "O" 
			},
			{
				"x": 1.0231045023,
				"y": -3.2561677699,
				"z": -2.5823226337,
				"element": "O" 
			},
			{
				"x": -2.0873260988,
				"y": -1.9476302583,
				"z": 1.1117959401,
				"element": "H" 
			},
			{
				"x": -2.8491299988,
				"y": -0.3664964149,
				"z": 0.8269907839,
				"element": "H" 
			},
			{
				"x": -1.6157230498,
				"y": -0.5284311984,
				"z": 2.0724848672,
				"element": "H" 
			},
			{
				"x": -0.4184467155,
				"y": -2.5446124881,
				"z": -0.5736108557,
				"element": "H" 
			},
			{
				"x": 1.7926844701,
				"y": 0.6485454037,
				"z": -2.4684525132,
				"element": "H" 
			},
			{
				"x": 0.002323241,
				"y": 2.9303488574,
				"z": -0.4732002393,
				"element": "H" 
			},
			{
				"x": 3.0205031248,
				"y": -1.0005260894,
				"z": -2.5337227067,
				"element": "H" 
			}
		],
		 "valence_orbital": [ 
			{
				"type": "occ",
				"energy": -0.32448,
				"method": "rhf"
			},
			{
				"type": "occ",
				"energy": -0.29959,
				"method": "rhf"
			},
			{
				"type": "occ",
				"energy": -0.28761,
				"method": "rhf"
			},
			{
				"type": "occ",
				"energy": -0.27933,
				"method": "rhf"
			},
			{
				"type": "occ",
				"energy": -0.24888,
				"method": "rhf"
			},
			{
				"type": "unocc",
				"energy": -0.06668,
				"method": "rhf"
			},
			{
				"type": "unocc",
				"energy": -0.01472,
				"method": "rhf"
			},
			{
				"type": "unocc",
				"energy": 0.03862,
				"method": "rhf"
			},
			{
				"type": "unocc",
				"energy": 0.06097,
				"method": "rhf"
			},
			{
				"type": "unocc",
				"energy": 0.08043,
				"method": "rhf"
			}
		],
		"cosmo_sigma_profile": { 
			"-0.025": 0.0,
			"-0.024": 0.0,
			"-0.023": 0.0,
			"-0.022": 0.0,
			"-0.021": 0.0,
			"-0.02": 0.0,
			"-0.019": 0.519752505635,
			"-0.018": 0.87750238651,
			"-0.017": 1.70756873204,
			"-0.016": 1.71868953004,
			"-0.015": 2.3499628278,
			"-0.014": 1.5411993523,
			"-0.013": 1.59445422983,
			"-0.012": 1.38062821391,
			"-0.011": 1.9751953443,
			"-0.01": 2.00651640405,
			"-0.009": 2.13814370418,
			"-0.008": 1.61546208578,
			"-0.007": 2.77282340538,
			"-0.006": 5.85470493982,
			"-0.005": 9.78287580092,
			"-0.004": 10.0411788487,
			"-0.003": 9.74978805458,
			"-0.002": 11.1753618599,
			"-0.001": 16.3690466952,
			"0.0": 20.3032393346,
			"0.001": 13.6441921188,
			"0.002": 8.66971400344,
			"0.003": 5.51086277845,
			"0.004": 4.45938888189,
			"0.005": 4.59253703662,
			"0.006": 4.10112368988,
			"0.007": 6.18038615028,
			"0.008": 5.50925882691,
			"0.009": 6.12483690071,
			"0.01": 7.82624216441,
			"0.011": 6.1635097384,
			"0.012": 3.8291729347,
			"0.013": 0.731533227986,
			"0.014": 0.0,
			"0.015": 0.0,
			"0.016": 0.0,
			"0.017": 0.0,
			"0.018": 0.0,
			"0.019": 0.0,
			"0.02": 0.0,
			"0.021": 0.0,
			"0.022": 0.0,
			"0.023": 0.0,
			"0.024": 0.0,
			"0.025": 0.0
		}
	}
}
