{
	 "smiles": "COC1=C(C=C(C=C1)C(O)=O)S(=O)(=O)NCC1=CC=NC=C1", 
	 "Tm": 499.15, 
	 "num_atms": 36, 
	 "gaussian": { 
		 "optdone": 1, 
		 "sigma_profile": "yes", 
		 "theory": "DFT", 
		 "functional": "B3LYP", 
		 "basiset": "6-31G**", 
		 "properties": { 
			 "R2extent": 6699.1899, 
			 "electric_dipole_moment_norm": 5.89207216351, 
			 "electric_quadrupole_moment_norm": 30.5284544437, 
			 "total_energy": -1425.6535116, 
			 "HOMO_LUMO_gap": 0.19803, 
			 "cosmo_polarized_energy": -30.09, 
			 "cosmo_cavitation_energy": 42.01, 
			 "cosmo_dispersion_energy": -27.58, 
			 "cosmo_repulsion_energy": 2.06, 
			 "cosmo_total_nonelectrostatic_energy": 16.49, 
			 "SMD_solvation_energy": 6.0 
		},
		"coords": [
			{
				"x": 0.398397028,
				"y": 3.153037199,
				"z": 1.2012459835,
				"element": "C" 
			},
			{
				"x": 0.0695304202,
				"y": 1.797559931,
				"z": 1.5072724839,
				"element": "O" 
			},
			{
				"x": -0.473928445,
				"y": 1.0212194545,
				"z": 0.5389581539,
				"element": "C" 
			},
			{
				"x": -0.7976279991,
				"y": -0.3036524802,
				"z": 0.8961481717,
				"element": "C" 
			},
			{
				"x": -1.3484931707,
				"y": -1.1723701737,
				"z": -0.0392737074,
				"element": "C" 
			},
			{
				"x": -1.5948098642,
				"y": -0.7467091367,
				"z": -1.3504049187,
				"element": "C" 
			},
			{
				"x": -1.24945791,
				"y": 0.5629129198,
				"z": -1.7062092848,
				"element": "C" 
			},
			{
				"x": -0.7007964596,
				"y": 1.4423503895,
				"z": -0.7791420748,
				"element": "C" 
			},
			{
				"x": -2.1684510861,
				"y": -1.6315991625,
				"z": -2.4136123756,
				"element": "C" 
			},
			{
				"x": -2.8004042291,
				"y": -2.7619618282,
				"z": -2.0049343047,
				"element": "O" 
			},
			{
				"x": -2.0853093772,
				"y": -1.378079281,
				"z": -3.5930391603,
				"element": "O" 
			},
			{
				"x": -0.5748725442,
				"y": -0.9083795944,
				"z": 2.5805613705,
				"element": "S" 
			},
			{
				"x": -1.4191485228,
				"y": -0.1006456796,
				"z": 3.4559432982,
				"element": "O" 
			},
			{
				"x": -0.7052422806,
				"y": -2.366935999,
				"z": 2.5022431901,
				"element": "O" 
			},
			{
				"x": 1.0006401655,
				"y": -0.5964079296,
				"z": 3.0456878405,
				"element": "N" 
			},
			{
				"x": 2.1281151034,
				"y": -1.3844248122,
				"z": 2.5196808424,
				"element": "C" 
			},
			{
				"x": 2.7465938231,
				"y": -0.8353301782,
				"z": 1.2472985752,
				"element": "C" 
			},
			{
				"x": 3.5966867742,
				"y": 0.2767502952,
				"z": 1.2861900744,
				"element": "C" 
			},
			{
				"x": 4.1196909374,
				"y": 0.7763007316,
				"z": 0.0938761529,
				"element": "C" 
			},
			{
				"x": 3.8610723329,
				"y": 0.2493749638,
				"z": -1.110223398,
				"element": "N" 
			},
			{
				"x": 3.0586202232,
				"y": -0.8214657401,
				"z": -1.1420507487,
				"element": "C" 
			},
			{
				"x": 2.4844840622,
				"y": -1.3960668104,
				"z": -0.0058921617,
				"element": "C" 
			},
			{
				"x": 1.1746937356,
				"y": 3.2065141702,
				"z": 0.4299679856,
				"element": "H" 
			},
			{
				"x": 0.7744542158,
				"y": 3.58189358,
				"z": 2.1300509258,
				"element": "H" 
			},
			{
				"x": -0.4875031117,
				"y": 3.7097177593,
				"z": 0.8780793327,
				"element": "H" 
			},
			{
				"x": -1.5405346444,
				"y": -2.1900960948,
				"z": 0.2878294139,
				"element": "H" 
			},
			{
				"x": -1.4170230749,
				"y": 0.8777922557,
				"z": -2.7305286126,
				"element": "H" 
			},
			{
				"x": -0.4459549987,
				"y": 2.4490329868,
				"z": -1.0860128673,
				"element": "H" 
			},
			{
				"x": -2.9346316129,
				"y": -2.7558494625,
				"z": -1.0471433516,
				"element": "H" 
			},
			{
				"x": 1.1511950365,
				"y": 0.40608217,
				"z": 3.1114835194,
				"element": "H" 
			},
			{
				"x": 2.8821538628,
				"y": -1.417763589,
				"z": 3.3139489037,
				"element": "H" 
			},
			{
				"x": 1.764024536,
				"y": -2.403740972,
				"z": 2.3766227635,
				"element": "H" 
			},
			{
				"x": 3.8593147289,
				"y": 0.74462398,
				"z": 2.2321884659,
				"element": "H" 
			},
			{
				"x": 4.785650507,
				"y": 1.6378094067,
				"z": 0.107023719,
				"element": "H" 
			},
			{
				"x": 2.8622485604,
				"y": -1.2447897216,
				"z": -2.1254158996,
				"element": "H" 
			},
			{
				"x": 1.8422232778,
				"y": -2.2665035475,
				"z": -0.1013183011,
				"element": "H" 
			}
		],
		 "valence_orbital": [ 
			{
				"type": "occ",
				"energy": -0.28352,
				"method": "rhf"
			},
			{
				"type": "occ",
				"energy": -0.2799,
				"method": "rhf"
			},
			{
				"type": "occ",
				"energy": -0.27748,
				"method": "rhf"
			},
			{
				"type": "occ",
				"energy": -0.26592,
				"method": "rhf"
			},
			{
				"type": "occ",
				"energy": -0.25852,
				"method": "rhf"
			},
			{
				"type": "unocc",
				"energy": -0.06049,
				"method": "rhf"
			},
			{
				"type": "unocc",
				"energy": -0.05023,
				"method": "rhf"
			},
			{
				"type": "unocc",
				"energy": -0.04258,
				"method": "rhf"
			},
			{
				"type": "unocc",
				"energy": -0.02785,
				"method": "rhf"
			},
			{
				"type": "unocc",
				"energy": 0.03315,
				"method": "rhf"
			}
		],
		"cosmo_sigma_profile": { 
			"-0.025": 0.0,
			"-0.024": 0.0,
			"-0.023": 0.0,
			"-0.022": 0.0,
			"-0.021": 0.0,
			"-0.02": 0.144112840241,
			"-0.019": 0.789793809952,
			"-0.018": 0.970685756465,
			"-0.017": 1.14037233253,
			"-0.016": 0.99674804021,
			"-0.015": 0.405518427469,
			"-0.014": 1.00870512864,
			"-0.013": 1.7451200707,
			"-0.012": 1.92076804671,
			"-0.011": 2.09675782643,
			"-0.01": 2.10195753626,
			"-0.009": 2.84904274318,
			"-0.008": 6.90386740898,
			"-0.007": 18.3348975994,
			"-0.006": 26.3755808155,
			"-0.005": 25.2939300673,
			"-0.004": 24.6787788221,
			"-0.003": 19.5821510657,
			"-0.002": 16.5731866773,
			"-0.001": 16.6464473786,
			"0.0": 22.0503692319,
			"0.001": 24.4898596572,
			"0.002": 18.2789386096,
			"0.003": 9.19850772003,
			"0.004": 7.82338145874,
			"0.005": 8.5548186855,
			"0.006": 6.30874691303,
			"0.007": 7.44172440089,
			"0.008": 9.30026709446,
			"0.009": 10.2143442018,
			"0.01": 12.9898507454,
			"0.011": 15.7434037926,
			"0.012": 7.42507538073,
			"0.013": 2.38903549132,
			"0.014": 1.06846042494,
			"0.015": 0.576323195462,
			"0.016": 0.944191644594,
			"0.017": 0.342682717111,
			"0.018": 0.0,
			"0.019": 0.0,
			"0.02": 0.0,
			"0.021": 0.0,
			"0.022": 0.0,
			"0.023": 0.0,
			"0.024": 0.0,
			"0.0": 0.0
		}
	}
}
