{
	 "smiles": "CN1C2CCC1C(C(O)C2)C(O)=O", 
	 "Tm": 478.15, 
	 "num_atms": 28, 
	 "gaussian": { 
		 "optdone": 1, 
		 "sigma_profile": "yes", 
		 "theory": "DFT", 
		 "functional": "B3LYP", 
		 "basiset": "6-31G**", 
		 "properties": { 
			 "R2extent": 2525.0222, 
			 "electric_dipole_moment_norm": 3.10134703959, 
			 "electric_quadrupole_moment_norm": 13.0295151483, 
			 "total_energy": -632.418181604, 
			 "HOMO_LUMO_gap": 0.21278, 
			 "cosmo_polarized_energy": -11.34, 
			 "cosmo_cavitation_energy": 27.82, 
			 "cosmo_dispersion_energy": -20.72, 
			 "cosmo_repulsion_energy": 1.63, 
			 "cosmo_total_nonelectrostatic_energy": 8.73, 
			 "SMD_solvation_energy": 3.41 
		},
		"coords": [
			{
				"x": -1.2146979922,
				"y": 1.5525975766,
				"z": -2.028153634,
				"element": "C" 
			},
			{
				"x": -1.0015631861,
				"y": 1.1443566553,
				"z": -0.6433991376,
				"element": "N" 
			},
			{
				"x": -0.072786991,
				"y": 2.0186921128,
				"z": 0.1090757882,
				"element": "C" 
			},
			{
				"x": 1.3516037577,
				"y": 1.5890261144,
				"z": -0.3589849623,
				"element": "C" 
			},
			{
				"x": 1.1704532129,
				"y": 0.1026149373,
				"z": -0.7685233376,
				"element": "C" 
			},
			{
				"x": -0.3425144295,
				"y": -0.1699121764,
				"z": -0.5051933814,
				"element": "C" 
			},
			{
				"x": -0.5996568687,
				"y": -0.6680048722,
				"z": 0.9522999367,
				"element": "C" 
			},
			{
				"x": -1.1024813615,
				"y": 0.4791837319,
				"z": 1.8675836928,
				"element": "C" 
			},
			{
				"x": -0.9860360062,
				"y": 0.1390830543,
				"z": 3.2384261007,
				"element": "O" 
			},
			{
				"x": -0.3028852702,
				"y": 1.7625996087,
				"z": 1.6245313667,
				"element": "C" 
			},
			{
				"x": -1.5400465134,
				"y": -1.8529147472,
				"z": 1.0700717108,
				"element": "C" 
			},
			{
				"x": -1.4459606746,
				"y": -2.7312151465,
				"z": 0.0476479747,
				"element": "O" 
			},
			{
				"x": -2.2924529668,
				"y": -2.0520013754,
				"z": 2.007819601,
				"element": "O" 
			},
			{
				"x": -1.8963232852,
				"y": 0.8456932384,
				"z": -2.5120158394,
				"element": "H" 
			},
			{
				"x": -0.3000965849,
				"y": 1.6135821498,
				"z": -2.6440596042,
				"element": "H" 
			},
			{
				"x": -1.6923707102,
				"y": 2.5373746478,
				"z": -2.042046608,
				"element": "H" 
			},
			{
				"x": -0.2795110617,
				"y": 3.0653434937,
				"z": -0.1314003132,
				"element": "H" 
			},
			{
				"x": 1.6730961834,
				"y": 2.190915286,
				"z": -1.2145029659,
				"element": "H" 
			},
			{
				"x": 2.0994710883,
				"y": 1.7277235891,
				"z": 0.4266008827,
				"element": "H" 
			},
			{
				"x": 1.8171699806,
				"y": -0.5795165295,
				"z": -0.2093568317,
				"element": "H" 
			},
			{
				"x": 1.4006128657,
				"y": -0.0418242984,
				"z": -1.828297565,
				"element": "H" 
			},
			{
				"x": -0.7612052605,
				"y": -0.8756975254,
				"z": -1.2241287436,
				"element": "H" 
			},
			{
				"x": 0.3447153625,
				"y": -1.0267730758,
				"z": 1.386138008,
				"element": "H" 
			},
			{
				"x": -2.1501557656,
				"y": 0.6683583876,
				"z": 1.6038844435,
				"element": "H" 
			},
			{
				"x": -1.5847889056,
				"y": -0.6132779002,
				"z": 3.3659727664,
				"element": "H" 
			},
			{
				"x": -0.8452411865,
				"y": 2.5940421577,
				"z": 2.0848480387,
				"element": "H" 
			},
			{
				"x": 0.6516627616,
				"y": 1.6797321702,
				"z": 2.1561549139,
				"element": "H" 
			},
			{
				"x": -2.0613101925,
				"y": -3.4548812647,
				"z": 0.2561076989,
				"element": "H" 
			}
		],
		 "valence_orbital": [ 
			{
				"type": "occ",
				"energy": -0.31822,
				"method": "rhf"
			},
			{
				"type": "occ",
				"energy": -0.30668,
				"method": "rhf"
			},
			{
				"type": "occ",
				"energy": -0.27819,
				"method": "rhf"
			},
			{
				"type": "occ",
				"energy": -0.25324,
				"method": "rhf"
			},
			{
				"type": "occ",
				"energy": -0.21443,
				"method": "rhf"
			},
			{
				"type": "unocc",
				"energy": -0.00165,
				"method": "rhf"
			},
			{
				"type": "unocc",
				"energy": 0.06184,
				"method": "rhf"
			},
			{
				"type": "unocc",
				"energy": 0.07395,
				"method": "rhf"
			},
			{
				"type": "unocc",
				"energy": 0.08995,
				"method": "rhf"
			},
			{
				"type": "unocc",
				"energy": 0.12165,
				"method": "rhf"
			}
		],
		"cosmo_sigma_profile": { 
			"-0.025": 0.0,
			"-0.024": 0.0,
			"-0.023": 0.0,
			"-0.022": 0.0,
			"-0.021": 0.0,
			"-0.02": 0.0,
			"-0.019": 0.113991391269,
			"-0.018": 0.787750936024,
			"-0.017": 1.0399150139,
			"-0.016": 0.560138577244,
			"-0.015": 0.97208572655,
			"-0.014": 0.871747610008,
			"-0.013": 0.67028520848,
			"-0.012": 0.468977259731,
			"-0.011": 0.671928144635,
			"-0.01": 0.748858631578,
			"-0.009": 0.910343535288,
			"-0.008": 1.17931939979,
			"-0.007": 1.92981559897,
			"-0.006": 4.54647772742,
			"-0.005": 3.89802638316,
			"-0.004": 11.7065988369,
			"-0.003": 28.2342375226,
			"-0.002": 33.8200273826,
			"-0.001": 27.9341631865,
			"0.0": 23.4420629484,
			"0.001": 14.5728417639,
			"0.002": 7.69777798045,
			"0.003": 5.91762728034,
			"0.004": 4.77698245945,
			"0.005": 5.15882656605,
			"0.006": 4.73826465298,
			"0.007": 4.01437885249,
			"0.008": 3.59433054312,
			"0.009": 3.83141600243,
			"0.01": 4.37648560049,
			"0.011": 4.97869291821,
			"0.012": 2.07573204976,
			"0.013": 1.12281918365,
			"0.014": 2.66995253323,
			"0.015": 0.981749631372,
			"0.016": 0.0,
			"0.017": 0.0,
			"0.018": 0.0,
			"0.019": 0.0,
			"0.02": 0.0,
			"0.021": 0.0,
			"0.022": 0.0,
			"0.023": 0.0,
			"0.024": 0.0,
			"0.025": 0.0
		}
	}
}
