{
	 "smiles": "FC(C(F)(F)F)C(F)(F)OC1=CC(Cl)=C(NC(=O)NC(=O)C2=C(F)C=CC=C2F)C=C1Cl", 
	 "Tm": 442.15, 
	 "num_atms": 40, 
	 "gaussian": { 
		 "optdone": 1, 
		 "sigma_profile": "yes", 
		 "theory": "DFT", 
		 "functional": "B3LYP", 
		 "basiset": "6-31G**", 
		 "properties": { 
			 "R2extent": 27903.4612, 
			 "electric_dipole_moment_norm": 7.46705990401, 
			 "electric_quadrupole_moment_norm": 40.474925003, 
			 "total_energy": -2706.92443238, 
			 "HOMO_LUMO_gap": 0.15474, 
			 "cosmo_polarized_energy": -15.17, 
			 "cosmo_cavitation_energy": 53.35, 
			 "cosmo_dispersion_energy": -36.78, 
			 "cosmo_repulsion_energy": 2.55, 
			 "cosmo_total_nonelectrostatic_energy": 19.12, 
			 "SMD_solvation_energy": 12.38 
		},
		"coords": [
			{
				"x": -1.2828430231,
				"y": 7.6029921583,
				"z": 3.4996092224,
				"element": "F" 
			},
			{
				"x": -1.1794058346,
				"y": 7.1017366069,
				"z": 2.2248427748,
				"element": "C" 
			},
			{
				"x": -2.4642573462,
				"y": 7.4833465925,
				"z": 1.4797716146,
				"element": "C" 
			},
			{
				"x": -3.5546216859,
				"y": 6.9793340576,
				"z": 2.0733486943,
				"element": "F" 
			},
			{
				"x": -2.5762711042,
				"y": 8.8244086834,
				"z": 1.4688297849,
				"element": "F" 
			},
			{
				"x": -2.4270344494,
				"y": 7.0540665233,
				"z": 0.2090631323,
				"element": "F" 
			},
			{
				"x": -0.9116147467,
				"y": 5.5925186614,
				"z": 2.3331765713,
				"element": "C" 
			},
			{
				"x": -1.9728118376,
				"y": 4.9369902991,
				"z": 2.8607623414,
				"element": "F" 
			},
			{
				"x": 0.1210428612,
				"y": 5.4206135629,
				"z": 3.2133797977,
				"element": "F" 
			},
			{
				"x": -0.5873420974,
				"y": 5.1223660064,
				"z": 1.0918586344,
				"element": "O" 
			},
			{
				"x": -0.4909251885,
				"y": 3.7569615418,
				"z": 0.8507686528,
				"element": "C" 
			},
			{
				"x": -0.1120582728,
				"y": 2.8255088924,
				"z": 1.8147983484,
				"element": "C" 
			},
			{
				"x": -0.0076786077,
				"y": 1.4813092715,
				"z": 1.4745227961,
				"element": "C" 
			},
			{
				"x": 0.4645729016,
				"y": 0.3486231714,
				"z": 2.7287075293,
				"element": "Cl" 
			},
			{
				"x": -0.2616099342,
				"y": 1.0246873107,
				"z": 0.1660264995,
				"element": "C" 
			},
			{
				"x": -0.1361999857,
				"y": -0.3418003893,
				"z": -0.1146613175,
				"element": "N" 
			},
			{
				"x": -0.3405269383,
				"y": -0.9441818609,
				"z": -1.3247464888,
				"element": "C" 
			},
			{
				"x": -0.6644266258,
				"y": -0.404549483,
				"z": -2.3716824898,
				"element": "O" 
			},
			{
				"x": -0.1551883776,
				"y": -2.3520955528,
				"z": -1.3300709538,
				"element": "N" 
			},
			{
				"x": 0.2459017283,
				"y": -3.1897047923,
				"z": -0.3094094468,
				"element": "C" 
			},
			{
				"x": 0.4828251052,
				"y": -2.7836626582,
				"z": 0.824141983,
				"element": "O" 
			},
			{
				"x": 0.35028903,
				"y": -4.6476867478,
				"z": -0.6546384937,
				"element": "C" 
			},
			{
				"x": 0.1755601684,
				"y": -5.6227639498,
				"z": 0.3473178656,
				"element": "C" 
			},
			{
				"x": -0.1561882448,
				"y": -5.2476818818,
				"z": 1.5851842284,
				"element": "F" 
			},
			{
				"x": 0.304899379,
				"y": -6.984971507,
				"z": 0.1013454592,
				"element": "C" 
			},
			{
				"x": 0.627771151,
				"y": -7.4173630649,
				"z": -1.1829220321,
				"element": "C" 
			},
			{
				"x": 0.8080964255,
				"y": -6.4964302738,
				"z": -2.2144491593,
				"element": "C" 
			},
			{
				"x": 0.6613281377,
				"y": -5.1477966572,
				"z": -1.9296102554,
				"element": "C" 
			},
			{
				"x": 0.8352085728,
				"y": -4.2757358005,
				"z": -2.9523966752,
				"element": "F" 
			},
			{
				"x": -0.6294291193,
				"y": 1.9798458505,
				"z": -0.7950310349,
				"element": "C" 
			},
			{
				"x": -0.7464047144,
				"y": 3.3231869776,
				"z": -0.4540183816,
				"element": "C" 
			},
			{
				"x": -1.2142454136,
				"y": 4.4709807048,
				"z": -1.6835360721,
				"element": "Cl" 
			},
			{
				"x": -0.3322156986,
				"y": 7.5625811834,
				"z": 1.7078424615,
				"element": "H" 
			},
			{
				"x": 0.1084427196,
				"y": 3.1371849253,
				"z": 2.8257658305,
				"element": "H" 
			},
			{
				"x": 0.1425281062,
				"y": -0.9709194499,
				"z": 0.6424246086,
				"element": "H" 
			},
			{
				"x": -0.2768632627,
				"y": -2.7329701971,
				"z": -2.2586161364,
				"element": "H" 
			},
			{
				"x": 0.1484362937,
				"y": -7.6782860693,
				"z": 0.9194252238,
				"element": "H" 
			},
			{
				"x": 0.7356188834,
				"y": -8.4782424266,
				"z": -1.3835812711,
				"element": "H" 
			},
			{
				"x": 1.0591476879,
				"y": -6.7990906028,
				"z": -3.2241676383,
				"element": "H" 
			},
			{
				"x": -0.8281066425,
				"y": 1.657590384,
				"z": -1.8065762082,
				"element": "H" 
			}
		],
		 "valence_orbital": [ 
			{
				"type": "occ",
				"energy": -0.28963,
				"method": "rhf"
			},
			{
				"type": "occ",
				"energy": -0.2864,
				"method": "rhf"
			},
			{
				"type": "occ",
				"energy": -0.27648,
				"method": "rhf"
			},
			{
				"type": "occ",
				"energy": -0.25797,
				"method": "rhf"
			},
			{
				"type": "occ",
				"energy": -0.23104,
				"method": "rhf"
			},
			{
				"type": "unocc",
				"energy": -0.0763,
				"method": "rhf"
			},
			{
				"type": "unocc",
				"energy": -0.03091,
				"method": "rhf"
			},
			{
				"type": "unocc",
				"energy": -0.02949,
				"method": "rhf"
			},
			{
				"type": "unocc",
				"energy": -0.0276,
				"method": "rhf"
			},
			{
				"type": "unocc",
				"energy": 0.00715,
				"method": "rhf"
			}
		],
		"cosmo_sigma_profile": { 
			"-0.025": 0.0,
			"-0.024": 0.0,
			"-0.023": 0.0,
			"-0.022": 0.0,
			"-0.021": 0.0,
			"-0.02": 0.0,
			"-0.019": 0.0,
			"-0.018": 0.0,
			"-0.017": 0.0,
			"-0.016": 0.0,
			"-0.015": 0.0,
			"-0.014": 0.0,
			"-0.013": 0.35480584806,
			"-0.012": 2.79966947623,
			"-0.011": 3.30058676983,
			"-0.01": 2.90091422825,
			"-0.009": 2.67737320235,
			"-0.008": 8.72162003183,
			"-0.007": 10.3629878343,
			"-0.006": 10.1682798601,
			"-0.005": 11.571454746,
			"-0.004": 20.3458178241,
			"-0.003": 24.1236740061,
			"-0.002": 29.9041245724,
			"-0.001": 46.1772677368,
			"0.0": 49.6912409479,
			"0.001": 51.0262959658,
			"0.002": 68.4576292776,
			"0.003": 42.9686893452,
			"0.004": 20.1299952273,
			"0.005": 5.70725687722,
			"0.006": 3.28260419952,
			"0.007": 3.32550231638,
			"0.008": 3.9088990261,
			"0.009": 3.291212114,
			"0.01": 3.54928565532,
			"0.011": 4.73860989852,
			"0.012": 2.35333212169,
			"0.013": 0.033532693114,
			"0.014": 0.0,
			"0.015": 0.0,
			"0.016": 0.0,
			"0.017": 0.0,
			"0.018": 0.0,
			"0.019": 0.0,
			"0.02": 0.0,
			"0.021": 0.0,
			"0.022": 0.0,
			"0.023": 0.0,
			"0.024": 0.0,
			"0.025": 0.0
		}
	}
}
