{
	 "smiles": "CC(C)C1CCC(C)CC1OC(=O)C(CC1=CC=CC=C1)C1=CC=CC=C1", 
	 "Tm": 374.15, 
	 "num_atms": 59, 
	 "gaussian": { 
		 "optdone": 1, 
		 "sigma_profile": "yes", 
		 "theory": "DFT", 
		 "functional": "B3LYP", 
		 "basiset": "6-31G**", 
		 "properties": { 
			 "R2extent": 11181.4738, 
			 "electric_dipole_moment_norm": 1.75708194743, 
			 "electric_quadrupole_moment_norm": 8.40828461221, 
			 "total_energy": -1122.43238057, 
			 "HOMO_LUMO_gap": 0.22978, 
			 "cosmo_polarized_energy": -9.75, 
			 "cosmo_cavitation_energy": 56.57, 
			 "cosmo_dispersion_energy": -35.98, 
			 "cosmo_repulsion_energy": 2.77, 
			 "cosmo_total_nonelectrostatic_energy": 23.35, 
			 "SMD_solvation_energy": 8.89 
		},
		"coords": [
			{
				"x": 1.4739971698,
				"y": 1.3297778176,
				"z": -3.6408970926,
				"element": "C" 
			},
			{
				"x": 2.0254785169,
				"y": -0.0995555178,
				"z": -3.7784675294,
				"element": "C" 
			},
			{
				"x": 1.2325257198,
				"y": -0.8762636867,
				"z": -4.843010902,
				"element": "C" 
			},
			{
				"x": 2.1776459332,
				"y": -0.8343366436,
				"z": -2.4139811272,
				"element": "C" 
			},
			{
				"x": 2.9840717956,
				"y": -2.16481855,
				"z": -2.5479135769,
				"element": "C" 
			},
			{
				"x": 2.1043810759,
				"y": -3.4236503402,
				"z": -2.5251244966,
				"element": "C" 
			},
			{
				"x": 1.3453126335,
				"y": -3.5779136143,
				"z": -1.1847061845,
				"element": "C" 
			},
			{
				"x": 0.0934800858,
				"y": -4.4487145035,
				"z": -1.3558358663,
				"element": "C" 
			},
			{
				"x": 1.0186117504,
				"y": -2.1869787661,
				"z": -0.5745518987,
				"element": "C" 
			},
			{
				"x": 0.8539772127,
				"y": -1.1239045184,
				"z": -1.6663930283,
				"element": "C" 
			},
			{
				"x": 0.2094574602,
				"y": 0.0850083399,
				"z": -1.1511587554,
				"element": "O" 
			},
			{
				"x": 0.7699258414,
				"y": 0.8143273822,
				"z": -0.1728547738,
				"element": "C" 
			},
			{
				"x": 1.8364110515,
				"y": 0.5661422334,
				"z": 0.3573990484,
				"element": "O" 
			},
			{
				"x": -0.0631276267,
				"y": 2.0701345018,
				"z": 0.1199661001,
				"element": "C" 
			},
			{
				"x": 0.4104023711,
				"y": 2.7835067137,
				"z": 1.422962191,
				"element": "C" 
			},
			{
				"x": 0.00885596,
				"y": 2.149348112,
				"z": 2.7403969121,
				"element": "C" 
			},
			{
				"x": -1.1251548525,
				"y": 2.6031049858,
				"z": 3.4292498174,
				"element": "C" 
			},
			{
				"x": -1.4995441146,
				"y": 2.04007808,
				"z": 4.6501370676,
				"element": "C" 
			},
			{
				"x": -0.7416935958,
				"y": 1.0083128519,
				"z": 5.2059930783,
				"element": "C" 
			},
			{
				"x": 0.3922712481,
				"y": 0.5491812549,
				"z": 4.5327153891,
				"element": "C" 
			},
			{
				"x": 0.7659425116,
				"y": 1.1151816544,
				"z": 3.3126970367,
				"element": "C" 
			},
			{
				"x": -1.5669707719,
				"y": 1.8686196754,
				"z": 0.0304193474,
				"element": "C" 
			},
			{
				"x": -2.3445629838,
				"y": 2.7635053775,
				"z": -0.7149181146,
				"element": "C" 
			},
			{
				"x": -3.732541805,
				"y": 2.6280047797,
				"z": -0.7833638157,
				"element": "C" 
			},
			{
				"x": -4.3657623338,
				"y": 1.58697631,
				"z": -0.1044666279,
				"element": "C" 
			},
			{
				"x": -3.6015580666,
				"y": 0.68756319,
				"z": 0.6425420854,
				"element": "C" 
			},
			{
				"x": -2.2162160988,
				"y": 0.8288112599,
				"z": 0.7120099884,
				"element": "C" 
			},
			{
				"x": 0.4248816797,
				"y": 1.331387225,
				"z": -3.3312037759,
				"element": "H" 
			},
			{
				"x": 2.0438820144,
				"y": 1.9066825544,
				"z": -2.9035135384,
				"element": "H" 
			},
			{
				"x": 1.5417075701,
				"y": 1.8577174482,
				"z": -4.5986701036,
				"element": "H" 
			},
			{
				"x": 3.0544341567,
				"y": -0.0043983292,
				"z": -4.156180475,
				"element": "H" 
			},
			{
				"x": 1.2371187924,
				"y": -0.3283683738,
				"z": -5.7915341352,
				"element": "H" 
			},
			{
				"x": 0.1828550131,
				"y": -1.008715185,
				"z": -4.5565961706,
				"element": "H" 
			},
			{
				"x": 1.6577593512,
				"y": -1.8656926447,
				"z": -5.0363703593,
				"element": "H" 
			},
			{
				"x": 2.7586514336,
				"y": -0.1702110137,
				"z": -1.7674655369,
				"element": "H" 
			},
			{
				"x": 3.5798609955,
				"y": -2.1378323024,
				"z": -3.4676148494,
				"element": "H" 
			},
			{
				"x": 3.7055893079,
				"y": -2.2315030948,
				"z": -1.7243889973,
				"element": "H" 
			},
			{
				"x": 2.7154322228,
				"y": -4.3153293085,
				"z": -2.7079707576,
				"element": "H" 
			},
			{
				"x": 1.3803996391,
				"y": -3.3823089029,
				"z": -3.3489666862,
				"element": "H" 
			},
			{
				"x": 2.0129679794,
				"y": -4.088263325,
				"z": -0.478448796,
				"element": "H" 
			},
			{
				"x": -0.3888373356,
				"y": -4.6483169663,
				"z": -0.3929036968,
				"element": "H" 
			},
			{
				"x": -0.6448543611,
				"y": -3.9585878098,
				"z": -2.002490146,
				"element": "H" 
			},
			{
				"x": 0.3416212199,
				"y": -5.4132118011,
				"z": -1.8131875533,
				"element": "H" 
			},
			{
				"x": 0.0947700066,
				"y": -2.2378049955,
				"z": 0.0129213994,
				"element": "H" 
			},
			{
				"x": 1.8115620088,
				"y": -1.8701204239,
				"z": 0.1058255697,
				"element": "H" 
			},
			{
				"x": 0.0987121662,
				"y": -1.4716544176,
				"z": -2.3774560294,
				"element": "H" 
			},
			{
				"x": 0.214295217,
				"y": 2.7448857858,
				"z": -0.7035558494,
				"element": "H" 
			},
			{
				"x": 0.0110556414,
				"y": 3.8025431221,
				"z": 1.3861020705,
				"element": "H" 
			},
			{
				"x": 1.500365482,
				"y": 2.8591073244,
				"z": 1.3687330538,
				"element": "H" 
			},
			{
				"x": -1.720276466,
				"y": 3.4069951906,
				"z": 3.0035440242,
				"element": "H" 
			},
			{
				"x": -2.3810956365,
				"y": 2.4095840009,
				"z": 5.1668953447,
				"element": "H" 
			},
			{
				"x": -1.0285667469,
				"y": 0.5699975693,
				"z": 6.1578601874,
				"element": "H" 
			},
			{
				"x": 0.9935075304,
				"y": -0.24819888,
				"z": 4.9614287403,
				"element": "H" 
			},
			{
				"x": 1.6475390112,
				"y": 0.7574599938,
				"z": 2.7911622978,
				"element": "H" 
			},
			{
				"x": -1.8578138524,
				"y": 3.5749039377,
				"z": -1.2515091682,
				"element": "H" 
			},
			{
				"x": -4.3152667438,
				"y": 3.3324110378,
				"z": -1.3704489051,
				"element": "H" 
			},
			{
				"x": -5.4449724887,
				"y": 1.4750772466,
				"z": -0.1577199126,
				"element": "H" 
			},
			{
				"x": -4.0854346786,
				"y": -0.1262170757,
				"z": 1.1753856427,
				"element": "H" 
			},
			{
				"x": -1.6349662177,
				"y": 0.1253340336,
				"z": 1.3001928401,
				"element": "H" 
			}
		],
		 "valence_orbital": [ 
			{
				"type": "occ",
				"energy": -0.26347,
				"method": "rhf"
			},
			{
				"type": "occ",
				"energy": -0.24778,
				"method": "rhf"
			},
			{
				"type": "occ",
				"energy": -0.24144,
				"method": "rhf"
			},
			{
				"type": "occ",
				"energy": -0.23441,
				"method": "rhf"
			},
			{
				"type": "occ",
				"energy": -0.23127,
				"method": "rhf"
			},
			{
				"type": "unocc",
				"energy": -0.00149,
				"method": "rhf"
			},
			{
				"type": "unocc",
				"energy": -6e-05,
				"method": "rhf"
			},
			{
				"type": "unocc",
				"energy": 0.00728,
				"method": "rhf"
			},
			{
				"type": "unocc",
				"energy": 0.00951,
				"method": "rhf"
			},
			{
				"type": "unocc",
				"energy": 0.01246,
				"method": "rhf"
			}
		],
		"cosmo_sigma_profile": { 
			"-0.025": 0.0,
			"-0.024": 0.0,
			"-0.023": 0.0,
			"-0.022": 0.0,
			"-0.021": 0.0,
			"-0.02": 0.0,
			"-0.019": 0.0,
			"-0.018": 0.0,
			"-0.017": 0.0,
			"-0.016": 0.0,
			"-0.015": 0.0,
			"-0.014": 0.0,
			"-0.013": 0.0,
			"-0.012": 0.0,
			"-0.011": 0.0,
			"-0.01": 0.0,
			"-0.009": 0.0,
			"-0.008": 0.0,
			"-0.007": 0.0484842614721,
			"-0.006": 6.13206177012,
			"-0.005": 21.3421273658,
			"-0.004": 30.2698038902,
			"-0.003": 40.5724943009,
			"-0.002": 62.8952906437,
			"-0.001": 62.0554019922,
			"0.0": 53.7147058716,
			"0.001": 45.136860363,
			"0.002": 28.8113291003,
			"0.003": 18.9378362928,
			"0.004": 17.3484861235,
			"0.005": 19.6858199881,
			"0.006": 18.7294776585,
			"0.007": 5.53035937253,
			"0.008": 3.21961298162,
			"0.009": 2.26074119434,
			"0.01": 1.92262680177,
			"0.011": 1.56843609646,
			"0.012": 1.248427156,
			"0.013": 0.0,
			"0.014": 0.0,
			"0.015": 0.0,
			"0.016": 0.0,
			"0.017": 0.0,
			"0.018": 0.0,
			"0.019": 0.0,
			"0.02": 0.0,
			"0.021": 0.0,
			"0.022": 0.0,
			"0.023": 0.0,
			"0.024": 0.0,
			"0.025": 0.0
		}
	}
}
