{
	 "smiles": "CC(=O)OC1=CC=C(OC(C)=O)C=C1", 
	 "Tm": 396.15, 
	 "num_atms": 24, 
	 "gaussian": { 
		 "optdone": 1, 
		 "sigma_profile": "yes", 
		 "theory": "DFT", 
		 "functional": "B3LYP", 
		 "basiset": "6-31G**", 
		 "properties": { 
			 "R2extent": 4459.6774, 
			 "electric_dipole_moment_norm": 1.95757716323, 
			 "electric_quadrupole_moment_norm": 17.1599523117, 
			 "total_energy": -688.003810972, 
			 "HOMO_LUMO_gap": 0.21324, 
			 "cosmo_polarized_energy": -10.88, 
			 "cosmo_cavitation_energy": 29.52, 
			 "cosmo_dispersion_energy": -21.42, 
			 "cosmo_repulsion_energy": 1.72, 
			 "cosmo_total_nonelectrostatic_energy": 9.82, 
			 "SMD_solvation_energy": 7.82 
		},
		"coords": [
			{
				"x": -5.3558220535,
				"y": 0.9695869001,
				"z": 0.5304070125,
				"element": "C" 
			},
			{
				"x": -4.038669184,
				"y": 0.7947538505,
				"z": -0.184811565,
				"element": "C" 
			},
			{
				"x": -3.6750447262,
				"y": 1.4102678298,
				"z": -1.1567653247,
				"element": "O" 
			},
			{
				"x": -3.3067217144,
				"y": -0.1786068351,
				"z": 0.4420325847,
				"element": "O" 
			},
			{
				"x": -2.0258852668,
				"y": -0.5357628045,
				"z": 0.0184647614,
				"element": "C" 
			},
			{
				"x": -1.6446640663,
				"y": -0.62732389,
				"z": -1.3213660595,
				"element": "C" 
			},
			{
				"x": -0.3554583984,
				"y": -1.0618589904,
				"z": -1.6238627181,
				"element": "C" 
			},
			{
				"x": 0.5329739773,
				"y": -1.4047598989,
				"z": -0.6053288771,
				"element": "C" 
			},
			{
				"x": 1.7680388738,
				"y": -1.8932929538,
				"z": -1.0336444268,
				"element": "O" 
			},
			{
				"x": 2.9316916231,
				"y": -1.6275031213,
				"z": -0.3617850603,
				"element": "C" 
			},
			{
				"x": 4.0887049826,
				"y": -2.2619503573,
				"z": -1.093761266,
				"element": "C" 
			},
			{
				"x": 3.0067767904,
				"y": -0.9836910488,
				"z": 0.6558811524,
				"element": "O" 
			},
			{
				"x": 0.1470325276,
				"y": -1.326753758,
				"z": 0.7340105822,
				"element": "C" 
			},
			{
				"x": -1.1398646026,
				"y": -0.8856136826,
				"z": 1.0367527,
				"element": "C" 
			},
			{
				"x": -5.1818365525,
				"y": 1.2697326218,
				"z": 1.5679611403,
				"element": "H" 
			},
			{
				"x": -5.9463451808,
				"y": 1.7279391751,
				"z": 0.0176866002,
				"element": "H" 
			},
			{
				"x": -5.9000284701,
				"y": 0.0209091796,
				"z": 0.5526529476,
				"element": "H" 
			},
			{
				"x": -2.3297077559,
				"y": -0.3522628219,
				"z": -2.110764031,
				"element": "H" 
			},
			{
				"x": -0.029010438,
				"y": -1.1432123821,
				"z": -2.6551876702,
				"element": "H" 
			},
			{
				"x": 4.162022191,
				"y": -1.8521534608,
				"z": -2.1054776654,
				"element": "H" 
			},
			{
				"x": 3.9269903311,
				"y": -3.3395759124,
				"z": -1.1897561445,
				"element": "H" 
			},
			{
				"x": 5.0106259389,
				"y": -2.0690710568,
				"z": -0.5464446074,
				"element": "H" 
			},
			{
				"x": 0.8367755486,
				"y": -1.5884239482,
				"z": 1.5238730773,
				"element": "H" 
			},
			{
				"x": -1.469574375,
				"y": -0.8135726338,
				"z": 2.0677328576,
				"element": "H" 
			}
		],
		 "valence_orbital": [ 
			{
				"type": "occ",
				"energy": -0.31403,
				"method": "rhf"
			},
			{
				"type": "occ",
				"energy": -0.28311,
				"method": "rhf"
			},
			{
				"type": "occ",
				"energy": -0.27682,
				"method": "rhf"
			},
			{
				"type": "occ",
				"energy": -0.25757,
				"method": "rhf"
			},
			{
				"type": "occ",
				"energy": -0.23282,
				"method": "rhf"
			},
			{
				"type": "unocc",
				"energy": -0.01958,
				"method": "rhf"
			},
			{
				"type": "unocc",
				"energy": -0.00914,
				"method": "rhf"
			},
			{
				"type": "unocc",
				"energy": 0.00345,
				"method": "rhf"
			},
			{
				"type": "unocc",
				"energy": 0.02651,
				"method": "rhf"
			},
			{
				"type": "unocc",
				"energy": 0.08831,
				"method": "rhf"
			}
		],
		"cosmo_sigma_profile": { 
			"-0.025": 0.0,
			"-0.024": 0.0,
			"-0.023": 0.0,
			"-0.022": 0.0,
			"-0.021": 0.0,
			"-0.02": 0.0,
			"-0.019": 0.0,
			"-0.018": 0.0,
			"-0.017": 0.0,
			"-0.016": 0.0,
			"-0.015": 0.0,
			"-0.014": 0.0,
			"-0.013": 0.0,
			"-0.012": 0.0,
			"-0.011": 0.0,
			"-0.01": 0.0,
			"-0.009": 0.0,
			"-0.008": 0.0893487315437,
			"-0.007": 8.30047467331,
			"-0.006": 18.0152092255,
			"-0.005": 20.5616503251,
			"-0.004": 21.4230129671,
			"-0.003": 20.1762626484,
			"-0.002": 24.0394822161,
			"-0.001": 14.9060374899,
			"0.0": 12.1283880486,
			"0.001": 11.7085076668,
			"0.002": 16.0418904105,
			"0.003": 16.8140718942,
			"0.004": 11.1758722194,
			"0.005": 6.52879437647,
			"0.006": 5.37698021947,
			"0.007": 4.42295040151,
			"0.008": 3.78908236195,
			"0.009": 4.17758406233,
			"0.01": 4.92573697275,
			"0.011": 7.87520636411,
			"0.012": 3.18155759312,
			"0.013": 0.183601249938,
			"0.014": 0.0,
			"0.015": 0.0,
			"0.016": 0.0,
			"0.017": 0.0,
			"0.018": 0.0,
			"0.019": 0.0,
			"0.02": 0.0,
			"0.021": 0.0,
			"0.022": 0.0,
			"0.023": 0.0,
			"0.024": 0.0,
			"0.025": 0.0
		}
	}
}
