{
	 "smiles": "ClCC1=CC=C(Br)C=C1", 
	 "Tm": 323.15, 
	 "num_atms": 15, 
	 "gaussian": { 
		 "optdone": 1, 
		 "sigma_profile": "yes", 
		 "theory": "DFT", 
		 "functional": "B3LYP", 
		 "basiset": "6-31G**", 
		 "properties": { 
			 "R2extent": 4343.5478, 
			 "electric_dipole_moment_norm": 1.93796987077, 
			 "electric_quadrupole_moment_norm": 10.4210636329, 
			 "total_energy": -3301.96299322, 
			 "HOMO_LUMO_gap": 0.20792, 
			 "cosmo_polarized_energy": -6.66, 
			 "cosmo_cavitation_energy": 23.22, 
			 "cosmo_dispersion_energy": -17.53, 
			 "cosmo_repulsion_energy": 1.45, 
			 "cosmo_total_nonelectrostatic_energy": 7.14, 
			 "SMD_solvation_energy": 2.45 
		},
		"coords": [
			{
				"x": 0.474728205,
				"y": -2.3194542739,
				"z": -0.7098449813,
				"element": "Cl" 
			},
			{
				"x": 1.7616014843,
				"y": -1.4295967898,
				"z": 0.2540149152,
				"element": "C" 
			},
			{
				"x": 1.449565498,
				"y": 0.0275851866,
				"z": 0.4138318375,
				"element": "C" 
			},
			{
				"x": 1.8986652528,
				"y": 0.9609196972,
				"z": -0.5290971167,
				"element": "C" 
			},
			{
				"x": 1.6161705297,
				"y": 2.3182433619,
				"z": -0.3861375155,
				"element": "C" 
			},
			{
				"x": 0.873285113,
				"y": 2.7430078835,
				"z": 0.7146453245,
				"element": "C" 
			},
			{
				"x": 0.484852415,
				"y": 4.6012773068,
				"z": 0.9239958249,
				"element": "Br" 
			},
			{
				"x": 0.4122507239,
				"y": 1.8352619781,
				"z": 1.6672640283,
				"element": "C" 
			},
			{
				"x": 0.7036923232,
				"y": 0.4815268007,
				"z": 1.5090625765,
				"element": "C" 
			},
			{
				"x": 2.6920022713,
				"y": -1.5910769966,
				"z": -0.2904552013,
				"element": "H" 
			},
			{
				"x": 1.8102940037,
				"y": -1.9448290238,
				"z": 1.2133565509,
				"element": "H" 
			},
			{
				"x": 2.4744755464,
				"y": 0.6251630399,
				"z": -1.3873903228,
				"element": "H" 
			},
			{
				"x": 1.9687446272,
				"y": 3.0368517716,
				"z": -1.1169792667,
				"element": "H" 
			},
			{
				"x": -0.1626376151,
				"y": 2.1817984083,
				"z": 2.5182958744,
				"element": "H" 
			},
			{
				"x": 0.3434096214,
				"y": -0.2297783504,
				"z": 2.247437472,
				"element": "H" 
			}
		],
		 "valence_orbital": [ 
			{
				"type": "occ",
				"energy": -0.29858,
				"method": "rhf"
			},
			{
				"type": "occ",
				"energy": -0.29802,
				"method": "rhf"
			},
			{
				"type": "occ",
				"energy": -0.2927,
				"method": "rhf"
			},
			{
				"type": "occ",
				"energy": -0.27241,
				"method": "rhf"
			},
			{
				"type": "occ",
				"energy": -0.24837,
				"method": "rhf"
			},
			{
				"type": "unocc",
				"energy": -0.04045,
				"method": "rhf"
			},
			{
				"type": "unocc",
				"energy": -0.02332,
				"method": "rhf"
			},
			{
				"type": "unocc",
				"energy": 0.00099,
				"method": "rhf"
			},
			{
				"type": "unocc",
				"energy": 0.03446,
				"method": "rhf"
			},
			{
				"type": "unocc",
				"energy": 0.09219,
				"method": "rhf"
			}
		],
		"cosmo_sigma_profile": { 
			"-0.025": 0.0,
			"-0.024": 0.0,
			"-0.023": 0.0,
			"-0.022": 0.0,
			"-0.021": 0.0,
			"-0.02": 0.0,
			"-0.019": 0.0,
			"-0.018": 0.0,
			"-0.017": 0.0,
			"-0.016": 0.0,
			"-0.015": 0.0,
			"-0.014": 0.0,
			"-0.013": 0.0,
			"-0.012": 0.0,
			"-0.011": 0.0,
			"-0.01": 0.0,
			"-0.009": 0.0,
			"-0.008": 4.70247482625,
			"-0.007": 13.2748008932,
			"-0.006": 11.9012206744,
			"-0.005": 11.0038462512,
			"-0.004": 10.8596708463,
			"-0.003": 9.42325481376,
			"-0.002": 8.33847567656,
			"-0.001": 8.89318629306,
			"0.0": 11.0660974914,
			"0.001": 15.2080769731,
			"0.002": 18.1559527724,
			"0.003": 23.6773273366,
			"0.004": 18.2850227883,
			"0.005": 11.067772799,
			"0.006": 8.69495229712,
			"0.007": 6.87550829628,
			"0.008": 0.0,
			"0.009": 0.0,
			"0.01": 0.0,
			"0.011": 0.0,
			"0.012": 0.0,
			"0.013": 0.0,
			"0.014": 0.0,
			"0.015": 0.0,
			"0.016": 0.0,
			"0.017": 0.0,
			"0.018": 0.0,
			"0.019": 0.0,
			"0.02": 0.0,
			"0.021": 0.0,
			"0.022": 0.0,
			"0.023": 0.0,
			"0.024": 0.0,
			"0.025": 0.0
		}
	}
}
