{
	 "smiles": "OC(=O)C1=CC(=NC(Cl)=C1)N1CCOCC1", 
	 "Tm": 496.15, 
	 "num_atms": 27, 
	 "gaussian": { 
		 "optdone": 1, 
		 "sigma_profile": "yes", 
		 "theory": "DFT", 
		 "functional": "B3LYP", 
		 "basiset": "6-31G**", 
		 "properties": { 
			 "R2extent": 6759.1321, 
			 "electric_dipole_moment_norm": 4.09389627372, 
			 "electric_quadrupole_moment_norm": 18.2486771888, 
			 "total_energy": -1183.05837194, 
			 "HOMO_LUMO_gap": 0.14799, 
			 "cosmo_polarized_energy": -13.96, 
			 "cosmo_cavitation_energy": 32.26, 
			 "cosmo_dispersion_energy": -24.03, 
			 "cosmo_repulsion_energy": 1.89, 
			 "cosmo_total_nonelectrostatic_energy": 10.13, 
			 "SMD_solvation_energy": 4.71 
		},
		"coords": [
			{
				"x": 4.5714242121,
				"y": 0.3749278492,
				"z": 2.1377002406,
				"element": "O" 
			},
			{
				"x": 4.7259569593,
				"y": 1.3553183487,
				"z": 1.2159035694,
				"element": "C" 
			},
			{
				"x": 5.7656012351,
				"y": 1.9653825055,
				"z": 1.0819435412,
				"element": "O" 
			},
			{
				"x": 3.4946855006,
				"y": 1.5917205305,
				"z": 0.4018685068,
				"element": "C" 
			},
			{
				"x": 2.3308010345,
				"y": 0.8576325572,
				"z": 0.6058983274,
				"element": "C" 
			},
			{
				"x": 1.207640884,
				"y": 1.144295748,
				"z": -0.2089016041,
				"element": "C" 
			},
			{
				"x": 1.2607308861,
				"y": 2.1014115743,
				"z": -1.1591791171,
				"element": "N" 
			},
			{
				"x": 2.3824487226,
				"y": 2.7749116489,
				"z": -1.3156502499,
				"element": "C" 
			},
			{
				"x": 2.3723635358,
				"y": 4.0132357913,
				"z": -2.574559835,
				"element": "Cl" 
			},
			{
				"x": 3.5487701338,
				"y": 2.5864158193,
				"z": -0.5826200485,
				"element": "C" 
			},
			{
				"x": 0.023928674,
				"y": 0.4670723975,
				"z": -0.0678385025,
				"element": "N" 
			},
			{
				"x": -0.120740276,
				"y": -0.6062232409,
				"z": 0.9140671791,
				"element": "C" 
			},
			{
				"x": -1.5278468163,
				"y": -1.1976574123,
				"z": 0.8175451908,
				"element": "C" 
			},
			{
				"x": -2.5194136857,
				"y": -0.1955821805,
				"z": 0.930671886,
				"element": "O" 
			},
			{
				"x": -2.3957809108,
				"y": 0.8677121964,
				"z": -0.0231426057,
				"element": "C" 
			},
			{
				"x": -1.1429613378,
				"y": 0.7633220622,
				"z": -0.8950818169,
				"element": "C" 
			},
			{
				"x": 5.4221692543,
				"y": 0.3096690323,
				"z": 2.6022520751,
				"element": "H" 
			},
			{
				"x": 2.3007226517,
				"y": 0.09612292,
				"z": 1.3712775463,
				"element": "H" 
			},
			{
				"x": 4.4485054664,
				"y": 3.1614944269,
				"z": -0.7505514656,
				"element": "H" 
			},
			{
				"x": 0.0349121399,
				"y": -0.2145568049,
				"z": 1.9291757903,
				"element": "H" 
			},
			{
				"x": 0.6232576774,
				"y": -1.3994241132,
				"z": 0.7450621281,
				"element": "H" 
			},
			{
				"x": -1.6892143046,
				"y": -1.8888530989,
				"z": 1.6491635666,
				"element": "H" 
			},
			{
				"x": -1.6362347313,
				"y": -1.7738685743,
				"z": -0.1146558036,
				"element": "H" 
			},
			{
				"x": -3.2853814448,
				"y": 0.8772448364,
				"z": -0.6683391339,
				"element": "H" 
			},
			{
				"x": -2.3763980794,
				"y": 1.8080937791,
				"z": 0.5412059988,
				"element": "H" 
			},
			{
				"x": -1.2709971285,
				"y": -0.0090794267,
				"z": -1.6664173962,
				"element": "H" 
			},
			{
				"x": -0.9670502521,
				"y": 1.7060608281,
				"z": -1.4123979672,
				"element": "H" 
			}
		],
		 "valence_orbital": [ 
			{
				"type": "occ",
				"energy": -0.29039,
				"method": "rhf"
			},
			{
				"type": "occ",
				"energy": -0.28068,
				"method": "rhf"
			},
			{
				"type": "occ",
				"energy": -0.2764,
				"method": "rhf"
			},
			{
				"type": "occ",
				"energy": -0.26081,
				"method": "rhf"
			},
			{
				"type": "occ",
				"energy": -0.21495,
				"method": "rhf"
			},
			{
				"type": "unocc",
				"energy": -0.06696,
				"method": "rhf"
			},
			{
				"type": "unocc",
				"energy": -0.00916,
				"method": "rhf"
			},
			{
				"type": "unocc",
				"energy": 0.03595,
				"method": "rhf"
			},
			{
				"type": "unocc",
				"energy": 0.04492,
				"method": "rhf"
			},
			{
				"type": "unocc",
				"energy": 0.06937,
				"method": "rhf"
			}
		],
		"cosmo_sigma_profile": { 
			"-0.025": 0.0,
			"-0.024": 0.0,
			"-0.023": 0.0,
			"-0.022": 0.0,
			"-0.021": 0.0,
			"-0.02": 0.0,
			"-0.019": 0.229414768606,
			"-0.018": 1.18026730592,
			"-0.017": 0.879009949874,
			"-0.016": 0.538996049202,
			"-0.015": 0.787763254211,
			"-0.014": 1.03893982834,
			"-0.013": 0.498769922235,
			"-0.012": 0.450095296678,
			"-0.011": 0.704296699812,
			"-0.01": 1.0726544089,
			"-0.009": 0.494966200185,
			"-0.008": 0.626435428153,
			"-0.007": 3.00877097974,
			"-0.006": 9.79364791076,
			"-0.005": 24.6287363627,
			"-0.004": 26.3960082674,
			"-0.003": 18.6536764387,
			"-0.002": 15.7865585237,
			"-0.001": 14.9352093468,
			"0.0": 23.2176562497,
			"0.001": 27.0040773907,
			"0.002": 12.7417504301,
			"0.003": 10.6810443352,
			"0.004": 14.119433913,
			"0.005": 11.8210139497,
			"0.006": 7.21470289842,
			"0.007": 6.49007553972,
			"0.008": 4.51431224723,
			"0.009": 4.00325562712,
			"0.01": 4.27805991879,
			"0.011": 6.01341524783,
			"0.012": 2.27183815458,
			"0.013": 1.79434949339,
			"0.014": 0.275731420646,
			"0.015": 0.0,
			"0.016": 0.0,
			"0.017": 0.0,
			"0.018": 0.0,
			"0.019": 0.0,
			"0.02": 0.0,
			"0.021": 0.0,
			"0.022": 0.0,
			"0.023": 0.0,
			"0.024": 0.0,
			"0.025": 0.0
		}
	}
}
