{
	 "smiles": "CC1=CC=C(O1)C(C1=CC=C(C)O1)C1=CC=C(Br)C=C1", 
	 "Tm": 337.15, 
	 "num_atms": 35, 
	 "gaussian": { 
		 "optdone": 1, 
		 "sigma_profile": "yes", 
		 "theory": "DFT", 
		 "functional": "B3LYP", 
		 "basiset": "6-31G**", 
		 "properties": { 
			 "R2extent": 9819.0417, 
			 "electric_dipole_moment_norm": 2.59812751227, 
			 "electric_quadrupole_moment_norm": 13.9622031596, 
			 "total_energy": -3378.67249859, 
			 "HOMO_LUMO_gap": 0.19408, 
			 "cosmo_polarized_energy": -8.75, 
			 "cosmo_cavitation_energy": 42.16, 
			 "cosmo_dispersion_energy": -28.91, 
			 "cosmo_repulsion_energy": 2.3, 
			 "cosmo_total_nonelectrostatic_energy": 15.54, 
			 "SMD_solvation_energy": 6.84 
		},
		"coords": [
			{
				"x": 2.7422741039,
				"y": 3.9918248011,
				"z": 2.5255081239,
				"element": "C" 
			},
			{
				"x": 2.8185419182,
				"y": 2.5328606249,
				"z": 2.2417590301,
				"element": "C" 
			},
			{
				"x": 3.7121102175,
				"y": 1.5538228286,
				"z": 2.5589692298,
				"element": "C" 
			},
			{
				"x": 3.2112233618,
				"y": 0.3367136998,
				"z": 1.9872407681,
				"element": "C" 
			},
			{
				"x": 2.0462738443,
				"y": 0.6544657191,
				"z": 1.3569759499,
				"element": "C" 
			},
			{
				"x": 1.7930825872,
				"y": 1.9939000394,
				"z": 1.5054789324,
				"element": "O" 
			},
			{
				"x": 1.0371411078,
				"y": -0.1665989711,
				"z": 0.605716368,
				"element": "C" 
			},
			{
				"x": 0.9474217597,
				"y": 0.2270136951,
				"z": -0.843879692,
				"element": "C" 
			},
			{
				"x": 1.3587745659,
				"y": 1.3006026559,
				"z": -1.5756382866,
				"element": "C" 
			},
			{
				"x": 0.9463724943,
				"y": 1.051940271,
				"z": -2.9281335344,
				"element": "C" 
			},
			{
				"x": 0.3114168175,
				"y": -0.1541517189,
				"z": -2.9305743504,
				"element": "C" 
			},
			{
				"x": -0.3387834455,
				"y": -0.9755985607,
				"z": -3.987833467,
				"element": "C" 
			},
			{
				"x": 0.3058122775,
				"y": -0.6695962455,
				"z": -1.6600130408,
				"element": "O" 
			},
			{
				"x": -0.3301672145,
				"y": -0.1654302886,
				"z": 1.3056265389,
				"element": "C" 
			},
			{
				"x": -0.6870268965,
				"y": -1.2200550251,
				"z": 2.1514550256,
				"element": "C" 
			},
			{
				"x": -1.910070833,
				"y": -1.2252868798,
				"z": 2.8234884298,
				"element": "C" 
			},
			{
				"x": -2.7830791262,
				"y": -0.1553157207,
				"z": 2.6436187705,
				"element": "C" 
			},
			{
				"x": -4.4658030644,
				"y": -0.1492602831,
				"z": 3.5550912185,
				"element": "Br" 
			},
			{
				"x": -2.452374838,
				"y": 0.9090935703,
				"z": 1.8063791919,
				"element": "C" 
			},
			{
				"x": -1.2270049832,
				"y": 0.8964271286,
				"z": 1.1414373885,
				"element": "C" 
			},
			{
				"x": 3.605750231,
				"y": 4.2981230883,
				"z": 3.1205307936,
				"element": "H" 
			},
			{
				"x": 1.8337071407,
				"y": 4.2453879325,
				"z": 3.0838250741,
				"element": "H" 
			},
			{
				"x": 2.7359555039,
				"y": 4.5835485426,
				"z": 1.6025532636,
				"element": "H" 
			},
			{
				"x": 4.6183812054,
				"y": 1.6819664567,
				"z": 3.1337692964,
				"element": "H" 
			},
			{
				"x": 3.6612543113,
				"y": -0.6446758719,
				"z": 2.0385527894,
				"element": "H" 
			},
			{
				"x": 1.4143164852,
				"y": -1.1964352839,
				"z": 0.6395577103,
				"element": "H" 
			},
			{
				"x": 1.8879820677,
				"y": 2.1616260466,
				"z": -1.1966300732,
				"element": "H" 
			},
			{
				"x": 1.1047112896,
				"y": 1.6895005067,
				"z": -3.7864858258,
				"element": "H" 
			},
			{
				"x": -1.3977838058,
				"y": -1.1514674223,
				"z": -3.76591757,
				"element": "H" 
			},
			{
				"x": -0.2716755469,
				"y": -0.4617521973,
				"z": -4.9496077657,
				"element": "H" 
			},
			{
				"x": 0.1417493247,
				"y": -1.9557998585,
				"z": -4.0888573129,
				"element": "H" 
			},
			{
				"x": -0.00377555,
				"y": -2.0540639662,
				"z": 2.2913933619,
				"element": "H" 
			},
			{
				"x": -2.1808518861,
				"y": -2.0495521758,
				"z": 3.4735007424,
				"element": "H" 
			},
			{
				"x": -3.1433473946,
				"y": 1.7340683613,
				"z": 1.6743417358,
				"element": "H" 
			},
			{
				"x": -0.9668080305,
				"y": 1.7191545011,
				"z": 0.4829011854,
				"element": "H" 
			}
		],
		 "valence_orbital": [ 
			{
				"type": "occ",
				"energy": -0.26979,
				"method": "rhf"
			},
			{
				"type": "occ",
				"energy": -0.25758,
				"method": "rhf"
			},
			{
				"type": "occ",
				"energy": -0.23732,
				"method": "rhf"
			},
			{
				"type": "occ",
				"energy": -0.215,
				"method": "rhf"
			},
			{
				"type": "occ",
				"energy": -0.20679,
				"method": "rhf"
			},
			{
				"type": "unocc",
				"energy": -0.01271,
				"method": "rhf"
			},
			{
				"type": "unocc",
				"energy": -0.00957,
				"method": "rhf"
			},
			{
				"type": "unocc",
				"energy": 0.00958,
				"method": "rhf"
			},
			{
				"type": "unocc",
				"energy": 0.01627,
				"method": "rhf"
			},
			{
				"type": "unocc",
				"energy": 0.02519,
				"method": "rhf"
			}
		],
		"cosmo_sigma_profile": { 
			"-0.025": 0.0,
			"-0.024": 0.0,
			"-0.023": 0.0,
			"-0.022": 0.0,
			"-0.021": 0.0,
			"-0.02": 0.0,
			"-0.019": 0.0,
			"-0.018": 0.0,
			"-0.017": 0.0,
			"-0.016": 0.0,
			"-0.015": 0.0,
			"-0.014": 0.0,
			"-0.013": 0.0,
			"-0.012": 0.0,
			"-0.011": 0.0,
			"-0.01": 0.0,
			"-0.009": 0.0,
			"-0.008": 0.420772825684,
			"-0.007": 7.3640364004,
			"-0.006": 15.3618214587,
			"-0.005": 24.8789419499,
			"-0.004": 25.5377842806,
			"-0.003": 26.905815728,
			"-0.002": 26.4775656939,
			"-0.001": 30.7706819147,
			"0.0": 26.6442187051,
			"0.001": 21.2643330485,
			"0.002": 26.6785434874,
			"0.003": 32.2118119698,
			"0.004": 34.5773031837,
			"0.005": 23.4162412218,
			"0.006": 12.3420225752,
			"0.007": 3.24879750569,
			"0.008": 1.36929080587,
			"0.009": 0.454451152114,
			"0.01": 0.0,
			"0.011": 0.0,
			"0.012": 0.0,
			"0.013": 0.0,
			"0.014": 0.0,
			"0.015": 0.0,
			"0.016": 0.0,
			"0.017": 0.0,
			"0.018": 0.0,
			"0.019": 0.0,
			"0.02": 0.0,
			"0.021": 0.0,
			"0.022": 0.0,
			"0.023": 0.0,
			"0.024": 0.0,
			"0.025": 0.0
		}
	}
}
