{
	 "smiles": "CC(=O)C1=CC2=CC=CC=C2C1", 
	 "Tm": 395.15, 
	 "num_atms": 22, 
	 "gaussian": { 
		 "optdone": 1, 
		 "sigma_profile": "yes", 
		 "theory": "DFT", 
		 "functional": "B3LYP", 
		 "basiset": "6-31G**", 
		 "properties": { 
			 "R2extent": 2907.5195, 
			 "electric_dipole_moment_norm": 3.3287665959, 
			 "electric_quadrupole_moment_norm": 15.2244592561, 
			 "total_energy": -500.41723397, 
			 "HOMO_LUMO_gap": 0.16048, 
			 "cosmo_polarized_energy": -9.59, 
			 "cosmo_cavitation_energy": 25.86, 
			 "cosmo_dispersion_energy": -18.86, 
			 "cosmo_repulsion_energy": 1.49, 
			 "cosmo_total_nonelectrostatic_energy": 8.5, 
			 "SMD_solvation_energy": 4.7 
		},
		"coords": [
			{
				"x": 0.6474611713,
				"y": -1.8862780249,
				"z": -3.0894643614,
				"element": "C" 
			},
			{
				"x": 0.7384002148,
				"y": -2.505158382,
				"z": -1.7038884636,
				"element": "C" 
			},
			{
				"x": 0.7246578173,
				"y": -3.7206354659,
				"z": -1.5527741145,
				"element": "O" 
			},
			{
				"x": 0.8433673467,
				"y": -1.5891900912,
				"z": -0.5462822916,
				"element": "C" 
			},
			{
				"x": 0.9308986972,
				"y": -2.0097662142,
				"z": 0.7424400686,
				"element": "C" 
			},
			{
				"x": 1.0211068734,
				"y": -0.8691638108,
				"z": 1.6409685658,
				"element": "C" 
			},
			{
				"x": 1.1263140302,
				"y": -0.8006501595,
				"z": 3.0340166451,
				"element": "C" 
			},
			{
				"x": 1.1967753239,
				"y": 0.4563659483,
				"z": 3.6364920837,
				"element": "C" 
			},
			{
				"x": 1.1628667363,
				"y": 1.6233644541,
				"z": 2.862763037,
				"element": "C" 
			},
			{
				"x": 1.0575395873,
				"y": 1.5579101548,
				"z": 1.4675370025,
				"element": "C" 
			},
			{
				"x": 0.9869562842,
				"y": 0.31012905,
				"z": 0.8612291045,
				"element": "C" 
			},
			{
				"x": 0.8704781897,
				"y": -0.0715444653,
				"z": -0.5961119209,
				"element": "C" 
			},
			{
				"x": -0.2288069302,
				"y": -1.2319164627,
				"z": -3.1675223362,
				"element": "H" 
			},
			{
				"x": 1.5278848123,
				"y": -1.2671944558,
				"z": -3.2985258541,
				"element": "H" 
			},
			{
				"x": 0.5759797099,
				"y": -2.6797991286,
				"z": -3.8339828335,
				"element": "H" 
			},
			{
				"x": 0.9319347428,
				"y": -3.0518064436,
				"z": 1.0413088036,
				"element": "H" 
			},
			{
				"x": 1.1526367429,
				"y": -1.705563616,
				"z": 3.6345243531,
				"element": "H" 
			},
			{
				"x": 1.2788333114,
				"y": 0.5323236847,
				"z": 4.7168883751,
				"element": "H" 
			},
			{
				"x": 1.2190237202,
				"y": 2.5917961381,
				"z": 3.3515123028,
				"element": "H" 
			},
			{
				"x": 1.0321188102,
				"y": 2.470326017,
				"z": 0.8773144984,
				"element": "H" 
			},
			{
				"x": -0.0362065434,
				"y": 0.3447120555,
				"z": -1.0568799173,
				"element": "H" 
			},
			{
				"x": 1.7147793517,
				"y": 0.3092392182,
				"z": -1.1875627473,
				"element": "H" 
			}
		],
		 "valence_orbital": [ 
			{
				"type": "occ",
				"energy": -0.33897,
				"method": "rhf"
			},
			{
				"type": "occ",
				"energy": -0.2984,
				"method": "rhf"
			},
			{
				"type": "occ",
				"energy": -0.25257,
				"method": "rhf"
			},
			{
				"type": "occ",
				"energy": -0.241,
				"method": "rhf"
			},
			{
				"type": "occ",
				"energy": -0.22498,
				"method": "rhf"
			},
			{
				"type": "unocc",
				"energy": -0.0645,
				"method": "rhf"
			},
			{
				"type": "unocc",
				"energy": -0.00844,
				"method": "rhf"
			},
			{
				"type": "unocc",
				"energy": 0.01672,
				"method": "rhf"
			},
			{
				"type": "unocc",
				"energy": 0.07344,
				"method": "rhf"
			},
			{
				"type": "unocc",
				"energy": 0.08938,
				"method": "rhf"
			}
		],
		"cosmo_sigma_profile": { 
			"-0.025": 0.0,
			"-0.024": 0.0,
			"-0.023": 0.0,
			"-0.022": 0.0,
			"-0.021": 0.0,
			"-0.02": 0.0,
			"-0.019": 0.0,
			"-0.018": 0.0,
			"-0.017": 0.0,
			"-0.016": 0.0,
			"-0.015": 0.0,
			"-0.014": 0.0,
			"-0.013": 0.0,
			"-0.012": 0.0,
			"-0.011": 0.0,
			"-0.01": 0.0,
			"-0.009": 0.0,
			"-0.008": 0.0,
			"-0.007": 0.775079764165,
			"-0.006": 16.3010360057,
			"-0.005": 21.2434770809,
			"-0.004": 20.2261692361,
			"-0.003": 20.7020108443,
			"-0.002": 15.5989707826,
			"-0.001": 15.2920833238,
			"0.0": 13.7175824845,
			"0.001": 11.0250034664,
			"0.002": 12.3720201402,
			"0.003": 13.9478596998,
			"0.004": 11.1414870429,
			"0.005": 11.3397112781,
			"0.006": 4.52572654355,
			"0.007": 2.17075276798,
			"0.008": 1.14198158253,
			"0.009": 1.4916162842,
			"0.01": 2.30632845256,
			"0.011": 2.15056982529,
			"0.012": 3.80795337048,
			"0.013": 3.84016405198,
			"0.014": 0.964056984047,
			"0.015": 0.0103311278299,
			"0.016": 0.0,
			"0.017": 0.0,
			"0.018": 0.0,
			"0.019": 0.0,
			"0.02": 0.0,
			"0.021": 0.0,
			"0.022": 0.0,
			"0.023": 0.0,
			"0.024": 0.0,
			"0.025": 0.0
		}
	}
}
