{
	 "smiles": "COC(=O)C1=CC=CN1", 
	 "Tm": 347.15, 
	 "num_atms": 16, 
	 "gaussian": { 
		 "optdone": 1, 
		 "sigma_profile": "yes", 
		 "theory": "DFT", 
		 "functional": "B3LYP", 
		 "basiset": "6-31G**", 
		 "properties": { 
			 "R2extent": 1888.7827, 
			 "electric_dipole_moment_norm": 3.35428569296, 
			 "electric_quadrupole_moment_norm": 8.83172726594, 
			 "total_energy": -438.056906962, 
			 "HOMO_LUMO_gap": 0.19938, 
			 "cosmo_polarized_energy": -10.4, 
			 "cosmo_cavitation_energy": 20.54, 
			 "cosmo_dispersion_energy": -15.3, 
			 "cosmo_repulsion_energy": 1.26, 
			 "cosmo_total_nonelectrostatic_energy": 6.51, 
			 "SMD_solvation_energy": 5.48 
		},
		"coords": [
			{
				"x": 2.3661267341,
				"y": -2.5097632032,
				"z": 2.5636559455,
				"element": "C" 
			},
			{
				"x": 2.0879147703,
				"y": -2.0298543358,
				"z": 1.2406489718,
				"element": "O" 
			},
			{
				"x": 1.4207135735,
				"y": -0.8381403221,
				"z": 1.1884818414,
				"element": "C" 
			},
			{
				"x": 1.0819408382,
				"y": -0.2189975844,
				"z": 2.178016288,
				"element": "O" 
			},
			{
				"x": 1.1830836726,
				"y": -0.4304871878,
				"z": -0.1903768065,
				"element": "C" 
			},
			{
				"x": 0.5462736009,
				"y": 0.701599321,
				"z": -0.6806087483,
				"element": "C" 
			},
			{
				"x": 0.5782213794,
				"y": 0.6270315173,
				"z": -2.091890688,
				"element": "C" 
			},
			{
				"x": 1.2333797499,
				"y": -0.5482452899,
				"z": -2.4293584706,
				"element": "C" 
			},
			{
				"x": 1.594052941,
				"y": -1.1785316164,
				"z": -1.275641847,
				"element": "N" 
			},
			{
				"x": 2.9888950338,
				"y": -1.7970597216,
				"z": 3.1105020971,
				"element": "H" 
			},
			{
				"x": 1.439078304,
				"y": -2.6641968702,
				"z": 3.121833341,
				"element": "H" 
			},
			{
				"x": 2.8938171623,
				"y": -3.4546050936,
				"z": 2.431306717,
				"element": "H" 
			},
			{
				"x": 0.1155395642,
				"y": 1.4790254539,
				"z": -0.0667347863,
				"element": "H" 
			},
			{
				"x": 0.1718957739,
				"y": 1.3446538243,
				"z": -2.7902563371,
				"element": "H" 
			},
			{
				"x": 1.4639170213,
				"y": -0.9722763947,
				"z": -3.3957884771,
				"element": "H" 
			},
			{
				"x": 2.0849498806,
				"y": -2.0547524969,
				"z": -1.1907890409,
				"element": "H" 
			}
		],
		 "valence_orbital": [ 
			{
				"type": "occ",
				"energy": -0.35801,
				"method": "rhf"
			},
			{
				"type": "occ",
				"energy": -0.29762,
				"method": "rhf"
			},
			{
				"type": "occ",
				"energy": -0.26944,
				"method": "rhf"
			},
			{
				"type": "occ",
				"energy": -0.25247,
				"method": "rhf"
			},
			{
				"type": "occ",
				"energy": -0.22224,
				"method": "rhf"
			},
			{
				"type": "unocc",
				"energy": -0.02286,
				"method": "rhf"
			},
			{
				"type": "unocc",
				"energy": 0.06095,
				"method": "rhf"
			},
			{
				"type": "unocc",
				"energy": 0.08106,
				"method": "rhf"
			},
			{
				"type": "unocc",
				"energy": 0.11708,
				"method": "rhf"
			},
			{
				"type": "unocc",
				"energy": 0.12266,
				"method": "rhf"
			}
		],
		"cosmo_sigma_profile": { 
			"-0.025": 0.0,
			"-0.024": 0.0,
			"-0.023": 0.0,
			"-0.022": 0.0,
			"-0.021": 0.0,
			"-0.02": 0.0,
			"-0.019": 0.0,
			"-0.018": 0.0,
			"-0.017": 0.0,
			"-0.016": 0.142691889394,
			"-0.015": 1.3853847653,
			"-0.014": 0.587741882213,
			"-0.013": 0.706260088006,
			"-0.012": 1.30192027541,
			"-0.011": 0.968883379582,
			"-0.01": 0.340282667376,
			"-0.009": 1.41957921131,
			"-0.008": 3.5476681936,
			"-0.007": 3.36212298963,
			"-0.006": 8.76905594946,
			"-0.005": 11.3499532761,
			"-0.004": 12.3188139205,
			"-0.003": 14.7893659078,
			"-0.002": 10.3740601168,
			"-0.001": 10.5434204318,
			"0.0": 10.1989226401,
			"0.001": 9.00848654947,
			"0.002": 8.86428779249,
			"0.003": 10.0897396163,
			"0.004": 9.24666109203,
			"0.005": 9.45965392802,
			"0.006": 7.08583384321,
			"0.007": 3.72461099737,
			"0.008": 1.52702612897,
			"0.009": 1.21030092672,
			"0.01": 1.56591757983,
			"0.011": 2.40440819616,
			"0.012": 4.79584408954,
			"0.013": 2.79395552267,
			"0.014": 0.0225316498795,
			"0.015": 0.0,
			"0.016": 0.0,
			"0.017": 0.0,
			"0.018": 0.0,
			"0.019": 0.0,
			"0.02": 0.0,
			"0.021": 0.0,
			"0.022": 0.0,
			"0.023": 0.0,
			"0.024": 0.0,
			"0.025": 0.0
		}
	}
}
