{
	 "smiles": "CC(=O)C1=CC=CC(=C1)N=C=S", 
	 "Tm": 300.15, 
	 "num_atms": 19, 
	 "gaussian": { 
		 "optdone": 1, 
		 "sigma_profile": "yes", 
		 "theory": "DFT", 
		 "functional": "B3LYP", 
		 "basiset": "6-31G**", 
		 "properties": { 
			 "R2extent": 3518.2767, 
			 "electric_dipole_moment_norm": 0.973824383552, 
			 "electric_quadrupole_moment_norm": 25.397341278, 
			 "total_energy": -875.336715326, 
			 "HOMO_LUMO_gap": 0.16593, 
			 "cosmo_polarized_energy": -9.71, 
			 "cosmo_cavitation_energy": 26.98, 
			 "cosmo_dispersion_energy": -19.79, 
			 "cosmo_repulsion_energy": 1.55, 
			 "cosmo_total_nonelectrostatic_energy": 8.74, 
			 "SMD_solvation_energy": 5.96 
		},
		"coords": [
			{
				"x": 0.9355164453,
				"y": 2.4162742067,
				"z": 1.9147978021,
				"element": "C" 
			},
			{
				"x": 0.6303298489,
				"y": 2.8711746131,
				"z": 0.4992846149,
				"element": "C" 
			},
			{
				"x": 0.8317449108,
				"y": 4.0243093716,
				"z": 0.1542483725,
				"element": "O" 
			},
			{
				"x": 0.0717539657,
				"y": 1.8759451829,
				"z": -0.4816057113,
				"element": "C" 
			},
			{
				"x": -0.2018919283,
				"y": 2.3162265211,
				"z": -1.7859733242,
				"element": "C" 
			},
			{
				"x": -0.7194390659,
				"y": 1.4345510208,
				"z": -2.7312630581,
				"element": "C" 
			},
			{
				"x": -0.9723880148,
				"y": 0.105591928,
				"z": -2.3952643227,
				"element": "C" 
			},
			{
				"x": -0.7009789749,
				"y": -0.3408780316,
				"z": -1.0916186667,
				"element": "C" 
			},
			{
				"x": -0.1789972734,
				"y": 0.5444214729,
				"z": -0.1355555215,
				"element": "C" 
			},
			{
				"x": -0.9456429514,
				"y": -1.6473656414,
				"z": -0.749178976,
				"element": "N" 
			},
			{
				"x": -1.1557375851,
				"y": -2.7779826062,
				"z": -0.4543826251,
				"element": "C" 
			},
			{
				"x": -1.4363711895,
				"y": -4.2948511737,
				"z": -0.0571201306,
				"element": "S" 
			},
			{
				"x": 1.672067612,
				"y": 1.6051872584,
				"z": 1.9174046532,
				"element": "H" 
			},
			{
				"x": 0.0333159688,
				"y": 2.0415130189,
				"z": 2.4108108261,
				"element": "H" 
			},
			{
				"x": 1.3298440458,
				"y": 3.2639013943,
				"z": 2.475594821,
				"element": "H" 
			},
			{
				"x": 0.0010951801,
				"y": 3.3531618035,
				"z": -2.0294843887,
				"element": "H" 
			},
			{
				"x": -0.9294004266,
				"y": 1.7791691134,
				"z": -3.739115119,
				"element": "H" 
			},
			{
				"x": -1.3754579582,
				"y": -0.5913675278,
				"z": -3.1221326218,
				"element": "H" 
			},
			{
				"x": 0.0206373908,
				"y": 0.1715180751,
				"z": 0.862253376,
				"element": "H" 
			}
		],
		 "valence_orbital": [ 
			{
				"type": "occ",
				"energy": -0.29957,
				"method": "rhf"
			},
			{
				"type": "occ",
				"energy": -0.2822,
				"method": "rhf"
			},
			{
				"type": "occ",
				"energy": -0.26413,
				"method": "rhf"
			},
			{
				"type": "occ",
				"energy": -0.25597,
				"method": "rhf"
			},
			{
				"type": "occ",
				"energy": -0.23879,
				"method": "rhf"
			},
			{
				"type": "unocc",
				"energy": -0.07286,
				"method": "rhf"
			},
			{
				"type": "unocc",
				"energy": -0.05228,
				"method": "rhf"
			},
			{
				"type": "unocc",
				"energy": -0.00191,
				"method": "rhf"
			},
			{
				"type": "unocc",
				"energy": 0.00889,
				"method": "rhf"
			},
			{
				"type": "unocc",
				"energy": 0.05321,
				"method": "rhf"
			}
		],
		"cosmo_sigma_profile": { 
			"-0.025": 0.0,
			"-0.024": 0.0,
			"-0.023": 0.0,
			"-0.022": 0.0,
			"-0.021": 0.0,
			"-0.02": 0.0,
			"-0.019": 0.0,
			"-0.018": 0.0,
			"-0.017": 0.0,
			"-0.016": 0.0,
			"-0.015": 0.0,
			"-0.014": 0.0,
			"-0.013": 0.0,
			"-0.012": 0.0,
			"-0.011": 0.0,
			"-0.01": 0.0,
			"-0.009": 0.0823845870353,
			"-0.008": 3.74956281746,
			"-0.007": 10.086348253,
			"-0.006": 14.6764513735,
			"-0.005": 13.0334519296,
			"-0.004": 12.5123310973,
			"-0.003": 12.7053279096,
			"-0.002": 19.0228066905,
			"-0.001": 23.9448392571,
			"0.0": 16.8667741865,
			"0.001": 20.2415561869,
			"0.002": 16.3353238662,
			"0.003": 10.0544864924,
			"0.004": 7.23884430745,
			"0.005": 11.2050318305,
			"0.006": 14.0556151091,
			"0.007": 2.00662179911,
			"0.008": 1.37136821364,
			"0.009": 1.49184201792,
			"0.01": 2.71017500492,
			"0.011": 3.30713847626,
			"0.012": 3.16423888139,
			"0.013": 0.903777683665,
			"0.014": 0.0,
			"0.015": 0.0,
			"0.016": 0.0,
			"0.017": 0.0,
			"0.018": 0.0,
			"0.019": 0.0,
			"0.02": 0.0,
			"0.021": 0.0,
			"0.022": 0.0,
			"0.023": 0.0,
			"0.024": 0.0,
			"0.025": 0.0
		}
	}
}
