{
	 "smiles": "ON=CC1=CC=C(F)C=C1", 
	 "Tm": 356.65, 
	 "num_atms": 16, 
	 "gaussian": { 
		 "optdone": 1, 
		 "sigma_profile": "yes", 
		 "theory": "DFT", 
		 "functional": "B3LYP", 
		 "basiset": "6-31G**", 
		 "properties": { 
			 "R2extent": 2167.6641, 
			 "electric_dipole_moment_norm": 0.763260532191, 
			 "electric_quadrupole_moment_norm": 8.10673855629, 
			 "total_energy": -500.109471628, 
			 "HOMO_LUMO_gap": 0.18259, 
			 "cosmo_polarized_energy": -7.82, 
			 "cosmo_cavitation_energy": 21.51, 
			 "cosmo_dispersion_energy": -15.76, 
			 "cosmo_repulsion_energy": 1.26, 
			 "cosmo_total_nonelectrostatic_energy": 7.01, 
			 "SMD_solvation_energy": 4.76 
		},
		"coords": [
			{
				"x": 0.1752978614,
				"y": -2.0018514932,
				"z": -2.3352191898,
				"element": "O" 
			},
			{
				"x": 0.0839931409,
				"y": -1.5038270871,
				"z": -1.0298734621,
				"element": "N" 
			},
			{
				"x": 0.5233804674,
				"y": -0.301563259,
				"z": -0.9675637024,
				"element": "C" 
			},
			{
				"x": 0.5354206548,
				"y": 0.4456891792,
				"z": 0.2929454004,
				"element": "C" 
			},
			{
				"x": 0.0680931501,
				"y": -0.1121404867,
				"z": 1.4977260172,
				"element": "C" 
			},
			{
				"x": 0.092467269,
				"y": 0.6222912761,
				"z": 2.677126458,
				"element": "C" 
			},
			{
				"x": 0.5883985814,
				"y": 1.9245061717,
				"z": 2.6495069332,
				"element": "C" 
			},
			{
				"x": 0.6125125512,
				"y": 2.6378638693,
				"z": 3.7928446377,
				"element": "F" 
			},
			{
				"x": 1.058169107,
				"y": 2.5081910584,
				"z": 1.4792201472,
				"element": "C" 
			},
			{
				"x": 1.0279996823,
				"y": 1.7604408132,
				"z": 0.3034904354,
				"element": "C" 
			},
			{
				"x": -0.1807983536,
				"y": -2.8955672535,
				"z": -2.2437329244,
				"element": "H" 
			},
			{
				"x": 0.9015592222,
				"y": 0.1931844172,
				"z": -1.8659209622,
				"element": "H" 
			},
			{
				"x": -0.3131111789,
				"y": -1.1274037581,
				"z": 1.493715315,
				"element": "H" 
			},
			{
				"x": -0.2640988487,
				"y": 0.2062631922,
				"z": 3.6132506234,
				"element": "H" 
			},
			{
				"x": 1.43621067,
				"y": 3.5244135711,
				"z": 1.4999302681,
				"element": "H" 
			},
			{
				"x": 1.3919060235,
				"y": 2.2032097893,
				"z": -0.6197459946,
				"element": "H" 
			}
		],
		 "valence_orbital": [ 
			{
				"type": "occ",
				"energy": -0.34876,
				"method": "rhf"
			},
			{
				"type": "occ",
				"energy": -0.2898,
				"method": "rhf"
			},
			{
				"type": "occ",
				"energy": -0.28178,
				"method": "rhf"
			},
			{
				"type": "occ",
				"energy": -0.2662,
				"method": "rhf"
			},
			{
				"type": "occ",
				"energy": -0.22509,
				"method": "rhf"
			},
			{
				"type": "unocc",
				"energy": -0.0425,
				"method": "rhf"
			},
			{
				"type": "unocc",
				"energy": -0.01463,
				"method": "rhf"
			},
			{
				"type": "unocc",
				"energy": 0.05106,
				"method": "rhf"
			},
			{
				"type": "unocc",
				"energy": 0.07058,
				"method": "rhf"
			},
			{
				"type": "unocc",
				"energy": 0.0913,
				"method": "rhf"
			}
		],
		"cosmo_sigma_profile": { 
			"-0.025": 0.0,
			"-0.024": 0.0,
			"-0.023": 0.0,
			"-0.022": 0.0,
			"-0.021": 0.0,
			"-0.02": 0.0,
			"-0.019": 0.0,
			"-0.018": 0.295612739869,
			"-0.017": 0.801395148453,
			"-0.016": 1.00594738398,
			"-0.015": 1.02020813728,
			"-0.014": 0.86425147052,
			"-0.013": 0.219844670897,
			"-0.012": 0.667919334648,
			"-0.011": 0.785695164323,
			"-0.01": 0.672704944041,
			"-0.009": 0.623830513897,
			"-0.008": 3.84904835729,
			"-0.007": 8.07195220129,
			"-0.006": 8.70864238005,
			"-0.005": 9.09029255371,
			"-0.004": 7.44369372864,
			"-0.003": 7.81673842024,
			"-0.002": 7.36700526842,
			"-0.001": 7.63794622132,
			"0.0": 12.3511589592,
			"0.001": 14.6010616587,
			"0.002": 16.7938177752,
			"0.003": 21.1306573317,
			"0.004": 16.8864623375,
			"0.005": 6.63942630926,
			"0.006": 4.01502383595,
			"0.007": 2.1852484496,
			"0.008": 3.11161535694,
			"0.009": 2.80641680938,
			"0.01": 3.23928951264,
			"0.011": 1.67147879906,
			"0.012": 0.0,
			"0.013": 0.0,
			"0.014": 0.0,
			"0.015": 0.0,
			"0.016": 0.0,
			"0.017": 0.0,
			"0.018": 0.0,
			"0.019": 0.0,
			"0.02": 0.0,
			"0.021": 0.0,
			"0.022": 0.0,
			"0.023": 0.0,
			"0.024": 0.0,
			"0.025": 0.0
		}
	}
}
