{
	 "smiles": "NC1=CC(NS(=O)(=O)C2=CC=CC=C2)=C(F)C=C1", 
	 "Tm": 417.15, 
	 "num_atms": 29, 
	 "gaussian": { 
		 "optdone": 1, 
		 "sigma_profile": "yes", 
		 "theory": "DFT", 
		 "functional": "B3LYP", 
		 "basiset": "6-31G**", 
		 "properties": { 
			 "R2extent": 5120.5737, 
			 "electric_dipole_moment_norm": 8.07238472634, 
			 "electric_quadrupole_moment_norm": 18.3147227571, 
			 "total_energy": -1221.80280013, 
			 "HOMO_LUMO_gap": 0.16553, 
			 "cosmo_polarized_energy": -23.28, 
			 "cosmo_cavitation_energy": 35.26, 
			 "cosmo_dispersion_energy": -24.58, 
			 "cosmo_repulsion_energy": 1.85, 
			 "cosmo_total_nonelectrostatic_energy": 12.53, 
			 "SMD_solvation_energy": 5.53 
		},
		"coords": [
			{
				"x": 2.6371692111,
				"y": 2.2501652966,
				"z": -1.3135522355,
				"element": "N" 
			},
			{
				"x": 2.0304138344,
				"y": 2.0830730446,
				"z": -0.0640522027,
				"element": "C" 
			},
			{
				"x": 1.6835322017,
				"y": 0.8048213002,
				"z": 0.398699092,
				"element": "C" 
			},
			{
				"x": 1.1436695772,
				"y": 0.6137372734,
				"z": 1.6762382611,
				"element": "C" 
			},
			{
				"x": 0.8488576696,
				"y": -0.6898459947,
				"z": 2.1691168625,
				"element": "N" 
			},
			{
				"x": -0.7420921277,
				"y": -1.296922465,
				"z": 2.1572664019,
				"element": "S" 
			},
			{
				"x": -1.5998670511,
				"y": -0.2575927685,
				"z": 2.7167941228,
				"element": "O" 
			},
			{
				"x": -0.6209770855,
				"y": -2.6357444112,
				"z": 2.7344102276,
				"element": "O" 
			},
			{
				"x": -1.1955956242,
				"y": -1.4923722179,
				"z": 0.4266119685,
				"element": "C" 
			},
			{
				"x": -0.9487324583,
				"y": -2.7116332518,
				"z": -0.209816049,
				"element": "C" 
			},
			{
				"x": -1.282877434,
				"y": -2.8520098635,
				"z": -1.5569588329,
				"element": "C" 
			},
			{
				"x": -1.8561336313,
				"y": -1.7839160538,
				"z": -2.252091045,
				"element": "C" 
			},
			{
				"x": -2.1046053773,
				"y": -0.572658814,
				"z": -1.6019046635,
				"element": "C" 
			},
			{
				"x": -1.7757891823,
				"y": -0.419222632,
				"z": -0.254493125,
				"element": "C" 
			},
			{
				"x": 0.9420209763,
				"y": 1.7271185724,
				"z": 2.5002081593,
				"element": "C" 
			},
			{
				"x": 0.4569995924,
				"y": 1.5673656928,
				"z": 3.7411013834,
				"element": "F" 
			},
			{
				"x": 1.2583203526,
				"y": 3.0029026733,
				"z": 2.0497398289,
				"element": "C" 
			},
			{
				"x": 1.8006690332,
				"y": 3.1829851251,
				"z": 0.7800038676,
				"element": "C" 
			},
			{
				"x": 2.4324142997,
				"y": 1.5246852105,
				"z": -1.987192523,
				"element": "H" 
			},
			{
				"x": 2.5263766345,
				"y": 3.17015505,
				"z": -1.7177937205,
				"element": "H" 
			},
			{
				"x": 1.8382953939,
				"y": -0.0621068825,
				"z": -0.2386651049,
				"element": "H" 
			},
			{
				"x": 1.4950068686,
				"y": -1.4172335529,
				"z": 1.8784770094,
				"element": "H" 
			},
			{
				"x": -0.527139743,
				"y": -3.5368171427,
				"z": 0.3542519698,
				"element": "H" 
			},
			{
				"x": -1.1057580111,
				"y": -3.7979095098,
				"z": -2.0600291204,
				"element": "H" 
			},
			{
				"x": -2.1191247769,
				"y": -1.8995624592,
				"z": -3.2995591719,
				"element": "H" 
			},
			{
				"x": -2.5633582242,
				"y": 0.2511364164,
				"z": -2.1405476112,
				"element": "H" 
			},
			{
				"x": -1.9822984264,
				"y": 0.5048796742,
				"z": 0.2735203225,
				"element": "H" 
			},
			{
				"x": 1.0889037601,
				"y": 3.8457820587,
				"z": 2.7110801078,
				"element": "H" 
			},
			{
				"x": 2.0576997481,
				"y": 4.183340631,
				"z": 0.4424358205,
				"element": "H" 
			}
		],
		 "valence_orbital": [ 
			{
				"type": "occ",
				"energy": -0.29576,
				"method": "rhf"
			},
			{
				"type": "occ",
				"energy": -0.27385,
				"method": "rhf"
			},
			{
				"type": "occ",
				"energy": -0.26989,
				"method": "rhf"
			},
			{
				"type": "occ",
				"energy": -0.25188,
				"method": "rhf"
			},
			{
				"type": "occ",
				"energy": -0.20825,
				"method": "rhf"
			},
			{
				"type": "unocc",
				"energy": -0.04272,
				"method": "rhf"
			},
			{
				"type": "unocc",
				"energy": -0.02406,
				"method": "rhf"
			},
			{
				"type": "unocc",
				"energy": -0.01923,
				"method": "rhf"
			},
			{
				"type": "unocc",
				"energy": 0.00971,
				"method": "rhf"
			},
			{
				"type": "unocc",
				"energy": 0.05878,
				"method": "rhf"
			}
		],
		"cosmo_sigma_profile": { 
			"-0.025": 0.0,
			"-0.024": 0.0,
			"-0.023": 0.0,
			"-0.022": 0.0,
			"-0.021": 0.0,
			"-0.02": 0.0,
			"-0.019": 0.0,
			"-0.018": 0.0,
			"-0.017": 0.0,
			"-0.016": 0.253589558019,
			"-0.015": 0.915163565967,
			"-0.014": 1.41650843216,
			"-0.013": 1.45123647704,
			"-0.012": 4.40229464471,
			"-0.011": 4.60076015909,
			"-0.01": 3.5341115405,
			"-0.009": 5.5585672381,
			"-0.008": 4.74901832032,
			"-0.007": 14.4781846899,
			"-0.006": 16.7929025101,
			"-0.005": 17.5604544869,
			"-0.004": 14.0495285141,
			"-0.003": 11.6739680507,
			"-0.002": 12.5671354289,
			"-0.001": 11.8854855567,
			"0.0": 14.7225016309,
			"0.001": 16.429992054,
			"0.002": 21.2413261399,
			"0.003": 25.6631019908,
			"0.004": 18.4871143175,
			"0.005": 11.4711209139,
			"0.006": 6.58278910221,
			"0.007": 6.51842321931,
			"0.008": 6.89163977093,
			"0.009": 5.51264871117,
			"0.01": 9.33115938074,
			"0.011": 9.49668780791,
			"0.012": 2.06412305252,
			"0.013": 0.846564353695,
			"0.014": 0.575257513822,
			"0.015": 0.176718724668,
			"0.016": 0.0,
			"0.017": 0.0,
			"0.018": 0.0,
			"0.019": 0.0,
			"0.02": 0.0,
			"0.021": 0.0,
			"0.022": 0.0,
			"0.023": 0.0,
			"0.024": 0.0,
			"0.025": 0.0
		}
	}
}
