{
	 "smiles": "CC1=CC=C(C=C1)C#N", 
	 "Tm": 301.95, 
	 "num_atms": 16, 
	 "gaussian": { 
		 "optdone": 1, 
		 "sigma_profile": "yes", 
		 "theory": "DFT", 
		 "functional": "B3LYP", 
		 "basiset": "6-31G**", 
		 "properties": { 
			 "R2extent": 1526.8617, 
			 "electric_dipole_moment_norm": 5.12984475691, 
			 "electric_quadrupole_moment_norm": 16.6399387709, 
			 "total_energy": -363.813159806, 
			 "HOMO_LUMO_gap": 0.20883, 
			 "cosmo_polarized_energy": -8.52, 
			 "cosmo_cavitation_energy": 21.0, 
			 "cosmo_dispersion_energy": -14.91, 
			 "cosmo_repulsion_energy": 1.23, 
			 "cosmo_total_nonelectrostatic_energy": 7.31, 
			 "SMD_solvation_energy": 5.16 
		},
		"coords": [
			{
				"x": -0.9008230299,
				"y": 0.050949756,
				"z": -2.5480307295,
				"element": "C" 
			},
			{
				"x": -0.5222478875,
				"y": -0.3573179519,
				"z": -1.1443389295,
				"element": "C" 
			},
			{
				"x": -0.6503341018,
				"y": -1.6889794904,
				"z": -0.7233418008,
				"element": "C" 
			},
			{
				"x": -0.3318529854,
				"y": -2.0687779987,
				"z": 0.5764082132,
				"element": "C" 
			},
			{
				"x": 0.1299323988,
				"y": -1.1088261589,
				"z": 1.492162953,
				"element": "C" 
			},
			{
				"x": 0.2664727488,
				"y": 0.2281027348,
				"z": 1.083099833,
				"element": "C" 
			},
			{
				"x": -0.0567282063,
				"y": 0.5897998291,
				"z": -0.2206444063,
				"element": "C" 
			},
			{
				"x": 0.4632613392,
				"y": -1.4915240016,
				"z": 2.8333024166,
				"element": "C" 
			},
			{
				"x": 0.7340673569,
				"y": -1.8021384563,
				"z": 3.9214956738,
				"element": "N" 
			},
			{
				"x": -0.7501177457,
				"y": -0.7680291791,
				"z": -3.257213842,
				"element": "H" 
			},
			{
				"x": -0.3133497601,
				"y": 0.908958581,
				"z": -2.8872485242,
				"element": "H" 
			},
			{
				"x": -1.9583273032,
				"y": 0.3378942904,
				"z": -2.6002543839,
				"element": "H" 
			},
			{
				"x": -1.0031971666,
				"y": -2.4400306879,
				"z": -1.4247707138,
				"element": "H" 
			},
			{
				"x": -0.4342031235,
				"y": -3.1028238915,
				"z": 0.8880583361,
				"element": "H" 
			},
			{
				"x": 0.6269907936,
				"y": 0.9709266288,
				"z": 1.7867320075,
				"element": "H" 
			},
			{
				"x": 0.0559566728,
				"y": 1.6259159961,
				"z": -0.5278161033,
				"element": "H" 
			}
		],
		 "valence_orbital": [ 
			{
				"type": "occ",
				"energy": -0.35261,
				"method": "rhf"
			},
			{
				"type": "occ",
				"energy": -0.33758,
				"method": "rhf"
			},
			{
				"type": "occ",
				"energy": -0.32597,
				"method": "rhf"
			},
			{
				"type": "occ",
				"energy": -0.27322,
				"method": "rhf"
			},
			{
				"type": "occ",
				"energy": -0.25636,
				"method": "rhf"
			},
			{
				"type": "unocc",
				"energy": -0.04753,
				"method": "rhf"
			},
			{
				"type": "unocc",
				"energy": -0.02269,
				"method": "rhf"
			},
			{
				"type": "unocc",
				"energy": 0.04037,
				"method": "rhf"
			},
			{
				"type": "unocc",
				"energy": 0.07432,
				"method": "rhf"
			},
			{
				"type": "unocc",
				"energy": 0.08168,
				"method": "rhf"
			}
		],
		"cosmo_sigma_profile": { 
			"-0.025": 0.0,
			"-0.024": 0.0,
			"-0.023": 0.0,
			"-0.022": 0.0,
			"-0.021": 0.0,
			"-0.02": 0.0,
			"-0.019": 0.0,
			"-0.018": 0.0,
			"-0.017": 0.0,
			"-0.016": 0.0,
			"-0.015": 0.0,
			"-0.014": 0.0,
			"-0.013": 0.0,
			"-0.012": 0.0,
			"-0.011": 0.0,
			"-0.01": 0.0,
			"-0.009": 0.0,
			"-0.008": 1.40080684555,
			"-0.007": 5.56342733994,
			"-0.006": 9.83032504499,
			"-0.005": 14.5865691064,
			"-0.004": 14.4849923743,
			"-0.003": 12.1227484666,
			"-0.002": 13.5191947649,
			"-0.001": 17.5903361096,
			"0.0": 15.2375476809,
			"0.001": 10.3615894364,
			"0.002": 10.5537675388,
			"0.003": 13.9915442226,
			"0.004": 4.60419893947,
			"0.005": 2.03275757037,
			"0.006": 2.47334583412,
			"0.007": 2.64976780539,
			"0.008": 3.67025876488,
			"0.009": 3.20355326751,
			"0.01": 3.50496316538,
			"0.011": 2.74357754023,
			"0.012": 2.58942819554,
			"0.013": 2.00098679097,
			"0.014": 0.204573497122,
			"0.015": 0.0,
			"0.016": 0.0,
			"0.017": 0.0,
			"0.018": 0.0,
			"0.019": 0.0,
			"0.02": 0.0,
			"0.021": 0.0,
			"0.022": 0.0,
			"0.023": 0.0,
			"0.024": 0.0,
			"0.025": 0.0
		}
	}
}
