{
	 "smiles": "[O-][N+](=O)C1=CNN=C1C1=CC=NC=C1", 
	 "Tm": 490.15, 
	 "num_atms": 20, 
	 "gaussian": { 
		 "optdone": 1, 
		 "sigma_profile": "yes", 
		 "theory": "DFT", 
		 "functional": "B3LYP", 
		 "basiset": "6-31G**", 
		 "properties": { 
			 "R2extent": 2872.226, 
			 "electric_dipole_moment_norm": 5.8856431042, 
			 "electric_quadrupole_moment_norm": 19.6917674913, 
			 "total_energy": -677.785667725, 
			 "HOMO_LUMO_gap": 0.16345, 
			 "cosmo_polarized_energy": -17.79, 
			 "cosmo_cavitation_energy": 25.65, 
			 "cosmo_dispersion_energy": -19.09, 
			 "cosmo_repulsion_energy": 1.49, 
			 "cosmo_total_nonelectrostatic_energy": 8.06, 
			 "SMD_solvation_energy": 4.58 
		},
		"coords": [
			{
				"x": 0.1768582992,
				"y": 0.0914152281,
				"z": 2.6787419532,
				"element": "O" 
			},
			{
				"x": -0.0160577106,
				"y": 1.2926658247,
				"z": 2.4896062959,
				"element": "N" 
			},
			{
				"x": 0.0803655355,
				"y": 2.1648685007,
				"z": 3.3581515575,
				"element": "O" 
			},
			{
				"x": -0.3650193525,
				"y": 1.7365894828,
				"z": 1.168382778,
				"element": "C" 
			},
			{
				"x": -0.4979328454,
				"y": 3.0828439865,
				"z": 0.8690201416,
				"element": "C" 
			},
			{
				"x": -0.752816024,
				"y": 3.1265801558,
				"z": -0.4479567715,
				"element": "N" 
			},
			{
				"x": -0.8014644563,
				"y": 1.909639379,
				"z": -1.0338616692,
				"element": "N" 
			},
			{
				"x": -0.5637115369,
				"y": 1.0257884477,
				"z": -0.0600957879,
				"element": "C" 
			},
			{
				"x": -0.5536581278,
				"y": -0.4087208848,
				"z": -0.4174358937,
				"element": "C" 
			},
			{
				"x": -0.1367858233,
				"y": -0.7838936552,
				"z": -1.7036645365,
				"element": "C" 
			},
			{
				"x": -0.1798766836,
				"y": -2.1286253302,
				"z": -2.0628748976,
				"element": "C" 
			},
			{
				"x": -0.6035202032,
				"y": -3.1056579994,
				"z": -1.2502736325,
				"element": "N" 
			},
			{
				"x": -1.0058103868,
				"y": -2.7382233708,
				"z": -0.0277508264,
				"element": "C" 
			},
			{
				"x": -1.0025877134,
				"y": -1.4230091808,
				"z": 0.4369626177,
				"element": "C" 
			},
			{
				"x": -0.4148531298,
				"y": 3.9511169163,
				"z": 1.5029815149,
				"element": "H" 
			},
			{
				"x": -0.91987334,
				"y": 3.9440603347,
				"z": -1.0159241507,
				"element": "H" 
			},
			{
				"x": 0.2126382146,
				"y": -0.0346678087,
				"z": -2.4047971842,
				"element": "H" 
			},
			{
				"x": 0.1449790017,
				"y": -2.4364424811,
				"z": -3.0552426227,
				"element": "H" 
			},
			{
				"x": -1.352096362,
				"y": -3.5384055494,
				"z": 0.6237886062,
				"element": "H" 
			},
			{
				"x": -1.3341773553,
				"y": -1.202121996,
				"z": 1.442342508,
				"element": "H" 
			}
		],
		 "valence_orbital": [ 
			{
				"type": "occ",
				"energy": -0.29557,
				"method": "rhf"
			},
			{
				"type": "occ",
				"energy": -0.29343,
				"method": "rhf"
			},
			{
				"type": "occ",
				"energy": -0.26621,
				"method": "rhf"
			},
			{
				"type": "occ",
				"energy": -0.26148,
				"method": "rhf"
			},
			{
				"type": "occ",
				"energy": -0.25403,
				"method": "rhf"
			},
			{
				"type": "unocc",
				"energy": -0.09058,
				"method": "rhf"
			},
			{
				"type": "unocc",
				"energy": -0.04655,
				"method": "rhf"
			},
			{
				"type": "unocc",
				"energy": -0.0102,
				"method": "rhf"
			},
			{
				"type": "unocc",
				"energy": -0.00138,
				"method": "rhf"
			},
			{
				"type": "unocc",
				"energy": 0.04482,
				"method": "rhf"
			}
		],
		"cosmo_sigma_profile": { 
			"-0.025": 0.0,
			"-0.024": 0.0,
			"-0.023": 0.0,
			"-0.022": 0.0,
			"-0.021": 0.0,
			"-0.02": 0.0,
			"-0.019": 0.849216965602,
			"-0.018": 2.23798351782,
			"-0.017": 1.24756859598,
			"-0.016": 1.23837446936,
			"-0.015": 0.981924584621,
			"-0.014": 1.28170306927,
			"-0.013": 1.08059968387,
			"-0.012": 2.32483866315,
			"-0.011": 2.5776261435,
			"-0.01": 2.04368022365,
			"-0.009": 1.23553741135,
			"-0.008": 1.92516856755,
			"-0.007": 4.46705790767,
			"-0.006": 11.7865603004,
			"-0.005": 11.3925271389,
			"-0.004": 10.2018966618,
			"-0.003": 11.6410440777,
			"-0.002": 15.5140291989,
			"-0.001": 14.0104087174,
			"0.0": 10.4961269346,
			"0.001": 13.4412353572,
			"0.002": 17.6098337871,
			"0.003": 9.40824424097,
			"0.004": 7.40180781495,
			"0.005": 7.02648233748,
			"0.006": 5.83634047874,
			"0.007": 9.14279207572,
			"0.008": 9.87218010602,
			"0.009": 6.273127844,
			"0.01": 4.35640653721,
			"0.011": 2.52598098596,
			"0.012": 1.83408070082,
			"0.013": 0.977559763438,
			"0.014": 1.22129333545,
			"0.015": 0.540607714526,
			"0.016": 1.07333396541,
			"0.017": 0.0968420177618,
			"0.018": 0.0,
			"0.019": 0.0,
			"0.02": 0.0,
			"0.021": 0.0,
			"0.022": 0.0,
			"0.023": 0.0,
			"0.024": 0.0,
			"0.025": 0.0
		}
	}
}
