{
	 "smiles": "CCCCCCCCCCCCCCCCCC(=O)CCCCCCCCCCCCCCCCC", 
	 "Tm": 361.15, 
	 "num_atms": 106, 
	 "gaussian": { 
		 "optdone": 1, 
		 "sigma_profile": "yes", 
		 "theory": "DFT", 
		 "functional": "B3LYP", 
		 "basiset": "6-31G**", 
		 "properties": { 
			 "R2extent": 28851.52, 
			 "electric_dipole_moment_norm": 2.39789361941, 
			 "electric_quadrupole_moment_norm": 11.6977724183, 
			 "total_energy": -1451.23623946, 
			 "HOMO_LUMO_gap": 0.23061, 
			 "cosmo_polarized_energy": -7.75, 
			 "cosmo_cavitation_energy": 99.25, 
			 "cosmo_dispersion_energy": -53.9, 
			 "cosmo_repulsion_energy": 4.27, 
			 "cosmo_total_nonelectrostatic_energy": 49.61, 
			 "SMD_solvation_energy": 12.28 
		},
		"coords": [
			{
				"x": 1.4152671027,
				"y": -0.2584814199,
				"z": 5.4771252366,
				"element": "C" 
			},
			{
				"x": 1.32952564,
				"y": -1.4766437792,
				"z": 4.5517442585,
				"element": "C" 
			},
			{
				"x": -0.0439520931,
				"y": -2.1644229295,
				"z": 4.5957389204,
				"element": "C" 
			},
			{
				"x": -0.1879788874,
				"y": -3.414428318,
				"z": 3.699338057,
				"element": "C" 
			},
			{
				"x": -0.7316069276,
				"y": -3.1730614469,
				"z": 2.2794080295,
				"element": "C" 
			},
			{
				"x": 0.1446016992,
				"y": -2.3227378433,
				"z": 1.3491438475,
				"element": "C" 
			},
			{
				"x": -0.4064909579,
				"y": -2.2390196631,
				"z": -0.0811219585,
				"element": "C" 
			},
			{
				"x": 0.456881066,
				"y": -1.3847505772,
				"z": -1.0199985822,
				"element": "C" 
			},
			{
				"x": -0.1005235219,
				"y": -1.2164770996,
				"z": -2.4441929316,
				"element": "C" 
			},
			{
				"x": -0.1790101002,
				"y": -2.523963232,
				"z": -3.2499862813,
				"element": "C" 
			},
			{
				"x": -0.5404714214,
				"y": -2.3627314047,
				"z": -4.7429632754,
				"element": "C" 
			},
			{
				"x": -2.0313772789,
				"y": -2.3935712624,
				"z": -5.134524332,
				"element": "C" 
			},
			{
				"x": -2.9283025614,
				"y": -1.2269128001,
				"z": -4.6593862041,
				"element": "C" 
			},
			{
				"x": -3.7251354028,
				"y": -1.4924389168,
				"z": -3.3722548503,
				"element": "C" 
			},
			{
				"x": -4.6602341598,
				"y": -0.3306878838,
				"z": -3.0051267148,
				"element": "C" 
			},
			{
				"x": -5.5158477735,
				"y": -0.5602327758,
				"z": -1.7469858512,
				"element": "C" 
			},
			{
				"x": -4.7356127353,
				"y": -0.5177700368,
				"z": -0.4273353097,
				"element": "C" 
			},
			{
				"x": -4.2874207564,
				"y": 0.8843300983,
				"z": -0.0152823098,
				"element": "C" 
			},
			{
				"x": -4.7411899266,
				"y": 1.8824059731,
				"z": -0.5467578165,
				"element": "O" 
			},
			{
				"x": -3.2789371919,
				"y": 0.9655384533,
				"z": 1.1273612354,
				"element": "C" 
			},
			{
				"x": -2.8459267157,
				"y": 2.3864016751,
				"z": 1.5038911139,
				"element": "C" 
			},
			{
				"x": -1.9301483517,
				"y": 3.0539076453,
				"z": 0.4678141183,
				"element": "C" 
			},
			{
				"x": -1.4606670802,
				"y": 4.4489890676,
				"z": 0.9024800128,
				"element": "C" 
			},
			{
				"x": -0.6642936073,
				"y": 5.2186678683,
				"z": -0.1662422144,
				"element": "C" 
			},
			{
				"x": 0.6497414232,
				"y": 4.5678545847,
				"z": -0.6331177351,
				"element": "C" 
			},
			{
				"x": 1.7112876209,
				"y": 4.3996178997,
				"z": 0.4630850425,
				"element": "C" 
			},
			{
				"x": 3.0374549801,
				"y": 3.8412230886,
				"z": -0.0727259932,
				"element": "C" 
			},
			{
				"x": 4.1579720488,
				"y": 3.7211233186,
				"z": 0.9751945527,
				"element": "C" 
			},
			{
				"x": 3.8895782654,
				"y": 2.750170591,
				"z": 2.1404740501,
				"element": "C" 
			},
			{
				"x": 3.6380006853,
				"y": 1.2832609127,
				"z": 1.7432508022,
				"element": "C" 
			},
			{
				"x": 4.7789213217,
				"y": 0.5881228475,
				"z": 0.978191511,
				"element": "C" 
			},
			{
				"x": 6.0884152685,
				"y": 0.4733055827,
				"z": 1.7726321392,
				"element": "C" 
			},
			{
				"x": 7.1892898532,
				"y": -0.3949168513,
				"z": 1.1355214206,
				"element": "C" 
			},
			{
				"x": 7.7766337744,
				"y": 0.1191259383,
				"z": -0.1977231855,
				"element": "C" 
			},
			{
				"x": 7.0855561202,
				"y": -0.4006360048,
				"z": -1.4681366395,
				"element": "C" 
			},
			{
				"x": 7.7286610105,
				"y": 0.1281924015,
				"z": -2.7543688813,
				"element": "C" 
			},
			{
				"x": 0.6818333719,
				"y": 0.5060704064,
				"z": 5.1957160452,
				"element": "H" 
			},
			{
				"x": 2.4069864013,
				"y": 0.2045502841,
				"z": 5.4409203399,
				"element": "H" 
			},
			{
				"x": 1.2163305557,
				"y": -0.5367021882,
				"z": 6.5186609049,
				"element": "H" 
			},
			{
				"x": 2.0991659745,
				"y": -2.2069029932,
				"z": 4.8369639092,
				"element": "H" 
			},
			{
				"x": 1.5696354547,
				"y": -1.1717592364,
				"z": 3.5264578244,
				"element": "H" 
			},
			{
				"x": -0.8271572184,
				"y": -1.4365088451,
				"z": 4.3377390413,
				"element": "H" 
			},
			{
				"x": -0.2400715625,
				"y": -2.450307668,
				"z": 5.6378965186,
				"element": "H" 
			},
			{
				"x": 0.7808058215,
				"y": -3.9302718148,
				"z": 3.6365761507,
				"element": "H" 
			},
			{
				"x": -0.867878024,
				"y": -4.1215249451,
				"z": 4.1908793171,
				"element": "H" 
			},
			{
				"x": -1.7260340273,
				"y": -2.7091810876,
				"z": 2.3557154132,
				"element": "H" 
			},
			{
				"x": -0.8944493254,
				"y": -4.1509906275,
				"z": 1.8050524239,
				"element": "H" 
			},
			{
				"x": 0.2446717466,
				"y": -1.3065592014,
				"z": 1.7523442174,
				"element": "H" 
			},
			{
				"x": 1.1609945737,
				"y": -2.7409668771,
				"z": 1.3208393253,
				"element": "H" 
			},
			{
				"x": -0.5064390912,
				"y": -3.2550430407,
				"z": -0.4845975978,
				"element": "H" 
			},
			{
				"x": -1.4260772102,
				"y": -1.8253938185,
				"z": -0.0512627812,
				"element": "H" 
			},
			{
				"x": 1.4642628377,
				"y": -1.8219494189,
				"z": -1.0772808013,
				"element": "H" 
			},
			{
				"x": 0.5861459071,
				"y": -0.3891257782,
				"z": -0.5727501295,
				"element": "H" 
			},
			{
				"x": 0.5455414699,
				"y": -0.514408388,
				"z": -2.9884294661,
				"element": "H" 
			},
			{
				"x": -1.0860580173,
				"y": -0.7369609971,
				"z": -2.3923022394,
				"element": "H" 
			},
			{
				"x": -0.8840522087,
				"y": -3.2224536518,
				"z": -2.7806867712,
				"element": "H" 
			},
			{
				"x": 0.8054593796,
				"y": -3.0080810802,
				"z": -3.1847573689,
				"element": "H" 
			},
			{
				"x": -0.0545361429,
				"y": -3.1761128487,
				"z": -5.2971548736,
				"element": "H" 
			},
			{
				"x": -0.0880539975,
				"y": -1.4361514272,
				"z": -5.1246284455,
				"element": "H" 
			},
			{
				"x": -2.0649498135,
				"y": -2.4281772804,
				"z": -6.2308174549,
				"element": "H" 
			},
			{
				"x": -2.4690415655,
				"y": -3.3447784408,
				"z": -4.7991936718,
				"element": "H" 
			},
			{
				"x": -3.6519168465,
				"y": -0.995038189,
				"z": -5.4522017846,
				"element": "H" 
			},
			{
				"x": -2.3237258856,
				"y": -0.3174365855,
				"z": -4.539960863,
				"element": "H" 
			},
			{
				"x": -4.3232075552,
				"y": -2.4051759762,
				"z": -3.508685816,
				"element": "H" 
			},
			{
				"x": -3.0377180591,
				"y": -1.7066989763,
				"z": -2.5444279349,
				"element": "H" 
			},
			{
				"x": -5.3341899897,
				"y": -0.1487776381,
				"z": -3.8529271867,
				"element": "H" 
			},
			{
				"x": -4.0810164312,
				"y": 0.5932020685,
				"z": -2.8828078248,
				"element": "H" 
			},
			{
				"x": -6.0270469412,
				"y": -1.5282066474,
				"z": -1.8265714603,
				"element": "H" 
			},
			{
				"x": -6.2933770743,
				"y": 0.2089283277,
				"z": -1.7016006743,
				"element": "H" 
			},
			{
				"x": -3.8623758999,
				"y": -1.1822553213,
				"z": -0.4454666157,
				"element": "H" 
			},
			{
				"x": -5.3613276033,
				"y": -0.895218199,
				"z": 0.3955800507,
				"element": "H" 
			},
			{
				"x": -3.7301815487,
				"y": 0.4533420165,
				"z": 1.9901119729,
				"element": "H" 
			},
			{
				"x": -2.4087841907,
				"y": 0.3496330402,
				"z": 0.8575888732,
				"element": "H" 
			},
			{
				"x": -2.3309929345,
				"y": 2.3487239271,
				"z": 2.4727418797,
				"element": "H" 
			},
			{
				"x": -3.7410174207,
				"y": 3.003341377,
				"z": 1.6452131128,
				"element": "H" 
			},
			{
				"x": -1.0601691437,
				"y": 2.4059644357,
				"z": 0.2900893803,
				"element": "H" 
			},
			{
				"x": -2.4665743193,
				"y": 3.129395743,
				"z": -0.4849545197,
				"element": "H" 
			},
			{
				"x": -2.3414776733,
				"y": 5.0486691978,
				"z": 1.1690023889,
				"element": "H" 
			},
			{
				"x": -0.868545711,
				"y": 4.3640196554,
				"z": 1.8240342495,
				"element": "H" 
			},
			{
				"x": -1.3101127462,
				"y": 5.367376945,
				"z": -1.0422144183,
				"element": "H" 
			},
			{
				"x": -0.4415568687,
				"y": 6.2232017417,
				"z": 0.2191839048,
				"element": "H" 
			},
			{
				"x": 1.0706130888,
				"y": 5.1840813494,
				"z": -1.4394826284,
				"element": "H" 
			},
			{
				"x": 0.4409361095,
				"y": 3.58966396,
				"z": -1.0870537945,
				"element": "H" 
			},
			{
				"x": 1.3251795912,
				"y": 3.7422233389,
				"z": 1.2520171297,
				"element": "H" 
			},
			{
				"x": 1.8957771707,
				"y": 5.3725115968,
				"z": 0.9423724775,
				"element": "H" 
			},
			{
				"x": 3.391360001,
				"y": 4.4933390984,
				"z": -0.8829650577,
				"element": "H" 
			},
			{
				"x": 2.8551700294,
				"y": 2.8633868629,
				"z": -0.5392135845,
				"element": "H" 
			},
			{
				"x": 4.3547983673,
				"y": 4.7168749785,
				"z": 1.3957969981,
				"element": "H" 
			},
			{
				"x": 5.084454801,
				"y": 3.4275472001,
				"z": 0.4647868902,
				"element": "H" 
			},
			{
				"x": 4.7406220835,
				"y": 2.7987838048,
				"z": 2.8315135128,
				"element": "H" 
			},
			{
				"x": 3.0253328667,
				"y": 3.1030982203,
				"z": 2.7172278582,
				"element": "H" 
			},
			{
				"x": 2.7234240323,
				"y": 1.2221585788,
				"z": 1.1389629538,
				"element": "H" 
			},
			{
				"x": 3.4286266052,
				"y": 0.7108765618,
				"z": 2.6577878845,
				"element": "H" 
			},
			{
				"x": 4.9603422425,
				"y": 1.1154775898,
				"z": 0.0338000775,
				"element": "H" 
			},
			{
				"x": 4.4426358919,
				"y": -0.4201008537,
				"z": 0.6996686491,
				"element": "H" 
			},
			{
				"x": 6.4986480213,
				"y": 1.4757103223,
				"z": 1.9556145041,
				"element": "H" 
			},
			{
				"x": 5.8569946795,
				"y": 0.0588068436,
				"z": 2.7643492006,
				"element": "H" 
			},
			{
				"x": 8.0031143149,
				"y": -0.4761391369,
				"z": 1.8670344887,
				"element": "H" 
			},
			{
				"x": 6.8126901209,
				"y": -1.4184811466,
				"z": 0.9958943096,
				"element": "H" 
			},
			{
				"x": 7.7696560828,
				"y": 1.2189531278,
				"z": -0.2002346719,
				"element": "H" 
			},
			{
				"x": 8.8352540382,
				"y": -0.1684896396,
				"z": -0.2532063383,
				"element": "H" 
			},
			{
				"x": 7.1224652689,
				"y": -1.4987151336,
				"z": -1.4660822339,
				"element": "H" 
			},
			{
				"x": 6.0221331607,
				"y": -0.1355082009,
				"z": -1.4578878605,
				"element": "H" 
			},
			{
				"x": 7.6734795883,
				"y": 1.2218275545,
				"z": -2.8047992902,
				"element": "H" 
			},
			{
				"x": 8.787498109,
				"y": -0.1499825245,
				"z": -2.8117145931,
				"element": "H" 
			},
			{
				"x": 7.2318128584,
				"y": -0.2702580325,
				"z": -3.6451767083,
				"element": "H" 
			}
		],
		 "valence_orbital": [ 
			{
				"type": "occ",
				"energy": -0.29795,
				"method": "rhf"
			},
			{
				"type": "occ",
				"energy": -0.29575,
				"method": "rhf"
			},
			{
				"type": "occ",
				"energy": -0.2924,
				"method": "rhf"
			},
			{
				"type": "occ",
				"energy": -0.29224,
				"method": "rhf"
			},
			{
				"type": "occ",
				"energy": -0.24152,
				"method": "rhf"
			},
			{
				"type": "unocc",
				"energy": -0.01091,
				"method": "rhf"
			},
			{
				"type": "unocc",
				"energy": 0.04183,
				"method": "rhf"
			},
			{
				"type": "unocc",
				"energy": 0.05951,
				"method": "rhf"
			},
			{
				"type": "unocc",
				"energy": 0.07817,
				"method": "rhf"
			},
			{
				"type": "unocc",
				"energy": 0.07967,
				"method": "rhf"
			}
		],
		"cosmo_sigma_profile": { 
			"-0.025": 0.0,
			"-0.024": 0.0,
			"-0.023": 0.0,
			"-0.022": 0.0,
			"-0.021": 0.0,
			"-0.02": 0.0,
			"-0.019": 0.0,
			"-0.018": 0.0,
			"-0.017": 0.0,
			"-0.016": 0.0,
			"-0.015": 0.0,
			"-0.014": 0.0,
			"-0.013": 0.0,
			"-0.012": 0.0,
			"-0.011": 0.0,
			"-0.01": 0.0,
			"-0.009": 0.0,
			"-0.008": 0.0,
			"-0.007": 0.0374771584529,
			"-0.006": 2.37471544451,
			"-0.005": 5.58991442274,
			"-0.004": 8.22249094463,
			"-0.003": 17.1703392691,
			"-0.002": 83.3404789381,
			"-0.001": 196.91679439,
			"0.0": 196.855962736,
			"0.001": 150.51128161,
			"0.002": 69.9726541101,
			"0.003": 4.37464993208,
			"0.004": 2.22821494716,
			"0.005": 1.96392637476,
			"0.006": 2.14770608751,
			"0.007": 1.69734804713,
			"0.008": 2.26391223762,
			"0.009": 1.82951631601,
			"0.01": 1.87509701284,
			"0.011": 2.21303455239,
			"0.012": 3.04116117618,
			"0.013": 1.98838825245,
			"0.014": 0.000850426194156,
			"0.015": 0.0,
			"0.016": 0.0,
			"0.017": 0.0,
			"0.018": 0.0,
			"0.019": 0.0,
			"0.02": 0.0,
			"0.021": 0.0,
			"0.022": 0.0,
			"0.023": 0.0,
			"0.024": 0.0,
			"0.025": 0.0
		}
	}
}
