{
	 "smiles": "O=C(CC1=CC=CC=C1)OC(=O)CC1=CC=CC=C1", 
	 "Tm": 346.45, 
	 "num_atms": 33, 
	 "gaussian": { 
		 "optdone": 1, 
		 "sigma_profile": "yes", 
		 "theory": "DFT", 
		 "functional": "B3LYP", 
		 "basiset": "6-31G**", 
		 "properties": { 
			 "R2extent": 5759.2208, 
			 "electric_dipole_moment_norm": 4.05888240776, 
			 "electric_quadrupole_moment_norm": 10.5276309818, 
			 "total_energy": -843.829239757, 
			 "HOMO_LUMO_gap": 0.20857, 
			 "cosmo_polarized_energy": -13.88, 
			 "cosmo_cavitation_energy": 39.08, 
			 "cosmo_dispersion_energy": -24.82, 
			 "cosmo_repulsion_energy": 1.93, 
			 "cosmo_total_nonelectrostatic_energy": 16.19, 
			 "SMD_solvation_energy": 7.96 
		},
		"coords": [
			{
				"x": -1.5769842257,
				"y": -1.0534178741,
				"z": -0.8954285699,
				"element": "O" 
			},
			{
				"x": -0.9913792601,
				"y": -1.3813126967,
				"z": 0.0981931206,
				"element": "C" 
			},
			{
				"x": 0.2287023593,
				"y": -2.2853113695,
				"z": 0.1624627124,
				"element": "C" 
			},
			{
				"x": 1.4894926737,
				"y": -1.5035552941,
				"z": 0.494159117,
				"element": "C" 
			},
			{
				"x": 2.0770226737,
				"y": -1.5858666866,
				"z": 1.7618521412,
				"element": "C" 
			},
			{
				"x": 3.2247790048,
				"y": -0.8492126273,
				"z": 2.0621538471,
				"element": "C" 
			},
			{
				"x": 3.79596189,
				"y": -0.0180007045,
				"z": 1.096846015,
				"element": "C" 
			},
			{
				"x": 3.2143870829,
				"y": 0.0710805356,
				"z": -0.1700260386,
				"element": "C" 
			},
			{
				"x": 2.0688240024,
				"y": -0.6665066799,
				"z": -0.4687839767,
				"element": "C" 
			},
			{
				"x": -1.2896488722,
				"y": -0.9164791719,
				"z": 1.3734711559,
				"element": "O" 
			},
			{
				"x": -2.5053942285,
				"y": -0.2929601995,
				"z": 1.6667632354,
				"element": "C" 
			},
			{
				"x": -3.537369877,
				"y": -0.5586237489,
				"z": 1.1200448302,
				"element": "O" 
			},
			{
				"x": -2.3053829602,
				"y": 0.703884721,
				"z": 2.7945711968,
				"element": "C" 
			},
			{
				"x": -1.5677436357,
				"y": 1.9466860387,
				"z": 2.3205675245,
				"element": "C" 
			},
			{
				"x": -0.1679812076,
				"y": 1.9777662356,
				"z": 2.2731011202,
				"element": "C" 
			},
			{
				"x": 0.4986993734,
				"y": 3.1147904697,
				"z": 1.8163128283,
				"element": "C" 
			},
			{
				"x": -0.2251411505,
				"y": 4.2346120351,
				"z": 1.4016196534,
				"element": "C" 
			},
			{
				"x": -1.6200679156,
				"y": 4.2101600852,
				"z": 1.4433777253,
				"element": "C" 
			},
			{
				"x": -2.2867984553,
				"y": 3.0713663438,
				"z": 1.897617196,
				"element": "C" 
			},
			{
				"x": 0.3123408532,
				"y": -2.7670970655,
				"z": -0.8145970487,
				"element": "H" 
			},
			{
				"x": 0.0530440487,
				"y": -3.05579468,
				"z": 0.9194207035,
				"element": "H" 
			},
			{
				"x": 1.6363562057,
				"y": -2.2328751396,
				"z": 2.5158709998,
				"element": "H" 
			},
			{
				"x": 3.6738869622,
				"y": -0.9288848079,
				"z": 3.0481169971,
				"element": "H" 
			},
			{
				"x": 4.691089332,
				"y": 0.5521127834,
				"z": 1.3280946096,
				"element": "H" 
			},
			{
				"x": 3.6537663013,
				"y": 0.7137143113,
				"z": -0.9275473602,
				"element": "H" 
			},
			{
				"x": 1.6162461545,
				"y": -0.591246812,
				"z": -1.4541818856,
				"element": "H" 
			},
			{
				"x": -1.7408856412,
				"y": 0.2104329319,
				"z": 3.5926814385,
				"element": "H" 
			},
			{
				"x": -3.2970779956,
				"y": 0.9595348711,
				"z": 3.1729554768,
				"element": "H" 
			},
			{
				"x": 0.4018778052,
				"y": 1.1079008751,
				"z": 2.5866396547,
				"element": "H" 
			},
			{
				"x": 1.5843100977,
				"y": 3.1218520817,
				"z": 1.7832164129,
				"element": "H" 
			},
			{
				"x": 0.2945539779,
				"y": 5.1206357357,
				"z": 1.0484158001,
				"element": "H" 
			},
			{
				"x": -2.1911295147,
				"y": 5.0764937963,
				"z": 1.1220211916,
				"element": "H" 
			},
			{
				"x": -3.3732558585,
				"y": 3.0545217069,
				"z": 1.924818176,
				"element": "H" 
			}
		],
		 "valence_orbital": [ 
			{
				"type": "occ",
				"energy": -0.27819,
				"method": "rhf"
			},
			{
				"type": "occ",
				"energy": -0.25901,
				"method": "rhf"
			},
			{
				"type": "occ",
				"energy": -0.25168,
				"method": "rhf"
			},
			{
				"type": "occ",
				"energy": -0.25147,
				"method": "rhf"
			},
			{
				"type": "occ",
				"energy": -0.24293,
				"method": "rhf"
			},
			{
				"type": "unocc",
				"energy": -0.03436,
				"method": "rhf"
			},
			{
				"type": "unocc",
				"energy": -0.01487,
				"method": "rhf"
			},
			{
				"type": "unocc",
				"energy": -0.01132,
				"method": "rhf"
			},
			{
				"type": "unocc",
				"energy": -0.0036,
				"method": "rhf"
			},
			{
				"type": "unocc",
				"energy": 0.00209,
				"method": "rhf"
			}
		],
		"cosmo_sigma_profile": { 
			"-0.025": 0.0,
			"-0.024": 0.0,
			"-0.023": 0.0,
			"-0.022": 0.0,
			"-0.021": 0.0,
			"-0.02": 0.0,
			"-0.019": 0.0,
			"-0.018": 0.0,
			"-0.017": 0.0,
			"-0.016": 0.0,
			"-0.015": 0.0,
			"-0.014": 0.0,
			"-0.013": 0.0,
			"-0.012": 0.0,
			"-0.011": 0.0,
			"-0.01": 0.0,
			"-0.009": 0.0,
			"-0.008": 0.267240847766,
			"-0.007": 7.96237757603,
			"-0.006": 23.5090312844,
			"-0.005": 27.4469747899,
			"-0.004": 30.0241053715,
			"-0.003": 26.5789892543,
			"-0.002": 20.4094739631,
			"-0.001": 22.4308831248,
			"0.0": 18.5758780593,
			"0.001": 21.1530464845,
			"0.002": 23.4436575196,
			"0.003": 21.1354179765,
			"0.004": 17.4468976654,
			"0.005": 15.9941686148,
			"0.006": 7.72262400733,
			"0.007": 2.50317803067,
			"0.008": 3.50057787063,
			"0.009": 5.00163913957,
			"0.01": 9.06981655596,
			"0.011": 5.53215458889,
			"0.012": 2.11954608121,
			"0.013": 0.285579127869,
			"0.014": 0.0,
			"0.015": 0.0,
			"0.016": 0.0,
			"0.017": 0.0,
			"0.018": 0.0,
			"0.019": 0.0,
			"0.02": 0.0,
			"0.021": 0.0,
			"0.022": 0.0,
			"0.023": 0.0,
			"0.024": 0.0,
			"0.025": 0.0
		}
	}
}
