{
	 "smiles": "NC(C(O)=O)C1=C(F)C=CC(F)=C1", 
	 "Tm": 503.15, 
	 "num_atms": 20, 
	 "gaussian": { 
		 "optdone": 1, 
		 "sigma_profile": "yes", 
		 "theory": "DFT", 
		 "functional": "B3LYP", 
		 "basiset": "6-31G**", 
		 "properties": { 
			 "R2extent": 2535.9495, 
			 "electric_dipole_moment_norm": 3.51121628214, 
			 "electric_quadrupole_moment_norm": 16.6943593645, 
			 "total_energy": -713.93739654, 
			 "HOMO_LUMO_gap": 0.2089, 
			 "cosmo_polarized_energy": -15.68, 
			 "cosmo_cavitation_energy": 25.31, 
			 "cosmo_dispersion_energy": -17.95, 
			 "cosmo_repulsion_energy": 1.39, 
			 "cosmo_total_nonelectrostatic_energy": 8.75, 
			 "SMD_solvation_energy": 4.98 
		},
		"coords": [
			{
				"x": 0.4053546602,
				"y": 2.5113932738,
				"z": -1.2851918148,
				"element": "N" 
			},
			{
				"x": 1.2201329605,
				"y": 1.3663862231,
				"z": -0.8977429421,
				"element": "C" 
			},
			{
				"x": 2.0340693815,
				"y": 0.7757086337,
				"z": -2.082281937,
				"element": "C" 
			},
			{
				"x": 2.6064876941,
				"y": -0.4338248314,
				"z": -1.8756951437,
				"element": "O" 
			},
			{
				"x": 2.2161736449,
				"y": 1.3808037281,
				"z": -3.108335851,
				"element": "O" 
			},
			{
				"x": 0.3991694379,
				"y": 0.3100566353,
				"z": -0.1769021199,
				"element": "C" 
			},
			{
				"x": -0.613075883,
				"y": -0.386409304,
				"z": -0.8459081883,
				"element": "C" 
			},
			{
				"x": -0.8246217677,
				"y": -0.1035385149,
				"z": -2.1544885735,
				"element": "F" 
			},
			{
				"x": -1.4004934958,
				"y": -1.3500735927,
				"z": -0.2322255843,
				"element": "C" 
			},
			{
				"x": -1.1788576169,
				"y": -1.6504575254,
				"z": 1.112724353,
				"element": "C" 
			},
			{
				"x": -0.1744769543,
				"y": -0.9700031799,
				"z": 1.7909372482,
				"element": "C" 
			},
			{
				"x": 0.0482252284,
				"y": -1.2522866057,
				"z": 3.0892944449,
				"element": "F" 
			},
			{
				"x": 0.6107331348,
				"y": -0.0018893005,
				"z": 1.1715264551,
				"element": "C" 
			},
			{
				"x": -0.3231354329,
				"y": 2.1844122886,
				"z": -1.9168301876,
				"element": "H" 
			},
			{
				"x": 0.9890664998,
				"y": 3.1225631236,
				"z": -1.8544560956,
				"element": "H" 
			},
			{
				"x": 1.9820566271,
				"y": 1.7221576123,
				"z": -0.1891540808,
				"element": "H" 
			},
			{
				"x": 2.3106222419,
				"y": -0.7946292893,
				"z": -1.0254431644,
				"element": "H" 
			},
			{
				"x": -2.169977047,
				"y": -1.8538940858,
				"z": -0.8063255675,
				"element": "H" 
			},
			{
				"x": -1.7700638979,
				"y": -2.3967635924,
				"z": 1.6310892932,
				"element": "H" 
			},
			{
				"x": 1.3705105844,
				"y": 0.5147883033,
				"z": 1.7489094562,
				"element": "H" 
			}
		],
		 "valence_orbital": [ 
			{
				"type": "occ",
				"energy": -0.32125,
				"method": "rhf"
			},
			{
				"type": "occ",
				"energy": -0.29822,
				"method": "rhf"
			},
			{
				"type": "occ",
				"energy": -0.27696,
				"method": "rhf"
			},
			{
				"type": "occ",
				"energy": -0.25944,
				"method": "rhf"
			},
			{
				"type": "occ",
				"energy": -0.25232,
				"method": "rhf"
			},
			{
				"type": "unocc",
				"energy": -0.04342,
				"method": "rhf"
			},
			{
				"type": "unocc",
				"energy": -0.0212,
				"method": "rhf"
			},
			{
				"type": "unocc",
				"energy": 0.00527,
				"method": "rhf"
			},
			{
				"type": "unocc",
				"energy": 0.06277,
				"method": "rhf"
			},
			{
				"type": "unocc",
				"energy": 0.06959,
				"method": "rhf"
			}
		],
		"cosmo_sigma_profile": { 
			"-0.025": 0.0,
			"-0.024": 0.0,
			"-0.023": 0.0,
			"-0.022": 0.0,
			"-0.021": 0.0,
			"-0.02": 0.0,
			"-0.019": 0.0,
			"-0.018": 0.0,
			"-0.017": 0.0,
			"-0.016": 0.529179693698,
			"-0.015": 0.413140589757,
			"-0.014": 1.25441299093,
			"-0.013": 1.42469785978,
			"-0.012": 1.46298656227,
			"-0.011": 1.56246595696,
			"-0.01": 2.0612590945,
			"-0.009": 6.58486063623,
			"-0.008": 11.6494489825,
			"-0.007": 10.9393866611,
			"-0.006": 8.50738213456,
			"-0.005": 7.69399712532,
			"-0.004": 8.72823454132,
			"-0.003": 6.76015956555,
			"-0.002": 8.49444985477,
			"-0.001": 11.7255091468,
			"0.0": 16.908299195,
			"0.001": 15.4768696666,
			"0.002": 14.3058837606,
			"0.003": 12.4522576739,
			"0.004": 14.9464735544,
			"0.005": 4.42572081712,
			"0.006": 3.14213771963,
			"0.007": 2.31271905449,
			"0.008": 4.03102521454,
			"0.009": 4.48039452504,
			"0.01": 5.56265117708,
			"0.011": 6.17926337174,
			"0.012": 3.52477968933,
			"0.013": 1.26226191091,
			"0.014": 0.709546085942,
			"0.015": 0.535024034205,
			"0.016": 0.661149417568,
			"0.017": 0.658328189462,
			"0.018": 0.492983931982,
			"0.019": 0.0799949033982,
			"0.02": 0.0,
			"0.021": 0.0,
			"0.022": 0.0,
			"0.023": 0.0,
			"0.024": 0.0,
			"0.025": 0.0
		}
	}
}
