{
	 "smiles": "O=CC1=CC=C(C=O)C=C1", 
	 "Tm": 389.15, 
	 "num_atms": 16, 
	 "gaussian": { 
		 "optdone": 1, 
		 "sigma_profile": "yes", 
		 "theory": "DFT", 
		 "functional": "B3LYP", 
		 "basiset": "6-31G**", 
		 "properties": { 
			 "R2extent": 1800.8374, 
			 "electric_dipole_moment_norm": 3.25737571674, 
			 "electric_quadrupole_moment_norm": 11.4569974177, 
			 "total_energy": -458.895309528, 
			 "HOMO_LUMO_gap": 0.16947, 
			 "cosmo_polarized_energy": -10.93, 
			 "cosmo_cavitation_energy": 21.43, 
			 "cosmo_dispersion_energy": -15.41, 
			 "cosmo_repulsion_energy": 1.23, 
			 "cosmo_total_nonelectrostatic_energy": 7.25, 
			 "SMD_solvation_energy": 5.89 
		},
		"coords": [
			{
				"x": -2.1744380751,
				"y": -2.9170445973,
				"z": 1.6254262289,
				"element": "O" 
			},
			{
				"x": -2.1603394293,
				"y": -1.7081277213,
				"z": 1.5038571283,
				"element": "C" 
			},
			{
				"x": -0.9988589605,
				"y": -0.9310228361,
				"z": 1.0030578481,
				"element": "C" 
			},
			{
				"x": 0.1850758242,
				"y": -1.5932581378,
				"z": 0.6326447673,
				"element": "C" 
			},
			{
				"x": 1.2675181769,
				"y": -0.8638454098,
				"z": 0.1654529777,
				"element": "C" 
			},
			{
				"x": 1.1779136226,
				"y": 0.5358123539,
				"z": 0.0635280215,
				"element": "C" 
			},
			{
				"x": 2.3345802851,
				"y": 1.3207438962,
				"z": -0.4362006733,
				"element": "C" 
			},
			{
				"x": 3.3948724724,
				"y": 0.8357441105,
				"z": -0.7782755088,
				"element": "O" 
			},
			{
				"x": -0.0010720248,
				"y": 1.1958230253,
				"z": 0.4323112484,
				"element": "C" 
			},
			{
				"x": -1.08857112,
				"y": 0.4630011892,
				"z": 0.9017035274,
				"element": "C" 
			},
			{
				"x": -3.0490444417,
				"y": -1.094508247,
				"z": 1.7707814023,
				"element": "H" 
			},
			{
				"x": 0.2223421287,
				"y": -2.6741958435,
				"z": 0.7230536184,
				"element": "H" 
			},
			{
				"x": 2.1950269914,
				"y": -1.3448742154,
				"z": -0.1283594707,
				"element": "H" 
			},
			{
				"x": 2.1657583024,
				"y": 2.4194460653,
				"z": -0.4800581561,
				"element": "H" 
			},
			{
				"x": -0.0599438226,
				"y": 2.2784219729,
				"z": 0.3496355436,
				"element": "H" 
			},
			{
				"x": -2.0086199297,
				"y": 0.9652843948,
				"z": 1.1907414971,
				"element": "H" 
			}
		],
		 "valence_orbital": [ 
			{
				"type": "occ",
				"energy": -0.36823,
				"method": "rhf"
			},
			{
				"type": "occ",
				"energy": -0.28209,
				"method": "rhf"
			},
			{
				"type": "occ",
				"energy": -0.27977,
				"method": "rhf"
			},
			{
				"type": "occ",
				"energy": -0.26999,
				"method": "rhf"
			},
			{
				"type": "occ",
				"energy": -0.26729,
				"method": "rhf"
			},
			{
				"type": "unocc",
				"energy": -0.09782,
				"method": "rhf"
			},
			{
				"type": "unocc",
				"energy": -0.03236,
				"method": "rhf"
			},
			{
				"type": "unocc",
				"energy": -0.02389,
				"method": "rhf"
			},
			{
				"type": "unocc",
				"energy": 0.05294,
				"method": "rhf"
			},
			{
				"type": "unocc",
				"energy": 0.08809,
				"method": "rhf"
			}
		],
		"cosmo_sigma_profile": { 
			"-0.025": 0.0,
			"-0.024": 0.0,
			"-0.023": 0.0,
			"-0.022": 0.0,
			"-0.021": 0.0,
			"-0.02": 0.0,
			"-0.019": 0.0,
			"-0.018": 0.0,
			"-0.017": 0.0,
			"-0.016": 0.0,
			"-0.015": 0.0,
			"-0.014": 0.0,
			"-0.013": 0.0,
			"-0.012": 0.0,
			"-0.011": 0.0,
			"-0.01": 0.0,
			"-0.009": 1.10407799544,
			"-0.008": 7.12160557214,
			"-0.007": 11.2668089187,
			"-0.006": 13.4206143625,
			"-0.005": 11.4889190869,
			"-0.004": 11.0349033129,
			"-0.003": 10.033334015,
			"-0.002": 11.035868026,
			"-0.001": 10.1544638771,
			"0.0": 13.6648214037,
			"0.001": 15.958664214,
			"0.002": 13.235744663,
			"0.003": 4.41146263847,
			"0.004": 3.21801744325,
			"0.005": 2.481509541,
			"0.006": 3.65015104533,
			"0.007": 3.22943706135,
			"0.008": 3.49297460482,
			"0.009": 4.3728840853,
			"0.01": 6.55033030442,
			"0.011": 8.09549823646,
			"0.012": 3.18718580597,
			"0.013": 0.335172889321,
			"0.014": 0.0,
			"0.015": 0.0,
			"0.016": 0.0,
			"0.017": 0.0,
			"0.018": 0.0,
			"0.019": 0.0,
			"0.02": 0.0,
			"0.021": 0.0,
			"0.022": 0.0,
			"0.023": 0.0,
			"0.024": 0.0,
			"0.025": 0.0
		}
	}
}
