{
	 "smiles": "CCC1(NC(=O)N(C)C1=O)C1=CC=CC=C1", 
	 "Tm": 409.15, 
	 "num_atms": 30, 
	 "gaussian": { 
		 "optdone": 1, 
		 "sigma_profile": "yes", 
		 "theory": "DFT", 
		 "functional": "B3LYP", 
		 "basiset": "6-31G**", 
		 "properties": { 
			 "R2extent": 3873.8871, 
			 "electric_dipole_moment_norm": 2.22619674333, 
			 "electric_quadrupole_moment_norm": 11.9954277369, 
			 "total_energy": -725.716463411, 
			 "HOMO_LUMO_gap": 0.22804, 
			 "cosmo_polarized_energy": -14.05, 
			 "cosmo_cavitation_energy": 32.83, 
			 "cosmo_dispersion_energy": -22.83, 
			 "cosmo_repulsion_energy": 1.79, 
			 "cosmo_total_nonelectrostatic_energy": 11.79, 
			 "SMD_solvation_energy": 7.28 
		},
		"coords": [
			{
				"x": 0.3992758806,
				"y": 1.6153345197,
				"z": -2.7523458462,
				"element": "C" 
			},
			{
				"x": -0.2921195621,
				"y": 1.1394522285,
				"z": -1.471958768,
				"element": "C" 
			},
			{
				"x": 0.3375828962,
				"y": -0.1333716877,
				"z": -0.841302906,
				"element": "C" 
			},
			{
				"x": 0.1563087782,
				"y": -1.3055466505,
				"z": -1.6945389042,
				"element": "N" 
			},
			{
				"x": -0.7214570145,
				"y": -2.2285868943,
				"z": -1.1861974002,
				"element": "C" 
			},
			{
				"x": -1.1382520732,
				"y": -3.2416220509,
				"z": -1.7120866678,
				"element": "O" 
			},
			{
				"x": -1.0664539344,
				"y": -1.7714291064,
				"z": 0.1058135753,
				"element": "N" 
			},
			{
				"x": -1.9581710877,
				"y": -2.4961300211,
				"z": 0.9939682065,
				"element": "C" 
			},
			{
				"x": -0.5186770771,
				"y": -0.5418193819,
				"z": 0.3858359277,
				"element": "C" 
			},
			{
				"x": -0.700677146,
				"y": 0.1117870263,
				"z": 1.3948938914,
				"element": "O" 
			},
			{
				"x": 1.7976227001,
				"y": 0.0872321297,
				"z": -0.4261131843,
				"element": "C" 
			},
			{
				"x": 2.8345342659,
				"y": -0.6843639142,
				"z": -0.9620793821,
				"element": "C" 
			},
			{
				"x": 4.160306251,
				"y": -0.4534236286,
				"z": -0.5878207401,
				"element": "C" 
			},
			{
				"x": 4.4662607178,
				"y": 0.5469586458,
				"z": 0.3338853986,
				"element": "C" 
			},
			{
				"x": 3.4354696555,
				"y": 1.3117768487,
				"z": 0.8844766748,
				"element": "C" 
			},
			{
				"x": 2.1121201723,
				"y": 1.0868063356,
				"z": 0.5078405901,
				"element": "C" 
			},
			{
				"x": 1.4531246161,
				"y": 1.8478229351,
				"z": -2.5756449832,
				"element": "H" 
			},
			{
				"x": -0.0880811558,
				"y": 2.5186675596,
				"z": -3.1309836243,
				"element": "H" 
			},
			{
				"x": 0.3465168717,
				"y": 0.8651709251,
				"z": -3.5499777295,
				"element": "H" 
			},
			{
				"x": -1.3488603194,
				"y": 0.92612834,
				"z": -1.674388167,
				"element": "H" 
			},
			{
				"x": -0.2723159007,
				"y": 1.9297560824,
				"z": -0.7157943566,
				"element": "H" 
			},
			{
				"x": 0.3656532586,
				"y": -1.3208158127,
				"z": -2.6804409649,
				"element": "H" 
			},
			{
				"x": -2.7946527501,
				"y": -1.8577768055,
				"z": 1.2889664328,
				"element": "H" 
			},
			{
				"x": -2.3225187524,
				"y": -3.3674639277,
				"z": 0.4491853747,
				"element": "H" 
			},
			{
				"x": -1.426388253,
				"y": -2.8158062751,
				"z": 1.8943950406,
				"element": "H" 
			},
			{
				"x": 2.6058628005,
				"y": -1.4786505373,
				"z": -1.6643004183,
				"element": "H" 
			},
			{
				"x": 4.9515324953,
				"y": -1.0618488968,
				"z": -1.0166563451,
				"element": "H" 
			},
			{
				"x": 5.4968953302,
				"y": 0.7257262687,
				"z": 0.6264195469,
				"element": "H" 
			},
			{
				"x": 3.6600404204,
				"y": 2.0844796048,
				"z": 1.6141904019,
				"element": "H" 
			},
			{
				"x": 1.3161179162,
				"y": 1.6636561409,
				"z": 0.9653593262,
				"element": "H" 
			}
		],
		 "valence_orbital": [ 
			{
				"type": "occ",
				"energy": -0.27605,
				"method": "rhf"
			},
			{
				"type": "occ",
				"energy": -0.26856,
				"method": "rhf"
			},
			{
				"type": "occ",
				"energy": -0.26346,
				"method": "rhf"
			},
			{
				"type": "occ",
				"energy": -0.25325,
				"method": "rhf"
			},
			{
				"type": "occ",
				"energy": -0.24689,
				"method": "rhf"
			},
			{
				"type": "unocc",
				"energy": -0.01885,
				"method": "rhf"
			},
			{
				"type": "unocc",
				"energy": -0.00552,
				"method": "rhf"
			},
			{
				"type": "unocc",
				"energy": 0.00406,
				"method": "rhf"
			},
			{
				"type": "unocc",
				"energy": 0.05494,
				"method": "rhf"
			},
			{
				"type": "unocc",
				"energy": 0.07051,
				"method": "rhf"
			}
		],
		"cosmo_sigma_profile": { 
			"-0.025": 0.0,
			"-0.024": 0.0,
			"-0.023": 0.0,
			"-0.022": 0.0,
			"-0.021": 0.0,
			"-0.02": 0.0,
			"-0.019": 0.0,
			"-0.018": 0.0,
			"-0.017": 0.0,
			"-0.016": 0.0,
			"-0.015": 0.455053732042,
			"-0.014": 0.698140962815,
			"-0.013": 1.10813911183,
			"-0.012": 0.929510128217,
			"-0.011": 0.920084955246,
			"-0.01": 1.09578362255,
			"-0.009": 2.36078057332,
			"-0.008": 1.56989710634,
			"-0.007": 1.29804707834,
			"-0.006": 12.5455255945,
			"-0.005": 18.744792239,
			"-0.004": 24.9718062786,
			"-0.003": 30.6487911924,
			"-0.002": 26.2089087437,
			"-0.001": 19.4293263162,
			"0.0": 19.3897624762,
			"0.001": 15.8840723751,
			"0.002": 10.8682125924,
			"0.003": 10.661899492,
			"0.004": 10.4276620578,
			"0.005": 11.9523912412,
			"0.006": 7.14304197969,
			"0.007": 3.80171336561,
			"0.008": 1.82442190337,
			"0.009": 2.91380192589,
			"0.01": 3.42090014607,
			"0.011": 4.49318997182,
			"0.012": 8.79063194803,
			"0.013": 4.82967143883,
			"0.014": 0.421295128061,
			"0.015": 0.0,
			"0.016": 0.0,
			"0.017": 0.0,
			"0.018": 0.0,
			"0.019": 0.0,
			"0.02": 0.0,
			"0.021": 0.0,
			"0.022": 0.0,
			"0.023": 0.0,
			"0.024": 0.0,
			"0.025": 0.0
		}
	}
}
