{
	 "smiles": "BrC1=CC=C(O1)C=O", 
	 "Tm": 356.95, 
	 "num_atms": 11, 
	 "gaussian": { 
		 "optdone": 1, 
		 "sigma_profile": "yes", 
		 "theory": "DFT", 
		 "functional": "B3LYP", 
		 "basiset": "6-31G**", 
		 "properties": { 
			 "R2extent": 4478.5031, 
			 "electric_dipole_moment_norm": 4.10817263147, 
			 "electric_quadrupole_moment_norm": 9.9382180123, 
			 "total_energy": -2914.14216675, 
			 "HOMO_LUMO_gap": 0.17745, 
			 "cosmo_polarized_energy": -9.38, 
			 "cosmo_cavitation_energy": 18.88, 
			 "cosmo_dispersion_energy": -14.34, 
			 "cosmo_repulsion_energy": 1.21, 
			 "cosmo_total_nonelectrostatic_energy": 5.75, 
			 "SMD_solvation_energy": 4.06 
		},
		"coords": [
			{
				"x": -3.9210023404,
				"y": 2.3692995415,
				"z": -1.7442116326,
				"element": "Br" 
			},
			{
				"x": -2.4675677178,
				"y": 2.171737973,
				"z": -0.5929202495,
				"element": "C" 
			},
			{
				"x": -1.3535449949,
				"y": 2.9483236474,
				"z": -0.4124330801,
				"element": "C" 
			},
			{
				"x": -0.605098833,
				"y": 2.2902940263,
				"z": 0.6011209872,
				"element": "C" 
			},
			{
				"x": -1.314678824,
				"y": 1.1688771834,
				"z": 0.9597709699,
				"element": "C" 
			},
			{
				"x": -2.4705489766,
				"y": 1.097499293,
				"z": 0.217123053,
				"element": "O" 
			},
			{
				"x": -1.0365902543,
				"y": 0.1281306003,
				"z": 1.9381286596,
				"element": "C" 
			},
			{
				"x": -1.750334947,
				"y": -0.8295392526,
				"z": 2.1702348713,
				"element": "O" 
			},
			{
				"x": -1.1156596179,
				"y": 3.8600970235,
				"z": -0.9379319147,
				"element": "H" 
			},
			{
				"x": 0.3424119211,
				"y": 2.6011742373,
				"z": 1.0191423897,
				"element": "H" 
			},
			{
				"x": -0.0768854153,
				"y": 0.2935057268,
				"z": 2.4744759462,
				"element": "H" 
			}
		],
		 "valence_orbital": [ 
			{
				"type": "occ",
				"energy": -0.33804,
				"method": "rhf"
			},
			{
				"type": "occ",
				"energy": -0.31756,
				"method": "rhf"
			},
			{
				"type": "occ",
				"energy": -0.31177,
				"method": "rhf"
			},
			{
				"type": "occ",
				"energy": -0.2618,
				"method": "rhf"
			},
			{
				"type": "occ",
				"energy": -0.24712,
				"method": "rhf"
			},
			{
				"type": "unocc",
				"energy": -0.06967,
				"method": "rhf"
			},
			{
				"type": "unocc",
				"energy": -0.00589,
				"method": "rhf"
			},
			{
				"type": "unocc",
				"energy": 0.01741,
				"method": "rhf"
			},
			{
				"type": "unocc",
				"energy": 0.07932,
				"method": "rhf"
			},
			{
				"type": "unocc",
				"energy": 0.09013,
				"method": "rhf"
			}
		],
		"cosmo_sigma_profile": { 
			"-0.025": 0.0,
			"-0.024": 0.0,
			"-0.023": 0.0,
			"-0.022": 0.0,
			"-0.021": 0.0,
			"-0.02": 0.0,
			"-0.019": 0.0,
			"-0.018": 0.0,
			"-0.017": 0.0,
			"-0.016": 0.0,
			"-0.015": 0.0,
			"-0.014": 0.0,
			"-0.013": 0.0,
			"-0.012": 0.0,
			"-0.011": 0.0,
			"-0.01": 0.595474576525,
			"-0.009": 4.93391459889,
			"-0.008": 5.08264661975,
			"-0.007": 8.02039955233,
			"-0.006": 7.30463820067,
			"-0.005": 6.54588590672,
			"-0.004": 7.46314726155,
			"-0.003": 7.63181232268,
			"-0.002": 11.4646144853,
			"-0.001": 15.3951872564,
			"0.0": 13.8318038215,
			"0.001": 15.149387085,
			"0.002": 17.9481596272,
			"0.003": 7.69520811403,
			"0.004": 2.19853490667,
			"0.005": 1.92863654267,
			"0.006": 2.72384347098,
			"0.007": 2.73785509781,
			"0.008": 2.17916519396,
			"0.009": 2.27623130177,
			"0.01": 3.23756549282,
			"0.011": 4.44504398592,
			"0.012": 4.0779074716,
			"0.013": 1.30740778619,
			"0.014": 0.0170619470628,
			"0.015": 0.0,
			"0.016": 0.0,
			"0.017": 0.0,
			"0.018": 0.0,
			"0.019": 0.0,
			"0.02": 0.0,
			"0.021": 0.0,
			"0.022": 0.0,
			"0.023": 0.0,
			"0.024": 0.0,
			"0.025": 0.0
		}
	}
}
