{
	 "smiles": "CCOC(=O)C1=C(N)C=CC(Br)=C1", 
	 "Tm": 353.15, 
	 "num_atms": 23, 
	 "gaussian": { 
		 "optdone": 1, 
		 "sigma_profile": "yes", 
		 "theory": "DFT", 
		 "functional": "B3LYP", 
		 "basiset": "6-31G**", 
		 "properties": { 
			 "R2extent": 6057.2011, 
			 "electric_dipole_moment_norm": 5.07416711786, 
			 "electric_quadrupole_moment_norm": 11.3452518337, 
			 "total_energy": -3125.61312623, 
			 "HOMO_LUMO_gap": 0.16186, 
			 "cosmo_polarized_energy": -11.21, 
			 "cosmo_cavitation_energy": 29.2, 
			 "cosmo_dispersion_energy": -21.84, 
			 "cosmo_repulsion_energy": 1.75, 
			 "cosmo_total_nonelectrostatic_energy": 9.11, 
			 "SMD_solvation_energy": 4.77 
		},
		"coords": [
			{
				"x": -1.5456027186,
				"y": -1.3181367249,
				"z": -3.1012454116,
				"element": "C" 
			},
			{
				"x": -2.23544272,
				"y": -2.1083507027,
				"z": -2.000037425,
				"element": "C" 
			},
			{
				"x": -1.4538668721,
				"y": -2.1092421168,
				"z": -0.7781802156,
				"element": "O" 
			},
			{
				"x": -1.6214372519,
				"y": -1.0359941329,
				"z": 0.0497016549,
				"element": "C" 
			},
			{
				"x": -2.3828146956,
				"y": -0.1271310602,
				"z": -0.2231915261,
				"element": "O" 
			},
			{
				"x": -0.7940872559,
				"y": -1.0898983073,
				"z": 1.2823751382,
				"element": "C" 
			},
			{
				"x": 0.0772221084,
				"y": -2.1511578609,
				"z": 1.6601450343,
				"element": "C" 
			},
			{
				"x": 0.2186141105,
				"y": -3.3132841367,
				"z": 0.9446089315,
				"element": "N" 
			},
			{
				"x": 0.8024973316,
				"y": -2.0071855025,
				"z": 2.8669881601,
				"element": "C" 
			},
			{
				"x": 0.6777422892,
				"y": -0.8870561027,
				"z": 3.6688884105,
				"element": "C" 
			},
			{
				"x": -0.1897442186,
				"y": 0.1434026645,
				"z": 3.2880052562,
				"element": "C" 
			},
			{
				"x": -0.3642456442,
				"y": 1.6918063257,
				"z": 4.3963949851,
				"element": "Br" 
			},
			{
				"x": -0.911312039,
				"y": 0.0405992187,
				"z": 2.1149819903,
				"element": "C" 
			},
			{
				"x": -0.5393026223,
				"y": -1.7041771034,
				"z": -3.2901950614,
				"element": "H" 
			},
			{
				"x": -1.4759353337,
				"y": -0.2628201733,
				"z": -2.828286713,
				"element": "H" 
			},
			{
				"x": -2.1222677221,
				"y": -1.3964163432,
				"z": -4.0289246832,
				"element": "H" 
			},
			{
				"x": -2.32912343,
				"y": -3.1655257751,
				"z": -2.2605756969,
				"element": "H" 
			},
			{
				"x": -3.2231108282,
				"y": -1.6992660654,
				"z": -1.7790751096,
				"element": "H" 
			},
			{
				"x": -0.1446891777,
				"y": -3.3332685726,
				"z": 0.0047954172,
				"element": "H" 
			},
			{
				"x": 1.0169370094,
				"y": -3.8924173913,
				"z": 1.1494853527,
				"element": "H" 
			},
			{
				"x": 1.4705324576,
				"y": -2.8090928741,
				"z": 3.1706010027,
				"element": "H" 
			},
			{
				"x": 1.2485531024,
				"y": -0.8086260878,
				"z": 4.5876507921,
				"element": "H" 
			},
			{
				"x": -1.5848158793,
				"y": 0.8277388246,
				"z": 1.7991897165,
				"element": "H" 
			}
		],
		 "valence_orbital": [ 
			{
				"type": "occ",
				"energy": -0.28082,
				"method": "rhf"
			},
			{
				"type": "occ",
				"energy": -0.27944,
				"method": "rhf"
			},
			{
				"type": "occ",
				"energy": -0.27661,
				"method": "rhf"
			},
			{
				"type": "occ",
				"energy": -0.26342,
				"method": "rhf"
			},
			{
				"type": "occ",
				"energy": -0.20722,
				"method": "rhf"
			},
			{
				"type": "unocc",
				"energy": -0.04536,
				"method": "rhf"
			},
			{
				"type": "unocc",
				"energy": 0.00179,
				"method": "rhf"
			},
			{
				"type": "unocc",
				"energy": 0.0143,
				"method": "rhf"
			},
			{
				"type": "unocc",
				"energy": 0.05352,
				"method": "rhf"
			},
			{
				"type": "unocc",
				"energy": 0.08356,
				"method": "rhf"
			}
		],
		"cosmo_sigma_profile": { 
			"-0.025": 0.0,
			"-0.024": 0.0,
			"-0.023": 0.0,
			"-0.022": 0.0,
			"-0.021": 0.0,
			"-0.02": 0.0,
			"-0.019": 0.0,
			"-0.018": 0.0,
			"-0.017": 0.0,
			"-0.016": 0.0,
			"-0.015": 0.0,
			"-0.014": 0.343221213598,
			"-0.013": 1.53360828567,
			"-0.012": 1.50245027179,
			"-0.011": 1.74906688391,
			"-0.01": 1.55041588195,
			"-0.009": 2.82297557399,
			"-0.008": 3.1336537473,
			"-0.007": 4.35618395252,
			"-0.006": 6.46168755444,
			"-0.005": 10.6675097737,
			"-0.004": 16.5409667617,
			"-0.003": 18.8540867978,
			"-0.002": 17.7904039945,
			"-0.001": 18.9600667826,
			"0.0": 20.8759320726,
			"0.001": 16.9686369538,
			"0.002": 19.8427620393,
			"0.003": 24.1870065343,
			"0.004": 16.3760112334,
			"0.005": 12.4413764684,
			"0.006": 3.92428080342,
			"0.007": 2.0302998006,
			"0.008": 1.85919922619,
			"0.009": 2.29029675937,
			"0.01": 1.94438557835,
			"0.011": 2.78582483732,
			"0.012": 3.46908290292,
			"0.013": 0.327904780586,
			"0.014": 0.0,
			"0.015": 0.0,
			"0.016": 0.0,
			"0.017": 0.0,
			"0.018": 0.0,
			"0.019": 0.0,
			"0.02": 0.0,
			"0.021": 0.0,
			"0.022": 0.0,
			"0.023": 0.0,
			"0.024": 0.0,
			"0.025": 0.0
		}
	}
}
