{
	 "smiles": "OC(=O)C(=CC1=CC=C(O)C=C1)C#N", 
	 "Tm": 525.15, 
	 "num_atms": 21, 
	 "gaussian": { 
		 "optdone": 1, 
		 "sigma_profile": "yes", 
		 "theory": "DFT", 
		 "functional": "B3LYP", 
		 "basiset": "6-31G**", 
		 "properties": { 
			 "R2extent": 4245.3063, 
			 "electric_dipole_moment_norm": 8.06555275415, 
			 "electric_quadrupole_moment_norm": 36.7914026194, 
			 "total_energy": -665.674547516, 
			 "HOMO_LUMO_gap": 0.14612, 
			 "cosmo_polarized_energy": -22.53, 
			 "cosmo_cavitation_energy": 27.72, 
			 "cosmo_dispersion_energy": -19.58, 
			 "cosmo_repulsion_energy": 1.55, 
			 "cosmo_total_nonelectrostatic_energy": 9.69, 
			 "SMD_solvation_energy": 7.78 
		},
		"coords": [
			{
				"x": -1.8584153635,
				"y": -1.7117687642,
				"z": -1.2588760289,
				"element": "O" 
			},
			{
				"x": -3.0772843295,
				"y": -1.1330212421,
				"z": -1.1394805693,
				"element": "C" 
			},
			{
				"x": -4.0964885309,
				"y": -1.6980007176,
				"z": -1.4749617213,
				"element": "O" 
			},
			{
				"x": -3.0571130568,
				"y": 0.2143862381,
				"z": -0.5037822305,
				"element": "C" 
			},
			{
				"x": -2.0236705711,
				"y": 1.0850853761,
				"z": -0.2886489608,
				"element": "C" 
			},
			{
				"x": -0.625973281,
				"y": 1.1420269802,
				"z": -0.6876062247,
				"element": "C" 
			},
			{
				"x": 0.2086514476,
				"y": 1.9981386266,
				"z": 0.0634878649,
				"element": "C" 
			},
			{
				"x": 1.5548032403,
				"y": 2.1545247279,
				"z": -0.2349639937,
				"element": "C" 
			},
			{
				"x": 2.1015910227,
				"y": 1.4774995022,
				"z": -1.3329242168,
				"element": "C" 
			},
			{
				"x": 3.4044995347,
				"y": 1.5903211252,
				"z": -1.694170329,
				"element": "O" 
			},
			{
				"x": 1.2838670933,
				"y": 0.6528930252,
				"z": -2.1208709171,
				"element": "C" 
			},
			{
				"x": -0.0527935836,
				"y": 0.4862290723,
				"z": -1.8005153452,
				"element": "C" 
			},
			{
				"x": -4.3460017426,
				"y": 0.6181479764,
				"z": -0.0128483795,
				"element": "C" 
			},
			{
				"x": -5.3683399903,
				"y": 0.9833040506,
				"z": 0.4053706613,
				"element": "N" 
			},
			{
				"x": -2.0257594109,
				"y": -2.5877635613,
				"z": -1.6459148223,
				"element": "H" 
			},
			{
				"x": -2.3171104979,
				"y": 1.9473322175,
				"z": 0.3086969008,
				"element": "H" 
			},
			{
				"x": -0.2104706797,
				"y": 2.5401872973,
				"z": 0.9068319372,
				"element": "H" 
			},
			{
				"x": 2.1775594421,
				"y": 2.8087119884,
				"z": 0.3707043044,
				"element": "H" 
			},
			{
				"x": 3.8619793714,
				"y": 2.1840784112,
				"z": -1.0837607827,
				"element": "H" 
			},
			{
				"x": 1.7193018105,
				"y": 0.1592336357,
				"z": -2.9829908829,
				"element": "H" 
			},
			{
				"x": -0.6661319248,
				"y": -0.1470459656,
				"z": -2.425376264,
				"element": "H" 
			}
		],
		 "valence_orbital": [ 
			{
				"type": "occ",
				"energy": -0.32266,
				"method": "rhf"
			},
			{
				"type": "occ",
				"energy": -0.29505,
				"method": "rhf"
			},
			{
				"type": "occ",
				"energy": -0.28957,
				"method": "rhf"
			},
			{
				"type": "occ",
				"energy": -0.27844,
				"method": "rhf"
			},
			{
				"type": "occ",
				"energy": -0.2358,
				"method": "rhf"
			},
			{
				"type": "unocc",
				"energy": -0.08968,
				"method": "rhf"
			},
			{
				"type": "unocc",
				"energy": -0.02635,
				"method": "rhf"
			},
			{
				"type": "unocc",
				"energy": 0.00351,
				"method": "rhf"
			},
			{
				"type": "unocc",
				"energy": 0.02731,
				"method": "rhf"
			},
			{
				"type": "unocc",
				"energy": 0.0434,
				"method": "rhf"
			}
		],
		"cosmo_sigma_profile": { 
			"-0.025": 0.0,
			"-0.024": 0.0,
			"-0.023": 0.0,
			"-0.022": 0.0,
			"-0.021": 0.0,
			"-0.02": 0.0,
			"-0.019": 0.904278406814,
			"-0.018": 2.02359705807,
			"-0.017": 2.27315253216,
			"-0.016": 2.46355258031,
			"-0.015": 1.26551871406,
			"-0.014": 0.698975318932,
			"-0.013": 1.32385061984,
			"-0.012": 2.57899680982,
			"-0.011": 1.99405464866,
			"-0.01": 2.71222666831,
			"-0.009": 4.39708507698,
			"-0.008": 5.04790487107,
			"-0.007": 8.81069013755,
			"-0.006": 10.4626218688,
			"-0.005": 10.3827130637,
			"-0.004": 10.2772118306,
			"-0.003": 10.8019143523,
			"-0.002": 11.8101108103,
			"-0.001": 11.8297527698,
			"0.0": 12.4989056662,
			"0.001": 12.2648605547,
			"0.002": 15.6226729895,
			"0.003": 16.3071766495,
			"0.004": 6.50886049513,
			"0.005": 6.16105812748,
			"0.006": 7.11335214244,
			"0.007": 6.73936274811,
			"0.008": 7.4948954993,
			"0.009": 8.13385649267,
			"0.01": 7.68795199738,
			"0.011": 8.41956822377,
			"0.012": 4.2710943974,
			"0.013": 1.75195710313,
			"0.014": 0.253318672254,
			"0.015": 0.0,
			"0.016": 0.0,
			"0.017": 0.0,
			"0.018": 0.0,
			"0.019": 0.0,
			"0.02": 0.0,
			"0.021": 0.0,
			"0.022": 0.0,
			"0.023": 0.0,
			"0.024": 0.0,
			"0.025": 0.0
		}
	}
}
