{
	 "smiles": "CC1=CC=C2C(=O)OC(=O)C2=C1", 
	 "Tm": 363.15, 
	 "num_atms": 18, 
	 "gaussian": { 
		 "optdone": 1, 
		 "sigma_profile": "yes", 
		 "theory": "DFT", 
		 "functional": "B3LYP", 
		 "basiset": "6-31G**", 
		 "properties": { 
			 "R2extent": 3791.0692, 
			 "electric_dipole_moment_norm": 6.34777423118, 
			 "electric_quadrupole_moment_norm": 18.762982369, 
			 "total_energy": -572.269107706, 
			 "HOMO_LUMO_gap": 0.18886, 
			 "cosmo_polarized_energy": -11.36, 
			 "cosmo_cavitation_energy": 23.38, 
			 "cosmo_dispersion_energy": -17.19, 
			 "cosmo_repulsion_energy": 1.36, 
			 "cosmo_total_nonelectrostatic_energy": 7.55, 
			 "SMD_solvation_energy": 6.0 
		},
		"coords": [
			{
				"x": 2.7047581457,
				"y": 0.1019890486,
				"z": -0.3157160154,
				"element": "C" 
			},
			{
				"x": 1.4459761709,
				"y": 0.4012579691,
				"z": -1.0935120592,
				"element": "C" 
			},
			{
				"x": 0.8807179039,
				"y": 1.6936256327,
				"z": -1.0481435436,
				"element": "C" 
			},
			{
				"x": -0.2895919257,
				"y": 2.0206923667,
				"z": -1.7348648378,
				"element": "C" 
			},
			{
				"x": -0.8922642373,
				"y": 1.013495466,
				"z": -2.4809960125,
				"element": "C" 
			},
			{
				"x": -2.116449461,
				"y": 1.0220198507,
				"z": -3.3143308324,
				"element": "C" 
			},
			{
				"x": -2.8967607355,
				"y": 1.9012550609,
				"z": -3.5521147194,
				"element": "O" 
			},
			{
				"x": -2.2613522783,
				"y": -0.2670947075,
				"z": -3.8457308033,
				"element": "O" 
			},
			{
				"x": -1.2172877544,
				"y": -1.0895940954,
				"z": -3.4096056267,
				"element": "C" 
			},
			{
				"x": -1.1290091014,
				"y": -2.2403294011,
				"z": -3.7364513897,
				"element": "O" 
			},
			{
				"x": -0.3462787512,
				"y": -0.2642186934,
				"z": -2.536911209,
				"element": "C" 
			},
			{
				"x": 0.8181349091,
				"y": -0.5957429182,
				"z": -1.8559041377,
				"element": "C" 
			},
			{
				"x": 3.1252712259,
				"y": -0.867739777,
				"z": -0.5926068346,
				"element": "H" 
			},
			{
				"x": 3.4690788413,
				"y": 0.8667632698,
				"z": -0.4874517884,
				"element": "H" 
			},
			{
				"x": 2.503199599,
				"y": 0.082721621,
				"z": 0.761854921,
				"element": "H" 
			},
			{
				"x": 1.3789733794,
				"y": 2.4577854561,
				"z": -0.4572106092,
				"element": "H" 
			},
			{
				"x": -0.7135393099,
				"y": 3.0185746647,
				"z": -1.6928189539,
				"element": "H" 
			},
			{
				"x": 1.2284233794,
				"y": -1.5991608136,
				"z": -1.9152855481,
				"element": "H" 
			}
		],
		 "valence_orbital": [ 
			{
				"type": "occ",
				"energy": -0.32894,
				"method": "rhf"
			},
			{
				"type": "occ",
				"energy": -0.30917,
				"method": "rhf"
			},
			{
				"type": "occ",
				"energy": -0.29042,
				"method": "rhf"
			},
			{
				"type": "occ",
				"energy": -0.28638,
				"method": "rhf"
			},
			{
				"type": "occ",
				"energy": -0.28111,
				"method": "rhf"
			},
			{
				"type": "unocc",
				"energy": -0.09225,
				"method": "rhf"
			},
			{
				"type": "unocc",
				"energy": -0.05558,
				"method": "rhf"
			},
			{
				"type": "unocc",
				"energy": 0.01713,
				"method": "rhf"
			},
			{
				"type": "unocc",
				"energy": 0.05659,
				"method": "rhf"
			},
			{
				"type": "unocc",
				"energy": 0.08055,
				"method": "rhf"
			}
		],
		"cosmo_sigma_profile": { 
			"-0.025": 0.0,
			"-0.024": 0.0,
			"-0.023": 0.0,
			"-0.022": 0.0,
			"-0.021": 0.0,
			"-0.02": 0.0,
			"-0.019": 0.0,
			"-0.018": 0.0,
			"-0.017": 0.0,
			"-0.016": 0.0,
			"-0.015": 0.0,
			"-0.014": 0.0,
			"-0.013": 0.0,
			"-0.012": 0.0,
			"-0.011": 0.0,
			"-0.01": 0.0,
			"-0.009": 0.328095321636,
			"-0.008": 4.2523589259,
			"-0.007": 9.57740603811,
			"-0.006": 10.454107846,
			"-0.005": 15.1018921192,
			"-0.004": 13.099897286,
			"-0.003": 15.0758824387,
			"-0.002": 18.2324924532,
			"-0.001": 18.541094794,
			"0.0": 16.0130727082,
			"0.001": 13.2508252351,
			"0.002": 4.85716870602,
			"0.003": 3.30158234181,
			"0.004": 3.94002202432,
			"0.005": 3.47398743697,
			"0.006": 4.79463328411,
			"0.007": 7.18679180198,
			"0.008": 6.80747086295,
			"0.009": 8.45986213622,
			"0.01": 9.62141366863,
			"0.011": 1.95973471494,
			"0.012": 0.0,
			"0.013": 0.0,
			"0.014": 0.0,
			"0.015": 0.0,
			"0.016": 0.0,
			"0.017": 0.0,
			"0.018": 0.0,
			"0.019": 0.0,
			"0.02": 0.0,
			"0.021": 0.0,
			"0.022": 0.0,
			"0.023": 0.0,
			"0.024": 0.0,
			"0.025": 0.0
		}
	}
}
