{
	 "smiles": "CC=CCC=CCCC(=O)C1OC1C(N)=O", 
	 "Tm": 366.65, 
	 "num_atms": 33, 
	 "gaussian": { 
		 "optdone": 1, 
		 "sigma_profile": "yes", 
		 "theory": "DFT", 
		 "functional": "B3LYP", 
		 "basiset": "6-31G**", 
		 "properties": { 
			 "R2extent": 5648.9772, 
			 "electric_dipole_moment_norm": 2.65791994048, 
			 "electric_quadrupole_moment_norm": 21.506671613, 
			 "total_energy": -747.871976176, 
			 "HOMO_LUMO_gap": 0.18761, 
			 "cosmo_polarized_energy": -16.45, 
			 "cosmo_cavitation_energy": 37.1, 
			 "cosmo_dispersion_energy": -24.35, 
			 "cosmo_repulsion_energy": 1.97, 
			 "cosmo_total_nonelectrostatic_energy": 14.72, 
			 "SMD_solvation_energy": 6.7 
		},
		"coords": [
			{
				"x": 2.3213915829,
				"y": -2.0340078773,
				"z": -3.6509514055,
				"element": "C" 
			},
			{
				"x": 2.1463982676,
				"y": -1.0389689061,
				"z": -2.5397765863,
				"element": "C" 
			},
			{
				"x": 1.7338939326,
				"y": 0.2221276681,
				"z": -2.6912150284,
				"element": "C" 
			},
			{
				"x": 1.5785048695,
				"y": 1.222967897,
				"z": -1.5786944507,
				"element": "C" 
			},
			{
				"x": 0.1768733455,
				"y": 1.757083089,
				"z": -1.3710639851,
				"element": "C" 
			},
			{
				"x": -0.9369393611,
				"y": 1.250643995,
				"z": -1.9078786455,
				"element": "C" 
			},
			{
				"x": -2.3139399576,
				"y": 1.8251624483,
				"z": -1.7147643751,
				"element": "C" 
			},
			{
				"x": -3.3572924775,
				"y": 0.7922450058,
				"z": -1.1920214151,
				"element": "C" 
			},
			{
				"x": -3.0943190035,
				"y": 0.3664745016,
				"z": 0.2334576286,
				"element": "C" 
			},
			{
				"x": -2.4684016067,
				"y": -0.6376281934,
				"z": 0.5344014229,
				"element": "O" 
			},
			{
				"x": -3.6706083055,
				"y": 1.2199511716,
				"z": 1.3521763343,
				"element": "C" 
			},
			{
				"x": -3.7366983939,
				"y": 2.6384953388,
				"z": 1.1729106586,
				"element": "O" 
			},
			{
				"x": -2.8374035556,
				"y": 2.1274609219,
				"z": 2.1598124962,
				"element": "C" 
			},
			{
				"x": -1.3461605141,
				"y": 2.3153319778,
				"z": 1.9108722134,
				"element": "C" 
			},
			{
				"x": -0.6084142876,
				"y": 1.2012203632,
				"z": 2.1952693264,
				"element": "N" 
			},
			{
				"x": -0.8781199228,
				"y": 3.3900979243,
				"z": 1.5703053289,
				"element": "O" 
			},
			{
				"x": 1.6949486456,
				"y": -2.9212169285,
				"z": -3.4929342593,
				"element": "H" 
			},
			{
				"x": 2.0596121432,
				"y": -1.6028354716,
				"z": -4.6221514607,
				"element": "H" 
			},
			{
				"x": 3.3581167454,
				"y": -2.3902261189,
				"z": -3.7069871263,
				"element": "H" 
			},
			{
				"x": 2.3841951601,
				"y": -1.3944919237,
				"z": -1.5354570486,
				"element": "H" 
			},
			{
				"x": 1.4878971061,
				"y": 0.5813488395,
				"z": -3.6919639799,
				"element": "H" 
			},
			{
				"x": 1.9436557471,
				"y": 0.7868744256,
				"z": -0.6364352506,
				"element": "H" 
			},
			{
				"x": 2.239556678,
				"y": 2.0828861038,
				"z": -1.7699108439,
				"element": "H" 
			},
			{
				"x": 0.0996098926,
				"y": 2.6264040443,
				"z": -0.7171682253,
				"element": "H" 
			},
			{
				"x": -0.8673689092,
				"y": 0.3704104484,
				"z": -2.5477800274,
				"element": "H" 
			},
			{
				"x": -2.2856172959,
				"y": 2.6898228013,
				"z": -1.0452419632,
				"element": "H" 
			},
			{
				"x": -2.6982441296,
				"y": 2.1843171128,
				"z": -2.6795201955,
				"element": "H" 
			},
			{
				"x": -3.3324523867,
				"y": -0.1064301642,
				"z": -1.8166064797,
				"element": "H" 
			},
			{
				"x": -4.3544109906,
				"y": 1.2426050959,
				"z": -1.2535602231,
				"element": "H" 
			},
			{
				"x": -4.5441879409,
				"y": 0.7652645687,
				"z": 1.8278535434,
				"element": "H" 
			},
			{
				"x": -3.1378532564,
				"y": 2.3218875003,
				"z": 3.1915300827,
				"element": "H" 
			},
			{
				"x": -1.0454114963,
				"y": 0.2918916425,
				"z": 2.0968874863,
				"element": "H" 
			},
			{
				"x": 0.3767896757,
				"y": 1.2563306982,
				"z": 1.9734064534,
				"element": "H" 
			}
		],
		 "valence_orbital": [ 
			{
				"type": "occ",
				"energy": -0.28095,
				"method": "rhf"
			},
			{
				"type": "occ",
				"energy": -0.26332,
				"method": "rhf"
			},
			{
				"type": "occ",
				"energy": -0.25622,
				"method": "rhf"
			},
			{
				"type": "occ",
				"energy": -0.24454,
				"method": "rhf"
			},
			{
				"type": "occ",
				"energy": -0.23502,
				"method": "rhf"
			},
			{
				"type": "unocc",
				"energy": -0.04741,
				"method": "rhf"
			},
			{
				"type": "unocc",
				"energy": 0.00593,
				"method": "rhf"
			},
			{
				"type": "unocc",
				"energy": 0.02502,
				"method": "rhf"
			},
			{
				"type": "unocc",
				"energy": 0.0307,
				"method": "rhf"
			},
			{
				"type": "unocc",
				"energy": 0.07056,
				"method": "rhf"
			}
		],
		"cosmo_sigma_profile": { 
			"-0.025": 0.0,
			"-0.024": 0.0,
			"-0.023": 0.0,
			"-0.022": 0.0,
			"-0.021": 0.0,
			"-0.02": 0.0,
			"-0.019": 0.0,
			"-0.018": 0.0,
			"-0.017": 0.0,
			"-0.016": 0.0,
			"-0.015": 0.0,
			"-0.014": 0.146520071982,
			"-0.013": 0.946297359075,
			"-0.012": 1.07135453799,
			"-0.011": 1.13608587449,
			"-0.01": 2.24909385648,
			"-0.009": 8.02775681004,
			"-0.008": 8.39637708108,
			"-0.007": 6.76702461662,
			"-0.006": 7.45944251913,
			"-0.005": 10.7048403578,
			"-0.004": 23.3899249787,
			"-0.003": 29.2469643567,
			"-0.002": 24.6466918189,
			"-0.001": 27.5928931953,
			"0.0": 26.1685215594,
			"0.001": 19.3346999626,
			"0.002": 14.6895802297,
			"0.003": 12.1438287106,
			"0.004": 10.5528951684,
			"0.005": 9.77957099154,
			"0.006": 7.98163067358,
			"0.007": 7.69874396785,
			"0.008": 5.65527706821,
			"0.009": 5.73462618302,
			"0.01": 6.01150311305,
			"0.011": 5.34685880515,
			"0.012": 4.04412894281,
			"0.013": 3.64981884843,
			"0.014": 0.668575983234,
			"0.015": 0.0,
			"0.016": 0.0,
			"0.017": 0.0,
			"0.018": 0.0,
			"0.019": 0.0,
			"0.02": 0.0,
			"0.021": 0.0,
			"0.022": 0.0,
			"0.023": 0.0,
			"0.024": 0.0,
			"0.025": 0.0
		}
	}
}
