{
	 "smiles": "ClP(Cl)(Cl)=NS(=O)(=O)C1=CC=CC=C1", 
	 "Tm": 327.65, 
	 "num_atms": 19, 
	 "gaussian": { 
		 "optdone": 1, 
		 "sigma_profile": "yes", 
		 "theory": "DFT", 
		 "functional": "B3LYP", 
		 "basiset": "6-31G**", 
		 "properties": { 
			 "R2extent": 7104.5126, 
			 "electric_dipole_moment_norm": 3.93650630001, 
			 "electric_quadrupole_moment_norm": 12.7265437005, 
			 "total_energy": -2556.92596775, 
			 "HOMO_LUMO_gap": 0.16616, 
			 "cosmo_polarized_energy": -12.52, 
			 "cosmo_cavitation_energy": 32.81, 
			 "cosmo_dispersion_energy": -23.72, 
			 "cosmo_repulsion_energy": 1.82, 
			 "cosmo_total_nonelectrostatic_energy": 10.9, 
			 "SMD_solvation_energy": 3.42 
		},
		"coords": [
			{
				"x": -2.2501849712,
				"y": 3.2323223198,
				"z": 2.8490154717,
				"element": "Cl" 
			},
			{
				"x": -1.0276995051,
				"y": 1.6551830651,
				"z": 3.3114694106,
				"element": "P" 
			},
			{
				"x": -2.1990466769,
				"y": 0.5382143442,
				"z": 4.5635180127,
				"element": "Cl" 
			},
			{
				"x": 0.3787595556,
				"y": 2.4623843919,
				"z": 4.5247087075,
				"element": "Cl" 
			},
			{
				"x": -0.3011557714,
				"y": 0.9276740743,
				"z": 2.1532083096,
				"element": "N" 
			},
			{
				"x": -0.9965630997,
				"y": 0.0269355669,
				"z": 0.9003860427,
				"element": "S" 
			},
			{
				"x": -0.9315707524,
				"y": -1.3851412159,
				"z": 1.2746780545,
				"element": "O" 
			},
			{
				"x": -2.2767293855,
				"y": 0.6344651101,
				"z": 0.5194758274,
				"element": "O" 
			},
			{
				"x": 0.1991309027,
				"y": 0.3320410556,
				"z": -0.3945739939,
				"element": "C" 
			},
			{
				"x": -0.0332963477,
				"y": 1.368111883,
				"z": -1.3001058877,
				"element": "C" 
			},
			{
				"x": 0.8962478673,
				"y": 1.5911396711,
				"z": -2.3159033447,
				"element": "C" 
			},
			{
				"x": 2.0332161941,
				"y": 0.7854081202,
				"z": -2.4148845528,
				"element": "C" 
			},
			{
				"x": 2.2459302034,
				"y": -0.2525786693,
				"z": -1.5039843912,
				"element": "C" 
			},
			{
				"x": 1.3243343877,
				"y": -0.4891268317,
				"z": -0.4844284736,
				"element": "C" 
			},
			{
				"x": -0.9304945681,
				"y": 1.9707460791,
				"z": -1.2121776652,
				"element": "H" 
			},
			{
				"x": 0.7295327618,
				"y": 2.3898373606,
				"z": -3.0321539214,
				"element": "H" 
			},
			{
				"x": 2.7530237848,
				"y": 0.9628509176,
				"z": -3.2085486753,
				"element": "H" 
			},
			{
				"x": 3.1260971866,
				"y": -0.882270237,
				"z": -1.5903967017,
				"element": "H" 
			},
			{
				"x": 1.4610682339,
				"y": -1.2989970056,
				"z": 0.2234977709,
				"element": "H" 
			}
		],
		 "valence_orbital": [ 
			{
				"type": "occ",
				"energy": -0.3144,
				"method": "rhf"
			},
			{
				"type": "occ",
				"energy": -0.31073,
				"method": "rhf"
			},
			{
				"type": "occ",
				"energy": -0.2852,
				"method": "rhf"
			},
			{
				"type": "occ",
				"energy": -0.27253,
				"method": "rhf"
			},
			{
				"type": "occ",
				"energy": -0.27211,
				"method": "rhf"
			},
			{
				"type": "unocc",
				"energy": -0.10595,
				"method": "rhf"
			},
			{
				"type": "unocc",
				"energy": -0.04715,
				"method": "rhf"
			},
			{
				"type": "unocc",
				"energy": -0.03881,
				"method": "rhf"
			},
			{
				"type": "unocc",
				"energy": -0.0229,
				"method": "rhf"
			},
			{
				"type": "unocc",
				"energy": -0.01622,
				"method": "rhf"
			}
		],
		"cosmo_sigma_profile": { 
			"-0.025": 0.0,
			"-0.024": 0.0,
			"-0.023": 0.0,
			"-0.022": 0.0,
			"-0.021": 0.0,
			"-0.02": 0.0,
			"-0.019": 0.0,
			"-0.018": 0.0,
			"-0.017": 0.0,
			"-0.016": 0.0,
			"-0.015": 0.0,
			"-0.014": 0.0,
			"-0.013": 0.0,
			"-0.012": 0.0,
			"-0.011": 0.00816554495042,
			"-0.01": 0.254777628477,
			"-0.009": 0.745036845943,
			"-0.008": 2.07020481516,
			"-0.007": 10.6609753925,
			"-0.006": 12.9108096181,
			"-0.005": 16.7922422604,
			"-0.004": 17.1509308988,
			"-0.003": 19.43364164,
			"-0.002": 21.5849442692,
			"-0.001": 26.6105117134,
			"0.0": 36.4220656703,
			"0.001": 26.8829044548,
			"0.002": 17.2507059357,
			"0.003": 16.4303519378,
			"0.004": 5.41759643952,
			"0.005": 4.85632027307,
			"0.006": 4.39982753818,
			"0.007": 5.06271429266,
			"0.008": 4.95365287585,
			"0.009": 4.83093035505,
			"0.01": 8.38213605961,
			"0.011": 6.56115057464,
			"0.012": 0.202857228892,
			"0.013": 0.0,
			"0.014": 0.0,
			"0.015": 0.0,
			"0.016": 0.0,
			"0.017": 0.0,
			"0.018": 0.0,
			"0.019": 0.0,
			"0.02": 0.0,
			"0.021": 0.0,
			"0.022": 0.0,
			"0.023": 0.0,
			"0.024": 0.0,
			"0.025": 0.0
		}
	}
}
