{
	 "smiles": "NC1=CC=CN(CC2=CC=C(F)C=C2)C1=O", 
	 "Tm": 384.15, 
	 "num_atms": 27, 
	 "gaussian": { 
		 "optdone": 1, 
		 "sigma_profile": "yes", 
		 "theory": "DFT", 
		 "functional": "B3LYP", 
		 "basiset": "6-31G**", 
		 "properties": { 
			 "R2extent": 4779.4561, 
			 "electric_dipole_moment_norm": 3.25766061615, 
			 "electric_quadrupole_moment_norm": 9.97559576817, 
			 "total_energy": -748.480629219, 
			 "HOMO_LUMO_gap": 0.16429, 
			 "cosmo_polarized_energy": -13.12, 
			 "cosmo_cavitation_energy": 31.41, 
			 "cosmo_dispersion_energy": -22.56, 
			 "cosmo_repulsion_energy": 1.72, 
			 "cosmo_total_nonelectrostatic_energy": 10.56, 
			 "SMD_solvation_energy": 6.24 
		},
		"coords": [
			{
				"x": -2.5849391296,
				"y": -1.2527082001,
				"z": 2.9298419718,
				"element": "N" 
			},
			{
				"x": -1.6359868173,
				"y": -1.7058255098,
				"z": 2.0379262908,
				"element": "C" 
			},
			{
				"x": -1.8503559221,
				"y": -2.6062976516,
				"z": 1.0212918781,
				"element": "C" 
			},
			{
				"x": -0.7947539047,
				"y": -2.9444807021,
				"z": 0.1310276791,
				"element": "C" 
			},
			{
				"x": 0.4322673165,
				"y": -2.3779902154,
				"z": 0.2934636508,
				"element": "C" 
			},
			{
				"x": 0.6655409619,
				"y": -1.4866641193,
				"z": 1.3209167742,
				"element": "N" 
			},
			{
				"x": 2.0132822129,
				"y": -0.9038732385,
				"z": 1.4922206238,
				"element": "C" 
			},
			{
				"x": 2.2502958505,
				"y": 0.3330286055,
				"z": 0.6500817274,
				"element": "C" 
			},
			{
				"x": 3.1029202962,
				"y": 0.2908003038,
				"z": -0.458714223,
				"element": "C" 
			},
			{
				"x": 3.3265473054,
				"y": 1.4259438142,
				"z": -1.2404349507,
				"element": "C" 
			},
			{
				"x": 2.6795414288,
				"y": 2.6052156908,
				"z": -0.8948718495,
				"element": "C" 
			},
			{
				"x": 2.8874428734,
				"y": 3.7093502945,
				"z": -1.6431251499,
				"element": "F" 
			},
			{
				"x": 1.8262983989,
				"y": 2.6840496168,
				"z": 0.2018417003,
				"element": "C" 
			},
			{
				"x": 1.6169681682,
				"y": 1.5435705281,
				"z": 0.97387668,
				"element": "C" 
			},
			{
				"x": -0.3173093524,
				"y": -1.0935357562,
				"z": 2.2229647772,
				"element": "C" 
			},
			{
				"x": -0.0885111524,
				"y": -0.2820715406,
				"z": 3.1368325829,
				"element": "O" 
			},
			{
				"x": -3.3617326256,
				"y": -1.8618231252,
				"z": 3.13624226,
				"element": "H" 
			},
			{
				"x": -2.1816542231,
				"y": -0.7640988206,
				"z": 3.7198755802,
				"element": "H" 
			},
			{
				"x": -2.8324693552,
				"y": -3.0529877965,
				"z": 0.8904023459,
				"element": "H" 
			},
			{
				"x": -0.9582894363,
				"y": -3.6476602388,
				"z": -0.6769521771,
				"element": "H" 
			},
			{
				"x": 1.2775832645,
				"y": -2.5836240312,
				"z": -0.3510685538,
				"element": "H" 
			},
			{
				"x": 2.7399165924,
				"y": -1.6807141788,
				"z": 1.2393742728,
				"element": "H" 
			},
			{
				"x": 2.1050967187,
				"y": -0.6686946637,
				"z": 2.5537354275,
				"element": "H" 
			},
			{
				"x": 3.6083381177,
				"y": -0.6368432614,
				"z": -0.7163619826,
				"element": "H" 
			},
			{
				"x": 3.9873210582,
				"y": 1.4070369983,
				"z": -2.1002897394,
				"element": "H" 
			},
			{
				"x": 1.3454045697,
				"y": 3.6271516793,
				"z": 0.4384374464,
				"element": "H" 
			},
			{
				"x": 0.9575367848,
				"y": 1.5784455183,
				"z": 1.835664957,
				"element": "H" 
			}
		],
		 "valence_orbital": [ 
			{
				"type": "occ",
				"energy": -0.25935,
				"method": "rhf"
			},
			{
				"type": "occ",
				"energy": -0.25869,
				"method": "rhf"
			},
			{
				"type": "occ",
				"energy": -0.2531,
				"method": "rhf"
			},
			{
				"type": "occ",
				"energy": -0.23885,
				"method": "rhf"
			},
			{
				"type": "occ",
				"energy": -0.18669,
				"method": "rhf"
			},
			{
				"type": "unocc",
				"energy": -0.0224,
				"method": "rhf"
			},
			{
				"type": "unocc",
				"energy": -0.01121,
				"method": "rhf"
			},
			{
				"type": "unocc",
				"energy": -0.00147,
				"method": "rhf"
			},
			{
				"type": "unocc",
				"energy": 0.02213,
				"method": "rhf"
			},
			{
				"type": "unocc",
				"energy": 0.07722,
				"method": "rhf"
			}
		],
		"cosmo_sigma_profile": { 
			"-0.025": 0.0,
			"-0.024": 0.0,
			"-0.023": 0.0,
			"-0.022": 0.0,
			"-0.021": 0.0,
			"-0.02": 0.0,
			"-0.019": 0.0,
			"-0.018": 0.0,
			"-0.017": 0.0,
			"-0.016": 0.0,
			"-0.015": 0.0,
			"-0.014": 0.00999804836835,
			"-0.013": 0.782560540541,
			"-0.012": 1.55155674952,
			"-0.011": 0.774746317288,
			"-0.01": 1.93883693713,
			"-0.009": 3.24886058273,
			"-0.008": 5.97564601551,
			"-0.007": 11.72308792,
			"-0.006": 14.2344129994,
			"-0.005": 15.6399073523,
			"-0.004": 15.5707987047,
			"-0.003": 13.65495532,
			"-0.002": 12.7218408497,
			"-0.001": 11.6399537544,
			"0.0": 16.6196453534,
			"0.001": 22.7290571972,
			"0.002": 19.8368148656,
			"0.003": 19.3620812276,
			"0.004": 26.9458768588,
			"0.005": 13.6887473667,
			"0.006": 3.65389302034,
			"0.007": 2.45504190079,
			"0.008": 2.62087649397,
			"0.009": 1.90729528571,
			"0.01": 1.53423398008,
			"0.011": 2.22966362291,
			"0.012": 2.42576361681,
			"0.013": 2.3652578486,
			"0.014": 2.9270845823,
			"0.015": 0.211191727419,
			"0.016": 0.0,
			"0.017": 0.0,
			"0.018": 0.0,
			"0.019": 0.0,
			"0.02": 0.0,
			"0.021": 0.0,
			"0.022": 0.0,
			"0.023": 0.0,
			"0.024": 0.0,
			"0.025": 0.0
		}
	}
}
