{
	 "smiles": "CCCCCCCCCCOC=C", 
	 "Tm": 232.15, 
	 "num_atms": 37, 
	 "gaussian": { 
		 "optdone": 1, 
		 "sigma_profile": "yes", 
		 "theory": "DFT", 
		 "functional": "B3LYP", 
		 "basiset": "6-31G**", 
		 "properties": { 
			 "R2extent": 4839.3483, 
			 "electric_dipole_moment_norm": 1.62605946078, 
			 "electric_quadrupole_moment_norm": 8.32977302452, 
			 "total_energy": -546.954431091, 
			 "HOMO_LUMO_gap": 0.25647, 
			 "cosmo_polarized_energy": -4.76, 
			 "cosmo_cavitation_energy": 37.61, 
			 "cosmo_dispersion_energy": -25.14, 
			 "cosmo_repulsion_energy": 2.06, 
			 "cosmo_total_nonelectrostatic_energy": 14.54, 
			 "SMD_solvation_energy": 6.62 
		},
		"coords": [
			{
				"x": -1.0716008326,
				"y": 1.5767971522,
				"z": 3.1392165394,
				"element": "C" 
			},
			{
				"x": -0.1798188559,
				"y": 0.4009065283,
				"z": 3.5565884017,
				"element": "C" 
			},
			{
				"x": 0.4622582408,
				"y": -0.3604007008,
				"z": 2.3844977771,
				"element": "C" 
			},
			{
				"x": 1.4989342936,
				"y": 0.4552146322,
				"z": 1.5937770538,
				"element": "C" 
			},
			{
				"x": 2.2387939291,
				"y": -0.3175484591,
				"z": 0.4791864882,
				"element": "C" 
			},
			{
				"x": 1.5879515805,
				"y": -0.2984404356,
				"z": -0.9166080542,
				"element": "C" 
			},
			{
				"x": 0.2361550868,
				"y": -1.0174988489,
				"z": -1.0415684942,
				"element": "C" 
			},
			{
				"x": -0.2616826767,
				"y": -1.182499412,
				"z": -2.4886316196,
				"element": "C" 
			},
			{
				"x": -0.5328222222,
				"y": 0.1215925967,
				"z": -3.2589820356,
				"element": "C" 
			},
			{
				"x": -1.6309224831,
				"y": 0.998319348,
				"z": -2.6549243027,
				"element": "C" 
			},
			{
				"x": -2.8758085776,
				"y": 0.3073979351,
				"z": -2.5166036533,
				"element": "O" 
			},
			{
				"x": -3.628030936,
				"y": 0.1978649518,
				"z": -3.6470970725,
				"element": "C" 
			},
			{
				"x": -4.6454868649,
				"y": -0.6565453426,
				"z": -3.7565331957,
				"element": "C" 
			},
			{
				"x": -1.8742000825,
				"y": 1.2445505832,
				"z": 2.4702190423,
				"element": "H" 
			},
			{
				"x": -1.5403801925,
				"y": 2.0449118036,
				"z": 4.0111741234,
				"element": "H" 
			},
			{
				"x": -0.5055880479,
				"y": 2.3546008505,
				"z": 2.6162658154,
				"element": "H" 
			},
			{
				"x": 0.6109914769,
				"y": 0.7626325597,
				"z": 4.2286295611,
				"element": "H" 
			},
			{
				"x": -0.7780552865,
				"y": -0.3052375831,
				"z": 4.1466072598,
				"element": "H" 
			},
			{
				"x": 0.9585489149,
				"y": -1.2581652826,
				"z": 2.7779310702,
				"element": "H" 
			},
			{
				"x": -0.3300338416,
				"y": -0.7223947491,
				"z": 1.7177709813,
				"element": "H" 
			},
			{
				"x": 2.2415097705,
				"y": 0.830542331,
				"z": 2.3113272025,
				"element": "H" 
			},
			{
				"x": 1.0294972523,
				"y": 1.3481616561,
				"z": 1.1592460116,
				"element": "H" 
			},
			{
				"x": 2.3899476226,
				"y": -1.359197141,
				"z": 0.7968738069,
				"element": "H" 
			},
			{
				"x": 3.2443028265,
				"y": 0.1089328719,
				"z": 0.3728719719,
				"element": "H" 
			},
			{
				"x": 2.2907761749,
				"y": -0.7587536929,
				"z": -1.625905878,
				"element": "H" 
			},
			{
				"x": 1.4846816692,
				"y": 0.7480203793,
				"z": -1.2360950169,
				"element": "H" 
			},
			{
				"x": -0.5259201763,
				"y": -0.4959845029,
				"z": -0.450435169,
				"element": "H" 
			},
			{
				"x": 0.3237549947,
				"y": -2.0176422211,
				"z": -0.5961951397,
				"element": "H" 
			},
			{
				"x": -1.1843038617,
				"y": -1.773592397,
				"z": -2.479215593,
				"element": "H" 
			},
			{
				"x": 0.4759017593,
				"y": -1.7678250994,
				"z": -3.053705585,
				"element": "H" 
			},
			{
				"x": 0.3792211095,
				"y": 0.728447044,
				"z": -3.3305037823,
				"element": "H" 
			},
			{
				"x": -0.8134046674,
				"y": -0.1292350243,
				"z": -4.2901069786,
				"element": "H" 
			},
			{
				"x": -1.3685932675,
				"y": 1.3203052415,
				"z": -1.6431921062,
				"element": "H" 
			},
			{
				"x": -1.7740545744,
				"y": 1.9032927028,
				"z": -3.2638628817,
				"element": "H" 
			},
			{
				"x": -3.3623986469,
				"y": 0.8877854513,
				"z": -4.4504944354,
				"element": "H" 
			},
			{
				"x": -5.2481656195,
				"y": -0.6662630407,
				"z": -4.6561575076,
				"element": "H" 
			},
			{
				"x": -4.9001549884,
				"y": -1.3389526861,
				"z": -2.9532646052,
				"element": "H" 
			}
		],
		 "valence_orbital": [ 
			{
				"type": "occ",
				"energy": -0.31245,
				"method": "rhf"
			},
			{
				"type": "occ",
				"energy": -0.30812,
				"method": "rhf"
			},
			{
				"type": "occ",
				"energy": -0.29927,
				"method": "rhf"
			},
			{
				"type": "occ",
				"energy": -0.29823,
				"method": "rhf"
			},
			{
				"type": "occ",
				"energy": -0.21691,
				"method": "rhf"
			},
			{
				"type": "unocc",
				"energy": 0.03956,
				"method": "rhf"
			},
			{
				"type": "unocc",
				"energy": 0.07408,
				"method": "rhf"
			},
			{
				"type": "unocc",
				"energy": 0.09184,
				"method": "rhf"
			},
			{
				"type": "unocc",
				"energy": 0.1031,
				"method": "rhf"
			},
			{
				"type": "unocc",
				"energy": 0.10586,
				"method": "rhf"
			}
		],
		"cosmo_sigma_profile": { 
			"-0.025": 0.0,
			"-0.024": 0.0,
			"-0.023": 0.0,
			"-0.022": 0.0,
			"-0.021": 0.0,
			"-0.02": 0.0,
			"-0.019": 0.0,
			"-0.018": 0.0,
			"-0.017": 0.0,
			"-0.016": 0.0,
			"-0.015": 0.0,
			"-0.014": 0.0,
			"-0.013": 0.0,
			"-0.012": 0.0,
			"-0.011": 0.0,
			"-0.01": 0.0,
			"-0.009": 0.0,
			"-0.008": 0.0,
			"-0.007": 0.828868243902,
			"-0.006": 3.68097100524,
			"-0.005": 6.54997576183,
			"-0.004": 10.9861595531,
			"-0.003": 19.2999377196,
			"-0.002": 35.8339745589,
			"-0.001": 52.6286264702,
			"0.0": 57.3771542117,
			"0.001": 48.7642618153,
			"0.002": 21.7119344747,
			"0.003": 4.509256587,
			"0.004": 5.12106414637,
			"0.005": 5.02251911647,
			"0.006": 5.3049101552,
			"0.007": 4.55749922486,
			"0.008": 2.84853139208,
			"0.009": 1.50054420876,
			"0.01": 1.36451826657,
			"0.011": 1.11759082787,
			"0.012": 0.712643207353,
			"0.013": 0.0,
			"0.014": 0.0,
			"0.015": 0.0,
			"0.016": 0.0,
			"0.017": 0.0,
			"0.018": 0.0,
			"0.019": 0.0,
			"0.02": 0.0,
			"0.021": 0.0,
			"0.022": 0.0,
			"0.023": 0.0,
			"0.024": 0.0,
			"0.025": 0.0
		}
	}
}
