{
	 "smiles": "NC1=C(CN2CCC(O)CC2)C=CC=C1", 
	 "Tm": 386.15, 
	 "num_atms": 33, 
	 "gaussian": { 
		 "optdone": 1, 
		 "sigma_profile": "yes", 
		 "theory": "DFT", 
		 "functional": "B3LYP", 
		 "basiset": "6-31G**", 
		 "properties": { 
			 "R2extent": 3390.2886, 
			 "electric_dipole_moment_norm": 3.11498869821, 
			 "electric_quadrupole_moment_norm": 10.7323215326, 
			 "total_energy": -652.840357304, 
			 "HOMO_LUMO_gap": 0.19129, 
			 "cosmo_polarized_energy": -13.04, 
			 "cosmo_cavitation_energy": 32.31, 
			 "cosmo_dispersion_energy": -23.12, 
			 "cosmo_repulsion_energy": 1.8, 
			 "cosmo_total_nonelectrostatic_energy": 11.0, 
			 "SMD_solvation_energy": 2.65 
		},
		"coords": [
			{
				"x": -0.0441848448,
				"y": 3.2036219725,
				"z": -0.4529039247,
				"element": "N" 
			},
			{
				"x": 0.3833855847,
				"y": 2.6495863601,
				"z": 0.7621623017,
				"element": "C" 
			},
			{
				"x": 1.4016821969,
				"y": 1.6676109417,
				"z": 0.8111444536,
				"element": "C" 
			},
			{
				"x": 2.1344719941,
				"y": 1.1702099269,
				"z": -0.4367633154,
				"element": "C" 
			},
			{
				"x": 1.622741249,
				"y": 0.0239973493,
				"z": -1.1889864714,
				"element": "N" 
			},
			{
				"x": 1.6627438066,
				"y": -1.2832725731,
				"z": -0.5396527312,
				"element": "C" 
			},
			{
				"x": 0.3780656582,
				"y": -1.6623462325,
				"z": 0.2280988802,
				"element": "C" 
			},
			{
				"x": -0.8536708939,
				"y": -1.5251327514,
				"z": -0.6752599536,
				"element": "C" 
			},
			{
				"x": -2.0620470993,
				"y": -1.8496421887,
				"z": 0.0079165616,
				"element": "O" 
			},
			{
				"x": -0.8988257942,
				"y": -0.1283935126,
				"z": -1.3056919208,
				"element": "C" 
			},
			{
				"x": 0.4319038279,
				"y": 0.1927777783,
				"z": -2.0169126621,
				"element": "C" 
			},
			{
				"x": 1.7627498424,
				"y": 1.1537382243,
				"z": 2.0632555833,
				"element": "C" 
			},
			{
				"x": 1.1278361289,
				"y": 1.5396247825,
				"z": 3.2432716847,
				"element": "C" 
			},
			{
				"x": 0.1057996638,
				"y": 2.4878470129,
				"z": 3.1774110017,
				"element": "C" 
			},
			{
				"x": -0.2545452826,
				"y": 3.0411026924,
				"z": 1.9526115946,
				"element": "C" 
			},
			{
				"x": 0.6591305769,
				"y": 3.2546401397,
				"z": -1.176687638,
				"element": "H" 
			},
			{
				"x": -0.5313854522,
				"y": 4.08450259,
				"z": -0.35477748,
				"element": "H" 
			},
			{
				"x": 2.2537305095,
				"y": 1.9916935356,
				"z": -1.1569393267,
				"element": "H" 
			},
			{
				"x": 3.15401983,
				"y": 0.9077684863,
				"z": -0.1277798758,
				"element": "H" 
			},
			{
				"x": 2.5341513142,
				"y": -1.323528856,
				"z": 0.1226601399,
				"element": "H" 
			},
			{
				"x": 1.8305196692,
				"y": -2.040608536,
				"z": -1.3223008096,
				"element": "H" 
			},
			{
				"x": 0.448125704,
				"y": -2.6913089959,
				"z": 0.6009082601,
				"element": "H" 
			},
			{
				"x": 0.257816782,
				"y": -1.0040759836,
				"z": 1.097640315,
				"element": "H" 
			},
			{
				"x": -0.7848725309,
				"y": -2.2722442918,
				"z": -1.4785760196,
				"element": "H" 
			},
			{
				"x": -2.1675128571,
				"y": -1.2032668741,
				"z": 0.7196761082,
				"element": "H" 
			},
			{
				"x": -1.0866462314,
				"y": 0.6188365944,
				"z": -0.5252592794,
				"element": "H" 
			},
			{
				"x": -1.7312203802,
				"y": -0.072654274,
				"z": -2.0174097949,
				"element": "H" 
			},
			{
				"x": 0.4137531387,
				"y": 1.2117031122,
				"z": -2.4146141214,
				"element": "H" 
			},
			{
				"x": 0.5309942142,
				"y": -0.4814141856,
				"z": -2.8830743677,
				"element": "H" 
			},
			{
				"x": 2.5717548759,
				"y": 0.4274482028,
				"z": 2.1068476364,
				"element": "H" 
			},
			{
				"x": 1.4308312727,
				"y": 1.115345377,
				"z": 4.1953849034,
				"element": "H" 
			},
			{
				"x": -0.4033450075,
				"y": 2.8113100466,
				"z": 4.0810625013,
				"element": "H" 
			},
			{
				"x": -1.0395514657,
				"y": 3.7930241301,
				"z": 1.9067377667,
				"element": "H" 
			}
		],
		 "valence_orbital": [ 
			{
				"type": "occ",
				"energy": -0.30015,
				"method": "rhf"
			},
			{
				"type": "occ",
				"energy": -0.24832,
				"method": "rhf"
			},
			{
				"type": "occ",
				"energy": -0.24419,
				"method": "rhf"
			},
			{
				"type": "occ",
				"energy": -0.20727,
				"method": "rhf"
			},
			{
				"type": "occ",
				"energy": -0.19328,
				"method": "rhf"
			},
			{
				"type": "unocc",
				"energy": -0.00199,
				"method": "rhf"
			},
			{
				"type": "unocc",
				"energy": 0.01357,
				"method": "rhf"
			},
			{
				"type": "unocc",
				"energy": 0.06189,
				"method": "rhf"
			},
			{
				"type": "unocc",
				"energy": 0.08849,
				"method": "rhf"
			},
			{
				"type": "unocc",
				"energy": 0.09461,
				"method": "rhf"
			}
		],
		"cosmo_sigma_profile": { 
			"-0.025": 0.0,
			"-0.024": 0.0,
			"-0.023": 0.0,
			"-0.022": 0.0,
			"-0.021": 0.0,
			"-0.02": 0.0,
			"-0.019": 0.0,
			"-0.018": 0.0,
			"-0.017": 0.0,
			"-0.016": 0.0,
			"-0.015": 0.14790367789,
			"-0.014": 0.702412060726,
			"-0.013": 1.0664734413,
			"-0.012": 1.99165812546,
			"-0.011": 3.45483927188,
			"-0.01": 4.44263232817,
			"-0.009": 5.08983599153,
			"-0.008": 2.36216324763,
			"-0.007": 4.43526966442,
			"-0.006": 4.40843374489,
			"-0.005": 10.5873104636,
			"-0.004": 14.6969163556,
			"-0.003": 22.5978147209,
			"-0.002": 29.2962387245,
			"-0.001": 25.9904952214,
			"0.0": 20.0721840178,
			"0.001": 15.8248546729,
			"0.002": 14.139717036,
			"0.003": 9.72947002933,
			"0.004": 10.9605790089,
			"0.005": 10.4309280435,
			"0.006": 9.70062261055,
			"0.007": 8.48487594195,
			"0.008": 3.33779857141,
			"0.009": 2.84312244145,
			"0.01": 2.78505317732,
			"0.011": 2.19970301733,
			"0.012": 2.40610327382,
			"0.013": 2.14818709878,
			"0.014": 2.41253560789,
			"0.015": 2.27644877084,
			"0.016": 0.0489405674796,
			"0.017": 0.0,
			"0.018": 0.0,
			"0.019": 0.0,
			"0.02": 0.0,
			"0.021": 0.0,
			"0.022": 0.0,
			"0.023": 0.0,
			"0.024": 0.0,
			"0.025": 0.0
		}
	}
}
