{
	 "smiles": "OC(=O)CCC1=CC(Cl)=C(O)C=C1", 
	 "Tm": 358.15, 
	 "num_atms": 22, 
	 "gaussian": { 
		 "optdone": 1, 
		 "sigma_profile": "yes", 
		 "theory": "DFT", 
		 "functional": "B3LYP", 
		 "basiset": "6-31G**", 
		 "properties": { 
			 "R2extent": 4160.9461, 
			 "electric_dipole_moment_norm": 2.50669312841, 
			 "electric_quadrupole_moment_norm": 16.4708216192, 
			 "total_energy": -1034.26300287, 
			 "HOMO_LUMO_gap": 0.20984, 
			 "cosmo_polarized_energy": -15.45, 
			 "cosmo_cavitation_energy": 28.28, 
			 "cosmo_dispersion_energy": -20.57, 
			 "cosmo_repulsion_energy": 1.66, 
			 "cosmo_total_nonelectrostatic_energy": 9.38, 
			 "SMD_solvation_energy": 5.82 
		},
		"coords": [
			{
				"x": -2.8837302862,
				"y": -1.2793357975,
				"z": 2.0544712162,
				"element": "O" 
			},
			{
				"x": -1.839161341,
				"y": -0.4673604639,
				"z": 1.7696813015,
				"element": "C" 
			},
			{
				"x": -1.9742693204,
				"y": 0.724374474,
				"z": 1.5880105509,
				"element": "O" 
			},
			{
				"x": -0.5296732131,
				"y": -1.2282112869,
				"z": 1.7591392916,
				"element": "C" 
			},
			{
				"x": 0.6119630216,
				"y": -0.4709117629,
				"z": 1.0573193487,
				"element": "C" 
			},
			{
				"x": 0.4978563378,
				"y": -0.4510692725,
				"z": -0.4543459912,
				"element": "C" 
			},
			{
				"x": 1.0846431773,
				"y": -1.4664663635,
				"z": -1.2204274786,
				"element": "C" 
			},
			{
				"x": 0.9739271905,
				"y": -1.4779345148,
				"z": -2.6082204643,
				"element": "C" 
			},
			{
				"x": 1.7269326133,
				"y": -2.7625241124,
				"z": -3.5321525522,
				"element": "Cl" 
			},
			{
				"x": 0.2702632714,
				"y": -0.4655866415,
				"z": -3.2777785501,
				"element": "C" 
			},
			{
				"x": 0.1909314273,
				"y": -0.5138134904,
				"z": -4.6349386623,
				"element": "O" 
			},
			{
				"x": -0.3148373599,
				"y": 0.5501540217,
				"z": -2.513888041,
				"element": "C" 
			},
			{
				"x": -0.2039632291,
				"y": 0.5583771339,
				"z": -1.1251421696,
				"element": "C" 
			},
			{
				"x": -3.6716461267,
				"y": -0.7102231541,
				"z": 2.0772389697,
				"element": "H" 
			},
			{
				"x": -0.2721361637,
				"y": -1.4113737355,
				"z": 2.811320185,
				"element": "H" 
			},
			{
				"x": -0.6974157203,
				"y": -2.2126505107,
				"z": 1.311133807,
				"element": "H" 
			},
			{
				"x": 1.5577025833,
				"y": -0.9441463787,
				"z": 1.3422362211,
				"element": "H" 
			},
			{
				"x": 0.6353433338,
				"y": 0.5526696362,
				"z": 1.4431101791,
				"element": "H" 
			},
			{
				"x": 1.6446394722,
				"y": -2.2625942073,
				"z": -0.7388942003,
				"element": "H" 
			},
			{
				"x": -0.3169835579,
				"y": 0.2469502927,
				"z": -4.9453166032,
				"element": "H" 
			},
			{
				"x": -0.8612072426,
				"y": 1.3440023395,
				"z": -3.0195780473,
				"element": "H" 
			},
			{
				"x": -0.6754788672,
				"y": 1.3498737945,
				"z": -0.5523783107,
				"element": "H" 
			}
		],
		 "valence_orbital": [ 
			{
				"type": "occ",
				"energy": -0.31912,
				"method": "rhf"
			},
			{
				"type": "occ",
				"energy": -0.30279,
				"method": "rhf"
			},
			{
				"type": "occ",
				"energy": -0.28178,
				"method": "rhf"
			},
			{
				"type": "occ",
				"energy": -0.24814,
				"method": "rhf"
			},
			{
				"type": "occ",
				"energy": -0.22131,
				"method": "rhf"
			},
			{
				"type": "unocc",
				"energy": -0.01147,
				"method": "rhf"
			},
			{
				"type": "unocc",
				"energy": 0.00292,
				"method": "rhf"
			},
			{
				"type": "unocc",
				"energy": 0.00506,
				"method": "rhf"
			},
			{
				"type": "unocc",
				"energy": 0.03663,
				"method": "rhf"
			},
			{
				"type": "unocc",
				"energy": 0.06528,
				"method": "rhf"
			}
		],
		"cosmo_sigma_profile": { 
			"-0.025": 0.0,
			"-0.024": 0.0,
			"-0.023": 0.0,
			"-0.022": 0.0,
			"-0.021": 0.0,
			"-0.02": 0.0,
			"-0.019": 0.0456310956205,
			"-0.018": 1.69473306929,
			"-0.017": 1.9787498685,
			"-0.016": 2.26193840809,
			"-0.015": 1.55983267618,
			"-0.014": 1.96808674415,
			"-0.013": 1.35118909711,
			"-0.012": 1.49758647472,
			"-0.011": 1.94857269186,
			"-0.01": 1.93009979576,
			"-0.009": 1.35662498729,
			"-0.008": 1.69632182446,
			"-0.007": 5.18524148771,
			"-0.006": 8.27832780186,
			"-0.005": 11.5610657855,
			"-0.004": 14.6093817321,
			"-0.003": 14.3238636057,
			"-0.002": 15.61475086,
			"-0.001": 12.4773163716,
			"0.0": 10.5205294172,
			"0.001": 11.1972585119,
			"0.002": 17.5849603698,
			"0.003": 18.6701465772,
			"0.004": 20.1836346571,
			"0.005": 14.625910922,
			"0.006": 4.66879090563,
			"0.007": 4.97877433302,
			"0.008": 4.94385693024,
			"0.009": 4.80238562038,
			"0.01": 4.85068673546,
			"0.011": 4.71026379543,
			"0.012": 3.06982640956,
			"0.013": 0.10092864755,
			"0.014": 0.0,
			"0.015": 0.0,
			"0.016": 0.0,
			"0.017": 0.0,
			"0.018": 0.0,
			"0.019": 0.0,
			"0.02": 0.0,
			"0.021": 0.0,
			"0.022": 0.0,
			"0.023": 0.0,
			"0.024": 0.0,
			"0.025": 0.0
		}
	}
}
