{
	 "smiles": "CC(=O)NC1=CC=C(C=C1)C1=NN(C(=O)C1C=C1/C(=O)N(N=C1C1=CC=C(NC(C)=O)C=C1)C1=CC=CC=C1)C1=CC=CC=C1", 
	 "Tm": 590.15, 
	 "num_atms": 73, 
	 "gaussian": { 
		 "optdone": 1, 
		 "sigma_profile": "yes", 
		 "theory": "DFT", 
		 "functional": "B3LYP", 
		 "basiset": "6-31G**", 
		 "properties": { 
			 "R2extent": 34071.1716, 
			 "electric_dipole_moment_norm": 6.07638030574, 
			 "electric_quadrupole_moment_norm": 43.2886791555, 
			 "total_energy": -1980.01040879, 
			 "HOMO_LUMO_gap": 0.11076, 
			 "cosmo_polarized_energy": -34.18, 
			 "cosmo_cavitation_energy": 78.98, 
			 "cosmo_dispersion_energy": -53.73, 
			 "cosmo_repulsion_energy": 3.97, 
			 "cosmo_total_nonelectrostatic_energy": 29.23, 
			 "SMD_solvation_energy": 14.08 
		},
		"coords": [
			{
				"x": -4.2038974019,
				"y": 7.1131806349,
				"z": 0.4891656053,
				"element": "C" 
			},
			{
				"x": -3.6572818022,
				"y": 5.7720436893,
				"z": 0.0217511207,
				"element": "C" 
			},
			{
				"x": -2.9933446361,
				"y": 5.6670946333,
				"z": -0.9974995726,
				"element": "O" 
			},
			{
				"x": -3.9995790159,
				"y": 4.7052585863,
				"z": 0.8330197901,
				"element": "N" 
			},
			{
				"x": -3.6973488782,
				"y": 3.3416074894,
				"z": 0.6732625327,
				"element": "C" 
			},
			{
				"x": -4.1581937866,
				"y": 2.4576853613,
				"z": 1.6679980212,
				"element": "C" 
			},
			{
				"x": -3.9000754312,
				"y": 1.1002565661,
				"z": 1.5842877771,
				"element": "C" 
			},
			{
				"x": -3.1688537104,
				"y": 0.575806313,
				"z": 0.5017447134,
				"element": "C" 
			},
			{
				"x": -2.7159427481,
				"y": 1.4632124006,
				"z": -0.4883488867,
				"element": "C" 
			},
			{
				"x": -2.9718313564,
				"y": 2.8299065451,
				"z": -0.4141980318,
				"element": "C" 
			},
			{
				"x": -2.9085098964,
				"y": -0.8604878145,
				"z": 0.4093079556,
				"element": "C" 
			},
			{
				"x": -3.570439879,
				"y": -1.7250405682,
				"z": 1.1093035214,
				"element": "N" 
			},
			{
				"x": -3.1081246817,
				"y": -3.0055058523,
				"z": 0.8161147638,
				"element": "N" 
			},
			{
				"x": -2.0957766783,
				"y": -3.0052551802,
				"z": -0.138082762,
				"element": "C" 
			},
			{
				"x": -1.4917668286,
				"y": -3.9605334487,
				"z": -0.5877591153,
				"element": "O" 
			},
			{
				"x": -1.8771968845,
				"y": -1.5171599223,
				"z": -0.4891821195,
				"element": "C" 
			},
			{
				"x": -0.4575361366,
				"y": -1.1361473299,
				"z": -0.1882298582,
				"element": "C" 
			},
			{
				"x": 0.4299603571,
				"y": -0.6527030853,
				"z": -1.0781335151,
				"element": "C" 
			},
			{
				"x": 0.1321420375,
				"y": -0.2229744587,
				"z": -2.4791778228,
				"element": "C" 
			},
			{
				"x": -0.9340589491,
				"y": -0.2803237754,
				"z": -3.0890236767,
				"element": "O" 
			},
			{
				"x": 1.3297653882,
				"y": 0.3216806639,
				"z": -2.9232107713,
				"element": "N" 
			},
			{
				"x": 2.3336829262,
				"y": 0.2452151954,
				"z": -1.9597865401,
				"element": "N" 
			},
			{
				"x": 1.8439967388,
				"y": -0.3109019277,
				"z": -0.8889887397,
				"element": "C" 
			},
			{
				"x": 2.6805966897,
				"y": -0.5199620563,
				"z": 0.3014239656,
				"element": "C" 
			},
			{
				"x": 3.669755334,
				"y": 0.4176399922,
				"z": 0.6387715448,
				"element": "C" 
			},
			{
				"x": 4.4956433496,
				"y": 0.2313031679,
				"z": 1.7412680146,
				"element": "C" 
			},
			{
				"x": 4.3367421178,
				"y": -0.8959687257,
				"z": 2.5647279984,
				"element": "C" 
			},
			{
				"x": 5.1442341598,
				"y": -1.1515641537,
				"z": 3.687931034,
				"element": "N" 
			},
			{
				"x": 5.7111704033,
				"y": -0.3255998569,
				"z": 4.6514229858,
				"element": "C" 
			},
			{
				"x": 5.4833834778,
				"y": 1.1706255835,
				"z": 4.5685192797,
				"element": "C" 
			},
			{
				"x": 6.3629612069,
				"y": -0.8320305831,
				"z": 5.5518895013,
				"element": "O" 
			},
			{
				"x": 3.3638187684,
				"y": -1.8484013684,
				"z": 2.2180129539,
				"element": "C" 
			},
			{
				"x": 2.5551059996,
				"y": -1.6681978187,
				"z": 1.1022550893,
				"element": "C" 
			},
			{
				"x": 1.6428843647,
				"y": 0.8816069297,
				"z": -4.1917403649,
				"element": "C" 
			},
			{
				"x": 2.9565300076,
				"y": 1.3040435391,
				"z": -4.4432651452,
				"element": "C" 
			},
			{
				"x": 3.2776578958,
				"y": 1.8574994223,
				"z": -5.680438797,
				"element": "C" 
			},
			{
				"x": 2.3066687558,
				"y": 1.9960015898,
				"z": -6.6736604089,
				"element": "C" 
			},
			{
				"x": 1.0030755088,
				"y": 1.5723989854,
				"z": -6.4143033597,
				"element": "C" 
			},
			{
				"x": 0.6584292961,
				"y": 1.0163110208,
				"z": -5.1826590347,
				"element": "C" 
			},
			{
				"x": -3.7184642495,
				"y": -4.1165915292,
				"z": 1.4590021907,
				"element": "C" 
			},
			{
				"x": -4.7716492907,
				"y": -3.8907343204,
				"z": 2.3580008925,
				"element": "C" 
			},
			{
				"x": -5.3756585645,
				"y": -4.9699959402,
				"z": 2.9987368901,
				"element": "C" 
			},
			{
				"x": -4.9458374101,
				"y": -6.2756756164,
				"z": 2.7560174783,
				"element": "C" 
			},
			{
				"x": -3.8990442049,
				"y": -6.4908407805,
				"z": 1.8593101737,
				"element": "C" 
			},
			{
				"x": -3.2787636774,
				"y": -5.4256641114,
				"z": 1.2068943868,
				"element": "C" 
			},
			{
				"x": -5.0466952322,
				"y": 7.3948865474,
				"z": -0.1504271839,
				"element": "H" 
			},
			{
				"x": -3.4255699584,
				"y": 7.8672137966,
				"z": 0.3575180824,
				"element": "H" 
			},
			{
				"x": -4.5396996627,
				"y": 7.1195516733,
				"z": 1.5300676992,
				"element": "H" 
			},
			{
				"x": -4.5489083492,
				"y": 4.9266309829,
				"z": 1.6507949478,
				"element": "H" 
			},
			{
				"x": -4.7190536308,
				"y": 2.8462721757,
				"z": 2.5153164417,
				"element": "H" 
			},
			{
				"x": -4.2551225293,
				"y": 0.4284850616,
				"z": 2.3582379833,
				"element": "H" 
			},
			{
				"x": -2.1801648172,
				"y": 1.0842028087,
				"z": -1.353374727,
				"element": "H" 
			},
			{
				"x": -2.6237926463,
				"y": 3.5031005104,
				"z": -1.1841223388,
				"element": "H" 
			},
			{
				"x": -2.08674849,
				"y": -1.3549455579,
				"z": -1.5522330326,
				"element": "H" 
			},
			{
				"x": -0.1265164889,
				"y": -1.3044779861,
				"z": 0.8344070932,
				"element": "H" 
			},
			{
				"x": 3.7956268726,
				"y": 1.2945557154,
				"z": 0.012637456,
				"element": "H" 
			},
			{
				"x": 5.2759949519,
				"y": 0.9529931341,
				"z": 1.9467817739,
				"element": "H" 
			},
			{
				"x": 5.2689411217,
				"y": -2.1262951325,
				"z": 3.9352429681,
				"element": "H" 
			},
			{
				"x": 4.4934150195,
				"y": 1.4318564209,
				"z": 4.1879938517,
				"element": "H" 
			},
			{
				"x": 5.6174534634,
				"y": 1.5718245119,
				"z": 5.5735020648,
				"element": "H" 
			},
			{
				"x": 6.2333246769,
				"y": 1.6345901352,
				"z": 3.9189927032,
				"element": "H" 
			},
			{
				"x": 3.2460915722,
				"y": -2.7376615566,
				"z": 2.8312312526,
				"element": "H" 
			},
			{
				"x": 1.8420440109,
				"y": -2.4419213303,
				"z": 0.8370241192,
				"element": "H" 
			},
			{
				"x": 3.7069845581,
				"y": 1.1933000673,
				"z": -3.6717928639,
				"element": "H" 
			},
			{
				"x": 4.2979886155,
				"y": 2.1810337604,
				"z": -5.8655381078,
				"element": "H" 
			},
			{
				"x": 2.5629902694,
				"y": 2.4279600241,
				"z": -7.6362846675,
				"element": "H" 
			},
			{
				"x": 0.2357800508,
				"y": 1.6735858776,
				"z": -7.1764472854,
				"element": "H" 
			},
			{
				"x": -0.3526147658,
				"y": 0.6891495254,
				"z": -4.9863873583,
				"element": "H" 
			},
			{
				"x": -5.1043334829,
				"y": -2.8779500221,
				"z": 2.5423577311,
				"element": "H" 
			},
			{
				"x": -6.1905615702,
				"y": -4.783645386,
				"z": 3.6924963932,
				"element": "H" 
			},
			{
				"x": -5.4210880972,
				"y": -7.1130718384,
				"z": 3.257829861,
				"element": "H" 
			},
			{
				"x": -3.553679611,
				"y": -7.500847367,
				"z": 1.6578962781,
				"element": "H" 
			},
			{
				"x": -2.4701145359,
				"y": -5.597494637,
				"z": 0.5109272065,
				"element": "H" 
			}
		],
		 "valence_orbital": [ 
			{
				"type": "occ",
				"energy": -0.2481,
				"method": "rhf"
			},
			{
				"type": "occ",
				"energy": -0.2401,
				"method": "rhf"
			},
			{
				"type": "occ",
				"energy": -0.23919,
				"method": "rhf"
			},
			{
				"type": "occ",
				"energy": -0.21095,
				"method": "rhf"
			},
			{
				"type": "occ",
				"energy": -0.20841,
				"method": "rhf"
			},
			{
				"type": "unocc",
				"energy": -0.09765,
				"method": "rhf"
			},
			{
				"type": "unocc",
				"energy": -0.06151,
				"method": "rhf"
			},
			{
				"type": "unocc",
				"energy": -0.04112,
				"method": "rhf"
			},
			{
				"type": "unocc",
				"energy": -0.0248,
				"method": "rhf"
			},
			{
				"type": "unocc",
				"energy": -0.02133,
				"method": "rhf"
			}
		],
		"cosmo_sigma_profile": { 
			"-0.025": 0.0,
			"-0.024": 0.0,
			"-0.023": 0.0,
			"-0.022": 0.0,
			"-0.021": 0.0,
			"-0.02": 0.0,
			"-0.019": 0.0,
			"-0.018": 0.0,
			"-0.017": 0.0,
			"-0.016": 0.296239216341,
			"-0.015": 1.48057127228,
			"-0.014": 2.26318528881,
			"-0.013": 2.43233796818,
			"-0.012": 2.34783647825,
			"-0.011": 4.02032991063,
			"-0.01": 4.17778593544,
			"-0.009": 5.53243450133,
			"-0.008": 9.19035037424,
			"-0.007": 13.6741002674,
			"-0.006": 29.7789045687,
			"-0.005": 40.5442567852,
			"-0.004": 50.5557826907,
			"-0.003": 46.9247953545,
			"-0.002": 48.6345278714,
			"-0.001": 43.9361907022,
			"0.0": 40.1231957833,
			"0.001": 40.9434342596,
			"0.002": 49.07090108,
			"0.003": 56.0386191653,
			"0.004": 43.2502136852,
			"0.005": 32.4307914889,
			"0.006": 12.7716632264,
			"0.007": 6.54887765842,
			"0.008": 7.83329020115,
			"0.009": 5.75308172578,
			"0.01": 7.03766455045,
			"0.011": 7.66592050414,
			"0.012": 7.29165859932,
			"0.013": 8.42630081447,
			"0.014": 3.77422940536,
			"0.015": 0.338279891535,
			"0.016": 0.0,
			"0.017": 0.0,
			"0.018": 0.0,
			"0.019": 0.0,
			"0.02": 0.0,
			"0.021": 0.0,
			"0.022": 0.0,
			"0.023": 0.0,
			"0.024": 0.0,
			"0.025": 0.0
		}
	}
}
