{
	 "smiles": "COC1=CC=C(OC)C2=C1CC2=O", 
	 "Tm": 378.15, 
	 "num_atms": 23, 
	 "gaussian": { 
		 "optdone": 1, 
		 "sigma_profile": "yes", 
		 "theory": "DFT", 
		 "functional": "B3LYP", 
		 "basiset": "6-31G**", 
		 "properties": { 
			 "R2extent": 2685.8706, 
			 "electric_dipole_moment_norm": 1.8683521242, 
			 "electric_quadrupole_moment_norm": 12.499620743, 
			 "total_energy": -612.696653448, 
			 "HOMO_LUMO_gap": 0.15856, 
			 "cosmo_polarized_energy": -8.98, 
			 "cosmo_cavitation_energy": 26.71, 
			 "cosmo_dispersion_energy": -19.65, 
			 "cosmo_repulsion_energy": 1.54, 
			 "cosmo_total_nonelectrostatic_energy": 8.6, 
			 "SMD_solvation_energy": 6.41 
		},
		"coords": [
			{
				"x": -0.174041993,
				"y": 3.791769017,
				"z": -1.4665829777,
				"element": "C" 
			},
			{
				"x": 0.418083802,
				"y": 2.8185651974,
				"z": -2.3140962132,
				"element": "O" 
			},
			{
				"x": 0.5086625453,
				"y": 1.5407995586,
				"z": -1.8408321639,
				"element": "C" 
			},
			{
				"x": 1.1028000876,
				"y": 0.5985433944,
				"z": -2.7104883952,
				"element": "C" 
			},
			{
				"x": 1.2655970346,
				"y": -0.739637115,
				"z": -2.3724077137,
				"element": "C" 
			},
			{
				"x": 0.8433517881,
				"y": -1.2461584128,
				"z": -1.1266914825,
				"element": "C" 
			},
			{
				"x": 1.0467996912,
				"y": -2.561073492,
				"z": -0.8952922905,
				"element": "O" 
			},
			{
				"x": 0.6205613036,
				"y": -3.0798025317,
				"z": 0.366989442,
				"element": "C" 
			},
			{
				"x": 0.2546879209,
				"y": -0.3122449132,
				"z": -0.265020796,
				"element": "C" 
			},
			{
				"x": 0.0908952173,
				"y": 1.050800429,
				"z": -0.613950496,
				"element": "C" 
			},
			{
				"x": -0.5710373401,
				"y": 1.4327894496,
				"z": 0.7116532764,
				"element": "C" 
			},
			{
				"x": -0.3764005358,
				"y": -0.0788721575,
				"z": 1.0683558446,
				"element": "C" 
			},
			{
				"x": -0.6493254546,
				"y": -0.7326106285,
				"z": 2.0470769448,
				"element": "O" 
			},
			{
				"x": 0.3898206979,
				"y": 3.9120286268,
				"z": -0.5335164293,
				"element": "H" 
			},
			{
				"x": -1.2144766912,
				"y": 3.5401737261,
				"z": -1.2274125453,
				"element": "H" 
			},
			{
				"x": -0.1516227449,
				"y": 4.7309794283,
				"z": -2.0216995839,
				"element": "H" 
			},
			{
				"x": 1.4402159583,
				"y": 0.9536678102,
				"z": -3.6796687103,
				"element": "H" 
			},
			{
				"x": 1.7279290771,
				"y": -1.4264439407,
				"z": -3.0740488455,
				"element": "H" 
			},
			{
				"x": 0.8714445307,
				"y": -4.1410090805,
				"z": 0.3521495701,
				"element": "H" 
			},
			{
				"x": -0.4571045791,
				"y": -2.9512876295,
				"z": 0.5048463996,
				"element": "H" 
			},
			{
				"x": 1.1372760011,
				"y": -2.5840433954,
				"z": 1.1941131707,
				"element": "H" 
			},
			{
				"x": -1.6192616246,
				"y": 1.7476909396,
				"z": 0.6708294862,
				"element": "H" 
			},
			{
				"x": -0.0180546923,
				"y": 2.1172757197,
				"z": 1.3637945084,
				"element": "H" 
			}
		],
		 "valence_orbital": [ 
			{
				"type": "occ",
				"energy": -0.33103,
				"method": "rhf"
			},
			{
				"type": "occ",
				"energy": -0.2931,
				"method": "rhf"
			},
			{
				"type": "occ",
				"energy": -0.2585,
				"method": "rhf"
			},
			{
				"type": "occ",
				"energy": -0.25031,
				"method": "rhf"
			},
			{
				"type": "occ",
				"energy": -0.20957,
				"method": "rhf"
			},
			{
				"type": "unocc",
				"energy": -0.05101,
				"method": "rhf"
			},
			{
				"type": "unocc",
				"energy": -0.00213,
				"method": "rhf"
			},
			{
				"type": "unocc",
				"energy": 0.05819,
				"method": "rhf"
			},
			{
				"type": "unocc",
				"energy": 0.08179,
				"method": "rhf"
			},
			{
				"type": "unocc",
				"energy": 0.09215,
				"method": "rhf"
			}
		],
		"cosmo_sigma_profile": { 
			"-0.025": 0.0,
			"-0.024": 0.0,
			"-0.023": 0.0,
			"-0.022": 0.0,
			"-0.021": 0.0,
			"-0.02": 0.0,
			"-0.019": 0.0,
			"-0.018": 0.0,
			"-0.017": 0.0,
			"-0.016": 0.0,
			"-0.015": 0.0,
			"-0.014": 0.0,
			"-0.013": 0.0,
			"-0.012": 0.0,
			"-0.011": 0.0,
			"-0.01": 0.0,
			"-0.009": 0.0,
			"-0.008": 0.0,
			"-0.007": 2.17579020736,
			"-0.006": 12.6353480395,
			"-0.005": 23.8601404714,
			"-0.004": 22.8277817456,
			"-0.003": 23.9262313785,
			"-0.002": 18.4366792977,
			"-0.001": 12.2750775519,
			"0.0": 9.83313466548,
			"0.001": 10.0888879519,
			"0.002": 15.4282293942,
			"0.003": 16.9628582775,
			"0.004": 9.05056692597,
			"0.005": 4.53039611694,
			"0.006": 4.78159482851,
			"0.007": 4.60461834113,
			"0.008": 4.00547977967,
			"0.009": 5.10975836636,
			"0.01": 4.51612274533,
			"0.011": 4.22749628572,
			"0.012": 2.67013904855,
			"0.013": 0.64291847668,
			"0.014": 0.0,
			"0.015": 0.0,
			"0.016": 0.0,
			"0.017": 0.0,
			"0.018": 0.0,
			"0.019": 0.0,
			"0.02": 0.0,
			"0.021": 0.0,
			"0.022": 0.0,
			"0.023": 0.0,
			"0.024": 0.0,
			"0.025": 0.0
		}
	}
}
