{
	 "smiles": "ClC1=CC=C(C=C1)S(=O)(=O)N(C1CC1)C1CCNCC1", 
	 "Tm": 385.15, 
	 "num_atms": 39, 
	 "gaussian": { 
		 "optdone": 1, 
		 "sigma_profile": "yes", 
		 "theory": "DFT", 
		 "functional": "B3LYP", 
		 "basiset": "6-31G**", 
		 "properties": { 
			 "R2extent": 8352.0431, 
			 "electric_dipole_moment_norm": 2.97817317159, 
			 "electric_quadrupole_moment_norm": 8.39258905702, 
			 "total_energy": -1663.15174235, 
			 "HOMO_LUMO_gap": 0.15971, 
			 "cosmo_polarized_energy": -13.68, 
			 "cosmo_cavitation_energy": 41.92, 
			 "cosmo_dispersion_energy": -29.32, 
			 "cosmo_repulsion_energy": 2.21, 
			 "cosmo_total_nonelectrostatic_energy": 14.8, 
			 "SMD_solvation_energy": 2.32 
		},
		"coords": [
			{
				"x": 0.1446119571,
				"y": -1.4143181133,
				"z": -6.6613959356,
				"element": "Cl" 
			},
			{
				"x": 0.1463181601,
				"y": -0.7258507456,
				"z": -5.0488533088,
				"element": "C" 
			},
			{
				"x": -0.4403022937,
				"y": -1.4423507664,
				"z": -4.0016756261,
				"element": "C" 
			},
			{
				"x": -0.4389742607,
				"y": -0.8951719367,
				"z": -2.721248905,
				"element": "C" 
			},
			{
				"x": 0.1575371319,
				"y": 0.3494785391,
				"z": -2.5069987121,
				"element": "C" 
			},
			{
				"x": 0.7308027704,
				"y": 1.0671168871,
				"z": -3.5551836765,
				"element": "C" 
			},
			{
				"x": 0.7271618743,
				"y": 0.525147396,
				"z": -4.8408157605,
				"element": "C" 
			},
			{
				"x": 0.0952706997,
				"y": 1.0864294311,
				"z": -0.8690008206,
				"element": "S" 
			},
			{
				"x": 0.6535330584,
				"y": 2.4432067511,
				"z": -0.9804904274,
				"element": "O" 
			},
			{
				"x": -1.268969282,
				"y": 0.8954909125,
				"z": -0.3655401001,
				"element": "O" 
			},
			{
				"x": 1.1219089109,
				"y": 0.0755277064,
				"z": 0.046599267,
				"element": "N" 
			},
			{
				"x": 2.5227324876,
				"y": 0.2998667837,
				"z": -0.2945533375,
				"element": "C" 
			},
			{
				"x": 3.4848772025,
				"y": -0.8439316709,
				"z": -0.0934186872,
				"element": "C" 
			},
			{
				"x": 3.1301228057,
				"y": -0.4019217147,
				"z": -1.487125323,
				"element": "C" 
			},
			{
				"x": 0.8980911431,
				"y": -0.0402973817,
				"z": 1.5407829538,
				"element": "C" 
			},
			{
				"x": 0.8831171875,
				"y": 1.2870228281,
				"z": 2.344937706,
				"element": "C" 
			},
			{
				"x": -0.5164797784,
				"y": 1.8173992644,
				"z": 2.6778823974,
				"element": "C" 
			},
			{
				"x": -1.2847595923,
				"y": 0.7489200991,
				"z": 3.3273214358,
				"element": "N" 
			},
			{
				"x": -1.5654580681,
				"y": -0.3461494289,
				"z": 2.3901690776,
				"element": "C" 
			},
			{
				"x": -0.2444631136,
				"y": -0.9999337756,
				"z": 1.960621061,
				"element": "C" 
			},
			{
				"x": -0.8953028485,
				"y": -2.4077900327,
				"z": -4.1919627432,
				"element": "H" 
			},
			{
				"x": -0.9016186379,
				"y": -1.4271619891,
				"z": -1.897189482,
				"element": "H" 
			},
			{
				"x": 1.1685669431,
				"y": 2.0396647557,
				"z": -3.3600551509,
				"element": "H" 
			},
			{
				"x": 1.1671403053,
				"y": 1.065819603,
				"z": -5.6711292397,
				"element": "H" 
			},
			{
				"x": 2.9024064636,
				"y": 1.2977868557,
				"z": -0.0796359744,
				"element": "H" 
			},
			{
				"x": 3.0720313697,
				"y": -1.7909301406,
				"z": 0.239922098,
				"element": "H" 
			},
			{
				"x": 4.4664095066,
				"y": -0.6106582387,
				"z": 0.3071489363,
				"element": "H" 
			},
			{
				"x": 3.8616501385,
				"y": 0.1469751194,
				"z": -2.0718831257,
				"element": "H" 
			},
			{
				"x": 2.492315418,
				"y": -1.0623866841,
				"z": -2.0618306063,
				"element": "H" 
			},
			{
				"x": 1.8223555079,
				"y": -0.552070863,
				"z": 1.8143520647,
				"element": "H" 
			},
			{
				"x": 1.4679418065,
				"y": 2.0522769826,
				"z": 1.8240866207,
				"element": "H" 
			},
			{
				"x": 1.3871557878,
				"y": 1.0854153445,
				"z": 3.2975074157,
				"element": "H" 
			},
			{
				"x": -0.4167024206,
				"y": 2.6510683,
				"z": 3.3824663402,
				"element": "H" 
			},
			{
				"x": -1.0054372284,
				"y": 2.2069471187,
				"z": 1.7719342106,
				"element": "H" 
			},
			{
				"x": -2.1640871649,
				"y": 1.1280018441,
				"z": 3.6680852154,
				"element": "H" 
			},
			{
				"x": -2.169283605,
				"y": -1.0987245029,
				"z": 2.9116121586,
				"element": "H" 
			},
			{
				"x": -2.1273162219,
				"y": -0.0161473103,
				"z": 1.5073126877,
				"element": "H" 
			},
			{
				"x": -0.417052118,
				"y": -1.7291521314,
				"z": 1.1627214293,
				"element": "H" 
			},
			{
				"x": 0.1355479979,
				"y": -1.5552150958,
				"z": 2.8268238668,
				"element": "H" 
			}
		],
		 "valence_orbital": [ 
			{
				"type": "occ",
				"energy": -0.29079,
				"method": "rhf"
			},
			{
				"type": "occ",
				"energy": -0.28285,
				"method": "rhf"
			},
			{
				"type": "occ",
				"energy": -0.26822,
				"method": "rhf"
			},
			{
				"type": "occ",
				"energy": -0.24929,
				"method": "rhf"
			},
			{
				"type": "occ",
				"energy": -0.20782,
				"method": "rhf"
			},
			{
				"type": "unocc",
				"energy": -0.04811,
				"method": "rhf"
			},
			{
				"type": "unocc",
				"energy": -0.03247,
				"method": "rhf"
			},
			{
				"type": "unocc",
				"energy": 0.01609,
				"method": "rhf"
			},
			{
				"type": "unocc",
				"energy": 0.06045,
				"method": "rhf"
			},
			{
				"type": "unocc",
				"energy": 0.06708,
				"method": "rhf"
			}
		],
		"cosmo_sigma_profile": { 
			"-0.025": 0.0,
			"-0.024": 0.0,
			"-0.023": 0.0,
			"-0.022": 0.0,
			"-0.021": 0.0,
			"-0.02": 0.0,
			"-0.019": 0.0,
			"-0.018": 0.0,
			"-0.017": 0.0,
			"-0.016": 0.0,
			"-0.015": 0.0,
			"-0.014": 0.0,
			"-0.013": 0.0,
			"-0.012": 0.0,
			"-0.011": 0.0,
			"-0.01": 0.407367085987,
			"-0.009": 1.79297798255,
			"-0.008": 6.09968373848,
			"-0.007": 8.34963699195,
			"-0.006": 9.1508892303,
			"-0.005": 16.4670899953,
			"-0.004": 20.9661258223,
			"-0.003": 31.4288238171,
			"-0.002": 31.0786228351,
			"-0.001": 36.4315674137,
			"0.0": 41.6653737027,
			"0.001": 33.5159441599,
			"0.002": 22.2048290072,
			"0.003": 15.9032896785,
			"0.004": 16.4192417347,
			"0.005": 6.1629292173,
			"0.006": 4.84266501602,
			"0.007": 4.02571579162,
			"0.008": 3.57644927236,
			"0.009": 4.13758784833,
			"0.01": 5.86750278984,
			"0.011": 5.22136594567,
			"0.012": 2.80925087885,
			"0.013": 0.731017400557,
			"0.014": 0.284243040832,
			"0.015": 0.599888489918,
			"0.016": 0.174306190173,
			"0.017": 0.462581939195,
			"0.018": 0.74264733572,
			"0.019": 0.0443295097408,
			"0.02": 0.0,
			"0.021": 0.0,
			"0.022": 0.0,
			"0.023": 0.0,
			"0.024": 0.0,
			"0.025": 0.0
		}
	}
}
