{
	 "smiles": "NC1=NC=C(C=C1)S(=O)(=O)N1CCCCC1", 
	 "Tm": 445.15, 
	 "num_atms": 31, 
	 "gaussian": { 
		 "optdone": 1, 
		 "sigma_profile": "yes", 
		 "theory": "DFT", 
		 "functional": "B3LYP", 
		 "basiset": "6-31G**", 
		 "properties": { 
			 "R2extent": 4411.923, 
			 "electric_dipole_moment_norm": 7.23544049454, 
			 "electric_quadrupole_moment_norm": 19.8528465385, 
			 "total_energy": -1102.93008481, 
			 "HOMO_LUMO_gap": 0.19253, 
			 "cosmo_polarized_energy": -19.5, 
			 "cosmo_cavitation_energy": 33.86, 
			 "cosmo_dispersion_energy": -24.77, 
			 "cosmo_repulsion_energy": 1.9, 
			 "cosmo_total_nonelectrostatic_energy": 10.99, 
			 "SMD_solvation_energy": 1.83 
		},
		"coords": [
			{
				"x": -2.2588628227,
				"y": 3.3173310746,
				"z": 2.5110580583,
				"element": "N" 
			},
			{
				"x": -1.2650978228,
				"y": 2.5731226209,
				"z": 1.9318809009,
				"element": "C" 
			},
			{
				"x": -0.481082926,
				"y": 1.8780622693,
				"z": 2.7760008542,
				"element": "N" 
			},
			{
				"x": 0.5236388382,
				"y": 1.1680429216,
				"z": 2.2585925515,
				"element": "C" 
			},
			{
				"x": 0.7903462713,
				"y": 1.0967673063,
				"z": 0.8890707846,
				"element": "C" 
			},
			{
				"x": -0.0207852795,
				"y": 1.8337015295,
				"z": 0.0122132003,
				"element": "C" 
			},
			{
				"x": -1.0592729743,
				"y": 2.5830564658,
				"z": 0.5316742582,
				"element": "C" 
			},
			{
				"x": 2.1242847039,
				"y": 0.0839011545,
				"z": 0.2648450606,
				"element": "S" 
			},
			{
				"x": 2.4785921048,
				"y": 0.6167075095,
				"z": -1.0544257831,
				"element": "O" 
			},
			{
				"x": 3.100343034,
				"y": -0.0470156129,
				"z": 1.3493360716,
				"element": "O" 
			},
			{
				"x": 1.5184390947,
				"y": -1.4583912283,
				"z": 0.0048271968,
				"element": "N" 
			},
			{
				"x": 0.7136225546,
				"y": -1.7147507292,
				"z": -1.2106146193,
				"element": "C" 
			},
			{
				"x": -0.6932688194,
				"y": -2.2029997148,
				"z": -0.8525222641,
				"element": "C" 
			},
			{
				"x": -0.6401267178,
				"y": -3.513557442,
				"z": -0.030586509,
				"element": "C" 
			},
			{
				"x": 0.6751308093,
				"y": -3.6267047688,
				"z": 0.7734885398,
				"element": "C" 
			},
			{
				"x": 1.197706222,
				"y": -2.2555826027,
				"z": 1.2074366962,
				"element": "C" 
			},
			{
				"x": -2.4411839246,
				"y": 3.1282081352,
				"z": 3.485111487,
				"element": "H" 
			},
			{
				"x": -3.0333749765,
				"y": 3.6340078114,
				"z": 1.9508524579,
				"element": "H" 
			},
			{
				"x": 1.1628539178,
				"y": 0.644006786,
				"z": 2.9644367335,
				"element": "H" 
			},
			{
				"x": 0.191727093,
				"y": 1.8324326516,
				"z": -1.0516597632,
				"element": "H" 
			},
			{
				"x": -1.6941254312,
				"y": 3.1825180525,
				"z": -0.113606744,
				"element": "H" 
			},
			{
				"x": 1.2329925325,
				"y": -2.4669055374,
				"z": -1.8186663135,
				"element": "H" 
			},
			{
				"x": 0.6865646795,
				"y": -0.8031041398,
				"z": -1.8094806744,
				"element": "H" 
			},
			{
				"x": -1.1991905187,
				"y": -1.4168925901,
				"z": -0.2797371757,
				"element": "H" 
			},
			{
				"x": -1.2749057979,
				"y": -2.3441383084,
				"z": -1.7701257138,
				"element": "H" 
			},
			{
				"x": -0.7318888254,
				"y": -4.3806093611,
				"z": -0.6940450344,
				"element": "H" 
			},
			{
				"x": -1.4996394409,
				"y": -3.5518632113,
				"z": 0.6480255619,
				"element": "H" 
			},
			{
				"x": 1.4492364707,
				"y": -4.1150254338,
				"z": 0.1706247061,
				"element": "H" 
			},
			{
				"x": 0.5327203444,
				"y": -4.2497687864,
				"z": 1.6624206763,
				"element": "H" 
			},
			{
				"x": 0.4381049259,
				"y": -1.7533439293,
				"z": 1.8295901937,
				"element": "H" 
			},
			{
				"x": 2.106102681,
				"y": -2.3498128923,
				"z": 1.8049846053,
				"element": "H" 
			}
		],
		 "valence_orbital": [ 
			{
				"type": "occ",
				"energy": -0.29505,
				"method": "rhf"
			},
			{
				"type": "occ",
				"energy": -0.29158,
				"method": "rhf"
			},
			{
				"type": "occ",
				"energy": -0.2679,
				"method": "rhf"
			},
			{
				"type": "occ",
				"energy": -0.249,
				"method": "rhf"
			},
			{
				"type": "occ",
				"energy": -0.22488,
				"method": "rhf"
			},
			{
				"type": "unocc",
				"energy": -0.03235,
				"method": "rhf"
			},
			{
				"type": "unocc",
				"energy": -0.02129,
				"method": "rhf"
			},
			{
				"type": "unocc",
				"energy": 0.06193,
				"method": "rhf"
			},
			{
				"type": "unocc",
				"energy": 0.06921,
				"method": "rhf"
			},
			{
				"type": "unocc",
				"energy": 0.08113,
				"method": "rhf"
			}
		],
		"cosmo_sigma_profile": { 
			"-0.025": 0.0,
			"-0.024": 0.0,
			"-0.023": 0.0,
			"-0.022": 0.0,
			"-0.021": 0.0,
			"-0.02": 0.0,
			"-0.019": 0.0,
			"-0.018": 0.0,
			"-0.017": 0.0,
			"-0.016": 0.0,
			"-0.015": 0.0942718977319,
			"-0.014": 1.55010947952,
			"-0.013": 2.34312984271,
			"-0.012": 2.3502700686,
			"-0.011": 2.77061375403,
			"-0.01": 2.80692570082,
			"-0.009": 2.45644375256,
			"-0.008": 3.31239708479,
			"-0.007": 4.81273179843,
			"-0.006": 6.42240747204,
			"-0.005": 8.93695124041,
			"-0.004": 19.5151378086,
			"-0.003": 34.5646006946,
			"-0.002": 34.7962246953,
			"-0.001": 21.1849179793,
			"0.0": 20.4561391272,
			"0.001": 17.4507314342,
			"0.002": 11.3605830997,
			"0.003": 7.75581748196,
			"0.004": 5.93369741608,
			"0.005": 5.96280060218,
			"0.006": 7.38687098037,
			"0.007": 5.93836789656,
			"0.008": 5.64263299943,
			"0.009": 5.31852999593,
			"0.01": 6.3992539349,
			"0.011": 9.01957186325,
			"0.012": 7.50319490811,
			"0.013": 0.983867059161,
			"0.014": 0.770016551595,
			"0.015": 0.397237554985,
			"0.016": 0.0,
			"0.017": 0.0,
			"0.018": 0.0,
			"0.019": 0.0,
			"0.02": 0.0,
			"0.021": 0.0,
			"0.022": 0.0,
			"0.023": 0.0,
			"0.024": 0.0,
			"0.025": 0.0
		}
	}
}
