{
	 "smiles": "CC(=O)N1CCCCC1CC(O)=O", 
	 "Tm": 386.15, 
	 "num_atms": 28, 
	 "gaussian": { 
		 "optdone": 1, 
		 "sigma_profile": "yes", 
		 "theory": "DFT", 
		 "functional": "B3LYP", 
		 "basiset": "6-31G**", 
		 "properties": { 
			 "R2extent": 3204.817, 
			 "electric_dipole_moment_norm": 3.53915204534, 
			 "electric_quadrupole_moment_norm": 10.2633493885, 
			 "total_energy": -632.456485291, 
			 "HOMO_LUMO_gap": 0.25324, 
			 "cosmo_polarized_energy": -13.84, 
			 "cosmo_cavitation_energy": 29.15, 
			 "cosmo_dispersion_energy": -21.26, 
			 "cosmo_repulsion_energy": 1.7, 
			 "cosmo_total_nonelectrostatic_energy": 9.59, 
			 "SMD_solvation_energy": 5.16 
		},
		"coords": [
			{
				"x": 1.0620627525,
				"y": 2.3481869047,
				"z": -0.3841434302,
				"element": "C" 
			},
			{
				"x": -0.1037757144,
				"y": 1.463539028,
				"z": 0.0467213601,
				"element": "C" 
			},
			{
				"x": -0.9482180292,
				"y": 1.9179514595,
				"z": 0.8136329589,
				"element": "O" 
			},
			{
				"x": -0.1422659523,
				"y": 0.1606503102,
				"z": -0.4346204385,
				"element": "N" 
			},
			{
				"x": 0.4667876414,
				"y": -0.054010604,
				"z": -1.7681738788,
				"element": "C" 
			},
			{
				"x": 0.5908298865,
				"y": -1.5186950858,
				"z": -2.1735903337,
				"element": "C" 
			},
			{
				"x": -0.7667731675,
				"y": -2.2059258031,
				"z": -2.062431448,
				"element": "C" 
			},
			{
				"x": -1.2284925899,
				"y": -2.1093096682,
				"z": -0.6111096559,
				"element": "C" 
			},
			{
				"x": -1.32283653,
				"y": -0.6731387878,
				"z": -0.0554157756,
				"element": "C" 
			},
			{
				"x": -1.4685025482,
				"y": -0.7618346753,
				"z": 1.4767154436,
				"element": "C" 
			},
			{
				"x": -2.7694941787,
				"y": -1.3938090896,
				"z": 1.906460909,
				"element": "C" 
			},
			{
				"x": -2.7414725482,
				"y": -1.7328327537,
				"z": 3.2189432353,
				"element": "O" 
			},
			{
				"x": -3.755701258,
				"y": -1.5638857387,
				"z": 1.2191715901,
				"element": "O" 
			},
			{
				"x": 1.0395899076,
				"y": 3.23123508,
				"z": 0.2540903084,
				"element": "H" 
			},
			{
				"x": 0.9598886299,
				"y": 2.6717064957,
				"z": -1.4255425905,
				"element": "H" 
			},
			{
				"x": 2.0294688088,
				"y": 1.8476386569,
				"z": -0.2805407795,
				"element": "H" 
			},
			{
				"x": 1.4561559971,
				"y": 0.4044997716,
				"z": -1.7706349564,
				"element": "H" 
			},
			{
				"x": -0.1318289931,
				"y": 0.4650011228,
				"z": -2.5354385357,
				"element": "H" 
			},
			{
				"x": 0.9863347836,
				"y": -1.5567453446,
				"z": -3.1951117348,
				"element": "H" 
			},
			{
				"x": 1.31665862,
				"y": -2.0260509345,
				"z": -1.5249371895,
				"element": "H" 
			},
			{
				"x": -0.705845201,
				"y": -3.2558684404,
				"z": -2.3694592763,
				"element": "H" 
			},
			{
				"x": -1.4889214259,
				"y": -1.7189276474,
				"z": -2.7323162359,
				"element": "H" 
			},
			{
				"x": -0.5211421104,
				"y": -2.6774212869,
				"z": 0.0093493173,
				"element": "H" 
			},
			{
				"x": -2.2120632552,
				"y": -2.5656256966,
				"z": -0.4774886606,
				"element": "H" 
			},
			{
				"x": -2.2291907179,
				"y": -0.196251597,
				"z": -0.4528860785,
				"element": "H" 
			},
			{
				"x": -1.4542735092,
				"y": 0.2398196233,
				"z": 1.9117625516,
				"element": "H" 
			},
			{
				"x": -0.6339224595,
				"y": -1.3176762737,
				"z": 1.9172750978,
				"element": "H" 
			},
			{
				"x": -3.6259568386,
				"y": -2.0811190255,
				"z": 3.4223182264,
				"element": "H" 
			}
		],
		 "valence_orbital": [ 
			{
				"type": "occ",
				"energy": -0.32255,
				"method": "rhf"
			},
			{
				"type": "occ",
				"energy": -0.31155,
				"method": "rhf"
			},
			{
				"type": "occ",
				"energy": -0.27195,
				"method": "rhf"
			},
			{
				"type": "occ",
				"energy": -0.24916,
				"method": "rhf"
			},
			{
				"type": "occ",
				"energy": -0.2377,
				"method": "rhf"
			},
			{
				"type": "unocc",
				"energy": 0.01554,
				"method": "rhf"
			},
			{
				"type": "unocc",
				"energy": 0.01692,
				"method": "rhf"
			},
			{
				"type": "unocc",
				"energy": 0.07729,
				"method": "rhf"
			},
			{
				"type": "unocc",
				"energy": 0.08471,
				"method": "rhf"
			},
			{
				"type": "unocc",
				"energy": 0.10077,
				"method": "rhf"
			}
		],
		"cosmo_sigma_profile": { 
			"-0.025": 0.0,
			"-0.024": 0.0,
			"-0.023": 0.0,
			"-0.022": 0.0,
			"-0.021": 0.0,
			"-0.02": 0.0,
			"-0.019": 0.0,
			"-0.018": 0.402998251469,
			"-0.017": 1.18713839927,
			"-0.016": 0.506263436287,
			"-0.015": 0.784163863926,
			"-0.014": 0.830723871391,
			"-0.013": 1.08839041226,
			"-0.012": 0.686378321467,
			"-0.011": 0.112164489684,
			"-0.01": 0.729686281741,
			"-0.009": 0.706632598557,
			"-0.008": 0.516140221634,
			"-0.007": 1.34983132377,
			"-0.006": 5.51286205429,
			"-0.005": 11.6951994248,
			"-0.004": 18.7383778223,
			"-0.003": 33.0500911662,
			"-0.002": 29.4189383569,
			"-0.001": 27.7365153226,
			"0.0": 21.2791578096,
			"0.001": 10.5103450804,
			"0.002": 6.3789574025,
			"0.003": 5.0234293968,
			"0.004": 4.70244352189,
			"0.005": 5.28031453671,
			"0.006": 4.63984925587,
			"0.007": 4.30487448739,
			"0.008": 3.71796032205,
			"0.009": 4.98594810415,
			"0.01": 4.00302301122,
			"0.011": 4.09521974662,
			"0.012": 6.3411948885,
			"0.013": 3.31485656114,
			"0.014": 2.22407975412,
			"0.015": 0.587038383546,
			"0.016": 0.0,
			"0.017": 0.0,
			"0.018": 0.0,
			"0.019": 0.0,
			"0.02": 0.0,
			"0.021": 0.0,
			"0.022": 0.0,
			"0.023": 0.0,
			"0.024": 0.0,
			"0.025": 0.0
		}
	}
}
