{
	 "smiles": "CC(=O)C1=C(F)C=CC(F)=C1C(O)=O", 
	 "Tm": 359.15, 
	 "num_atms": 20, 
	 "gaussian": { 
		 "optdone": 1, 
		 "sigma_profile": "yes", 
		 "theory": "DFT", 
		 "functional": "B3LYP", 
		 "basiset": "6-31G**", 
		 "properties": { 
			 "R2extent": 3253.2759, 
			 "electric_dipole_moment_norm": 5.73227322883, 
			 "electric_quadrupole_moment_norm": 13.5872629367, 
			 "total_energy": -771.912854708, 
			 "HOMO_LUMO_gap": 0.17924, 
			 "cosmo_polarized_energy": -15.27, 
			 "cosmo_cavitation_energy": 25.83, 
			 "cosmo_dispersion_energy": -18.4, 
			 "cosmo_repulsion_energy": 1.4, 
			 "cosmo_total_nonelectrostatic_energy": 8.82, 
			 "SMD_solvation_energy": 7.12 
		},
		"coords": [
			{
				"x": 1.7432963254,
				"y": -3.3965790943,
				"z": 0.5446810609,
				"element": "C" 
			},
			{
				"x": 1.2950855269,
				"y": -2.4768826152,
				"z": 1.6518964981,
				"element": "C" 
			},
			{
				"x": 1.1803853719,
				"y": -2.8072108357,
				"z": 2.8114343097,
				"element": "O" 
			},
			{
				"x": 1.1174662227,
				"y": -0.9959887238,
				"z": 1.2952298778,
				"element": "C" 
			},
			{
				"x": 2.2408988008,
				"y": -0.1787649819,
				"z": 1.3808399044,
				"element": "C" 
			},
			{
				"x": 3.4302268713,
				"y": -0.752675086,
				"z": 1.6599508684,
				"element": "F" 
			},
			{
				"x": 2.1971712166,
				"y": 1.196194881,
				"z": 1.1826151378,
				"element": "C" 
			},
			{
				"x": 0.9718937555,
				"y": 1.7905579331,
				"z": 0.8932991531,
				"element": "C" 
			},
			{
				"x": -0.1508578645,
				"y": 0.9830730505,
				"z": 0.8032916926,
				"element": "C" 
			},
			{
				"x": -1.3364130045,
				"y": 1.6025950653,
				"z": 0.5171847513,
				"element": "F" 
			},
			{
				"x": -0.124833821,
				"y": -0.4046238169,
				"z": 0.9885371564,
				"element": "C" 
			},
			{
				"x": -1.318175549,
				"y": -1.3115648233,
				"z": 0.8288168368,
				"element": "C" 
			},
			{
				"x": -2.5329547547,
				"y": -0.7527994491,
				"z": 0.7011103728,
				"element": "O" 
			},
			{
				"x": -1.1908117992,
				"y": -2.5160547557,
				"z": 0.8095235638,
				"element": "O" 
			},
			{
				"x": 1.0653441613,
				"y": -3.3237983271,
				"z": -0.3090341837,
				"element": "H" 
			},
			{
				"x": 1.7748655351,
				"y": -4.4229540762,
				"z": 0.9137365882,
				"element": "H" 
			},
			{
				"x": 2.7453570917,
				"y": -3.094418603,
				"z": 0.2161463578,
				"element": "H" 
			},
			{
				"x": 3.1076816413,
				"y": 1.7795011426,
				"z": 1.2618007115,
				"element": "H" 
			},
			{
				"x": 0.8762839844,
				"y": 2.8583882409,
				"z": 0.7344847918,
				"element": "H" 
			},
			{
				"x": -2.470209712,
				"y": 0.2153048748,
				"z": 0.7011545505,
				"element": "H" 
			}
		],
		 "valence_orbital": [ 
			{
				"type": "occ",
				"energy": -0.32666,
				"method": "rhf"
			},
			{
				"type": "occ",
				"energy": -0.29559,
				"method": "rhf"
			},
			{
				"type": "occ",
				"energy": -0.2905,
				"method": "rhf"
			},
			{
				"type": "occ",
				"energy": -0.27447,
				"method": "rhf"
			},
			{
				"type": "occ",
				"energy": -0.25409,
				"method": "rhf"
			},
			{
				"type": "unocc",
				"energy": -0.07485,
				"method": "rhf"
			},
			{
				"type": "unocc",
				"energy": -0.03252,
				"method": "rhf"
			},
			{
				"type": "unocc",
				"energy": -0.01818,
				"method": "rhf"
			},
			{
				"type": "unocc",
				"energy": 0.03471,
				"method": "rhf"
			},
			{
				"type": "unocc",
				"energy": 0.0531,
				"method": "rhf"
			}
		],
		"cosmo_sigma_profile": { 
			"-0.025": 0.0,
			"-0.024": 0.0,
			"-0.023": 0.0,
			"-0.022": 0.0,
			"-0.021": 0.0,
			"-0.02": 0.0,
			"-0.019": 0.0,
			"-0.018": 0.0,
			"-0.017": 0.0,
			"-0.016": 0.0,
			"-0.015": 0.0,
			"-0.014": 0.250438679651,
			"-0.013": 0.940329519015,
			"-0.012": 1.63529515742,
			"-0.011": 1.0257019391,
			"-0.01": 1.79679482361,
			"-0.009": 4.5807525615,
			"-0.008": 6.78168310664,
			"-0.007": 6.64128436006,
			"-0.006": 7.1753104923,
			"-0.005": 10.8921548418,
			"-0.004": 13.7705686061,
			"-0.003": 15.8183504573,
			"-0.002": 22.9028444228,
			"-0.001": 20.1134988853,
			"0.0": 12.8592584441,
			"0.001": 10.5487927347,
			"0.002": 10.2974639927,
			"0.003": 10.7355900509,
			"0.004": 5.10532035473,
			"0.005": 4.50074436107,
			"0.006": 3.92492095751,
			"0.007": 3.68276832804,
			"0.008": 5.87567313378,
			"0.009": 6.82901249099,
			"0.01": 7.75929591223,
			"0.011": 6.95003323987,
			"0.012": 4.07271827939,
			"0.013": 0.249977403382,
			"0.014": 0.0,
			"0.015": 0.0,
			"0.016": 0.0,
			"0.017": 0.0,
			"0.018": 0.0,
			"0.019": 0.0,
			"0.02": 0.0,
			"0.021": 0.0,
			"0.022": 0.0,
			"0.023": 0.0,
			"0.024": 0.0,
			"0.025": 0.0
		}
	}
}
