{
	 "smiles": "CC(C)C(C(O)=O)C1=CC=C(F)C=C1", 
	 "Tm": 333.15, 
	 "num_atms": 27, 
	 "gaussian": { 
		 "optdone": 1, 
		 "sigma_profile": "yes", 
		 "theory": "DFT", 
		 "functional": "B3LYP", 
		 "basiset": "6-31G**", 
		 "properties": { 
			 "R2extent": 3545.6358, 
			 "electric_dipole_moment_norm": 1.70685965738, 
			 "electric_quadrupole_moment_norm": 13.6327320373, 
			 "total_energy": -677.311441671, 
			 "HOMO_LUMO_gap": 0.22427, 
			 "cosmo_polarized_energy": -9.52, 
			 "cosmo_cavitation_energy": 30.1, 
			 "cosmo_dispersion_energy": -20.97, 
			 "cosmo_repulsion_energy": 1.64, 
			 "cosmo_total_nonelectrostatic_energy": 10.77, 
			 "SMD_solvation_energy": 6.81 
		},
		"coords": [
			{
				"x": 0.2563044604,
				"y": -3.4943429131,
				"z": -0.8872778125,
				"element": "C" 
			},
			{
				"x": 0.8856401919,
				"y": -2.2543670334,
				"z": -1.536233673,
				"element": "C" 
			},
			{
				"x": 2.2880950279,
				"y": -2.5653386847,
				"z": -2.0819061937,
				"element": "C" 
			},
			{
				"x": 0.9122134208,
				"y": -0.9636285558,
				"z": -0.6472285354,
				"element": "C" 
			},
			{
				"x": 1.9479019056,
				"y": -0.999866281,
				"z": 0.470457131,
				"element": "C" 
			},
			{
				"x": 1.790998378,
				"y": -2.0347945307,
				"z": 1.3397678764,
				"element": "O" 
			},
			{
				"x": 2.8474394779,
				"y": -0.1996761742,
				"z": 0.5979693486,
				"element": "O" 
			},
			{
				"x": -0.4694373899,
				"y": -0.5231594948,
				"z": -0.1678150364,
				"element": "C" 
			},
			{
				"x": -1.0763981774,
				"y": -1.0069916918,
				"z": 1.001441215,
				"element": "C" 
			},
			{
				"x": -2.3551360992,
				"y": -0.590645,
				"z": 1.374212093,
				"element": "C" 
			},
			{
				"x": -3.0308204739,
				"y": 0.3148754363,
				"z": 0.5659238732,
				"element": "C" 
			},
			{
				"x": -4.2676447388,
				"y": 0.7203249193,
				"z": 0.923018893,
				"element": "F" 
			},
			{
				"x": -2.4636152093,
				"y": 0.8181979584,
				"z": -0.5984845134,
				"element": "C" 
			},
			{
				"x": -1.1831218019,
				"y": 0.3955470402,
				"z": -0.9523374452,
				"element": "C" 
			},
			{
				"x": 0.1914855259,
				"y": -4.3009030765,
				"z": -1.6255100399,
				"element": "H" 
			},
			{
				"x": -0.7558884409,
				"y": -3.2928071385,
				"z": -0.5265639527,
				"element": "H" 
			},
			{
				"x": 0.8524292705,
				"y": -3.8545852503,
				"z": -0.0449174028,
				"element": "H" 
			},
			{
				"x": 0.2491865696,
				"y": -1.974931111,
				"z": -2.3874248347,
				"element": "H" 
			},
			{
				"x": 2.7363050712,
				"y": -1.693807918,
				"z": -2.5708736892,
				"element": "H" 
			},
			{
				"x": 2.2431448466,
				"y": -3.3770093324,
				"z": -2.8151161415,
				"element": "H" 
			},
			{
				"x": 2.9647178396,
				"y": -2.885043377,
				"z": -1.2810730447,
				"element": "H" 
			},
			{
				"x": 1.2894421564,
				"y": -0.1647334284,
				"z": -1.2925729278,
				"element": "H" 
			},
			{
				"x": 2.5007273266,
				"y": -1.9340930971,
				"z": 1.9975272392,
				"element": "H" 
			},
			{
				"x": -0.5445794046,
				"y": -1.7094020852,
				"z": 1.6326609652,
				"element": "H" 
			},
			{
				"x": -2.8281136633,
				"y": -0.9575803584,
				"z": 2.2788279056,
				"element": "H" 
			},
			{
				"x": -3.015834042,
				"y": 1.5300698824,
				"z": -1.2023979232,
				"element": "H" 
			},
			{
				"x": -0.7287420276,
				"y": 0.7919912957,
				"z": -1.8566733742,
				"element": "H" 
			}
		],
		 "valence_orbital": [ 
			{
				"type": "occ",
				"energy": -0.33203,
				"method": "rhf"
			},
			{
				"type": "occ",
				"energy": -0.3185,
				"method": "rhf"
			},
			{
				"type": "occ",
				"energy": -0.27846,
				"method": "rhf"
			},
			{
				"type": "occ",
				"energy": -0.2618,
				"method": "rhf"
			},
			{
				"type": "occ",
				"energy": -0.23957,
				"method": "rhf"
			},
			{
				"type": "unocc",
				"energy": -0.0153,
				"method": "rhf"
			},
			{
				"type": "unocc",
				"energy": -0.00861,
				"method": "rhf"
			},
			{
				"type": "unocc",
				"energy": 0.01242,
				"method": "rhf"
			},
			{
				"type": "unocc",
				"energy": 0.06321,
				"method": "rhf"
			},
			{
				"type": "unocc",
				"energy": 0.08898,
				"method": "rhf"
			}
		],
		"cosmo_sigma_profile": { 
			"-0.025": 0.0,
			"-0.024": 0.0,
			"-0.023": 0.0,
			"-0.022": 0.0,
			"-0.021": 0.0,
			"-0.02": 0.0,
			"-0.019": 0.0,
			"-0.018": 0.671641581305,
			"-0.017": 0.949703110299,
			"-0.016": 0.889271731782,
			"-0.015": 0.686969286879,
			"-0.014": 0.975425132864,
			"-0.013": 0.627838916872,
			"-0.012": 0.0496829292461,
			"-0.011": 1.09749578319,
			"-0.01": 0.604881442719,
			"-0.009": 0.584204773803,
			"-0.008": 0.60400507778,
			"-0.007": 5.08788014429,
			"-0.006": 8.77372345857,
			"-0.005": 9.25258445378,
			"-0.004": 10.8966069173,
			"-0.003": 18.3762969679,
			"-0.002": 20.4926733298,
			"-0.001": 21.1681559659,
			"0.0": 26.9788905053,
			"0.001": 29.6898579168,
			"0.002": 19.0844423513,
			"0.003": 15.0673587318,
			"0.004": 19.9802026992,
			"0.005": 7.98971376831,
			"0.006": 1.53019964517,
			"0.007": 1.12703651451,
			"0.008": 1.23607448698,
			"0.009": 1.51812361997,
			"0.01": 2.03106492212,
			"0.011": 4.02253429929,
			"0.012": 4.29222298715,
			"0.013": 0.704752275786,
			"0.014": 0.0,
			"0.015": 0.0,
			"0.016": 0.0,
			"0.017": 0.0,
			"0.018": 0.0,
			"0.019": 0.0,
			"0.02": 0.0,
			"0.021": 0.0,
			"0.022": 0.0,
			"0.023": 0.0,
			"0.024": 0.0,
			"0.025": 0.0
		}
	}
}
