{
	 "smiles": "NS(=O)(=O)C1=CC(NC(=O)C2=C(Cl)C=CC=C2)=CC=C1", 
	 "Tm": 367.65, 
	 "num_atms": 31, 
	 "gaussian": { 
		 "optdone": 1, 
		 "sigma_profile": "yes", 
		 "theory": "DFT", 
		 "functional": "B3LYP", 
		 "basiset": "6-31G**", 
		 "properties": { 
			 "R2extent": 9304.5794, 
			 "electric_dipole_moment_norm": 9.04833214079, 
			 "electric_quadrupole_moment_norm": 24.0738227407, 
			 "total_energy": -1695.51372392, 
			 "HOMO_LUMO_gap": 0.17592, 
			 "cosmo_polarized_energy": -24.99, 
			 "cosmo_cavitation_energy": 39.12, 
			 "cosmo_dispersion_energy": -28.64, 
			 "cosmo_repulsion_energy": 2.12, 
			 "cosmo_total_nonelectrostatic_energy": 12.61, 
			 "SMD_solvation_energy": 6.29 
		},
		"coords": [
			{
				"x": 1.8928647965,
				"y": -3.7969807775,
				"z": 3.4031180295,
				"element": "N" 
			},
			{
				"x": 0.52944693,
				"y": -4.1968235638,
				"z": 2.5028575578,
				"element": "S" 
			},
			{
				"x": -0.5925778379,
				"y": -3.5518488064,
				"z": 3.1800241297,
				"element": "O" 
			},
			{
				"x": 0.6040484957,
				"y": -5.6411782404,
				"z": 2.2872033749,
				"element": "O" 
			},
			{
				"x": 0.7327818743,
				"y": -3.4063621759,
				"z": 0.8940355702,
				"element": "C" 
			},
			{
				"x": 0.5083238567,
				"y": -2.0320987319,
				"z": 0.7962072605,
				"element": "C" 
			},
			{
				"x": 0.6909016092,
				"y": -1.4102037017,
				"z": -0.4474095032,
				"element": "C" 
			},
			{
				"x": 0.4928446293,
				"y": -0.0336874276,
				"z": -0.6661627378,
				"element": "N" 
			},
			{
				"x": 0.2659649399,
				"y": 0.9461575885,
				"z": 0.268273029,
				"element": "C" 
			},
			{
				"x": 0.2352216085,
				"y": 0.726619363,
				"z": 1.4744795722,
				"element": "O" 
			},
			{
				"x": 0.1263155854,
				"y": 2.3690455368,
				"z": -0.2378315338,
				"element": "C" 
			},
			{
				"x": -0.3190795751,
				"y": 2.8310441426,
				"z": -1.4895023998,
				"element": "C" 
			},
			{
				"x": -0.8644646451,
				"y": 1.7468980426,
				"z": -2.7806538031,
				"element": "Cl" 
			},
			{
				"x": -0.3966444103,
				"y": 4.1941257617,
				"z": -1.7807750761,
				"element": "C" 
			},
			{
				"x": -0.023842547,
				"y": 5.1328625135,
				"z": -0.8223838668,
				"element": "C" 
			},
			{
				"x": 0.4124223969,
				"y": 4.7059971481,
				"z": 0.4323908252,
				"element": "C" 
			},
			{
				"x": 0.4752116622,
				"y": 3.3467583603,
				"z": 0.7123669112,
				"element": "C" 
			},
			{
				"x": 1.0755210601,
				"y": -2.1857869827,
				"z": -1.556489127,
				"element": "C" 
			},
			{
				"x": 1.2782111373,
				"y": -3.5557416628,
				"z": -1.4313273779,
				"element": "C" 
			},
			{
				"x": 1.1132288891,
				"y": -4.1864799853,
				"z": -0.1964331741,
				"element": "C" 
			},
			{
				"x": 1.9508821665,
				"y": -2.8032265741,
				"z": 3.6035539068,
				"element": "H" 
			},
			{
				"x": 2.7484203589,
				"y": -4.1730800418,
				"z": 3.0065942296,
				"element": "H" 
			},
			{
				"x": 0.1846927602,
				"y": -1.453216103,
				"z": 1.6493636072,
				"element": "H" 
			},
			{
				"x": 0.5137923814,
				"y": 0.2546655331,
				"z": -1.6340195371,
				"element": "H" 
			},
			{
				"x": -0.756122438,
				"y": 4.5075518904,
				"z": -2.754347297,
				"element": "H" 
			},
			{
				"x": -0.0839226871,
				"y": 6.1909887137,
				"z": -1.0579768919,
				"element": "H" 
			},
			{
				"x": 0.69725101,
				"y": 5.4282093344,
				"z": 1.1907858178,
				"element": "H" 
			},
			{
				"x": 0.7897983641,
				"y": 2.9911009905,
				"z": 1.6868371878,
				"element": "H" 
			},
			{
				"x": 1.2135019867,
				"y": -1.7059726326,
				"z": -2.5223003753,
				"element": "H" 
			},
			{
				"x": 1.5655425949,
				"y": -4.1360474045,
				"z": -2.3027256796,
				"element": "H" 
			},
			{
				"x": 1.2553630468,
				"y": -5.2539901074,
				"z": -0.0756526289,
				"element": "H" 
			}
		],
		 "valence_orbital": [ 
			{
				"type": "occ",
				"energy": -0.28582,
				"method": "rhf"
			},
			{
				"type": "occ",
				"energy": -0.27286,
				"method": "rhf"
			},
			{
				"type": "occ",
				"energy": -0.27022,
				"method": "rhf"
			},
			{
				"type": "occ",
				"energy": -0.26761,
				"method": "rhf"
			},
			{
				"type": "occ",
				"energy": -0.24066,
				"method": "rhf"
			},
			{
				"type": "unocc",
				"energy": -0.06474,
				"method": "rhf"
			},
			{
				"type": "unocc",
				"energy": -0.0381,
				"method": "rhf"
			},
			{
				"type": "unocc",
				"energy": -0.0319,
				"method": "rhf"
			},
			{
				"type": "unocc",
				"energy": -0.01607,
				"method": "rhf"
			},
			{
				"type": "unocc",
				"energy": 0.00164,
				"method": "rhf"
			}
		],
		"cosmo_sigma_profile": { 
			"-0.025": 0.0,
			"-0.024": 0.0,
			"-0.023": 0.0,
			"-0.022": 0.0,
			"-0.021": 0.0,
			"-0.02": 0.0,
			"-0.019": 0.0,
			"-0.018": 0.0,
			"-0.017": 0.0,
			"-0.016": 0.147703895872,
			"-0.015": 2.35560376529,
			"-0.014": 2.35691683027,
			"-0.013": 3.1007451398,
			"-0.012": 4.1022493389,
			"-0.011": 4.12756075441,
			"-0.01": 3.73166070129,
			"-0.009": 3.43281529157,
			"-0.008": 5.68165408858,
			"-0.007": 13.525032659,
			"-0.006": 16.9500668362,
			"-0.005": 14.706142834,
			"-0.004": 12.8812624881,
			"-0.003": 14.8182253346,
			"-0.002": 18.3930911076,
			"-0.001": 20.2616540457,
			"0.0": 23.2722001358,
			"0.001": 27.1104890654,
			"0.002": 31.9801411303,
			"0.003": 26.4661013136,
			"0.004": 8.37258066379,
			"0.005": 5.02722026607,
			"0.006": 5.2133575616,
			"0.007": 6.43461727577,
			"0.008": 5.57932962933,
			"0.009": 5.60480886519,
			"0.01": 10.6335846885,
			"0.011": 12.8577187068,
			"0.012": 6.87903637124,
			"0.013": 0.545900843484,
			"0.014": 0.0,
			"0.015": 0.0,
			"0.016": 0.0,
			"0.017": 0.0,
			"0.018": 0.0,
			"0.019": 0.0,
			"0.02": 0.0,
			"0.021": 0.0,
			"0.022": 0.0,
			"0.023": 0.0,
			"0.024": 0.0,
			"0.0": 0.0
		}
	}
}
