{
	 "smiles": "OC(=O)CC1CCOCC1", 
	 "Tm": 333.15, 
	 "num_atms": 22, 
	 "gaussian": { 
		 "optdone": 1, 
		 "sigma_profile": "yes", 
		 "theory": "DFT", 
		 "functional": "B3LYP", 
		 "basiset": "6-31G**", 
		 "properties": { 
			 "R2extent": 1900.3934, 
			 "electric_dipole_moment_norm": 2.01359284862, 
			 "electric_quadrupole_moment_norm": 8.62528976905, 
			 "total_energy": -499.661990252, 
			 "HOMO_LUMO_gap": 0.25521, 
			 "cosmo_polarized_energy": -10.91, 
			 "cosmo_cavitation_energy": 24.03, 
			 "cosmo_dispersion_energy": -17.68, 
			 "cosmo_repulsion_energy": 1.46, 
			 "cosmo_total_nonelectrostatic_energy": 7.8, 
			 "SMD_solvation_energy": 4.76 
		},
		"coords": [
			{
				"x": 1.732592361,
				"y": -2.357126854,
				"z": 0.615617633,
				"element": "O" 
			},
			{
				"x": 0.3961473969,
				"y": -2.298739862,
				"z": 0.3768188734,
				"element": "C" 
			},
			{
				"x": -0.2213748816,
				"y": -3.2395740584,
				"z": -0.0710831708,
				"element": "O" 
			},
			{
				"x": -0.1729469601,
				"y": -0.9400213732,
				"z": 0.7180129398,
				"element": "C" 
			},
			{
				"x": 0.3350875358,
				"y": 0.1783655769,
				"z": -0.2172438062,
				"element": "C" 
			},
			{
				"x": -0.0560010862,
				"y": -0.0569619176,
				"z": -1.6878673309,
				"element": "C" 
			},
			{
				"x": 0.3696740618,
				"y": 1.1308244345,
				"z": -2.5554294775,
				"element": "C" 
			},
			{
				"x": -0.1750667613,
				"y": 2.3551543807,
				"z": -2.0815131514,
				"element": "O" 
			},
			{
				"x": 0.2467579864,
				"y": 2.6441654515,
				"z": -0.7564163573,
				"element": "C" 
			},
			{
				"x": -0.1880255037,
				"y": 1.5552167336,
				"z": 0.2290400583,
				"element": "C" 
			},
			{
				"x": 2.0122373748,
				"y": -3.2503100403,
				"z": 0.3530436809,
				"element": "H" 
			},
			{
				"x": 0.1050634655,
				"y": -0.6988432837,
				"z": 1.7509079818,
				"element": "H" 
			},
			{
				"x": -1.2618642336,
				"y": -1.0202927567,
				"z": 0.662680942,
				"element": "H" 
			},
			{
				"x": 1.4324229363,
				"y": 0.1942103573,
				"z": -0.1530215222,
				"element": "H" 
			},
			{
				"x": 0.3986809014,
				"y": -0.9771168925,
				"z": -2.0747827885,
				"element": "H" 
			},
			{
				"x": -1.144339815,
				"y": -0.1797915466,
				"z": -1.76149084,
				"element": "H" 
			},
			{
				"x": 0.0129261735,
				"y": 1.0155764923,
				"z": -3.5831431744,
				"element": "H" 
			},
			{
				"x": 1.4720148587,
				"y": 1.1961561705,
				"z": -2.58567438,
				"element": "H" 
			},
			{
				"x": -0.1968581886,
				"y": 3.6101802933,
				"z": -0.4973827906,
				"element": "H" 
			},
			{
				"x": 1.3451969927,
				"y": 2.7577016496,
				"z": -0.7259558799,
				"element": "H" 
			},
			{
				"x": -1.2849526135,
				"y": 1.5352260782,
				"z": 0.2722879222,
				"element": "H" 
			},
			{
				"x": 0.1746279989,
				"y": 1.7999009666,
				"z": 1.2356946383,
				"element": "H" 
			}
		],
		 "valence_orbital": [ 
			{
				"type": "occ",
				"energy": -0.32557,
				"method": "rhf"
			},
			{
				"type": "occ",
				"energy": -0.31778,
				"method": "rhf"
			},
			{
				"type": "occ",
				"energy": -0.30095,
				"method": "rhf"
			},
			{
				"type": "occ",
				"energy": -0.27281,
				"method": "rhf"
			},
			{
				"type": "occ",
				"energy": -0.24969,
				"method": "rhf"
			},
			{
				"type": "unocc",
				"energy": 0.00552,
				"method": "rhf"
			},
			{
				"type": "unocc",
				"energy": 0.07171,
				"method": "rhf"
			},
			{
				"type": "unocc",
				"energy": 0.09365,
				"method": "rhf"
			},
			{
				"type": "unocc",
				"energy": 0.10506,
				"method": "rhf"
			},
			{
				"type": "unocc",
				"energy": 0.11565,
				"method": "rhf"
			}
		],
		"cosmo_sigma_profile": { 
			"-0.025": 0.0,
			"-0.024": 0.0,
			"-0.023": 0.0,
			"-0.022": 0.0,
			"-0.021": 0.0,
			"-0.02": 0.0,
			"-0.019": 0.0,
			"-0.018": 0.425473678336,
			"-0.017": 0.906411035925,
			"-0.016": 0.991260518289,
			"-0.015": 0.794103544592,
			"-0.014": 0.689548692633,
			"-0.013": 0.909293032039,
			"-0.012": 0.4367152681,
			"-0.011": 0.370206978016,
			"-0.01": 1.02658424064,
			"-0.009": 0.569631417797,
			"-0.008": 0.538672233416,
			"-0.007": 0.854768076148,
			"-0.006": 2.36387565854,
			"-0.005": 6.57729470518,
			"-0.004": 17.0670113935,
			"-0.003": 36.3018389827,
			"-0.002": 28.4503590097,
			"-0.001": 16.8551629115,
			"0.0": 11.0163350672,
			"0.001": 6.07111590978,
			"0.002": 5.34400551548,
			"0.003": 5.28226788983,
			"0.004": 4.10864072996,
			"0.005": 3.76727761443,
			"0.006": 3.58615012681,
			"0.007": 4.35098425799,
			"0.008": 3.3184948601,
			"0.009": 3.97138245659,
			"0.01": 3.56227403143,
			"0.011": 4.12084264317,
			"0.012": 6.74524453773,
			"0.013": 3.21581124417,
			"0.014": 1.32829638223,
			"0.015": 0.0,
			"0.016": 0.0,
			"0.017": 0.0,
			"0.018": 0.0,
			"0.019": 0.0,
			"0.02": 0.0,
			"0.021": 0.0,
			"0.022": 0.0,
			"0.023": 0.0,
			"0.024": 0.0,
			"0.025": 0.0
		}
	}
}
