{
	 "smiles": "CN1C=NN=C1C1=CC(O)=CN=C1", 
	 "Tm": 540.15, 
	 "num_atms": 21, 
	 "gaussian": { 
		 "optdone": 1, 
		 "sigma_profile": "yes", 
		 "theory": "DFT", 
		 "functional": "B3LYP", 
		 "basiset": "6-31G**", 
		 "properties": { 
			 "R2extent": 3293.7714, 
			 "electric_dipole_moment_norm": 3.33464816885, 
			 "electric_quadrupole_moment_norm": 20.8488234222, 
			 "total_energy": -603.866550322, 
			 "HOMO_LUMO_gap": 0.18857, 
			 "cosmo_polarized_energy": -21.92, 
			 "cosmo_cavitation_energy": 25.6, 
			 "cosmo_dispersion_energy": -18.99, 
			 "cosmo_repulsion_energy": 1.47, 
			 "cosmo_total_nonelectrostatic_energy": 8.08, 
			 "SMD_solvation_energy": 1.95 
		},
		"coords": [
			{
				"x": -2.1757955099,
				"y": -0.6197800714,
				"z": 0.919456326,
				"element": "C" 
			},
			{
				"x": -2.0551510358,
				"y": -1.1847123287,
				"z": -0.4183247745,
				"element": "N" 
			},
			{
				"x": -3.0737023566,
				"y": -1.7468821887,
				"z": -1.1402824998,
				"element": "C" 
			},
			{
				"x": -2.6396581275,
				"y": -2.2387471274,
				"z": -2.2747593433,
				"element": "N" 
			},
			{
				"x": -1.2886937537,
				"y": -2.0023536404,
				"z": -2.3207437528,
				"element": "N" 
			},
			{
				"x": -0.9413972746,
				"y": -1.3705868336,
				"z": -1.211654392,
				"element": "C" 
			},
			{
				"x": 0.4413344981,
				"y": -0.9822969054,
				"z": -0.910041415,
				"element": "C" 
			},
			{
				"x": 1.4756974793,
				"y": -1.7014080902,
				"z": -1.5300624204,
				"element": "C" 
			},
			{
				"x": 2.7937458144,
				"y": -1.336607884,
				"z": -1.2802135622,
				"element": "C" 
			},
			{
				"x": 3.8690966448,
				"y": -1.9642855258,
				"z": -1.8282589635,
				"element": "O" 
			},
			{
				"x": 3.0415762336,
				"y": -0.2658593065,
				"z": -0.4043587386,
				"element": "C" 
			},
			{
				"x": 2.0675743444,
				"y": 0.4305818928,
				"z": 0.176798468,
				"element": "N" 
			},
			{
				"x": 0.7985881127,
				"y": 0.0869153458,
				"z": -0.0754722727,
				"element": "C" 
			},
			{
				"x": -3.087028228,
				"y": -1.0059001022,
				"z": 1.3798985913,
				"element": "H" 
			},
			{
				"x": -1.3213919154,
				"y": -0.91688718,
				"z": 1.5299833502,
				"element": "H" 
			},
			{
				"x": -2.2321543885,
				"y": 0.4723475966,
				"z": 0.8898260702,
				"element": "H" 
			},
			{
				"x": -4.0958547602,
				"y": -1.7699287757,
				"z": -0.7886760706,
				"element": "H" 
			},
			{
				"x": 1.2235840493,
				"y": -2.5205084532,
				"z": -2.1977580027,
				"element": "H" 
			},
			{
				"x": 3.5653587286,
				"y": -2.6631884527,
				"z": -2.4229505489,
				"element": "H" 
			},
			{
				"x": 4.0689920409,
				"y": 0.0196989843,
				"z": -0.1898511129,
				"element": "H" 
			},
			{
				"x": 0.042679404,
				"y": 0.7120890466,
				"z": 0.3898450642,
				"element": "H" 
			}
		],
		 "valence_orbital": [ 
			{
				"type": "occ",
				"energy": -0.29538,
				"method": "rhf"
			},
			{
				"type": "occ",
				"energy": -0.26481,
				"method": "rhf"
			},
			{
				"type": "occ",
				"energy": -0.25643,
				"method": "rhf"
			},
			{
				"type": "occ",
				"energy": -0.25241,
				"method": "rhf"
			},
			{
				"type": "occ",
				"energy": -0.23486,
				"method": "rhf"
			},
			{
				"type": "unocc",
				"energy": -0.04629,
				"method": "rhf"
			},
			{
				"type": "unocc",
				"energy": -0.01762,
				"method": "rhf"
			},
			{
				"type": "unocc",
				"energy": 0.02579,
				"method": "rhf"
			},
			{
				"type": "unocc",
				"energy": 0.05304,
				"method": "rhf"
			},
			{
				"type": "unocc",
				"energy": 0.0609,
				"method": "rhf"
			}
		],
		"cosmo_sigma_profile": { 
			"-0.025": 0.0,
			"-0.024": 0.0,
			"-0.023": 0.0,
			"-0.022": 0.0,
			"-0.021": 0.0,
			"-0.02": 0.0,
			"-0.019": 0.162657038737,
			"-0.018": 1.28508988092,
			"-0.017": 1.32153112959,
			"-0.016": 1.03470192248,
			"-0.015": 1.08929928671,
			"-0.014": 0.97797860658,
			"-0.013": 1.28296145794,
			"-0.012": 0.848984562678,
			"-0.011": 1.64364385678,
			"-0.01": 4.32272280254,
			"-0.009": 4.46260337556,
			"-0.008": 7.03591797374,
			"-0.007": 11.1014656252,
			"-0.006": 13.8581273391,
			"-0.005": 12.1240631005,
			"-0.004": 13.8179385676,
			"-0.003": 7.4164676404,
			"-0.002": 7.55818797618,
			"-0.001": 10.6692507927,
			"0.0": 11.7528557684,
			"0.001": 17.2209277795,
			"0.002": 10.5082568822,
			"0.003": 6.41773894886,
			"0.004": 5.91241489748,
			"0.005": 5.2237334469,
			"0.006": 4.51773295931,
			"0.007": 5.09017458771,
			"0.008": 5.23335530148,
			"0.009": 4.49210084339,
			"0.01": 4.3193140432,
			"0.011": 3.83407178005,
			"0.012": 4.32588429284,
			"0.013": 4.04503008916,
			"0.014": 4.37575670774,
			"0.015": 2.94117216001,
			"0.016": 2.70220602596,
			"0.017": 0.578322123923,
			"0.018": 0.0,
			"0.019": 0.0,
			"0.02": 0.0,
			"0.021": 0.0,
			"0.022": 0.0,
			"0.023": 0.0,
			"0.024": 0.0,
			"0.025": 0.0
		}
	}
}
