{
	 "smiles": "COC(CN1CCN(CC(O)C(OC)C2=CC=CC=C2)CC1)C1=CC=CC=C1", 
	 "Tm": 356.15, 
	 "num_atms": 60, 
	 "gaussian": { 
		 "optdone": 1, 
		 "sigma_profile": "yes", 
		 "theory": "DFT", 
		 "functional": "B3LYP", 
		 "basiset": "6-31G**", 
		 "properties": { 
			 "R2extent": 15062.1848, 
			 "electric_dipole_moment_norm": 2.02815584707, 
			 "electric_quadrupole_moment_norm": 17.6847079029, 
			 "total_energy": -1230.84638181, 
			 "HOMO_LUMO_gap": 0.18395, 
			 "cosmo_polarized_energy": -15.78, 
			 "cosmo_cavitation_energy": 59.37, 
			 "cosmo_dispersion_energy": -37.08, 
			 "cosmo_repulsion_energy": 2.82, 
			 "cosmo_total_nonelectrostatic_energy": 25.11, 
			 "SMD_solvation_energy": 7.54 
		},
		"coords": [
			{
				"x": -0.3644979768,
				"y": -3.0384785308,
				"z": 0.6386130846,
				"element": "C" 
			},
			{
				"x": -1.2010531543,
				"y": -1.9190288035,
				"z": 0.8655206591,
				"element": "O" 
			},
			{
				"x": -1.8593837556,
				"y": -1.447921836,
				"z": -0.3068367634,
				"element": "C" 
			},
			{
				"x": -2.361043221,
				"y": -0.0212238095,
				"z": -0.0187589835,
				"element": "C" 
			},
			{
				"x": -1.3015834328,
				"y": 0.9736871035,
				"z": 0.0253932689,
				"element": "N" 
			},
			{
				"x": -1.740876027,
				"y": 2.3258073708,
				"z": -0.2932502549,
				"element": "C" 
			},
			{
				"x": -0.5245913956,
				"y": 3.2147910268,
				"z": -0.5919885231,
				"element": "C" 
			},
			{
				"x": 0.5732512838,
				"y": 2.9735287354,
				"z": 0.3557485461,
				"element": "N" 
			},
			{
				"x": 1.4169908238,
				"y": 4.137633832,
				"z": 0.573102986,
				"element": "C" 
			},
			{
				"x": 2.3217646467,
				"y": 4.4777869185,
				"z": -0.6309317913,
				"element": "C" 
			},
			{
				"x": 2.6958855319,
				"y": 5.8494295616,
				"z": -0.5917174429,
				"element": "O" 
			},
			{
				"x": 3.6187111878,
				"y": 3.6364962151,
				"z": -0.7306796046,
				"element": "C" 
			},
			{
				"x": 4.3921606323,
				"y": 4.0098373403,
				"z": 0.4138114113,
				"element": "O" 
			},
			{
				"x": 5.7897230268,
				"y": 3.8163667241,
				"z": 0.2598446111,
				"element": "C" 
			},
			{
				"x": 3.4344831535,
				"y": 2.1334194308,
				"z": -0.8518249701,
				"element": "C" 
			},
			{
				"x": 3.1332632231,
				"y": 1.5702443713,
				"z": -2.0980158896,
				"element": "C" 
			},
			{
				"x": 2.9543511035,
				"y": 0.1937323183,
				"z": -2.2340336189,
				"element": "C" 
			},
			{
				"x": 3.0949657637,
				"y": -0.6429260301,
				"z": -1.1250033828,
				"element": "C" 
			},
			{
				"x": 3.4126094453,
				"y": -0.0913208233,
				"z": 0.1179642511,
				"element": "C" 
			},
			{
				"x": 3.5787778756,
				"y": 1.2875184242,
				"z": 0.2536349237,
				"element": "C" 
			},
			{
				"x": 0.1152152989,
				"y": 2.3190076253,
				"z": 1.5733198242,
				"element": "C" 
			},
			{
				"x": -0.4757460273,
				"y": 0.9388723324,
				"z": 1.2478347367,
				"element": "C" 
			},
			{
				"x": -3.0103111742,
				"y": -2.3589444254,
				"z": -0.7152431967,
				"element": "C" 
			},
			{
				"x": -3.3265372254,
				"y": -2.5481333231,
				"z": -2.0660206495,
				"element": "C" 
			},
			{
				"x": -4.4160128235,
				"y": -3.336498451,
				"z": -2.4397324696,
				"element": "C" 
			},
			{
				"x": -5.2007931036,
				"y": -3.9522923715,
				"z": -1.4626020384,
				"element": "C" 
			},
			{
				"x": -4.8883861854,
				"y": -3.7752573952,
				"z": -0.1129809602,
				"element": "C" 
			},
			{
				"x": -3.8011007476,
				"y": -2.9829844856,
				"z": 0.2581363548,
				"element": "C" 
			},
			{
				"x": -0.924996824,
				"y": -3.9014787672,
				"z": 0.2532807595,
				"element": "H" 
			},
			{
				"x": 0.0798738702,
				"y": -3.3059827911,
				"z": 1.6005876272,
				"element": "H" 
			},
			{
				"x": 0.441519833,
				"y": -2.798173237,
				"z": -0.0714641869,
				"element": "H" 
			},
			{
				"x": -1.1366049805,
				"y": -1.3784137363,
				"z": -1.1351281902,
				"element": "H" 
			},
			{
				"x": -2.964366691,
				"y": -0.0558286993,
				"z": 0.9098445095,
				"element": "H" 
			},
			{
				"x": -3.0438467665,
				"y": 0.2472430131,
				"z": -0.831576908,
				"element": "H" 
			},
			{
				"x": -2.3570538193,
				"y": 2.779516137,
				"z": 0.5074164348,
				"element": "H" 
			},
			{
				"x": -2.3741305509,
				"y": 2.29397499,
				"z": -1.1861778949,
				"element": "H" 
			},
			{
				"x": -0.8532179774,
				"y": 4.2702658878,
				"z": -0.5657927611,
				"element": "H" 
			},
			{
				"x": -0.1749366737,
				"y": 3.0064780145,
				"z": -1.6112831252,
				"element": "H" 
			},
			{
				"x": 2.051575614,
				"y": 3.9582282379,
				"z": 1.4478320273,
				"element": "H" 
			},
			{
				"x": 0.8290535518,
				"y": 5.0516143754,
				"z": 0.7819772491,
				"element": "H" 
			},
			{
				"x": 1.75867089,
				"y": 4.3407445098,
				"z": -1.5597549805,
				"element": "H" 
			},
			{
				"x": 3.3931523877,
				"y": 5.8975943385,
				"z": 0.0803355558,
				"element": "H" 
			},
			{
				"x": 4.1337806381,
				"y": 4.0002901901,
				"z": -1.6342743194,
				"element": "H" 
			},
			{
				"x": 6.0384163382,
				"y": 2.759715645,
				"z": 0.098904843,
				"element": "H" 
			},
			{
				"x": 6.2630724766,
				"y": 4.1575091556,
				"z": 1.1837327198,
				"element": "H" 
			},
			{
				"x": 6.1831390401,
				"y": 4.403128048,
				"z": -0.583147453,
				"element": "H" 
			},
			{
				"x": 3.0405476718,
				"y": 2.2140330242,
				"z": -2.9702600169,
				"element": "H" 
			},
			{
				"x": 2.7175501271,
				"y": -0.2264589806,
				"z": -3.2076014055,
				"element": "H" 
			},
			{
				"x": 2.9707987616,
				"y": -1.716995895,
				"z": -1.2315438994,
				"element": "H" 
			},
			{
				"x": 3.5343199533,
				"y": -0.7362906888,
				"z": 0.9840539652,
				"element": "H" 
			},
			{
				"x": 3.8266212721,
				"y": 1.7185917033,
				"z": 1.2182639287,
				"element": "H" 
			},
			{
				"x": -0.6158807734,
				"y": 2.9307527763,
				"z": 2.1377997504,
				"element": "H" 
			},
			{
				"x": 0.9737982041,
				"y": 2.1769323939,
				"z": 2.2378297998,
				"element": "H" 
			},
			{
				"x": -1.0640989795,
				"y": 0.5947377523,
				"z": 2.1152757285,
				"element": "H" 
			},
			{
				"x": 0.3356214366,
				"y": 0.2203009182,
				"z": 1.1051481668,
				"element": "H" 
			},
			{
				"x": -2.7133230778,
				"y": -2.0759126895,
				"z": -2.8306999375,
				"element": "H" 
			},
			{
				"x": -4.6471584217,
				"y": -3.4760340302,
				"z": -3.4922159123,
				"element": "H" 
			},
			{
				"x": -6.0464524347,
				"y": -4.5701192416,
				"z": -1.7512340343,
				"element": "H" 
			},
			{
				"x": -5.4921741817,
				"y": -4.2558156422,
				"z": 0.6520930067,
				"element": "H" 
			},
			{
				"x": -3.5451066606,
				"y": -2.8512957573,
				"z": 1.3049748351,
				"element": "H" 
			}
		],
		 "valence_orbital": [ 
			{
				"type": "occ",
				"energy": -0.24539,
				"method": "rhf"
			},
			{
				"type": "occ",
				"energy": -0.2406,
				"method": "rhf"
			},
			{
				"type": "occ",
				"energy": -0.23805,
				"method": "rhf"
			},
			{
				"type": "occ",
				"energy": -0.20345,
				"method": "rhf"
			},
			{
				"type": "occ",
				"energy": -0.18459,
				"method": "rhf"
			},
			{
				"type": "unocc",
				"energy": -0.00064,
				"method": "rhf"
			},
			{
				"type": "unocc",
				"energy": 9e-05,
				"method": "rhf"
			},
			{
				"type": "unocc",
				"energy": 0.00118,
				"method": "rhf"
			},
			{
				"type": "unocc",
				"energy": 0.00224,
				"method": "rhf"
			},
			{
				"type": "unocc",
				"energy": 0.07864,
				"method": "rhf"
			}
		],
		"cosmo_sigma_profile": { 
			"-0.025": 0.0,
			"-0.024": 0.0,
			"-0.023": 0.0,
			"-0.022": 0.0,
			"-0.021": 0.0,
			"-0.02": 0.0,
			"-0.019": 0.0,
			"-0.018": 0.0,
			"-0.017": 0.0,
			"-0.016": 0.0,
			"-0.015": 0.0,
			"-0.014": 0.0,
			"-0.013": 0.0,
			"-0.012": 0.121284158691,
			"-0.011": 0.634961023675,
			"-0.01": 0.353335125269,
			"-0.009": 0.220879265692,
			"-0.008": 0.721422111826,
			"-0.007": 0.845777481587,
			"-0.006": 6.43315765544,
			"-0.005": 29.0286448776,
			"-0.004": 42.5776348316,
			"-0.003": 53.5503496558,
			"-0.002": 64.5552626964,
			"-0.001": 65.3212036624,
			"0.0": 41.7917975117,
			"0.001": 27.9528372946,
			"0.002": 21.3718716133,
			"0.003": 21.763407733,
			"0.004": 18.9428786884,
			"0.005": 17.6854131709,
			"0.006": 16.347931218,
			"0.007": 7.21292212709,
			"0.008": 4.69734708651,
			"0.009": 4.46912829498,
			"0.01": 3.28397436152,
			"0.011": 3.11411283758,
			"0.012": 2.89346842856,
			"0.013": 3.3339384668,
			"0.014": 3.25420289999,
			"0.015": 0.956134871165,
			"0.016": 0.0,
			"0.017": 0.0,
			"0.018": 0.0,
			"0.019": 0.0,
			"0.02": 0.0,
			"0.021": 0.0,
			"0.022": 0.0,
			"0.023": 0.0,
			"0.024": 0.0,
			"0.025": 0.0
		}
	}
}
