{
	 "smiles": "CCC1=CC=CC(CC)=C1NC1=NN=C(S)S1", 
	 "Tm": 439.15, 
	 "num_atms": 32, 
	 "gaussian": { 
		 "optdone": 1, 
		 "sigma_profile": "yes", 
		 "theory": "DFT", 
		 "functional": "B3LYP", 
		 "basiset": "6-31G**", 
		 "properties": { 
			 "R2extent": 6432.6246, 
			 "electric_dipole_moment_norm": 4.29417592327, 
			 "electric_quadrupole_moment_norm": 19.3671641628, 
			 "total_energy": -1426.92001616, 
			 "HOMO_LUMO_gap": 0.1854, 
			 "cosmo_polarized_energy": -16.77, 
			 "cosmo_cavitation_energy": 38.43, 
			 "cosmo_dispersion_energy": -27.12, 
			 "cosmo_repulsion_energy": 2.06, 
			 "cosmo_total_nonelectrostatic_energy": 13.37, 
			 "SMD_solvation_energy": 4.09 
		},
		"coords": [
			{
				"x": -1.6238174015,
				"y": 0.5492711619,
				"z": -3.1187268239,
				"element": "C" 
			},
			{
				"x": -0.1868813957,
				"y": 0.8558488734,
				"z": -2.6590456675,
				"element": "C" 
			},
			{
				"x": -0.1098998983,
				"y": 1.3658052325,
				"z": -1.2350157445,
				"element": "C" 
			},
			{
				"x": 0.0567991557,
				"y": 2.7345899246,
				"z": -0.995183902,
				"element": "C" 
			},
			{
				"x": 0.0740674678,
				"y": 3.2484340724,
				"z": 0.2998540209,
				"element": "C" 
			},
			{
				"x": -0.0668676789,
				"y": 2.3895605849,
				"z": 1.3860778917,
				"element": "C" 
			},
			{
				"x": -0.2161212949,
				"y": 1.0103029625,
				"z": 1.1978467668,
				"element": "C" 
			},
			{
				"x": -0.3664610345,
				"y": 0.0991038275,
				"z": 2.3996005343,
				"element": "C" 
			},
			{
				"x": -1.8329498564,
				"y": -0.1572885688,
				"z": 2.7971559955,
				"element": "C" 
			},
			{
				"x": -0.2394736776,
				"y": 0.5149618963,
				"z": -0.1202385458,
				"element": "C" 
			},
			{
				"x": -0.4468716739,
				"y": -0.8952220923,
				"z": -0.3216161499,
				"element": "N" 
			},
			{
				"x": 0.5428965859,
				"y": -1.7611613436,
				"z": -0.6982783189,
				"element": "C" 
			},
			{
				"x": 1.7435629143,
				"y": -1.404426418,
				"z": -1.0838952885,
				"element": "N" 
			},
			{
				"x": 2.5088893499,
				"y": -2.4636984918,
				"z": -1.4829402999,
				"element": "N" 
			},
			{
				"x": 1.9170767477,
				"y": -3.6125094852,
				"z": -1.3927138871,
				"element": "C" 
			},
			{
				"x": 2.7424875673,
				"y": -5.1455698315,
				"z": -1.7083034997,
				"element": "S" 
			},
			{
				"x": 0.2550742511,
				"y": -3.5052480196,
				"z": -0.7688279388,
				"element": "S" 
			},
			{
				"x": -2.2561039312,
				"y": 1.4411467631,
				"z": -3.0567408432,
				"element": "H" 
			},
			{
				"x": -1.6302184784,
				"y": 0.2018051543,
				"z": -4.1571201989,
				"element": "H" 
			},
			{
				"x": -2.0794353074,
				"y": -0.2298915422,
				"z": -2.500648145,
				"element": "H" 
			},
			{
				"x": 0.4404881153,
				"y": -0.0325621834,
				"z": -2.7707894552,
				"element": "H" 
			},
			{
				"x": 0.2431632234,
				"y": 1.6177198301,
				"z": -3.3187437797,
				"element": "H" 
			},
			{
				"x": 0.1678634007,
				"y": 3.4040260977,
				"z": -1.8441013875,
				"element": "H" 
			},
			{
				"x": 0.2027520238,
				"y": 4.3148569223,
				"z": 0.4611106159,
				"element": "H" 
			},
			{
				"x": -0.0433390737,
				"y": 2.7840512619,
				"z": 2.3987596966,
				"element": "H" 
			},
			{
				"x": 0.1510822448,
				"y": 0.5554649059,
				"z": 3.2502074005,
				"element": "H" 
			},
			{
				"x": 0.1371777666,
				"y": -0.8557230479,
				"z": 2.2131429783,
				"element": "H" 
			},
			{
				"x": -1.8923107572,
				"y": -0.8057181588,
				"z": 3.6771861533,
				"element": "H" 
			},
			{
				"x": -2.4027977597,
				"y": -0.6383843706,
				"z": 1.9927475434,
				"element": "H" 
			},
			{
				"x": -2.3428878114,
				"y": 0.7825103869,
				"z": 3.0302684316,
				"element": "H" 
			},
			{
				"x": -1.2106556638,
				"y": -1.306635484,
				"z": 0.1941305933,
				"element": "H" 
			},
			{
				"x": 1.8423118804,
				"y": -5.6332208205,
				"z": -2.5887587461,
				"element": "H" 
			}
		],
		 "valence_orbital": [ 
			{
				"type": "occ",
				"energy": -0.27381,
				"method": "rhf"
			},
			{
				"type": "occ",
				"energy": -0.26349,
				"method": "rhf"
			},
			{
				"type": "occ",
				"energy": -0.24877,
				"method": "rhf"
			},
			{
				"type": "occ",
				"energy": -0.2417,
				"method": "rhf"
			},
			{
				"type": "occ",
				"energy": -0.22212,
				"method": "rhf"
			},
			{
				"type": "unocc",
				"energy": -0.03672,
				"method": "rhf"
			},
			{
				"type": "unocc",
				"energy": -0.0178,
				"method": "rhf"
			},
			{
				"type": "unocc",
				"energy": -0.00699,
				"method": "rhf"
			},
			{
				"type": "unocc",
				"energy": -0.00344,
				"method": "rhf"
			},
			{
				"type": "unocc",
				"energy": 0.02463,
				"method": "rhf"
			}
		],
		"cosmo_sigma_profile": { 
			"-0.025": 0.0,
			"-0.024": 0.0,
			"-0.023": 0.0,
			"-0.022": 0.0,
			"-0.021": 0.0,
			"-0.02": 0.0,
			"-0.019": 0.0,
			"-0.018": 0.0,
			"-0.017": 0.0,
			"-0.016": 0.0,
			"-0.015": 0.444706022945,
			"-0.014": 1.25105542403,
			"-0.013": 1.22609377428,
			"-0.012": 2.2812441652,
			"-0.011": 4.49417159084,
			"-0.01": 3.57166931202,
			"-0.009": 3.55306188639,
			"-0.008": 3.08865513785,
			"-0.007": 2.99717874085,
			"-0.006": 5.06976963593,
			"-0.005": 9.74426328423,
			"-0.004": 17.1283253951,
			"-0.003": 24.4201863679,
			"-0.002": 29.0222283484,
			"-0.001": 38.4460709562,
			"0.0": 38.9977618167,
			"0.001": 31.770443001,
			"0.002": 19.5872529445,
			"0.003": 13.7930649211,
			"0.004": 10.2062303293,
			"0.005": 11.4270923351,
			"0.006": 9.92933347165,
			"0.007": 5.27379876777,
			"0.008": 3.55178988102,
			"0.009": 2.67316523162,
			"0.01": 3.26436983968,
			"0.011": 2.77125051641,
			"0.012": 4.32813621985,
			"0.013": 2.44007157095,
			"0.014": 2.15672164556,
			"0.015": 0.443052112661,
			"0.016": 0.0,
			"0.017": 0.0,
			"0.018": 0.0,
			"0.019": 0.0,
			"0.02": 0.0,
			"0.021": 0.0,
			"0.022": 0.0,
			"0.023": 0.0,
			"0.024": 0.0,
			"0.025": 0.0
		}
	}
}
