{
	 "smiles": "CC(C)(C)C1=CC=C(C=C1)C(=O)C(O)=O", 
	 "Tm": 341.15, 
	 "num_atms": 29, 
	 "gaussian": { 
		 "optdone": 1, 
		 "sigma_profile": "yes", 
		 "theory": "DFT", 
		 "functional": "B3LYP", 
		 "basiset": "6-31G**", 
		 "properties": { 
			 "R2extent": 6354.1145, 
			 "electric_dipole_moment_norm": 4.59063243029, 
			 "electric_quadrupole_moment_norm": 23.849862078, 
			 "total_energy": -691.407573788, 
			 "HOMO_LUMO_gap": 0.16308, 
			 "cosmo_polarized_energy": -9.3, 
			 "cosmo_cavitation_energy": 31.81, 
			 "cosmo_dispersion_energy": -22.87, 
			 "cosmo_repulsion_energy": 1.76, 
			 "cosmo_total_nonelectrostatic_energy": 10.69, 
			 "SMD_solvation_energy": 7.46 
		},
		"coords": [
			{
				"x": 0.9485723163,
				"y": -1.8192024984,
				"z": 0.3581491624,
				"element": "C" 
			},
			{
				"x": -0.0132117797,
				"y": -0.859416215,
				"z": 1.1002976345,
				"element": "C" 
			},
			{
				"x": -1.4753112986,
				"y": -1.306915646,
				"z": 0.8572372038,
				"element": "C" 
			},
			{
				"x": 0.2769559237,
				"y": -0.9572331358,
				"z": 2.6099408968,
				"element": "C" 
			},
			{
				"x": 0.1762240169,
				"y": 0.5659735612,
				"z": 0.5570508912,
				"element": "C" 
			},
			{
				"x": -0.0489733366,
				"y": 0.8298686363,
				"z": -0.8104122272,
				"element": "C" 
			},
			{
				"x": 0.1110426933,
				"y": 2.0996607818,
				"z": -1.33809278,
				"element": "C" 
			},
			{
				"x": 0.5072837408,
				"y": 3.174176988,
				"z": -0.515122744,
				"element": "C" 
			},
			{
				"x": 0.7352103691,
				"y": 2.9267860302,
				"z": 0.8493427893,
				"element": "C" 
			},
			{
				"x": 0.5697263597,
				"y": 1.6423885403,
				"z": 1.3652622643,
				"element": "C" 
			},
			{
				"x": 0.6562965282,
				"y": 4.4930847452,
				"z": -1.1476978524,
				"element": "C" 
			},
			{
				"x": 0.4502455427,
				"y": 4.6843902424,
				"z": -2.3470840238,
				"element": "O" 
			},
			{
				"x": 1.0886710269,
				"y": 5.7628431247,
				"z": -0.3515147353,
				"element": "C" 
			},
			{
				"x": 1.1473744551,
				"y": 6.8242243243,
				"z": -1.1583299983,
				"element": "O" 
			},
			{
				"x": 1.3417217726,
				"y": 5.8103384072,
				"z": 0.830052935,
				"element": "O" 
			},
			{
				"x": 0.8214311512,
				"y": -2.8414364534,
				"z": 0.7308384004,
				"element": "H" 
			},
			{
				"x": 1.9922815435,
				"y": -1.5282317071,
				"z": 0.5150314556,
				"element": "H" 
			},
			{
				"x": 0.7629882133,
				"y": -1.8329577176,
				"z": -0.7197343641,
				"element": "H" 
			},
			{
				"x": -1.6246752754,
				"y": -2.3246077443,
				"z": 1.2340982808,
				"element": "H" 
			},
			{
				"x": -1.733301689,
				"y": -1.3049282361,
				"z": -0.2057328054,
				"element": "H" 
			},
			{
				"x": -2.1792288667,
				"y": -0.6468780914,
				"z": 1.3744107964,
				"element": "H" 
			},
			{
				"x": -0.3927004096,
				"y": -0.320438662,
				"z": 3.1970603762,
				"element": "H" 
			},
			{
				"x": 0.1278570447,
				"y": -1.9883607924,
				"z": 2.9452772161,
				"element": "H" 
			},
			{
				"x": 1.3094901992,
				"y": -0.6805722893,
				"z": 2.8465793898,
				"element": "H" 
			},
			{
				"x": -0.354926341,
				"y": 0.0253019048,
				"z": -1.4717384042,
				"element": "H" 
			},
			{
				"x": -0.0652063085,
				"y": 2.2895316438,
				"z": -2.3914236403,
				"element": "H" 
			},
			{
				"x": 1.0396774655,
				"y": 3.73969123,
				"z": 1.4952887358,
				"element": "H" 
			},
			{
				"x": 0.7545089324,
				"y": 1.4897898377,
				"z": 2.4217301583,
				"element": "H" 
			},
			{
				"x": 0.8936760098,
				"y": 6.4883291911,
				"z": -2.0461650116,
				"element": "H" 
			}
		],
		 "valence_orbital": [ 
			{
				"type": "occ",
				"energy": -0.32719,
				"method": "rhf"
			},
			{
				"type": "occ",
				"energy": -0.32235,
				"method": "rhf"
			},
			{
				"type": "occ",
				"energy": -0.26741,
				"method": "rhf"
			},
			{
				"type": "occ",
				"energy": -0.2631,
				"method": "rhf"
			},
			{
				"type": "occ",
				"energy": -0.26035,
				"method": "rhf"
			},
			{
				"type": "unocc",
				"energy": -0.09727,
				"method": "rhf"
			},
			{
				"type": "unocc",
				"energy": -0.01746,
				"method": "rhf"
			},
			{
				"type": "unocc",
				"energy": -0.00909,
				"method": "rhf"
			},
			{
				"type": "unocc",
				"energy": 0.07063,
				"method": "rhf"
			},
			{
				"type": "unocc",
				"energy": 0.07374,
				"method": "rhf"
			}
		],
		"cosmo_sigma_profile": { 
			"-0.025": 0.0,
			"-0.024": 0.0,
			"-0.023": 0.0,
			"-0.022": 0.0,
			"-0.021": 0.0,
			"-0.02": 0.0,
			"-0.019": 0.0,
			"-0.018": 0.0,
			"-0.017": 0.0,
			"-0.016": 0.0,
			"-0.015": 0.0509007678141,
			"-0.014": 0.452873758642,
			"-0.013": 0.520815166193,
			"-0.012": 0.524227934395,
			"-0.011": 0.74511386052,
			"-0.01": 0.814885253526,
			"-0.009": 1.13865789461,
			"-0.008": 3.23439673642,
			"-0.007": 3.47811633769,
			"-0.006": 8.03087552673,
			"-0.005": 10.5597759207,
			"-0.004": 13.6562412209,
			"-0.003": 27.5315800718,
			"-0.002": 27.0927717635,
			"-0.001": 23.3611152295,
			"0.0": 27.1837054384,
			"0.001": 31.7768603723,
			"0.002": 14.5350112667,
			"0.003": 15.6646603304,
			"0.004": 7.03050342564,
			"0.005": 4.06040748564,
			"0.006": 3.67482159349,
			"0.007": 4.70383805152,
			"0.008": 5.82597583597,
			"0.009": 7.47945915604,
			"0.01": 4.69834055014,
			"0.011": 2.54036942364,
			"0.012": 0.957790955253,
			"0.013": 0.0,
			"0.014": 0.0,
			"0.015": 0.0,
			"0.016": 0.0,
			"0.017": 0.0,
			"0.018": 0.0,
			"0.019": 0.0,
			"0.02": 0.0,
			"0.021": 0.0,
			"0.022": 0.0,
			"0.023": 0.0,
			"0.024": 0.0,
			"0.025": 0.0
		}
	}
}
