{
	 "smiles": "CC1=CC=C(C=C1)C(=O)C1=CC2=C(OCCO2)C=C1Br", 
	 "Tm": 384.15, 
	 "num_atms": 33, 
	 "gaussian": { 
		 "optdone": 1, 
		 "sigma_profile": "yes", 
		 "theory": "DFT", 
		 "functional": "B3LYP", 
		 "basiset": "6-31G**", 
		 "properties": { 
			 "R2extent": 9127.5251, 
			 "electric_dipole_moment_norm": 4.05313242814, 
			 "electric_quadrupole_moment_norm": 34.9897953103, 
			 "total_energy": -3414.59686326, 
			 "HOMO_LUMO_gap": 0.16375, 
			 "cosmo_polarized_energy": -13.11, 
			 "cosmo_cavitation_energy": 39.01, 
			 "cosmo_dispersion_energy": -28.33, 
			 "cosmo_repulsion_energy": 2.18, 
			 "cosmo_total_nonelectrostatic_energy": 12.85, 
			 "SMD_solvation_energy": 6.34 
		},
		"coords": [
			{
				"x": 5.5348260062,
				"y": -0.3766349555,
				"z": -0.6150669425,
				"element": "C" 
			},
			{
				"x": 4.111163275,
				"y": -0.2784381686,
				"z": -0.123652108,
				"element": "C" 
			},
			{
				"x": 3.8130979863,
				"y": 0.3731066682,
				"z": 1.0848499567,
				"element": "C" 
			},
			{
				"x": 2.5080611869,
				"y": 0.4479804232,
				"z": 1.5537388758,
				"element": "C" 
			},
			{
				"x": 1.4569276737,
				"y": -0.1413909066,
				"z": 0.8325564536,
				"element": "C" 
			},
			{
				"x": 1.7459656696,
				"y": -0.7883291988,
				"z": -0.3767045086,
				"element": "C" 
			},
			{
				"x": 3.0557010124,
				"y": -0.8486374048,
				"z": -0.8474853323,
				"element": "C" 
			},
			{
				"x": 0.0677536568,
				"y": 0.0175081458,
				"z": 1.3522545391,
				"element": "C" 
			},
			{
				"x": -0.1902672008,
				"y": 0.8365283697,
				"z": 2.2247097599,
				"element": "O" 
			},
			{
				"x": -1.0681721374,
				"y": -0.7665385031,
				"z": 0.7332382956,
				"element": "C" 
			},
			{
				"x": -2.1323808056,
				"y": -0.0160891247,
				"z": 0.2149405887,
				"element": "C" 
			},
			{
				"x": -3.2430565945,
				"y": -0.6248153358,
				"z": -0.3584699312,
				"element": "C" 
			},
			{
				"x": -3.3144155511,
				"y": -2.0287061166,
				"z": -0.4078875639,
				"element": "C" 
			},
			{
				"x": -4.3764948299,
				"y": -2.6830344765,
				"z": -0.970337507,
				"element": "O" 
			},
			{
				"x": -5.2161093084,
				"y": -1.8484829196,
				"z": -1.7733992908,
				"element": "C" 
			},
			{
				"x": -5.4745352409,
				"y": -0.5276462874,
				"z": -1.067285971,
				"element": "C" 
			},
			{
				"x": -4.2436832683,
				"y": 0.1674459136,
				"z": -0.8607607002,
				"element": "O" 
			},
			{
				"x": -2.2878573671,
				"y": -2.7923319754,
				"z": 0.146304744,
				"element": "C" 
			},
			{
				"x": -1.1802553294,
				"y": -2.1640973239,
				"z": 0.7094890966,
				"element": "C" 
			},
			{
				"x": 0.1390371521,
				"y": -3.2861346864,
				"z": 1.5281208628,
				"element": "Br" 
			},
			{
				"x": 6.071404999,
				"y": -1.1854909363,
				"z": -0.1033424196,
				"element": "H" 
			},
			{
				"x": 5.5761083613,
				"y": -0.5838907895,
				"z": -1.6880536652,
				"element": "H" 
			},
			{
				"x": 6.0886423398,
				"y": 0.5480071427,
				"z": -0.4239714061,
				"element": "H" 
			},
			{
				"x": 4.6173075052,
				"y": 0.8291968968,
				"z": 1.6571304242,
				"element": "H" 
			},
			{
				"x": 2.2726174576,
				"y": 0.9635093498,
				"z": 2.478857114,
				"element": "H" 
			},
			{
				"x": 0.9449919533,
				"y": -1.2348010074,
				"z": -0.9567537703,
				"element": "H" 
			},
			{
				"x": 3.2631535076,
				"y": -1.3459426898,
				"z": -1.7915064472,
				"element": "H" 
			},
			{
				"x": -2.0999918779,
				"y": 1.0669385566,
				"z": 0.2652483191,
				"element": "H" 
			},
			{
				"x": -6.1431332896,
				"y": -2.4050709564,
				"z": -1.9304863141,
				"element": "H" 
			},
			{
				"x": -4.7373052087,
				"y": -1.6671693031,
				"z": -2.7448698033,
				"element": "H" 
			},
			{
				"x": -5.9680922848,
				"y": -0.707418914,
				"z": -0.1026747838,
				"element": "H" 
			},
			{
				"x": -6.1034323233,
				"y": 0.1291575492,
				"z": -1.6730046281,
				"element": "H" 
			},
			{
				"x": -2.3735771253,
				"y": -3.8721870354,
				"z": 0.1335740628,
				"element": "H" 
			}
		],
		 "valence_orbital": [ 
			{
				"type": "occ",
				"energy": -0.25507,
				"method": "rhf"
			},
			{
				"type": "occ",
				"energy": -0.25039,
				"method": "rhf"
			},
			{
				"type": "occ",
				"energy": -0.24313,
				"method": "rhf"
			},
			{
				"type": "occ",
				"energy": -0.23849,
				"method": "rhf"
			},
			{
				"type": "occ",
				"energy": -0.2195,
				"method": "rhf"
			},
			{
				"type": "unocc",
				"energy": -0.05575,
				"method": "rhf"
			},
			{
				"type": "unocc",
				"energy": -0.01437,
				"method": "rhf"
			},
			{
				"type": "unocc",
				"energy": -0.00699,
				"method": "rhf"
			},
			{
				"type": "unocc",
				"energy": -0.00186,
				"method": "rhf"
			},
			{
				"type": "unocc",
				"energy": 0.01023,
				"method": "rhf"
			}
		],
		"cosmo_sigma_profile": { 
			"-0.025": 0.0,
			"-0.024": 0.0,
			"-0.023": 0.0,
			"-0.022": 0.0,
			"-0.021": 0.0,
			"-0.02": 0.0,
			"-0.019": 0.0,
			"-0.018": 0.0,
			"-0.017": 0.0,
			"-0.016": 0.0,
			"-0.015": 0.0,
			"-0.014": 0.0,
			"-0.013": 0.0,
			"-0.012": 0.0,
			"-0.011": 0.0,
			"-0.01": 0.0,
			"-0.009": 0.0,
			"-0.008": 2.39309620279,
			"-0.007": 11.0676165518,
			"-0.006": 19.3571206289,
			"-0.005": 23.5849702285,
			"-0.004": 26.2852150455,
			"-0.003": 22.5035777065,
			"-0.002": 21.6369307212,
			"-0.001": 22.4949782758,
			"0.0": 23.8028782066,
			"0.001": 25.6078225692,
			"0.002": 26.9876396472,
			"0.003": 21.8440188004,
			"0.004": 25.3242066207,
			"0.005": 12.3590753846,
			"0.006": 4.54846068109,
			"0.007": 4.29841327425,
			"0.008": 4.04578233783,
			"0.009": 5.26262809818,
			"0.01": 3.39653149356,
			"0.011": 3.50621468444,
			"0.012": 3.38801392368,
			"0.013": 0.692641548365,
			"0.014": 0.0,
			"0.015": 0.0,
			"0.016": 0.0,
			"0.017": 0.0,
			"0.018": 0.0,
			"0.019": 0.0,
			"0.02": 0.0,
			"0.021": 0.0,
			"0.022": 0.0,
			"0.023": 0.0,
			"0.024": 0.0,
			"0.025": 0.0
		}
	}
}
