{
	 "smiles": "COC(=O)C1=CC=C(O1)C=O", 
	 "Tm": 353.15, 
	 "num_atms": 17, 
	 "gaussian": { 
		 "optdone": 1, 
		 "sigma_profile": "yes", 
		 "theory": "DFT", 
		 "functional": "B3LYP", 
		 "basiset": "6-31G**", 
		 "properties": { 
			 "R2extent": 2502.9603, 
			 "electric_dipole_moment_norm": 3.99178247654, 
			 "electric_quadrupole_moment_norm": 6.87911335275, 
			 "total_energy": -571.223498321, 
			 "HOMO_LUMO_gap": 0.1735, 
			 "cosmo_polarized_energy": -11.11, 
			 "cosmo_cavitation_energy": 23.33, 
			 "cosmo_dispersion_energy": -16.8, 
			 "cosmo_repulsion_energy": 1.37, 
			 "cosmo_total_nonelectrostatic_energy": 7.9, 
			 "SMD_solvation_energy": 7.59 
		},
		"coords": [
			{
				"x": -0.3070347997,
				"y": 3.5553403575,
				"z": -0.746146416,
				"element": "C" 
			},
			{
				"x": -0.6965833754,
				"y": 2.3330517366,
				"z": -0.0964089415,
				"element": "O" 
			},
			{
				"x": -0.5280293724,
				"y": 1.215333946,
				"z": -0.8368846453,
				"element": "C" 
			},
			{
				"x": -0.0865146527,
				"y": 1.1918882582,
				"z": -1.9653069225,
				"element": "O" 
			},
			{
				"x": -0.9576645329,
				"y": 0.0312371703,
				"z": -0.0731847404,
				"element": "C" 
			},
			{
				"x": -1.4731195081,
				"y": -0.1307377052,
				"z": 1.1932406326,
				"element": "C" 
			},
			{
				"x": -1.6896421102,
				"y": -1.5205062985,
				"z": 1.3577123939,
				"element": "C" 
			},
			{
				"x": -1.2916958528,
				"y": -2.1130926179,
				"z": 0.1803833946,
				"element": "C" 
			},
			{
				"x": -0.844102784,
				"y": -1.1683744105,
				"z": -0.6956978709,
				"element": "O" 
			},
			{
				"x": -1.2693504819,
				"y": -3.5049547194,
				"z": -0.2633375596,
				"element": "C" 
			},
			{
				"x": -1.6446985989,
				"y": -4.4296025438,
				"z": 0.4346863073,
				"element": "O" 
			},
			{
				"x": -0.8926324397,
				"y": 3.7095776039,
				"z": -1.6557646942,
				"element": "H" 
			},
			{
				"x": -0.5045829565,
				"y": 4.3464211238,
				"z": -0.0235186905,
				"element": "H" 
			},
			{
				"x": 0.7535051145,
				"y": 3.5291709704,
				"z": -1.0082353191,
				"element": "H" 
			},
			{
				"x": -1.6644495139,
				"y": 0.6621140867,
				"z": 1.9005408512,
				"element": "H" 
			},
			{
				"x": -2.0845410483,
				"y": -2.0406770893,
				"z": 2.2178751954,
				"element": "H" 
			},
			{
				"x": -0.8812630871,
				"y": -3.6522898687,
				"z": -1.2916529748,
				"element": "H" 
			}
		],
		 "valence_orbital": [ 
			{
				"type": "occ",
				"energy": -0.31634,
				"method": "rhf"
			},
			{
				"type": "occ",
				"energy": -0.30907,
				"method": "rhf"
			},
			{
				"type": "occ",
				"energy": -0.29057,
				"method": "rhf"
			},
			{
				"type": "occ",
				"energy": -0.26803,
				"method": "rhf"
			},
			{
				"type": "occ",
				"energy": -0.25892,
				"method": "rhf"
			},
			{
				"type": "unocc",
				"energy": -0.08542,
				"method": "rhf"
			},
			{
				"type": "unocc",
				"energy": -0.02502,
				"method": "rhf"
			},
			{
				"type": "unocc",
				"energy": 0.07274,
				"method": "rhf"
			},
			{
				"type": "unocc",
				"energy": 0.09422,
				"method": "rhf"
			},
			{
				"type": "unocc",
				"energy": 0.09938,
				"method": "rhf"
			}
		],
		"cosmo_sigma_profile": { 
			"-0.025": 0.0,
			"-0.024": 0.0,
			"-0.023": 0.0,
			"-0.022": 0.0,
			"-0.021": 0.0,
			"-0.02": 0.0,
			"-0.019": 0.0,
			"-0.018": 0.0,
			"-0.017": 0.0,
			"-0.016": 0.0,
			"-0.015": 0.0,
			"-0.014": 0.0,
			"-0.013": 0.0,
			"-0.012": 0.0,
			"-0.011": 0.0,
			"-0.01": 0.298109248984,
			"-0.009": 2.73750573386,
			"-0.008": 3.64842085135,
			"-0.007": 8.66106629419,
			"-0.006": 12.1948889262,
			"-0.005": 13.7432369749,
			"-0.004": 18.6557140775,
			"-0.003": 16.0219005892,
			"-0.002": 15.0953000417,
			"-0.001": 14.0617634768,
			"0.0": 13.7812906647,
			"0.001": 10.485446914,
			"0.002": 6.08579473562,
			"0.003": 5.38648751057,
			"0.004": 4.7654398313,
			"0.005": 5.50627638735,
			"0.006": 4.13961041553,
			"0.007": 3.63156678794,
			"0.008": 4.07840223191,
			"0.009": 4.75588403686,
			"0.01": 5.96857896542,
			"0.011": 9.76844365027,
			"0.012": 3.85463558289,
			"0.013": 0.206943280057,
			"0.014": 0.0,
			"0.015": 0.0,
			"0.016": 0.0,
			"0.017": 0.0,
			"0.018": 0.0,
			"0.019": 0.0,
			"0.02": 0.0,
			"0.021": 0.0,
			"0.022": 0.0,
			"0.023": 0.0,
			"0.024": 0.0,
			"0.025": 0.0
		}
	}
}
