{
	 "smiles": "O=C1NC(=O)C2=C3C(C=CC=C13)=CC=C2", 
	 "Tm": 575.15, 
	 "num_atms": 22, 
	 "gaussian": { 
		 "optdone": 1, 
		 "sigma_profile": "yes", 
		 "theory": "DFT", 
		 "functional": "B3LYP", 
		 "basiset": "6-31G**", 
		 "properties": { 
			 "R2extent": 2679.2643, 
			 "electric_dipole_moment_norm": 4.64494621174, 
			 "electric_quadrupole_moment_norm": 3.28715137315, 
			 "total_energy": -666.750591723, 
			 "HOMO_LUMO_gap": 0.1499, 
			 "cosmo_polarized_energy": -12.78, 
			 "cosmo_cavitation_energy": 26.34, 
			 "cosmo_dispersion_energy": -19.89, 
			 "cosmo_repulsion_energy": 1.49, 
			 "cosmo_total_nonelectrostatic_energy": 7.95, 
			 "SMD_solvation_energy": 5.38 
		},
		"coords": [
			{
				"x": 0.1398979768,
				"y": -3.0875227904,
				"z": -1.7756180889,
				"element": "O" 
			},
			{
				"x": 0.0313382124,
				"y": -2.1808872763,
				"z": -0.9642728835,
				"element": "C" 
			},
			{
				"x": -0.2430457518,
				"y": -2.45481579,
				"z": 0.3764070296,
				"element": "N" 
			},
			{
				"x": -0.399617385,
				"y": -1.5566102597,
				"z": 1.4330287166,
				"element": "C" 
			},
			{
				"x": -0.6398284932,
				"y": -1.95812297,
				"z": 2.5613640655,
				"element": "O" 
			},
			{
				"x": -0.2526321824,
				"y": -0.1254354712,
				"z": 1.0679846168,
				"element": "C" 
			},
			{
				"x": 0.0274067455,
				"y": 0.2406997375,
				"z": -0.276909438,
				"element": "C" 
			},
			{
				"x": 0.1661119402,
				"y": 1.6229104621,
				"z": -0.6119166627,
				"element": "C" 
			},
			{
				"x": 0.4457861072,
				"y": 1.972031603,
				"z": -1.9599582777,
				"element": "C" 
			},
			{
				"x": 0.5818696853,
				"y": 1.0007338296,
				"z": -2.9307660188,
				"element": "C" 
			},
			{
				"x": 0.4445587649,
				"y": -0.363124088,
				"z": -2.5977008632,
				"element": "C" 
			},
			{
				"x": 0.1722083631,
				"y": -0.7408193155,
				"z": -1.2951898188,
				"element": "C" 
			},
			{
				"x": 0.0185685159,
				"y": 2.5909672197,
				"z": 0.4168834958,
				"element": "C" 
			},
			{
				"x": -0.2532531421,
				"y": 2.2105758808,
				"z": 1.7152733322,
				"element": "C" 
			},
			{
				"x": -0.3897726996,
				"y": 0.8454963373,
				"z": 2.0436166969,
				"element": "C" 
			},
			{
				"x": -0.3415132096,
				"y": -3.4358249481,
				"z": 0.6141593443,
				"element": "H" 
			},
			{
				"x": 0.5515891945,
				"y": 3.0228324007,
				"z": -2.216753372,
				"element": "H" 
			},
			{
				"x": 0.7955737019,
				"y": 1.2829748512,
				"z": -3.9569176753,
				"element": "H" 
			},
			{
				"x": 0.5486611218,
				"y": -1.1387679131,
				"z": -3.3492494618,
				"element": "H" 
			},
			{
				"x": 0.1237051791,
				"y": 3.6427980685,
				"z": 0.1640653436,
				"element": "H" 
			},
			{
				"x": -0.3633453348,
				"y": 2.9619930082,
				"z": 2.4908819592,
				"element": "H" 
			},
			{
				"x": -0.6033673104,
				"y": 0.5301174236,
				"z": 3.0595879603,
				"element": "H" 
			}
		],
		 "valence_orbital": [ 
			{
				"type": "occ",
				"energy": -0.28491,
				"method": "rhf"
			},
			{
				"type": "occ",
				"energy": -0.28405,
				"method": "rhf"
			},
			{
				"type": "occ",
				"energy": -0.26731,
				"method": "rhf"
			},
			{
				"type": "occ",
				"energy": -0.26305,
				"method": "rhf"
			},
			{
				"type": "occ",
				"energy": -0.24133,
				"method": "rhf"
			},
			{
				"type": "unocc",
				"energy": -0.09143,
				"method": "rhf"
			},
			{
				"type": "unocc",
				"energy": -0.03135,
				"method": "rhf"
			},
			{
				"type": "unocc",
				"energy": -0.02691,
				"method": "rhf"
			},
			{
				"type": "unocc",
				"energy": 0.0082,
				"method": "rhf"
			},
			{
				"type": "unocc",
				"energy": 0.08255,
				"method": "rhf"
			}
		],
		"cosmo_sigma_profile": { 
			"-0.025": 0.0,
			"-0.024": 0.0,
			"-0.023": 0.0,
			"-0.022": 0.0,
			"-0.021": 0.0,
			"-0.02": 0.0,
			"-0.019": 0.0,
			"-0.018": 0.0,
			"-0.017": 0.0,
			"-0.016": 0.193551890485,
			"-0.015": 0.78002967286,
			"-0.014": 0.718801136481,
			"-0.013": 0.849411513991,
			"-0.012": 0.858504658114,
			"-0.011": 0.613523543414,
			"-0.01": 0.745944661666,
			"-0.009": 0.65677585427,
			"-0.008": 3.23400054033,
			"-0.007": 10.8936639074,
			"-0.006": 13.1132131292,
			"-0.005": 15.3049040398,
			"-0.004": 12.1254627808,
			"-0.003": 12.9237652205,
			"-0.002": 13.0099520639,
			"-0.001": 14.5876074816,
			"0.0": 17.9691111768,
			"0.001": 27.1542646131,
			"0.002": 20.1922108311,
			"0.003": 8.86031019096,
			"0.004": 2.1028210108,
			"0.005": 2.89150279101,
			"0.006": 3.1209298786,
			"0.007": 2.35911333916,
			"0.008": 2.14679448058,
			"0.009": 3.74186202136,
			"0.01": 3.44734932254,
			"0.011": 5.51401577336,
			"0.012": 10.3858191894,
			"0.013": 2.20455264343,
			"0.014": 0.0,
			"0.015": 0.0,
			"0.016": 0.0,
			"0.017": 0.0,
			"0.018": 0.0,
			"0.019": 0.0,
			"0.02": 0.0,
			"0.021": 0.0,
			"0.022": 0.0,
			"0.023": 0.0,
			"0.024": 0.0,
			"0.025": 0.0
		}
	}
}
