{
	 "smiles": "OC(=O)COC1=C(C=C(C=O)C=C1)[N+]([O-])=O", 
	 "Tm": 430.15, 
	 "num_atms": 23, 
	 "gaussian": { 
		 "optdone": 1, 
		 "sigma_profile": "yes", 
		 "theory": "DFT", 
		 "functional": "B3LYP", 
		 "basiset": "6-31G**", 
		 "properties": { 
			 "R2extent": 4345.6721, 
			 "electric_dipole_moment_norm": 2.65756482706, 
			 "electric_quadrupole_moment_norm": 21.4673011252, 
			 "total_energy": -853.146809956, 
			 "HOMO_LUMO_gap": 0.17174, 
			 "cosmo_polarized_energy": -20.57, 
			 "cosmo_cavitation_energy": 29.95, 
			 "cosmo_dispersion_energy": -21.03, 
			 "cosmo_repulsion_energy": 1.66, 
			 "cosmo_total_nonelectrostatic_energy": 10.59, 
			 "SMD_solvation_energy": 10.09 
		},
		"coords": [
			{
				"x": 2.8167790141,
				"y": -2.35105898,
				"z": 0.522358334,
				"element": "O" 
			},
			{
				"x": 3.1472536512,
				"y": -1.2871557746,
				"z": 1.2732979599,
				"element": "C" 
			},
			{
				"x": 3.4778959896,
				"y": -1.3423490333,
				"z": 2.4350527445,
				"element": "O" 
			},
			{
				"x": 3.1135384717,
				"y": 0.0236534179,
				"z": 0.4921667179,
				"element": "C" 
			},
			{
				"x": 2.3478944395,
				"y": 0.0025093313,
				"z": -0.7014775706,
				"element": "O" 
			},
			{
				"x": 1.0024782963,
				"y": -0.0174520538,
				"z": -0.6334578401,
				"element": "C" 
			},
			{
				"x": 0.2695597782,
				"y": -0.0490343369,
				"z": -1.8442202512,
				"element": "C" 
			},
			{
				"x": -1.1190483271,
				"y": -0.1196780974,
				"z": -1.8363981163,
				"element": "C" 
			},
			{
				"x": -1.8221441965,
				"y": -0.1292945273,
				"z": -0.6318085166,
				"element": "C" 
			},
			{
				"x": -3.3000039206,
				"y": -0.1881828233,
				"z": -0.626512451,
				"element": "C" 
			},
			{
				"x": -3.9781441105,
				"y": -0.2013527897,
				"z": 0.3828703143,
				"element": "O" 
			},
			{
				"x": -1.1052549417,
				"y": -0.0872779109,
				"z": 0.5736180384,
				"element": "C" 
			},
			{
				"x": 0.2802486989,
				"y": -0.0408245631,
				"z": 0.576030684,
				"element": "C" 
			},
			{
				"x": 0.9255090854,
				"y": -0.0002543686,
				"z": -3.1601459246,
				"element": "N" 
			},
			{
				"x": 0.3088043661,
				"y": -0.5004397949,
				"z": -4.1031079768,
				"element": "O" 
			},
			{
				"x": 2.01634972,
				"y": 0.5536016547,
				"z": -3.2491063875,
				"element": "O" 
			},
			{
				"x": 2.8894272843,
				"y": -3.1324129574,
				"z": 1.0972252863,
				"element": "H" 
			},
			{
				"x": 2.8017417485,
				"y": 0.8214503738,
				"z": 1.1730817464,
				"element": "H" 
			},
			{
				"x": 4.1350949729,
				"y": 0.2401172382,
				"z": 0.1667088987,
				"element": "H" 
			},
			{
				"x": -1.6345189602,
				"y": -0.1649654781,
				"z": -2.7898359884,
				"element": "H" 
			},
			{
				"x": -3.7674292131,
				"y": -0.2214463716,
				"z": -1.634741439,
				"element": "H" 
			},
			{
				"x": -1.6607793504,
				"y": -0.1002238199,
				"z": 1.5060447483,
				"element": "H" 
			},
			{
				"x": 0.8059475031,
				"y": -0.0301283354,
				"z": 1.5230569895,
				"element": "H" 
			}
		],
		 "valence_orbital": [ 
			{
				"type": "occ",
				"energy": -0.30929,
				"method": "rhf"
			},
			{
				"type": "occ",
				"energy": -0.30078,
				"method": "rhf"
			},
			{
				"type": "occ",
				"energy": -0.28657,
				"method": "rhf"
			},
			{
				"type": "occ",
				"energy": -0.2692,
				"method": "rhf"
			},
			{
				"type": "occ",
				"energy": -0.26492,
				"method": "rhf"
			},
			{
				"type": "unocc",
				"energy": -0.09318,
				"method": "rhf"
			},
			{
				"type": "unocc",
				"energy": -0.07417,
				"method": "rhf"
			},
			{
				"type": "unocc",
				"energy": -0.03088,
				"method": "rhf"
			},
			{
				"type": "unocc",
				"energy": -0.0187,
				"method": "rhf"
			},
			{
				"type": "unocc",
				"energy": 0.02825,
				"method": "rhf"
			}
		],
		"cosmo_sigma_profile": { 
			"-0.025": 0.0,
			"-0.024": 0.0,
			"-0.023": 0.0,
			"-0.022": 0.0,
			"-0.021": 0.0,
			"-0.02": 0.0615215346523,
			"-0.019": 0.659515021391,
			"-0.018": 1.05016413073,
			"-0.017": 1.22341244987,
			"-0.016": 0.342694307113,
			"-0.015": 1.06751441381,
			"-0.014": 0.545917086474,
			"-0.013": 0.501924547456,
			"-0.012": 1.28049886054,
			"-0.011": 1.60134125548,
			"-0.01": 5.36884802734,
			"-0.009": 8.50849739884,
			"-0.008": 10.283316297,
			"-0.007": 13.5985071209,
			"-0.006": 11.4593221642,
			"-0.005": 10.3287332328,
			"-0.004": 11.7913845579,
			"-0.003": 11.9242733658,
			"-0.002": 13.2819478475,
			"-0.001": 17.7578286735,
			"0.0": 14.0451115029,
			"0.001": 9.19365911311,
			"0.002": 7.69114150272,
			"0.003": 6.91284396453,
			"0.004": 6.9357242364,
			"0.005": 6.87079044969,
			"0.006": 8.10230094875,
			"0.007": 11.9702192126,
			"0.008": 12.8372083134,
			"0.009": 11.028238629,
			"0.01": 9.30107572587,
			"0.011": 9.56865005286,
			"0.012": 2.78239545688,
			"0.013": 0.265851380235,
			"0.014": 0.0,
			"0.015": 0.0,
			"0.016": 0.0,
			"0.017": 0.0,
			"0.018": 0.0,
			"0.019": 0.0,
			"0.02": 0.0,
			"0.021": 0.0,
			"0.022": 0.0,
			"0.023": 0.0,
			"0.024": 0.0,
			"0.025": 0.0
		}
	}
}
