{
	 "smiles": "NC1=C(C=CC=C1)C(=O)NC1CC1", 
	 "Tm": 409.15, 
	 "num_atms": 25, 
	 "gaussian": { 
		 "optdone": 1, 
		 "sigma_profile": "yes", 
		 "theory": "DFT", 
		 "functional": "B3LYP", 
		 "basiset": "6-31G**", 
		 "properties": { 
			 "R2extent": 3114.9815, 
			 "electric_dipole_moment_norm": 1.64764484341, 
			 "electric_quadrupole_moment_norm": 12.1074002589, 
			 "total_energy": -573.016343698, 
			 "HOMO_LUMO_gap": 0.17083, 
			 "cosmo_polarized_energy": -12.92, 
			 "cosmo_cavitation_energy": 28.2, 
			 "cosmo_dispersion_energy": -20.87, 
			 "cosmo_repulsion_energy": 1.66, 
			 "cosmo_total_nonelectrostatic_energy": 9.0, 
			 "SMD_solvation_energy": 4.22 
		},
		"coords": [
			{
				"x": -0.6525891841,
				"y": 2.8403366634,
				"z": -1.6387547642,
				"element": "N" 
			},
			{
				"x": -0.1898471758,
				"y": 1.5809255049,
				"z": -1.9275272746,
				"element": "C" 
			},
			{
				"x": 0.3175957588,
				"y": 0.7203528346,
				"z": -0.9099132491,
				"element": "C" 
			},
			{
				"x": 0.7730690681,
				"y": -0.559788051,
				"z": -1.272418005,
				"element": "C" 
			},
			{
				"x": 0.7142425321,
				"y": -1.0255105231,
				"z": -2.5796799468,
				"element": "C" 
			},
			{
				"x": 0.1832874136,
				"y": -0.1876773168,
				"z": -3.5682004726,
				"element": "C" 
			},
			{
				"x": -0.2563044981,
				"y": 1.087514836,
				"z": -3.2499224437,
				"element": "C" 
			},
			{
				"x": 0.3883816035,
				"y": 1.2057133798,
				"z": 0.5011603845,
				"element": "C" 
			},
			{
				"x": 0.4070011422,
				"y": 2.4065479115,
				"z": 0.8017839983,
				"element": "O" 
			},
			{
				"x": 0.4223421036,
				"y": 0.247457773,
				"z": 1.4805770991,
				"element": "N" 
			},
			{
				"x": 0.5763756159,
				"y": 0.5791218063,
				"z": 2.8679193161,
				"element": "C" 
			},
			{
				"x": -0.1236753358,
				"y": -0.2898391017,
				"z": 3.8796508475,
				"element": "C" 
			},
			{
				"x": -0.5993528197,
				"y": 1.122270848,
				"z": 3.637435301,
				"element": "C" 
			},
			{
				"x": -0.3304929036,
				"y": 3.2228819761,
				"z": -0.7554695007,
				"element": "H" 
			},
			{
				"x": -0.7671175801,
				"y": 3.4756480553,
				"z": -2.4128845131,
				"element": "H" 
			},
			{
				"x": 1.2274844225,
				"y": -1.1947796121,
				"z": -0.5166089988,
				"element": "H" 
			},
			{
				"x": 1.0836046636,
				"y": -2.0147391112,
				"z": -2.828886346,
				"element": "H" 
			},
			{
				"x": 0.124924759,
				"y": -0.5294864208,
				"z": -4.598085114,
				"element": "H" 
			},
			{
				"x": -0.6581662705,
				"y": 1.7352594022,
				"z": -4.0253556589,
				"element": "H" 
			},
			{
				"x": 0.3512477386,
				"y": -0.7242581556,
				"z": 1.2241284031,
				"element": "H" 
			},
			{
				"x": 1.5563023239,
				"y": 0.9712219805,
				"z": 3.1331788458,
				"element": "H" 
			},
			{
				"x": -0.7441990479,
				"y": -1.0996930205,
				"z": 3.505179198,
				"element": "H" 
			},
			{
				"x": 0.4004366898,
				"y": -0.5198185073,
				"z": 4.8018942048,
				"element": "H" 
			},
			{
				"x": -1.5246749689,
				"y": 1.2577587111,
				"z": 3.0883799602,
				"element": "H" 
			},
			{
				"x": -0.4024760504,
				"y": 1.8780781375,
				"z": 4.3908187294,
				"element": "H" 
			}
		],
		 "valence_orbital": [ 
			{
				"type": "occ",
				"energy": -0.30104,
				"method": "rhf"
			},
			{
				"type": "occ",
				"energy": -0.25378,
				"method": "rhf"
			},
			{
				"type": "occ",
				"energy": -0.24696,
				"method": "rhf"
			},
			{
				"type": "occ",
				"energy": -0.24197,
				"method": "rhf"
			},
			{
				"type": "occ",
				"energy": -0.19677,
				"method": "rhf"
			},
			{
				"type": "unocc",
				"energy": -0.02594,
				"method": "rhf"
			},
			{
				"type": "unocc",
				"energy": 0.01539,
				"method": "rhf"
			},
			{
				"type": "unocc",
				"energy": 0.06408,
				"method": "rhf"
			},
			{
				"type": "unocc",
				"energy": 0.08199,
				"method": "rhf"
			},
			{
				"type": "unocc",
				"energy": 0.10091,
				"method": "rhf"
			}
		],
		"cosmo_sigma_profile": { 
			"-0.025": 0.0,
			"-0.024": 0.0,
			"-0.023": 0.0,
			"-0.022": 0.0,
			"-0.021": 0.0,
			"-0.02": 0.0,
			"-0.019": 0.0,
			"-0.018": 0.0,
			"-0.017": 0.0,
			"-0.016": 0.0,
			"-0.015": 0.0,
			"-0.014": 0.336410101353,
			"-0.013": 1.32036221358,
			"-0.012": 2.41779958835,
			"-0.011": 2.27529015947,
			"-0.01": 2.51093453463,
			"-0.009": 3.09911366351,
			"-0.008": 3.22143185796,
			"-0.007": 4.1342498826,
			"-0.006": 7.88232664559,
			"-0.005": 16.7337917668,
			"-0.004": 19.4072075551,
			"-0.003": 17.55639974,
			"-0.002": 13.5714257443,
			"-0.001": 13.8688412256,
			"0.0": 14.9724952575,
			"0.001": 15.9582692189,
			"0.002": 12.9373673374,
			"0.003": 13.3991614778,
			"0.004": 12.9422780961,
			"0.005": 12.9131362822,
			"0.006": 11.1989721638,
			"0.007": 3.19401767912,
			"0.008": 2.76046262709,
			"0.009": 2.40859492628,
			"0.01": 2.12637837029,
			"0.011": 2.18424867399,
			"0.012": 2.91372160769,
			"0.013": 2.82619612016,
			"0.014": 1.99526582426,
			"0.015": 0.565281985601,
			"0.016": 0.0,
			"0.017": 0.0,
			"0.018": 0.0,
			"0.019": 0.0,
			"0.02": 0.0,
			"0.021": 0.0,
			"0.022": 0.0,
			"0.023": 0.0,
			"0.024": 0.0,
			"0.025": 0.0
		}
	}
}
