{
	 "smiles": "COC1=CC(=CC(OC)=C1OC)C(N)=O", 
	 "Tm": 452.15, 
	 "num_atms": 28, 
	 "gaussian": { 
		 "optdone": 1, 
		 "sigma_profile": "yes", 
		 "theory": "DFT", 
		 "functional": "B3LYP", 
		 "basiset": "6-31G**", 
		 "properties": { 
			 "R2extent": 3645.8121, 
			 "electric_dipole_moment_norm": 3.41185774909, 
			 "electric_quadrupole_moment_norm": 18.0659294497, 
			 "total_energy": -744.512444883, 
			 "HOMO_LUMO_gap": 0.19915, 
			 "cosmo_polarized_energy": -15.4, 
			 "cosmo_cavitation_energy": 31.96, 
			 "cosmo_dispersion_energy": -22.47, 
			 "cosmo_repulsion_energy": 1.8, 
			 "cosmo_total_nonelectrostatic_energy": 11.3, 
			 "SMD_solvation_energy": 8.63 
		},
		"coords": [
			{
				"x": -0.4333947966,
				"y": -1.5623372089,
				"z": -3.3298279527,
				"element": "C" 
			},
			{
				"x": 0.445708243,
				"y": -0.7330010491,
				"z": -2.5602096487,
				"element": "O" 
			},
			{
				"x": 0.082531917,
				"y": -0.5642923718,
				"z": -1.2438717667,
				"element": "C" 
			},
			{
				"x": 0.8642010508,
				"y": -1.1363934478,
				"z": -0.2443845662,
				"element": "C" 
			},
			{
				"x": 0.5566204493,
				"y": -0.9186973448,
				"z": 1.1031476736,
				"element": "C" 
			},
			{
				"x": -0.5677401273,
				"y": -0.1561297687,
				"z": 1.4415713622,
				"element": "C" 
			},
			{
				"x": -1.3566922839,
				"y": 0.4239610272,
				"z": 0.4461165459,
				"element": "C" 
			},
			{
				"x": -2.4024674352,
				"y": 1.2260539372,
				"z": 0.8276743551,
				"element": "O" 
			},
			{
				"x": -3.7100052913,
				"y": 0.7773585317,
				"z": 0.4530896123,
				"element": "C" 
			},
			{
				"x": -1.0280162817,
				"y": 0.2338237641,
				"z": -0.908115907,
				"element": "C" 
			},
			{
				"x": -1.8045160986,
				"y": 0.8101902033,
				"z": -1.8862622537,
				"element": "O" 
			},
			{
				"x": -1.2090323022,
				"y": 1.9583837402,
				"z": -2.5093105093,
				"element": "C" 
			},
			{
				"x": 1.4510858846,
				"y": -1.5609525863,
				"z": 2.1252017323,
				"element": "C" 
			},
			{
				"x": 1.3620839889,
				"y": -1.0669029263,
				"z": 3.4058908412,
				"element": "N" 
			},
			{
				"x": 2.2034541154,
				"y": -2.485211322,
				"z": 1.8419451384,
				"element": "O" 
			},
			{
				"x": -0.0114926357,
				"y": -1.6014788206,
				"z": -4.3360619552,
				"element": "H" 
			},
			{
				"x": -0.471508048,
				"y": -2.5769075391,
				"z": -2.9143074479,
				"element": "H" 
			},
			{
				"x": -1.4436276481,
				"y": -1.1433043776,
				"z": -3.3692188045,
				"element": "H" 
			},
			{
				"x": 1.719656201,
				"y": -1.747378739,
				"z": -0.5078543799,
				"element": "H" 
			},
			{
				"x": -0.8721502547,
				"y": -0.0061433757,
				"z": 2.4718769741,
				"element": "H" 
			},
			{
				"x": -3.8169993302,
				"y": 0.7217033805,
				"z": -0.6333124239,
				"element": "H" 
			},
			{
				"x": -4.408173656,
				"y": 1.5140629094,
				"z": 0.8556898841,
				"element": "H" 
			},
			{
				"x": -3.9258055389,
				"y": -0.2031863913,
				"z": 0.8964671721,
				"element": "H" 
			},
			{
				"x": -1.042021071,
				"y": 2.7530499861,
				"z": -1.7731865279,
				"element": "H" 
			},
			{
				"x": -1.9230298245,
				"y": 2.3027257254,
				"z": -3.2600317307,
				"element": "H" 
			},
			{
				"x": -0.2635398905,
				"y": 1.6929426683,
				"z": -2.9920619572,
				"element": "H" 
			},
			{
				"x": 1.0214788919,
				"y": -0.1320596625,
				"z": 3.567677993,
				"element": "H" 
			},
			{
				"x": 2.0544917725,
				"y": -1.4191789416,
				"z": 4.0510685471,
				"element": "H" 
			}
		],
		 "valence_orbital": [ 
			{
				"type": "occ",
				"energy": -0.26954,
				"method": "rhf"
			},
			{
				"type": "occ",
				"energy": -0.26595,
				"method": "rhf"
			},
			{
				"type": "occ",
				"energy": -0.24676,
				"method": "rhf"
			},
			{
				"type": "occ",
				"energy": -0.23869,
				"method": "rhf"
			},
			{
				"type": "occ",
				"energy": -0.23309,
				"method": "rhf"
			},
			{
				"type": "unocc",
				"energy": -0.03394,
				"method": "rhf"
			},
			{
				"type": "unocc",
				"energy": -0.00108,
				"method": "rhf"
			},
			{
				"type": "unocc",
				"energy": 0.05785,
				"method": "rhf"
			},
			{
				"type": "unocc",
				"energy": 0.0733,
				"method": "rhf"
			},
			{
				"type": "unocc",
				"energy": 0.08777,
				"method": "rhf"
			}
		],
		"cosmo_sigma_profile": { 
			"-0.025": 0.0,
			"-0.024": 0.0,
			"-0.023": 0.0,
			"-0.022": 0.0,
			"-0.021": 0.0,
			"-0.02": 0.0,
			"-0.019": 0.0,
			"-0.018": 0.0,
			"-0.017": 0.0,
			"-0.016": 0.0,
			"-0.015": 0.0310217244593,
			"-0.014": 1.28675239019,
			"-0.013": 2.65527076056,
			"-0.012": 1.86848146191,
			"-0.011": 3.27459409324,
			"-0.01": 2.42928967079,
			"-0.009": 2.01765706174,
			"-0.008": 3.47070803962,
			"-0.007": 1.63319650896,
			"-0.006": 5.31726662712,
			"-0.005": 14.5023565139,
			"-0.004": 21.1541141503,
			"-0.003": 29.8885482709,
			"-0.002": 25.6908516044,
			"-0.001": 18.2206597747,
			"0.0": 16.1694803933,
			"0.001": 16.9093166783,
			"0.002": 15.9338073154,
			"0.003": 15.3436784232,
			"0.004": 9.70356019598,
			"0.005": 7.09637652588,
			"0.006": 6.08966842334,
			"0.007": 4.98834779258,
			"0.008": 4.05505469498,
			"0.009": 3.56195412698,
			"0.01": 4.2239816445,
			"0.011": 3.80464484271,
			"0.012": 2.71335753536,
			"0.013": 4.72900015381,
			"0.014": 3.78374026564,
			"0.015": 0.305080124354,
			"0.016": 0.0,
			"0.017": 0.0,
			"0.018": 0.0,
			"0.019": 0.0,
			"0.02": 0.0,
			"0.021": 0.0,
			"0.022": 0.0,
			"0.023": 0.0,
			"0.024": 0.0,
			"0.025": 0.0
		}
	}
}
