{
	 "smiles": "COC1=CC=C(C=C1)C1NCCC2=C1C=CS2", 
	 "Tm": 343.15, 
	 "num_atms": 32, 
	 "gaussian": { 
		 "optdone": 1, 
		 "sigma_profile": "yes", 
		 "theory": "DFT", 
		 "functional": "B3LYP", 
		 "basiset": "6-31G**", 
		 "properties": { 
			 "R2extent": 5735.799, 
			 "electric_dipole_moment_norm": 1.00654572176, 
			 "electric_quadrupole_moment_norm": 12.1809700463, 
			 "total_energy": -1070.66465106, 
			 "HOMO_LUMO_gap": 0.20115, 
			 "cosmo_polarized_energy": -9.72, 
			 "cosmo_cavitation_energy": 35.37, 
			 "cosmo_dispersion_energy": -26.05, 
			 "cosmo_repulsion_energy": 1.97, 
			 "cosmo_total_nonelectrostatic_energy": 11.3, 
			 "SMD_solvation_energy": 4.4 
		},
		"coords": [
			{
				"x": -3.5313519341,
				"y": -0.4806384818,
				"z": 2.8562957136,
				"element": "C" 
			},
			{
				"x": -2.1588161014,
				"y": -0.6785879005,
				"z": 3.1495984825,
				"element": "O" 
			},
			{
				"x": -1.2593959037,
				"y": -0.5662729965,
				"z": 2.126900015,
				"element": "C" 
			},
			{
				"x": 0.0865660409,
				"y": -0.7695134298,
				"z": 2.4744640027,
				"element": "C" 
			},
			{
				"x": 1.0754044243,
				"y": -0.6780759846,
				"z": 1.5074496408,
				"element": "C" 
			},
			{
				"x": 0.7636428064,
				"y": -0.3878492763,
				"z": 0.166869688,
				"element": "C" 
			},
			{
				"x": -0.5758139196,
				"y": -0.1827392225,
				"z": -0.1615025579,
				"element": "C" 
			},
			{
				"x": -1.5890104612,
				"y": -0.2697693016,
				"z": 0.8024531093,
				"element": "C" 
			},
			{
				"x": 1.9085985812,
				"y": -0.3151273455,
				"z": -0.8492696097,
				"element": "C" 
			},
			{
				"x": 2.9077292606,
				"y": 0.6800032783,
				"z": -0.4007134086,
				"element": "N" 
			},
			{
				"x": 2.5135858935,
				"y": 2.0509075445,
				"z": -0.7345817532,
				"element": "C" 
			},
			{
				"x": 2.3773130235,
				"y": 2.3098333599,
				"z": -2.2529471271,
				"element": "C" 
			},
			{
				"x": 1.6837176669,
				"y": 1.139353572,
				"z": -2.8918295018,
				"element": "C" 
			},
			{
				"x": 1.4605351755,
				"y": -0.0678097093,
				"z": -2.2798630261,
				"element": "C" 
			},
			{
				"x": 0.8111707103,
				"y": -1.014055263,
				"z": -3.1415559647,
				"element": "C" 
			},
			{
				"x": 0.5595696903,
				"y": -0.5164171632,
				"z": -4.3873055926,
				"element": "C" 
			},
			{
				"x": 1.1085543883,
				"y": 1.1270162998,
				"z": -4.5406253247,
				"element": "S" 
			},
			{
				"x": -3.9004274353,
				"y": -1.2121900285,
				"z": 2.1254095621,
				"element": "H" 
			},
			{
				"x": -4.0650496155,
				"y": -0.6156186899,
				"z": 3.7985924776,
				"element": "H" 
			},
			{
				"x": -3.7238272522,
				"y": 0.5309461626,
				"z": 2.475255103,
				"element": "H" 
			},
			{
				"x": 0.3256286655,
				"y": -0.994578856,
				"z": 3.5090103389,
				"element": "H" 
			},
			{
				"x": 2.1158932605,
				"y": -0.815252988,
				"z": 1.7865834477,
				"element": "H" 
			},
			{
				"x": -0.850111005,
				"y": 0.0478986457,
				"z": -1.1858030866,
				"element": "H" 
			},
			{
				"x": -2.6175994452,
				"y": -0.1019976159,
				"z": 0.5053324053,
				"element": "H" 
			},
			{
				"x": 2.4240483016,
				"y": -1.2855435669,
				"z": -0.8202966209,
				"element": "H" 
			},
			{
				"x": 3.7946558794,
				"y": 0.4715233788,
				"z": -0.8559694379,
				"element": "H" 
			},
			{
				"x": 3.2431752889,
				"y": 2.7429158799,
				"z": -0.3009914359,
				"element": "H" 
			},
			{
				"x": 1.5531506594,
				"y": 2.2430882044,
				"z": -0.2438483216,
				"element": "H" 
			},
			{
				"x": 3.37206003,
				"y": 2.4495407203,
				"z": -2.7013695813,
				"element": "H" 
			},
			{
				"x": 1.8289140675,
				"y": 3.2443030914,
				"z": -2.4265629613,
				"element": "H" 
			},
			{
				"x": 0.5465029005,
				"y": -2.0209915377,
				"z": -2.8364373407,
				"element": "H" 
			},
			{
				"x": 0.086586358,
				"y": -1.0090007802,
				"z": -5.225441334,
				"element": "H" 
			}
		],
		 "valence_orbital": [ 
			{
				"type": "occ",
				"energy": -0.24407,
				"method": "rhf"
			},
			{
				"type": "occ",
				"energy": -0.24152,
				"method": "rhf"
			},
			{
				"type": "occ",
				"energy": -0.22933,
				"method": "rhf"
			},
			{
				"type": "occ",
				"energy": -0.21653,
				"method": "rhf"
			},
			{
				"type": "occ",
				"energy": -0.20847,
				"method": "rhf"
			},
			{
				"type": "unocc",
				"energy": -0.00732,
				"method": "rhf"
			},
			{
				"type": "unocc",
				"energy": 0.00682,
				"method": "rhf"
			},
			{
				"type": "unocc",
				"energy": 0.01546,
				"method": "rhf"
			},
			{
				"type": "unocc",
				"energy": 0.03297,
				"method": "rhf"
			},
			{
				"type": "unocc",
				"energy": 0.06657,
				"method": "rhf"
			}
		],
		"cosmo_sigma_profile": { 
			"-0.025": 0.0,
			"-0.024": 0.0,
			"-0.023": 0.0,
			"-0.022": 0.0,
			"-0.021": 0.0,
			"-0.02": 0.0,
			"-0.019": 0.0,
			"-0.018": 0.0,
			"-0.017": 0.0,
			"-0.016": 0.0,
			"-0.015": 0.0,
			"-0.014": 0.0,
			"-0.013": 0.0,
			"-0.012": 0.0,
			"-0.011": 0.016601913319,
			"-0.01": 0.956306636805,
			"-0.009": 1.19517175059,
			"-0.008": 2.66608857222,
			"-0.007": 3.55593928888,
			"-0.006": 9.50497475418,
			"-0.005": 20.3659636556,
			"-0.004": 29.1460772847,
			"-0.003": 31.8359236773,
			"-0.002": 26.203002356,
			"-0.001": 20.5807172629,
			"0.0": 15.7930263493,
			"0.001": 16.9670980825,
			"0.002": 16.2417628658,
			"0.003": 17.2102384877,
			"0.004": 19.6295079329,
			"0.005": 21.1463729336,
			"0.006": 15.1546098516,
			"0.007": 3.3796445672,
			"0.008": 2.37591684095,
			"0.009": 1.90857894801,
			"0.01": 2.42502780399,
			"0.011": 1.39039881976,
			"0.012": 0.873710845413,
			"0.013": 0.721688463727,
			"0.014": 0.326275554945,
			"0.015": 0.493061334181,
			"0.016": 0.117041530855,
			"0.017": 0.0,
			"0.018": 0.0,
			"0.019": 0.0,
			"0.02": 0.0,
			"0.021": 0.0,
			"0.022": 0.0,
			"0.023": 0.0,
			"0.024": 0.0,
			"0.025": 0.0
		}
	}
}
