{
	 "smiles": "COC(=O)C1=CC2=C(S1)C=C(F)C=C2", 
	 "Tm": 362.15, 
	 "num_atms": 21, 
	 "gaussian": { 
		 "optdone": 1, 
		 "sigma_profile": "yes", 
		 "theory": "DFT", 
		 "functional": "B3LYP", 
		 "basiset": "6-31G**", 
		 "properties": { 
			 "R2extent": 4944.9896, 
			 "electric_dipole_moment_norm": 3.02916515562, 
			 "electric_quadrupole_moment_norm": 7.52514386308, 
			 "total_energy": -1033.76194397, 
			 "HOMO_LUMO_gap": 0.16589, 
			 "cosmo_polarized_energy": -8.71, 
			 "cosmo_cavitation_energy": 28.18, 
			 "cosmo_dispersion_energy": -21.09, 
			 "cosmo_repulsion_energy": 1.57, 
			 "cosmo_total_nonelectrostatic_energy": 8.65, 
			 "SMD_solvation_energy": 6.41 
		},
		"coords": [
			{
				"x": -3.8991625607,
				"y": 1.8840253412,
				"z": 1.4087927091,
				"element": "C" 
			},
			{
				"x": -2.6542942506,
				"y": 1.1743905083,
				"z": 1.3010592781,
				"element": "O" 
			},
			{
				"x": -2.767183343,
				"y": -0.1255342989,
				"z": 0.9465480952,
				"element": "C" 
			},
			{
				"x": -3.8275822912,
				"y": -0.6807492229,
				"z": 0.7294346989,
				"element": "O" 
			},
			{
				"x": -1.4548044746,
				"y": -0.7845881524,
				"z": 0.8577299403,
				"element": "C" 
			},
			{
				"x": -0.2132859022,
				"y": -0.2607294849,
				"z": 1.0792971367,
				"element": "C" 
			},
			{
				"x": 0.8381877843,
				"y": -1.2163531052,
				"z": 0.8941379319,
				"element": "C" 
			},
			{
				"x": 0.3315784902,
				"y": -2.4911967438,
				"z": 0.5210875219,
				"element": "C" 
			},
			{
				"x": -1.414982914,
				"y": -2.4858132503,
				"z": 0.4071986407,
				"element": "S" 
			},
			{
				"x": 1.1826794171,
				"y": -3.5776353875,
				"z": 0.2878875805,
				"element": "C" 
			},
			{
				"x": 2.5410411511,
				"y": -3.3564287899,
				"z": 0.4364970674,
				"element": "C" 
			},
			{
				"x": 3.3905926611,
				"y": -4.3804420769,
				"z": 0.2198268061,
				"element": "F" 
			},
			{
				"x": 3.0819867134,
				"y": -2.1143589618,
				"z": 0.8030554681,
				"element": "C" 
			},
			{
				"x": 2.2308781458,
				"y": -1.0461007835,
				"z": 1.0314285519,
				"element": "C" 
			},
			{
				"x": -3.6323509675,
				"y": 2.9004445656,
				"z": 1.6974733917,
				"element": "H" 
			},
			{
				"x": -4.4272817571,
				"y": 1.8820383341,
				"z": 0.4520088012,
				"element": "H" 
			},
			{
				"x": -4.5396366462,
				"y": 1.4247712599,
				"z": 2.1659125203,
				"element": "H" 
			},
			{
				"x": -0.0570407313,
				"y": 0.7724983787,
				"z": 1.3648723305,
				"element": "H" 
			},
			{
				"x": 0.8183885296,
				"y": -4.5580401391,
				"z": 0.0027147147,
				"element": "H" 
			},
			{
				"x": 4.1577296485,
				"y": -2.0193808479,
				"z": 0.8993583621,
				"element": "H" 
			},
			{
				"x": 2.6328432976,
				"y": -0.0782171429,
				"z": 1.3157784529,
				"element": "H" 
			}
		],
		 "valence_orbital": [ 
			{
				"type": "occ",
				"energy": -0.30707,
				"method": "rhf"
			},
			{
				"type": "occ",
				"energy": -0.29692,
				"method": "rhf"
			},
			{
				"type": "occ",
				"energy": -0.2817,
				"method": "rhf"
			},
			{
				"type": "occ",
				"energy": -0.24631,
				"method": "rhf"
			},
			{
				"type": "occ",
				"energy": -0.22928,
				"method": "rhf"
			},
			{
				"type": "unocc",
				"energy": -0.06339,
				"method": "rhf"
			},
			{
				"type": "unocc",
				"energy": -0.01962,
				"method": "rhf"
			},
			{
				"type": "unocc",
				"energy": 0.01496,
				"method": "rhf"
			},
			{
				"type": "unocc",
				"energy": 0.01764,
				"method": "rhf"
			},
			{
				"type": "unocc",
				"energy": 0.08124,
				"method": "rhf"
			}
		],
		"cosmo_sigma_profile": { 
			"-0.025": 0.0,
			"-0.024": 0.0,
			"-0.023": 0.0,
			"-0.022": 0.0,
			"-0.021": 0.0,
			"-0.02": 0.0,
			"-0.019": 0.0,
			"-0.018": 0.0,
			"-0.017": 0.0,
			"-0.016": 0.0,
			"-0.015": 0.0,
			"-0.014": 0.0,
			"-0.013": 0.0,
			"-0.012": 0.0,
			"-0.011": 0.0,
			"-0.01": 0.0,
			"-0.009": 0.672540988921,
			"-0.008": 5.45119290738,
			"-0.007": 9.46982823745,
			"-0.006": 12.0135753187,
			"-0.005": 14.2642198961,
			"-0.004": 13.8472962077,
			"-0.003": 14.8463306973,
			"-0.002": 11.5569374058,
			"-0.001": 13.6197985002,
			"0.0": 18.9707788153,
			"0.001": 27.3524643063,
			"0.002": 28.5184340082,
			"0.003": 18.68235353,
			"0.004": 17.4386126952,
			"0.005": 5.01186655824,
			"0.006": 2.90807038454,
			"0.007": 1.89089959696,
			"0.008": 1.49564198216,
			"0.009": 1.85426639727,
			"0.01": 2.06016287764,
			"0.011": 3.943447653,
			"0.012": 3.01275867851,
			"0.013": 0.001157008051,
			"0.014": 0.0,
			"0.015": 0.0,
			"0.016": 0.0,
			"0.017": 0.0,
			"0.018": 0.0,
			"0.019": 0.0,
			"0.02": 0.0,
			"0.021": 0.0,
			"0.022": 0.0,
			"0.023": 0.0,
			"0.024": 0.0,
			"0.025": 0.0
		}
	}
}
