{
	 "smiles": "OC(=O)C1=CC=C(O1)C#CC1=CC=CC=C1", 
	 "Tm": 485.15, 
	 "num_atms": 24, 
	 "gaussian": { 
		 "optdone": 1, 
		 "sigma_profile": "yes", 
		 "theory": "DFT", 
		 "functional": "B3LYP", 
		 "basiset": "6-31G**", 
		 "properties": { 
			 "R2extent": 7049.0463, 
			 "electric_dipole_moment_norm": 6.28724072865, 
			 "electric_quadrupole_moment_norm": 29.2760935239, 
			 "total_energy": -725.808181202, 
			 "HOMO_LUMO_gap": 0.14674, 
			 "cosmo_polarized_energy": -13.31, 
			 "cosmo_cavitation_energy": 31.64, 
			 "cosmo_dispersion_energy": -22.84, 
			 "cosmo_repulsion_energy": 1.8, 
			 "cosmo_total_nonelectrostatic_energy": 10.6, 
			 "SMD_solvation_energy": 7.32 
		},
		"coords": [
			{
				"x": 5.4283207474,
				"y": 2.257693146,
				"z": 0.6948006092,
				"element": "O" 
			},
			{
				"x": 4.7816796201,
				"y": 3.3501501207,
				"z": 0.2206149647,
				"element": "C" 
			},
			{
				"x": 5.3232632412,
				"y": 4.428826684,
				"z": 0.1408313776,
				"element": "O" 
			},
			{
				"x": 3.3846144222,
				"y": 3.1324207343,
				"z": -0.1871529257,
				"element": "C" 
			},
			{
				"x": 2.4434206923,
				"y": 3.9842931407,
				"z": -0.7008055857,
				"element": "C" 
			},
			{
				"x": 1.2698746491,
				"y": 3.2134678152,
				"z": -0.9026883498,
				"element": "C" 
			},
			{
				"x": 1.5601621976,
				"y": 1.9259331834,
				"z": -0.4990672071,
				"element": "C" 
			},
			{
				"x": 2.8618338011,
				"y": 1.87166918,
				"z": -0.0575781858,
				"element": "O" 
			},
			{
				"x": 0.8019990004,
				"y": 0.7464267137,
				"z": -0.4664399585,
				"element": "C" 
			},
			{
				"x": 0.1337919987,
				"y": -0.2706832148,
				"z": -0.4430778603,
				"element": "C" 
			},
			{
				"x": -0.6483988995,
				"y": -1.4585383609,
				"z": -0.4164046063,
				"element": "C" 
			},
			{
				"x": -1.9860829267,
				"y": -1.4432217425,
				"z": -0.8618201744,
				"element": "C" 
			},
			{
				"x": -2.7460624055,
				"y": -2.6087598733,
				"z": -0.8331907169,
				"element": "C" 
			},
			{
				"x": -2.1903678209,
				"y": -3.8018160638,
				"z": -0.3634870323,
				"element": "C" 
			},
			{
				"x": -0.86533211,
				"y": -3.8257041775,
				"z": 0.0798152409,
				"element": "C" 
			},
			{
				"x": -0.095519945,
				"y": -2.6665362309,
				"z": 0.0559588863,
				"element": "C" 
			},
			{
				"x": 4.8320190048,
				"y": 1.4923506017,
				"z": 0.6816439716,
				"element": "H" 
			},
			{
				"x": 2.595140661,
				"y": 5.0341593444,
				"z": -0.9020581556,
				"element": "H" 
			},
			{
				"x": 0.3202517647,
				"y": 3.5459376926,
				"z": -1.2948435803,
				"element": "H" 
			},
			{
				"x": -2.4136545434,
				"y": -0.5146631063,
				"z": -1.2257531857,
				"element": "H" 
			},
			{
				"x": -3.7754570031,
				"y": -2.5867220075,
				"z": -1.1784034794,
				"element": "H" 
			},
			{
				"x": -2.787166661,
				"y": -4.7087735922,
				"z": -0.3430122189,
				"element": "H" 
			},
			{
				"x": -0.430389273,
				"y": -4.7511425439,
				"z": 0.445431142,
				"element": "H" 
			},
			{
				"x": 0.9337597877,
				"y": -2.6804674433,
				"z": 0.3991870305,
				"element": "H" 
			}
		],
		 "valence_orbital": [ 
			{
				"type": "occ",
				"energy": -0.29554,
				"method": "rhf"
			},
			{
				"type": "occ",
				"energy": -0.27783,
				"method": "rhf"
			},
			{
				"type": "occ",
				"energy": -0.27664,
				"method": "rhf"
			},
			{
				"type": "occ",
				"energy": -0.26878,
				"method": "rhf"
			},
			{
				"type": "occ",
				"energy": -0.22141,
				"method": "rhf"
			},
			{
				"type": "unocc",
				"energy": -0.07467,
				"method": "rhf"
			},
			{
				"type": "unocc",
				"energy": -0.02709,
				"method": "rhf"
			},
			{
				"type": "unocc",
				"energy": -0.01724,
				"method": "rhf"
			},
			{
				"type": "unocc",
				"energy": 0.01083,
				"method": "rhf"
			},
			{
				"type": "unocc",
				"energy": 0.02252,
				"method": "rhf"
			}
		],
		"cosmo_sigma_profile": { 
			"-0.025": 0.0,
			"-0.024": 0.0,
			"-0.023": 0.0,
			"-0.022": 0.0,
			"-0.021": 0.0,
			"-0.02": 0.0,
			"-0.019": 0.0,
			"-0.018": 0.0,
			"-0.017": 0.445604626674,
			"-0.016": 0.504242939619,
			"-0.015": 0.442476738325,
			"-0.014": 0.419402314691,
			"-0.013": 0.95893891104,
			"-0.012": 0.862504828953,
			"-0.011": 1.69583126682,
			"-0.01": 0.608015166309,
			"-0.009": 2.93202794916,
			"-0.008": 4.05933590914,
			"-0.007": 8.41967671437,
			"-0.006": 15.0464206403,
			"-0.005": 16.491465942,
			"-0.004": 15.8893398991,
			"-0.003": 13.8606350042,
			"-0.002": 13.6024282999,
			"-0.001": 15.9708660615,
			"0.0": 20.3405592235,
			"0.001": 23.44782095,
			"0.002": 26.8564654001,
			"0.003": 20.89180863,
			"0.004": 20.5194610912,
			"0.005": 4.95589169185,
			"0.006": 2.37695245675,
			"0.007": 2.26013032446,
			"0.008": 2.72877284582,
			"0.009": 3.74602874457,
			"0.01": 5.10821974363,
			"0.011": 5.22430442655,
			"0.012": 4.70611924944,
			"0.013": 1.14807032011,
			"0.014": 0.0,
			"0.015": 0.0,
			"0.016": 0.0,
			"0.017": 0.0,
			"0.018": 0.0,
			"0.019": 0.0,
			"0.02": 0.0,
			"0.021": 0.0,
			"0.022": 0.0,
			"0.023": 0.0,
			"0.024": 0.0,
			"0.025": 0.0
		}
	}
}
