{
	 "smiles": "COC1=C(F)C=C(N)C=C1Br", 
	 "Tm": 345.15, 
	 "num_atms": 18, 
	 "gaussian": { 
		 "optdone": 1, 
		 "sigma_profile": "yes", 
		 "theory": "DFT", 
		 "functional": "B3LYP", 
		 "basiset": "6-31G**", 
		 "properties": { 
			 "R2extent": 3523.5417, 
			 "electric_dipole_moment_norm": 2.93663978043, 
			 "electric_quadrupole_moment_norm": 15.2760060464, 
			 "total_energy": -3072.15626113, 
			 "HOMO_LUMO_gap": 0.19805, 
			 "cosmo_polarized_energy": -10.57, 
			 "cosmo_cavitation_energy": 24.82, 
			 "cosmo_dispersion_energy": -18.43, 
			 "cosmo_repulsion_energy": 1.47, 
			 "cosmo_total_nonelectrostatic_energy": 7.87, 
			 "SMD_solvation_energy": 4.4 
		},
		"coords": [
			{
				"x": -2.5142719278,
				"y": -2.3709327319,
				"z": 1.0673565433,
				"element": "C" 
			},
			{
				"x": -2.3879302759,
				"y": -1.0626030964,
				"z": 1.6362045816,
				"element": "O" 
			},
			{
				"x": -1.4024149584,
				"y": -0.2856067415,
				"z": 1.0954946563,
				"element": "C" 
			},
			{
				"x": -0.0465903591,
				"y": -0.5389372254,
				"z": 1.343039108,
				"element": "C" 
			},
			{
				"x": 0.2680030378,
				"y": -1.6216027088,
				"z": 2.0858090729,
				"element": "F" 
			},
			{
				"x": 0.9779990838,
				"y": 0.2605136134,
				"z": 0.8659039667,
				"element": "C" 
			},
			{
				"x": 0.6652793313,
				"y": 1.3959026986,
				"z": 0.0992533844,
				"element": "C" 
			},
			{
				"x": 1.6787002363,
				"y": 2.1893708311,
				"z": -0.4370116185,
				"element": "N" 
			},
			{
				"x": -0.6837812534,
				"y": 1.6820691177,
				"z": -0.1656493568,
				"element": "C" 
			},
			{
				"x": -1.6852951703,
				"y": 0.845149982,
				"z": 0.3204851342,
				"element": "C" 
			},
			{
				"x": -3.5041051752,
				"y": 1.261004351,
				"z": -0.0686757808,
				"element": "Br" 
			},
			{
				"x": -1.6049148366,
				"y": -2.9603809654,
				"z": 1.2228805107,
				"element": "H" 
			},
			{
				"x": -3.3487305671,
				"y": -2.8469005434,
				"z": 1.5855643255,
				"element": "H" 
			},
			{
				"x": -2.7378351891,
				"y": -2.3124156416,
				"z": -0.0046114908,
				"element": "H" 
			},
			{
				"x": 2.0044549847,
				"y": -0.0062994772,
				"z": 1.0949001954,
				"element": "H" 
			},
			{
				"x": 1.4049845782,
				"y": 3.1319037306,
				"z": -0.6775392191,
				"element": "H" 
			},
			{
				"x": 2.55543382,
				"y": 2.1672368859,
				"z": 0.064962392,
				"element": "H" 
			},
			{
				"x": -0.9525853593,
				"y": 2.5489279212,
				"z": -0.7589664051,
				"element": "H" 
			}
		],
		 "valence_orbital": [ 
			{
				"type": "occ",
				"energy": -0.28988,
				"method": "rhf"
			},
			{
				"type": "occ",
				"energy": -0.28251,
				"method": "rhf"
			},
			{
				"type": "occ",
				"energy": -0.27277,
				"method": "rhf"
			},
			{
				"type": "occ",
				"energy": -0.24157,
				"method": "rhf"
			},
			{
				"type": "occ",
				"energy": -0.20838,
				"method": "rhf"
			},
			{
				"type": "unocc",
				"energy": -0.01033,
				"method": "rhf"
			},
			{
				"type": "unocc",
				"energy": 0.00726,
				"method": "rhf"
			},
			{
				"type": "unocc",
				"energy": 0.00821,
				"method": "rhf"
			},
			{
				"type": "unocc",
				"energy": 0.0712,
				"method": "rhf"
			},
			{
				"type": "unocc",
				"energy": 0.09592,
				"method": "rhf"
			}
		],
		"cosmo_sigma_profile": { 
			"-0.025": 0.0,
			"-0.024": 0.0,
			"-0.023": 0.0,
			"-0.022": 0.0,
			"-0.021": 0.0,
			"-0.02": 0.0,
			"-0.019": 0.0,
			"-0.018": 0.0,
			"-0.017": 0.0,
			"-0.016": 0.0,
			"-0.015": 0.0,
			"-0.014": 0.020928929251,
			"-0.013": 1.73643742154,
			"-0.012": 3.37447107579,
			"-0.011": 3.01868896357,
			"-0.01": 3.20959947955,
			"-0.009": 3.81430689253,
			"-0.008": 4.40143820291,
			"-0.007": 3.73404778791,
			"-0.006": 5.0987796687,
			"-0.005": 7.99019760826,
			"-0.004": 11.6631981398,
			"-0.003": 14.0781209425,
			"-0.002": 13.3930746968,
			"-0.001": 8.44341871645,
			"0.0": 11.3546502907,
			"0.001": 14.4475542443,
			"0.002": 18.778349686,
			"0.003": 21.4711383182,
			"0.004": 22.4904727099,
			"0.005": 10.316873691,
			"0.006": 3.72455082846,
			"0.007": 3.12999437615,
			"0.008": 2.25105158112,
			"0.009": 1.91631050105,
			"0.01": 3.1336535255,
			"0.011": 1.82864519107,
			"0.012": 1.31113273559,
			"0.013": 0.557660768304,
			"0.014": 0.297424616058,
			"0.015": 0.0,
			"0.016": 0.0,
			"0.017": 0.0,
			"0.018": 0.0,
			"0.019": 0.0,
			"0.02": 0.0,
			"0.021": 0.0,
			"0.022": 0.0,
			"0.023": 0.0,
			"0.024": 0.0,
			"0.025": 0.0
		}
	}
}
