{
	 "smiles": "CC1=NC(N)=NN1", 
	 "Tm": 416.15, 
	 "num_atms": 13, 
	 "gaussian": { 
		 "optdone": 1, 
		 "sigma_profile": "yes", 
		 "theory": "DFT", 
		 "functional": "B3LYP", 
		 "basiset": "6-31G**", 
		 "properties": { 
			 "R2extent": 993.1552, 
			 "electric_dipole_moment_norm": 2.31813487528, 
			 "electric_quadrupole_moment_norm": 11.6371537882, 
			 "total_energy": -336.938582479, 
			 "HOMO_LUMO_gap": 0.23153, 
			 "cosmo_polarized_energy": -14.93, 
			 "cosmo_cavitation_energy": 17.06, 
			 "cosmo_dispersion_energy": -13.15, 
			 "cosmo_repulsion_energy": 1.14, 
			 "cosmo_total_nonelectrostatic_energy": 5.06, 
			 "SMD_solvation_energy": 0.26 
		},
		"coords": [
			{
				"x": 2.5272769531,
				"y": -0.6795306197,
				"z": 0.9309237931,
				"element": "C" 
			},
			{
				"x": 1.039237926,
				"y": -0.7230501389,
				"z": 1.0462208362,
				"element": "C" 
			},
			{
				"x": 0.1659123634,
				"y": -0.4110473926,
				"z": 0.0978148421,
				"element": "N" 
			},
			{
				"x": -1.0393414188,
				"y": -0.6317260226,
				"z": 0.7052623991,
				"element": "C" 
			},
			{
				"x": -2.2328278502,
				"y": -0.4744683585,
				"z": 0.0245301676,
				"element": "N" 
			},
			{
				"x": -0.9794064295,
				"y": -1.0505085982,
				"z": 1.9655073159,
				"element": "N" 
			},
			{
				"x": 0.3768437736,
				"y": -1.1061779835,
				"z": 2.1574477691,
				"element": "N" 
			},
			{
				"x": 2.8800235783,
				"y": -1.4211781151,
				"z": 0.2072345058,
				"element": "H" 
			},
			{
				"x": 2.8515463142,
				"y": 0.3036037939,
				"z": 0.5787020669,
				"element": "H" 
			},
			{
				"x": 3.008909241,
				"y": -0.8803821971,
				"z": 1.8919932302,
				"element": "H" 
			},
			{
				"x": -2.1722057068,
				"y": 0.1960585123,
				"z": -0.7289015139,
				"element": "H" 
			},
			{
				"x": -3.0300053959,
				"y": -0.3283544555,
				"z": 0.6282783341,
				"element": "H" 
			},
			{
				"x": 0.7435366516,
				"y": -1.4035384245,
				"z": 3.0480862536,
				"element": "H" 
			}
		],
		 "valence_orbital": [ 
			{
				"type": "occ",
				"energy": -0.32703,
				"method": "rhf"
			},
			{
				"type": "occ",
				"energy": -0.31506,
				"method": "rhf"
			},
			{
				"type": "occ",
				"energy": -0.26758,
				"method": "rhf"
			},
			{
				"type": "occ",
				"energy": -0.26286,
				"method": "rhf"
			},
			{
				"type": "occ",
				"energy": -0.20668,
				"method": "rhf"
			},
			{
				"type": "unocc",
				"energy": 0.02485,
				"method": "rhf"
			},
			{
				"type": "unocc",
				"energy": 0.07616,
				"method": "rhf"
			},
			{
				"type": "unocc",
				"energy": 0.08059,
				"method": "rhf"
			},
			{
				"type": "unocc",
				"energy": 0.10533,
				"method": "rhf"
			},
			{
				"type": "unocc",
				"energy": 0.12191,
				"method": "rhf"
			}
		],
		"cosmo_sigma_profile": { 
			"-0.025": 0.0,
			"-0.024": 0.0,
			"-0.023": 0.0,
			"-0.022": 0.0,
			"-0.021": 0.0,
			"-0.02": 0.0,
			"-0.019": 0.0,
			"-0.018": 0.0,
			"-0.017": 0.304418057213,
			"-0.016": 1.62768183439,
			"-0.015": 1.04637791243,
			"-0.014": 1.26406280532,
			"-0.013": 2.02523900186,
			"-0.012": 3.43092329175,
			"-0.011": 3.01403794116,
			"-0.01": 3.72918541203,
			"-0.009": 3.50123489701,
			"-0.008": 3.09199115844,
			"-0.007": 2.76682588794,
			"-0.006": 5.79024234871,
			"-0.005": 7.71724203236,
			"-0.004": 7.83120615797,
			"-0.003": 7.5336173688,
			"-0.002": 11.4116808743,
			"-0.001": 7.32756224022,
			"0.0": 4.7185891901,
			"0.001": 4.48988169377,
			"0.002": 4.69095964375,
			"0.003": 5.3579205209,
			"0.004": 4.19448504305,
			"0.005": 3.56226749317,
			"0.006": 3.2904633299,
			"0.007": 3.84399664866,
			"0.008": 3.9696477129,
			"0.009": 3.17426290898,
			"0.01": 2.72827291045,
			"0.011": 3.46594076799,
			"0.012": 3.51613069377,
			"0.013": 2.79292487222,
			"0.014": 2.17340836513,
			"0.015": 2.33973005839,
			"0.016": 2.0350710621,
			"0.017": 0.902387331359,
			"0.018": 0.110345542551,
			"0.019": 0.0,
			"0.02": 0.0,
			"0.021": 0.0,
			"0.022": 0.0,
			"0.023": 0.0,
			"0.024": 0.0,
			"0.025": 0.0
		}
	}
}
