{
	 "smiles": "CCOC(=O)C(=NNC1=CC=C(C=C1)[N+]([O-])=O)C(=O)C(F)(F)F", 
	 "Tm": 457.15, 
	 "num_atms": 33, 
	 "gaussian": { 
		 "optdone": 1, 
		 "sigma_profile": "yes", 
		 "theory": "DFT", 
		 "functional": "B3LYP", 
		 "basiset": "6-31G**", 
		 "properties": { 
			 "R2extent": 12518.1599, 
			 "electric_dipole_moment_norm": 6.62215312493, 
			 "electric_quadrupole_moment_norm": 32.0546013444, 
			 "total_energy": -1303.05913552, 
			 "HOMO_LUMO_gap": 0.13995, 
			 "cosmo_polarized_energy": -20.54, 
			 "cosmo_cavitation_energy": 41.79, 
			 "cosmo_dispersion_energy": -28.49, 
			 "cosmo_repulsion_energy": 2.13, 
			 "cosmo_total_nonelectrostatic_energy": 15.43, 
			 "SMD_solvation_energy": 11.72 
		},
		"coords": [
			{
				"x": 3.026190328,
				"y": -0.8093995039,
				"z": 2.1239363551,
				"element": "C" 
			},
			{
				"x": 3.4393393644,
				"y": -0.8962615941,
				"z": 0.6642716747,
				"element": "C" 
			},
			{
				"x": 2.4673833186,
				"y": -0.2402005264,
				"z": -0.2052793689,
				"element": "O" 
			},
			{
				"x": 2.6087714733,
				"y": 1.1064681584,
				"z": -0.3612931144,
				"element": "C" 
			},
			{
				"x": 3.4813309124,
				"y": 1.7542298073,
				"z": 0.1737447774,
				"element": "O" 
			},
			{
				"x": 1.5590328222,
				"y": 1.7069865248,
				"z": -1.2292021905,
				"element": "C" 
			},
			{
				"x": 0.4164776413,
				"y": 1.1883628147,
				"z": -1.5907147588,
				"element": "N" 
			},
			{
				"x": 0.0498610292,
				"y": -0.0369973551,
				"z": -1.3044641788,
				"element": "N" 
			},
			{
				"x": -1.1948177827,
				"y": -0.5235961876,
				"z": -1.7220067447,
				"element": "C" 
			},
			{
				"x": -2.1087290015,
				"y": 0.2932965714,
				"z": -2.4074086963,
				"element": "C" 
			},
			{
				"x": -3.3314619478,
				"y": -0.2331349505,
				"z": -2.7987862632,
				"element": "C" 
			},
			{
				"x": -3.6332495366,
				"y": -1.5640149104,
				"z": -2.5031164585,
				"element": "C" 
			},
			{
				"x": -2.7353548471,
				"y": -2.3842618823,
				"z": -1.8212632243,
				"element": "C" 
			},
			{
				"x": -1.5110327245,
				"y": -1.8600735341,
				"z": -1.4299080842,
				"element": "C" 
			},
			{
				"x": -4.9265927205,
				"y": -2.1150464692,
				"z": -2.9181159101,
				"element": "N" 
			},
			{
				"x": -5.6988022862,
				"y": -1.36863413,
				"z": -3.5197680785,
				"element": "O" 
			},
			{
				"x": -5.1614161909,
				"y": -3.2917431643,
				"z": -2.6393867672,
				"element": "O" 
			},
			{
				"x": 1.7257446581,
				"y": 3.124761537,
				"z": -1.6964532936,
				"element": "C" 
			},
			{
				"x": 0.7900010077,
				"y": 3.8719369588,
				"z": -1.8701449655,
				"element": "O" 
			},
			{
				"x": 3.1442194453,
				"y": 3.6310589332,
				"z": -2.0888273359,
				"element": "C" 
			},
			{
				"x": 3.9438596475,
				"y": 2.6108225836,
				"z": -2.4673075309,
				"element": "F" 
			},
			{
				"x": 3.033968294,
				"y": 4.4706988846,
				"z": -3.1278623067,
				"element": "F" 
			},
			{
				"x": 3.7296511512,
				"y": 4.290107335,
				"z": -1.0801673295,
				"element": "F" 
			},
			{
				"x": 3.7416387797,
				"y": -1.3652084293,
				"z": 2.7385387315,
				"element": "H" 
			},
			{
				"x": 3.0196569448,
				"y": 0.2288832672,
				"z": 2.4630766157,
				"element": "H" 
			},
			{
				"x": 2.033954799,
				"y": -1.2428612553,
				"z": 2.2814750915,
				"element": "H" 
			},
			{
				"x": 4.4115853704,
				"y": -0.4308858106,
				"z": 0.4944611845,
				"element": "H" 
			},
			{
				"x": 3.4602225212,
				"y": -1.9271887137,
				"z": 0.3050386317,
				"element": "H" 
			},
			{
				"x": 0.6902539361,
				"y": -0.6480772514,
				"z": -0.7977018465,
				"element": "H" 
			},
			{
				"x": -1.8470801211,
				"y": 1.3227185646,
				"z": -2.6183594643,
				"element": "H" 
			},
			{
				"x": -4.0587148593,
				"y": 0.369440797,
				"z": -3.3283475834,
				"element": "H" 
			},
			{
				"x": -3.0064689094,
				"y": -3.4109700164,
				"z": -1.6107990055,
				"element": "H" 
			},
			{
				"x": -0.7982225169,
				"y": -2.4850170531,
				"z": -0.8992585619,
				"element": "H" 
			}
		],
		 "valence_orbital": [ 
			{
				"type": "occ",
				"energy": -0.30476,
				"method": "rhf"
			},
			{
				"type": "occ",
				"energy": -0.29432,
				"method": "rhf"
			},
			{
				"type": "occ",
				"energy": -0.2925,
				"method": "rhf"
			},
			{
				"type": "occ",
				"energy": -0.28192,
				"method": "rhf"
			},
			{
				"type": "occ",
				"energy": -0.25155,
				"method": "rhf"
			},
			{
				"type": "unocc",
				"energy": -0.1116,
				"method": "rhf"
			},
			{
				"type": "unocc",
				"energy": -0.08028,
				"method": "rhf"
			},
			{
				"type": "unocc",
				"energy": -0.05183,
				"method": "rhf"
			},
			{
				"type": "unocc",
				"energy": -0.04032,
				"method": "rhf"
			},
			{
				"type": "unocc",
				"energy": 0.00324,
				"method": "rhf"
			}
		],
		"cosmo_sigma_profile": { 
			"-0.025": 0.0,
			"-0.024": 0.0,
			"-0.023": 0.0,
			"-0.022": 0.0,
			"-0.021": 0.0,
			"-0.02": 0.0,
			"-0.019": 0.0,
			"-0.018": 0.0,
			"-0.017": 0.0,
			"-0.016": 0.00766238739515,
			"-0.015": 0.441000418016,
			"-0.014": 1.00355048007,
			"-0.013": 0.91046217654,
			"-0.012": 0.744720153266,
			"-0.011": 0.944531174036,
			"-0.01": 2.04439645519,
			"-0.009": 2.41227044715,
			"-0.008": 5.24297045622,
			"-0.007": 11.1770589423,
			"-0.006": 13.8787371781,
			"-0.005": 18.662698999,
			"-0.004": 26.4108505001,
			"-0.003": 25.6575948,
			"-0.002": 27.3513778169,
			"-0.001": 27.7065297811,
			"0.0": 29.5778734663,
			"0.001": 25.37434122,
			"0.002": 31.1691500501,
			"0.003": 13.6436837893,
			"0.004": 6.51108927204,
			"0.005": 7.71659482321,
			"0.006": 8.72012931384,
			"0.007": 10.9788336359,
			"0.008": 13.5962031744,
			"0.009": 11.4585605005,
			"0.01": 9.73043351116,
			"0.011": 2.182138071,
			"0.012": 0.0544883367654,
			"0.013": 0.0,
			"0.014": 0.0,
			"0.015": 0.0,
			"0.016": 0.0,
			"0.017": 0.0,
			"0.018": 0.0,
			"0.019": 0.0,
			"0.02": 0.0,
			"0.021": 0.0,
			"0.022": 0.0,
			"0.023": 0.0,
			"0.024": 0.0,
			"0.025": 0.0
		}
	}
}
