{
	 "smiles": "COC1=CC=C(C=C1)C(=O)CCC(O)=O", 
	 "Tm": 422.15, 
	 "num_atms": 27, 
	 "gaussian": { 
		 "optdone": 1, 
		 "sigma_profile": "yes", 
		 "theory": "DFT", 
		 "functional": "B3LYP", 
		 "basiset": "6-31G**", 
		 "properties": { 
			 "R2extent": 5264.4824, 
			 "electric_dipole_moment_norm": 8.84728189559, 
			 "electric_quadrupole_moment_norm": 32.5280693888, 
			 "total_energy": -727.309372198, 
			 "HOMO_LUMO_gap": 0.17159, 
			 "cosmo_polarized_energy": -17.53, 
			 "cosmo_cavitation_energy": 31.12, 
			 "cosmo_dispersion_energy": -22.87, 
			 "cosmo_repulsion_energy": 1.78, 
			 "cosmo_total_nonelectrostatic_energy": 10.03, 
			 "SMD_solvation_energy": 7.44 
		},
		"coords": [
			{
				"x": 4.3353073783,
				"y": -2.1038266966,
				"z": 1.2197923864,
				"element": "C" 
			},
			{
				"x": 3.4704987199,
				"y": -2.1913561941,
				"z": 0.091969278,
				"element": "O" 
			},
			{
				"x": 2.304330702,
				"y": -1.5037484794,
				"z": 0.1090950574,
				"element": "C" 
			},
			{
				"x": 1.8714047921,
				"y": -0.6926585481,
				"z": 1.1712620797,
				"element": "C" 
			},
			{
				"x": 0.6513083683,
				"y": -0.0351459145,
				"z": 1.0751507447,
				"element": "C" 
			},
			{
				"x": -0.1604223027,
				"y": -0.1575851692,
				"z": -0.0645716667,
				"element": "C" 
			},
			{
				"x": 0.2894989925,
				"y": -0.9762480139,
				"z": -1.1205465957,
				"element": "C" 
			},
			{
				"x": 1.5010044815,
				"y": -1.6411403989,
				"z": -1.0371782947,
				"element": "C" 
			},
			{
				"x": -1.4518011688,
				"y": 0.5657159318,
				"z": -0.0908239342,
				"element": "C" 
			},
			{
				"x": -1.8012372106,
				"y": 1.2487780635,
				"z": 0.8770353147,
				"element": "O" 
			},
			{
				"x": -2.3416911969,
				"y": 0.4619019465,
				"z": -1.3245479761,
				"element": "C" 
			},
			{
				"x": -3.5142536312,
				"y": 1.4608396956,
				"z": -1.3677464046,
				"element": "C" 
			},
			{
				"x": -4.7144877733,
				"y": 1.0978831793,
				"z": -0.4867939062,
				"element": "C" 
			},
			{
				"x": -4.4980410554,
				"y": 1.1239561396,
				"z": 0.8389243634,
				"element": "O" 
			},
			{
				"x": -5.7960281205,
				"y": 0.8118990452,
				"z": -0.9477567981,
				"element": "O" 
			},
			{
				"x": 4.6704910997,
				"y": -1.0735746869,
				"z": 1.3887768154,
				"element": "H" 
			},
			{
				"x": 3.8498433604,
				"y": -2.482175303,
				"z": 2.1272168798,
				"element": "H" 
			},
			{
				"x": 5.1964493614,
				"y": -2.7294487113,
				"z": 0.9833950154,
				"element": "H" 
			},
			{
				"x": 2.4735075302,
				"y": -0.5748075062,
				"z": 2.0639792295,
				"element": "H" 
			},
			{
				"x": 0.3013688231,
				"y": 0.5909880858,
				"z": 1.8888201707,
				"element": "H" 
			},
			{
				"x": -0.3113755506,
				"y": -1.1032030955,
				"z": -2.0147418983,
				"element": "H" 
			},
			{
				"x": 1.8551475969,
				"y": -2.2753536579,
				"z": -1.842646124,
				"element": "H" 
			},
			{
				"x": -1.714272919,
				"y": 0.6172440474,
				"z": -2.2096865022,
				"element": "H" 
			},
			{
				"x": -2.7091157083,
				"y": -0.570569269,
				"z": -1.4030269425,
				"element": "H" 
			},
			{
				"x": -3.8942245779,
				"y": 1.5172415383,
				"z": -2.3888741651,
				"element": "H" 
			},
			{
				"x": -3.1490061229,
				"y": 2.4551069668,
				"z": -1.0847762943,
				"element": "H" 
			},
			{
				"x": -3.5522038683,
				"y": 1.3367870046,
				"z": 1.0083001678,
				"element": "H" 
			}
		],
		 "valence_orbital": [ 
			{
				"type": "occ",
				"energy": -0.28748,
				"method": "rhf"
			},
			{
				"type": "occ",
				"energy": -0.27862,
				"method": "rhf"
			},
			{
				"type": "occ",
				"energy": -0.27688,
				"method": "rhf"
			},
			{
				"type": "occ",
				"energy": -0.24873,
				"method": "rhf"
			},
			{
				"type": "occ",
				"energy": -0.2442,
				"method": "rhf"
			},
			{
				"type": "unocc",
				"energy": -0.07261,
				"method": "rhf"
			},
			{
				"type": "unocc",
				"energy": -0.02567,
				"method": "rhf"
			},
			{
				"type": "unocc",
				"energy": 0.02733,
				"method": "rhf"
			},
			{
				"type": "unocc",
				"energy": 0.02929,
				"method": "rhf"
			},
			{
				"type": "unocc",
				"energy": 0.07506,
				"method": "rhf"
			}
		],
		"cosmo_sigma_profile": { 
			"-0.025": 0.0,
			"-0.024": 0.0,
			"-0.023": 0.0,
			"-0.022": 0.0,
			"-0.021": 0.0,
			"-0.02": 0.0,
			"-0.019": 0.0,
			"-0.018": 0.0,
			"-0.017": 0.0,
			"-0.016": 0.0,
			"-0.015": 0.0,
			"-0.014": 0.0,
			"-0.013": 0.0,
			"-0.012": 0.0,
			"-0.011": 0.0,
			"-0.01": 0.0,
			"-0.009": 0.0,
			"-0.008": 2.50232288907,
			"-0.007": 14.6931379245,
			"-0.006": 25.1854854367,
			"-0.005": 26.8444658651,
			"-0.004": 21.8923873326,
			"-0.003": 17.5333773399,
			"-0.002": 13.6335619436,
			"-0.001": 10.5975195197,
			"0.0": 11.0195237966,
			"0.001": 12.4279636949,
			"0.002": 15.8963374408,
			"0.003": 17.8537952215,
			"0.004": 8.8799839062,
			"0.005": 4.85898801099,
			"0.006": 4.95043120128,
			"0.007": 4.64749849404,
			"0.008": 4.91665258416,
			"0.009": 5.43444602096,
			"0.01": 5.50056704018,
			"0.011": 4.84854925217,
			"0.012": 6.51785641675,
			"0.013": 5.12796063636,
			"0.014": 1.52260809295,
			"0.015": 0.0129296769061,
			"0.016": 0.0,
			"0.017": 0.0,
			"0.018": 0.0,
			"0.019": 0.0,
			"0.02": 0.0,
			"0.021": 0.0,
			"0.022": 0.0,
			"0.023": 0.0,
			"0.024": 0.0,
			"0.025": 0.0
		}
	}
}
