{
	 "smiles": "CC(N)C1=C(C)N(N=C1)C1=CC=C(F)C=C1", 
	 "Tm": 316.15, 
	 "num_atms": 30, 
	 "gaussian": { 
		 "optdone": 1, 
		 "sigma_profile": "yes", 
		 "theory": "DFT", 
		 "functional": "B3LYP", 
		 "basiset": "6-31G**", 
		 "properties": { 
			 "R2extent": 5626.4836, 
			 "electric_dipole_moment_norm": 1.48126779145, 
			 "electric_quadrupole_moment_norm": 13.5938125616, 
			 "total_energy": -729.786993598, 
			 "HOMO_LUMO_gap": 0.19877, 
			 "cosmo_polarized_energy": -11.87, 
			 "cosmo_cavitation_energy": 33.69, 
			 "cosmo_dispersion_energy": -23.63, 
			 "cosmo_repulsion_energy": 1.82, 
			 "cosmo_total_nonelectrostatic_energy": 11.89, 
			 "SMD_solvation_energy": 4.48 
		},
		"coords": [
			{
				"x": 1.8900917009,
				"y": -2.9218033898,
				"z": 0.7045093164,
				"element": "C" 
			},
			{
				"x": 1.9739237922,
				"y": -1.3890103719,
				"z": 0.7549140938,
				"element": "C" 
			},
			{
				"x": 3.2625812626,
				"y": -0.9718453498,
				"z": 0.1703655194,
				"element": "N" 
			},
			{
				"x": 0.7587757298,
				"y": -0.7376980516,
				"z": 0.1294543305,
				"element": "C" 
			},
			{
				"x": -0.2605358714,
				"y": -0.0342850117,
				"z": 0.7577986095,
				"element": "C" 
			},
			{
				"x": -0.4281446188,
				"y": 0.3214448981,
				"z": 2.2028750808,
				"element": "C" 
			},
			{
				"x": -1.1292796704,
				"y": 0.3612268048,
				"z": -0.2383459829,
				"element": "N" 
			},
			{
				"x": -0.7087937489,
				"y": -0.0342318066,
				"z": -1.4718881365,
				"element": "N" 
			},
			{
				"x": 0.4168093114,
				"y": -0.6972638421,
				"z": -1.2461924434,
				"element": "C" 
			},
			{
				"x": -2.3095227139,
				"y": 1.1483284373,
				"z": -0.1481866059,
				"element": "C" 
			},
			{
				"x": -3.2457309642,
				"y": 0.9380712375,
				"z": 0.8702745818,
				"element": "C" 
			},
			{
				"x": -4.3968299197,
				"y": 1.7232657425,
				"z": 0.9370604358,
				"element": "C" 
			},
			{
				"x": -4.6065620746,
				"y": 2.6930529835,
				"z": -0.0352328616,
				"element": "C" 
			},
			{
				"x": -5.7218787167,
				"y": 3.4494961496,
				"z": 0.0226694882,
				"element": "F" 
			},
			{
				"x": -3.7011055414,
				"y": 2.9007638482,
				"z": -1.0712197634,
				"element": "C" 
			},
			{
				"x": -2.5452747299,
				"y": 2.1272327015,
				"z": -1.1225490292,
				"element": "C" 
			},
			{
				"x": 0.9912067888,
				"y": -3.2825013326,
				"z": 1.2125498143,
				"element": "H" 
			},
			{
				"x": 1.8457738941,
				"y": -3.273043363,
				"z": -0.3333576224,
				"element": "H" 
			},
			{
				"x": 2.7718185439,
				"y": -3.3627444848,
				"z": 1.1780810105,
				"element": "H" 
			},
			{
				"x": 2.0089497406,
				"y": -1.095990136,
				"z": 1.8123315774,
				"element": "H" 
			},
			{
				"x": 3.3014971062,
				"y": 0.0447849363,
				"z": 0.1318486476,
				"element": "H" 
			},
			{
				"x": 3.309186678,
				"y": -1.2854313352,
				"z": -0.7979804946,
				"element": "H" 
			},
			{
				"x": -0.848624703,
				"y": 1.3237181731,
				"z": 2.3252792511,
				"element": "H" 
			},
			{
				"x": -1.08098465,
				"y": -0.3783016785,
				"z": 2.7385414693,
				"element": "H" 
			},
			{
				"x": 0.5436236709,
				"y": 0.3006518551,
				"z": 2.7026133079,
				"element": "H" 
			},
			{
				"x": 0.9519891832,
				"y": -1.1270436139,
				"z": -2.0839581259,
				"element": "H" 
			},
			{
				"x": -3.0928935379,
				"y": 0.1493184783,
				"z": 1.5971199468,
				"element": "H" 
			},
			{
				"x": -5.1348421913,
				"y": 1.5767243146,
				"z": 1.7178959535,
				"element": "H" 
			},
			{
				"x": -3.9037291972,
				"y": 3.6631878406,
				"z": -1.815363356,
				"element": "H" 
			},
			{
				"x": -1.8211945535,
				"y": 2.2600253664,
				"z": -1.9172080128,
				"element": "H" 
			}
		],
		 "valence_orbital": [ 
			{
				"type": "occ",
				"energy": -0.27966,
				"method": "rhf"
			},
			{
				"type": "occ",
				"energy": -0.2684,
				"method": "rhf"
			},
			{
				"type": "occ",
				"energy": -0.2455,
				"method": "rhf"
			},
			{
				"type": "occ",
				"energy": -0.23411,
				"method": "rhf"
			},
			{
				"type": "occ",
				"energy": -0.21812,
				"method": "rhf"
			},
			{
				"type": "unocc",
				"energy": -0.01935,
				"method": "rhf"
			},
			{
				"type": "unocc",
				"energy": -0.01868,
				"method": "rhf"
			},
			{
				"type": "unocc",
				"energy": 0.03149,
				"method": "rhf"
			},
			{
				"type": "unocc",
				"energy": 0.06393,
				"method": "rhf"
			},
			{
				"type": "unocc",
				"energy": 0.07558,
				"method": "rhf"
			}
		],
		"cosmo_sigma_profile": { 
			"-0.025": 0.0,
			"-0.024": 0.0,
			"-0.023": 0.0,
			"-0.022": 0.0,
			"-0.021": 0.0,
			"-0.02": 0.0,
			"-0.019": 0.0,
			"-0.018": 0.0,
			"-0.017": 0.0,
			"-0.016": 0.0,
			"-0.015": 0.0,
			"-0.014": 0.0,
			"-0.013": 0.0,
			"-0.012": 0.0,
			"-0.011": 0.0,
			"-0.01": 0.282978303649,
			"-0.009": 2.28502101283,
			"-0.008": 4.82428775427,
			"-0.007": 11.5999667314,
			"-0.006": 13.2069237163,
			"-0.005": 16.2756208344,
			"-0.004": 17.4916776242,
			"-0.003": 18.8830350969,
			"-0.002": 22.1789245614,
			"-0.001": 23.0444612019,
			"0.0": 22.0676732454,
			"0.001": 24.6789185413,
			"0.002": 19.6059494293,
			"0.003": 18.8645526517,
			"0.004": 18.2833524452,
			"0.005": 8.23380993032,
			"0.006": 4.20264520954,
			"0.007": 3.34676536257,
			"0.008": 2.40506079446,
			"0.009": 2.15988720736,
			"0.01": 1.64239083251,
			"0.011": 2.44428375697,
			"0.012": 1.19204772386,
			"0.013": 2.18009511196,
			"0.014": 1.51400599282,
			"0.015": 1.26926024025,
			"0.016": 0.808072117787,
			"0.017": 0.534751796767,
			"0.018": 0.615602149419,
			"0.019": 0.572428592523,
			"0.02": 0.248934091676,
			"0.021": 0.0,
			"0.022": 0.0,
			"0.023": 0.0,
			"0.024": 0.0,
			"0.025": 0.0
		}
	}
}
