{
	 "smiles": "C1CNC2=CC3=C(CCCN3)C=C2C1", 
	 "Tm": 386.15, 
	 "num_atms": 30, 
	 "gaussian": { 
		 "optdone": 1, 
		 "sigma_profile": "yes", 
		 "theory": "DFT", 
		 "functional": "B3LYP", 
		 "basiset": "6-31G**", 
		 "properties": { 
			 "R2extent": 3490.9238, 
			 "electric_dipole_moment_norm": 1.03508922321, 
			 "electric_quadrupole_moment_norm": 10.5643496795, 
			 "total_energy": -576.443666792, 
			 "HOMO_LUMO_gap": 0.18744, 
			 "cosmo_polarized_energy": -8.61, 
			 "cosmo_cavitation_energy": 29.97, 
			 "cosmo_dispersion_energy": -23.07, 
			 "cosmo_repulsion_energy": 1.81, 
			 "cosmo_total_nonelectrostatic_energy": 8.71, 
			 "SMD_solvation_energy": 1.8 
		},
		"coords": [
			{
				"x": -1.9502921032,
				"y": 3.6388503491,
				"z": -1.6560559325,
				"element": "C" 
			},
			{
				"x": -2.8382330494,
				"y": 3.0713737326,
				"z": -0.5466983167,
				"element": "C" 
			},
			{
				"x": -2.5703006509,
				"y": 1.6467007087,
				"z": -0.4014168243,
				"element": "N" 
			},
			{
				"x": -1.2431712201,
				"y": 1.2056243159,
				"z": -0.3517167631,
				"element": "C" 
			},
			{
				"x": -0.9563213376,
				"y": -0.0823977519,
				"z": 0.118613652,
				"element": "C" 
			},
			{
				"x": 0.3514882645,
				"y": -0.5843499488,
				"z": 0.1313223081,
				"element": "C" 
			},
			{
				"x": 1.4105207107,
				"y": 0.2190295207,
				"z": -0.346510252,
				"element": "C" 
			},
			{
				"x": 2.8308898076,
				"y": -0.3143913143,
				"z": -0.3797980326,
				"element": "C" 
			},
			{
				"x": 3.0108018317,
				"y": -1.5148699694,
				"z": 0.5603723811,
				"element": "C" 
			},
			{
				"x": 1.8669740392,
				"y": -2.5113537933,
				"z": 0.361125029,
				"element": "C" 
			},
			{
				"x": 0.6022389028,
				"y": -1.8542557822,
				"z": 0.6631339143,
				"element": "N" 
			},
			{
				"x": 1.0998344051,
				"y": 1.5007175632,
				"z": -0.8028022637,
				"element": "C" 
			},
			{
				"x": -0.1927991542,
				"y": 2.0263352712,
				"z": -0.8190666526,
				"element": "C" 
			},
			{
				"x": -0.4706781462,
				"y": 3.4393513941,
				"z": -1.2977898304,
				"element": "C" 
			},
			{
				"x": -2.1847429575,
				"y": 3.1173006747,
				"z": -2.5914028165,
				"element": "H" 
			},
			{
				"x": -2.1724372011,
				"y": 4.7011873234,
				"z": -1.8045756656,
				"element": "H" 
			},
			{
				"x": -3.8974606921,
				"y": 3.197986559,
				"z": -0.7966029691,
				"element": "H" 
			},
			{
				"x": -2.6528803795,
				"y": 3.6307543022,
				"z": 0.3881226675,
				"element": "H" 
			},
			{
				"x": -3.1879942208,
				"y": 1.1645096942,
				"z": 0.2372078195,
				"element": "H" 
			},
			{
				"x": -1.7695995968,
				"y": -0.7085950812,
				"z": 0.4830669599,
				"element": "H" 
			},
			{
				"x": 3.0930502915,
				"y": -0.6220868087,
				"z": -1.4033479406,
				"element": "H" 
			},
			{
				"x": 3.538541683,
				"y": 0.4808393519,
				"z": -0.1151104022,
				"element": "H" 
			},
			{
				"x": 3.0035496708,
				"y": -1.1799163623,
				"z": 1.6042161688,
				"element": "H" 
			},
			{
				"x": 3.9714274447,
				"y": -2.0086136655,
				"z": 0.3776695801,
				"element": "H" 
			},
			{
				"x": 1.9786717437,
				"y": -3.3678166154,
				"z": 1.0352480183,
				"element": "H" 
			},
			{
				"x": 1.9012318736,
				"y": -2.9010873698,
				"z": -0.6723581841,
				"element": "H" 
			},
			{
				"x": -0.2019789177,
				"y": -2.4667359231,
				"z": 0.6614457751,
				"element": "H" 
			},
			{
				"x": 1.9136812581,
				"y": 2.1273772522,
				"z": -1.1674997559,
				"element": "H" 
			},
			{
				"x": 0.161535762,
				"y": 3.6756125579,
				"z": -2.1624913589,
				"element": "H" 
			},
			{
				"x": -0.1936480618,
				"y": 4.1625198146,
				"z": -0.5159003129,
				"element": "H" 
			}
		],
		 "valence_orbital": [ 
			{
				"type": "occ",
				"energy": -0.30584,
				"method": "rhf"
			},
			{
				"type": "occ",
				"energy": -0.28906,
				"method": "rhf"
			},
			{
				"type": "occ",
				"energy": -0.25151,
				"method": "rhf"
			},
			{
				"type": "occ",
				"energy": -0.18953,
				"method": "rhf"
			},
			{
				"type": "occ",
				"energy": -0.16667,
				"method": "rhf"
			},
			{
				"type": "unocc",
				"energy": 0.02077,
				"method": "rhf"
			},
			{
				"type": "unocc",
				"energy": 0.03926,
				"method": "rhf"
			},
			{
				"type": "unocc",
				"energy": 0.09058,
				"method": "rhf"
			},
			{
				"type": "unocc",
				"energy": 0.09356,
				"method": "rhf"
			},
			{
				"type": "unocc",
				"energy": 0.11395,
				"method": "rhf"
			}
		],
		"cosmo_sigma_profile": { 
			"-0.025": 0.0,
			"-0.024": 0.0,
			"-0.023": 0.0,
			"-0.022": 0.0,
			"-0.021": 0.0,
			"-0.02": 0.0,
			"-0.019": 0.0,
			"-0.018": 0.0,
			"-0.017": 0.0,
			"-0.016": 0.0,
			"-0.015": 0.0,
			"-0.014": 0.0,
			"-0.013": 0.0,
			"-0.012": 0.878877392965,
			"-0.011": 2.22316772728,
			"-0.01": 2.74081068387,
			"-0.009": 2.39216431001,
			"-0.008": 2.93433082137,
			"-0.007": 2.46724846404,
			"-0.006": 2.99773670848,
			"-0.005": 4.59682455234,
			"-0.004": 8.79479203354,
			"-0.003": 21.1195382078,
			"-0.002": 37.814447474,
			"-0.001": 39.5384955893,
			"0.0": 28.3333746665,
			"0.001": 17.486113068,
			"0.002": 7.82821701059,
			"0.003": 6.20752325245,
			"0.004": 5.78705035456,
			"0.005": 5.57226196034,
			"0.006": 5.59987931814,
			"0.007": 7.44671760254,
			"0.008": 9.46219016817,
			"0.009": 5.95097901031,
			"0.01": 1.37171212826,
			"0.011": 0.893096242789,
			"0.012": 1.41327691321,
			"0.013": 1.16234733822,
			"0.014": 0.237857125827,
			"0.015": 0.0,
			"0.016": 0.0,
			"0.017": 0.0,
			"0.018": 0.0,
			"0.019": 0.0,
			"0.02": 0.0,
			"0.021": 0.0,
			"0.022": 0.0,
			"0.023": 0.0,
			"0.024": 0.0,
			"0.025": 0.0
		}
	}
}
