{
	 "smiles": "OC(=O)C1=C(O)C=CC(NS(=O)(=O)C2=C(Cl)C=CC(=C2)[N+]([O-])=O)=C1", 
	 "Tm": 317.15, 
	 "num_atms": 33, 
	 "gaussian": { 
		 "optdone": 1, 
		 "sigma_profile": "yes", 
		 "theory": "DFT", 
		 "functional": "B3LYP", 
		 "basiset": "6-31G**", 
		 "properties": { 
			 "R2extent": 10168.5392, 
			 "electric_dipole_moment_norm": 1.80097144342, 
			 "electric_quadrupole_moment_norm": 26.3593082106, 
			 "total_energy": -1995.09555349, 
			 "HOMO_LUMO_gap": 0.12214, 
			 "cosmo_polarized_energy": -24.81, 
			 "cosmo_cavitation_energy": 42.93, 
			 "cosmo_dispersion_energy": -30.0, 
			 "cosmo_repulsion_energy": 2.23, 
			 "cosmo_total_nonelectrostatic_energy": 15.17, 
			 "SMD_solvation_energy": 10.14 
		},
		"coords": [
			{
				"x": 0.6550080179,
				"y": -2.5199019106,
				"z": -2.0292698852,
				"element": "O" 
			},
			{
				"x": 1.1287208847,
				"y": -3.4625523495,
				"z": -1.1943673537,
				"element": "C" 
			},
			{
				"x": 1.6118411569,
				"y": -4.509591052,
				"z": -1.6286052245,
				"element": "O" 
			},
			{
				"x": 1.017129106,
				"y": -3.13683979,
				"z": 0.2317093668,
				"element": "C" 
			},
			{
				"x": 1.4849394301,
				"y": -4.082140735,
				"z": 1.1809703371,
				"element": "C" 
			},
			{
				"x": 2.025357428,
				"y": -5.2574915626,
				"z": 0.8350673093,
				"element": "O" 
			},
			{
				"x": 1.3784956975,
				"y": -3.7776720487,
				"z": 2.5490584064,
				"element": "C" 
			},
			{
				"x": 0.8421560665,
				"y": -2.5686899352,
				"z": 2.9577070446,
				"element": "C" 
			},
			{
				"x": 0.3603349375,
				"y": -1.6362696756,
				"z": 2.0205018438,
				"element": "C" 
			},
			{
				"x": -0.2409196265,
				"y": -0.4158207442,
				"z": 2.4646714341,
				"element": "N" 
			},
			{
				"x": 0.5378132112,
				"y": 1.0799618803,
				"z": 2.2313474999,
				"element": "S" 
			},
			{
				"x": 1.8352740165,
				"y": 0.859936636,
				"z": 1.6014950146,
				"element": "O" 
			},
			{
				"x": 0.3859886538,
				"y": 1.805644575,
				"z": 3.4933876557,
				"element": "O" 
			},
			{
				"x": -0.5327178673,
				"y": 1.889436961,
				"z": 1.0093092997,
				"element": "C" 
			},
			{
				"x": -0.2160130691,
				"y": 3.1708461653,
				"z": 0.5196593305,
				"element": "C" 
			},
			{
				"x": 1.1978684335,
				"y": 4.0344888562,
				"z": 1.0464581696,
				"element": "Cl" 
			},
			{
				"x": -1.0494232313,
				"y": 3.7927450601,
				"z": -0.4154744952,
				"element": "C" 
			},
			{
				"x": -2.1994355641,
				"y": 3.155452067,
				"z": -0.867399169,
				"element": "C" 
			},
			{
				"x": -2.5012917495,
				"y": 1.8928155677,
				"z": -0.3673193499,
				"element": "C" 
			},
			{
				"x": -1.6891465588,
				"y": 1.2533504151,
				"z": 0.5639987092,
				"element": "C" 
			},
			{
				"x": -3.7177711793,
				"y": 1.2072396976,
				"z": -0.8334692333,
				"element": "N" 
			},
			{
				"x": -4.4157846164,
				"y": 1.7950263855,
				"z": -1.6574960463,
				"element": "O" 
			},
			{
				"x": -3.9553470109,
				"y": 0.0935344647,
				"z": -0.3702326192,
				"element": "O" 
			},
			{
				"x": 0.4455956029,
				"y": -1.9290330413,
				"z": 0.667195379,
				"element": "C" 
			},
			{
				"x": 0.7890143846,
				"y": -2.8596217131,
				"z": -2.9297076506,
				"element": "H" 
			},
			{
				"x": 2.0237907937,
				"y": -5.3006947843,
				"z": -0.1512719628,
				"element": "H" 
			},
			{
				"x": 1.7413270073,
				"y": -4.5042675757,
				"z": 3.2673848296,
				"element": "H" 
			},
			{
				"x": 0.7895031701,
				"y": -2.3370976052,
				"z": 4.0184037972,
				"element": "H" 
			},
			{
				"x": -0.5802488146,
				"y": -0.4312992632,
				"z": 3.4221614052,
				"element": "H" 
			},
			{
				"x": -0.7869987412,
				"y": 4.7784406647,
				"z": -0.781882642,
				"element": "H" 
			},
			{
				"x": -2.8579564133,
				"y": 3.6187941953,
				"z": -1.5912411063,
				"element": "H" 
			},
			{
				"x": -1.9587021722,
				"y": 0.2741291716,
				"z": 0.9359163225,
				"element": "H" 
			},
			{
				"x": 0.0762986158,
				"y": -1.2286589768,
				"z": -0.0718664169,
				"element": "H" 
			}
		],
		 "valence_orbital": [ 
			{
				"type": "occ",
				"energy": -0.30232,
				"method": "rhf"
			},
			{
				"type": "occ",
				"energy": -0.30135,
				"method": "rhf"
			},
			{
				"type": "occ",
				"energy": -0.28813,
				"method": "rhf"
			},
			{
				"type": "occ",
				"energy": -0.2816,
				"method": "rhf"
			},
			{
				"type": "occ",
				"energy": -0.23269,
				"method": "rhf"
			},
			{
				"type": "unocc",
				"energy": -0.11055,
				"method": "rhf"
			},
			{
				"type": "unocc",
				"energy": -0.06783,
				"method": "rhf"
			},
			{
				"type": "unocc",
				"energy": -0.0641,
				"method": "rhf"
			},
			{
				"type": "unocc",
				"energy": -0.03105,
				"method": "rhf"
			},
			{
				"type": "unocc",
				"energy": -0.01915,
				"method": "rhf"
			}
		],
		"cosmo_sigma_profile": { 
			"-0.025": 0.0,
			"-0.024": 0.0,
			"-0.023": 0.0,
			"-0.022": 0.0,
			"-0.021": 0.0,
			"-0.02": 0.0350400638771,
			"-0.019": 0.605095809463,
			"-0.018": 1.08224907024,
			"-0.017": 0.512746516454,
			"-0.016": 1.63430549071,
			"-0.015": 1.37866644806,
			"-0.014": 1.91027644026,
			"-0.013": 2.29461321755,
			"-0.012": 2.2818534406,
			"-0.011": 2.02154045833,
			"-0.01": 3.15145024606,
			"-0.009": 7.10100718221,
			"-0.008": 8.87357424665,
			"-0.007": 11.7555688832,
			"-0.006": 13.2311658988,
			"-0.005": 14.665829802,
			"-0.004": 20.4829559835,
			"-0.003": 28.9575676039,
			"-0.002": 25.5772320571,
			"-0.001": 21.2496490806,
			"0.0": 20.4995985154,
			"0.001": 21.9394302688,
			"0.002": 23.2098376994,
			"0.003": 14.9501501104,
			"0.004": 10.840183533,
			"0.005": 11.2026243522,
			"0.006": 14.1728139462,
			"0.007": 17.646259033,
			"0.008": 11.0650547888,
			"0.009": 14.8936641126,
			"0.01": 14.407550976,
			"0.011": 4.05259706747,
			"0.012": 0.0481209350095,
			"0.013": 0.0,
			"0.014": 0.0,
			"0.015": 0.0,
			"0.016": 0.0,
			"0.017": 0.0,
			"0.018": 0.0,
			"0.019": 0.0,
			"0.02": 0.0,
			"0.021": 0.0,
			"0.022": 0.0,
			"0.023": 0.0,
			"0.024": 0.0,
			"0.0": 0.0
		}
	}
}
