{
	 "smiles": "CC(C)N1N=CC(C(O)=O)=C1C(F)(F)F", 
	 "Tm": 399.15, 
	 "num_atms": 24, 
	 "gaussian": { 
		 "optdone": 1, 
		 "sigma_profile": "yes", 
		 "theory": "DFT", 
		 "functional": "B3LYP", 
		 "basiset": "6-31G**", 
		 "properties": { 
			 "R2extent": 3440.2721, 
			 "electric_dipole_moment_norm": 5.59867140222, 
			 "electric_quadrupole_moment_norm": 14.9488010091, 
			 "total_energy": -869.745937782, 
			 "HOMO_LUMO_gap": 0.22326, 
			 "cosmo_polarized_energy": -12.9, 
			 "cosmo_cavitation_energy": 28.87, 
			 "cosmo_dispersion_energy": -20.21, 
			 "cosmo_repulsion_energy": 1.52, 
			 "cosmo_total_nonelectrostatic_energy": 10.17, 
			 "SMD_solvation_energy": 6.73 
		},
		"coords": [
			{
				"x": -2.0069356355,
				"y": 0.919838975,
				"z": 1.0154037571,
				"element": "C" 
			},
			{
				"x": -1.589314732,
				"y": -0.1781842134,
				"z": 0.032113366,
				"element": "C" 
			},
			{
				"x": -2.6885054792,
				"y": -0.5338234779,
				"z": -0.9722227141,
				"element": "C" 
			},
			{
				"x": -0.3663818105,
				"y": 0.2433262405,
				"z": -0.6938299934,
				"element": "N" 
			},
			{
				"x": -0.4724165934,
				"y": 1.2363714231,
				"z": -1.5967434739,
				"element": "N" 
			},
			{
				"x": 0.7559446894,
				"y": 1.4331930215,
				"z": -2.0513004434,
				"element": "C" 
			},
			{
				"x": 1.7000590383,
				"y": 0.5689180315,
				"z": -1.448659993,
				"element": "C" 
			},
			{
				"x": 3.1328991818,
				"y": 0.6574476288,
				"z": -1.8636430825,
				"element": "C" 
			},
			{
				"x": 4.0320838763,
				"y": -0.2119535393,
				"z": -1.3634644829,
				"element": "O" 
			},
			{
				"x": 3.4828174331,
				"y": 1.5021812212,
				"z": -2.6577756413,
				"element": "O" 
			},
			{
				"x": 0.922069425,
				"y": -0.1903205802,
				"z": -0.5613496911,
				"element": "C" 
			},
			{
				"x": 1.2262792775,
				"y": -1.2728994449,
				"z": 0.4254506874,
				"element": "C" 
			},
			{
				"x": 0.8569813987,
				"y": -0.930189567,
				"z": 1.6777715831,
				"element": "F" 
			},
			{
				"x": 2.5535560738,
				"y": -1.5680076209,
				"z": 0.4843928967,
				"element": "F" 
			},
			{
				"x": 0.5896366974,
				"y": -2.4250785865,
				"z": 0.1274886958,
				"element": "F" 
			},
			{
				"x": -1.2092832226,
				"y": 1.1187950521,
				"z": 1.7364655289,
				"element": "H" 
			},
			{
				"x": -2.8983112193,
				"y": 0.6050681749,
				"z": 1.5660830798,
				"element": "H" 
			},
			{
				"x": -2.235023817,
				"y": 1.8446072764,
				"z": 0.479237459,
				"element": "H" 
			},
			{
				"x": -1.3179605576,
				"y": -1.0755779596,
				"z": 0.5879893638,
				"element": "H" 
			},
			{
				"x": -3.5745873891,
				"y": -0.880686104,
				"z": -0.4326074871,
				"element": "H" 
			},
			{
				"x": -2.3608421857,
				"y": -1.3311114363,
				"z": -1.6453086018,
				"element": "H" 
			},
			{
				"x": -2.9596067182,
				"y": 0.3373931903,
				"z": -1.572011866,
				"element": "H" 
			},
			{
				"x": 0.9668316431,
				"y": 2.1800742297,
				"z": -2.8023852928,
				"element": "H" 
			},
			{
				"x": 3.6218106255,
				"y": -0.8234819351,
				"z": -0.7369936544,
				"element": "H" 
			}
		],
		 "valence_orbital": [ 
			{
				"type": "occ",
				"energy": -0.31549,
				"method": "rhf"
			},
			{
				"type": "occ",
				"energy": -0.31266,
				"method": "rhf"
			},
			{
				"type": "occ",
				"energy": -0.28674,
				"method": "rhf"
			},
			{
				"type": "occ",
				"energy": -0.27589,
				"method": "rhf"
			},
			{
				"type": "occ",
				"energy": -0.27382,
				"method": "rhf"
			},
			{
				"type": "unocc",
				"energy": -0.05056,
				"method": "rhf"
			},
			{
				"type": "unocc",
				"energy": -0.00223,
				"method": "rhf"
			},
			{
				"type": "unocc",
				"energy": 0.06651,
				"method": "rhf"
			},
			{
				"type": "unocc",
				"energy": 0.08231,
				"method": "rhf"
			},
			{
				"type": "unocc",
				"energy": 0.09243,
				"method": "rhf"
			}
		],
		"cosmo_sigma_profile": { 
			"-0.025": 0.0,
			"-0.024": 0.0,
			"-0.023": 0.0,
			"-0.022": 0.0,
			"-0.021": 0.0,
			"-0.02": 0.0,
			"-0.019": 0.0,
			"-0.018": 0.0,
			"-0.017": 0.00139031667741,
			"-0.016": 0.0428685760537,
			"-0.015": 0.224404866619,
			"-0.014": 0.40398658293,
			"-0.013": 0.381594626532,
			"-0.012": 0.726776693622,
			"-0.011": 2.11549211484,
			"-0.01": 1.69197226234,
			"-0.009": 1.90557042342,
			"-0.008": 2.60292783886,
			"-0.007": 4.4301316125,
			"-0.006": 4.29009046445,
			"-0.005": 11.1162860739,
			"-0.004": 19.5586418933,
			"-0.003": 20.2017117282,
			"-0.002": 22.9144148034,
			"-0.001": 25.4674210242,
			"0.0": 27.8760497691,
			"0.001": 23.9634722483,
			"0.002": 13.3836986967,
			"0.003": 4.57462530128,
			"0.004": 4.19656029627,
			"0.005": 4.06541720519,
			"0.006": 3.76252406755,
			"0.007": 3.7061483717,
			"0.008": 4.22933601048,
			"0.009": 3.49665375571,
			"0.01": 5.69673413525,
			"0.011": 5.99139959601,
			"0.012": 5.03338833616,
			"0.013": 1.8291259802,
			"0.014": 0.0920604352026,
			"0.015": 0.0,
			"0.016": 0.0,
			"0.017": 0.0,
			"0.018": 0.0,
			"0.019": 0.0,
			"0.02": 0.0,
			"0.021": 0.0,
			"0.022": 0.0,
			"0.023": 0.0,
			"0.024": 0.0,
			"0.025": 0.0
		}
	}
}
