{
	 "smiles": "O=C(N1CCNCC1)C1=CSC=C1", 
	 "Tm": 509.15, 
	 "num_atms": 25, 
	 "gaussian": { 
		 "optdone": 1, 
		 "sigma_profile": "yes", 
		 "theory": "DFT", 
		 "functional": "B3LYP", 
		 "basiset": "6-31G**", 
		 "properties": { 
			 "R2extent": 3621.744, 
			 "electric_dipole_moment_norm": 3.57106875599, 
			 "electric_quadrupole_moment_norm": 7.97746836409, 
			 "total_energy": -933.081629196, 
			 "HOMO_LUMO_gap": 0.19289, 
			 "cosmo_polarized_energy": -13.76, 
			 "cosmo_cavitation_energy": 28.65, 
			 "cosmo_dispersion_energy": -21.84, 
			 "cosmo_repulsion_energy": 1.68, 
			 "cosmo_total_nonelectrostatic_energy": 8.49, 
			 "SMD_solvation_energy": 1.93 
		},
		"coords": [
			{
				"x": 0.3280272932,
				"y": -0.73270901,
				"z": -1.5592411432,
				"element": "O" 
			},
			{
				"x": 0.2406620444,
				"y": -0.6449591619,
				"z": -0.3334285586,
				"element": "C" 
			},
			{
				"x": 0.2154175131,
				"y": 0.580300172,
				"z": 0.2877316516,
				"element": "N" 
			},
			{
				"x": 0.4521907105,
				"y": 0.8260328957,
				"z": 1.7161023998,
				"element": "C" 
			},
			{
				"x": 1.3075197332,
				"y": 2.0904895538,
				"z": 1.8776027177,
				"element": "C" 
			},
			{
				"x": 0.7051116933,
				"y": 3.2900387102,
				"z": 1.2815769614,
				"element": "N" 
			},
			{
				"x": -0.2130572518,
				"y": 2.99777833,
				"z": 0.1692235021,
				"element": "C" 
			},
			{
				"x": 0.2433681184,
				"y": 1.7592009618,
				"z": -0.5940472012,
				"element": "C" 
			},
			{
				"x": 0.1347864106,
				"y": -1.8976057502,
				"z": 0.4814226543,
				"element": "C" 
			},
			{
				"x": -0.570659349,
				"y": -2.0999641121,
				"z": 1.644001136,
				"element": "C" 
			},
			{
				"x": -0.5325195389,
				"y": -3.7557778118,
				"z": 2.1448208213,
				"element": "S" 
			},
			{
				"x": 0.4496869331,
				"y": -4.1927076593,
				"z": 0.7789777536,
				"element": "C" 
			},
			{
				"x": 0.7095213037,
				"y": -3.1161682462,
				"z": -0.0150734248,
				"element": "C" 
			},
			{
				"x": -0.49723033,
				"y": 0.9548503583,
				"z": 2.2583329758,
				"element": "H" 
			},
			{
				"x": 0.9660719155,
				"y": -0.0333996959,
				"z": 2.1521130769,
				"element": "H" 
			},
			{
				"x": 2.2868126028,
				"y": 1.9019854779,
				"z": 1.4170027742,
				"element": "H" 
			},
			{
				"x": 1.4921614769,
				"y": 2.2714445322,
				"z": 2.9413329076,
				"element": "H" 
			},
			{
				"x": 0.2196994416,
				"y": 3.8264141198,
				"z": 1.992080353,
				"element": "H" 
			},
			{
				"x": -1.2518206734,
				"y": 2.8324040949,
				"z": 0.5026056783,
				"element": "H" 
			},
			{
				"x": -0.2325434485,
				"y": 3.8498809251,
				"z": -0.5210554867,
				"element": "H" 
			},
			{
				"x": 1.252339374,
				"y": 1.9135758535,
				"z": -1.0001221265,
				"element": "H" 
			},
			{
				"x": -0.4117346087,
				"y": 1.5630326627,
				"z": -1.4445945,
				"element": "H" 
			},
			{
				"x": -1.1428750051,
				"y": -1.3852278272,
				"z": 2.2171090048,
				"element": "H" 
			},
			{
				"x": 0.7670205083,
				"y": -5.2177586272,
				"z": 0.647820252,
				"element": "H" 
			},
			{
				"x": 1.278843133,
				"y": -3.1526507463,
				"z": -0.9350941795,
				"element": "H" 
			}
		],
		 "valence_orbital": [ 
			{
				"type": "occ",
				"energy": -0.25935,
				"method": "rhf"
			},
			{
				"type": "occ",
				"energy": -0.2445,
				"method": "rhf"
			},
			{
				"type": "occ",
				"energy": -0.24232,
				"method": "rhf"
			},
			{
				"type": "occ",
				"energy": -0.23404,
				"method": "rhf"
			},
			{
				"type": "occ",
				"energy": -0.2215,
				"method": "rhf"
			},
			{
				"type": "unocc",
				"energy": -0.02861,
				"method": "rhf"
			},
			{
				"type": "unocc",
				"energy": 0.01626,
				"method": "rhf"
			},
			{
				"type": "unocc",
				"energy": 0.02726,
				"method": "rhf"
			},
			{
				"type": "unocc",
				"energy": 0.0659,
				"method": "rhf"
			},
			{
				"type": "unocc",
				"energy": 0.08903,
				"method": "rhf"
			}
		],
		"cosmo_sigma_profile": { 
			"-0.025": 0.0,
			"-0.024": 0.0,
			"-0.023": 0.0,
			"-0.022": 0.0,
			"-0.021": 0.0,
			"-0.02": 0.0,
			"-0.019": 0.0,
			"-0.018": 0.0,
			"-0.017": 0.0,
			"-0.016": 0.0,
			"-0.015": 0.0,
			"-0.014": 0.0,
			"-0.013": 0.0,
			"-0.012": 0.0,
			"-0.011": 0.116564150424,
			"-0.01": 1.4060056442,
			"-0.009": 3.04140650023,
			"-0.008": 5.68017764892,
			"-0.007": 6.31204634531,
			"-0.006": 7.34355359776,
			"-0.005": 13.0907962227,
			"-0.004": 22.3393442269,
			"-0.003": 29.2353961876,
			"-0.002": 21.4082612164,
			"-0.001": 16.8871774775,
			"0.0": 12.3073615471,
			"0.001": 12.9715648981,
			"0.002": 14.5645904507,
			"0.003": 14.9927715894,
			"0.004": 11.9302039304,
			"0.005": 6.50646032187,
			"0.006": 2.65160325506,
			"0.007": 2.02575278141,
			"0.008": 3.00560655699,
			"0.009": 2.2682515449,
			"0.01": 1.79829683597,
			"0.011": 1.71992741759,
			"0.012": 2.96749679146,
			"0.013": 3.16685496566,
			"0.014": 5.29629849567,
			"0.015": 1.47258704282,
			"0.016": 0.575508471338,
			"0.017": 0.461053587816,
			"0.018": 0.507525268016,
			"0.019": 0.0164455428299,
			"0.02": 0.0,
			"0.021": 0.0,
			"0.022": 0.0,
			"0.023": 0.0,
			"0.024": 0.0,
			"0.025": 0.0
		}
	}
}
