{
	 "smiles": "CC1=CC(C#N)=C(C=C1)N1CCCC1", 
	 "Tm": 316.15, 
	 "num_atms": 28, 
	 "gaussian": { 
		 "optdone": 1, 
		 "sigma_profile": "yes", 
		 "theory": "DFT", 
		 "functional": "B3LYP", 
		 "basiset": "6-31G**", 
		 "properties": { 
			 "R2extent": 3431.0248, 
			 "electric_dipole_moment_norm": 4.65752806647, 
			 "electric_quadrupole_moment_norm": 20.1587961042, 
			 "total_energy": -575.209736279, 
			 "HOMO_LUMO_gap": 0.16297, 
			 "cosmo_polarized_energy": -9.64, 
			 "cosmo_cavitation_energy": 30.41, 
			 "cosmo_dispersion_energy": -21.97, 
			 "cosmo_repulsion_energy": 1.72, 
			 "cosmo_total_nonelectrostatic_energy": 10.17, 
			 "SMD_solvation_energy": 4.82 
		},
		"coords": [
			{
				"x": 1.0364393434,
				"y": 4.6205656941,
				"z": -0.5150129597,
				"element": "C" 
			},
			{
				"x": 0.8016414492,
				"y": 3.1299780741,
				"z": -0.4641741149,
				"element": "C" 
			},
			{
				"x": 1.6727836854,
				"y": 2.2287339298,
				"z": -1.061467123,
				"element": "C" 
			},
			{
				"x": 1.4680085521,
				"y": 0.8325901471,
				"z": -1.0249795645,
				"element": "C" 
			},
			{
				"x": 2.5111530211,
				"y": 0.0359369481,
				"z": -1.5939874736,
				"element": "C" 
			},
			{
				"x": 3.4070541259,
				"y": -0.554079837,
				"z": -2.0495221207,
				"element": "N" 
			},
			{
				"x": 0.3164759864,
				"y": 0.287009326,
				"z": -0.3813457743,
				"element": "C" 
			},
			{
				"x": -0.5480896026,
				"y": 1.221413206,
				"z": 0.2441470537,
				"element": "C" 
			},
			{
				"x": -0.3098995447,
				"y": 2.5855087736,
				"z": 0.2010344803,
				"element": "C" 
			},
			{
				"x": 0.0298100769,
				"y": -1.05699173,
				"z": -0.3291472092,
				"element": "N" 
			},
			{
				"x": -1.0979498715,
				"y": -1.5742969979,
				"z": 0.4533303074,
				"element": "C" 
			},
			{
				"x": -1.0026561474,
				"y": -3.0923726445,
				"z": 0.2697229927,
				"element": "C" 
			},
			{
				"x": -0.4561442563,
				"y": -3.2238313422,
				"z": -1.1586261389,
				"element": "C" 
			},
			{
				"x": 0.5626696835,
				"y": -2.0782766512,
				"z": -1.2507334858,
				"element": "C" 
			},
			{
				"x": 0.2280267665,
				"y": 5.1377590814,
				"z": -1.0457540508,
				"element": "H" 
			},
			{
				"x": 1.0895810525,
				"y": 5.0543225001,
				"z": 0.490377109,
				"element": "H" 
			},
			{
				"x": 1.972524185,
				"y": 4.8575487292,
				"z": -1.0281367437,
				"element": "H" 
			},
			{
				"x": 2.5622631189,
				"y": 2.5919020393,
				"z": -1.5681698394,
				"element": "H" 
			},
			{
				"x": -1.4310618886,
				"y": 0.8652365643,
				"z": 0.7593940925,
				"element": "H" 
			},
			{
				"x": -1.0155058245,
				"y": 3.2512037484,
				"z": 0.6933573989,
				"element": "H" 
			},
			{
				"x": -2.0593832696,
				"y": -1.1958111585,
				"z": 0.0694638101,
				"element": "H" 
			},
			{
				"x": -1.0183208517,
				"y": -1.2685823998,
				"z": 1.5030024818,
				"element": "H" 
			},
			{
				"x": -1.9656666056,
				"y": -3.5886486098,
				"z": 0.415948153,
				"element": "H" 
			},
			{
				"x": -0.2918820715,
				"y": -3.5137380298,
				"z": 0.9893218881,
				"element": "H" 
			},
			{
				"x": -1.2629875029,
				"y": -3.0708864172,
				"z": -1.8844825575,
				"element": "H" 
			},
			{
				"x": -0.0013940976,
				"y": -4.1964997753,
				"z": -1.3631384204,
				"element": "H" 
			},
			{
				"x": 0.6505798619,
				"y": -1.6790265481,
				"z": -2.2655887449,
				"element": "H" 
			},
			{
				"x": 1.5603306258,
				"y": -2.4092666201,
				"z": -0.9418334461,
				"element": "H" 
			}
		],
		 "valence_orbital": [ 
			{
				"type": "occ",
				"energy": -0.32949,
				"method": "rhf"
			},
			{
				"type": "occ",
				"energy": -0.31085,
				"method": "rhf"
			},
			{
				"type": "occ",
				"energy": -0.28594,
				"method": "rhf"
			},
			{
				"type": "occ",
				"energy": -0.25119,
				"method": "rhf"
			},
			{
				"type": "occ",
				"energy": -0.19544,
				"method": "rhf"
			},
			{
				"type": "unocc",
				"energy": -0.03247,
				"method": "rhf"
			},
			{
				"type": "unocc",
				"energy": 0.00643,
				"method": "rhf"
			},
			{
				"type": "unocc",
				"energy": 0.04546,
				"method": "rhf"
			},
			{
				"type": "unocc",
				"energy": 0.07815,
				"method": "rhf"
			},
			{
				"type": "unocc",
				"energy": 0.08632,
				"method": "rhf"
			}
		],
		"cosmo_sigma_profile": { 
			"-0.025": 0.0,
			"-0.024": 0.0,
			"-0.023": 0.0,
			"-0.022": 0.0,
			"-0.021": 0.0,
			"-0.02": 0.0,
			"-0.019": 0.0,
			"-0.018": 0.0,
			"-0.017": 0.0,
			"-0.016": 0.0,
			"-0.015": 0.0,
			"-0.014": 0.0,
			"-0.013": 0.0,
			"-0.012": 0.0,
			"-0.011": 0.0,
			"-0.01": 0.0,
			"-0.009": 0.0,
			"-0.008": 0.0,
			"-0.007": 0.321040858185,
			"-0.006": 4.84249514513,
			"-0.005": 10.6375115406,
			"-0.004": 26.4894325081,
			"-0.003": 35.995584665,
			"-0.002": 33.4664703213,
			"-0.001": 24.1020158052,
			"0.0": 23.5829848002,
			"0.001": 15.7691789185,
			"0.002": 11.1431888509,
			"0.003": 11.3699336047,
			"0.004": 12.3225505389,
			"0.005": 8.24209107328,
			"0.006": 1.77768003038,
			"0.007": 2.20871687589,
			"0.008": 2.42913863319,
			"0.009": 2.6202596048,
			"0.01": 3.30256243742,
			"0.011": 2.62754261248,
			"0.012": 3.04478612527,
			"0.013": 2.40593018051,
			"0.014": 1.69181551612,
			"0.015": 0.0872495599972,
			"0.016": 0.0,
			"0.017": 0.0,
			"0.018": 0.0,
			"0.019": 0.0,
			"0.02": 0.0,
			"0.021": 0.0,
			"0.022": 0.0,
			"0.023": 0.0,
			"0.024": 0.0,
			"0.025": 0.0
		}
	}
}
