{
	 "smiles": "CCC(CC)(CN)NC(=O)OC(C)(C)C", 
	 "Tm": 323.15, 
	 "num_atms": 39, 
	 "gaussian": { 
		 "optdone": 1, 
		 "sigma_profile": "yes", 
		 "theory": "DFT", 
		 "functional": "B3LYP", 
		 "basiset": "6-31G**", 
		 "properties": { 
			 "R2extent": 3843.6983, 
			 "electric_dipole_moment_norm": 3.62473886784, 
			 "electric_quadrupole_moment_norm": 11.0959959485, 
			 "total_energy": -693.625252825, 
			 "HOMO_LUMO_gap": 0.29305, 
			 "cosmo_polarized_energy": -12.69, 
			 "cosmo_cavitation_energy": 37.7, 
			 "cosmo_dispersion_energy": -24.94, 
			 "cosmo_repulsion_energy": 1.94, 
			 "cosmo_total_nonelectrostatic_energy": 14.71, 
			 "SMD_solvation_energy": 6.47 
		},
		"coords": [
			{
				"x": 0.7422424947,
				"y": -1.365806137,
				"z": -3.6843405979,
				"element": "C" 
			},
			{
				"x": -0.1607179121,
				"y": -1.5551502407,
				"z": -2.4603152844,
				"element": "C" 
			},
			{
				"x": -0.1733646992,
				"y": -0.4134646996,
				"z": -1.4018247248,
				"element": "C" 
			},
			{
				"x": -0.6891512554,
				"y": 0.895661085,
				"z": -2.0580711909,
				"element": "C" 
			},
			{
				"x": -0.9144054662,
				"y": 2.0890990335,
				"z": -1.1240018112,
				"element": "C" 
			},
			{
				"x": 1.2510835205,
				"y": -0.2067676576,
				"z": -0.831907474,
				"element": "C" 
			},
			{
				"x": 1.7938833433,
				"y": -1.4206846013,
				"z": -0.2192099731,
				"element": "N" 
			},
			{
				"x": -1.1362173688,
				"y": -0.8873164043,
				"z": -0.3810823774,
				"element": "N" 
			},
			{
				"x": -1.1954489655,
				"y": -0.7788989027,
				"z": 0.9839485656,
				"element": "C" 
			},
			{
				"x": -1.9209274829,
				"y": -1.501416381,
				"z": 1.6534470772,
				"element": "O" 
			},
			{
				"x": -0.4306078454,
				"y": 0.2269144101,
				"z": 1.4737558134,
				"element": "O" 
			},
			{
				"x": -0.3163668637,
				"y": 0.4326748994,
				"z": 2.9251754983,
				"element": "C" 
			},
			{
				"x": -1.6730845781,
				"y": 0.8458262482,
				"z": 3.5067896802,
				"element": "C" 
			},
			{
				"x": 0.2457262352,
				"y": -0.8259580546,
				"z": 3.5959306651,
				"element": "C" 
			},
			{
				"x": 0.6840260782,
				"y": 1.5885029644,
				"z": 3.0231298102,
				"element": "C" 
			},
			{
				"x": 0.4625740508,
				"y": -0.4883017956,
				"z": -4.2743022491,
				"element": "H" 
			},
			{
				"x": 0.66474537,
				"y": -2.2382063408,
				"z": -4.3411117498,
				"element": "H" 
			},
			{
				"x": 1.7971414846,
				"y": -1.2594225828,
				"z": -3.4102179989,
				"element": "H" 
			},
			{
				"x": -1.1935008517,
				"y": -1.697657533,
				"z": -2.807756729,
				"element": "H" 
			},
			{
				"x": 0.1180686431,
				"y": -2.4790993366,
				"z": -1.9400263098,
				"element": "H" 
			},
			{
				"x": 0.0114494506,
				"y": 1.1895978062,
				"z": -2.8493548645,
				"element": "H" 
			},
			{
				"x": -1.6360975958,
				"y": 0.6570312812,
				"z": -2.5594520073,
				"element": "H" 
			},
			{
				"x": -1.3381943247,
				"y": 2.928118478,
				"z": -1.6859340407,
				"element": "H" 
			},
			{
				"x": 0.0160032211,
				"y": 2.4381205995,
				"z": -0.6660797225,
				"element": "H" 
			},
			{
				"x": -1.6063282002,
				"y": 1.836693037,
				"z": -0.3174859148,
				"element": "H" 
			},
			{
				"x": 1.8671576128,
				"y": 0.1929975454,
				"z": -1.6540396554,
				"element": "H" 
			},
			{
				"x": 1.213521865,
				"y": 0.5625589996,
				"z": -0.0631418195,
				"element": "H" 
			},
			{
				"x": 2.1639090366,
				"y": -2.0518281438,
				"z": -0.9243779979,
				"element": "H" 
			},
			{
				"x": 2.5705238496,
				"y": -1.1828660765,
				"z": 0.3897651572,
				"element": "H" 
			},
			{
				"x": -1.7129012345,
				"y": -1.6646421014,
				"z": -0.6704469253,
				"element": "H" 
			},
			{
				"x": -2.0532870744,
				"y": 1.7334919626,
				"z": 2.9908455952,
				"element": "H" 
			},
			{
				"x": -1.559584302,
				"y": 1.0924788539,
				"z": 4.5678092251,
				"element": "H" 
			},
			{
				"x": -2.397800963,
				"y": 0.0384928423,
				"z": 3.4044033414,
				"element": "H" 
			},
			{
				"x": -0.4727855479,
				"y": -1.6441587509,
				"z": 3.5540025606,
				"element": "H" 
			},
			{
				"x": 0.4825250145,
				"y": -0.6104445354,
				"z": 4.6431712176,
				"element": "H" 
			},
			{
				"x": 1.1642935693,
				"y": -1.1420426488,
				"z": 3.091748088,
				"element": "H" 
			},
			{
				"x": 0.8358733114,
				"y": 1.8659206649,
				"z": 4.0705678791,
				"element": "H" 
			},
			{
				"x": 0.3152758322,
				"y": 2.4656054396,
				"z": 2.4832524596,
				"element": "H" 
			},
			{
				"x": 1.6523485483,
				"y": 1.303346774,
				"z": 2.6002387844,
				"element": "H" 
			}
		],
		 "valence_orbital": [ 
			{
				"type": "occ",
				"energy": -0.30968,
				"method": "rhf"
			},
			{
				"type": "occ",
				"energy": -0.27603,
				"method": "rhf"
			},
			{
				"type": "occ",
				"energy": -0.24912,
				"method": "rhf"
			},
			{
				"type": "occ",
				"energy": -0.23593,
				"method": "rhf"
			},
			{
				"type": "occ",
				"energy": -0.23371,
				"method": "rhf"
			},
			{
				"type": "unocc",
				"energy": 0.05934,
				"method": "rhf"
			},
			{
				"type": "unocc",
				"energy": 0.06719,
				"method": "rhf"
			},
			{
				"type": "unocc",
				"energy": 0.08307,
				"method": "rhf"
			},
			{
				"type": "unocc",
				"energy": 0.08894,
				"method": "rhf"
			},
			{
				"type": "unocc",
				"energy": 0.10492,
				"method": "rhf"
			}
		],
		"cosmo_sigma_profile": { 
			"-0.025": 0.0,
			"-0.024": 0.0,
			"-0.023": 0.0,
			"-0.022": 0.0,
			"-0.021": 0.0,
			"-0.02": 0.0,
			"-0.019": 0.0,
			"-0.018": 0.0,
			"-0.017": 0.0,
			"-0.016": 0.0,
			"-0.015": 0.0,
			"-0.014": 0.0,
			"-0.013": 0.0,
			"-0.012": 0.201054070041,
			"-0.011": 0.645090464466,
			"-0.01": 1.25601180663,
			"-0.009": 2.75177008735,
			"-0.008": 3.61839411764,
			"-0.007": 4.28656470441,
			"-0.006": 5.45114985235,
			"-0.005": 4.28557272755,
			"-0.004": 13.8333889753,
			"-0.003": 30.0004403425,
			"-0.002": 38.4028974393,
			"-0.001": 41.1298329569,
			"0.0": 46.2892345824,
			"0.001": 37.433071713,
			"0.002": 15.5837147341,
			"0.003": 5.46912174984,
			"0.004": 5.65978829643,
			"0.005": 5.88597545721,
			"0.006": 4.02424429824,
			"0.007": 2.74658941018,
			"0.008": 3.22676536898,
			"0.009": 2.46398541176,
			"0.01": 2.17325478198,
			"0.011": 1.56773934268,
			"0.012": 2.08823738311,
			"0.013": 3.44184365434,
			"0.014": 4.16727300517,
			"0.015": 1.09434862904,
			"0.016": 0.35896383336,
			"0.017": 0.172350281785,
			"0.018": 0.0,
			"0.019": 0.0,
			"0.02": 0.0,
			"0.021": 0.0,
			"0.022": 0.0,
			"0.023": 0.0,
			"0.024": 0.0,
			"0.025": 0.0
		}
	}
}
