{
	 "smiles": "ClC1=CC=C2N(CC3CC3)C(=O)CN=C(C3=CC=CC=C3)C2=C1", 
	 "Tm": 419.15, 
	 "num_atms": 40, 
	 "gaussian": { 
		 "optdone": 1, 
		 "sigma_profile": "yes", 
		 "theory": "DFT", 
		 "functional": "B3LYP", 
		 "basiset": "6-31G**", 
		 "properties": { 
			 "R2extent": 7895.9867, 
			 "electric_dipole_moment_norm": 2.83387311819, 
			 "electric_quadrupole_moment_norm": 17.5160851928, 
			 "total_energy": -1379.15860226, 
			 "HOMO_LUMO_gap": 0.17105, 
			 "cosmo_polarized_energy": -14.09, 
			 "cosmo_cavitation_energy": 44.58, 
			 "cosmo_dispersion_energy": -29.92, 
			 "cosmo_repulsion_energy": 2.3, 
			 "cosmo_total_nonelectrostatic_energy": 16.96, 
			 "SMD_solvation_energy": 4.64 
		},
		"coords": [
			{
				"x": 2.3709373491,
				"y": 1.9272180681,
				"z": 3.6413868075,
				"element": "Cl" 
			},
			{
				"x": 1.4742711147,
				"y": 0.8769161765,
				"z": 2.5570945823,
				"element": "C" 
			},
			{
				"x": 0.4959373661,
				"y": 0.0250009684,
				"z": 3.0730780244,
				"element": "C" 
			},
			{
				"x": -0.1952935412,
				"y": -0.8114178116,
				"z": 2.2070858713,
				"element": "C" 
			},
			{
				"x": 0.0565154885,
				"y": -0.8125430673,
				"z": 0.8228538057,
				"element": "C" 
			},
			{
				"x": -0.6995455241,
				"y": -1.6730757991,
				"z": -0.0125836031,
				"element": "N" 
			},
			{
				"x": -2.1705591155,
				"y": -1.7685014559,
				"z": 0.1333108029,
				"element": "C" 
			},
			{
				"x": -2.904376719,
				"y": -0.9831974678,
				"z": -0.9332706668,
				"element": "C" 
			},
			{
				"x": -4.2884375649,
				"y": -0.4560244928,
				"z": -0.6423936536,
				"element": "C" 
			},
			{
				"x": -3.1268068408,
				"y": 0.5002538025,
				"z": -0.770666213,
				"element": "C" 
			},
			{
				"x": -0.1290834708,
				"y": -2.485322706,
				"z": -0.9852853603,
				"element": "C" 
			},
			{
				"x": -0.7970371685,
				"y": -3.2719874094,
				"z": -1.6367442082,
				"element": "O" 
			},
			{
				"x": 1.3689885637,
				"y": -2.2798481048,
				"z": -1.2069872782,
				"element": "C" 
			},
			{
				"x": 1.5775609657,
				"y": -0.985795745,
				"z": -1.8403658419,
				"element": "N" 
			},
			{
				"x": 1.4106002863,
				"y": 0.0792741868,
				"z": -1.1378451993,
				"element": "C" 
			},
			{
				"x": 1.6309180705,
				"y": 1.3921007341,
				"z": -1.8140124587,
				"element": "C" 
			},
			{
				"x": 0.9880297725,
				"y": 2.5638872167,
				"z": -1.3838545377,
				"element": "C" 
			},
			{
				"x": 1.177532546,
				"y": 3.7677822278,
				"z": -2.0637318022,
				"element": "C" 
			},
			{
				"x": 2.0153743187,
				"y": 3.8189132822,
				"z": -3.1779575661,
				"element": "C" 
			},
			{
				"x": 2.6572174768,
				"y": 2.6564624729,
				"z": -3.6162048508,
				"element": "C" 
			},
			{
				"x": 2.4640602545,
				"y": 1.4533707426,
				"z": -2.9441201065,
				"element": "C" 
			},
			{
				"x": 1.0471667003,
				"y": 0.0589490505,
				"z": 0.3095457678,
				"element": "C" 
			},
			{
				"x": 1.7480507105,
				"y": 0.8954505519,
				"z": 1.1970132764,
				"element": "C" 
			},
			{
				"x": 0.2935709662,
				"y": 0.0049890079,
				"z": 4.1381054156,
				"element": "H" 
			},
			{
				"x": -0.9307069977,
				"y": -1.4968528638,
				"z": 2.6139100183,
				"element": "H" 
			},
			{
				"x": -2.4439821622,
				"y": -1.3947737088,
				"z": 1.1215547068,
				"element": "H" 
			},
			{
				"x": -2.4395942519,
				"y": -2.8257242085,
				"z": 0.0750406343,
				"element": "H" 
			},
			{
				"x": -2.7236349435,
				"y": -1.3460893605,
				"z": -1.9408323887,
				"element": "H" 
			},
			{
				"x": -5.0264297391,
				"y": -0.4891564456,
				"z": -1.4377271126,
				"element": "H" 
			},
			{
				"x": -4.7018633777,
				"y": -0.6217922538,
				"z": 0.3492540343,
				"element": "H" 
			},
			{
				"x": -3.0665223677,
				"y": 1.1279846704,
				"z": -1.6542885188,
				"element": "H" 
			},
			{
				"x": -2.7624737588,
				"y": 0.9761461184,
				"z": 0.1360522229,
				"element": "H" 
			},
			{
				"x": 1.9066705311,
				"y": -2.3713443377,
				"z": -0.2508706406,
				"element": "H" 
			},
			{
				"x": 1.7025882383,
				"y": -3.069223837,
				"z": -1.8808777687,
				"element": "H" 
			},
			{
				"x": 0.324556262,
				"y": 2.5325449654,
				"z": -0.5257848735,
				"element": "H" 
			},
			{
				"x": 0.6671048981,
				"y": 4.6638999287,
				"z": -1.7229137433,
				"element": "H" 
			},
			{
				"x": 2.1676495629,
				"y": 4.7574373488,
				"z": -3.7032709148,
				"element": "H" 
			},
			{
				"x": 3.3109958122,
				"y": 2.6903291313,
				"z": -4.4830330719,
				"element": "H" 
			},
			{
				"x": 2.9472638496,
				"y": 0.5423726734,
				"z": -3.2793385954,
				"element": "H" 
			},
			{
				"x": 2.510886439,
				"y": 1.56028775,
				"z": 0.8093750045,
				"element": "H" 
			}
		],
		 "valence_orbital": [ 
			{
				"type": "occ",
				"energy": -0.26559,
				"method": "rhf"
			},
			{
				"type": "occ",
				"energy": -0.25704,
				"method": "rhf"
			},
			{
				"type": "occ",
				"energy": -0.25271,
				"method": "rhf"
			},
			{
				"type": "occ",
				"energy": -0.23864,
				"method": "rhf"
			},
			{
				"type": "occ",
				"energy": -0.23116,
				"method": "rhf"
			},
			{
				"type": "unocc",
				"energy": -0.06011,
				"method": "rhf"
			},
			{
				"type": "unocc",
				"energy": -0.03313,
				"method": "rhf"
			},
			{
				"type": "unocc",
				"energy": -0.02581,
				"method": "rhf"
			},
			{
				"type": "unocc",
				"energy": -0.00437,
				"method": "rhf"
			},
			{
				"type": "unocc",
				"energy": 0.01701,
				"method": "rhf"
			}
		],
		"cosmo_sigma_profile": { 
			"-0.025": 0.0,
			"-0.024": 0.0,
			"-0.023": 0.0,
			"-0.022": 0.0,
			"-0.021": 0.0,
			"-0.02": 0.0,
			"-0.019": 0.0,
			"-0.018": 0.0,
			"-0.017": 0.0,
			"-0.016": 0.0,
			"-0.015": 0.0,
			"-0.014": 0.0,
			"-0.013": 0.0,
			"-0.012": 0.0,
			"-0.011": 0.0,
			"-0.01": 0.0,
			"-0.009": 0.318602254341,
			"-0.008": 3.70944287882,
			"-0.007": 6.84303494657,
			"-0.006": 16.6553123379,
			"-0.005": 23.1923170271,
			"-0.004": 32.2733176905,
			"-0.003": 33.1072299244,
			"-0.002": 28.2543875225,
			"-0.001": 29.6597116541,
			"0.0": 29.3587729048,
			"0.001": 33.6740210356,
			"0.002": 28.6203756405,
			"0.003": 22.3161765378,
			"0.004": 25.8444985194,
			"0.005": 17.5699315748,
			"0.006": 3.46171798447,
			"0.007": 3.37275886344,
			"0.008": 2.33419630892,
			"0.009": 3.26100529857,
			"0.01": 1.62475671282,
			"0.011": 2.55954980136,
			"0.012": 4.38449996893,
			"0.013": 4.25898345844,
			"0.014": 1.24199896201,
			"0.015": 0.0,
			"0.016": 0.0,
			"0.017": 0.0,
			"0.018": 0.0,
			"0.019": 0.0,
			"0.02": 0.0,
			"0.021": 0.0,
			"0.022": 0.0,
			"0.023": 0.0,
			"0.024": 0.0,
			"0.025": 0.0
		}
	}
}
