{
	 "smiles": "CC[N+](CC)(CCNC(=O)C(=O)NCC[N+](CC)(CC)CC1=CC=CC=C1Cl)CC1=CC=CC=C1Cl", 
	 "Tm": 470.65, 
	 "num_atms": 78, 
	 "gaussian": { 
		 "optdone": 1, 
		 "sigma_profile": "yes", 
		 "theory": "DFT", 
		 "functional": "B3LYP", 
		 "basiset": "6-31G**", 
		 "properties": { 
			 "R2extent": 34189.2979, 
			 "electric_dipole_moment_norm": 3.22844676122, 
			 "electric_quadrupole_moment_norm": 190.377667587, 
			 "total_energy": -2381.65841765, 
			 "HOMO_LUMO_gap": 0.19079, 
			 "cosmo_polarized_energy": -44.89, 
			 "cosmo_cavitation_energy": 73.64, 
			 "cosmo_dispersion_energy": -49.33, 
			 "cosmo_repulsion_energy": 3.64, 
			 "cosmo_total_nonelectrostatic_energy": 27.96, 
			 "SMD_solvation_energy": 12.12 
		},
		"coords": [
			{
				"x": 4.7233881343,
				"y": 3.9562644086,
				"z": -0.3050812163,
				"element": "C" 
			},
			{
				"x": 4.8263578145,
				"y": 2.4339363448,
				"z": -0.33699814,
				"element": "C" 
			},
			{
				"x": 3.7590377101,
				"y": 1.6667567824,
				"z": -1.1447921043,
				"element": "N" 
			},
			{
				"x": 4.0801289136,
				"y": 0.1759905638,
				"z": -0.922716901,
				"element": "C" 
			},
			{
				"x": 2.981614587,
				"y": -0.836064031,
				"z": -1.2191453075,
				"element": "C" 
			},
			{
				"x": 2.3894950733,
				"y": 2.0327744232,
				"z": -0.5725866812,
				"element": "C" 
			},
			{
				"x": 1.1379072081,
				"y": 1.791163296,
				"z": -1.4473420784,
				"element": "C" 
			},
			{
				"x": -0.0410310397,
				"y": 2.1462901178,
				"z": -0.6821276522,
				"element": "N" 
			},
			{
				"x": -0.773645769,
				"y": 1.2468453875,
				"z": 0.0130936075,
				"element": "C" 
			},
			{
				"x": -0.5079896763,
				"y": 0.04806426,
				"z": 0.1171160286,
				"element": "O" 
			},
			{
				"x": -1.9745273899,
				"y": 1.9533644943,
				"z": 0.6877878823,
				"element": "C" 
			},
			{
				"x": -1.9547754573,
				"y": 3.174735622,
				"z": 0.7781438045,
				"element": "O" 
			},
			{
				"x": -2.9925239023,
				"y": 1.1978943507,
				"z": 1.1801805103,
				"element": "N" 
			},
			{
				"x": -3.295925641,
				"y": -0.2160859471,
				"z": 0.9920437081,
				"element": "C" 
			},
			{
				"x": -2.8246270549,
				"y": -0.9942817095,
				"z": 2.2358693287,
				"element": "C" 
			},
			{
				"x": -3.2903274624,
				"y": -2.4451501804,
				"z": 2.3774446395,
				"element": "N" 
			},
			{
				"x": -2.3736240566,
				"y": -3.0658376237,
				"z": 3.4503721931,
				"element": "C" 
			},
			{
				"x": -2.5957773878,
				"y": -4.5366329951,
				"z": 3.7798023406,
				"element": "C" 
			},
			{
				"x": -3.1805377882,
				"y": -3.203381709,
				"z": 1.0580743361,
				"element": "C" 
			},
			{
				"x": -1.7738712881,
				"y": -3.3027635223,
				"z": 0.4781329431,
				"element": "C" 
			},
			{
				"x": -4.7431872257,
				"y": -2.5401956748,
				"z": 2.9243793428,
				"element": "C" 
			},
			{
				"x": -5.8747814463,
				"y": -1.9808228935,
				"z": 2.099556496,
				"element": "C" 
			},
			{
				"x": -6.4997129853,
				"y": -2.7926091222,
				"z": 1.1351216407,
				"element": "C" 
			},
			{
				"x": -7.6130521018,
				"y": -2.3582482409,
				"z": 0.4205169781,
				"element": "C" 
			},
			{
				"x": -8.1477723399,
				"y": -1.095123045,
				"z": 0.6767305298,
				"element": "C" 
			},
			{
				"x": -7.5719282426,
				"y": -0.2751094892,
				"z": 1.6471967936,
				"element": "C" 
			},
			{
				"x": -6.451257453,
				"y": -0.7192955538,
				"z": 2.3473845757,
				"element": "C" 
			},
			{
				"x": -5.7875350076,
				"y": 0.358845746,
				"z": 3.5764554855,
				"element": "Cl" 
			},
			{
				"x": 3.8311077718,
				"y": 2.0398917438,
				"z": -2.654530502,
				"element": "C" 
			},
			{
				"x": 5.1464639024,
				"y": 1.8006771422,
				"z": -3.3586615646,
				"element": "C" 
			},
			{
				"x": 6.1928938863,
				"y": 2.7390956058,
				"z": -3.2644004452,
				"element": "C" 
			},
			{
				"x": 7.3922639851,
				"y": 2.5782318692,
				"z": -3.9511999649,
				"element": "C" 
			},
			{
				"x": 7.5715475894,
				"y": 1.4693656984,
				"z": -4.7790521679,
				"element": "C" 
			},
			{
				"x": 6.5435504892,
				"y": 0.541513107,
				"z": -4.9305035106,
				"element": "C" 
			},
			{
				"x": 5.3470024471,
				"y": 0.7129667219,
				"z": -4.2341150418,
				"element": "C" 
			},
			{
				"x": 4.073943499,
				"y": -0.4618056872,
				"z": -4.5502232066,
				"element": "Cl" 
			},
			{
				"x": 5.6543796526,
				"y": 4.3295924763,
				"z": 0.1323025741,
				"element": "H" 
			},
			{
				"x": 4.6247514339,
				"y": 4.4192618821,
				"z": -1.2888325119,
				"element": "H" 
			},
			{
				"x": 3.9131284193,
				"y": 4.3185162704,
				"z": 0.3311410921,
				"element": "H" 
			},
			{
				"x": 4.7549213054,
				"y": 2.0422363035,
				"z": 0.6799150343,
				"element": "H" 
			},
			{
				"x": 5.7809784644,
				"y": 2.1120435286,
				"z": -0.7537579644,
				"element": "H" 
			},
			{
				"x": 4.3672149421,
				"y": 0.0994303532,
				"z": 0.1278368083,
				"element": "H" 
			},
			{
				"x": 4.9678064183,
				"y": -0.0171464437,
				"z": -1.5270262776,
				"element": "H" 
			},
			{
				"x": 3.4205120049,
				"y": -1.8246607414,
				"z": -1.0526209499,
				"element": "H" 
			},
			{
				"x": 2.1225191344,
				"y": -0.743367241,
				"z": -0.5506801616,
				"element": "H" 
			},
			{
				"x": 2.647942168,
				"y": -0.8131052214,
				"z": -2.2566584122,
				"element": "H" 
			},
			{
				"x": 2.4250508665,
				"y": 3.0942988829,
				"z": -0.3331658551,
				"element": "H" 
			},
			{
				"x": 2.293570298,
				"y": 1.4809352659,
				"z": 0.364969612,
				"element": "H" 
			},
			{
				"x": 1.0366607221,
				"y": 0.7494332785,
				"z": -1.7477711821,
				"element": "H" 
			},
			{
				"x": 1.1583421275,
				"y": 2.4120607406,
				"z": -2.3454331943,
				"element": "H" 
			},
			{
				"x": -0.364887102,
				"y": 3.107085687,
				"z": -0.6148872923,
				"element": "H" 
			},
			{
				"x": -3.7063047942,
				"y": 1.7618898788,
				"z": 1.6295508497,
				"element": "H" 
			},
			{
				"x": -4.3712697502,
				"y": -0.3060575177,
				"z": 0.8407646254,
				"element": "H" 
			},
			{
				"x": -2.7903835953,
				"y": -0.5748122869,
				"z": 0.0979381969,
				"element": "H" 
			},
			{
				"x": -1.7342895091,
				"y": -1.007840569,
				"z": 2.2240130803,
				"element": "H" 
			},
			{
				"x": -3.1581565326,
				"y": -0.4834934732,
				"z": 3.1393806549,
				"element": "H" 
			},
			{
				"x": -1.3560858875,
				"y": -2.9091873829,
				"z": 3.0919581938,
				"element": "H" 
			},
			{
				"x": -2.5109786061,
				"y": -2.4440939283,
				"z": 4.3385100474,
				"element": "H" 
			},
			{
				"x": -2.4592713801,
				"y": -5.1941823099,
				"z": 2.918004011,
				"element": "H" 
			},
			{
				"x": -1.8367263493,
				"y": -4.8153040977,
				"z": 4.5169655451,
				"element": "H" 
			},
			{
				"x": -3.5661854283,
				"y": -4.7410839089,
				"z": 4.2359318197,
				"element": "H" 
			},
			{
				"x": -3.8581107977,
				"y": -2.7021489198,
				"z": 0.3668052656,
				"element": "H" 
			},
			{
				"x": -3.589716669,
				"y": -4.1973430154,
				"z": 1.2464074763,
				"element": "H" 
			},
			{
				"x": -1.111335821,
				"y": -3.9193858356,
				"z": 1.090229491,
				"element": "H" 
			},
			{
				"x": -1.3049092908,
				"y": -2.3291814489,
				"z": 0.3160049018,
				"element": "H" 
			},
			{
				"x": -1.8578241144,
				"y": -3.7947207218,
				"z": -0.4953718792,
				"element": "H" 
			},
			{
				"x": -4.9084123206,
				"y": -3.607111037,
				"z": 3.0661330582,
				"element": "H" 
			},
			{
				"x": -4.7048864379,
				"y": -2.0642098694,
				"z": 3.9046654565,
				"element": "H" 
			},
			{
				"x": -6.119056072,
				"y": -3.7954141773,
				"z": 0.9624358739,
				"element": "H" 
			},
			{
				"x": -8.0731723321,
				"y": -3.0101819846,
				"z": -0.3143009033,
				"element": "H" 
			},
			{
				"x": -9.0241803954,
				"y": -0.7497983247,
				"z": 0.1379647009,
				"element": "H" 
			},
			{
				"x": -7.9945986597,
				"y": 0.6974021678,
				"z": 1.8730963453,
				"element": "H" 
			},
			{
				"x": 3.044828222,
				"y": 1.4614408503,
				"z": -3.1342377342,
				"element": "H" 
			},
			{
				"x": 3.5592558175,
				"y": 3.0955752696,
				"z": -2.6973861359,
				"element": "H" 
			},
			{
				"x": 6.0584195694,
				"y": 3.6285483883,
				"z": -2.6589836932,
				"element": "H" 
			},
			{
				"x": 8.1748939003,
				"y": 3.32294977,
				"z": -3.8534737408,
				"element": "H" 
			},
			{
				"x": 8.4995796624,
				"y": 1.3341206125,
				"z": -5.3249278159,
				"element": "H" 
			},
			{
				"x": 6.6558944209,
				"y": -0.3066514102,
				"z": -5.5961356907,
				"element": "H" 
			}
		],
		 "valence_orbital": [ 
			{
				"type": "occ",
				"energy": -0.438,
				"method": "rhf"
			},
			{
				"type": "occ",
				"energy": -0.43444,
				"method": "rhf"
			},
			{
				"type": "occ",
				"energy": -0.43278,
				"method": "rhf"
			},
			{
				"type": "occ",
				"energy": -0.42308,
				"method": "rhf"
			},
			{
				"type": "occ",
				"energy": -0.41757,
				"method": "rhf"
			},
			{
				"type": "unocc",
				"energy": -0.22678,
				"method": "rhf"
			},
			{
				"type": "unocc",
				"energy": -0.20812,
				"method": "rhf"
			},
			{
				"type": "unocc",
				"energy": -0.20447,
				"method": "rhf"
			},
			{
				"type": "unocc",
				"energy": -0.18859,
				"method": "rhf"
			},
			{
				"type": "unocc",
				"energy": -0.1835,
				"method": "rhf"
			}
		],
		"cosmo_sigma_profile": { 
			"-0.025": 0.0,
			"-0.024": 0.0,
			"-0.023": 0.0,
			"-0.022": 0.0,
			"-0.021": 0.0,
			"-0.02": 0.0,
			"-0.019": 0.0,
			"-0.018": 0.0,
			"-0.017": 0.0,
			"-0.016": 0.0,
			"-0.015": 0.0,
			"-0.014": 0.0,
			"-0.013": 0.0,
			"-0.012": 0.00885223822131,
			"-0.011": 0.572341485232,
			"-0.01": 1.60708668286,
			"-0.009": 4.52818808148,
			"-0.008": 13.2949590912,
			"-0.007": 27.2913187583,
			"-0.006": 37.0719281347,
			"-0.005": 52.9775080289,
			"-0.004": 50.1768218815,
			"-0.003": 42.8260192654,
			"-0.002": 41.4913347551,
			"-0.001": 45.4932631521,
			"0.0": 34.18908984,
			"0.001": 25.7437502369,
			"0.002": 22.8482281406,
			"0.003": 24.5284444075,
			"0.004": 23.2836766003,
			"0.005": 31.1145357991,
			"0.006": 26.8340292561,
			"0.007": 18.1200211379,
			"0.008": 15.9430811923,
			"0.009": 12.8747818192,
			"0.01": 5.38324640936,
			"0.011": 3.40644048203,
			"0.012": 2.54610428719,
			"0.013": 2.3515568529,
			"0.014": 2.69420557604,
			"0.015": 2.14324444993,
			"0.016": 2.85720500168,
			"0.017": 4.47054252604,
			"0.018": 1.92124108348,
			"0.019": 0.00707736861778,
			"0.02": 0.0,
			"0.021": 0.0,
			"0.022": 0.0,
			"0.023": 0.0,
			"0.024": 0.0,
			"0.025": 0.0
		}
	}
}
