{
	 "smiles": "CC(=O)OC1(CC[C@@]2(C)[C@@H](CCC3C4CCC5(OCCO5)[C@@]4(C)CCC23)C1)C=C", 
	 "Tm": 378.15, 
	 "num_atms": 67, 
	 "gaussian": { 
		 "optdone": 1, 
		 "sigma_profile": "yes", 
		 "theory": "DFT", 
		 "functional": "B3LYP", 
		 "basiset": "6-31G**", 
		 "properties": { 
			 "R2extent": 15852.6135, 
			 "electric_dipole_moment_norm": 2.63969700345, 
			 "electric_quadrupole_moment_norm": 19.3802334261, 
			 "total_energy": -1276.45458157, 
			 "HOMO_LUMO_gap": 0.24699, 
			 "cosmo_polarized_energy": -12.02, 
			 "cosmo_cavitation_energy": 57.16, 
			 "cosmo_dispersion_energy": -39.06, 
			 "cosmo_repulsion_energy": 2.89, 
			 "cosmo_total_nonelectrostatic_energy": 20.99, 
			 "SMD_solvation_energy": 9.64 
		},
		"coords": [
			{
				"x": -6.7877810885,
				"y": -2.0774550757,
				"z": 2.496722344,
				"element": "C" 
			},
			{
				"x": -6.0193440666,
				"y": -1.3846818042,
				"z": 1.3902631727,
				"element": "C" 
			},
			{
				"x": -6.5289825454,
				"y": -0.8375809636,
				"z": 0.4375243814,
				"element": "O" 
			},
			{
				"x": -4.6901411043,
				"y": -1.4723517529,
				"z": 1.6298857997,
				"element": "O" 
			},
			{
				"x": -3.7006919711,
				"y": -0.9543469381,
				"z": 0.6597164117,
				"element": "C" 
			},
			{
				"x": -3.8927189647,
				"y": 0.5565965964,
				"z": 0.4389505161,
				"element": "C" 
			},
			{
				"x": -2.669410939,
				"y": 1.2347600363,
				"z": -0.2111548458,
				"element": "C" 
			},
			{
				"x": -1.3285385563,
				"y": 0.9663196168,
				"z": 0.5202403474,
				"element": "C" 
			},
			{
				"x": -1.3798360702,
				"y": 1.6890021945,
				"z": 1.8889885052,
				"element": "C" 
			},
			{
				"x": -1.1664175494,
				"y": -0.5766137851,
				"z": 0.6708220546,
				"element": "C" 
			},
			{
				"x": 0.1763190575,
				"y": -0.9647004097,
				"z": 1.31031814,
				"element": "C" 
			},
			{
				"x": 1.3735345383,
				"y": -0.3856648992,
				"z": 0.5357586484,
				"element": "C" 
			},
			{
				"x": 1.2427078242,
				"y": 1.1429400789,
				"z": 0.3644629899,
				"element": "C" 
			},
			{
				"x": 2.399324197,
				"y": 1.8890104171,
				"z": -0.3551703061,
				"element": "C" 
			},
			{
				"x": 3.8378113581,
				"y": 1.4336777317,
				"z": -0.0056249383,
				"element": "C" 
			},
			{
				"x": 4.6725199319,
				"y": 1.9145034109,
				"z": -1.1956753842,
				"element": "C" 
			},
			{
				"x": 3.7789961856,
				"y": 1.5471777911,
				"z": -2.388126229,
				"element": "C" 
			},
			{
				"x": 4.2090206455,
				"y": 2.1968031792,
				"z": -3.5861954131,
				"element": "O" 
			},
			{
				"x": 4.4829243256,
				"y": 1.2098170719,
				"z": -4.5756259881,
				"element": "C" 
			},
			{
				"x": 4.7590980977,
				"y": -0.0337333559,
				"z": -3.7366998141,
				"element": "C" 
			},
			{
				"x": 3.8649846048,
				"y": 0.1424085066,
				"z": -2.6450643352,
				"element": "O" 
			},
			{
				"x": 2.3227516181,
				"y": 1.9310933471,
				"z": -1.9314913999,
				"element": "C" 
			},
			{
				"x": 2.0165185223,
				"y": 3.3650646183,
				"z": -2.410374643,
				"element": "C" 
			},
			{
				"x": 1.2508544585,
				"y": 0.9649697522,
				"z": -2.4629796143,
				"element": "C" 
			},
			{
				"x": -0.1356164048,
				"y": 1.1625854004,
				"z": -1.8123587742,
				"element": "C" 
			},
			{
				"x": -0.110508292,
				"y": 1.5268208029,
				"z": -0.2957523193,
				"element": "C" 
			},
			{
				"x": -2.3654610533,
				"y": -1.213570691,
				"z": 1.388970119,
				"element": "C" 
			},
			{
				"x": -3.7868140662,
				"y": -1.8239750759,
				"z": -0.5796099076,
				"element": "C" 
			},
			{
				"x": -4.1320602284,
				"y": -1.4556256432,
				"z": -1.8117996368,
				"element": "C" 
			},
			{
				"x": -7.8560433988,
				"y": -1.9255987726,
				"z": 2.3442302244,
				"element": "H" 
			},
			{
				"x": -6.5625689563,
				"y": -3.14850754,
				"z": 2.4911116387,
				"element": "H" 
			},
			{
				"x": -6.4863648324,
				"y": -1.6868659757,
				"z": 3.472677033,
				"element": "H" 
			},
			{
				"x": -4.0922732428,
				"y": 0.9970606751,
				"z": 1.4219315915,
				"element": "H" 
			},
			{
				"x": -4.7871033165,
				"y": 0.7351314142,
				"z": -0.159819328,
				"element": "H" 
			},
			{
				"x": -2.594744446,
				"y": 0.8929913385,
				"z": -1.2463302165,
				"element": "H" 
			},
			{
				"x": -2.8527908195,
				"y": 2.3165603223,
				"z": -0.2566571142,
				"element": "H" 
			},
			{
				"x": -0.5046673451,
				"y": 1.4943741918,
				"z": 2.5120351439,
				"element": "H" 
			},
			{
				"x": -2.2560248349,
				"y": 1.4043283202,
				"z": 2.4762641245,
				"element": "H" 
			},
			{
				"x": -1.4353941671,
				"y": 2.7723333061,
				"z": 1.7323215327,
				"element": "H" 
			},
			{
				"x": -1.1573539534,
				"y": -0.9903306063,
				"z": -0.3480955601,
				"element": "H" 
			},
			{
				"x": 0.257093228,
				"y": -2.0587098297,
				"z": 1.3494197327,
				"element": "H" 
			},
			{
				"x": 0.2093426627,
				"y": -0.6225580277,
				"z": 2.3535164553,
				"element": "H" 
			},
			{
				"x": 1.449351758,
				"y": -0.8879968133,
				"z": -0.4350826586,
				"element": "H" 
			},
			{
				"x": 2.296768572,
				"y": -0.6250986889,
				"z": 1.0747773306,
				"element": "H" 
			},
			{
				"x": 1.2370082936,
				"y": 1.5495465874,
				"z": 1.3840913697,
				"element": "H" 
			},
			{
				"x": 2.311763079,
				"y": 2.9314281587,
				"z": -0.0201012152,
				"element": "H" 
			},
			{
				"x": 4.178494667,
				"y": 1.8282769042,
				"z": 0.9571426854,
				"element": "H" 
			},
			{
				"x": 3.9014510518,
				"y": 0.3425891416,
				"z": 0.0426870494,
				"element": "H" 
			},
			{
				"x": 4.8157594375,
				"y": 3.0008072951,
				"z": -1.1738364356,
				"element": "H" 
			},
			{
				"x": 5.6578928613,
				"y": 1.4453881547,
				"z": -1.2745568763,
				"element": "H" 
			},
			{
				"x": 5.3368466697,
				"y": 1.5385753632,
				"z": -5.1754707752,
				"element": "H" 
			},
			{
				"x": 3.6160569024,
				"y": 1.0620027092,
				"z": -5.2356727387,
				"element": "H" 
			},
			{
				"x": 4.5177726694,
				"y": -0.9769127651,
				"z": -4.2337113344,
				"element": "H" 
			},
			{
				"x": 5.8053834775,
				"y": -0.061619196,
				"z": -3.3969279198,
				"element": "H" 
			},
			{
				"x": 1.98027192,
				"y": 3.4164432831,
				"z": -3.5016302668,
				"element": "H" 
			},
			{
				"x": 1.0537507403,
				"y": 3.7030167499,
				"z": -2.0142343744,
				"element": "H" 
			},
			{
				"x": 2.7778026581,
				"y": 4.0759051649,
				"z": -2.073211155,
				"element": "H" 
			},
			{
				"x": 1.592008937,
				"y": -0.0587240595,
				"z": -2.3045968804,
				"element": "H" 
			},
			{
				"x": 1.1563117003,
				"y": 1.0799718298,
				"z": -3.5504427295,
				"element": "H" 
			},
			{
				"x": -0.7047327561,
				"y": 0.2424238609,
				"z": -1.9812150375,
				"element": "H" 
			},
			{
				"x": -0.684495317,
				"y": 1.9459813232,
				"z": -2.3463929575,
				"element": "H" 
			},
			{
				"x": -0.1798067756,
				"y": 2.6226265271,
				"z": -0.2322832217,
				"element": "H" 
			},
			{
				"x": -2.2164140512,
				"y": -2.2965335931,
				"z": 1.4815771714,
				"element": "H" 
			},
			{
				"x": -2.457311516,
				"y": -0.827740863,
				"z": 2.4102499298,
				"element": "H" 
			},
			{
				"x": -3.5313240343,
				"y": -2.867569239,
				"z": -0.3921863239,
				"element": "H" 
			},
			{
				"x": -4.1570884894,
				"y": -2.1772574583,
				"z": -2.6230823953,
				"element": "H" 
			},
			{
				"x": -4.4172714984,
				"y": -0.4388893511,
				"z": -2.0607153794,
				"element": "H" 
			}
		],
		 "valence_orbital": [ 
			{
				"type": "occ",
				"energy": -0.26913,
				"method": "rhf"
			},
			{
				"type": "occ",
				"energy": -0.26652,
				"method": "rhf"
			},
			{
				"type": "occ",
				"energy": -0.26386,
				"method": "rhf"
			},
			{
				"type": "occ",
				"energy": -0.2468,
				"method": "rhf"
			},
			{
				"type": "occ",
				"energy": -0.23941,
				"method": "rhf"
			},
			{
				"type": "unocc",
				"energy": 0.00758,
				"method": "rhf"
			},
			{
				"type": "unocc",
				"energy": 0.02251,
				"method": "rhf"
			},
			{
				"type": "unocc",
				"energy": 0.06994,
				"method": "rhf"
			},
			{
				"type": "unocc",
				"energy": 0.08355,
				"method": "rhf"
			},
			{
				"type": "unocc",
				"energy": 0.091,
				"method": "rhf"
			}
		],
		"cosmo_sigma_profile": { 
			"-0.025": 0.0,
			"-0.024": 0.0,
			"-0.023": 0.0,
			"-0.022": 0.0,
			"-0.021": 0.0,
			"-0.02": 0.0,
			"-0.019": 0.0,
			"-0.018": 0.0,
			"-0.017": 0.0,
			"-0.016": 0.0,
			"-0.015": 0.0,
			"-0.014": 0.0,
			"-0.013": 0.0,
			"-0.012": 0.0,
			"-0.011": 0.0,
			"-0.01": 0.0,
			"-0.009": 0.0,
			"-0.008": 0.0,
			"-0.007": 0.185585622518,
			"-0.006": 6.65562823187,
			"-0.005": 18.1379247055,
			"-0.004": 29.129332641,
			"-0.003": 39.202550782,
			"-0.002": 62.6247989135,
			"-0.001": 75.4359145501,
			"0.0": 66.7386675747,
			"0.001": 46.3445640317,
			"0.002": 26.3680928022,
			"0.003": 13.3186716951,
			"0.004": 8.07010261597,
			"0.005": 7.60666904257,
			"0.006": 7.0075843048,
			"0.007": 6.08849505332,
			"0.008": 5.81294863648,
			"0.009": 5.17591979977,
			"0.01": 4.41343609624,
			"0.011": 4.20903573939,
			"0.012": 4.13141462485,
			"0.013": 3.15560499422,
			"0.014": 0.219438877171,
			"0.015": 0.0,
			"0.016": 0.0,
			"0.017": 0.0,
			"0.018": 0.0,
			"0.019": 0.0,
			"0.02": 0.0,
			"0.021": 0.0,
			"0.022": 0.0,
			"0.023": 0.0,
			"0.024": 0.0,
			"0.025": 0.0
		}
	}
}
