{
	 "smiles": "CC1=CC=C(C=C1)C(Cl)C(=O)C1=CC=C(C)C=C1", 
	 "Tm": 341.15, 
	 "num_atms": 33, 
	 "gaussian": { 
		 "optdone": 1, 
		 "sigma_profile": "yes", 
		 "theory": "DFT", 
		 "functional": "B3LYP", 
		 "basiset": "6-31G**", 
		 "properties": { 
			 "R2extent": 6382.1264, 
			 "electric_dipole_moment_norm": 3.67057559247, 
			 "electric_quadrupole_moment_norm": 16.0445552531, 
			 "total_energy": -1154.17372179, 
			 "HOMO_LUMO_gap": 0.17435, 
			 "cosmo_polarized_energy": -8.51, 
			 "cosmo_cavitation_energy": 37.92, 
			 "cosmo_dispersion_energy": -26.63, 
			 "cosmo_repulsion_energy": 2.08, 
			 "cosmo_total_nonelectrostatic_energy": 13.37, 
			 "SMD_solvation_energy": 6.55 
		},
		"coords": [
			{
				"x": 0.9780549446,
				"y": -4.2275564692,
				"z": 1.3787572568,
				"element": "C" 
			},
			{
				"x": 0.1069697278,
				"y": -3.1254647883,
				"z": 0.8243631554,
				"element": "C" 
			},
			{
				"x": -0.9575116179,
				"y": -2.6032310469,
				"z": 1.5741022103,
				"element": "C" 
			},
			{
				"x": -1.751920502,
				"y": -1.5739496364,
				"z": 1.078847176,
				"element": "C" 
			},
			{
				"x": -1.5055271288,
				"y": -1.0275914255,
				"z": -0.1915774059,
				"element": "C" 
			},
			{
				"x": -0.4539914079,
				"y": -1.5477700608,
				"z": -0.9483018665,
				"element": "C" 
			},
			{
				"x": 0.3380054909,
				"y": -2.5815192452,
				"z": -0.4426504297,
				"element": "C" 
			},
			{
				"x": -2.4423621317,
				"y": 0.074430627,
				"z": -0.6660733202,
				"element": "C" 
			},
			{
				"x": -2.0599530304,
				"y": 0.7239381291,
				"z": -2.328559102,
				"element": "Cl" 
			},
			{
				"x": -2.5835861485,
				"y": 1.235671268,
				"z": 0.3486330371,
				"element": "C" 
			},
			{
				"x": -3.6496641038,
				"y": 1.3083675584,
				"z": 0.9426702854,
				"element": "O" 
			},
			{
				"x": -1.4742642924,
				"y": 2.1896792892,
				"z": 0.6244706078,
				"element": "C" 
			},
			{
				"x": -1.7611105766,
				"y": 3.2863386003,
				"z": 1.45657747,
				"element": "C" 
			},
			{
				"x": -0.7768079309,
				"y": 4.2132216916,
				"z": 1.7711886847,
				"element": "C" 
			},
			{
				"x": 0.5306725212,
				"y": 4.0736492041,
				"z": 1.27742459,
				"element": "C" 
			},
			{
				"x": 1.6040184189,
				"y": 5.0680366785,
				"z": 1.6462107066,
				"element": "C" 
			},
			{
				"x": 0.8129144105,
				"y": 2.9763720732,
				"z": 0.4533438194,
				"element": "C" 
			},
			{
				"x": -0.1708625057,
				"y": 2.0463807149,
				"z": 0.1254866536,
				"element": "C" 
			},
			{
				"x": 0.3781555387,
				"y": -5.0119586428,
				"z": 1.8519978745,
				"element": "H" 
			},
			{
				"x": 1.6657087319,
				"y": -3.8436240527,
				"z": 2.1424036406,
				"element": "H" 
			},
			{
				"x": 1.5830563798,
				"y": -4.6917534563,
				"z": 0.5949455713,
				"element": "H" 
			},
			{
				"x": -1.1701119964,
				"y": -3.0106975579,
				"z": 2.559547525,
				"element": "H" 
			},
			{
				"x": -2.5741773707,
				"y": -1.1935348842,
				"z": 1.6787245138,
				"element": "H" 
			},
			{
				"x": -0.2556545064,
				"y": -1.1539514152,
				"z": -1.93890118,
				"element": "H" 
			},
			{
				"x": 1.1487534186,
				"y": -2.9725599985,
				"z": -1.0523943879,
				"element": "H" 
			},
			{
				"x": -3.4541856022,
				"y": -0.3210064533,
				"z": -0.7634121159,
				"element": "H" 
			},
			{
				"x": -2.7699652513,
				"y": 3.389841998,
				"z": 1.8414178727,
				"element": "H" 
			},
			{
				"x": -1.0198239218,
				"y": 5.0598029455,
				"z": 2.408587112,
				"element": "H" 
			},
			{
				"x": 2.4493196911,
				"y": 5.0222068796,
				"z": 0.9541566311,
				"element": "H" 
			},
			{
				"x": 1.2167356097,
				"y": 6.0918478016,
				"z": 1.6458432869,
				"element": "H" 
			},
			{
				"x": 1.9915912424,
				"y": 4.8704915507,
				"z": 2.653536627,
				"element": "H" 
			},
			{
				"x": 1.8180359348,
				"y": 2.849319875,
				"z": 0.0598533851,
				"element": "H" 
			},
			{
				"x": 0.0840879642,
				"y": 1.2092722484,
				"z": -0.5120198853,
				"element": "H" 
			}
		],
		 "valence_orbital": [ 
			{
				"type": "occ",
				"energy": -0.26237,
				"method": "rhf"
			},
			{
				"type": "occ",
				"energy": -0.2574,
				"method": "rhf"
			},
			{
				"type": "occ",
				"energy": -0.25521,
				"method": "rhf"
			},
			{
				"type": "occ",
				"energy": -0.24906,
				"method": "rhf"
			},
			{
				"type": "occ",
				"energy": -0.23767,
				"method": "rhf"
			},
			{
				"type": "unocc",
				"energy": -0.06332,
				"method": "rhf"
			},
			{
				"type": "unocc",
				"energy": -0.01077,
				"method": "rhf"
			},
			{
				"type": "unocc",
				"energy": -0.00817,
				"method": "rhf"
			},
			{
				"type": "unocc",
				"energy": -0.00481,
				"method": "rhf"
			},
			{
				"type": "unocc",
				"energy": 0.00889,
				"method": "rhf"
			}
		],
		"cosmo_sigma_profile": { 
			"-0.025": 0.0,
			"-0.024": 0.0,
			"-0.023": 0.0,
			"-0.022": 0.0,
			"-0.021": 0.0,
			"-0.02": 0.0,
			"-0.019": 0.0,
			"-0.018": 0.0,
			"-0.017": 0.0,
			"-0.016": 0.0,
			"-0.015": 0.0,
			"-0.014": 0.0,
			"-0.013": 0.0,
			"-0.012": 0.0,
			"-0.011": 0.0,
			"-0.01": 0.0,
			"-0.009": 0.0129347544659,
			"-0.008": 1.15626058878,
			"-0.007": 1.3620438232,
			"-0.006": 7.73699957858,
			"-0.005": 20.544835095,
			"-0.004": 31.0288922434,
			"-0.003": 27.6330661742,
			"-0.002": 27.0734768368,
			"-0.001": 30.5036748455,
			"0.0": 29.9744686647,
			"0.001": 22.2558297004,
			"0.002": 23.7350935613,
			"0.003": 24.2195840902,
			"0.004": 25.9893774318,
			"0.005": 15.8124641001,
			"0.006": 2.74807058029,
			"0.007": 1.58632544669,
			"0.008": 1.55827128178,
			"0.009": 1.72867064372,
			"0.01": 2.51997645385,
			"0.011": 3.69275357877,
			"0.012": 0.95539732923,
			"0.013": 3.54814644596e-06,
			"0.014": 0.0,
			"0.015": 0.0,
			"0.016": 0.0,
			"0.017": 0.0,
			"0.018": 0.0,
			"0.019": 0.0,
			"0.02": 0.0,
			"0.021": 0.0,
			"0.022": 0.0,
			"0.023": 0.0,
			"0.024": 0.0,
			"0.025": 0.0
		}
	}
}
