{
	 "smiles": "CC1=CC=C(F)C(=C1)S(Cl)(=O)=O", 
	 "Tm": 306.15, 
	 "num_atms": 18, 
	 "gaussian": { 
		 "optdone": 1, 
		 "sigma_profile": "yes", 
		 "theory": "DFT", 
		 "functional": "B3LYP", 
		 "basiset": "6-31G**", 
		 "properties": { 
			 "R2extent": 4576.258, 
			 "electric_dipole_moment_norm": 6.27496599911, 
			 "electric_quadrupole_moment_norm": 13.098409069, 
			 "total_energy": -1378.95395779, 
			 "HOMO_LUMO_gap": 0.18243, 
			 "cosmo_polarized_energy": -9.27, 
			 "cosmo_cavitation_energy": 26.06, 
			 "cosmo_dispersion_energy": -19.46, 
			 "cosmo_repulsion_energy": 1.49, 
			 "cosmo_total_nonelectrostatic_energy": 8.09, 
			 "SMD_solvation_energy": 3.73 
		},
		"coords": [
			{
				"x": 0.6193002723,
				"y": -1.6700202848,
				"z": 0.3335992643,
				"element": "C" 
			},
			{
				"x": 0.3590757749,
				"y": -0.1875135958,
				"z": 0.2086426445,
				"element": "C" 
			},
			{
				"x": 0.6539254794,
				"y": 0.687813189,
				"z": 1.2662604077,
				"element": "C" 
			},
			{
				"x": 0.4080464446,
				"y": 2.0562012372,
				"z": 1.1780898364,
				"element": "C" 
			},
			{
				"x": -0.1470171587,
				"y": 2.5727153131,
				"z": 0.0139547695,
				"element": "C" 
			},
			{
				"x": -0.3686230672,
				"y": 3.8878044715,
				"z": -0.0845307133,
				"element": "F" 
			},
			{
				"x": -0.4503863947,
				"y": 1.7224902261,
				"z": -1.0507255241,
				"element": "C" 
			},
			{
				"x": -0.1942045934,
				"y": 0.3511158103,
				"z": -0.9557772312,
				"element": "C" 
			},
			{
				"x": -1.2145462099,
				"y": 2.3420399965,
				"z": -2.540799167,
				"element": "S" 
			},
			{
				"x": 0.3798092254,
				"y": 3.463552812,
				"z": -3.3910212538,
				"element": "Cl" 
			},
			{
				"x": -1.4467496686,
				"y": 1.2163915096,
				"z": -3.4378042292,
				"element": "O" 
			},
			{
				"x": -2.2650437673,
				"y": 3.2939538124,
				"z": -2.212870052,
				"element": "O" 
			},
			{
				"x": 1.6234533201,
				"y": -1.8651251228,
				"z": 0.7235894688,
				"element": "H" 
			},
			{
				"x": -0.0938970463,
				"y": -2.1395375712,
				"z": 1.021075715,
				"element": "H" 
			},
			{
				"x": 0.5288731687,
				"y": -2.1733741247,
				"z": -0.6320430644,
				"element": "H" 
			},
			{
				"x": 1.0898408027,
				"y": 0.2912694862,
				"z": 2.1792891638,
				"element": "H" 
			},
			{
				"x": 0.6411683003,
				"y": 2.7332693046,
				"z": 1.9925291658,
				"element": "H" 
			},
			{
				"x": -0.4366248823,
				"y": -0.2822464691,
				"z": -1.8020592008,
				"element": "H" 
			}
		],
		 "valence_orbital": [ 
			{
				"type": "occ",
				"energy": -0.33558,
				"method": "rhf"
			},
			{
				"type": "occ",
				"energy": -0.33269,
				"method": "rhf"
			},
			{
				"type": "occ",
				"energy": -0.31233,
				"method": "rhf"
			},
			{
				"type": "occ",
				"energy": -0.295,
				"method": "rhf"
			},
			{
				"type": "occ",
				"energy": -0.27045,
				"method": "rhf"
			},
			{
				"type": "unocc",
				"energy": -0.08802,
				"method": "rhf"
			},
			{
				"type": "unocc",
				"energy": -0.05015,
				"method": "rhf"
			},
			{
				"type": "unocc",
				"energy": -0.03134,
				"method": "rhf"
			},
			{
				"type": "unocc",
				"energy": 0.03975,
				"method": "rhf"
			},
			{
				"type": "unocc",
				"energy": 0.0661,
				"method": "rhf"
			}
		],
		"cosmo_sigma_profile": { 
			"-0.025": 0.0,
			"-0.024": 0.0,
			"-0.023": 0.0,
			"-0.022": 0.0,
			"-0.021": 0.0,
			"-0.02": 0.0,
			"-0.019": 0.0,
			"-0.018": 0.0,
			"-0.017": 0.0,
			"-0.016": 0.0,
			"-0.015": 0.0,
			"-0.014": 0.0,
			"-0.013": 0.0,
			"-0.012": 0.0,
			"-0.011": 0.0,
			"-0.01": 0.0,
			"-0.009": 1.05292727501,
			"-0.008": 3.99973946134,
			"-0.007": 6.77924717926,
			"-0.006": 7.57042558025,
			"-0.005": 11.6479403605,
			"-0.004": 12.7225357563,
			"-0.003": 14.6141834934,
			"-0.002": 19.8745920066,
			"-0.001": 24.1059239005,
			"0.0": 18.5455871954,
			"0.001": 17.0888349145,
			"0.002": 16.2029603363,
			"0.003": 21.8833409739,
			"0.004": 6.69527640576,
			"0.005": 3.35691693177,
			"0.006": 4.3943365213,
			"0.007": 7.59746692507,
			"0.008": 10.0761995815,
			"0.009": 3.41562016641,
			"0.01": 0.0,
			"0.011": 0.0,
			"0.012": 0.0,
			"0.013": 0.0,
			"0.014": 0.0,
			"0.015": 0.0,
			"0.016": 0.0,
			"0.017": 0.0,
			"0.018": 0.0,
			"0.019": 0.0,
			"0.02": 0.0,
			"0.021": 0.0,
			"0.022": 0.0,
			"0.023": 0.0,
			"0.024": 0.0,
			"0.025": 0.0
		}
	}
}
