{
	 "smiles": "COC1=CC(OC)=C(CN2N=CC3=C2N=CC(=C3)C(O)=O)C=C1", 
	 "Tm": 479.15, 
	 "num_atms": 38, 
	 "gaussian": { 
		 "optdone": 1, 
		 "sigma_profile": "yes", 
		 "theory": "DFT", 
		 "functional": "B3LYP", 
		 "basiset": "6-31G**", 
		 "properties": { 
			 "R2extent": 10221.6797, 
			 "electric_dipole_moment_norm": 5.8658057571, 
			 "electric_quadrupole_moment_norm": 28.6768974138, 
			 "total_energy": -1083.86247036, 
			 "HOMO_LUMO_gap": 0.15196, 
			 "cosmo_polarized_energy": -23.53, 
			 "cosmo_cavitation_energy": 43.21, 
			 "cosmo_dispersion_energy": -30.09, 
			 "cosmo_repulsion_energy": 2.27, 
			 "cosmo_total_nonelectrostatic_energy": 15.39, 
			 "SMD_solvation_energy": 7.74 
		},
		"coords": [
			{
				"x": -0.9357439316,
				"y": 5.9153374413,
				"z": 1.2139408374,
				"element": "C" 
			},
			{
				"x": -0.0479163834,
				"y": 4.8532077556,
				"z": 1.5266729806,
				"element": "O" 
			},
			{
				"x": -0.4917027934,
				"y": 3.5736815666,
				"z": 1.3634161495,
				"element": "C" 
			},
			{
				"x": 0.4449741398,
				"y": 2.5781169307,
				"z": 1.6875931597,
				"element": "C" 
			},
			{
				"x": 0.100939781,
				"y": 1.2356143987,
				"z": 1.5586309081,
				"element": "C" 
			},
			{
				"x": 0.9411370115,
				"y": 0.2023515238,
				"z": 1.8472372807,
				"element": "O" 
			},
			{
				"x": 2.2411131894,
				"y": 0.4934791377,
				"z": 2.336949747,
				"element": "C" 
			},
			{
				"x": -1.1853983758,
				"y": 0.8592627209,
				"z": 1.107508754,
				"element": "C" 
			},
			{
				"x": -1.5573576284,
				"y": -0.5980425299,
				"z": 0.9836339636,
				"element": "C" 
			},
			{
				"x": -0.9878100503,
				"y": -1.2520494601,
				"z": -0.1986666133,
				"element": "N" 
			},
			{
				"x": -1.3128007837,
				"y": -0.8294403571,
				"z": -1.4507262705,
				"element": "N" 
			},
			{
				"x": -0.6538598759,
				"y": -1.5970116652,
				"z": -2.3017446622,
				"element": "C" 
			},
			{
				"x": 0.137954815,
				"y": -2.5615399067,
				"z": -1.6126386314,
				"element": "C" 
			},
			{
				"x": -0.1182609869,
				"y": -2.2989994476,
				"z": -0.2382066228,
				"element": "C" 
			},
			{
				"x": 0.3755682324,
				"y": -2.9746197617,
				"z": 0.8100508922,
				"element": "N" 
			},
			{
				"x": 1.1925801207,
				"y": -3.9669361858,
				"z": 0.4858280716,
				"element": "C" 
			},
			{
				"x": 1.5608462782,
				"y": -4.3184634904,
				"z": -0.8442250744,
				"element": "C" 
			},
			{
				"x": 1.0113310519,
				"y": -3.6108917654,
				"z": -1.913536952,
				"element": "C" 
			},
			{
				"x": 2.4888651506,
				"y": -5.4771069669,
				"z": -1.0074392363,
				"element": "C" 
			},
			{
				"x": 3.1405063775,
				"y": -5.5793774887,
				"z": -2.1997343325,
				"element": "O" 
			},
			{
				"x": 2.678301033,
				"y": -6.3051562905,
				"z": -0.1469827338,
				"element": "O" 
			},
			{
				"x": -2.0880971286,
				"y": 1.8685768385,
				"z": 0.7932282576,
				"element": "C" 
			},
			{
				"x": -1.7672633859,
				"y": 3.2250344584,
				"z": 0.9141353633,
				"element": "C" 
			},
			{
				"x": -1.23713632,
				"y": 5.8932682802,
				"z": 0.1589467505,
				"element": "H" 
			},
			{
				"x": -1.8341932356,
				"y": 5.8904523228,
				"z": 1.8437385173,
				"element": "H" 
			},
			{
				"x": -0.3848142019,
				"y": 6.8362827569,
				"z": 1.4109660727,
				"element": "H" 
			},
			{
				"x": 1.4209244342,
				"y": 2.8938027006,
				"z": 2.0331729338,
				"element": "H" 
			},
			{
				"x": 2.7182222987,
				"y": -0.4724097097,
				"z": 2.5070943309,
				"element": "H" 
			},
			{
				"x": 2.8271557659,
				"y": 1.0659649395,
				"z": 1.6070010428,
				"element": "H" 
			},
			{
				"x": 2.2001317329,
				"y": 1.0512240713,
				"z": 3.2809333893,
				"element": "H" 
			},
			{
				"x": -2.645163957,
				"y": -0.6995570573,
				"z": 0.9289876744,
				"element": "H" 
			},
			{
				"x": -1.1919419464,
				"y": -1.1769937285,
				"z": 1.8343989696,
				"element": "H" 
			},
			{
				"x": -0.763971,
				"y": -1.4399654732,
				"z": -3.3665319307,
				"element": "H" 
			},
			{
				"x": 1.609800041,
				"y": -4.5540690321,
				"z": 1.2993544326,
				"element": "H" 
			},
			{
				"x": 1.216378639,
				"y": -3.8804882954,
				"z": -2.9473984502,
				"element": "H" 
			},
			{
				"x": 3.0375594839,
				"y": -4.7642197064,
				"z": -2.7092639113,
				"element": "H" 
			},
			{
				"x": -3.0774754412,
				"y": 1.5916385697,
				"z": 0.4391871119,
				"element": "H" 
			},
			{
				"x": -2.503182151,
				"y": 3.9767419051,
				"z": 0.6588878306,
				"element": "H" 
			}
		],
		 "valence_orbital": [ 
			{
				"type": "occ",
				"energy": -0.2694,
				"method": "rhf"
			},
			{
				"type": "occ",
				"energy": -0.25776,
				"method": "rhf"
			},
			{
				"type": "occ",
				"energy": -0.24402,
				"method": "rhf"
			},
			{
				"type": "occ",
				"energy": -0.23474,
				"method": "rhf"
			},
			{
				"type": "occ",
				"energy": -0.21505,
				"method": "rhf"
			},
			{
				"type": "unocc",
				"energy": -0.06309,
				"method": "rhf"
			},
			{
				"type": "unocc",
				"energy": -0.0333,
				"method": "rhf"
			},
			{
				"type": "unocc",
				"energy": -0.00016,
				"method": "rhf"
			},
			{
				"type": "unocc",
				"energy": 0.01161,
				"method": "rhf"
			},
			{
				"type": "unocc",
				"energy": 0.0329,
				"method": "rhf"
			}
		],
		"cosmo_sigma_profile": { 
			"-0.025": 0.0,
			"-0.024": 0.0,
			"-0.023": 0.0,
			"-0.022": 0.0,
			"-0.021": 0.0,
			"-0.02": 0.0,
			"-0.019": 0.691065310751,
			"-0.018": 1.05965337027,
			"-0.017": 1.34479557046,
			"-0.016": 0.98882260899,
			"-0.015": 0.679098025083,
			"-0.014": 0.621815227034,
			"-0.013": 1.72420034603,
			"-0.012": 1.56660467934,
			"-0.011": 1.17552521091,
			"-0.01": 1.6693227813,
			"-0.009": 2.12883036259,
			"-0.008": 4.06634205377,
			"-0.007": 7.39342396021,
			"-0.006": 19.2695383437,
			"-0.005": 29.9682248205,
			"-0.004": 29.9011341781,
			"-0.003": 29.8032611363,
			"-0.002": 19.4813141586,
			"-0.001": 23.3523357547,
			"0.0": 24.2108075597,
			"0.001": 17.4563541569,
			"0.002": 15.1562495304,
			"0.003": 16.8611600596,
			"0.004": 17.8958324208,
			"0.005": 15.2393879134,
			"0.006": 11.5635626474,
			"0.007": 8.34342242728,
			"0.008": 7.43725745648,
			"0.009": 8.18337169205,
			"0.01": 8.86833894462,
			"0.011": 7.72930662986,
			"0.012": 6.75709549638,
			"0.013": 2.65066268172,
			"0.014": 0.245034962571,
			"0.015": 0.0,
			"0.016": 0.0,
			"0.017": 0.0,
			"0.018": 0.0,
			"0.019": 0.0,
			"0.02": 0.0,
			"0.021": 0.0,
			"0.022": 0.0,
			"0.023": 0.0,
			"0.024": 0.0,
			"0.025": 0.0
		}
	}
}
