{
	 "smiles": "OCC=O", 
	 "Tm": 370.15, 
	 "num_atms": 8, 
	 "gaussian": { 
		 "optdone": 1, 
		 "sigma_profile": "yes", 
		 "theory": "DFT", 
		 "functional": "B3LYP", 
		 "basiset": "6-31G**", 
		 "properties": { 
			 "R2extent": 423.5356, 
			 "electric_dipole_moment_norm": 1.75115121277, 
			 "electric_quadrupole_moment_norm": 7.86286687983, 
			 "total_energy": -229.035326893, 
			 "HOMO_LUMO_gap": 0.21821, 
			 "cosmo_polarized_energy": -9.71, 
			 "cosmo_cavitation_energy": 12.1, 
			 "cosmo_dispersion_energy": -8.91, 
			 "cosmo_repulsion_energy": 0.85, 
			 "cosmo_total_nonelectrostatic_energy": 4.05, 
			 "SMD_solvation_energy": 3.69 
		},
		"coords": [
			{
				"x": -0.1114037607,
				"y": 0.2834948804,
				"z": -2.2567738014,
				"element": "O" 
			},
			{
				"x": 0.3623749702,
				"y": -0.1290030015,
				"z": -0.9895698594,
				"element": "C" 
			},
			{
				"x": 0.6777833059,
				"y": 1.0457902424,
				"z": -0.0712701631,
				"element": "C" 
			},
			{
				"x": 1.380523388,
				"y": 0.9673501955,
				"z": 0.9101109587,
				"element": "O" 
			},
			{
				"x": 0.631882391,
				"y": 0.6451204407,
				"z": -2.7559305934,
				"element": "H" 
			},
			{
				"x": 1.2385158412,
				"y": -0.7916628275,
				"z": -1.0367566388,
				"element": "H" 
			},
			{
				"x": -0.4491021011,
				"y": -0.7027977077,
				"z": -0.5231243271,
				"element": "H" 
			},
			{
				"x": 0.1863259656,
				"y": 1.9982077778,
				"z": -0.3784855756,
				"element": "H" 
			}
		],
		 "valence_orbital": [ 
			{
				"type": "occ",
				"energy": -0.44463,
				"method": "rhf"
			},
			{
				"type": "occ",
				"energy": -0.38546,
				"method": "rhf"
			},
			{
				"type": "occ",
				"energy": -0.35301,
				"method": "rhf"
			},
			{
				"type": "occ",
				"energy": -0.30892,
				"method": "rhf"
			},
			{
				"type": "occ",
				"energy": -0.25475,
				"method": "rhf"
			},
			{
				"type": "unocc",
				"energy": -0.03654,
				"method": "rhf"
			},
			{
				"type": "unocc",
				"energy": 0.06676,
				"method": "rhf"
			},
			{
				"type": "unocc",
				"energy": 0.11887,
				"method": "rhf"
			},
			{
				"type": "unocc",
				"energy": 0.13375,
				"method": "rhf"
			},
			{
				"type": "unocc",
				"energy": 0.16365,
				"method": "rhf"
			}
		],
		"cosmo_sigma_profile": { 
			"-0.025": 0.0,
			"-0.024": 0.0,
			"-0.023": 0.0,
			"-0.022": 0.0,
			"-0.021": 0.0,
			"-0.02": 0.0,
			"-0.019": 0.0,
			"-0.018": 0.0,
			"-0.017": 0.350096839697,
			"-0.016": 1.54988722124,
			"-0.015": 0.993975467725,
			"-0.014": 1.32881670233,
			"-0.013": 0.972543692447,
			"-0.012": 0.919857713566,
			"-0.011": 1.21663084836,
			"-0.01": 1.01450335841,
			"-0.009": 1.01879926984,
			"-0.008": 2.13915106949,
			"-0.007": 4.61499154389,
			"-0.006": 9.64532626254,
			"-0.005": 8.22232137449,
			"-0.004": 6.17568633224,
			"-0.003": 4.9100995091,
			"-0.002": 4.07114971956,
			"-0.001": 2.68101169139,
			"0.0": 2.33769175961,
			"0.001": 3.08571002624,
			"0.002": 1.99923187887,
			"0.003": 2.27640986541,
			"0.004": 2.53603288693,
			"0.005": 2.87934752053,
			"0.006": 2.57716444301,
			"0.007": 2.37810385029,
			"0.008": 2.83298609141,
			"0.009": 3.66816727301,
			"0.01": 4.16872900333,
			"0.011": 5.82672410924,
			"0.012": 3.65602545182,
			"0.013": 2.46626960992,
			"0.014": 0.699470646082,
			"0.015": 0.0,
			"0.016": 0.0,
			"0.017": 0.0,
			"0.018": 0.0,
			"0.019": 0.0,
			"0.02": 0.0,
			"0.021": 0.0,
			"0.022": 0.0,
			"0.023": 0.0,
			"0.024": 0.0,
			"0.025": 0.0
		}
	}
}
