{
	 "smiles": "O=CC1=CC=C(OC2=NC=CN=C2)C=C1", 
	 "Tm": 353.15, 
	 "num_atms": 23, 
	 "gaussian": { 
		 "optdone": 1, 
		 "sigma_profile": "yes", 
		 "theory": "DFT", 
		 "functional": "B3LYP", 
		 "basiset": "6-31G**", 
		 "properties": { 
			 "R2extent": 4597.1037, 
			 "electric_dipole_moment_norm": 3.26078901648, 
			 "electric_quadrupole_moment_norm": 12.0498822965, 
			 "total_energy": -683.908338491, 
			 "HOMO_LUMO_gap": 0.17814, 
			 "cosmo_polarized_energy": -13.1, 
			 "cosmo_cavitation_energy": 28.9, 
			 "cosmo_dispersion_energy": -20.9, 
			 "cosmo_repulsion_energy": 1.61, 
			 "cosmo_total_nonelectrostatic_energy": 9.61, 
			 "SMD_solvation_energy": 3.33 
		},
		"coords": [
			{
				"x": -2.2368061529,
				"y": 5.5364217773,
				"z": -0.8531891377,
				"element": "O" 
			},
			{
				"x": -1.2634397025,
				"y": 4.8132793631,
				"z": -0.7521689318,
				"element": "C" 
			},
			{
				"x": -1.3219371996,
				"y": 3.3499491514,
				"z": -0.554107965,
				"element": "C" 
			},
			{
				"x": -0.1395685023,
				"y": 2.6056174674,
				"z": -0.4492296512,
				"element": "C" 
			},
			{
				"x": -0.179609414,
				"y": 1.2266073912,
				"z": -0.2645544424,
				"element": "C" 
			},
			{
				"x": -1.4240768889,
				"y": 0.593061564,
				"z": -0.1738861481,
				"element": "C" 
			},
			{
				"x": -1.5510870686,
				"y": -0.7746695158,
				"z": -0.059936712,
				"element": "O" 
			},
			{
				"x": -0.7150278704,
				"y": -1.5055658416,
				"z": 0.7434813075,
				"element": "C" 
			},
			{
				"x": -0.4505408645,
				"y": -2.7261428194,
				"z": 0.3018345471,
				"element": "N" 
			},
			{
				"x": 0.3031251703,
				"y": -3.4919312639,
				"z": 1.1009754248,
				"element": "C" 
			},
			{
				"x": 0.7871195891,
				"y": -3.0325643618,
				"z": 2.3242145783,
				"element": "C" 
			},
			{
				"x": 0.5068641731,
				"y": -1.7989133006,
				"z": 2.7681990686,
				"element": "N" 
			},
			{
				"x": -0.2476129992,
				"y": -1.032828315,
				"z": 1.9831391641,
				"element": "C" 
			},
			{
				"x": -2.6161822812,
				"y": 1.320536989,
				"z": -0.2840866313,
				"element": "C" 
			},
			{
				"x": -2.5611225467,
				"y": 2.6935056883,
				"z": -0.4746050521,
				"element": "C" 
			},
			{
				"x": -0.2332269951,
				"y": 5.2316472036,
				"z": -0.8054681641,
				"element": "H" 
			},
			{
				"x": 0.8207226234,
				"y": 3.1106107973,
				"z": -0.5229385397,
				"element": "H" 
			},
			{
				"x": 0.7350019887,
				"y": 0.6471460122,
				"z": -0.2021119611,
				"element": "H" 
			},
			{
				"x": 0.5241083462,
				"y": -4.497490397,
				"z": 0.7498045379,
				"element": "H" 
			},
			{
				"x": 1.4010585685,
				"y": -3.6638861386,
				"z": 2.9611787723,
				"element": "H" 
			},
			{
				"x": -0.4923210315,
				"y": -0.0344097363,
				"z": 2.3349559077,
				"element": "H" 
			},
			{
				"x": -3.5598598649,
				"y": 0.7895883642,
				"z": -0.2194047402,
				"element": "H" 
			},
			{
				"x": -3.4666810772,
				"y": 3.2854299211,
				"z": -0.5609952317,
				"element": "H" 
			}
		],
		 "valence_orbital": [ 
			{
				"type": "occ",
				"energy": -0.28286,
				"method": "rhf"
			},
			{
				"type": "occ",
				"energy": -0.27803,
				"method": "rhf"
			},
			{
				"type": "occ",
				"energy": -0.2676,
				"method": "rhf"
			},
			{
				"type": "occ",
				"energy": -0.25851,
				"method": "rhf"
			},
			{
				"type": "occ",
				"energy": -0.24662,
				"method": "rhf"
			},
			{
				"type": "unocc",
				"energy": -0.06848,
				"method": "rhf"
			},
			{
				"type": "unocc",
				"energy": -0.06028,
				"method": "rhf"
			},
			{
				"type": "unocc",
				"energy": -0.02995,
				"method": "rhf"
			},
			{
				"type": "unocc",
				"energy": -0.02485,
				"method": "rhf"
			},
			{
				"type": "unocc",
				"energy": 0.03479,
				"method": "rhf"
			}
		],
		"cosmo_sigma_profile": { 
			"-0.025": 0.0,
			"-0.024": 0.0,
			"-0.023": 0.0,
			"-0.022": 0.0,
			"-0.021": 0.0,
			"-0.02": 0.0,
			"-0.019": 0.0,
			"-0.018": 0.0,
			"-0.017": 0.0,
			"-0.016": 0.0,
			"-0.015": 0.0,
			"-0.014": 0.0,
			"-0.013": 0.0,
			"-0.012": 0.0,
			"-0.011": 0.0,
			"-0.01": 0.0,
			"-0.009": 0.230863823661,
			"-0.008": 8.21230531929,
			"-0.007": 16.8969501094,
			"-0.006": 18.0738993774,
			"-0.005": 13.2317776114,
			"-0.004": 13.9117231204,
			"-0.003": 15.8889638824,
			"-0.002": 15.2400209045,
			"-0.001": 17.4974790539,
			"0.0": 19.6611445774,
			"0.001": 18.3655785811,
			"0.002": 17.7997476209,
			"0.003": 8.77253358809,
			"0.004": 4.85533518036,
			"0.005": 5.39273688472,
			"0.006": 4.15989997602,
			"0.007": 4.20184459325,
			"0.008": 5.43433965109,
			"0.009": 4.8828343644,
			"0.01": 4.67126575093,
			"0.011": 6.22239483525,
			"0.012": 5.34609698872,
			"0.013": 2.35857696767,
			"0.014": 1.94571295571,
			"0.015": 0.257923005966,
			"0.016": 0.0,
			"0.017": 0.0,
			"0.018": 0.0,
			"0.019": 0.0,
			"0.02": 0.0,
			"0.021": 0.0,
			"0.022": 0.0,
			"0.023": 0.0,
			"0.024": 0.0,
			"0.025": 0.0
		}
	}
}
