{
	 "smiles": "OC(=O)C(F)=C", 
	 "Tm": 324.95, 
	 "num_atms": 9, 
	 "gaussian": { 
		 "optdone": 1, 
		 "sigma_profile": "yes", 
		 "theory": "DFT", 
		 "functional": "B3LYP", 
		 "basiset": "6-31G**", 
		 "properties": { 
			 "R2extent": 813.8996, 
			 "electric_dipole_moment_norm": 4.49635176337, 
			 "electric_quadrupole_moment_norm": 7.51451374408, 
			 "total_energy": -366.379864398, 
			 "HOMO_LUMO_gap": 0.22871, 
			 "cosmo_polarized_energy": -13.38, 
			 "cosmo_cavitation_energy": 14.4, 
			 "cosmo_dispersion_energy": -10.3, 
			 "cosmo_repulsion_energy": 0.88, 
			 "cosmo_total_nonelectrostatic_energy": 4.98, 
			 "SMD_solvation_energy": 5.23 
		},
		"coords": [
			{
				"x": 1.2440366009,
				"y": 0.478540122,
				"z": 0.6854056982,
				"element": "O" 
			},
			{
				"x": 0.5401432981,
				"y": -0.4143569274,
				"z": 1.4241334856,
				"element": "C" 
			},
			{
				"x": 0.6355527683,
				"y": -0.4592619022,
				"z": 2.6224089829,
				"element": "O" 
			},
			{
				"x": -0.3371505483,
				"y": -1.3588554879,
				"z": 0.6486315274,
				"element": "C" 
			},
			{
				"x": -1.3064838822,
				"y": -1.8843019706,
				"z": 1.4056821175,
				"element": "F" 
			},
			{
				"x": -0.1804755836,
				"y": -1.7263485276,
				"z": -0.6225245423,
				"element": "C" 
			},
			{
				"x": 0.9051799612,
				"y": 0.5042392519,
				"z": -0.2207170438,
				"element": "H" 
			},
			{
				"x": -0.8434976189,
				"y": -2.4545202005,
				"z": -1.0744828057,
				"element": "H" 
			},
			{
				"x": 0.6359950046,
				"y": -1.3436343577,
				"z": -1.2227374199,
				"element": "H" 
			}
		],
		 "valence_orbital": [ 
			{
				"type": "occ",
				"energy": -0.43313,
				"method": "rhf"
			},
			{
				"type": "occ",
				"energy": -0.38425,
				"method": "rhf"
			},
			{
				"type": "occ",
				"energy": -0.33374,
				"method": "rhf"
			},
			{
				"type": "occ",
				"energy": -0.29553,
				"method": "rhf"
			},
			{
				"type": "occ",
				"energy": -0.28917,
				"method": "rhf"
			},
			{
				"type": "unocc",
				"energy": -0.06046,
				"method": "rhf"
			},
			{
				"type": "unocc",
				"energy": 0.04682,
				"method": "rhf"
			},
			{
				"type": "unocc",
				"energy": 0.05812,
				"method": "rhf"
			},
			{
				"type": "unocc",
				"energy": 0.10276,
				"method": "rhf"
			},
			{
				"type": "unocc",
				"energy": 0.13236,
				"method": "rhf"
			}
		],
		"cosmo_sigma_profile": { 
			"-0.025": 0.0,
			"-0.024": 0.0,
			"-0.023": 0.0,
			"-0.022": 0.0,
			"-0.021": 0.0,
			"-0.02": 0.20538246935,
			"-0.019": 0.716503970987,
			"-0.018": 1.55096805887,
			"-0.017": 0.560302899756,
			"-0.016": 0.511283118485,
			"-0.015": 0.93718982522,
			"-0.014": 1.85382164583,
			"-0.013": 0.973935624388,
			"-0.012": 1.93415514905,
			"-0.011": 0.800889173019,
			"-0.01": 1.29187337169,
			"-0.009": 2.649653469,
			"-0.008": 3.56554018434,
			"-0.007": 3.83885177242,
			"-0.006": 3.7507657869,
			"-0.005": 4.78108123516,
			"-0.004": 6.06525300407,
			"-0.003": 4.69956254898,
			"-0.002": 4.60401221072,
			"-0.001": 6.89065404723,
			"0.0": 6.67963346519,
			"0.001": 6.73677964612,
			"0.002": 3.20867979371,
			"0.003": 8.66325980585,
			"0.004": 7.29889433306,
			"0.005": 3.01072134998,
			"0.006": 2.87166475911,
			"0.007": 2.52802467084,
			"0.008": 4.07624091716,
			"0.009": 5.35904573537,
			"0.01": 5.35353971195,
			"0.011": 5.44526316177,
			"0.012": 2.08183896427,
			"0.013": 0.0338704351777,
			"0.014": 0.0,
			"0.015": 0.0,
			"0.016": 0.0,
			"0.017": 0.0,
			"0.018": 0.0,
			"0.019": 0.0,
			"0.02": 0.0,
			"0.021": 0.0,
			"0.022": 0.0,
			"0.023": 0.0,
			"0.024": 0.0,
			"0.025": 0.0
		}
	}
}
