{
	 "smiles": "COC1=C(NS(=O)(=O)C2=CC3=C(OC(S)=N3)C=C2)C=CC=C1", 
	 "Tm": 384.15, 
	 "num_atms": 34, 
	 "gaussian": { 
		 "optdone": 1, 
		 "sigma_profile": "yes", 
		 "theory": "DFT", 
		 "functional": "B3LYP", 
		 "basiset": "6-31G**", 
		 "properties": { 
			 "R2extent": 11913.5727, 
			 "electric_dipole_moment_norm": 4.20133464628, 
			 "electric_quadrupole_moment_norm": 24.7469599984, 
			 "total_energy": -1747.3961642, 
			 "HOMO_LUMO_gap": 0.18091, 
			 "cosmo_polarized_energy": -20.28, 
			 "cosmo_cavitation_energy": 41.98, 
			 "cosmo_dispersion_energy": -30.71, 
			 "cosmo_repulsion_energy": 2.21, 
			 "cosmo_total_nonelectrostatic_energy": 13.48, 
			 "SMD_solvation_energy": 5.07 
		},
		"coords": [
			{
				"x": 2.8251647064,
				"y": 0.8708025489,
				"z": 0.2803212633,
				"element": "C" 
			},
			{
				"x": 1.5958908012,
				"y": 0.2463675847,
				"z": 0.62217563,
				"element": "O" 
			},
			{
				"x": 1.5949192963,
				"y": -0.6680755541,
				"z": 1.6317680959,
				"element": "C" 
			},
			{
				"x": 0.4043409305,
				"y": -1.4043766297,
				"z": 1.8225846439,
				"element": "C" 
			},
			{
				"x": -0.7312974924,
				"y": -1.1504150791,
				"z": 0.9906925055,
				"element": "N" 
			},
			{
				"x": -0.8087655259,
				"y": -1.9173115448,
				"z": -0.5489042595,
				"element": "S" 
			},
			{
				"x": -1.7963997677,
				"y": -3.0032442746,
				"z": -0.4790661662,
				"element": "O" 
			},
			{
				"x": 0.5654657969,
				"y": -2.1763361299,
				"z": -0.9749273952,
				"element": "O" 
			},
			{
				"x": -1.526590975,
				"y": -0.6191758387,
				"z": -1.5598625987,
				"element": "C" 
			},
			{
				"x": -2.6243050329,
				"y": -0.9523073937,
				"z": -2.3543667164,
				"element": "C" 
			},
			{
				"x": -3.121168615,
				"y": 0.0594672298,
				"z": -3.1766187958,
				"element": "C" 
			},
			{
				"x": -2.5191677,
				"y": 1.3251241072,
				"z": -3.1685433647,
				"element": "C" 
			},
			{
				"x": -3.2097592224,
				"y": 2.1147575819,
				"z": -4.0582451904,
				"element": "O" 
			},
			{
				"x": -4.1821632168,
				"y": 1.2745289826,
				"z": -4.5451922471,
				"element": "C" 
			},
			{
				"x": -5.2481005421,
				"y": 2.0079331404,
				"z": -5.7307255335,
				"element": "S" 
			},
			{
				"x": -4.1905549503,
				"y": 0.0693437604,
				"z": -4.0776493639,
				"element": "N" 
			},
			{
				"x": -1.4313407301,
				"y": 1.6675996643,
				"z": -2.3791681055,
				"element": "C" 
			},
			{
				"x": -0.9299558716,
				"y": 0.655078187,
				"z": -1.5610648797,
				"element": "C" 
			},
			{
				"x": 0.3324628668,
				"y": -2.3339147063,
				"z": 2.8610581689,
				"element": "C" 
			},
			{
				"x": 1.4117002832,
				"y": -2.5410690649,
				"z": 3.721337617,
				"element": "C" 
			},
			{
				"x": 2.5883944286,
				"y": -1.8256714677,
				"z": 3.5185934658,
				"element": "C" 
			},
			{
				"x": 2.6841512118,
				"y": -0.8974955926,
				"z": 2.4786133614,
				"element": "C" 
			},
			{
				"x": 3.5909178276,
				"y": 0.1296533378,
				"z": 0.0236339195,
				"element": "H" 
			},
			{
				"x": 2.615424411,
				"y": 1.4881594611,
				"z": -0.5944018861,
				"element": "H" 
			},
			{
				"x": 3.1941121941,
				"y": 1.5114655805,
				"z": 1.0913372672,
				"element": "H" 
			},
			{
				"x": -1.6064093811,
				"y": -1.3575854022,
				"z": 1.4658223514,
				"element": "H" 
			},
			{
				"x": -3.0634676829,
				"y": -1.941859583,
				"z": -2.3212660483,
				"element": "H" 
			},
			{
				"x": -5.9638005809,
				"y": 0.8795298295,
				"z": -5.8942510691,
				"element": "H" 
			},
			{
				"x": -0.9992241815,
				"y": 2.6615164727,
				"z": -2.394155486,
				"element": "H" 
			},
			{
				"x": -0.0919580109,
				"y": 0.8416878993,
				"z": -0.8995891301,
				"element": "H" 
			},
			{
				"x": -0.5853075743,
				"y": -2.9023599585,
				"z": 2.9868782552,
				"element": "H" 
			},
			{
				"x": 1.3339867377,
				"y": -3.2639704999,
				"z": 4.5268152473,
				"element": "H" 
			},
			{
				"x": 3.4438595615,
				"y": -1.9823360516,
				"z": 4.1689255401,
				"element": "H" 
			},
			{
				"x": 3.6061460004,
				"y": -0.3457105967,
				"z": 2.3419409041,
				"element": "H" 
			}
		],
		 "valence_orbital": [ 
			{
				"type": "occ",
				"energy": -0.29283,
				"method": "rhf"
			},
			{
				"type": "occ",
				"energy": -0.26392,
				"method": "rhf"
			},
			{
				"type": "occ",
				"energy": -0.24685,
				"method": "rhf"
			},
			{
				"type": "occ",
				"energy": -0.23929,
				"method": "rhf"
			},
			{
				"type": "occ",
				"energy": -0.22069,
				"method": "rhf"
			},
			{
				"type": "unocc",
				"energy": -0.03978,
				"method": "rhf"
			},
			{
				"type": "unocc",
				"energy": -0.02995,
				"method": "rhf"
			},
			{
				"type": "unocc",
				"energy": -0.01287,
				"method": "rhf"
			},
			{
				"type": "unocc",
				"energy": -0.00575,
				"method": "rhf"
			},
			{
				"type": "unocc",
				"energy": 0.00442,
				"method": "rhf"
			}
		],
		"cosmo_sigma_profile": { 
			"-0.025": 0.0,
			"-0.024": 0.0,
			"-0.023": 0.0,
			"-0.022": 0.0,
			"-0.021": 0.0,
			"-0.02": 0.0,
			"-0.019": 0.0,
			"-0.018": 0.0,
			"-0.017": 0.0,
			"-0.016": 0.0741020321234,
			"-0.015": 0.747419145529,
			"-0.014": 1.17905856483,
			"-0.013": 2.39156385937,
			"-0.012": 2.86610104552,
			"-0.011": 2.11909107019,
			"-0.01": 3.39621671926,
			"-0.009": 3.19506119301,
			"-0.008": 4.5555912039,
			"-0.007": 8.06717555549,
			"-0.006": 18.6569475675,
			"-0.005": 23.2777142412,
			"-0.004": 24.5720161984,
			"-0.003": 24.3232610764,
			"-0.002": 20.3851336667,
			"-0.001": 24.4176111144,
			"0.0": 26.4661928323,
			"0.001": 23.9524425497,
			"0.002": 22.6072088036,
			"0.003": 18.027688514,
			"0.004": 17.010262245,
			"0.005": 17.3705091016,
			"0.006": 8.03486693553,
			"0.007": 5.98554522627,
			"0.008": 6.53131344177,
			"0.009": 6.84883638942,
			"0.01": 10.1613236254,
			"0.011": 9.21686592233,
			"0.012": 2.50166611903,
			"0.013": 0.776882855107,
			"0.014": 0.510486586424,
			"0.015": 0.0239346416578,
			"0.016": 0.0,
			"0.017": 0.0,
			"0.018": 0.0,
			"0.019": 0.0,
			"0.02": 0.0,
			"0.021": 0.0,
			"0.022": 0.0,
			"0.023": 0.0,
			"0.024": 0.0,
			"0.025": 0.0
		}
	}
}
