{
	 "smiles": "NC(=S)CNC(=O)OCC1=CC=CC=C1", 
	 "Tm": 418.15, 
	 "num_atms": 27, 
	 "gaussian": { 
		 "optdone": 1, 
		 "sigma_profile": "yes", 
		 "theory": "DFT", 
		 "functional": "B3LYP", 
		 "basiset": "6-31G**", 
		 "properties": { 
			 "R2extent": 5884.2708, 
			 "electric_dipole_moment_norm": 4.74273194056, 
			 "electric_quadrupole_moment_norm": 22.9200965679, 
			 "total_energy": -1046.46927154, 
			 "HOMO_LUMO_gap": 0.17315, 
			 "cosmo_polarized_energy": -16.71, 
			 "cosmo_cavitation_energy": 33.1, 
			 "cosmo_dispersion_energy": -24.45, 
			 "cosmo_repulsion_energy": 1.91, 
			 "cosmo_total_nonelectrostatic_energy": 10.55, 
			 "SMD_solvation_energy": 4.8 
		},
		"coords": [
			{
				"x": -0.4797772334,
				"y": -3.8279527288,
				"z": -0.8155855721,
				"element": "N" 
			},
			{
				"x": 0.8021096829,
				"y": -3.9330167546,
				"z": -1.1954447488,
				"element": "C" 
			},
			{
				"x": 1.3809412198,
				"y": -5.076002243,
				"z": -2.2566570358,
				"element": "S" 
			},
			{
				"x": 1.7185725248,
				"y": -2.8909058874,
				"z": -0.5432073368,
				"element": "C" 
			},
			{
				"x": 1.4377051706,
				"y": -1.5213293956,
				"z": -0.9537327812,
				"element": "N" 
			},
			{
				"x": 0.4305079534,
				"y": -0.7935322958,
				"z": -0.4068025158,
				"element": "C" 
			},
			{
				"x": -0.3443304349,
				"y": -1.2189827891,
				"z": 0.4495254917,
				"element": "O" 
			},
			{
				"x": 0.3964966444,
				"y": 0.448712883,
				"z": -0.9318145247,
				"element": "O" 
			},
			{
				"x": -0.6312723171,
				"y": 1.3445555735,
				"z": -0.4204891693,
				"element": "C" 
			},
			{
				"x": -0.1180235372,
				"y": 2.1967963706,
				"z": 0.7128261005,
				"element": "C" 
			},
			{
				"x": 0.377344382,
				"y": 3.4823040329,
				"z": 0.4632431817,
				"element": "C" 
			},
			{
				"x": 0.8611214609,
				"y": 4.2722833576,
				"z": 1.5070034055,
				"element": "C" 
			},
			{
				"x": 0.8548717362,
				"y": 3.7803385361,
				"z": 2.813333431,
				"element": "C" 
			},
			{
				"x": 0.363247681,
				"y": 2.4983458683,
				"z": 3.0714671341,
				"element": "C" 
			},
			{
				"x": -0.1219778476,
				"y": 1.7102729091,
				"z": 2.0280733681,
				"element": "C" 
			},
			{
				"x": -1.1625056062,
				"y": -4.451262707,
				"z": -1.2218200792,
				"element": "H" 
			},
			{
				"x": -0.7705968593,
				"y": -3.0737126642,
				"z": -0.1967738298,
				"element": "H" 
			},
			{
				"x": 1.6062121286,
				"y": -2.9487420355,
				"z": 0.5452122744,
				"element": "H" 
			},
			{
				"x": 2.7491195937,
				"y": -3.1244931589,
				"z": -0.803624657,
				"element": "H" 
			},
			{
				"x": 1.9390136379,
				"y": -1.122788546,
				"z": -1.7334016433,
				"element": "H" 
			},
			{
				"x": -0.9031580892,
				"y": 1.958368634,
				"z": -1.2815744657,
				"element": "H" 
			},
			{
				"x": -1.4875561781,
				"y": 0.7423327172,
				"z": -0.1122153265,
				"element": "H" 
			},
			{
				"x": 0.3812361649,
				"y": 3.8672345323,
				"z": -0.553748499,
				"element": "H" 
			},
			{
				"x": 1.2398019935,
				"y": 5.2693332002,
				"z": 1.3012022053,
				"element": "H" 
			},
			{
				"x": 1.2288700005,
				"y": 4.3942760048,
				"z": 3.6277371706,
				"element": "H" 
			},
			{
				"x": 0.3542645317,
				"y": 2.1138986241,
				"z": 4.087417147,
				"element": "H" 
			},
			{
				"x": -0.4989384037,
				"y": 0.7104679621,
				"z": 2.2210512751,
				"element": "H" 
			}
		],
		 "valence_orbital": [ 
			{
				"type": "occ",
				"energy": -0.27812,
				"method": "rhf"
			},
			{
				"type": "occ",
				"energy": -0.25771,
				"method": "rhf"
			},
			{
				"type": "occ",
				"energy": -0.25572,
				"method": "rhf"
			},
			{
				"type": "occ",
				"energy": -0.22961,
				"method": "rhf"
			},
			{
				"type": "occ",
				"energy": -0.20554,
				"method": "rhf"
			},
			{
				"type": "unocc",
				"energy": -0.03239,
				"method": "rhf"
			},
			{
				"type": "unocc",
				"energy": -0.01792,
				"method": "rhf"
			},
			{
				"type": "unocc",
				"energy": -0.00865,
				"method": "rhf"
			},
			{
				"type": "unocc",
				"energy": 0.03092,
				"method": "rhf"
			},
			{
				"type": "unocc",
				"energy": 0.07035,
				"method": "rhf"
			}
		],
		"cosmo_sigma_profile": { 
			"-0.025": 0.0,
			"-0.024": 0.0,
			"-0.023": 0.0,
			"-0.022": 0.0,
			"-0.021": 0.0,
			"-0.02": 0.0,
			"-0.019": 0.0,
			"-0.018": 0.0,
			"-0.017": 0.0,
			"-0.016": 0.0792901777301,
			"-0.015": 1.88043548218,
			"-0.014": 2.14641015699,
			"-0.013": 2.7096159359,
			"-0.012": 1.48205251791,
			"-0.011": 2.81385917064,
			"-0.01": 2.53449616185,
			"-0.009": 2.38862264548,
			"-0.008": 2.41317093369,
			"-0.007": 6.77328883228,
			"-0.006": 14.4839446264,
			"-0.005": 17.184916634,
			"-0.004": 21.2379037058,
			"-0.003": 20.454735818,
			"-0.002": 16.511105955,
			"-0.001": 15.6176544703,
			"0.0": 14.0724584434,
			"0.001": 13.7503726238,
			"0.002": 14.5585575784,
			"0.003": 14.7416921329,
			"0.004": 14.4089237431,
			"0.005": 17.6208873948,
			"0.006": 10.7194421012,
			"0.007": 6.49293958148,
			"0.008": 6.50345975912,
			"0.009": 7.670776939,
			"0.01": 6.72546505137,
			"0.011": 5.03241006168,
			"0.012": 2.67602633072,
			"0.013": 0.304819658926,
			"0.014": 0.0,
			"0.015": 0.0,
			"0.016": 0.0,
			"0.017": 0.0,
			"0.018": 0.0,
			"0.019": 0.0,
			"0.02": 0.0,
			"0.021": 0.0,
			"0.022": 0.0,
			"0.023": 0.0,
			"0.024": 0.0,
			"0.025": 0.0
		}
	}
}
