{
	 "smiles": "O=CC=CN1C=CN=C1", 
	 "Tm": 391.65, 
	 "num_atms": 15, 
	 "gaussian": { 
		 "optdone": 1, 
		 "sigma_profile": "yes", 
		 "theory": "DFT", 
		 "functional": "B3LYP", 
		 "basiset": "6-31G**", 
		 "properties": { 
			 "R2extent": 1599.1624, 
			 "electric_dipole_moment_norm": 1.25362521513, 
			 "electric_quadrupole_moment_norm": 18.6574491544, 
			 "total_energy": -416.936652145, 
			 "HOMO_LUMO_gap": 0.1749, 
			 "cosmo_polarized_energy": -14.88, 
			 "cosmo_cavitation_energy": 20.43, 
			 "cosmo_dispersion_energy": -14.73, 
			 "cosmo_repulsion_energy": 1.19, 
			 "cosmo_total_nonelectrostatic_energy": 6.89, 
			 "SMD_solvation_energy": 4.43 
		},
		"coords": [
			{
				"x": -1.5429855682,
				"y": 2.5132775646,
				"z": 2.7769832226,
				"element": "O" 
			},
			{
				"x": -1.2102578594,
				"y": 1.4162898916,
				"z": 2.3673510805,
				"element": "C" 
			},
			{
				"x": -0.7040302318,
				"y": 1.1565635406,
				"z": 1.0183775377,
				"element": "C" 
			},
			{
				"x": -0.3635069109,
				"y": -0.0976034479,
				"z": 0.6668525,
				"element": "C" 
			},
			{
				"x": 0.1288062013,
				"y": -0.5131798894,
				"z": -0.5611539996,
				"element": "N" 
			},
			{
				"x": 0.3884624709,
				"y": 0.2351000703,
				"z": -1.7068862688,
				"element": "C" 
			},
			{
				"x": 0.8593946401,
				"y": -0.657646632,
				"z": -2.6266196363,
				"element": "C" 
			},
			{
				"x": 0.9049765432,
				"y": -1.9395146858,
				"z": -2.1002055949,
				"element": "N" 
			},
			{
				"x": 0.4667660004,
				"y": -1.8212969185,
				"z": -0.8775556677,
				"element": "C" 
			},
			{
				"x": -1.2749106629,
				"y": 0.5152729356,
				"z": 3.0207404834,
				"element": "H" 
			},
			{
				"x": -0.6232825956,
				"y": 2.0040103258,
				"z": 0.3454602018,
				"element": "H" 
			},
			{
				"x": -0.4650540431,
				"y": -0.9101352954,
				"z": 1.382739222,
				"element": "H" 
			},
			{
				"x": 0.2160828173,
				"y": 1.297966126,
				"z": -1.7492248305,
				"element": "H" 
			},
			{
				"x": 1.1711417215,
				"y": -0.4584568917,
				"z": -3.6422358,
				"element": "H" 
			},
			{
				"x": 0.3595974772,
				"y": -2.6183466938,
				"z": -0.1534224501,
				"element": "H" 
			}
		],
		 "valence_orbital": [ 
			{
				"type": "occ",
				"energy": -0.3465,
				"method": "rhf"
			},
			{
				"type": "occ",
				"energy": -0.28967,
				"method": "rhf"
			},
			{
				"type": "occ",
				"energy": -0.26805,
				"method": "rhf"
			},
			{
				"type": "occ",
				"energy": -0.25866,
				"method": "rhf"
			},
			{
				"type": "occ",
				"energy": -0.251,
				"method": "rhf"
			},
			{
				"type": "unocc",
				"energy": -0.0761,
				"method": "rhf"
			},
			{
				"type": "unocc",
				"energy": 0.01152,
				"method": "rhf"
			},
			{
				"type": "unocc",
				"energy": 0.04589,
				"method": "rhf"
			},
			{
				"type": "unocc",
				"energy": 0.06723,
				"method": "rhf"
			},
			{
				"type": "unocc",
				"energy": 0.07299,
				"method": "rhf"
			}
		],
		"cosmo_sigma_profile": { 
			"-0.025": 0.0,
			"-0.024": 0.0,
			"-0.023": 0.0,
			"-0.022": 0.0,
			"-0.021": 0.0,
			"-0.02": 0.0,
			"-0.019": 0.0,
			"-0.018": 0.0,
			"-0.017": 0.0,
			"-0.016": 0.0,
			"-0.015": 0.0,
			"-0.014": 0.0,
			"-0.013": 0.103024403029,
			"-0.012": 1.21452245618,
			"-0.011": 2.31361122176,
			"-0.01": 6.93626220015,
			"-0.009": 6.47307698718,
			"-0.008": 5.71239078511,
			"-0.007": 8.05258856032,
			"-0.006": 7.94110248149,
			"-0.005": 8.09016370287,
			"-0.004": 9.53589054391,
			"-0.003": 8.1197932775,
			"-0.002": 9.91672039566,
			"-0.001": 11.7658388464,
			"0.0": 10.6359525487,
			"0.001": 9.72769544095,
			"0.002": 6.21821335348,
			"0.003": 7.17611583321,
			"0.004": 6.46391385698,
			"0.005": 4.37203520784,
			"0.006": 3.30779913982,
			"0.007": 2.06625661123,
			"0.008": 3.5308135918,
			"0.009": 3.3491258328,
			"0.01": 2.85556636511,
			"0.011": 4.95943383325,
			"0.012": 6.02397697003,
			"0.013": 3.77308264218,
			"0.014": 1.19440549903,
			"0.015": 1.27750944316,
			"0.016": 0.993982855617,
			"0.017": 0.571836371269,
			"0.018": 0.0,
			"0.019": 0.0,
			"0.02": 0.0,
			"0.021": 0.0,
			"0.022": 0.0,
			"0.023": 0.0,
			"0.024": 0.0,
			"0.025": 0.0
		}
	}
}
