{
	 "smiles": "CC1=C(C=NC(Br)=C1)[N+]([O-])=O", 
	 "Tm": 338.15, 
	 "num_atms": 16, 
	 "gaussian": { 
		 "optdone": 1, 
		 "sigma_profile": "yes", 
		 "theory": "DFT", 
		 "functional": "B3LYP", 
		 "basiset": "6-31G**", 
		 "properties": { 
			 "R2extent": 3311.8685, 
			 "electric_dipole_moment_norm": 3.10171863489, 
			 "electric_quadrupole_moment_norm": 10.1922990787, 
			 "total_energy": -3062.89968453, 
			 "HOMO_LUMO_gap": 0.17399, 
			 "cosmo_polarized_energy": -9.0, 
			 "cosmo_cavitation_energy": 23.35, 
			 "cosmo_dispersion_energy": -17.79, 
			 "cosmo_repulsion_energy": 1.42, 
			 "cosmo_total_nonelectrostatic_energy": 6.98, 
			 "SMD_solvation_energy": 3.61 
		},
		"coords": [
			{
				"x": 1.5531546533,
				"y": -1.6461205654,
				"z": -0.7591228053,
				"element": "C" 
			},
			{
				"x": 0.3538204592,
				"y": -0.7371592909,
				"z": -0.8140902068,
				"element": "C" 
			},
			{
				"x": -0.710031221,
				"y": -0.8267832054,
				"z": -1.7365964533,
				"element": "C" 
			},
			{
				"x": -1.7694291375,
				"y": 0.0834047023,
				"z": -1.6933318997,
				"element": "C" 
			},
			{
				"x": -1.8482934547,
				"y": 1.0690515097,
				"z": -0.7976231117,
				"element": "N" 
			},
			{
				"x": -0.8525149662,
				"y": 1.1612670341,
				"z": 0.068702877,
				"element": "C" 
			},
			{
				"x": -0.9554808453,
				"y": 2.5759159972,
				"z": 1.3493528628,
				"element": "Br" 
			},
			{
				"x": 0.2517089508,
				"y": 0.3098871401,
				"z": 0.1078549035,
				"element": "C" 
			},
			{
				"x": -0.7734821638,
				"y": -1.8625821929,
				"z": -2.775909187,
				"element": "N" 
			},
			{
				"x": -1.642234657,
				"y": -1.7474155544,
				"z": -3.639251828,
				"element": "O" 
			},
			{
				"x": 0.0366260469,
				"y": -2.7885556351,
				"z": -2.723305395,
				"element": "O" 
			},
			{
				"x": 2.2555560273,
				"y": -1.2865141015,
				"z": -0.0037850464,
				"element": "H" 
			},
			{
				"x": 2.0593477952,
				"y": -1.6978664628,
				"z": -1.7258346742,
				"element": "H" 
			},
			{
				"x": 1.2572716697,
				"y": -2.669614907,
				"z": -0.5163768393,
				"element": "H" 
			},
			{
				"x": -2.5754113854,
				"y": -0.0031955714,
				"z": -2.4134631163,
				"element": "H" 
			},
			{
				"x": 1.0275922285,
				"y": 0.4592811034,
				"z": 0.8488799195,
				"element": "H" 
			}
		],
		 "valence_orbital": [ 
			{
				"type": "occ",
				"energy": -0.31401,
				"method": "rhf"
			},
			{
				"type": "occ",
				"energy": -0.30565,
				"method": "rhf"
			},
			{
				"type": "occ",
				"energy": -0.30378,
				"method": "rhf"
			},
			{
				"type": "occ",
				"energy": -0.29165,
				"method": "rhf"
			},
			{
				"type": "occ",
				"energy": -0.27842,
				"method": "rhf"
			},
			{
				"type": "unocc",
				"energy": -0.10443,
				"method": "rhf"
			},
			{
				"type": "unocc",
				"energy": -0.05796,
				"method": "rhf"
			},
			{
				"type": "unocc",
				"energy": -0.02439,
				"method": "rhf"
			},
			{
				"type": "unocc",
				"energy": -0.00761,
				"method": "rhf"
			},
			{
				"type": "unocc",
				"energy": 0.09428,
				"method": "rhf"
			}
		],
		"cosmo_sigma_profile": { 
			"-0.025": 0.0,
			"-0.024": 0.0,
			"-0.023": 0.0,
			"-0.022": 0.0,
			"-0.021": 0.0,
			"-0.02": 0.0,
			"-0.019": 0.0,
			"-0.018": 0.0,
			"-0.017": 0.0,
			"-0.016": 0.0,
			"-0.015": 0.0,
			"-0.014": 0.0,
			"-0.013": 0.0,
			"-0.012": 0.0,
			"-0.011": 0.0,
			"-0.01": 0.0,
			"-0.009": 1.76711110399,
			"-0.008": 5.06110203169,
			"-0.007": 5.59594273596,
			"-0.006": 7.63072301329,
			"-0.005": 12.663803824,
			"-0.004": 15.35591194,
			"-0.003": 19.5503201987,
			"-0.002": 21.7211488544,
			"-0.001": 15.4031022251,
			"0.0": 8.18289372044,
			"0.001": 8.27513698864,
			"0.002": 10.4080810075,
			"0.003": 12.7303822068,
			"0.004": 9.67055567616,
			"0.005": 6.30432516951,
			"0.006": 5.90973350898,
			"0.007": 8.28929199152,
			"0.008": 6.42168506678,
			"0.009": 5.55396658199,
			"0.01": 2.43326642881,
			"0.011": 0.479342665474,
			"0.012": 0.888691220514,
			"0.013": 0.678509187314,
			"0.014": 0.032935349527,
			"0.015": 0.0,
			"0.016": 0.0,
			"0.017": 0.0,
			"0.018": 0.0,
			"0.019": 0.0,
			"0.02": 0.0,
			"0.021": 0.0,
			"0.022": 0.0,
			"0.023": 0.0,
			"0.024": 0.0,
			"0.025": 0.0
		}
	}
}
