{
	 "smiles": "OCC1OC(OC1CO)C1=CC=CC=C1", 
	 "Tm": 344.65, 
	 "num_atms": 29, 
	 "gaussian": { 
		 "optdone": 1, 
		 "sigma_profile": "yes", 
		 "theory": "DFT", 
		 "functional": "B3LYP", 
		 "basiset": "6-31G**", 
		 "properties": { 
			 "R2extent": 3824.2699, 
			 "electric_dipole_moment_norm": 2.32696008346, 
			 "electric_quadrupole_moment_norm": 15.0094184095, 
			 "total_energy": -728.468230203, 
			 "HOMO_LUMO_gap": 0.23753, 
			 "cosmo_polarized_energy": -13.16, 
			 "cosmo_cavitation_energy": 31.16, 
			 "cosmo_dispersion_energy": -22.59, 
			 "cosmo_repulsion_energy": 1.78, 
			 "cosmo_total_nonelectrostatic_energy": 10.35, 
			 "SMD_solvation_energy": 4.71 
		},
		"coords": [
			{
				"x": 3.5394154394,
				"y": 2.4313584806,
				"z": -0.6454004799,
				"element": "O" 
			},
			{
				"x": 2.6571422649,
				"y": 2.6227181722,
				"z": 0.4468666146,
				"element": "C" 
			},
			{
				"x": 1.2252121886,
				"y": 2.2825079888,
				"z": 0.0519567731,
				"element": "C" 
			},
			{
				"x": 1.1938621064,
				"y": 0.8936603898,
				"z": -0.2985194641,
				"element": "O" 
			},
			{
				"x": -0.142906403,
				"y": 0.4809342186,
				"z": -0.1445927993,
				"element": "C" 
			},
			{
				"x": -0.6369801772,
				"y": 1.1935107309,
				"z": 0.9955781921,
				"element": "O" 
			},
			{
				"x": 0.1113866961,
				"y": 2.4133703058,
				"z": 1.1288782502,
				"element": "C" 
			},
			{
				"x": 0.5469390283,
				"y": 2.5027811165,
				"z": 2.5945385178,
				"element": "C" 
			},
			{
				"x": 1.2302013508,
				"y": 1.3402333679,
				"z": 3.0204072704,
				"element": "O" 
			},
			{
				"x": -0.231544323,
				"y": -1.0053422722,
				"z": 0.0883091813,
				"element": "C" 
			},
			{
				"x": -1.2814947466,
				"y": -1.7404639949,
				"z": -0.4662522413,
				"element": "C" 
			},
			{
				"x": -1.3930398552,
				"y": -3.1093504935,
				"z": -0.214130428,
				"element": "C" 
			},
			{
				"x": -0.4498000747,
				"y": -3.7481537316,
				"z": 0.5917816108,
				"element": "C" 
			},
			{
				"x": 0.6053329459,
				"y": -3.0164959678,
				"z": 1.1444814847,
				"element": "C" 
			},
			{
				"x": 0.7145642016,
				"y": -1.6494335034,
				"z": 0.8954096824,
				"element": "C" 
			},
			{
				"x": 3.4419548512,
				"y": 1.5080290167,
				"z": -0.9163950443,
				"element": "H" 
			},
			{
				"x": 2.7239176605,
				"y": 3.681656685,
				"z": 0.7194822989,
				"element": "H" 
			},
			{
				"x": 2.9377319251,
				"y": 2.0206822906,
				"z": 1.3204869889,
				"element": "H" 
			},
			{
				"x": 0.9535226159,
				"y": 2.8784958337,
				"z": -0.8328017695,
				"element": "H" 
			},
			{
				"x": -0.7370462614,
				"y": 0.7766548853,
				"z": -1.0273867798,
				"element": "H" 
			},
			{
				"x": -0.5311016427,
				"y": 3.2742872752,
				"z": 0.8958878986,
				"element": "H" 
			},
			{
				"x": 1.2211141031,
				"y": 3.3531977362,
				"z": 2.7419878671,
				"element": "H" 
			},
			{
				"x": -0.3508060827,
				"y": 2.6852611125,
				"z": 3.2060350712,
				"element": "H" 
			},
			{
				"x": 0.6565308546,
				"y": 0.6007252745,
				"z": 2.7681862121,
				"element": "H" 
			},
			{
				"x": -2.01399204,
				"y": -1.2413741615,
				"z": -1.0957780959,
				"element": "H" 
			},
			{
				"x": -2.2121850494,
				"y": -3.6749323149,
				"z": -0.6485567738,
				"element": "H" 
			},
			{
				"x": -0.5327789946,
				"y": -4.8136739234,
				"z": 0.7860228365,
				"element": "H" 
			},
			{
				"x": 1.3444710816,
				"y": -3.5132471957,
				"z": 1.7664093674,
				"element": "H" 
			},
			{
				"x": 1.5393763365,
				"y": -1.0748973217,
				"z": 1.3052077575,
				"element": "H" 
			}
		],
		 "valence_orbital": [ 
			{
				"type": "occ",
				"energy": -0.27669,
				"method": "rhf"
			},
			{
				"type": "occ",
				"energy": -0.27189,
				"method": "rhf"
			},
			{
				"type": "occ",
				"energy": -0.25875,
				"method": "rhf"
			},
			{
				"type": "occ",
				"energy": -0.25739,
				"method": "rhf"
			},
			{
				"type": "occ",
				"energy": -0.25456,
				"method": "rhf"
			},
			{
				"type": "unocc",
				"energy": -0.01703,
				"method": "rhf"
			},
			{
				"type": "unocc",
				"energy": -0.00923,
				"method": "rhf"
			},
			{
				"type": "unocc",
				"energy": 0.08123,
				"method": "rhf"
			},
			{
				"type": "unocc",
				"energy": 0.08763,
				"method": "rhf"
			},
			{
				"type": "unocc",
				"energy": 0.09308,
				"method": "rhf"
			}
		],
		"cosmo_sigma_profile": { 
			"-0.025": 0.0,
			"-0.024": 0.0,
			"-0.023": 0.0,
			"-0.022": 0.0,
			"-0.021": 0.0,
			"-0.02": 0.0,
			"-0.019": 0.0,
			"-0.018": 0.0,
			"-0.017": 0.0,
			"-0.016": 0.0,
			"-0.015": 0.0,
			"-0.014": 0.244174390074,
			"-0.013": 0.823465656968,
			"-0.012": 0.811755111611,
			"-0.011": 0.213814143928,
			"-0.01": 0.933139376106,
			"-0.009": 0.871218133464,
			"-0.008": 1.84793647909,
			"-0.007": 4.61889725374,
			"-0.006": 20.9998758286,
			"-0.005": 28.9053670014,
			"-0.004": 23.0333343688,
			"-0.003": 17.37632606,
			"-0.002": 16.8592511057,
			"-0.001": 14.9125508033,
			"0.0": 9.01059288317,
			"0.001": 11.7220433476,
			"0.002": 13.2514037191,
			"0.003": 13.1866466502,
			"0.004": 14.3585167929,
			"0.005": 15.4371575812,
			"0.006": 6.15804845711,
			"0.007": 4.88400121386,
			"0.008": 4.28826150098,
			"0.009": 3.72064724186,
			"0.01": 2.41118819019,
			"0.011": 3.25413482212,
			"0.012": 3.62444594342,
			"0.013": 3.37903388143,
			"0.014": 3.42100572199,
			"0.015": 0.386432516162,
			"0.016": 0.0,
			"0.017": 0.0,
			"0.018": 0.0,
			"0.019": 0.0,
			"0.02": 0.0,
			"0.021": 0.0,
			"0.022": 0.0,
			"0.023": 0.0,
			"0.024": 0.0,
			"0.025": 0.0
		}
	}
}
