{
	 "smiles": "NC1=C(CO)C=NC=N1", 
	 "Tm": 439.15, 
	 "num_atms": 16, 
	 "gaussian": { 
		 "optdone": 1, 
		 "sigma_profile": "yes", 
		 "theory": "DFT", 
		 "functional": "B3LYP", 
		 "basiset": "6-31G**", 
		 "properties": { 
			 "R2extent": 1682.4756, 
			 "electric_dipole_moment_norm": 2.67373862036, 
			 "electric_quadrupole_moment_norm": 4.26588662179, 
			 "total_energy": -434.228472686, 
			 "HOMO_LUMO_gap": 0.21097, 
			 "cosmo_polarized_energy": -12.99, 
			 "cosmo_cavitation_energy": 19.7, 
			 "cosmo_dispersion_energy": -15.04, 
			 "cosmo_repulsion_energy": 1.24, 
			 "cosmo_total_nonelectrostatic_energy": 5.9, 
			 "SMD_solvation_energy": 0.63 
		},
		"coords": [
			{
				"x": 1.4814860659,
				"y": -1.7381797823,
				"z": -0.8637036163,
				"element": "N" 
			},
			{
				"x": 0.7159133487,
				"y": -1.1206457934,
				"z": 0.0801617337,
				"element": "C" 
			},
			{
				"x": -0.1195207651,
				"y": -1.872261836,
				"z": 0.9517036382,
				"element": "C" 
			},
			{
				"x": -0.1588749304,
				"y": -3.3760274979,
				"z": 0.9018411855,
				"element": "C" 
			},
			{
				"x": -0.387307099,
				"y": -3.8957167996,
				"z": -0.4172035375,
				"element": "O" 
			},
			{
				"x": -0.8555098494,
				"y": -1.1281273182,
				"z": 1.8603643687,
				"element": "C" 
			},
			{
				"x": -0.7932692882,
				"y": 0.2111450732,
				"z": 1.966202556,
				"element": "N" 
			},
			{
				"x": 0.0494275005,
				"y": 0.7976550591,
				"z": 1.1130164309,
				"element": "C" 
			},
			{
				"x": 0.7989136449,
				"y": 0.2181260459,
				"z": 0.1729315399,
				"element": "N" 
			},
			{
				"x": 1.1803410823,
				"y": -2.6537364005,
				"z": -1.1722149803,
				"element": "H" 
			},
			{
				"x": 1.9341943835,
				"y": -1.129221242,
				"z": -1.5293416041,
				"element": "H" 
			},
			{
				"x": 0.8105807745,
				"y": -3.7951092003,
				"z": 1.1951383166,
				"element": "H" 
			},
			{
				"x": -0.9090992927,
				"y": -3.754951645,
				"z": 1.6101882269,
				"element": "H" 
			},
			{
				"x": -1.2355052922,
				"y": -3.5460306796,
				"z": -0.7234017379,
				"element": "H" 
			},
			{
				"x": -1.5310852444,
				"y": -1.6351398772,
				"z": 2.5507608909,
				"element": "H" 
			},
			{
				"x": 0.1323149612,
				"y": 1.8814218936,
				"z": 1.1834565889,
				"element": "H" 
			}
		],
		 "valence_orbital": [ 
			{
				"type": "occ",
				"energy": -0.31159,
				"method": "rhf"
			},
			{
				"type": "occ",
				"energy": -0.28856,
				"method": "rhf"
			},
			{
				"type": "occ",
				"energy": -0.27923,
				"method": "rhf"
			},
			{
				"type": "occ",
				"energy": -0.24647,
				"method": "rhf"
			},
			{
				"type": "occ",
				"energy": -0.23463,
				"method": "rhf"
			},
			{
				"type": "unocc",
				"energy": -0.02366,
				"method": "rhf"
			},
			{
				"type": "unocc",
				"energy": -0.00916,
				"method": "rhf"
			},
			{
				"type": "unocc",
				"energy": 0.06529,
				"method": "rhf"
			},
			{
				"type": "unocc",
				"energy": 0.10524,
				"method": "rhf"
			},
			{
				"type": "unocc",
				"energy": 0.11272,
				"method": "rhf"
			}
		],
		"cosmo_sigma_profile": { 
			"-0.025": 0.0,
			"-0.024": 0.0,
			"-0.023": 0.0,
			"-0.022": 0.0,
			"-0.021": 0.0,
			"-0.02": 0.0,
			"-0.019": 0.0,
			"-0.018": 0.0,
			"-0.017": 0.0,
			"-0.016": 0.704848445491,
			"-0.015": 1.27852262963,
			"-0.014": 0.633879368396,
			"-0.013": 2.22570543209,
			"-0.012": 2.12199106901,
			"-0.011": 1.65750258646,
			"-0.01": 2.40652854594,
			"-0.009": 3.14163992723,
			"-0.008": 2.18890540141,
			"-0.007": 5.32295027526,
			"-0.006": 10.5434374013,
			"-0.005": 9.75401002779,
			"-0.004": 8.44187944642,
			"-0.003": 11.3521759917,
			"-0.002": 8.58715122295,
			"-0.001": 7.37209591076,
			"0.0": 11.2960465216,
			"0.001": 11.3372790213,
			"0.002": 7.12026448393,
			"0.003": 5.4441222611,
			"0.004": 5.77856113883,
			"0.005": 5.18556248017,
			"0.006": 3.09360071338,
			"0.007": 4.03725606681,
			"0.008": 5.00392558775,
			"0.009": 3.09700342379,
			"0.01": 3.6243250112,
			"0.011": 2.42415834525,
			"0.012": 2.54144759102,
			"0.013": 2.61584003703,
			"0.014": 2.80415415348,
			"0.015": 1.62160070994,
			"0.016": 0.802841390045,
			"0.017": 0.639005867148,
			"0.018": 0.00549904733724,
			"0.019": 0.0,
			"0.02": 0.0,
			"0.021": 0.0,
			"0.022": 0.0,
			"0.023": 0.0,
			"0.024": 0.0,
			"0.025": 0.0
		}
	}
}
