{
	 "smiles": "OC1=C(C=C(Br)C=C1)C(F)(F)F", 
	 "Tm": 357.15, 
	 "num_atms": 16, 
	 "gaussian": { 
		 "optdone": 1, 
		 "sigma_profile": "yes", 
		 "theory": "DFT", 
		 "functional": "B3LYP", 
		 "basiset": "6-31G**", 
		 "properties": { 
			 "R2extent": 3596.6223, 
			 "electric_dipole_moment_norm": 3.619598725, 
			 "electric_quadrupole_moment_norm": 8.6665623629, 
			 "total_energy": -3215.30314684, 
			 "HOMO_LUMO_gap": 0.19883, 
			 "cosmo_polarized_energy": -9.86, 
			 "cosmo_cavitation_energy": 24.27, 
			 "cosmo_dispersion_energy": -17.95, 
			 "cosmo_repulsion_energy": 1.38, 
			 "cosmo_total_nonelectrostatic_energy": 7.7, 
			 "SMD_solvation_energy": 4.55 
		},
		"coords": [
			{
				"x": 2.1476513021,
				"y": -0.7110220381,
				"z": 0.1997045683,
				"element": "O" 
			},
			{
				"x": 0.8393460792,
				"y": -0.5166217763,
				"z": -0.109352556,
				"element": "C" 
			},
			{
				"x": 0.1338051636,
				"y": 0.4712444906,
				"z": 0.6019759947,
				"element": "C" 
			},
			{
				"x": -1.211526158,
				"y": 0.7028208938,
				"z": 0.3155534345,
				"element": "C" 
			},
			{
				"x": -1.8536131217,
				"y": -0.0411761508,
				"z": -0.6708596911,
				"element": "C" 
			},
			{
				"x": -3.6949620921,
				"y": 0.2863271901,
				"z": -1.0526371341,
				"element": "Br" 
			},
			{
				"x": -1.1640160286,
				"y": -1.0211151595,
				"z": -1.3803446817,
				"element": "C" 
			},
			{
				"x": 0.1798734976,
				"y": -1.2550866773,
				"z": -1.0968529302,
				"element": "C" 
			},
			{
				"x": 0.8307191636,
				"y": 1.2761055923,
				"z": 1.6698935592,
				"element": "C" 
			},
			{
				"x": 1.3052684426,
				"y": 0.4915002408,
				"z": 2.6595318102,
				"element": "F" 
			},
			{
				"x": 1.8758509254,
				"y": 1.9697120279,
				"z": 1.1731050228,
				"element": "F" 
			},
			{
				"x": -0.0085573701,
				"y": 2.1720343003,
				"z": 2.2387021682,
				"element": "F" 
			},
			{
				"x": 2.5116686063,
				"y": -1.4115123353,
				"z": -0.3571016834,
				"element": "H" 
			},
			{
				"x": -1.7490530394,
				"y": 1.4639633848,
				"z": 0.8659453736,
				"element": "H" 
			},
			{
				"x": -1.6676482707,
				"y": -1.5981021293,
				"z": -2.1474557894,
				"element": "H" 
			},
			{
				"x": 0.7218929001,
				"y": -2.0194718539,
				"z": -1.6487074657,
				"element": "H" 
			}
		],
		 "valence_orbital": [ 
			{
				"type": "occ",
				"energy": -0.36025,
				"method": "rhf"
			},
			{
				"type": "occ",
				"energy": -0.30638,
				"method": "rhf"
			},
			{
				"type": "occ",
				"energy": -0.29405,
				"method": "rhf"
			},
			{
				"type": "occ",
				"energy": -0.28333,
				"method": "rhf"
			},
			{
				"type": "occ",
				"energy": -0.23706,
				"method": "rhf"
			},
			{
				"type": "unocc",
				"energy": -0.03823,
				"method": "rhf"
			},
			{
				"type": "unocc",
				"energy": -0.01749,
				"method": "rhf"
			},
			{
				"type": "unocc",
				"energy": -0.0009,
				"method": "rhf"
			},
			{
				"type": "unocc",
				"energy": 0.05174,
				"method": "rhf"
			},
			{
				"type": "unocc",
				"energy": 0.09579,
				"method": "rhf"
			}
		],
		"cosmo_sigma_profile": { 
			"-0.025": 0.0,
			"-0.024": 0.0,
			"-0.023": 0.0,
			"-0.022": 0.0,
			"-0.021": 0.0,
			"-0.02": 0.0,
			"-0.019": 0.84856992787,
			"-0.018": 1.28726271527,
			"-0.017": 1.12579908051,
			"-0.016": 1.00827566152,
			"-0.015": 1.06378820034,
			"-0.014": 0.831029906379,
			"-0.013": 0.987054793765,
			"-0.012": 0.978854056184,
			"-0.011": 1.28734359344,
			"-0.01": 1.13815245542,
			"-0.009": 1.05336612067,
			"-0.008": 3.50728053959,
			"-0.007": 5.64032455063,
			"-0.006": 4.79341721721,
			"-0.005": 5.6104543501,
			"-0.004": 5.59037628653,
			"-0.003": 7.32945042358,
			"-0.002": 9.88845915287,
			"-0.001": 9.310401847,
			"0.0": 14.8902845252,
			"0.001": 23.1007056104,
			"0.002": 31.0639644362,
			"0.003": 32.6103195382,
			"0.004": 15.7769809562,
			"0.005": 8.02491344718,
			"0.006": 2.52439908238,
			"0.007": 2.19303588281,
			"0.008": 3.18476078064,
			"0.009": 1.67091031289,
			"0.01": 0.0,
			"0.011": 0.0,
			"0.012": 0.0,
			"0.013": 0.0,
			"0.014": 0.0,
			"0.015": 0.0,
			"0.016": 0.0,
			"0.017": 0.0,
			"0.018": 0.0,
			"0.019": 0.0,
			"0.02": 0.0,
			"0.021": 0.0,
			"0.022": 0.0,
			"0.023": 0.0,
			"0.024": 0.0,
			"0.025": 0.0
		}
	}
}
