{
	 "smiles": "CC(C)COC(C)=O", 
	 "Tm": 174.25, 
	 "num_atms": 20, 
	 "gaussian": { 
		 "optdone": 1, 
		 "sigma_profile": "yes", 
		 "theory": "DFT", 
		 "functional": "B3LYP", 
		 "basiset": "6-31G**", 
		 "properties": { 
			 "R2extent": 1394.1903, 
			 "electric_dipole_moment_norm": 1.67753557935, 
			 "electric_quadrupole_moment_norm": 7.20797150313, 
			 "total_energy": -386.345393083, 
			 "HOMO_LUMO_gap": 0.28285, 
			 "cosmo_polarized_energy": -6.1, 
			 "cosmo_cavitation_energy": 22.78, 
			 "cosmo_dispersion_energy": -16.15, 
			 "cosmo_repulsion_energy": 1.37, 
			 "cosmo_total_nonelectrostatic_energy": 8.0, 
			 "SMD_solvation_energy": 5.38 
		},
		"coords": [
			{
				"x": -1.0234130739,
				"y": -1.3646997924,
				"z": -1.4128502909,
				"element": "C" 
			},
			{
				"x": -0.0988424018,
				"y": -0.3379494559,
				"z": -0.7427143588,
				"element": "C" 
			},
			{
				"x": 1.3475743664,
				"y": -0.473237718,
				"z": -1.2359331106,
				"element": "C" 
			},
			{
				"x": -0.1954916572,
				"y": -0.4863868274,
				"z": 0.7785958444,
				"element": "C" 
			},
			{
				"x": 0.6143925395,
				"y": 0.4877076525,
				"z": 1.4773511157,
				"element": "O" 
			},
			{
				"x": 0.0348159701,
				"y": 1.6849413417,
				"z": 1.73593495,
				"element": "C" 
			},
			{
				"x": 0.9941972832,
				"y": 2.5927096128,
				"z": 2.4696644061,
				"element": "C" 
			},
			{
				"x": -1.0995704347,
				"y": 1.9722286253,
				"z": 1.4205871893,
				"element": "O" 
			},
			{
				"x": -0.7167285487,
				"y": -2.3900358308,
				"z": -1.17163422,
				"element": "H" 
			},
			{
				"x": -0.9940400427,
				"y": -1.2605193562,
				"z": -2.5020637525,
				"element": "H" 
			},
			{
				"x": -2.0635558208,
				"y": -1.240258941,
				"z": -1.0931448874,
				"element": "H" 
			},
			{
				"x": -0.4654469083,
				"y": 0.6666545346,
				"z": -0.9893885089,
				"element": "H" 
			},
			{
				"x": 1.7377275537,
				"y": -1.4786212531,
				"z": -1.0337975466,
				"element": "H" 
			},
			{
				"x": 1.4098185799,
				"y": -0.3035052104,
				"z": -2.3158909363,
				"element": "H" 
			},
			{
				"x": 2.0053273946,
				"y": 0.2460921251,
				"z": -0.7400324883,
				"element": "H" 
			},
			{
				"x": 0.1992870281,
				"y": -1.4554432034,
				"z": 1.1003478827,
				"element": "H" 
			},
			{
				"x": -1.2318040584,
				"y": -0.3857938524,
				"z": 1.1106636942,
				"element": "H" 
			},
			{
				"x": 1.3156201843,
				"y": 2.1230737706,
				"z": 3.4039103911,
				"element": "H" 
			},
			{
				"x": 0.5057006791,
				"y": 3.5438189088,
				"z": 2.6787107748,
				"element": "H" 
			},
			{
				"x": 1.8903313676,
				"y": 2.7588248694,
				"z": 1.8643838521,
				"element": "H" 
			}
		],
		 "valence_orbital": [ 
			{
				"type": "occ",
				"energy": -0.34382,
				"method": "rhf"
			},
			{
				"type": "occ",
				"energy": -0.33313,
				"method": "rhf"
			},
			{
				"type": "occ",
				"energy": -0.32607,
				"method": "rhf"
			},
			{
				"type": "occ",
				"energy": -0.2901,
				"method": "rhf"
			},
			{
				"type": "occ",
				"energy": -0.26764,
				"method": "rhf"
			},
			{
				"type": "unocc",
				"energy": 0.01521,
				"method": "rhf"
			},
			{
				"type": "unocc",
				"energy": 0.0889,
				"method": "rhf"
			},
			{
				"type": "unocc",
				"energy": 0.10445,
				"method": "rhf"
			},
			{
				"type": "unocc",
				"energy": 0.12425,
				"method": "rhf"
			},
			{
				"type": "unocc",
				"energy": 0.13272,
				"method": "rhf"
			}
		],
		"cosmo_sigma_profile": { 
			"-0.025": 0.0,
			"-0.024": 0.0,
			"-0.023": 0.0,
			"-0.022": 0.0,
			"-0.021": 0.0,
			"-0.02": 0.0,
			"-0.019": 0.0,
			"-0.018": 0.0,
			"-0.017": 0.0,
			"-0.016": 0.0,
			"-0.015": 0.0,
			"-0.014": 0.0,
			"-0.013": 0.0,
			"-0.012": 0.0,
			"-0.011": 0.0,
			"-0.01": 0.0,
			"-0.009": 0.0,
			"-0.008": 0.0,
			"-0.007": 0.538599940055,
			"-0.006": 4.34318864575,
			"-0.005": 7.75847055978,
			"-0.004": 12.3196227863,
			"-0.003": 22.8585571219,
			"-0.002": 28.2409868295,
			"-0.001": 26.3122253116,
			"0.0": 18.8975906436,
			"0.001": 17.4351576992,
			"0.002": 8.08660571316,
			"0.003": 3.91449831061,
			"0.004": 2.85758038715,
			"0.005": 2.95389362095,
			"0.006": 2.83600447655,
			"0.007": 2.15906888161,
			"0.008": 2.26500067166,
			"0.009": 2.32722473772,
			"0.01": 2.20830370052,
			"0.011": 2.02804309965,
			"0.012": 4.76397959203,
			"0.013": 1.91865662087,
			"0.014": 0.0522778978866,
			"0.015": 0.0,
			"0.016": 0.0,
			"0.017": 0.0,
			"0.018": 0.0,
			"0.019": 0.0,
			"0.02": 0.0,
			"0.021": 0.0,
			"0.022": 0.0,
			"0.023": 0.0,
			"0.024": 0.0,
			"0.025": 0.0
		}
	}
}
