{
	 "smiles": "CC(Br)C1=CC=C(C=C1)[N+]([O-])=O", 
	 "Tm": 307.15, 
	 "num_atms": 20, 
	 "gaussian": { 
		 "optdone": 1, 
		 "sigma_profile": "yes", 
		 "theory": "DFT", 
		 "functional": "B3LYP", 
		 "basiset": "6-31G**", 
		 "properties": { 
			 "R2extent": 4706.3651, 
			 "electric_dipole_moment_norm": 4.2558580075, 
			 "electric_quadrupole_moment_norm": 12.0801720352, 
			 "total_energy": -3086.18679846, 
			 "HOMO_LUMO_gap": 0.17619, 
			 "cosmo_polarized_energy": -10.31, 
			 "cosmo_cavitation_energy": 26.88, 
			 "cosmo_dispersion_energy": -19.67, 
			 "cosmo_repulsion_energy": 1.58, 
			 "cosmo_total_nonelectrostatic_energy": 8.78, 
			 "SMD_solvation_energy": 5.74 
		},
		"coords": [
			{
				"x": 3.5829208026,
				"y": -0.8311332882,
				"z": -0.6974744908,
				"element": "C" 
			},
			{
				"x": 2.3741042991,
				"y": -1.7008983962,
				"z": -0.3716913784,
				"element": "C" 
			},
			{
				"x": 2.9336112803,
				"y": -3.1273264179,
				"z": 0.9348602803,
				"element": "Br" 
			},
			{
				"x": 1.1868150925,
				"y": -0.9512358995,
				"z": 0.1750497891,
				"element": "C" 
			},
			{
				"x": 1.2904777204,
				"y": -0.1525982713,
				"z": 1.3257571678,
				"element": "C" 
			},
			{
				"x": 0.1998064096,
				"y": 0.5726062244,
				"z": 1.7889256195,
				"element": "C" 
			},
			{
				"x": -1.004754011,
				"y": 0.4923516414,
				"z": 1.0895428651,
				"element": "C" 
			},
			{
				"x": -1.144264686,
				"y": -0.2945109559,
				"z": -0.0494919673,
				"element": "C" 
			},
			{
				"x": -0.0404622652,
				"y": -1.0157950094,
				"z": -0.4989545065,
				"element": "C" 
			},
			{
				"x": -2.1634838311,
				"y": 1.2601992394,
				"z": 1.5728162406,
				"element": "N" 
			},
			{
				"x": -3.2133939773,
				"y": 1.1683681011,
				"z": 0.9377175316,
				"element": "O" 
			},
			{
				"x": -2.0104789696,
				"y": 1.9480859631,
				"z": 2.5814187226,
				"element": "O" 
			},
			{
				"x": 3.2981714264,
				"y": -0.0855458525,
				"z": -1.4491385885,
				"element": "H" 
			},
			{
				"x": 4.3984074543,
				"y": -1.4376172694,
				"z": -1.0973487201,
				"element": "H" 
			},
			{
				"x": 3.9485981636,
				"y": -0.3029109112,
				"z": 0.1862087833,
				"element": "H" 
			},
			{
				"x": 2.0747329822,
				"y": -2.2813902762,
				"z": -1.2441040213,
				"element": "H" 
			},
			{
				"x": 2.2267461718,
				"y": -0.1162674847,
				"z": 1.8731760974,
				"element": "H" 
			},
			{
				"x": 0.2602348442,
				"y": 1.1917413482,
				"z": 2.6750679211,
				"element": "H" 
			},
			{
				"x": -2.0986202927,
				"y": -0.3323146002,
				"z": -0.5593917164,
				"element": "H" 
			},
			{
				"x": -0.1353686138,
				"y": -1.6360078851,
				"z": -1.3856456292,
				"element": "H" 
			}
		],
		 "valence_orbital": [ 
			{
				"type": "occ",
				"energy": -0.29422,
				"method": "rhf"
			},
			{
				"type": "occ",
				"energy": -0.29402,
				"method": "rhf"
			},
			{
				"type": "occ",
				"energy": -0.28616,
				"method": "rhf"
			},
			{
				"type": "occ",
				"energy": -0.28166,
				"method": "rhf"
			},
			{
				"type": "occ",
				"energy": -0.27218,
				"method": "rhf"
			},
			{
				"type": "unocc",
				"energy": -0.09599,
				"method": "rhf"
			},
			{
				"type": "unocc",
				"energy": -0.0367,
				"method": "rhf"
			},
			{
				"type": "unocc",
				"energy": -0.02988,
				"method": "rhf"
			},
			{
				"type": "unocc",
				"energy": 0.01539,
				"method": "rhf"
			},
			{
				"type": "unocc",
				"energy": 0.06921,
				"method": "rhf"
			}
		],
		"cosmo_sigma_profile": { 
			"-0.025": 0.0,
			"-0.024": 0.0,
			"-0.023": 0.0,
			"-0.022": 0.0,
			"-0.021": 0.0,
			"-0.02": 0.0,
			"-0.019": 0.0,
			"-0.018": 0.0,
			"-0.017": 0.0,
			"-0.016": 0.0,
			"-0.015": 0.0,
			"-0.014": 0.0,
			"-0.013": 0.0,
			"-0.012": 0.0,
			"-0.011": 0.0,
			"-0.01": 0.0,
			"-0.009": 1.08670568868,
			"-0.008": 5.80556158997,
			"-0.007": 10.3778301578,
			"-0.006": 11.7133334424,
			"-0.005": 14.8267991728,
			"-0.004": 13.3450801196,
			"-0.003": 14.7871269116,
			"-0.002": 16.1696485471,
			"-0.001": 19.2933346766,
			"0.0": 16.5670292435,
			"0.001": 16.4633602507,
			"0.002": 13.3889188411,
			"0.003": 8.75138695458,
			"0.004": 8.09305312713,
			"0.005": 9.7551636319,
			"0.006": 13.811543997,
			"0.007": 8.51206599005,
			"0.008": 7.51589416391,
			"0.009": 4.42835066121,
			"0.01": 2.57457190852,
			"0.011": 0.164608673949,
			"0.012": 0.0,
			"0.013": 0.0,
			"0.014": 0.0,
			"0.015": 0.0,
			"0.016": 0.0,
			"0.017": 0.0,
			"0.018": 0.0,
			"0.019": 0.0,
			"0.02": 0.0,
			"0.021": 0.0,
			"0.022": 0.0,
			"0.023": 0.0,
			"0.024": 0.0,
			"0.025": 0.0
		}
	}
}
