{
	 "smiles": "C[Si](C)(C1C=CC2=C1C=CC=C2)C1C=CC2=C1C=CC=C2", 
	 "Tm": 359.15, 
	 "num_atms": 41, 
	 "gaussian": { 
		 "optdone": 1, 
		 "sigma_profile": "yes", 
		 "theory": "DFT", 
		 "functional": "B3LYP", 
		 "basiset": "6-31G**", 
		 "properties": { 
			 "R2extent": 7635.9488, 
			 "electric_dipole_moment_norm": 0.742100734402, 
			 "electric_quadrupole_moment_norm": 3.90811275938, 
			 "total_energy": -1063.70266585, 
			 "HOMO_LUMO_gap": 0.18685, 
			 "cosmo_polarized_energy": -7.84, 
			 "cosmo_cavitation_energy": 43.83, 
			 "cosmo_dispersion_energy": -27.75, 
			 "cosmo_repulsion_energy": 2.16, 
			 "cosmo_total_nonelectrostatic_energy": 18.24, 
			 "SMD_solvation_energy": 7.5 
		},
		"coords": [
			{
				"x": -2.0655288785,
				"y": -0.7976640038,
				"z": 0.5334764209,
				"element": "C" 
			},
			{
				"x": -0.3387635653,
				"y": -0.1864699044,
				"z": 0.0776907712,
				"element": "Si" 
			},
			{
				"x": 0.6299052374,
				"y": 0.3144420008,
				"z": 1.6193522039,
				"element": "C" 
			},
			{
				"x": 0.6245861992,
				"y": -1.6017290833,
				"z": -0.8287683176,
				"element": "C" 
			},
			{
				"x": 0.7671562674,
				"y": -2.7809438568,
				"z": 0.0964619974,
				"element": "C" 
			},
			{
				"x": 0.0966499622,
				"y": -3.8544808547,
				"z": -0.3806457107,
				"element": "C" 
			},
			{
				"x": -0.480801028,
				"y": -3.5274054636,
				"z": -1.679907106,
				"element": "C" 
			},
			{
				"x": -0.1371233062,
				"y": -2.1877039867,
				"z": -1.9907119852,
				"element": "C" 
			},
			{
				"x": -0.5159229622,
				"y": -1.635604895,
				"z": -3.2136396012,
				"element": "C" 
			},
			{
				"x": -1.250200676,
				"y": -2.4151178096,
				"z": -4.1143077651,
				"element": "C" 
			},
			{
				"x": -1.6075428017,
				"y": -3.7312763571,
				"z": -3.7958776749,
				"element": "C" 
			},
			{
				"x": -1.2247344845,
				"y": -4.2979521629,
				"z": -2.5792534466,
				"element": "C" 
			},
			{
				"x": -0.4687264205,
				"y": 1.3252295691,
				"z": -1.1227745607,
				"element": "C" 
			},
			{
				"x": 0.8990167951,
				"y": 1.7754734682,
				"z": -1.5620765427,
				"element": "C" 
			},
			{
				"x": 1.168614882,
				"y": 3.0206275197,
				"z": -1.1075987852,
				"element": "C" 
			},
			{
				"x": 0.003728744,
				"y": 3.5419910849,
				"z": -0.400875336,
				"element": "C" 
			},
			{
				"x": -1.010840139,
				"y": 2.5527403084,
				"z": -0.434221204,
				"element": "C" 
			},
			{
				"x": -2.2617192708,
				"y": 2.8148031054,
				"z": 0.1225745538,
				"element": "C" 
			},
			{
				"x": -2.4906257747,
				"y": 4.056644706,
				"z": 0.7250988474,
				"element": "C" 
			},
			{
				"x": -1.480328778,
				"y": 5.025485714,
				"z": 0.7754900349,
				"element": "C" 
			},
			{
				"x": -0.2276294492,
				"y": 4.7774775281,
				"z": 0.2124181825,
				"element": "C" 
			},
			{
				"x": -2.0012466261,
				"y": -1.7443007387,
				"z": 1.0792927322,
				"element": "H" 
			},
			{
				"x": -2.5808933705,
				"y": -0.0746755924,
				"z": 1.1732188965,
				"element": "H" 
			},
			{
				"x": -2.68049018,
				"y": -0.9690623839,
				"z": -0.3553723745,
				"element": "H" 
			},
			{
				"x": 1.6504203887,
				"y": 0.6223497021,
				"z": 1.3713069179,
				"element": "H" 
			},
			{
				"x": 0.6882047318,
				"y": -0.5132130127,
				"z": 2.3338412103,
				"element": "H" 
			},
			{
				"x": 0.1429791139,
				"y": 1.1563200345,
				"z": 2.1213631309,
				"element": "H" 
			},
			{
				"x": 1.5943195108,
				"y": -1.172404349,
				"z": -1.1167171992,
				"element": "H" 
			},
			{
				"x": 1.3154387523,
				"y": -2.7406239121,
				"z": 1.030837513,
				"element": "H" 
			},
			{
				"x": 0.010362176,
				"y": -4.8207413616,
				"z": 0.1045703337,
				"element": "H" 
			},
			{
				"x": -0.2365874784,
				"y": -0.6196438615,
				"z": -3.4801536545,
				"element": "H" 
			},
			{
				"x": -1.5437572068,
				"y": -1.9948694967,
				"z": -5.0720488392,
				"element": "H" 
			},
			{
				"x": -2.1809191501,
				"y": -4.3186743768,
				"z": -4.5075751794,
				"element": "H" 
			},
			{
				"x": -1.4927080521,
				"y": -5.3237576241,
				"z": -2.340124459,
				"element": "H" 
			},
			{
				"x": -1.1007773804,
				"y": 0.9897466669,
				"z": -1.9563297856,
				"element": "H" 
			},
			{
				"x": 1.5752302593,
				"y": 1.1555813671,
				"z": -2.1402955469,
				"element": "H" 
			},
			{
				"x": 2.0940917447,
				"y": 3.5670138529,
				"z": -1.2542409959,
				"element": "H" 
			},
			{
				"x": -3.0567338181,
				"y": 2.075236192,
				"z": 0.082324443,
				"element": "H" 
			},
			{
				"x": -3.4640890867,
				"y": 4.2723551226,
				"z": 1.1563291768,
				"element": "H" 
			},
			{
				"x": -1.6778111148,
				"y": 5.9822900155,
				"z": 1.2507556988,
				"element": "H" 
			},
			{
				"x": 0.5504962339,
				"y": 5.5357071293,
				"z": 0.242213005,
				"element": "H" 
			}
		],
		 "valence_orbital": [ 
			{
				"type": "occ",
				"energy": -0.27798,
				"method": "rhf"
			},
			{
				"type": "occ",
				"energy": -0.23747,
				"method": "rhf"
			},
			{
				"type": "occ",
				"energy": -0.23036,
				"method": "rhf"
			},
			{
				"type": "occ",
				"energy": -0.21213,
				"method": "rhf"
			},
			{
				"type": "occ",
				"energy": -0.21096,
				"method": "rhf"
			},
			{
				"type": "unocc",
				"energy": -0.02411,
				"method": "rhf"
			},
			{
				"type": "unocc",
				"energy": -0.01342,
				"method": "rhf"
			},
			{
				"type": "unocc",
				"energy": 0.00303,
				"method": "rhf"
			},
			{
				"type": "unocc",
				"energy": 0.00633,
				"method": "rhf"
			},
			{
				"type": "unocc",
				"energy": 0.04984,
				"method": "rhf"
			}
		],
		"cosmo_sigma_profile": { 
			"-0.025": 0.0,
			"-0.024": 0.0,
			"-0.023": 0.0,
			"-0.022": 0.0,
			"-0.021": 0.0,
			"-0.02": 0.0,
			"-0.019": 0.0,
			"-0.018": 0.0,
			"-0.017": 0.0,
			"-0.016": 0.0,
			"-0.015": 0.0,
			"-0.014": 0.0,
			"-0.013": 0.0,
			"-0.012": 0.0,
			"-0.011": 0.0,
			"-0.01": 0.0,
			"-0.009": 0.0,
			"-0.008": 0.0,
			"-0.007": 0.0,
			"-0.006": 5.97557202773,
			"-0.005": 25.7967097239,
			"-0.004": 33.5135759148,
			"-0.003": 40.8807553745,
			"-0.002": 34.0530124669,
			"-0.001": 30.2378052229,
			"0.0": 26.6024815965,
			"0.001": 25.9857499348,
			"0.002": 26.333319273,
			"0.003": 23.3190491871,
			"0.004": 23.1236596059,
			"0.005": 21.1209519543,
			"0.006": 19.4203990012,
			"0.007": 7.98016725109,
			"0.008": 0.0166096782848,
			"0.009": 0.0,
			"0.01": 0.0,
			"0.011": 0.0,
			"0.012": 0.0,
			"0.013": 0.0,
			"0.014": 0.0,
			"0.015": 0.0,
			"0.016": 0.0,
			"0.017": 0.0,
			"0.018": 0.0,
			"0.019": 0.0,
			"0.02": 0.0,
			"0.021": 0.0,
			"0.022": 0.0,
			"0.023": 0.0,
			"0.024": 0.0,
			"0.025": 0.0
		}
	}
}
