{
	 "smiles": "ClS(=O)(=O)C1=CSC(=N1)C1=CC=C(Br)C=C1", 
	 "Tm": 390.15, 
	 "num_atms": 21, 
	 "gaussian": { 
		 "optdone": 1, 
		 "sigma_profile": "yes", 
		 "theory": "DFT", 
		 "functional": "B3LYP", 
		 "basiset": "6-31G**", 
		 "properties": { 
			 "R2extent": 11718.3239, 
			 "electric_dipole_moment_norm": 5.28986959669, 
			 "electric_quadrupole_moment_norm": 12.8544916955, 
			 "total_energy": -4379.06053389, 
			 "HOMO_LUMO_gap": 0.1584, 
			 "cosmo_polarized_energy": -11.88, 
			 "cosmo_cavitation_energy": 34.08, 
			 "cosmo_dispersion_energy": -26.19, 
			 "cosmo_repulsion_energy": 1.96, 
			 "cosmo_total_nonelectrostatic_energy": 9.84, 
			 "SMD_solvation_energy": 1.94 
		},
		"coords": [
			{
				"x": -2.5251665752,
				"y": -2.6016381048,
				"z": -2.0854383584,
				"element": "Cl" 
			},
			{
				"x": -2.3465251835,
				"y": -1.9547891198,
				"z": -0.0728533856,
				"element": "S" 
			},
			{
				"x": -3.6801285644,
				"y": -2.0202267227,
				"z": 0.5127559913,
				"element": "O" 
			},
			{
				"x": -1.2080963654,
				"y": -2.6605386743,
				"z": 0.4927503296,
				"element": "O" 
			},
			{
				"x": -1.9483833139,
				"y": -0.2311515753,
				"z": -0.3039036703,
				"element": "C" 
			},
			{
				"x": -2.8239948235,
				"y": 0.7646083341,
				"z": 0.0259137513,
				"element": "C" 
			},
			{
				"x": -2.0668040557,
				"y": 2.2807072809,
				"z": -0.2944574917,
				"element": "S" 
			},
			{
				"x": -0.6201464794,
				"y": 1.4204209737,
				"z": -0.8641997835,
				"element": "C" 
			},
			{
				"x": -0.7330259104,
				"y": 0.1190331696,
				"z": -0.7976565358,
				"element": "N" 
			},
			{
				"x": 0.5745733104,
				"y": 2.115468404,
				"z": -1.3519968531,
				"element": "C" 
			},
			{
				"x": 1.6846020068,
				"y": 1.353214881,
				"z": -1.7575020338,
				"element": "C" 
			},
			{
				"x": 2.8362766842,
				"y": 1.9746442754,
				"z": -2.2268882455,
				"element": "C" 
			},
			{
				"x": 2.8844230952,
				"y": 3.3683484982,
				"z": -2.2933075497,
				"element": "C" 
			},
			{
				"x": 4.4602333899,
				"y": 4.2244266711,
				"z": -2.9355813422,
				"element": "Br" 
			},
			{
				"x": 1.7956336924,
				"y": 4.1450171218,
				"z": -1.8963666966,
				"element": "C" 
			},
			{
				"x": 0.6464707138,
				"y": 3.5151830685,
				"z": -1.4279614461,
				"element": "C" 
			},
			{
				"x": -3.8234612193,
				"y": 0.6751545335,
				"z": 0.4245026709,
				"element": "H" 
			},
			{
				"x": 1.6301163871,
				"y": 0.2719859248,
				"z": -1.6982758343,
				"element": "H" 
			},
			{
				"x": 3.6902411122,
				"y": 1.3843749186,
				"z": -2.538347064,
				"element": "H" 
			},
			{
				"x": 1.846214788,
				"y": 5.2259704284,
				"z": -1.9535106067,
				"element": "H" 
			},
			{
				"x": -0.1962526893,
				"y": 4.1294857134,
				"z": -1.1229758456,
				"element": "H" 
			}
		],
		 "valence_orbital": [ 
			{
				"type": "occ",
				"energy": -0.31547,
				"method": "rhf"
			},
			{
				"type": "occ",
				"energy": -0.30326,
				"method": "rhf"
			},
			{
				"type": "occ",
				"energy": -0.29725,
				"method": "rhf"
			},
			{
				"type": "occ",
				"energy": -0.28675,
				"method": "rhf"
			},
			{
				"type": "occ",
				"energy": -0.25087,
				"method": "rhf"
			},
			{
				"type": "unocc",
				"energy": -0.09247,
				"method": "rhf"
			},
			{
				"type": "unocc",
				"energy": -0.08516,
				"method": "rhf"
			},
			{
				"type": "unocc",
				"energy": -0.03848,
				"method": "rhf"
			},
			{
				"type": "unocc",
				"energy": -0.0297,
				"method": "rhf"
			},
			{
				"type": "unocc",
				"energy": -0.01836,
				"method": "rhf"
			}
		],
		"cosmo_sigma_profile": { 
			"-0.025": 0.0,
			"-0.024": 0.0,
			"-0.023": 0.0,
			"-0.022": 0.0,
			"-0.021": 0.0,
			"-0.02": 0.0,
			"-0.019": 0.0,
			"-0.018": 0.0,
			"-0.017": 0.0,
			"-0.016": 0.0,
			"-0.015": 0.0,
			"-0.014": 0.0,
			"-0.013": 0.0637981348676,
			"-0.012": 1.42855789004,
			"-0.011": 1.37520482596,
			"-0.01": 1.52921692693,
			"-0.009": 2.17252076522,
			"-0.008": 6.20615964098,
			"-0.007": 8.97619427443,
			"-0.006": 10.4834558129,
			"-0.005": 11.2998447027,
			"-0.004": 15.4859972014,
			"-0.003": 19.929371561,
			"-0.002": 21.6117453026,
			"-0.001": 22.0293421296,
			"0.0": 23.2774659371,
			"0.001": 29.2734774855,
			"0.002": 30.844062341,
			"0.003": 26.7756747315,
			"0.004": 16.5508277066,
			"0.005": 5.14263646297,
			"0.006": 4.85757432333,
			"0.007": 9.14639234708,
			"0.008": 12.3794795216,
			"0.009": 3.08750007474,
			"0.01": 0.0,
			"0.011": 0.0,
			"0.012": 0.0,
			"0.013": 0.0,
			"0.014": 0.0,
			"0.015": 0.0,
			"0.016": 0.0,
			"0.017": 0.0,
			"0.018": 0.0,
			"0.019": 0.0,
			"0.02": 0.0,
			"0.021": 0.0,
			"0.022": 0.0,
			"0.023": 0.0,
			"0.024": 0.0,
			"0.025": 0.0
		}
	}
}
