{
	 "smiles": "CC12CCC3C(CCC4CC(O)(CCC34C)C#CCl)C1CCC2O", 
	 "Tm": 393.15, 
	 "num_atms": 55, 
	 "gaussian": { 
		 "optdone": 1, 
		 "sigma_profile": "yes", 
		 "theory": "DFT", 
		 "functional": "B3LYP", 
		 "basiset": "6-31G**", 
		 "properties": { 
			 "R2extent": 12896.8828, 
			 "electric_dipole_moment_norm": 2.62902884541, 
			 "electric_quadrupole_moment_norm": 8.58378500896, 
			 "total_energy": -1429.47580512, 
			 "HOMO_LUMO_gap": 0.28604, 
			 "cosmo_polarized_energy": -10.88, 
			 "cosmo_cavitation_energy": 49.66, 
			 "cosmo_dispersion_energy": -34.41, 
			 "cosmo_repulsion_energy": 2.58, 
			 "cosmo_total_nonelectrostatic_energy": 17.83, 
			 "SMD_solvation_energy": 7.37 
		},
		"coords": [
			{
				"x": 3.9678771437,
				"y": -0.2081639208,
				"z": -0.5254703465,
				"element": "C" 
			},
			{
				"x": 2.4968775639,
				"y": 0.2479153066,
				"z": -0.3967892721,
				"element": "C" 
			},
			{
				"x": 1.6863791937,
				"y": -0.368780326,
				"z": -1.572291888,
				"element": "C" 
			},
			{
				"x": 0.5882237644,
				"y": -1.3333245136,
				"z": -1.10663589,
				"element": "C" 
			},
			{
				"x": -0.3557553766,
				"y": -0.6277411515,
				"z": -0.123295366,
				"element": "C" 
			},
			{
				"x": 0.4108659072,
				"y": -0.1764937696,
				"z": 1.1731327805,
				"element": "C" 
			},
			{
				"x": 0.0452601159,
				"y": -1.0216429026,
				"z": 2.4131979655,
				"element": "C" 
			},
			{
				"x": -1.4767553024,
				"y": -1.0789315137,
				"z": 2.6934557825,
				"element": "C" 
			},
			{
				"x": -2.2966289774,
				"y": -0.7343877964,
				"z": 1.4400283687,
				"element": "C" 
			},
			{
				"x": -3.7947869077,
				"y": -1.0144327292,
				"z": 1.5785592322,
				"element": "C" 
			},
			{
				"x": -4.6038031614,
				"y": -0.3227471348,
				"z": 0.4429049354,
				"element": "C" 
			},
			{
				"x": -5.0578035608,
				"y": 0.9237267839,
				"z": 0.9912626851,
				"element": "O" 
			},
			{
				"x": -3.6963304208,
				"y": -0.0583157195,
				"z": -0.7938735144,
				"element": "C" 
			},
			{
				"x": -2.6976208425,
				"y": -1.1970311009,
				"z": -1.0247818586,
				"element": "C" 
			},
			{
				"x": -1.6942608822,
				"y": -1.3908853938,
				"z": 0.1617184965,
				"element": "C" 
			},
			{
				"x": -1.4885499289,
				"y": -2.9143210431,
				"z": 0.3299056212,
				"element": "C" 
			},
			{
				"x": -5.7657010845,
				"y": -1.149923927,
				"z": 0.0550301225,
				"element": "C" 
			},
			{
				"x": -6.7214221885,
				"y": -1.8075467677,
				"z": -0.2864432718,
				"element": "C" 
			},
			{
				"x": -8.0333273557,
				"y": -2.7101441225,
				"z": -0.7313411532,
				"element": "Cl" 
			},
			{
				"x": 1.9588625632,
				"y": -0.1528467622,
				"z": 1.0136409693,
				"element": "C" 
			},
			{
				"x": 2.6105542992,
				"y": 0.8903450812,
				"z": 1.9637570399,
				"element": "C" 
			},
			{
				"x": 2.9095032351,
				"y": 2.1469193084,
				"z": 1.0971399733,
				"element": "C" 
			},
			{
				"x": 2.4738564749,
				"y": 1.8049709008,
				"z": -0.339331681,
				"element": "C" 
			},
			{
				"x": 1.1679942582,
				"y": 2.3626488436,
				"z": -0.5134900401,
				"element": "O" 
			},
			{
				"x": 4.6018843904,
				"y": 0.1653637697,
				"z": 0.2840513362,
				"element": "H" 
			},
			{
				"x": 4.3993755714,
				"y": 0.1382924514,
				"z": -1.4718103125,
				"element": "H" 
			},
			{
				"x": 4.0300842597,
				"y": -1.3018890001,
				"z": -0.5142869552,
				"element": "H" 
			},
			{
				"x": 1.2081722548,
				"y": 0.4187065027,
				"z": -2.1724414986,
				"element": "H" 
			},
			{
				"x": 2.3647922158,
				"y": -0.8850096481,
				"z": -2.2611334634,
				"element": "H" 
			},
			{
				"x": 0.0355128208,
				"y": -1.699779672,
				"z": -1.9804969146,
				"element": "H" 
			},
			{
				"x": 1.043449099,
				"y": -2.2165655234,
				"z": -0.6406016117,
				"element": "H" 
			},
			{
				"x": -0.6563673125,
				"y": 0.3077013094,
				"z": -0.6173057196,
				"element": "H" 
			},
			{
				"x": 0.0983172076,
				"y": 0.8540984851,
				"z": 1.3731803268,
				"element": "H" 
			},
			{
				"x": 0.4431607171,
				"y": -2.0343429869,
				"z": 2.2762983538,
				"element": "H" 
			},
			{
				"x": 0.5696596579,
				"y": -0.6227373121,
				"z": 3.2891201321,
				"element": "H" 
			},
			{
				"x": -1.7499705923,
				"y": -2.0738152232,
				"z": 3.0670968984,
				"element": "H" 
			},
			{
				"x": -1.7464018945,
				"y": -0.3730332622,
				"z": 3.4882516052,
				"element": "H" 
			},
			{
				"x": -2.201597417,
				"y": 0.3508342775,
				"z": 1.3038422952,
				"element": "H" 
			},
			{
				"x": -4.1858567336,
				"y": -0.6304111656,
				"z": 2.5260763445,
				"element": "H" 
			},
			{
				"x": -3.9857545058,
				"y": -2.0922819199,
				"z": 1.5676142144,
				"element": "H" 
			},
			{
				"x": -5.5530180429,
				"y": 1.3841406544,
				"z": 0.299354074,
				"element": "H" 
			},
			{
				"x": -4.3209768158,
				"y": 0.0940580105,
				"z": -1.6812084952,
				"element": "H" 
			},
			{
				"x": -3.1703594829,
				"y": 0.883842763,
				"z": -0.6049005918,
				"element": "H" 
			},
			{
				"x": -3.2684982517,
				"y": -2.1213737504,
				"z": -1.1782905592,
				"element": "H" 
			},
			{
				"x": -2.1504270158,
				"y": -1.0267126721,
				"z": -1.9591863124,
				"element": "H" 
			},
			{
				"x": -0.7168474009,
				"y": -3.1752108529,
				"z": 1.0564224393,
				"element": "H" 
			},
			{
				"x": -2.4182995247,
				"y": -3.3993286311,
				"z": 0.6460497207,
				"element": "H" 
			},
			{
				"x": -1.2044113601,
				"y": -3.3684639529,
				"z": -0.6248419011,
				"element": "H" 
			},
			{
				"x": 2.3275994243,
				"y": -1.1594829446,
				"z": 1.2522027907,
				"element": "H" 
			},
			{
				"x": 3.534151523,
				"y": 0.4967591087,
				"z": 2.3997494647,
				"element": "H" 
			},
			{
				"x": 1.951980229,
				"y": 1.1281174423,
				"z": 2.8043978695,
				"element": "H" 
			},
			{
				"x": 2.3598098552,
				"y": 3.0306916575,
				"z": 1.4301016741,
				"element": "H" 
			},
			{
				"x": 3.973113824,
				"y": 2.4016168702,
				"z": 1.1238945803,
				"element": "H" 
			},
			{
				"x": 3.157313331,
				"y": 2.234084027,
				"z": -1.0887854308,
				"element": "H" 
			},
			{
				"x": 0.8912014396,
				"y": 2.2041655585,
				"z": -1.4247040446,
				"element": "H" 
			}
		],
		 "valence_orbital": [ 
			{
				"type": "occ",
				"energy": -0.27177,
				"method": "rhf"
			},
			{
				"type": "occ",
				"energy": -0.26604,
				"method": "rhf"
			},
			{
				"type": "occ",
				"energy": -0.25754,
				"method": "rhf"
			},
			{
				"type": "occ",
				"energy": -0.25667,
				"method": "rhf"
			},
			{
				"type": "occ",
				"energy": -0.25181,
				"method": "rhf"
			},
			{
				"type": "unocc",
				"energy": 0.03423,
				"method": "rhf"
			},
			{
				"type": "unocc",
				"energy": 0.03568,
				"method": "rhf"
			},
			{
				"type": "unocc",
				"energy": 0.05041,
				"method": "rhf"
			},
			{
				"type": "unocc",
				"energy": 0.05752,
				"method": "rhf"
			},
			{
				"type": "unocc",
				"energy": 0.07712,
				"method": "rhf"
			}
		],
		"cosmo_sigma_profile": { 
			"-0.025": 0.0,
			"-0.024": 0.0,
			"-0.023": 0.0,
			"-0.022": 0.0,
			"-0.021": 0.0,
			"-0.02": 0.0,
			"-0.019": 0.0,
			"-0.018": 0.0,
			"-0.017": 0.0,
			"-0.016": 0.140126177383,
			"-0.015": 0.786370707811,
			"-0.014": 1.25916744758,
			"-0.013": 1.83290417902,
			"-0.012": 1.73577845573,
			"-0.011": 1.92412085951,
			"-0.01": 2.11419685206,
			"-0.009": 1.01025457943,
			"-0.008": 1.11153213397,
			"-0.007": 2.60822967895,
			"-0.006": 3.4339468164,
			"-0.005": 3.92112510602,
			"-0.004": 6.50095608968,
			"-0.003": 22.4596494775,
			"-0.002": 53.8782613095,
			"-0.001": 71.9121469753,
			"0.0": 61.1097819698,
			"0.001": 60.4391357638,
			"0.002": 36.8242493797,
			"0.003": 9.67708578633,
			"0.004": 10.3075941124,
			"0.005": 4.8701606001,
			"0.006": 3.6422773127,
			"0.007": 2.61141245775,
			"0.008": 3.26941188805,
			"0.009": 2.60031120765,
			"0.01": 2.36564940748,
			"0.011": 2.87586013622,
			"0.012": 2.09791112422,
			"0.013": 2.93826394974,
			"0.014": 1.86336021418,
			"0.015": 0.300933072056,
			"0.016": 0.0,
			"0.017": 0.0,
			"0.018": 0.0,
			"0.019": 0.0,
			"0.02": 0.0,
			"0.021": 0.0,
			"0.022": 0.0,
			"0.023": 0.0,
			"0.024": 0.0,
			"0.025": 0.0
		}
	}
}
