{
	 "smiles": "OC1=CC=CC=C1C(=O)CBr", 
	 "Tm": 319.15, 
	 "num_atms": 18, 
	 "gaussian": { 
		 "optdone": 1, 
		 "sigma_profile": "yes", 
		 "theory": "DFT", 
		 "functional": "B3LYP", 
		 "basiset": "6-31G**", 
		 "properties": { 
			 "R2extent": 3790.9454, 
			 "electric_dipole_moment_norm": 3.98139563093, 
			 "electric_quadrupole_moment_norm": 3.77817557559, 
			 "total_energy": -3030.92645322, 
			 "HOMO_LUMO_gap": 0.16234, 
			 "cosmo_polarized_energy": -10.87, 
			 "cosmo_cavitation_energy": 24.2, 
			 "cosmo_dispersion_energy": -18.73, 
			 "cosmo_repulsion_energy": 1.5, 
			 "cosmo_total_nonelectrostatic_energy": 6.97, 
			 "SMD_solvation_energy": 3.67 
		},
		"coords": [
			{
				"x": -0.0369461324,
				"y": -2.3466048792,
				"z": -0.9464056445,
				"element": "O" 
			},
			{
				"x": 0.831128005,
				"y": -1.4516413463,
				"z": -0.4644573292,
				"element": "C" 
			},
			{
				"x": 2.1453039384,
				"y": -1.474180965,
				"z": -0.9654090089,
				"element": "C" 
			},
			{
				"x": 3.0853880228,
				"y": -0.569205417,
				"z": -0.5010452774,
				"element": "C" 
			},
			{
				"x": 2.7492515197,
				"y": 0.3853853691,
				"z": 0.4745773802,
				"element": "C" 
			},
			{
				"x": 1.4592290594,
				"y": 0.416685655,
				"z": 0.9745972306,
				"element": "C" 
			},
			{
				"x": 0.4721872934,
				"y": -0.4902251195,
				"z": 0.5257348064,
				"element": "C" 
			},
			{
				"x": -0.9064645136,
				"y": -0.4832151197,
				"z": 1.0366372442,
				"element": "C" 
			},
			{
				"x": -1.7542492078,
				"y": -1.2837393519,
				"z": 0.631437706,
				"element": "O" 
			},
			{
				"x": -1.2655941823,
				"y": 0.5569132969,
				"z": 2.0975029889,
				"element": "C" 
			},
			{
				"x": -3.1217232722,
				"y": 0.4590675658,
				"z": 2.6885540917,
				"element": "Br" 
			},
			{
				"x": -0.8990900239,
				"y": -2.1834374038,
				"z": -0.4855274831,
				"element": "H" 
			},
			{
				"x": 2.3896472488,
				"y": -2.2163304411,
				"z": -1.7177780441,
				"element": "H" 
			},
			{
				"x": 4.0960142198,
				"y": -0.6000989364,
				"z": -0.8984391414,
				"element": "H" 
			},
			{
				"x": 3.4925651248,
				"y": 1.0900310299,
				"z": 0.83199139,
				"element": "H" 
			},
			{
				"x": 1.2053150674,
				"y": 1.1557098052,
				"z": 1.7275816074,
				"element": "H" 
			},
			{
				"x": -0.6443271495,
				"y": 0.4266165542,
				"z": 2.9850166653,
				"element": "H" 
			},
			{
				"x": -1.1100350179,
				"y": 1.5653697037,
				"z": 1.7109308179,
				"element": "H" 
			}
		],
		 "valence_orbital": [ 
			{
				"type": "occ",
				"energy": -0.28267,
				"method": "rhf"
			},
			{
				"type": "occ",
				"energy": -0.2803,
				"method": "rhf"
			},
			{
				"type": "occ",
				"energy": -0.27834,
				"method": "rhf"
			},
			{
				"type": "occ",
				"energy": -0.27247,
				"method": "rhf"
			},
			{
				"type": "occ",
				"energy": -0.23671,
				"method": "rhf"
			},
			{
				"type": "unocc",
				"energy": -0.07437,
				"method": "rhf"
			},
			{
				"type": "unocc",
				"energy": -0.0069,
				"method": "rhf"
			},
			{
				"type": "unocc",
				"energy": -0.00573,
				"method": "rhf"
			},
			{
				"type": "unocc",
				"energy": 0.0229,
				"method": "rhf"
			},
			{
				"type": "unocc",
				"energy": 0.08044,
				"method": "rhf"
			}
		],
		"cosmo_sigma_profile": { 
			"-0.025": 0.0,
			"-0.024": 0.0,
			"-0.023": 0.0,
			"-0.022": 0.0,
			"-0.021": 0.0,
			"-0.02": 0.0,
			"-0.019": 0.0,
			"-0.018": 0.0,
			"-0.017": 0.0,
			"-0.016": 0.0,
			"-0.015": 0.0,
			"-0.014": 0.0,
			"-0.013": 0.0,
			"-0.012": 0.0,
			"-0.011": 0.0,
			"-0.01": 2.36996985096,
			"-0.009": 7.55918111591,
			"-0.008": 6.37030450283,
			"-0.007": 6.65666460797,
			"-0.006": 11.4162502714,
			"-0.005": 10.2750840164,
			"-0.004": 12.134139018,
			"-0.003": 12.7987855429,
			"-0.002": 10.7397920934,
			"-0.001": 10.5063380898,
			"0.0": 10.7936198791,
			"0.001": 11.5333067292,
			"0.002": 15.6994310044,
			"0.003": 15.9240425491,
			"0.004": 14.6569900509,
			"0.005": 11.1347825529,
			"0.006": 7.64166475,
			"0.007": 3.62349723866,
			"0.008": 3.79909955556,
			"0.009": 3.15775435271,
			"0.01": 3.33203144205,
			"0.011": 3.65263754832,
			"0.012": 1.39205901332,
			"0.013": 0.075170535198,
			"0.014": 0.0,
			"0.015": 0.0,
			"0.016": 0.0,
			"0.017": 0.0,
			"0.018": 0.0,
			"0.019": 0.0,
			"0.02": 0.0,
			"0.021": 0.0,
			"0.022": 0.0,
			"0.023": 0.0,
			"0.024": 0.0,
			"0.025": 0.0
		}
	}
}
