{
	 "smiles": "OC(=O)C1=C(OC(=N1)C1=CC=CC=C1)C1CC1", 
	 "Tm": 472.15, 
	 "num_atms": 28, 
	 "gaussian": { 
		 "optdone": 1, 
		 "sigma_profile": "yes", 
		 "theory": "DFT", 
		 "functional": "B3LYP", 
		 "basiset": "6-31G**", 
		 "properties": { 
			 "R2extent": 5048.8344, 
			 "electric_dipole_moment_norm": 5.57506687494, 
			 "electric_quadrupole_moment_norm": 14.6055539933, 
			 "total_energy": -782.425796353, 
			 "HOMO_LUMO_gap": 0.17021, 
			 "cosmo_polarized_energy": -12.04, 
			 "cosmo_cavitation_energy": 33.14, 
			 "cosmo_dispersion_energy": -23.82, 
			 "cosmo_repulsion_energy": 1.84, 
			 "cosmo_total_nonelectrostatic_energy": 11.16, 
			 "SMD_solvation_energy": 5.67 
		},
		"coords": [
			{
				"x": 1.6797111723,
				"y": -2.8769685102,
				"z": -0.1286189109,
				"element": "O" 
			},
			{
				"x": 1.374120286,
				"y": -1.908911485,
				"z": -1.0185567864,
				"element": "C" 
			},
			{
				"x": 1.5881800005,
				"y": -2.0334877318,
				"z": -2.2063605032,
				"element": "O" 
			},
			{
				"x": 0.7661489423,
				"y": -0.7109068136,
				"z": -0.4073451531,
				"element": "C" 
			},
			{
				"x": 0.340071229,
				"y": 0.4432071953,
				"z": -1.0090673648,
				"element": "C" 
			},
			{
				"x": -0.1462567328,
				"y": 1.246331343,
				"z": -0.0131560602,
				"element": "O" 
			},
			{
				"x": 0.0082488562,
				"y": 0.5376681279,
				"z": 1.1552672837,
				"element": "C" 
			},
			{
				"x": 0.5470225521,
				"y": -0.6303290303,
				"z": 0.9623066883,
				"element": "N" 
			},
			{
				"x": -0.4290599368,
				"y": 1.1521752934,
				"z": 2.4029373468,
				"element": "C" 
			},
			{
				"x": -0.2784682935,
				"y": 0.442760608,
				"z": 3.6066052963,
				"element": "C" 
			},
			{
				"x": -0.689982045,
				"y": 1.0129048966,
				"z": 4.8071123497,
				"element": "C" 
			},
			{
				"x": -1.2544016267,
				"y": 2.2919137062,
				"z": 4.8227363906,
				"element": "C" 
			},
			{
				"x": -1.4055283836,
				"y": 2.9996404268,
				"z": 3.6284039366,
				"element": "C" 
			},
			{
				"x": -0.9962363981,
				"y": 2.4365620101,
				"z": 2.4215334382,
				"element": "C" 
			},
			{
				"x": 0.3195178718,
				"y": 0.9122426406,
				"z": -2.3905676517,
				"element": "C" 
			},
			{
				"x": 0.541698804,
				"y": 2.3833282358,
				"z": -2.71324419,
				"element": "C" 
			},
			{
				"x": -0.8196020506,
				"y": 1.78669041,
				"z": -2.8956413502,
				"element": "C" 
			},
			{
				"x": 1.4212808845,
				"y": -2.5587518332,
				"z": 0.7557097909,
				"element": "H" 
			},
			{
				"x": 0.1606355958,
				"y": -0.5487548591,
				"z": 3.5826191554,
				"element": "H" 
			},
			{
				"x": -0.5707262063,
				"y": 0.4592617205,
				"z": 5.7336374331,
				"element": "H" 
			},
			{
				"x": -1.5745811639,
				"y": 2.7340550639,
				"z": 5.7615140193,
				"element": "H" 
			},
			{
				"x": -1.8434102013,
				"y": 3.9933273023,
				"z": 3.6358632851,
				"element": "H" 
			},
			{
				"x": -1.1133354832,
				"y": 2.9856920068,
				"z": 1.4936218564,
				"element": "H" 
			},
			{
				"x": 0.7334568286,
				"y": 0.1757049708,
				"z": -3.0698590283,
				"element": "H" 
			},
			{
				"x": 1.1404862546,
				"y": 2.6052940676,
				"z": -3.5906965088,
				"element": "H" 
			},
			{
				"x": 0.693772202,
				"y": 3.0568720618,
				"z": -1.8759251425,
				"element": "H" 
			},
			{
				"x": -1.177049744,
				"y": 1.589685506,
				"z": -3.9012098112,
				"element": "H" 
			},
			{
				"x": -1.592213214,
				"y": 2.0549926699,
				"z": -2.182219809,
				"element": "H" 
			}
		],
		 "valence_orbital": [ 
			{
				"type": "occ",
				"energy": -0.30506,
				"method": "rhf"
			},
			{
				"type": "occ",
				"energy": -0.28448,
				"method": "rhf"
			},
			{
				"type": "occ",
				"energy": -0.26759,
				"method": "rhf"
			},
			{
				"type": "occ",
				"energy": -0.26741,
				"method": "rhf"
			},
			{
				"type": "occ",
				"energy": -0.22682,
				"method": "rhf"
			},
			{
				"type": "unocc",
				"energy": -0.05661,
				"method": "rhf"
			},
			{
				"type": "unocc",
				"energy": -0.0314,
				"method": "rhf"
			},
			{
				"type": "unocc",
				"energy": -0.01572,
				"method": "rhf"
			},
			{
				"type": "unocc",
				"energy": 0.04385,
				"method": "rhf"
			},
			{
				"type": "unocc",
				"energy": 0.07631,
				"method": "rhf"
			}
		],
		"cosmo_sigma_profile": { 
			"-0.025": 0.0,
			"-0.024": 0.0,
			"-0.023": 0.0,
			"-0.022": 0.0,
			"-0.021": 0.0,
			"-0.02": 0.0,
			"-0.019": 0.0,
			"-0.018": 0.0,
			"-0.017": 0.0,
			"-0.016": 0.0,
			"-0.015": 0.0652232291522,
			"-0.014": 0.449508961999,
			"-0.013": 0.286914510958,
			"-0.012": 0.686054486522,
			"-0.011": 0.683267552527,
			"-0.01": 0.744071767379,
			"-0.009": 0.797443058036,
			"-0.008": 0.399928721652,
			"-0.007": 1.86640743729,
			"-0.006": 15.5952223582,
			"-0.005": 21.1483659985,
			"-0.004": 19.1515479401,
			"-0.003": 21.300386307,
			"-0.002": 22.5032408225,
			"-0.001": 26.9540180124,
			"0.0": 25.0212730807,
			"0.001": 22.3565555005,
			"0.002": 18.5306790102,
			"0.003": 16.0466261441,
			"0.004": 17.5931276128,
			"0.005": 4.99725325104,
			"0.006": 4.21309476629,
			"0.007": 3.35140355758,
			"0.008": 2.379705635,
			"0.009": 3.43332765656,
			"0.01": 5.1775090902,
			"0.011": 4.33564836919,
			"0.012": 3.79696894458,
			"0.013": 1.83833543305,
			"0.014": 0.163742647081,
			"0.015": 0.0,
			"0.016": 0.0,
			"0.017": 0.0,
			"0.018": 0.0,
			"0.019": 0.0,
			"0.02": 0.0,
			"0.021": 0.0,
			"0.022": 0.0,
			"0.023": 0.0,
			"0.024": 0.0,
			"0.025": 0.0
		}
	}
}
