{
	 "smiles": "COC1=CC=C(CN)C(F)=C1F", 
	 "Tm": 307.15, 
	 "num_atms": 21, 
	 "gaussian": { 
		 "optdone": 1, 
		 "sigma_profile": "yes", 
		 "theory": "DFT", 
		 "functional": "B3LYP", 
		 "basiset": "6-31G**", 
		 "properties": { 
			 "R2extent": 2519.5932, 
			 "electric_dipole_moment_norm": 2.05248735928, 
			 "electric_quadrupole_moment_norm": 5.72726381704, 
			 "total_energy": -639.89013729, 
			 "HOMO_LUMO_gap": 0.21629, 
			 "cosmo_polarized_energy": -7.71, 
			 "cosmo_cavitation_energy": 25.38, 
			 "cosmo_dispersion_energy": -18.51, 
			 "cosmo_repulsion_energy": 1.46, 
			 "cosmo_total_nonelectrostatic_energy": 8.32, 
			 "SMD_solvation_energy": 4.47 
		},
		"coords": [
			{
				"x": 3.3974011714,
				"y": 0.9864650394,
				"z": -1.098606215,
				"element": "C" 
			},
			{
				"x": 2.6236568837,
				"y": 0.8230277291,
				"z": 0.0935381957,
				"element": "O" 
			},
			{
				"x": 1.4102612647,
				"y": 0.2107479589,
				"z": 0.0415327031,
				"element": "C" 
			},
			{
				"x": 0.4891355169,
				"y": 0.5461716173,
				"z": 1.0438118835,
				"element": "C" 
			},
			{
				"x": -0.7652305262,
				"y": -0.0546574169,
				"z": 1.0972821,
				"element": "C" 
			},
			{
				"x": -1.1705583689,
				"y": -1.0055579348,
				"z": 0.151647572,
				"element": "C" 
			},
			{
				"x": -2.5271196792,
				"y": -1.6894152053,
				"z": 0.1877756663,
				"element": "C" 
			},
			{
				"x": -2.5209222029,
				"y": -3.1320189179,
				"z": 0.4610239173,
				"element": "N" 
			},
			{
				"x": -0.2433222641,
				"y": -1.327865427,
				"z": -0.8363659238,
				"element": "C" 
			},
			{
				"x": -0.5602587614,
				"y": -2.2483283614,
				"z": -1.7764071445,
				"element": "F" 
			},
			{
				"x": 1.0240129108,
				"y": -0.7546945639,
				"z": -0.899714726,
				"element": "C" 
			},
			{
				"x": 1.8586935285,
				"y": -1.1632282842,
				"z": -1.8816598247,
				"element": "F" 
			},
			{
				"x": 3.8606213325,
				"y": 0.0487049387,
				"z": -1.4141569281,
				"element": "H" 
			},
			{
				"x": 2.7869354295,
				"y": 1.3816284533,
				"z": -1.9178457644,
				"element": "H" 
			},
			{
				"x": 4.1722721793,
				"y": 1.711139986,
				"z": -0.8425489271,
				"element": "H" 
			},
			{
				"x": 0.7907570392,
				"y": 1.2899883514,
				"z": 1.7732549576,
				"element": "H" 
			},
			{
				"x": -1.4577011018,
				"y": 0.2291191959,
				"z": 1.885078198,
				"element": "H" 
			},
			{
				"x": -3.1425800378,
				"y": -1.1970862618,
				"z": 0.9486532891,
				"element": "H" 
			},
			{
				"x": -3.0390068049,
				"y": -1.5417421126,
				"z": -0.7699367083,
				"element": "H" 
			},
			{
				"x": -2.0044839705,
				"y": -3.3130644739,
				"z": 1.3191897502,
				"element": "H" 
			},
			{
				"x": -2.0131635388,
				"y": -3.6072343101,
				"z": -0.2811460709,
				"element": "H" 
			}
		],
		 "valence_orbital": [ 
			{
				"type": "occ",
				"energy": -0.33679,
				"method": "rhf"
			},
			{
				"type": "occ",
				"energy": -0.31313,
				"method": "rhf"
			},
			{
				"type": "occ",
				"energy": -0.24856,
				"method": "rhf"
			},
			{
				"type": "occ",
				"energy": -0.24378,
				"method": "rhf"
			},
			{
				"type": "occ",
				"energy": -0.22225,
				"method": "rhf"
			},
			{
				"type": "unocc",
				"energy": -0.00596,
				"method": "rhf"
			},
			{
				"type": "unocc",
				"energy": -0.00277,
				"method": "rhf"
			},
			{
				"type": "unocc",
				"energy": 0.05461,
				"method": "rhf"
			},
			{
				"type": "unocc",
				"energy": 0.096,
				"method": "rhf"
			},
			{
				"type": "unocc",
				"energy": 0.11154,
				"method": "rhf"
			}
		],
		"cosmo_sigma_profile": { 
			"-0.025": 0.0,
			"-0.024": 0.0,
			"-0.023": 0.0,
			"-0.022": 0.0,
			"-0.021": 0.0,
			"-0.02": 0.0,
			"-0.019": 0.0,
			"-0.018": 0.0,
			"-0.017": 0.0,
			"-0.016": 0.0,
			"-0.015": 0.0,
			"-0.014": 0.0,
			"-0.013": 0.0,
			"-0.012": 0.0,
			"-0.011": 0.0,
			"-0.01": 0.629409278846,
			"-0.009": 1.19177904091,
			"-0.008": 2.43829498015,
			"-0.007": 3.47992652403,
			"-0.006": 10.0207143763,
			"-0.005": 14.802820293,
			"-0.004": 18.3324926669,
			"-0.003": 18.9785354688,
			"-0.002": 14.1763073311,
			"-0.001": 15.9717469731,
			"0.0": 16.0292584833,
			"0.001": 14.0943654488,
			"0.002": 13.7946860745,
			"0.003": 17.1646440863,
			"0.004": 18.0486533474,
			"0.005": 5.53730606101,
			"0.006": 2.49234994885,
			"0.007": 1.74008530229,
			"0.008": 1.83418404425,
			"0.009": 2.47445213763,
			"0.01": 1.74986815747,
			"0.011": 0.638718127092,
			"0.012": 0.988315907889,
			"0.013": 0.765078998453,
			"0.014": 0.78385646555,
			"0.015": 0.385105838221,
			"0.016": 0.336976568853,
			"0.017": 0.880420330288,
			"0.018": 0.704081593072,
			"0.019": 0.586613159537,
			"0.02": 0.180127592251,
			"0.021": 0.0,
			"0.022": 0.0,
			"0.023": 0.0,
			"0.024": 0.0,
			"0.025": 0.0
		}
	}
}
