{
	 "smiles": "COC1=CC=C(C=C1)C1=CC=C(C=C1)S(=O)(=O)NC(CC1=CC=CC=C1)C(O)=O", 
	 "Tm": 452.15, 
	 "num_atms": 50, 
	 "gaussian": { 
		 "optdone": 1, 
		 "sigma_profile": "yes", 
		 "theory": "DFT", 
		 "functional": "B3LYP", 
		 "basiset": "6-31G**", 
		 "properties": { 
			 "R2extent": 19435.3055, 
			 "electric_dipole_moment_norm": 7.0286833511, 
			 "electric_quadrupole_moment_norm": 24.5265669734, 
			 "total_energy": -1679.99878401, 
			 "HOMO_LUMO_gap": 0.17047, 
			 "cosmo_polarized_energy": -25.59, 
			 "cosmo_cavitation_energy": 56.11, 
			 "cosmo_dispersion_energy": -38.01, 
			 "cosmo_repulsion_energy": 2.81, 
			 "cosmo_total_nonelectrostatic_energy": 20.91, 
			 "SMD_solvation_energy": 9.29 
		},
		"coords": [
			{
				"x": 5.4866891566,
				"y": -6.7665560966,
				"z": -0.6856988663,
				"element": "C" 
			},
			{
				"x": 5.9782990017,
				"y": -5.5040028477,
				"z": -1.1098209087,
				"element": "O" 
			},
			{
				"x": 5.0922540615,
				"y": -4.4792761841,
				"z": -1.2516921529,
				"element": "C" 
			},
			{
				"x": 3.718720422,
				"y": -4.5686907566,
				"z": -0.9947153677,
				"element": "C" 
			},
			{
				"x": 2.9074485592,
				"y": -3.4481692732,
				"z": -1.1782114045,
				"element": "C" 
			},
			{
				"x": 3.4288135219,
				"y": -2.2217049478,
				"z": -1.6136551656,
				"element": "C" 
			},
			{
				"x": 4.8136875783,
				"y": -2.1553294529,
				"z": -1.8644872612,
				"element": "C" 
			},
			{
				"x": 5.6330426918,
				"y": -3.2602632613,
				"z": -1.6896531373,
				"element": "C" 
			},
			{
				"x": 2.5556135298,
				"y": -1.0391981973,
				"z": -1.8018847647,
				"element": "C" 
			},
			{
				"x": 3.0180269701,
				"y": 0.2572068734,
				"z": -1.5062955626,
				"element": "C" 
			},
			{
				"x": 2.2029301203,
				"y": 1.3713157241,
				"z": -1.6801595162,
				"element": "C" 
			},
			{
				"x": 0.8982662496,
				"y": 1.1985243916,
				"z": -2.1507734095,
				"element": "C" 
			},
			{
				"x": 0.4133953801,
				"y": -0.074675243,
				"z": -2.4607502841,
				"element": "C" 
			},
			{
				"x": 1.241966035,
				"y": -1.1791250256,
				"z": -2.2862746204,
				"element": "C" 
			},
			{
				"x": -0.1617076631,
				"y": 2.6323833874,
				"z": -2.3480740209,
				"element": "S" 
			},
			{
				"x": 0.7072751998,
				"y": 3.8064020159,
				"z": -2.4295514974,
				"element": "O" 
			},
			{
				"x": -1.1632351724,
				"y": 2.3095277151,
				"z": -3.365825664,
				"element": "O" 
			},
			{
				"x": -1.025250183,
				"y": 2.8443617727,
				"z": -0.9146338555,
				"element": "N" 
			},
			{
				"x": -2.1361404163,
				"y": 1.9631299578,
				"z": -0.5491269173,
				"element": "C" 
			},
			{
				"x": -3.1770443646,
				"y": 2.7799141982,
				"z": 0.260003444,
				"element": "C" 
			},
			{
				"x": -4.3997057268,
				"y": 1.9811223538,
				"z": 0.658208466,
				"element": "C" 
			},
			{
				"x": -5.4341711458,
				"y": 1.7584507701,
				"z": -0.2615402683,
				"element": "C" 
			},
			{
				"x": -6.555251112,
				"y": 1.0090939315,
				"z": 0.0936686339,
				"element": "C" 
			},
			{
				"x": -6.6600639683,
				"y": 0.4703182693,
				"z": 1.3780883761,
				"element": "C" 
			},
			{
				"x": -5.6379104291,
				"y": 0.6866401454,
				"z": 2.3027904327,
				"element": "C" 
			},
			{
				"x": -4.5165253212,
				"y": 1.4366188762,
				"z": 1.9435603733,
				"element": "C" 
			},
			{
				"x": -1.6737475478,
				"y": 0.7270098444,
				"z": 0.223550021,
				"element": "C" 
			},
			{
				"x": -0.9405953712,
				"y": 1.0746065355,
				"z": 1.313791213,
				"element": "O" 
			},
			{
				"x": -1.9089981932,
				"y": -0.4208116517,
				"z": -0.070800922,
				"element": "O" 
			},
			{
				"x": 6.3519341532,
				"y": -7.4300107651,
				"z": -0.650731379,
				"element": "H" 
			},
			{
				"x": 5.0349305727,
				"y": -6.7103466979,
				"z": 0.3129675884,
				"element": "H" 
			},
			{
				"x": 4.7496129228,
				"y": -7.1711538309,
				"z": -1.3909578314,
				"element": "H" 
			},
			{
				"x": 3.2743324907,
				"y": -5.493260218,
				"z": -0.6460055763,
				"element": "H" 
			},
			{
				"x": 1.8487961103,
				"y": -3.5291407649,
				"z": -0.9497595442,
				"element": "H" 
			},
			{
				"x": 5.2487840161,
				"y": -1.2303748893,
				"z": -2.2309020246,
				"element": "H" 
			},
			{
				"x": 6.6970616183,
				"y": -3.2105194871,
				"z": -1.896239756,
				"element": "H" 
			},
			{
				"x": 4.0229705767,
				"y": 0.3915078764,
				"z": -1.1185395092,
				"element": "H" 
			},
			{
				"x": 2.5709450048,
				"y": 2.3691584875,
				"z": -1.4671602032,
				"element": "H" 
			},
			{
				"x": -0.5898536741,
				"y": -0.1942870125,
				"z": -2.8532439585,
				"element": "H" 
			},
			{
				"x": 0.8737445578,
				"y": -2.1630188321,
				"z": -2.5582118172,
				"element": "H" 
			},
			{
				"x": -0.4246146959,
				"y": 3.1328440848,
				"z": -0.1478204921,
				"element": "H" 
			},
			{
				"x": -2.5921777543,
				"y": 1.6075104936,
				"z": -1.4742919989,
				"element": "H" 
			},
			{
				"x": -3.4554765782,
				"y": 3.6306474342,
				"z": -0.3694314512,
				"element": "H" 
			},
			{
				"x": -2.6843888153,
				"y": 3.1830119103,
				"z": 1.1514224898,
				"element": "H" 
			},
			{
				"x": -5.3622525123,
				"y": 2.1809535945,
				"z": -1.2611052867,
				"element": "H" 
			},
			{
				"x": -7.3490085837,
				"y": 0.8493632126,
				"z": -0.6305091229,
				"element": "H" 
			},
			{
				"x": -7.5345255591,
				"y": -0.1107040289,
				"z": 1.6564044562,
				"element": "H" 
			},
			{
				"x": -5.7137293593,
				"y": 0.2753016759,
				"z": 3.3054276525,
				"element": "H" 
			},
			{
				"x": -3.7238153965,
				"y": 1.6052347543,
				"z": 2.6684338298,
				"element": "H" 
			},
			{
				"x": -0.669350958,
				"y": 0.2435591782,
				"z": 1.7387185418,
				"element": "H" 
			}
		],
		 "valence_orbital": [ 
			{
				"type": "occ",
				"energy": -0.2627,
				"method": "rhf"
			},
			{
				"type": "occ",
				"energy": -0.2602,
				"method": "rhf"
			},
			{
				"type": "occ",
				"energy": -0.2526,
				"method": "rhf"
			},
			{
				"type": "occ",
				"energy": -0.24514,
				"method": "rhf"
			},
			{
				"type": "occ",
				"energy": -0.2182,
				"method": "rhf"
			},
			{
				"type": "unocc",
				"energy": -0.04773,
				"method": "rhf"
			},
			{
				"type": "unocc",
				"energy": -0.01952,
				"method": "rhf"
			},
			{
				"type": "unocc",
				"energy": -0.01145,
				"method": "rhf"
			},
			{
				"type": "unocc",
				"energy": -0.00999,
				"method": "rhf"
			},
			{
				"type": "unocc",
				"energy": -0.00669,
				"method": "rhf"
			}
		],
		"cosmo_sigma_profile": { 
			"-0.025": 0.0,
			"-0.024": 0.0,
			"-0.023": 0.0,
			"-0.022": 0.0,
			"-0.021": 0.0,
			"-0.02": 0.0,
			"-0.019": 0.176720276274,
			"-0.018": 0.947703306957,
			"-0.017": 1.24995943276,
			"-0.016": 0.652720082033,
			"-0.015": 0.818739786359,
			"-0.014": 1.60908618575,
			"-0.013": 0.909300600871,
			"-0.012": 1.42603753569,
			"-0.011": 2.42449692924,
			"-0.01": 2.08095355539,
			"-0.009": 1.39686420107,
			"-0.008": 2.06166474654,
			"-0.007": 7.96743648841,
			"-0.006": 29.629626686,
			"-0.005": 42.3134625062,
			"-0.004": 37.3853926927,
			"-0.003": 34.8292716406,
			"-0.002": 27.0035915493,
			"-0.001": 26.4493338398,
			"0.0": 21.1882712354,
			"0.001": 25.5910026047,
			"0.002": 31.4145031025,
			"0.003": 30.7832285386,
			"0.004": 26.5812845835,
			"0.005": 25.9233730659,
			"0.006": 14.1886031736,
			"0.007": 8.30102292105,
			"0.008": 6.47083062739,
			"0.009": 6.83690562681,
			"0.01": 11.3692298349,
			"0.011": 12.6098120999,
			"0.012": 3.96898200524,
			"0.013": 0.035205984414,
			"0.014": 0.0,
			"0.015": 0.0,
			"0.016": 0.0,
			"0.017": 0.0,
			"0.018": 0.0,
			"0.019": 0.0,
			"0.02": 0.0,
			"0.021": 0.0,
			"0.022": 0.0,
			"0.023": 0.0,
			"0.024": 0.0,
			"0.025": 0.0
		}
	}
}
