{
	 "smiles": "ClC1=CC=C2NC(=O)CN3CCOC3(C3=CC=CC=C3Cl)C2=C1", 
	 "Tm": 476.15, 
	 "num_atms": 37, 
	 "gaussian": { 
		 "optdone": 1, 
		 "sigma_profile": "yes", 
		 "theory": "DFT", 
		 "functional": "B3LYP", 
		 "basiset": "6-31G**", 
		 "properties": { 
			 "R2extent": 8390.2511, 
			 "electric_dipole_moment_norm": 1.6287663706, 
			 "electric_quadrupole_moment_norm": 22.1324876403, 
			 "total_energy": -1836.55987606, 
			 "HOMO_LUMO_gap": 0.18976, 
			 "cosmo_polarized_energy": -15.62, 
			 "cosmo_cavitation_energy": 41.58, 
			 "cosmo_dispersion_energy": -29.09, 
			 "cosmo_repulsion_energy": 2.2, 
			 "cosmo_total_nonelectrostatic_energy": 14.69, 
			 "SMD_solvation_energy": 6.38 
		},
		"coords": [
			{
				"x": 5.6048281682,
				"y": -0.1024174344,
				"z": -1.5054246192,
				"element": "Cl" 
			},
			{
				"x": 4.0797437634,
				"y": 0.6586217422,
				"z": -1.0796980629,
				"element": "C" 
			},
			{
				"x": 4.0842083156,
				"y": 1.888266462,
				"z": -0.4231228307,
				"element": "C" 
			},
			{
				"x": 2.8667389889,
				"y": 2.4861044985,
				"z": -0.1315827451,
				"element": "C" 
			},
			{
				"x": 1.6444793055,
				"y": 1.8716639163,
				"z": -0.4535858012,
				"element": "C" 
			},
			{
				"x": 0.4696709888,
				"y": 2.5971790887,
				"z": -0.1524953912,
				"element": "N" 
			},
			{
				"x": -0.6191652571,
				"y": 2.7897094677,
				"z": -0.9860014945,
				"element": "C" 
			},
			{
				"x": -1.41075911,
				"y": 3.6964175056,
				"z": -0.7917272111,
				"element": "O" 
			},
			{
				"x": -0.7656910187,
				"y": 1.76100552,
				"z": -2.0955353545,
				"element": "C" 
			},
			{
				"x": -0.861694108,
				"y": 0.4316121973,
				"z": -1.4788769375,
				"element": "N" 
			},
			{
				"x": -1.6744439628,
				"y": -0.5425992573,
				"z": -2.2250387789,
				"element": "C" 
			},
			{
				"x": -0.6504581399,
				"y": -1.3200715362,
				"z": -3.092332491,
				"element": "C" 
			},
			{
				"x": 0.6233681866,
				"y": -0.9505537105,
				"z": -2.5601873186,
				"element": "O" 
			},
			{
				"x": 0.4119302244,
				"y": -0.2746512386,
				"z": -1.3124633356,
				"element": "C" 
			},
			{
				"x": 0.2576380188,
				"y": -1.2579819965,
				"z": -0.1120448592,
				"element": "C" 
			},
			{
				"x": -0.4335820101,
				"y": -0.767477634,
				"z": 1.0113163541,
				"element": "C" 
			},
			{
				"x": -0.60518311,
				"y": -1.5176244196,
				"z": 2.1697373862,
				"element": "C" 
			},
			{
				"x": -0.0812589488,
				"y": -2.8080001572,
				"z": 2.240061842,
				"element": "C" 
			},
			{
				"x": 0.6094467378,
				"y": -3.3237119042,
				"z": 1.1489170685,
				"element": "C" 
			},
			{
				"x": 0.7818111342,
				"y": -2.5585808547,
				"z": -0.010528401,
				"element": "C" 
			},
			{
				"x": 1.690797353,
				"y": -3.3619510049,
				"z": -1.2950401342,
				"element": "Cl" 
			},
			{
				"x": 1.6482228924,
				"y": 0.6005785483,
				"z": -1.0635515114,
				"element": "C" 
			},
			{
				"x": 2.8852464035,
				"y": 0.025252649,
				"z": -1.3958647053,
				"element": "C" 
			},
			{
				"x": 5.0179031143,
				"y": 2.3769102153,
				"z": -0.1689551389,
				"element": "H" 
			},
			{
				"x": 2.8515876618,
				"y": 3.4667500349,
				"z": 0.3364127562,
				"element": "H" 
			},
			{
				"x": 0.5650741699,
				"y": 3.339957832,
				"z": 0.5300173911,
				"element": "H" 
			},
			{
				"x": -1.7028096631,
				"y": 1.9944087549,
				"z": -2.6003308034,
				"element": "H" 
			},
			{
				"x": 0.0532262727,
				"y": 1.8496092019,
				"z": -2.8274678203,
				"element": "H" 
			},
			{
				"x": -2.168398539,
				"y": -1.2145853049,
				"z": -1.5168464207,
				"element": "H" 
			},
			{
				"x": -2.4458265396,
				"y": -0.035657896,
				"z": -2.8069438507,
				"element": "H" 
			},
			{
				"x": -0.6694863783,
				"y": -1.0269549091,
				"z": -4.1471607755,
				"element": "H" 
			},
			{
				"x": -0.7933105296,
				"y": -2.4048956536,
				"z": -3.0250708752,
				"element": "H" 
			},
			{
				"x": -0.8518704627,
				"y": 0.2297303842,
				"z": 0.9445031544,
				"element": "H" 
			},
			{
				"x": -1.1486188793,
				"y": -1.0957164118,
				"z": 3.0097289796,
				"element": "H" 
			},
			{
				"x": -0.2066214112,
				"y": -3.4125563246,
				"z": 3.1332878746,
				"element": "H" 
			},
			{
				"x": 1.0244643621,
				"y": -4.3249832638,
				"z": 1.1793540256,
				"element": "H" 
			},
			{
				"x": 2.8996920061,
				"y": -0.935907107,
				"z": -1.8915591647,
				"element": "H" 
			}
		],
		 "valence_orbital": [ 
			{
				"type": "occ",
				"energy": -0.26468,
				"method": "rhf"
			},
			{
				"type": "occ",
				"energy": -0.25508,
				"method": "rhf"
			},
			{
				"type": "occ",
				"energy": -0.24676,
				"method": "rhf"
			},
			{
				"type": "occ",
				"energy": -0.24132,
				"method": "rhf"
			},
			{
				"type": "occ",
				"energy": -0.22609,
				"method": "rhf"
			},
			{
				"type": "unocc",
				"energy": -0.03633,
				"method": "rhf"
			},
			{
				"type": "unocc",
				"energy": -0.02501,
				"method": "rhf"
			},
			{
				"type": "unocc",
				"energy": -0.0117,
				"method": "rhf"
			},
			{
				"type": "unocc",
				"energy": -0.00729,
				"method": "rhf"
			},
			{
				"type": "unocc",
				"energy": 0.01784,
				"method": "rhf"
			}
		],
		"cosmo_sigma_profile": { 
			"-0.025": 0.0,
			"-0.024": 0.0,
			"-0.023": 0.0,
			"-0.022": 0.0,
			"-0.021": 0.0,
			"-0.02": 0.0,
			"-0.019": 0.0,
			"-0.018": 0.0,
			"-0.017": 0.0,
			"-0.016": 0.0,
			"-0.015": 0.455916404631,
			"-0.014": 1.53982241507,
			"-0.013": 1.38339448521,
			"-0.012": 1.14397053641,
			"-0.011": 1.12111355736,
			"-0.01": 0.933206867489,
			"-0.009": 2.04771619917,
			"-0.008": 3.92343213785,
			"-0.007": 9.92639420638,
			"-0.006": 16.0323887893,
			"-0.005": 23.8329527855,
			"-0.004": 25.8625153733,
			"-0.003": 22.1308737191,
			"-0.002": 20.1877994368,
			"-0.001": 18.3432643107,
			"0.0": 23.0264007148,
			"0.001": 28.5434957631,
			"0.002": 36.3489396876,
			"0.003": 30.2246550778,
			"0.004": 26.8855573384,
			"0.005": 14.7150641829,
			"0.006": 3.90000194539,
			"0.007": 3.09337399224,
			"0.008": 2.06590009607,
			"0.009": 3.03622822584,
			"0.01": 2.80421575583,
			"0.011": 2.59470878347,
			"0.012": 4.10953813032,
			"0.013": 4.70468773143,
			"0.014": 0.882701466432,
			"0.015": 0.0,
			"0.016": 0.0,
			"0.017": 0.0,
			"0.018": 0.0,
			"0.019": 0.0,
			"0.02": 0.0,
			"0.021": 0.0,
			"0.022": 0.0,
			"0.023": 0.0,
			"0.024": 0.0,
			"0.025": 0.0
		}
	}
}
