{
	 "smiles": "NC(=O)NC(CC(O)=O)C1=CC(OC2=CC=CC=C2)=CC=C1", 
	 "Tm": 396.15, 
	 "num_atms": 38, 
	 "gaussian": { 
		 "optdone": 1, 
		 "sigma_profile": "yes", 
		 "theory": "DFT", 
		 "functional": "B3LYP", 
		 "basiset": "6-31G**", 
		 "properties": { 
			 "R2extent": 7993.8089, 
			 "electric_dipole_moment_norm": 3.39054459637, 
			 "electric_quadrupole_moment_norm": 29.547715875, 
			 "total_energy": -1029.77136822, 
			 "HOMO_LUMO_gap": 0.19909, 
			 "cosmo_polarized_energy": -27.96, 
			 "cosmo_cavitation_energy": 43.27, 
			 "cosmo_dispersion_energy": -29.03, 
			 "cosmo_repulsion_energy": 2.3, 
			 "cosmo_total_nonelectrostatic_energy": 16.54, 
			 "SMD_solvation_energy": 8.93 
		},
		"coords": [
			{
				"x": -2.53920553,
				"y": -2.5131000451,
				"z": 2.1851384142,
				"element": "N" 
			},
			{
				"x": -2.2935779219,
				"y": -1.2130575045,
				"z": 1.7737897283,
				"element": "C" 
			},
			{
				"x": -3.176552292,
				"y": -0.378904247,
				"z": 1.6327649603,
				"element": "O" 
			},
			{
				"x": -0.9438661678,
				"y": -0.9447933528,
				"z": 1.5590496152,
				"element": "N" 
			},
			{
				"x": -0.5777517008,
				"y": 0.4530141436,
				"z": 1.3504574609,
				"element": "C" 
			},
			{
				"x": 0.9544812831,
				"y": 0.6151931489,
				"z": 1.5416989478,
				"element": "C" 
			},
			{
				"x": 1.4587644894,
				"y": 0.180238477,
				"z": 2.9123718491,
				"element": "C" 
			},
			{
				"x": 2.1857048507,
				"y": 1.0749268638,
				"z": 3.6192301111,
				"element": "O" 
			},
			{
				"x": 1.2533219344,
				"y": -0.9208362336,
				"z": 3.3753072707,
				"element": "O" 
			},
			{
				"x": -0.949959579,
				"y": 0.9562864581,
				"z": -0.0408158853,
				"element": "C" 
			},
			{
				"x": -0.7766545803,
				"y": 0.1343311688,
				"z": -1.1586018345,
				"element": "C" 
			},
			{
				"x": -1.0551381847,
				"y": 0.6307245204,
				"z": -2.4338141637,
				"element": "C" 
			},
			{
				"x": -0.980282989,
				"y": -0.1507261176,
				"z": -3.5707865508,
				"element": "O" 
			},
			{
				"x": -0.0002835228,
				"y": -1.1144170394,
				"z": -3.7059179043,
				"element": "C" 
			},
			{
				"x": -0.3799611914,
				"y": -2.3202521854,
				"z": -4.299025017,
				"element": "C" 
			},
			{
				"x": 0.5819851698,
				"y": -3.3012440465,
				"z": -4.539995709,
				"element": "C" 
			},
			{
				"x": 1.9155950518,
				"y": -3.0866839348,
				"z": -4.1854213976,
				"element": "C" 
			},
			{
				"x": 2.2841067718,
				"y": -1.8759880577,
				"z": -3.5942638481,
				"element": "C" 
			},
			{
				"x": 1.3337791108,
				"y": -0.8828476744,
				"z": -3.3552896106,
				"element": "C" 
			},
			{
				"x": -1.5084303027,
				"y": 1.9405230208,
				"z": -2.6083070661,
				"element": "C" 
			},
			{
				"x": -1.6857069297,
				"y": 2.7519131935,
				"z": -1.4895268558,
				"element": "C" 
			},
			{
				"x": -1.4053067971,
				"y": 2.26741803,
				"z": -0.2109698802,
				"element": "C" 
			},
			{
				"x": -3.5153672161,
				"y": -2.7673870901,
				"z": 2.1475593243,
				"element": "H" 
			},
			{
				"x": -1.8943638918,
				"y": -3.2347491802,
				"z": 1.8960724334,
				"element": "H" 
			},
			{
				"x": -0.2999089816,
				"y": -1.4404839884,
				"z": 2.1710304872,
				"element": "H" 
			},
			{
				"x": -1.0949901722,
				"y": 1.0894566721,
				"z": 2.0817805852,
				"element": "H" 
			},
			{
				"x": 1.2147266173,
				"y": 1.6547549613,
				"z": 1.3198764105,
				"element": "H" 
			},
			{
				"x": 1.4658933494,
				"y": -0.0097976979,
				"z": 0.8001132148,
				"element": "H" 
			},
			{
				"x": 2.2641197254,
				"y": 1.9070223755,
				"z": 3.1328304263,
				"element": "H" 
			},
			{
				"x": -0.4545825262,
				"y": -0.8927707989,
				"z": -1.0282979699,
				"element": "H" 
			},
			{
				"x": -1.4213527298,
				"y": -2.4669766337,
				"z": -4.565761287,
				"element": "H" 
			},
			{
				"x": 0.284821961,
				"y": -4.2380032419,
				"z": -5.0026651989,
				"element": "H" 
			},
			{
				"x": 2.6614079834,
				"y": -3.8535316834,
				"z": -4.3707442164,
				"element": "H" 
			},
			{
				"x": 3.3210294142,
				"y": -1.6961180342,
				"z": -3.3244673017,
				"element": "H" 
			},
			{
				"x": 1.6182200712,
				"y": 0.0639563281,
				"z": -2.9087935113,
				"element": "H" 
			},
			{
				"x": -1.7259451471,
				"y": 2.2937382322,
				"z": -3.6106371589,
				"element": "H" 
			},
			{
				"x": -2.0508279546,
				"y": 3.7669461261,
				"z": -1.6162523373,
				"element": "H" 
			},
			{
				"x": -1.5626414752,
				"y": 2.9009250672,
				"z": 0.6577834651,
				"element": "H" 
			}
		],
		 "valence_orbital": [ 
			{
				"type": "occ",
				"energy": -0.25545,
				"method": "rhf"
			},
			{
				"type": "occ",
				"energy": -0.25221,
				"method": "rhf"
			},
			{
				"type": "occ",
				"energy": -0.25107,
				"method": "rhf"
			},
			{
				"type": "occ",
				"energy": -0.23977,
				"method": "rhf"
			},
			{
				"type": "occ",
				"energy": -0.2185,
				"method": "rhf"
			},
			{
				"type": "unocc",
				"energy": -0.01941,
				"method": "rhf"
			},
			{
				"type": "unocc",
				"energy": -0.00755,
				"method": "rhf"
			},
			{
				"type": "unocc",
				"energy": -0.00631,
				"method": "rhf"
			},
			{
				"type": "unocc",
				"energy": 0.00281,
				"method": "rhf"
			},
			{
				"type": "unocc",
				"energy": 0.01097,
				"method": "rhf"
			}
		],
		"cosmo_sigma_profile": { 
			"-0.025": 0.0,
			"-0.024": 0.0,
			"-0.023": 0.0,
			"-0.022": 0.0,
			"-0.021": 0.0,
			"-0.02": 0.419380202122,
			"-0.019": 1.00709214783,
			"-0.018": 1.47730271872,
			"-0.017": 1.24317808852,
			"-0.016": 0.770728468499,
			"-0.015": 1.17372467603,
			"-0.014": 1.52916075567,
			"-0.013": 3.38970769754,
			"-0.012": 4.02614117736,
			"-0.011": 3.41360449763,
			"-0.01": 3.82915993468,
			"-0.009": 3.36624490711,
			"-0.008": 4.02276051919,
			"-0.007": 8.38713270786,
			"-0.006": 21.251349552,
			"-0.005": 21.5681691891,
			"-0.004": 24.1367282914,
			"-0.003": 22.8415275625,
			"-0.002": 19.3980296709,
			"-0.001": 19.233923495,
			"0.0": 16.9263921556,
			"0.001": 18.405286549,
			"0.002": 18.6436723875,
			"0.003": 21.947955913,
			"0.004": 22.6365980783,
			"0.005": 20.9763632467,
			"0.006": 9.90146586422,
			"0.007": 5.612859212,
			"0.008": 6.89145870553,
			"0.009": 7.90951147248,
			"0.01": 7.05715493889,
			"0.011": 5.2692760468,
			"0.012": 4.8139824953,
			"0.013": 3.40827692524,
			"0.014": 5.32648011335,
			"0.015": 1.54076346242,
			"0.016": 0.0,
			"0.017": 0.0,
			"0.018": 0.0,
			"0.019": 0.0,
			"0.02": 0.0,
			"0.021": 0.0,
			"0.022": 0.0,
			"0.023": 0.0,
			"0.024": 0.0,
			"0.025": 0.0
		}
	}
}
