{
	 "smiles": "O=P(OCC1=CC=CC=C1)(OCC1=CC=CC=C1)OP(=O)(OCC1=CC=CC=C1)OCC1=CC=CC=C1", 
	 "Tm": 334.15, 
	 "num_atms": 65, 
	 "gaussian": { 
		 "optdone": 1, 
		 "sigma_profile": "yes", 
		 "theory": "DFT", 
		 "functional": "B3LYP", 
		 "basiset": "6-31G**", 
		 "properties": { 
			 "R2extent": 19709.9591, 
			 "electric_dipole_moment_norm": 4.93054529439, 
			 "electric_quadrupole_moment_norm": 19.1926921707, 
			 "total_energy": -2293.28868179, 
			 "HOMO_LUMO_gap": 0.22611, 
			 "cosmo_polarized_energy": -22.73, 
			 "cosmo_cavitation_energy": 74.12, 
			 "cosmo_dispersion_energy": -43.23, 
			 "cosmo_repulsion_energy": 3.22, 
			 "cosmo_total_nonelectrostatic_energy": 34.1, 
			 "SMD_solvation_energy": 13.54 
		},
		"coords": [
			{
				"x": 0.4846121541,
				"y": 1.0313903192,
				"z": -2.4771748122,
				"element": "O" 
			},
			{
				"x": 1.0960542988,
				"y": 0.1150907196,
				"z": -1.4900877176,
				"element": "P" 
			},
			{
				"x": 1.3702270285,
				"y": 0.6555682195,
				"z": -0.0088071434,
				"element": "O" 
			},
			{
				"x": 0.285376588,
				"y": 1.2965618445,
				"z": 0.7182229077,
				"element": "C" 
			},
			{
				"x": 0.7278721643,
				"y": 1.5367554973,
				"z": 2.1387485759,
				"element": "C" 
			},
			{
				"x": 2.020312988,
				"y": 1.9933654407,
				"z": 2.4270505285,
				"element": "C" 
			},
			{
				"x": 2.3989600277,
				"y": 2.2458665844,
				"z": 3.7451052893,
				"element": "C" 
			},
			{
				"x": 1.4896936917,
				"y": 2.0538157902,
				"z": 4.7885464685,
				"element": "C" 
			},
			{
				"x": 0.1999232495,
				"y": 1.6012262405,
				"z": 4.5074025453,
				"element": "C" 
			},
			{
				"x": -0.1766510335,
				"y": 1.3384966793,
				"z": 3.1882237006,
				"element": "C" 
			},
			{
				"x": 2.5218404673,
				"y": -0.5060067682,
				"z": -1.8229644923,
				"element": "O" 
			},
			{
				"x": 3.0335721242,
				"y": -0.4941122165,
				"z": -3.2031661676,
				"element": "C" 
			},
			{
				"x": 4.02117016,
				"y": 0.6240509835,
				"z": -3.4012749636,
				"element": "C" 
			},
			{
				"x": 5.3971269933,
				"y": 0.3750034351,
				"z": -3.339171141,
				"element": "C" 
			},
			{
				"x": 6.3155154945,
				"y": 1.4098613152,
				"z": -3.5233496458,
				"element": "C" 
			},
			{
				"x": 5.8624112151,
				"y": 2.707020353,
				"z": -3.7685348588,
				"element": "C" 
			},
			{
				"x": 4.490368068,
				"y": 2.9648872314,
				"z": -3.8299593521,
				"element": "C" 
			},
			{
				"x": 3.5733111984,
				"y": 1.9300383381,
				"z": -3.649608634,
				"element": "C" 
			},
			{
				"x": 0.1454883095,
				"y": -1.1795528741,
				"z": -1.1174074114,
				"element": "O" 
			},
			{
				"x": -0.362603351,
				"y": -2.3501615225,
				"z": -2.1460771601,
				"element": "P" 
			},
			{
				"x": 0.4832619491,
				"y": -2.4810670747,
				"z": -3.3471055096,
				"element": "O" 
			},
			{
				"x": -1.8932869873,
				"y": -2.0337922382,
				"z": -2.4609879153,
				"element": "O" 
			},
			{
				"x": -2.9274657272,
				"y": -1.9637813201,
				"z": -1.4497158894,
				"element": "C" 
			},
			{
				"x": -3.1118875407,
				"y": -0.5754806323,
				"z": -0.8783891389,
				"element": "C" 
			},
			{
				"x": -3.6293759969,
				"y": -0.4362918065,
				"z": 0.4158267866,
				"element": "C" 
			},
			{
				"x": -3.884798695,
				"y": 0.830408995,
				"z": 0.9450800154,
				"element": "C" 
			},
			{
				"x": -3.6110451074,
				"y": 1.9719332035,
				"z": 0.1877578025,
				"element": "C" 
			},
			{
				"x": -3.0811735327,
				"y": 1.8376294518,
				"z": -1.0975140765,
				"element": "C" 
			},
			{
				"x": -2.8368855487,
				"y": 0.5714631345,
				"z": -1.6322210585,
				"element": "C" 
			},
			{
				"x": -0.4808265598,
				"y": -3.5895027836,
				"z": -1.1380241885,
				"element": "O" 
			},
			{
				"x": 0.695418721,
				"y": -4.0629376287,
				"z": -0.4042175105,
				"element": "C" 
			},
			{
				"x": 0.4198411157,
				"y": -4.0406979422,
				"z": 1.0752837816,
				"element": "C" 
			},
			{
				"x": 0.6359478556,
				"y": -2.874433574,
				"z": 1.8230101744,
				"element": "C" 
			},
			{
				"x": 0.357464251,
				"y": -2.8508817003,
				"z": 3.1894820141,
				"element": "C" 
			},
			{
				"x": -0.1373879626,
				"y": -3.9937880233,
				"z": 3.8228161488,
				"element": "C" 
			},
			{
				"x": -0.3528446657,
				"y": -5.1601382193,
				"z": 3.0862950253,
				"element": "C" 
			},
			{
				"x": -0.0757314973,
				"y": -5.1813105339,
				"z": 1.7186833193,
				"element": "C" 
			},
			{
				"x": 0.0454127164,
				"y": 2.2343425939,
				"z": 0.2051222186,
				"element": "H" 
			},
			{
				"x": -0.601187806,
				"y": 0.6568639661,
				"z": 0.6934648544,
				"element": "H" 
			},
			{
				"x": 2.7291925585,
				"y": 2.1336027941,
				"z": 1.6171266912,
				"element": "H" 
			},
			{
				"x": 3.4056280177,
				"y": 2.5938264053,
				"z": 3.9586555471,
				"element": "H" 
			},
			{
				"x": 1.7866241624,
				"y": 2.2529513399,
				"z": 5.8142618329,
				"element": "H" 
			},
			{
				"x": -0.5118752039,
				"y": 1.4457304364,
				"z": 5.3132608547,
				"element": "H" 
			},
			{
				"x": -1.1795593912,
				"y": 0.9801752216,
				"z": 2.9696692467,
				"element": "H" 
			},
			{
				"x": 3.500876817,
				"y": -1.4717798833,
				"z": -3.3266995839,
				"element": "H" 
			},
			{
				"x": 2.1892644027,
				"y": -0.4246452781,
				"z": -3.8896010872,
				"element": "H" 
			},
			{
				"x": 5.7502318473,
				"y": -0.6355155983,
				"z": -3.148289158,
				"element": "H" 
			},
			{
				"x": 7.381042217,
				"y": 1.2036127871,
				"z": -3.4764758813,
				"element": "H" 
			},
			{
				"x": 6.5751915957,
				"y": 3.5139380627,
				"z": -3.9141348744,
				"element": "H" 
			},
			{
				"x": 4.1349820457,
				"y": 3.9729913713,
				"z": -4.0239625489,
				"element": "H" 
			},
			{
				"x": 2.5054015037,
				"y": 2.125248629,
				"z": -3.6916749809,
				"element": "H" 
			},
			{
				"x": -3.8322583256,
				"y": -2.2851671147,
				"z": -1.9757073301,
				"element": "H" 
			},
			{
				"x": -2.7200768963,
				"y": -2.6906673193,
				"z": -0.6595707708,
				"element": "H" 
			},
			{
				"x": -3.8353116117,
				"y": -1.3219675985,
				"z": 1.0126030462,
				"element": "H" 
			},
			{
				"x": -4.2935992104,
				"y": 0.9244383494,
				"z": 1.9473580576,
				"element": "H" 
			},
			{
				"x": -3.8053041841,
				"y": 2.9585161776,
				"z": 0.5986761573,
				"element": "H" 
			},
			{
				"x": -2.8531195103,
				"y": 2.7193615968,
				"z": -1.6889740436,
				"element": "H" 
			},
			{
				"x": -2.405958043,
				"y": 0.4744954226,
				"z": -2.6225078479,
				"element": "H" 
			},
			{
				"x": 0.8814464497,
				"y": -5.078366334,
				"z": -0.7614847851,
				"element": "H" 
			},
			{
				"x": 1.5584005539,
				"y": -3.4411691138,
				"z": -0.6567114701,
				"element": "H" 
			},
			{
				"x": 1.0221041991,
				"y": -1.9850485908,
				"z": 1.3340253119,
				"element": "H" 
			},
			{
				"x": 0.5285275862,
				"y": -1.9404761895,
				"z": 3.7566683174,
				"element": "H" 
			},
			{
				"x": -0.3498827145,
				"y": -3.9767592134,
				"z": 4.888107505,
				"element": "H" 
			},
			{
				"x": -0.7330147739,
				"y": -6.0522837738,
				"z": 3.5756577287,
				"element": "H" 
			},
			{
				"x": -0.2431849098,
				"y": -6.0897460645,
				"z": 1.1451606957,
				"element": "H" 
			}
		],
		 "valence_orbital": [ 
			{
				"type": "occ",
				"energy": -0.25439,
				"method": "rhf"
			},
			{
				"type": "occ",
				"energy": -0.25064,
				"method": "rhf"
			},
			{
				"type": "occ",
				"energy": -0.25007,
				"method": "rhf"
			},
			{
				"type": "occ",
				"energy": -0.24784,
				"method": "rhf"
			},
			{
				"type": "occ",
				"energy": -0.24566,
				"method": "rhf"
			},
			{
				"type": "unocc",
				"energy": -0.01955,
				"method": "rhf"
			},
			{
				"type": "unocc",
				"energy": -0.01317,
				"method": "rhf"
			},
			{
				"type": "unocc",
				"energy": -0.01124,
				"method": "rhf"
			},
			{
				"type": "unocc",
				"energy": -0.00899,
				"method": "rhf"
			},
			{
				"type": "unocc",
				"energy": -0.0076,
				"method": "rhf"
			}
		],
		"cosmo_sigma_profile": { 
			"-0.025": 0.0,
			"-0.024": 0.0,
			"-0.023": 0.0,
			"-0.022": 0.0,
			"-0.021": 0.0,
			"-0.02": 0.0,
			"-0.019": 0.0,
			"-0.018": 0.0,
			"-0.017": 0.0,
			"-0.016": 0.0,
			"-0.015": 0.0,
			"-0.014": 0.0,
			"-0.013": 0.0,
			"-0.012": 0.0,
			"-0.011": 0.0,
			"-0.01": 0.0,
			"-0.009": 0.0,
			"-0.008": 1.05929045081,
			"-0.007": 11.8935115339,
			"-0.006": 34.2393031504,
			"-0.005": 44.8280377664,
			"-0.004": 53.0882452602,
			"-0.003": 46.1241648469,
			"-0.002": 41.0651092664,
			"-0.001": 53.275566689,
			"0.0": 53.5769516479,
			"0.001": 43.7935021119,
			"0.002": 39.3164245466,
			"0.003": 35.4081531183,
			"0.004": 36.948152887,
			"0.005": 42.353816648,
			"0.006": 14.4772526693,
			"0.007": 6.53371259887,
			"0.008": 6.67761833417,
			"0.009": 4.90234962461,
			"0.01": 2.50702630301,
			"0.011": 3.36846446306,
			"0.012": 3.7944378051,
			"0.013": 4.926905357,
			"0.014": 1.17700172819,
			"0.015": 0.0,
			"0.016": 0.0,
			"0.017": 0.0,
			"0.018": 0.0,
			"0.019": 0.0,
			"0.02": 0.0,
			"0.021": 0.0,
			"0.022": 0.0,
			"0.023": 0.0,
			"0.024": 0.0,
			"0.025": 0.0
		}
	}
}
