{
	 "smiles": "CC(=N/CC1=CN=CC=C1)C1=C(O)C2=CC=CC=C2N(C2=CC=CC=C2)C1=O", 
	 "Tm": 495.15, 
	 "num_atms": 47, 
	 "gaussian": { 
		 "optdone": 1, 
		 "sigma_profile": "yes", 
		 "theory": "DFT", 
		 "functional": "B3LYP", 
		 "basiset": "6-31G**", 
		 "properties": { 
			 "R2extent": 13576.1, 
			 "electric_dipole_moment_norm": 2.55603456549, 
			 "electric_quadrupole_moment_norm": 30.5455676809, 
			 "total_energy": -1202.63180016, 
			 "HOMO_LUMO_gap": 0.1569, 
			 "cosmo_polarized_energy": -20.13, 
			 "cosmo_cavitation_energy": 50.44, 
			 "cosmo_dispersion_energy": -34.95, 
			 "cosmo_repulsion_energy": 2.59, 
			 "cosmo_total_nonelectrostatic_energy": 18.08, 
			 "SMD_solvation_energy": 7.3 
		},
		"coords": [
			{
				"x": -1.9743738646,
				"y": 1.7556158469,
				"z": 0.1774930995,
				"element": "C" 
			},
			{
				"x": -2.0623197441,
				"y": 0.3755387288,
				"z": -0.4145778324,
				"element": "C" 
			},
			{
				"x": -3.035728279,
				"y": 0.1186403806,
				"z": -1.2935469308,
				"element": "N" 
			},
			{
				"x": -4.0586920133,
				"y": 1.0291859229,
				"z": -1.7876905344,
				"element": "C" 
			},
			{
				"x": -3.592577055,
				"y": 1.9936323828,
				"z": -2.8682913474,
				"element": "C" 
			},
			{
				"x": -2.62239115,
				"y": 1.6287064303,
				"z": -3.811034868,
				"element": "C" 
			},
			{
				"x": -2.2093675286,
				"y": 2.421191901,
				"z": -4.8061102088,
				"element": "N" 
			},
			{
				"x": -2.7631530682,
				"y": 3.6365012599,
				"z": -4.8986325681,
				"element": "C" 
			},
			{
				"x": -3.7353469763,
				"y": 4.1062760504,
				"z": -4.014897076,
				"element": "C" 
			},
			{
				"x": -4.1538809205,
				"y": 3.2681732117,
				"z": -2.983327132,
				"element": "C" 
			},
			{
				"x": -1.1562096932,
				"y": -0.6747793345,
				"z": -0.0885765568,
				"element": "C" 
			},
			{
				"x": -1.2630185088,
				"y": -1.9586920929,
				"z": -0.7569708771,
				"element": "C" 
			},
			{
				"x": -2.152214366,
				"y": -2.22801873,
				"z": -1.6081137026,
				"element": "O" 
			},
			{
				"x": -0.2671165388,
				"y": -2.9890034119,
				"z": -0.4211996189,
				"element": "C" 
			},
			{
				"x": -0.3226467158,
				"y": -4.2370372855,
				"z": -1.0625131819,
				"element": "C" 
			},
			{
				"x": 0.6011085371,
				"y": -5.2298070207,
				"z": -0.7750689369,
				"element": "C" 
			},
			{
				"x": 1.6016138529,
				"y": -4.9733129116,
				"z": 0.1722418044,
				"element": "C" 
			},
			{
				"x": 1.6775331489,
				"y": -3.747368752,
				"z": 0.8211951146,
				"element": "C" 
			},
			{
				"x": 0.7406373515,
				"y": -2.7358942401,
				"z": 0.5318798706,
				"element": "C" 
			},
			{
				"x": 0.7892504858,
				"y": -1.4931431095,
				"z": 1.1707680185,
				"element": "N" 
			},
			{
				"x": 1.8034454487,
				"y": -1.2332582127,
				"z": 2.1644214972,
				"element": "C" 
			},
			{
				"x": 1.5637369641,
				"y": -1.5516297251,
				"z": 3.5022906147,
				"element": "C" 
			},
			{
				"x": 2.5520775178,
				"y": -1.3152091217,
				"z": 4.4583321485,
				"element": "C" 
			},
			{
				"x": 3.7766409721,
				"y": -0.7619969094,
				"z": 4.0783037789,
				"element": "C" 
			},
			{
				"x": 4.0115126505,
				"y": -0.4437622636,
				"z": 2.7391059023,
				"element": "C" 
			},
			{
				"x": 3.0256126183,
				"y": -0.6790248298,
				"z": 1.7801733176,
				"element": "C" 
			},
			{
				"x": -0.1184176743,
				"y": -0.4401987868,
				"z": 0.9209569383,
				"element": "C" 
			},
			{
				"x": 0.0147033686,
				"y": 0.6014577431,
				"z": 1.565498753,
				"element": "O" 
			},
			{
				"x": -0.9529923407,
				"y": 2.1298978102,
				"z": 0.1074435726,
				"element": "H" 
			},
			{
				"x": -2.6536996005,
				"y": 2.4496299095,
				"z": -0.3160645382,
				"element": "H" 
			},
			{
				"x": -2.1898763414,
				"y": 1.7207132447,
				"z": 1.248381689,
				"element": "H" 
			},
			{
				"x": -4.8542828031,
				"y": 0.3922743622,
				"z": -2.1915215704,
				"element": "H" 
			},
			{
				"x": -4.5097335489,
				"y": 1.5895468406,
				"z": -0.9621516879,
				"element": "H" 
			},
			{
				"x": -2.1524694265,
				"y": 0.6483659454,
				"z": -3.7526808012,
				"element": "H" 
			},
			{
				"x": -2.4114389297,
				"y": 4.2637058684,
				"z": -5.715794966,
				"element": "H" 
			},
			{
				"x": -4.1477501263,
				"y": 5.1038460604,
				"z": -4.1294292392,
				"element": "H" 
			},
			{
				"x": -4.9071612802,
				"y": 3.6019010292,
				"z": -2.2728608406,
				"element": "H" 
			},
			{
				"x": -2.988929484,
				"y": -0.8591601346,
				"z": -1.6520096892,
				"element": "H" 
			},
			{
				"x": -1.1148440513,
				"y": -4.3865432118,
				"z": -1.7878570153,
				"element": "H" 
			},
			{
				"x": 0.5515374819,
				"y": -6.1914083982,
				"z": -1.2760207524,
				"element": "H" 
			},
			{
				"x": 2.3343447877,
				"y": -5.7397776511,
				"z": 0.4093695864,
				"element": "H" 
			},
			{
				"x": 2.4570604689,
				"y": -3.5669812374,
				"z": 1.5503266162,
				"element": "H" 
			},
			{
				"x": 0.6059214963,
				"y": -1.9770918461,
				"z": 3.7845534827,
				"element": "H" 
			},
			{
				"x": 2.3641178487,
				"y": -1.5609789458,
				"z": 5.4993857511,
				"element": "H" 
			},
			{
				"x": 4.5448303585,
				"y": -0.5779004322,
				"z": 4.8237266711,
				"element": "H" 
			},
			{
				"x": 4.9612907679,
				"y": -0.0103643061,
				"z": 2.4398112141,
				"element": "H" 
			},
			{
				"x": 3.1933559031,
				"y": -0.4327580282,
				"z": 0.7364830311,
				"element": "H" 
			}
		],
		 "valence_orbital": [ 
			{
				"type": "occ",
				"energy": -0.25093,
				"method": "rhf"
			},
			{
				"type": "occ",
				"energy": -0.24963,
				"method": "rhf"
			},
			{
				"type": "occ",
				"energy": -0.2366,
				"method": "rhf"
			},
			{
				"type": "occ",
				"energy": -0.22122,
				"method": "rhf"
			},
			{
				"type": "occ",
				"energy": -0.21196,
				"method": "rhf"
			},
			{
				"type": "unocc",
				"energy": -0.05506,
				"method": "rhf"
			},
			{
				"type": "unocc",
				"energy": -0.0325,
				"method": "rhf"
			},
			{
				"type": "unocc",
				"energy": -0.02097,
				"method": "rhf"
			},
			{
				"type": "unocc",
				"energy": -0.01166,
				"method": "rhf"
			},
			{
				"type": "unocc",
				"energy": -0.00688,
				"method": "rhf"
			}
		],
		"cosmo_sigma_profile": { 
			"-0.025": 0.0,
			"-0.024": 0.0,
			"-0.023": 0.0,
			"-0.022": 0.0,
			"-0.021": 0.0,
			"-0.02": 0.0,
			"-0.019": 0.0,
			"-0.018": 0.0,
			"-0.017": 0.0,
			"-0.016": 0.0,
			"-0.015": 0.0,
			"-0.014": 0.0,
			"-0.013": 0.0,
			"-0.012": 0.0,
			"-0.011": 0.0,
			"-0.01": 0.237456239074,
			"-0.009": 1.10521754006,
			"-0.008": 4.9653844858,
			"-0.007": 13.0437050635,
			"-0.006": 25.8758684644,
			"-0.005": 33.6173612382,
			"-0.004": 35.2866638093,
			"-0.003": 28.3773782397,
			"-0.002": 30.6291819779,
			"-0.001": 30.965724672,
			"0.0": 29.7627891361,
			"0.001": 32.251833118,
			"0.002": 30.0343341048,
			"0.003": 26.8186255595,
			"0.004": 23.1775880849,
			"0.005": 13.8151071079,
			"0.006": 5.72941345999,
			"0.007": 5.00376652838,
			"0.008": 5.55082355214,
			"0.009": 4.298638921,
			"0.01": 4.10413452311,
			"0.011": 4.16419107999,
			"0.012": 5.61920166715,
			"0.013": 4.27328356172,
			"0.014": 3.54006018122,
			"0.015": 1.15076791516,
			"0.016": 0.974204703412,
			"0.017": 0.38698112843,
			"0.018": 0.0,
			"0.019": 0.0,
			"0.02": 0.0,
			"0.021": 0.0,
			"0.022": 0.0,
			"0.023": 0.0,
			"0.024": 0.0,
			"0.025": 0.0
		}
	}
}
