{
	 "smiles": "COCCOC1=C(C=C(C=C1)C(O)=O)[N+]([O-])=O", 
	 "Tm": 408.15, 
	 "num_atms": 28, 
	 "gaussian": { 
		 "optdone": 1, 
		 "sigma_profile": "yes", 
		 "theory": "DFT", 
		 "functional": "B3LYP", 
		 "basiset": "6-31G**", 
		 "properties": { 
			 "R2extent": 6424.29, 
			 "electric_dipole_moment_norm": 5.7673262696, 
			 "electric_quadrupole_moment_norm": 22.4040770256, 
			 "total_energy": -893.670232351, 
			 "HOMO_LUMO_gap": 0.17244, 
			 "cosmo_polarized_energy": -17.56, 
			 "cosmo_cavitation_energy": 34.15, 
			 "cosmo_dispersion_energy": -24.49, 
			 "cosmo_repulsion_energy": 1.93, 
			 "cosmo_total_nonelectrostatic_energy": 11.59, 
			 "SMD_solvation_energy": 10.14 
		},
		"coords": [
			{
				"x": -1.9567052419,
				"y": -4.718580256,
				"z": -2.0805256346,
				"element": "C" 
			},
			{
				"x": -1.9083790957,
				"y": -3.7422433933,
				"z": -1.0587181938,
				"element": "O" 
			},
			{
				"x": -0.8104911834,
				"y": -2.8664960405,
				"z": -1.1898592102,
				"element": "C" 
			},
			{
				"x": -0.9025030957,
				"y": -1.8837884608,
				"z": -0.031820533,
				"element": "C" 
			},
			{
				"x": 0.2106958367,
				"y": -0.9966042275,
				"z": -0.1684555347,
				"element": "O" 
			},
			{
				"x": 0.3894321432,
				"y": -0.0100090016,
				"z": 0.7230949035,
				"element": "C" 
			},
			{
				"x": 1.5238521468,
				"y": 0.8306799078,
				"z": 0.5905207925,
				"element": "C" 
			},
			{
				"x": 1.7886023817,
				"y": 1.8310425118,
				"z": 1.5152699386,
				"element": "C" 
			},
			{
				"x": 0.920777499,
				"y": 2.0528598527,
				"z": 2.5866311556,
				"element": "C" 
			},
			{
				"x": -0.2095190361,
				"y": 1.2363190505,
				"z": 2.724790753,
				"element": "C" 
			},
			{
				"x": -0.4672115888,
				"y": 0.2182020187,
				"z": 1.814964956,
				"element": "C" 
			},
			{
				"x": 1.2421144083,
				"y": 3.1495600286,
				"z": 3.5328365361,
				"element": "C" 
			},
			{
				"x": 0.3336166107,
				"y": 3.2622266203,
				"z": 4.5346765674,
				"element": "O" 
			},
			{
				"x": 2.2064906814,
				"y": 3.8823118676,
				"z": 3.4444180764,
				"element": "O" 
			},
			{
				"x": 2.4677227067,
				"y": 0.6913828101,
				"z": -0.5287023358,
				"element": "N" 
			},
			{
				"x": 3.6266140778,
				"y": 1.0572089807,
				"z": -0.3265858161,
				"element": "O" 
			},
			{
				"x": 2.0460786156,
				"y": 0.2502508314,
				"z": -1.594197941,
				"element": "O" 
			},
			{
				"x": -2.051347739,
				"y": -4.2602740253,
				"z": -3.0768203983,
				"element": "H" 
			},
			{
				"x": -2.8344310445,
				"y": -5.3404830164,
				"z": -1.8912338456,
				"element": "H" 
			},
			{
				"x": -1.0593875004,
				"y": -5.3561929695,
				"z": -2.0766614501,
				"element": "H" 
			},
			{
				"x": 0.148450924,
				"y": -3.4068617201,
				"z": -1.1444752374,
				"element": "H" 
			},
			{
				"x": -0.8373898321,
				"y": -2.3184208976,
				"z": -2.1447228771,
				"element": "H" 
			},
			{
				"x": -1.8471942167,
				"y": -1.3296140809,
				"z": -0.08281081,
				"element": "H" 
			},
			{
				"x": -0.8575429716,
				"y": -2.419093448,
				"z": 0.9243068414,
				"element": "H" 
			},
			{
				"x": 2.6742809687,
				"y": 2.4432793811,
				"z": 1.3985324382,
				"element": "H" 
			},
			{
				"x": -0.8879172,
				"y": 1.3979240918,
				"z": 3.5547384271,
				"element": "H" 
			},
			{
				"x": -1.3395252769,
				"y": -0.4076228247,
				"z": 1.9527552297,
				"element": "H" 
			},
			{
				"x": 0.6387160219,
				"y": 4.000636409,
				"z": 5.0869532021,
				"element": "H" 
			}
		],
		 "valence_orbital": [ 
			{
				"type": "occ",
				"energy": -0.29522,
				"method": "rhf"
			},
			{
				"type": "occ",
				"energy": -0.28613,
				"method": "rhf"
			},
			{
				"type": "occ",
				"energy": -0.27717,
				"method": "rhf"
			},
			{
				"type": "occ",
				"energy": -0.27151,
				"method": "rhf"
			},
			{
				"type": "occ",
				"energy": -0.25554,
				"method": "rhf"
			},
			{
				"type": "unocc",
				"energy": -0.0831,
				"method": "rhf"
			},
			{
				"type": "unocc",
				"energy": -0.05561,
				"method": "rhf"
			},
			{
				"type": "unocc",
				"energy": -0.01497,
				"method": "rhf"
			},
			{
				"type": "unocc",
				"energy": 0.05057,
				"method": "rhf"
			},
			{
				"type": "unocc",
				"energy": 0.0615,
				"method": "rhf"
			}
		],
		"cosmo_sigma_profile": { 
			"-0.025": 0.0,
			"-0.024": 0.0,
			"-0.023": 0.0,
			"-0.022": 0.0,
			"-0.021": 0.0,
			"-0.02": 0.0,
			"-0.019": 0.171953118973,
			"-0.018": 0.937427910421,
			"-0.017": 0.916260471921,
			"-0.016": 0.842998344344,
			"-0.015": 0.601996846569,
			"-0.014": 0.809354338145,
			"-0.013": 0.684771935445,
			"-0.012": 0.454519617225,
			"-0.011": 0.569792019912,
			"-0.01": 1.16965012601,
			"-0.009": 1.62254763125,
			"-0.008": 4.66746714752,
			"-0.007": 9.20553412493,
			"-0.006": 12.2126463786,
			"-0.005": 13.0167829624,
			"-0.004": 25.9721154622,
			"-0.003": 23.9178341457,
			"-0.002": 27.8095242889,
			"-0.001": 23.621659327,
			"0.0": 19.8691522986,
			"0.001": 13.2396719236,
			"0.002": 8.72201889366,
			"0.003": 7.76269655161,
			"0.004": 6.59538604155,
			"0.005": 7.53916354251,
			"0.006": 8.93913136621,
			"0.007": 10.5948579603,
			"0.008": 12.636097099,
			"0.009": 9.55901086008,
			"0.01": 6.81206003373,
			"0.011": 6.12086428294,
			"0.012": 3.59187718828,
			"0.013": 0.00758354460644,
			"0.014": 0.0,
			"0.015": 0.0,
			"0.016": 0.0,
			"0.017": 0.0,
			"0.018": 0.0,
			"0.019": 0.0,
			"0.02": 0.0,
			"0.021": 0.0,
			"0.022": 0.0,
			"0.023": 0.0,
			"0.024": 0.0,
			"0.025": 0.0
		}
	}
}
