{
	 "smiles": "CC(=C)C=O", 
	 "Tm": 192.15, 
	 "num_atms": 11, 
	 "gaussian": { 
		 "optdone": 1, 
		 "sigma_profile": "yes", 
		 "theory": "DFT", 
		 "functional": "B3LYP", 
		 "basiset": "6-31G**", 
		 "properties": { 
			 "R2extent": 827.7813, 
			 "electric_dipole_moment_norm": 2.83317252034, 
			 "electric_quadrupole_moment_norm": 7.98341223413, 
			 "total_energy": -231.232910104, 
			 "HOMO_LUMO_gap": 0.19341, 
			 "cosmo_polarized_energy": -5.95, 
			 "cosmo_cavitation_energy": 15.04, 
			 "cosmo_dispersion_energy": -10.67, 
			 "cosmo_repulsion_energy": 0.94, 
			 "cosmo_total_nonelectrostatic_energy": 5.32, 
			 "SMD_solvation_energy": 4.67 
		},
		"coords": [
			{
				"x": 1.6744311702,
				"y": 1.1133783253,
				"z": -0.4159291496,
				"element": "C" 
			},
			{
				"x": 0.3880280537,
				"y": 1.500933186,
				"z": 0.2674057263,
				"element": "C" 
			},
			{
				"x": -0.7125739329,
				"y": 1.9279318753,
				"z": -0.3662454169,
				"element": "C" 
			},
			{
				"x": 0.3580925271,
				"y": 1.3945167746,
				"z": 1.7572017056,
				"element": "C" 
			},
			{
				"x": -0.596761283,
				"y": 1.6666529115,
				"z": 2.4581111714,
				"element": "O" 
			},
			{
				"x": 2.5116596344,
				"y": 1.7320218514,
				"z": -0.0693202078,
				"element": "H" 
			},
			{
				"x": 1.942463265,
				"y": 0.07173967,
				"z": -0.1992269425,
				"element": "H" 
			},
			{
				"x": 1.5993139077,
				"y": 1.2239702999,
				"z": -1.5001774624,
				"element": "H" 
			},
			{
				"x": -1.5983685881,
				"y": 2.1868621876,
				"z": 0.2053570631,
				"element": "H" 
			},
			{
				"x": -0.7546967596,
				"y": 2.027028154,
				"z": -1.4469284951,
				"element": "H" 
			},
			{
				"x": 1.3070120055,
				"y": 1.0325647644,
				"z": 2.2151520077,
				"element": "H" 
			}
		],
		 "valence_orbital": [ 
			{
				"type": "occ",
				"energy": -0.39477,
				"method": "rhf"
			},
			{
				"type": "occ",
				"energy": -0.38532,
				"method": "rhf"
			},
			{
				"type": "occ",
				"energy": -0.37305,
				"method": "rhf"
			},
			{
				"type": "occ",
				"energy": -0.27073,
				"method": "rhf"
			},
			{
				"type": "occ",
				"energy": -0.25474,
				"method": "rhf"
			},
			{
				"type": "unocc",
				"energy": -0.06133,
				"method": "rhf"
			},
			{
				"type": "unocc",
				"energy": 0.05939,
				"method": "rhf"
			},
			{
				"type": "unocc",
				"energy": 0.09838,
				"method": "rhf"
			},
			{
				"type": "unocc",
				"energy": 0.12717,
				"method": "rhf"
			},
			{
				"type": "unocc",
				"energy": 0.14179,
				"method": "rhf"
			}
		],
		"cosmo_sigma_profile": { 
			"-0.025": 0.0,
			"-0.024": 0.0,
			"-0.023": 0.0,
			"-0.022": 0.0,
			"-0.021": 0.0,
			"-0.02": 0.0,
			"-0.019": 0.0,
			"-0.018": 0.0,
			"-0.017": 0.0,
			"-0.016": 0.0,
			"-0.015": 0.0,
			"-0.014": 0.0,
			"-0.013": 0.0,
			"-0.012": 0.0,
			"-0.011": 0.0,
			"-0.01": 0.0,
			"-0.009": 0.0,
			"-0.008": 0.0,
			"-0.007": 0.691388601942,
			"-0.006": 5.80393470806,
			"-0.005": 15.0283929117,
			"-0.004": 12.7038034506,
			"-0.003": 10.5636135191,
			"-0.002": 11.088908239,
			"-0.001": 11.8385642528,
			"0.0": 10.6180783139,
			"0.001": 6.16952611444,
			"0.002": 6.00039088671,
			"0.003": 5.83048092218,
			"0.004": 2.98242734607,
			"0.005": 2.5948359625,
			"0.006": 1.19239161499,
			"0.007": 1.28825415379,
			"0.008": 2.09295367472,
			"0.009": 2.21869702017,
			"0.01": 2.69003995127,
			"0.011": 4.17963015611,
			"0.012": 2.93723437604,
			"0.013": 0.728065113893,
			"0.014": 0.0,
			"0.015": 0.0,
			"0.016": 0.0,
			"0.017": 0.0,
			"0.018": 0.0,
			"0.019": 0.0,
			"0.02": 0.0,
			"0.021": 0.0,
			"0.022": 0.0,
			"0.023": 0.0,
			"0.024": 0.0,
			"0.025": 0.0
		}
	}
}
