{
	 "smiles": "CC1=C(C=C(C=C1[N+]([O-])=O)C(=O)N1CCCCCC1)[N+]([O-])=O", 
	 "Tm": 379.15, 
	 "num_atms": 39, 
	 "gaussian": { 
		 "optdone": 1, 
		 "sigma_profile": "yes", 
		 "theory": "DFT", 
		 "functional": "B3LYP", 
		 "basiset": "6-31G**", 
		 "properties": { 
			 "R2extent": 8460.8204, 
			 "electric_dipole_moment_norm": 4.91486576826, 
			 "electric_quadrupole_moment_norm": 11.5426329384, 
			 "total_energy": -1083.919083, 
			 "HOMO_LUMO_gap": 0.14719, 
			 "cosmo_polarized_energy": -16.43, 
			 "cosmo_cavitation_energy": 41.62, 
			 "cosmo_dispersion_energy": -28.67, 
			 "cosmo_repulsion_energy": 2.18, 
			 "cosmo_total_nonelectrostatic_energy": 15.13, 
			 "SMD_solvation_energy": 10.39 
		},
		"coords": [
			{
				"x": -1.6775851991,
				"y": -2.8946747469,
				"z": 4.1886341151,
				"element": "C" 
			},
			{
				"x": -1.3798598033,
				"y": -1.8365969937,
				"z": 3.1537034391,
				"element": "C" 
			},
			{
				"x": -1.9806922847,
				"y": -1.816180055,
				"z": 1.8774781161,
				"element": "C" 
			},
			{
				"x": -1.6522832942,
				"y": -0.9038847774,
				"z": 0.8793687728,
				"element": "C" 
			},
			{
				"x": -0.6667705579,
				"y": 0.057743387,
				"z": 1.1026381418,
				"element": "C" 
			},
			{
				"x": -0.057297806,
				"y": 0.0953519104,
				"z": 2.3547815293,
				"element": "C" 
			},
			{
				"x": -0.4212098183,
				"y": -0.8215035077,
				"z": 3.3408641586,
				"element": "C" 
			},
			{
				"x": 0.2733944762,
				"y": -0.6545094347,
				"z": 4.6346234797,
				"element": "N" 
			},
			{
				"x": 1.4122284048,
				"y": -0.1890375487,
				"z": 4.6009001645,
				"element": "O" 
			},
			{
				"x": -0.3304615987,
				"y": -0.9596063536,
				"z": 5.6604488712,
				"element": "O" 
			},
			{
				"x": -0.432603305,
				"y": 1.1004528811,
				"z": 0.0330614939,
				"element": "C" 
			},
			{
				"x": -1.4118294054,
				"y": 1.6351966957,
				"z": -0.4835686479,
				"element": "O" 
			},
			{
				"x": 0.856693607,
				"y": 1.4358708059,
				"z": -0.2849300157,
				"element": "N" 
			},
			{
				"x": 1.0469852441,
				"y": 2.5390140852,
				"z": -1.2414975888,
				"element": "C" 
			},
			{
				"x": 1.0491980036,
				"y": 2.1157354877,
				"z": -2.7160920581,
				"element": "C" 
			},
			{
				"x": 2.0375258143,
				"y": 0.9963972402,
				"z": -3.0880615371,
				"element": "C" 
			},
			{
				"x": 1.6740267347,
				"y": -0.3772316268,
				"z": -2.4898425985,
				"element": "C" 
			},
			{
				"x": 2.1238341942,
				"y": -0.6363613964,
				"z": -1.0372426618,
				"element": "C" 
			},
			{
				"x": 2.0216407401,
				"y": 0.5634862875,
				"z": -0.0730748574,
				"element": "C" 
			},
			{
				"x": -3.0439763983,
				"y": -2.7800069506,
				"z": 1.5218220019,
				"element": "N" 
			},
			{
				"x": -3.8044027238,
				"y": -3.1536113151,
				"z": 2.4125697028,
				"element": "O" 
			},
			{
				"x": -3.1152258314,
				"y": -3.1229867814,
				"z": 0.3435283884,
				"element": "O" 
			},
			{
				"x": -1.9890208768,
				"y": -3.8243590636,
				"z": 3.7151682363,
				"element": "H" 
			},
			{
				"x": -0.8086843991,
				"y": -3.0783359114,
				"z": 4.8185672905,
				"element": "H" 
			},
			{
				"x": -2.4926263678,
				"y": -2.5727582586,
				"z": 4.8425218135,
				"element": "H" 
			},
			{
				"x": -2.1760196942,
				"y": -0.9398557778,
				"z": -0.067627653,
				"element": "H" 
			},
			{
				"x": 0.687234663,
				"y": 0.8426511733,
				"z": 2.5985760681,
				"element": "H" 
			},
			{
				"x": 1.9990758353,
				"y": 3.0184252011,
				"z": -0.9841847817,
				"element": "H" 
			},
			{
				"x": 0.2455265185,
				"y": 3.2596189128,
				"z": -1.0708361799,
				"element": "H" 
			},
			{
				"x": 1.2677662628,
				"y": 3.0114127457,
				"z": -3.3118402876,
				"element": "H" 
			},
			{
				"x": 0.0342259333,
				"y": 1.800854894,
				"z": -2.9854657302,
				"element": "H" 
			},
			{
				"x": 3.0627281321,
				"y": 1.2792964336,
				"z": -2.8082403706,
				"element": "H" 
			},
			{
				"x": 2.0422232068,
				"y": 0.9059805867,
				"z": -4.1806450521,
				"element": "H" 
			},
			{
				"x": 0.5856767738,
				"y": -0.4995978505,
				"z": -2.5592349613,
				"element": "H" 
			},
			{
				"x": 2.1003411188,
				"y": -1.171597272,
				"z": -3.1133612972,
				"element": "H" 
			},
			{
				"x": 1.5388008566,
				"y": -1.4736741787,
				"z": -0.6378542691,
				"element": "H" 
			},
			{
				"x": 3.170941456,
				"y": -0.9651260674,
				"z": -1.0228381653,
				"element": "H" 
			},
			{
				"x": 2.0464424558,
				"y": 0.2015429113,
				"z": 0.9563530085,
				"element": "H" 
			},
			{
				"x": 2.8985389324,
				"y": 1.2066642287,
				"z": -0.1885700787,
				"element": "H" 
			}
		],
		 "valence_orbital": [ 
			{
				"type": "occ",
				"energy": -0.31091,
				"method": "rhf"
			},
			{
				"type": "occ",
				"energy": -0.29579,
				"method": "rhf"
			},
			{
				"type": "occ",
				"energy": -0.28999,
				"method": "rhf"
			},
			{
				"type": "occ",
				"energy": -0.26612,
				"method": "rhf"
			},
			{
				"type": "occ",
				"energy": -0.25286,
				"method": "rhf"
			},
			{
				"type": "unocc",
				"energy": -0.10567,
				"method": "rhf"
			},
			{
				"type": "unocc",
				"energy": -0.09902,
				"method": "rhf"
			},
			{
				"type": "unocc",
				"energy": -0.05398,
				"method": "rhf"
			},
			{
				"type": "unocc",
				"energy": -0.02121,
				"method": "rhf"
			},
			{
				"type": "unocc",
				"energy": 0.01892,
				"method": "rhf"
			}
		],
		"cosmo_sigma_profile": { 
			"-0.025": 0.0,
			"-0.024": 0.0,
			"-0.023": 0.0,
			"-0.022": 0.0,
			"-0.021": 0.0,
			"-0.02": 0.0,
			"-0.019": 0.0,
			"-0.018": 0.0,
			"-0.017": 0.0,
			"-0.016": 0.0,
			"-0.015": 0.0,
			"-0.014": 0.0,
			"-0.013": 0.0,
			"-0.012": 0.0,
			"-0.011": 0.0312545859697,
			"-0.01": 0.885699252583,
			"-0.009": 2.81688309705,
			"-0.008": 4.95288548686,
			"-0.007": 7.86006739486,
			"-0.006": 11.6776019229,
			"-0.005": 16.6837753932,
			"-0.004": 24.0848572865,
			"-0.003": 44.8261791603,
			"-0.002": 44.998129989,
			"-0.001": 33.7640107682,
			"0.0": 25.4733688063,
			"0.001": 16.9896659172,
			"0.002": 7.16710537851,
			"0.003": 6.78476152892,
			"0.004": 8.31007599026,
			"0.005": 8.14815002728,
			"0.006": 12.1009040082,
			"0.007": 19.0704526561,
			"0.008": 11.2601824829,
			"0.009": 8.19200950323,
			"0.01": 2.44149950485,
			"0.011": 1.30482180385,
			"0.012": 2.36302939985,
			"0.013": 4.5401763271,
			"0.014": 1.08005886695,
			"0.015": 0.0,
			"0.016": 0.0,
			"0.017": 0.0,
			"0.018": 0.0,
			"0.019": 0.0,
			"0.02": 0.0,
			"0.021": 0.0,
			"0.022": 0.0,
			"0.023": 0.0,
			"0.024": 0.0,
			"0.025": 0.0
		}
	}
}
